G4.5ncore-PETIM in water
114687
    1aaa     N1    1   2.889   8.327   9.881 -0.1674  0.5010  0.0269
    1aaa     C1    2   3.008   8.399   9.818  0.1245  0.2149  0.5570
    1aaa     H1    3   3.095   8.381   9.882 -0.2117 -1.5474  0.5703
    1aaa     H2    4   3.041   8.358   9.722  0.4023  0.9391  0.3370
    1aaa     C2    5   2.777   8.309   9.790 -0.8654 -0.0358  0.2305
    1aaa     H3    6   2.799   8.375   9.705  0.5548 -0.2845  0.3701
    1aaa     H4    7   2.773   8.208   9.749  1.5756 -0.8847  1.8324
    1aaa     C3    8   2.927   8.205   9.959 -0.2485 -0.2469 -0.1145
    1aaa     H5    9   2.979   8.130   9.898  2.4081  0.7975  0.6888
    1aaa     H6   10   3.008   8.230  10.029 -0.7397  0.1909  0.3017
    1aaa     C4   11   2.804   8.144  10.029  0.6624  0.6494 -0.0792
    1aaa     H7   12   2.768   8.212  10.107  0.7778 -1.4097  1.8876
    1aaa     H8   13   2.724   8.132   9.954  1.5664  1.4860 -1.2060
    1aaa     C5   14   2.982   8.555   9.798  0.1862 -0.5560 -0.0531
    1aaa     H9   15   2.903   8.567   9.723 -0.1872 -2.1865  0.0440
    1aaa    H10   16   2.950   8.589   9.897  0.5369 -1.8382  0.5223
    1aaa     C6   17   2.648   8.376   9.847 -0.1738  0.1033 -0.1849
    1aaa    H11   18   2.605   8.318   9.930 -0.4735  1.4862  0.6686
    1aaa    H12   19   2.681   8.476   9.877  0.4289  0.6905 -2.6020
    1aaa     C7   20   2.534   8.383   9.745  0.0500  0.8888 -0.2084
    1aaa    H13   21   2.451   8.444   9.784  0.3714  0.9610  0.3806
    1aaa    H14   22   2.568   8.435   9.655  0.4942  0.7962 -0.0969
    1aaa     C8   23   2.841   8.019  10.100 -0.2302  0.2812  0.1583
    1aaa    H15   24   2.923   8.041  10.169  0.8383  0.4265 -1.1166
    1aaa    H16   25   2.754   7.979  10.153 -1.2868  1.7264 -0.4202
    1aaa     C9   26   3.108   8.632   9.764 -0.0915 -0.3665 -0.2658
    1aaa    H17   27   3.075   8.737   9.762 -0.3734 -0.3982  1.2491
    1aaa    H18   28   3.176   8.612   9.848 -0.8938  1.2422  0.8301
    2bbb     N1   29   2.466   7.873   9.496  0.1622 -0.0541 -0.0543
    2bbb     C1   30   2.572   7.814   9.419 -0.2655 -0.2107  0.0500
    2bbb     H1   31   2.664   7.801   9.478 -0.6398  0.6431  0.8472
    2bbb     H2   32   2.598   7.886   9.340 -0.1964  0.6922  0.8707
    2bbb     C2   33   2.408   7.773   9.601  0.0797 -0.2544  0.1271
    2bbb     H3   34   2.403   7.673   9.559  0.1638  0.1433 -0.8562
    2bbb     H4   35   2.302   7.793   9.619  0.2382  0.1173  0.6919
    2bbb     C3   36   2.492   8.013   9.543  0.3277 -0.1183 -0.3946
    2bbb     H5   37   2.529   8.063   9.453  1.0011 -0.4923 -0.3350
    2bbb     H6   38   2.561   8.009   9.628  0.9595 -1.6227 -0.9373
    2bbb     C4   39   2.368   8.089   9.585 -0.5566 -0.2515 -0.8040
    2bbb     H7   40   2.326   8.034   9.671  0.0768  1.5966  0.7482
    2bbb     H8   41   2.293   8.081   9.506  0.1512 -2.6518 -1.3217
    2bbb     C5   42   2.538   7.683   9.334  0.1555 -0.1084  0.0816
    2bbb     H9   43   2.437   7.693   9.292 -1.2617 -0.7928  3.0770
    2bbb    H10   44   2.527   7.597   9.401  3.4312  0.6447  1.7660
    2bbb     C6   45   2.487   7.767   9.727 -0.4523 -0.5511 -0.3537
    2bbb    H11   46   2.466   7.853   9.792  1.0438  0.5136 -1.2133
    2bbb    H12   47   2.596   7.763   9.716 -0.1544  2.4011  0.5218
    2bbb     C7   48   2.394   8.240   9.611  0.1031  0.8054  0.4807
    2bbb    H13   49   2.298   8.279   9.647 -1.9680 -1.9361 -1.6422
    2bbb    H14   50   2.422   8.294   9.520  1.7718 -1.5619 -0.5270
    2bbb     C8   51   2.443   7.651   9.817 -0.0675  0.4028 -0.6012
    2bbb    H15   52   2.500   7.643   9.911 -1.6463  0.7054  0.4201
    2bbb    H16   53   2.457   7.555   9.765 -1.1967  0.1210 -0.4091
    2bbb     C9   54   2.650   7.648   9.231  0.0941  1.0949 -0.1101
    2bbb    H17   55   2.637   7.549   9.186 -1.4577  2.2469 -2.4084
    2bbb    H18   56   2.752   7.665   9.268 -0.2598  1.5193  0.6901
    2bbb     O1   57   2.494   8.252   9.710 -0.2394 -0.2686  0.7751
    3bbb     N1   58   2.877   7.651   9.703  0.1001 -0.0161  0.0615
    3bbb     C1   59   2.938   7.513   9.696 -0.5687 -0.0912  0.2267
    3bbb     H1   60   3.005   7.491   9.780  0.9737  1.2127 -0.6138
    3bbb     H2   61   3.013   7.522   9.616  0.0444  5.6128  1.0150
    3bbb     C2   62   2.979   7.745   9.647  0.3835 -0.1005 -0.1313
    3bbb     H3   63   2.983   7.735   9.538  2.2330  1.1627 -0.2233
    3bbb     H4   64   3.076   7.725   9.692  0.2097  0.7532  0.6491
    3bbb     C3   65   2.823   7.680   9.837  0.0221  0.0809 -0.2066
    3bbb     H5   66   2.740   7.620   9.877  0.8744  0.1497  1.7877
    3bbb     H6   67   2.780   7.781   9.830 -0.5536 -0.1500 -0.0724
    3bbb     C4   68   2.938   7.692   9.944 -0.4054 -0.4209 -0.1611
    3bbb     H7   69   3.035   7.715   9.899 -0.0476  0.5541  1.0564
    3bbb     H8   70   2.950   7.591   9.985 -0.8171 -0.5886 -0.4490
    3bbb     C5   71   2.839   7.393   9.676 -0.1994 -0.4090  0.1427
    3bbb     H9   72   2.769   7.383   9.760  1.4758  0.0061  1.6606
    3bbb    H10   73   2.891   7.296   9.674  1.3258  0.3742  0.6019
    3bbb     C6   74   2.966   7.896   9.677  0.1743 -0.0720 -0.2331
    3bbb    H11   75   3.008   7.917   9.776 -2.9922  0.7029  1.0541
    3bbb    H12   76   2.862   7.932   9.681  0.2126 -0.0751  2.0656
    3bbb     C7   77   2.901   7.790  10.056 -0.0239 -0.2534 -0.2628
    3bbb    H13   78   2.992   7.795  10.116  0.8827  1.5587 -1.7078
    3bbb    H14   79   2.817   7.753  10.117  2.0335 -1.3632  2.0630
    3bbb     C8   80   3.039   7.984   9.565  0.3646 -0.1099  0.0157
    3bbb    H15   81   3.023   8.091   9.584 -0.6961  0.0531 -1.5808
    3bbb    H16   82   2.997   7.965   9.465 -1.6506 -0.5147  0.9037
    3bbb     C9   83   2.753   7.405   9.550  0.3167 -0.3726  0.6196
    3bbb    H17   84   2.820   7.404   9.463 -1.6917 -3.7820 -1.0804
    3bbb    H18   85   2.703   7.502   9.546  1.9930  0.5283  0.4463
    3bbb     O1   86   2.880   7.921  10.003  0.6632 -0.3380  0.1014
    4bbb     N1   87   3.379   8.351   9.360 -0.2112  0.4055  0.1588
    4bbb     C1   88   3.515   8.365   9.306 -0.6549 -0.3112  0.1192
    4bbb     H1   89   3.510   8.443   9.230 -1.0090  0.6756  1.1201
    4bbb     H2   90   3.543   8.274   9.252 -0.3489  0.2817 -0.7311
    4bbb     C2   91   3.267   8.337   9.261  0.5185  0.4600  0.3676
    4bbb     H3   92   3.194   8.418   9.254  0.8842  0.6549 -2.0331
    4bbb     H4   93   3.209   8.254   9.304  1.5221 -1.5016 -1.8077
    4bbb     C3   94   3.338   8.428   9.482  0.2196  0.1279  0.5403
    4bbb     H5   95   3.403   8.408   9.568 -0.4443 -1.7863  0.6617
    4bbb     H6   96   3.243   8.383   9.511 -0.4081  0.3203 -1.1065
    4bbb     C4   97   3.309   8.575   9.465  0.4922  0.3013 -0.5997
    4bbb     H7   98   3.228   8.587   9.392 -0.6295 -2.0053  0.1638
    4bbb     H8   99   3.400   8.619   9.422 -0.0402  1.4779 -0.5562
    4bbb     C5  100   3.627   8.388   9.411 -0.2320 -0.1779  0.4379
    4bbb     H9  101   3.629   8.313   9.491 -1.5432 -0.1018  0.5687
    4bbb    H10  102   3.606   8.482   9.464 -3.2148 -1.7566  2.3237
    4bbb     C6  103   3.297   8.295   9.120  0.1942  0.0127 -0.7526
    4bbb    H11  104   3.354   8.202   9.132  1.9046  0.9877 -1.0299
    4bbb    H12  105   3.357   8.376   9.078  1.5121 -0.6902 -0.2776
    4bbb     C7  106   3.276   8.647   9.594 -0.2022  0.8489 -0.3181
    4bbb    H13  107   3.256   8.754   9.580 -3.8957  0.4122  0.4389
    4bbb    H14  108   3.353   8.633   9.671  0.9736  0.1603 -1.5772
    4bbb     C8  109   3.168   8.266   9.036 -0.3868 -0.4318  0.4958
    4bbb    H15  110   3.109   8.179   9.065 -1.5097 -0.6236 -2.1503
    4bbb    H16  111   3.186   8.239   8.931 -2.1635  1.4091 -0.3518
    4bbb     C9  112   3.765   8.393   9.345  0.0828 -0.1558  0.1764
    4bbb    H17  113   3.773   8.308   9.276 -1.8459 -0.8757  0.7788
    4bbb    H18  114   3.837   8.375   9.426  0.2622 -0.2003  0.0070
    4bbb     O1  115   3.154   8.594   9.640 -0.2254  0.3712 -0.0749
    5bbb     N1  116   1.976   7.962   9.810  0.6458 -0.1618  0.3963
    5bbb     C1  117   1.975   8.070   9.708 -0.3776  0.0601  0.2781
    5bbb     H1  118   1.874   8.103   9.681 -0.7426  0.0521  1.5374
    5bbb     H2  119   2.020   8.030   9.616  0.5459 -2.0633  1.5635
    5bbb     C2  120   1.855   7.870   9.809  0.2788 -0.3092 -0.0491
    5bbb     H3  121   1.763   7.929   9.794 -0.8724 -2.3808 -1.8015
    5bbb     H4  122   1.848   7.823   9.908 -1.1295  3.4325  1.8380
    5bbb     C3  123   2.103   7.888   9.828  0.0957 -0.2952  0.6970
    5bbb     H5  124   2.183   7.962   9.844 -0.0866 -0.0384  0.4320
    5bbb     H6  125   2.130   7.834   9.736 -0.2288 -0.3164  0.6138
    5bbb     C4  126   2.115   7.797   9.948 -0.9926  0.3866 -0.2036
    5bbb     H7  127   2.041   7.717   9.933 -2.2136  1.2026  1.1166
    5bbb     H8  128   2.094   7.844  10.046  0.5908  2.1595 -0.6468
    5bbb     C5  129   2.052   8.200   9.756  0.4257 -0.5879  0.8621
    5bbb     H9  130   2.158   8.182   9.775  0.9001 -0.1416 -1.0865
    5bbb    H10  131   2.000   8.222   9.850 -1.1636 -0.3952 -0.0239
    5bbb     C6  132   1.855   7.762   9.697  0.3470 -0.6104 -0.5981
    5bbb    H11  133   1.940   7.695   9.717  1.1777  0.2492 -1.1432
    5bbb    H12  134   1.872   7.823   9.607 -0.2318  0.8474  0.2493
    5bbb     C7  135   2.264   7.740   9.956  0.1058 -0.3089  0.1264
    5bbb    H13  136   2.268   7.665  10.036  0.2203  0.1682  0.5749
    5bbb    H14  137   2.333   7.822   9.978  0.1960 -0.7527  1.6323
    5bbb     C8  138   1.720   7.686   9.694 -0.6562  0.8576 -0.2380
    5bbb    H15  139   1.692   7.655   9.795  0.2741 -1.5748 -0.6538
    5bbb    H16  140   1.741   7.590   9.644  0.3991  1.8752 -1.8620
    5bbb     C9  141   2.027   8.316   9.657 -0.0712  0.4865  0.0138
    5bbb    H17  142   2.085   8.404   9.687  2.7773 -1.4901  0.7778
    5bbb    H18  143   1.921   8.344   9.659  0.1965  1.6585 -1.2330
    5bbb     O1  144   2.301   7.668   9.842 -0.2076  0.1481 -0.3442
    6bbb     N1  145   2.754   8.158   9.046  0.9702  0.2932 -0.0120
    6bbb     C1  146   2.675   8.209   8.932  0.2799 -0.2201 -0.7417
    6bbb     H1  147   2.688   8.142   8.846  1.4953 -0.2860 -0.5237
    6bbb     H2  148   2.718   8.303   8.896 -1.6148  0.1290 -2.2945
    6bbb     C2  149   2.751   8.242   9.168  1.3343 -0.7752  0.0070
    6bbb     H3  150   2.657   8.233   9.224  1.6701  0.5578  0.8211
    6bbb     H4  151   2.747   8.350   9.149 -0.9549 -0.6918  0.7511
    6bbb     C3  152   2.740   8.020   9.093  0.4292  0.4568  0.1978
    6bbb     H5  153   2.654   8.010   9.161  1.6857  0.2957  1.8381
    6bbb     H6  154   2.830   7.995   9.151  1.1041  3.6110  0.7062
    6bbb     C4  155   2.738   7.917   8.978 -0.1669  0.4515 -0.0686
    6bbb     H7  156   2.806   7.930   8.893  0.0232  0.1936  0.0434
    6bbb     H8  157   2.641   7.932   8.927  0.1084  2.2367 -0.1303
    6bbb     C5  158   2.525   8.225   8.965 -0.0437 -0.0824  1.2115
    6bbb     H9  159   2.499   8.299   9.042 -2.2130  0.0406  0.4273
    6bbb    H10  160   2.501   8.129   9.013 -0.6837 -1.0801 -0.9613
    6bbb     C6  161   2.866   8.243   9.271 -0.4724 -0.2903  0.0418
    6bbb    H11  162   2.949   8.305   9.234  0.0247  0.1151  1.7263
    6bbb    H12  163   2.907   8.141   9.281  0.3965  0.0538  0.0862
    6bbb     C7  164   2.741   7.766   9.034  0.1115  0.1974 -0.3000
    6bbb    H13  165   2.837   7.753   9.086 -0.2115  0.5840  0.3973
    6bbb    H14  166   2.737   7.688   8.956  2.9876 -2.8883  2.3366
    6bbb     C8  167   2.820   8.301   9.410  0.1180  0.1946 -0.1407
    6bbb    H15  168   2.909   8.300   9.473 -0.4311 -2.1414  0.7186
    6bbb    H16  169   2.752   8.229   9.457  0.5905 -1.3143 -1.6563
    6bbb     C9  170   2.447   8.246   8.833 -0.0839 -0.4700  0.0855
    6bbb    H17  171   2.492   8.329   8.777 -1.0286  0.0643  0.1072
    6bbb    H18  172   2.345   8.279   8.856  0.8340  1.7311  1.3515
    6bbb     O1  173   2.633   7.741   9.127  0.3298  0.2937 -0.0594
    7bbb     N1  174   3.374   7.737   9.387  0.8485 -0.9120 -0.0633
    7bbb     C1  175   3.392   7.654   9.267  0.6424  0.6972  0.1561
    7bbb     H1  176   3.498   7.629   9.255 -0.2705 -3.6618 -0.2870
    7bbb     H2  177   3.364   7.707   9.175  1.0681 -1.3221 -1.1973
    7bbb     C2  178   3.381   7.678   9.519  0.1004 -1.0046 -0.6140
    7bbb     H3  179   3.325   7.584   9.527 -0.6281 -0.6593 -1.5229
    7bbb     H4  180   3.336   7.748   9.590  1.9256 -0.0712 -0.2953
    7bbb     C3  181   3.437   7.865   9.364 -0.3817  0.3441  0.2347
    7bbb     H5  182   3.406   7.901   9.265  0.5812  1.0295  0.1711
    7bbb     H6  183   3.545   7.859   9.345 -0.2538 -1.7812  1.2867
    7bbb     C4  184   3.411   7.977   9.466  0.1631  0.1716  0.1453
    7bbb     H7  185   3.466   8.068   9.442 -2.0533  1.8776  1.1659
    7bbb     H8  186   3.450   7.945   9.564 -0.5728 -0.7654  0.1480
    7bbb     C5  187   3.316   7.523   9.267  0.4306 -0.0849 -0.9555
    7bbb     H9  188   3.209   7.544   9.258  0.6740  0.7391 -2.1300
    7bbb    H10  189   3.344   7.464   9.355  1.4189 -0.3033 -1.4066
    7bbb     C6  190   3.524   7.650   9.561 -0.1433  0.3061  0.3827
    7bbb    H11  191   3.571   7.749   9.569 -1.1944  0.9463 -0.9378
    7bbb    H12  192   3.579   7.593   9.486 -1.9727 -1.9887  0.6834
    7bbb     C7  193   3.267   8.028   9.469  0.1767  0.1358 -0.3944
    7bbb    H13  194   3.226   8.007   9.369  0.1398  0.1301 -0.3778
    7bbb    H14  195   3.265   8.135   9.491  2.3275  0.2007 -0.3484
    7bbb     C8  196   3.540   7.573   9.685 -0.4176  0.2647 -0.1704
    7bbb    H15  197   3.492   7.625   9.770 -1.8078 -0.2669 -0.5898
    7bbb    H16  198   3.647   7.565   9.705 -0.6040 -1.1039  0.3509
    7bbb     C9  199   3.344   7.435   9.147  0.3893 -0.3670 -0.2916
    7bbb    H17  200   3.451   7.415   9.132  0.3233  0.1150 -1.5200
    7bbb    H18  201   3.298   7.473   9.056  0.8231  0.4190 -0.1925
    7bbb     O1  202   3.183   7.953   9.565  0.2353  0.7218 -0.2757
    8bbb     N1  203   2.437   6.932   9.529  0.9941 -0.2852  0.7629
    8bbb     C1  204   2.352   6.892   9.413 -0.0366 -0.1036  0.2132
    8bbb     H1  205   2.328   6.785   9.417 -0.5661  0.0145  0.2510
    8bbb     H2  206   2.404   6.895   9.317  0.1466  0.2178  0.3193
    8bbb     C2  207   2.376   6.938   9.662 -0.3793  0.2204 -0.1580
    8bbb     H3  208   2.308   7.024   9.657 -1.8896 -0.5279  3.7342
    8bbb     H4  209   2.460   6.967   9.727  0.8299  0.2824 -1.7014
    8bbb     C3  210   2.532   7.048   9.497  0.0747  0.2875 -1.0115
    8bbb     H5  211   2.594   7.025   9.410  1.2809  1.5215 -0.5227
    8bbb     H6  212   2.605   7.052   9.579  0.6731 -1.7423 -1.4005
    8bbb     C4  213   2.466   7.188   9.470  0.0394  0.2358  0.8878
    8bbb     H7  214   2.409   7.205   9.562 -3.3813 -0.4055 -0.9500
    8bbb     H8  215   2.397   7.182   9.386  0.3453  2.7223  0.3586
    8bbb     C5  216   2.214   6.969   9.395 -0.0919  1.2198 -0.1281
    8bbb     H9  217   2.218   7.074   9.365  0.5871  1.0788 -0.5363
    8bbb    H10  218   2.160   6.965   9.491  0.5639  0.8726  0.2316
    8bbb     C6  219   2.316   6.809   9.718  0.1048  0.0083 -0.5438
    8bbb    H11  220   2.399   6.760   9.770 -0.8461 -1.1267 -0.0675
    8bbb    H12  221   2.290   6.738   9.639 -0.3411 -0.9172  0.4090
    8bbb     C7  222   2.570   7.292   9.436 -0.1878 -0.4415  0.2585
    8bbb    H13  223   2.519   7.388   9.419  1.3920  0.1580 -1.4375
    8bbb    H14  224   2.618   7.267   9.340 -0.8148  0.7115 -0.3760
    8bbb     C8  225   2.200   6.831   9.817 -1.2179 -0.4275  0.1579
    8bbb    H15  226   2.159   6.732   9.841  0.0885 -0.9795  0.1970
    8bbb    H16  227   2.125   6.889   9.762 -2.7018  0.1943  2.6998
    8bbb     C9  228   2.118   6.907   9.287 -0.8622  0.1886  0.2842
    8bbb    H17  229   2.099   6.802   9.310  0.6892 -0.2234 -0.2253
    8bbb    H18  230   2.170   6.907   9.191  0.7499 -1.9284  1.0794
    8bbb     O1  231   2.664   7.291   9.543  0.1681 -0.4425  0.0261
    9bbb     N1  232   2.903   8.587   8.708  0.1262  0.0545  0.3537
    9bbb     C1  233   2.811   8.622   8.592 -0.4388 -0.2008 -0.1058
    9bbb     H1  234   2.758   8.712   8.627  1.4794  1.4073 -1.1434
    9bbb     H2  235   2.742   8.540   8.567 -1.1987 -0.3353  2.1419
    9bbb     C2  236   3.027   8.662   8.724  0.1450 -0.1464 -0.6150
    9bbb     H3  237   3.082   8.662   8.630  1.4161 -1.1008  0.0883
    9bbb     H4  238   3.104   8.619   8.790  0.1469  1.0592  0.1941
    9bbb     C3  239   2.829   8.577   8.830  0.3986 -0.0406  0.4512
    9bbb     H5  240   2.745   8.507   8.816  1.4439 -1.0619 -1.1388
    9bbb     H6  241   2.786   8.675   8.852 -0.4460 -0.6462  1.5850
    9bbb     C4  242   2.910   8.530   8.954 -0.1117  1.0893 -0.8589
    9bbb     H7  243   2.840   8.503   9.034  0.8701  3.0875  0.7903
    9bbb     H8  244   2.968   8.610   9.002 -1.5025  0.3601  2.3271
    9bbb     C5  245   2.888   8.673   8.460 -0.0897  0.1724 -0.6594
    9bbb     H9  246   2.953   8.761   8.469  0.2287  0.1574 -2.4028
    9bbb    H10  247   2.807   8.706   8.393 -0.9388  1.1463  0.8018
    9bbb     C6  248   2.995   8.807   8.771  0.4784 -0.5501 -0.0730
    9bbb    H11  249   2.976   8.807   8.879  1.1416 -1.0262  0.0545
    9bbb    H12  250   2.912   8.845   8.710 -0.5102 -0.6758  1.1504
    9bbb     C7  251   3.000   8.403   8.928 -0.4670 -0.3072 -0.0636
    9bbb    H13  252   3.059   8.425   8.838 -1.5615 -0.0854 -0.7406
    9bbb    H14  253   2.946   8.310   8.907 -0.0490 -0.6644  0.4253
    9bbb     C8  254   3.112   8.908   8.739 -0.4986 -0.2840 -0.0786
    9bbb    H15  255   3.146   8.900   8.635 -1.2643 -2.0289 -0.2458
    9bbb    H16  256   3.198   8.883   8.802  0.7396 -0.2212 -1.6883
    9bbb     C9  257   2.961   8.565   8.386  0.1712 -0.3335 -0.0253
    9bbb    H17  258   2.904   8.471   8.381 -0.4961  0.0988 -0.6888
    9bbb    H18  259   3.058   8.552   8.435  1.1380  1.6071 -1.2833
    9bbb     O1  260   3.092   8.383   9.041  0.4220 -0.0470  0.0493
   10bbb     N1  261   3.730   8.484   8.861  0.1168 -0.5369 -0.1172
   10bbb     C1  262   3.605   8.536   8.804  0.3142  0.5618  0.4857
   10bbb     H1  263   3.613   8.645   8.806  2.1374  0.5215 -1.3869
   10bbb     H2  264   3.518   8.507   8.865 -0.9235  0.4485 -1.2645
   10bbb     C2  265   3.747   8.334   8.857  0.2358 -0.2973  0.6829
   10bbb     H3  266   3.852   8.314   8.881 -0.1414 -2.3142  0.8047
   10bbb     H4  267   3.739   8.288   8.757  2.7781 -1.7901  1.0692
   10bbb     C3  268   3.757   8.548   8.997  0.0815 -0.6150  0.0503
   10bbb     H5  269   3.668   8.535   9.060  1.0672  0.4379  1.7219
   10bbb     H6  270   3.792   8.649   8.978  1.3823 -0.7189  1.6108
   10bbb     C4  271   3.875   8.485   9.073  0.0195 -0.1285 -0.2842
   10bbb     H7  272   3.971   8.486   9.021  0.7165  0.7269  0.9652
   10bbb     H8  273   3.855   8.379   9.096  0.9381 -0.1005  0.7091
   10bbb     C5  274   3.583   8.496   8.655 -0.4809 -0.3951 -0.1731
   10bbb     H9  275   3.571   8.388   8.642 -0.8029 -0.4983  0.8865
   10bbb    H10  276   3.665   8.536   8.594 -0.2343  0.5424  0.7540
   10bbb     C6  277   3.641   8.268   8.950 -0.3991  0.6663 -0.2683
   10bbb    H11  278   3.540   8.296   8.915 -1.5334  0.7552  2.7320
   10bbb    H12  279   3.653   8.315   9.048  0.9382  0.0477 -0.1169
   10bbb     C7  280   3.893   8.551   9.207 -0.0904 -0.2344  0.1517
   10bbb    H13  281   3.913   8.657   9.188 -0.6578 -0.2901 -0.7945
   10bbb    H14  282   3.975   8.504   9.264 -0.4462  0.7624  1.5217
   10bbb     C8  283   3.653   8.118   8.956  0.2984 -0.2656 -1.0901
   10bbb    H15  284   3.689   8.077   8.861  0.3727 -0.6522 -0.8960
   10bbb    H16  285   3.551   8.078   8.962 -0.1707  0.8907 -1.0012
   10bbb     C9  286   3.462   8.556   8.587  0.0813  0.1470 -0.0169
   10bbb    H17  287   3.374   8.505   8.629 -0.1488  0.8838  0.4124
   10bbb    H18  288   3.448   8.538   8.480  1.3827  2.8630 -0.7340
   10bbb     O1  289   3.783   8.526   9.290 -0.4300 -0.4252  0.1463
   11bbb     N1  290   1.277   8.004   9.521  0.2416  0.0222 -0.0028
   11bbb     C1  291   1.169   7.976   9.428 -0.3150 -0.8378 -0.1421
   11bbb     H1  292   1.111   8.068   9.410  1.2811  0.2234 -0.0084
   11bbb     H2  293   1.095   7.904   9.465 -1.5616  1.4802  2.2887
   11bbb     C2  294   1.250   8.133   9.594  0.2489 -0.3331 -0.3069
   11bbb     H3  295   1.237   8.216   9.523 -2.3377  0.5776  1.1343
   11bbb     H4  296   1.338   8.155   9.655  0.0687 -2.3562  0.7280
   11bbb     C3  297   1.324   7.892   9.600  0.5233 -0.4024  0.9742
   11bbb     H5  298   1.235   7.846   9.645  0.3105 -1.9915 -0.9461
   11bbb     H6  299   1.390   7.930   9.679  0.5416 -1.7520  1.6364
   11bbb     C4  300   1.403   7.784   9.520  0.1342  0.0063  0.9722
   11bbb     H7  301   1.459   7.843   9.447  0.9359 -0.4320  1.2261
   11bbb     H8  302   1.330   7.725   9.463 -0.6570  0.5630  1.3986
   11bbb     C5  303   1.214   7.945   9.285  0.2536  0.9723  0.0054
   11bbb     H9  304   1.133   7.901   9.225  1.9988 -0.3068 -1.5240
   11bbb    H10  305   1.288   7.864   9.287 -1.1448 -0.3874 -0.8749
   11bbb     C6  306   1.116   8.143   9.674 -0.1609 -0.1453  0.0823
   11bbb    H11  307   1.027   8.162   9.614 -0.5658 -1.0329  0.3927
   11bbb    H12  308   1.108   8.239   9.727 -4.8516  0.0211 -0.5354
   11bbb     C7  309   1.497   7.702   9.609  0.1959 -0.1251  0.0601
   11bbb    H13  310   1.516   7.602   9.568 -1.7096 -1.2357  1.6939
   11bbb    H14  311   1.440   7.692   9.702  1.3286 -2.2373  0.5926
   11bbb     C8  312   1.090   8.035   9.780 -0.0317  0.0991 -0.2863
   11bbb    H15  313   1.018   8.081   9.849 -0.6536 -0.3933 -0.5921
   11bbb    H16  314   1.180   8.021   9.841  0.1655 -1.3947 -0.8769
   11bbb     C9  315   1.283   8.061   9.217 -0.3867 -0.1883  0.4353
   11bbb    H17  316   1.316   8.023   9.120  0.4934 -0.5900  0.8768
   11bbb    H18  317   1.371   8.088   9.278 -1.4200  0.1340  1.8393
   11bbb     O1  318   1.621   7.768   9.629 -0.4349  0.0446  0.1724
   12bbb     N1  319   2.037   8.041   9.178 -0.1697  0.1276  0.1550
   12bbb     C1  320   1.988   8.088   9.052  1.0344 -0.0825  0.4167
   12bbb     H1  321   1.895   8.140   9.076 -0.9996 -2.7492 -1.1405
   12bbb     H2  322   1.953   8.008   8.985  2.4446  1.0706 -1.8035
   12bbb     C2  323   2.140   7.940   9.165  0.2768  0.0347 -0.1319
   12bbb     H3  324   2.226   7.981   9.113  0.4526  1.0475  0.9140
   12bbb     H4  325   2.100   7.868   9.092 -2.9603  0.5061  1.0021
   12bbb     C3  326   2.083   8.147   9.271  0.4374  0.2035  0.2272
   12bbb     H5  327   2.178   8.187   9.234  0.2637  0.4455  0.0349
   12bbb     H6  328   2.103   8.108   9.372 -0.1145 -2.0109 -0.4592
   12bbb     C4  329   1.973   8.247   9.304 -0.2290 -0.3582 -0.1509
   12bbb     H7  330   1.885   8.197   9.347  1.1348  0.3314  3.7711
   12bbb     H8  331   1.940   8.300   9.214 -0.8914 -0.5215 -0.0099
   12bbb     C5  332   2.080   8.181   8.973 -0.1298  0.0876 -0.4251
   12bbb     H9  333   2.183   8.143   8.972 -0.2608 -0.3357 -2.5655
   12bbb    H10  334   2.084   8.271   9.035 -0.0708 -0.1123 -0.1402
   12bbb     C6  335   2.177   7.851   9.288 -0.4020 -0.4244 -0.2082
   12bbb    H11  336   2.242   7.914   9.351  1.1829 -1.8918 -0.3047
   12bbb    H12  337   2.240   7.767   9.256 -1.1785 -0.6845 -1.1169
   12bbb     C7  338   2.024   8.337   9.413 -0.3509  0.1484  0.0224
   12bbb    H13  339   1.937   8.396   9.445  0.4007  0.8175  0.8671
   12bbb    H14  340   2.110   8.395   9.379 -0.7537  0.2728 -0.8018
   12bbb     C8  341   2.059   7.808   9.367 -0.5104  0.2774  0.1904
   12bbb    H15  342   1.999   7.894   9.398  0.2413  1.3139 -1.1272
   12bbb    H16  343   2.094   7.766   9.462 -2.0897 -1.3733  0.0930
   12bbb     C9  344   2.032   8.209   8.829 -0.1894 -0.4424  1.0168
   12bbb    H17  345   2.106   8.273   8.779  0.8704  1.3394  4.5387
   12bbb    H18  346   1.935   8.258   8.845  0.2700  1.7171 -1.9980
   12bbb     O1  347   2.075   8.265   9.527  0.3866  0.5815 -0.0887
   13bbb     N1  348   2.589   8.678   9.206  0.0501  0.2139  0.3848
   13bbb     C1  349   2.456   8.675   9.157 -0.0998  0.1803  0.0023
   13bbb     H1  350   2.476   8.642   9.055 -1.3360 -2.0695  0.4294
   13bbb     H2  351   2.416   8.777   9.160  1.3484  0.7796  0.2515
   13bbb     C2  352   2.670   8.782   9.132 -0.4425 -0.6652  0.1604
   13bbb     H3  353   2.659   8.767   9.024  0.7366 -0.2824 -0.0250
   13bbb     H4  354   2.777   8.764   9.147  0.3434  1.6551 -1.9911
   13bbb     C3  355   2.610   8.677   9.351 -1.0471  0.9055 -0.3911
   13bbb     H5  356   2.544   8.599   9.392 -1.4063  0.3672 -1.9234
   13bbb     H6  357   2.574   8.771   9.394 -2.1077  0.9581 -1.3433
   13bbb     C4  358   2.755   8.669   9.410 -0.1569 -0.3708  0.2434
   13bbb     H7  359   2.752   8.684   9.519  0.5976  0.0307  0.2185
   13bbb     H8  360   2.808   8.758   9.375  0.5900 -0.7343  0.4261
   13bbb     C5  361   2.365   8.564   9.217 -0.0741 -0.5573  0.4223
   13bbb     H9  362   2.318   8.601   9.309 -1.6656 -1.2232 -0.0878
   13bbb    H10  363   2.415   8.471   9.243  1.2847  0.1857  0.5589
   13bbb     C6  364   2.651   8.936   9.182 -0.1535  0.2836  1.2018
   13bbb    H11  365   2.689   8.940   9.285  0.6521  0.9471  0.8899
   13bbb    H12  366   2.543   8.958   9.186  0.2212  2.2317  1.4737
   13bbb     C7  367   2.836   8.537   9.388  0.2942  0.0694 -0.1736
   13bbb    H13  368   2.918   8.546   9.460  0.0678  4.3614 -0.2364
   13bbb    H14  369   2.864   8.522   9.283  3.2814 -0.1496  0.5745
   13bbb     C8  370   2.719   9.046   9.092  0.6946  1.5524  0.4852
   13bbb    H15  371   2.825   9.023   9.073  0.2465 -0.4286  0.1431
   13bbb    H16  372   2.711   9.140   9.147  0.2359  2.3002 -0.8099
   13bbb     C9  373   2.256   8.524   9.116  0.4188 -0.3316  0.6552
   13bbb    H17  374   2.194   8.443   9.159  1.2705 -0.1307  2.3499
   13bbb    H18  375   2.308   8.502   9.022  1.1462  2.6199  0.2698
   13bbb     O1  376   2.749   8.425   9.410 -0.2048  0.6352 -0.7315
   14bbb     N1  377   2.628   7.849   8.478 -0.4709 -0.1425  0.9077
   14bbb     C1  378   2.623   7.728   8.567  0.5238  0.1491  0.1454
   14bbb     H1  379   2.524   7.713   8.612  0.9912 -1.8767  0.6215
   14bbb     H2  380   2.692   7.749   8.650 -0.0755 -2.0699  1.2778
   14bbb     C2  381   2.765   7.871   8.416 -1.0241 -0.4916 -0.3289
   14bbb     H3  382   2.758   7.958   8.348 -0.6736  1.7295  2.2903
   14bbb     H4  383   2.799   7.785   8.357  2.9649  0.9601 -0.4563
   14bbb     C3  384   2.588   7.963   8.562 -0.2175  0.2601  0.7874
   14bbb     H5  385   2.617   8.057   8.513 -0.0501  0.0551  0.4879
   14bbb     H6  386   2.632   7.955   8.662 -0.0207  1.3551  0.8055
   14bbb     C4  387   2.438   7.966   8.580  0.4930 -0.6666  0.6082
   14bbb     H7  388   2.410   7.887   8.651  2.6204 -0.9974  1.1482
   14bbb     H8  389   2.379   7.941   8.491  0.0639 -2.1550  1.2778
   14bbb     C5  390   2.663   7.592   8.499  0.0107  0.4766  0.3951
   14bbb     H9  391   2.637   7.511   8.568 -1.2877 -0.0165 -0.6447
   14bbb    H10  392   2.770   7.580   8.476  0.1110  1.9404 -0.0208
   14bbb     C6  393   2.889   7.919   8.507  0.1026  0.2099  0.5730
   14bbb    H11  394   2.903   7.864   8.601 -2.7394  0.5193  1.2709
   14bbb    H12  395   2.871   8.022   8.539 -0.3177  0.7280 -1.1775
   14bbb     C7  396   2.393   8.098   8.636 -0.2787 -0.7215 -0.0162
   14bbb    H13  397   2.284   8.099   8.648 -0.5215 -1.6725 -1.7975
   14bbb    H14  398   2.416   8.186   8.575 -1.3103 -1.4451 -1.4978
   14bbb     C8  399   3.022   7.912   8.426 -0.2820  0.3008 -0.1359
   14bbb    H15  400   3.090   7.985   8.471 -0.8380  0.5793  0.2616
   14bbb    H16  401   3.009   7.946   8.323 -0.3627 -2.1385 -0.9926
   14bbb     C9  402   2.589   7.567   8.361  0.2525 -0.7926  0.7081
   14bbb    H17  403   2.597   7.651   8.292  0.9595 -1.6814 -0.3242
   14bbb    H18  404   2.489   7.526   8.381 -0.6462  0.1909 -1.5180
   14bbb     O1  405   2.456   8.117   8.764  0.1285  0.1708 -0.0617
   15bbb     N1  406   3.664   7.224   9.988  0.5467 -0.1300 -0.0730
   15bbb     C1  407   3.554   7.187  10.073 -0.7839  0.6944 -0.8919
   15bbb     H1  408   3.563   7.082  10.102 -0.1004  0.4642 -1.8752
   15bbb     H2  409   3.467   7.193  10.006 -1.3096  0.7292 -0.2071
   15bbb     C2  410   3.801   7.234  10.048  0.7796  0.1926 -0.9259
   15bbb     H3  411   3.796   7.326  10.107 -3.1669 -0.8183  0.5893
   15bbb     H4  412   3.871   7.261   9.968  2.6454 -0.6209  0.3436
   15bbb     C3  413   3.672   7.164   9.847  0.2517  0.7589 -0.5336
   15bbb     H5  414   3.597   7.084   9.836  1.2366  0.1322 -3.8985
   15bbb     H6  415   3.776   7.131   9.835  0.0673 -0.6710  1.3031
   15bbb     C4  416   3.643   7.268   9.738  0.3227  0.1638  0.4945
   15bbb     H7  417   3.631   7.216   9.642  0.4407 -0.4628  0.8119
   15bbb     H8  418   3.727   7.339   9.733 -1.4353  2.3836  1.0688
   15bbb     C5  419   3.527   7.277  10.203  0.6128  0.5827 -0.7592
   15bbb     H9  420   3.596   7.249  10.284 -0.8712  1.0775  0.7520
   15bbb    H10  421   3.432   7.238  10.242  0.4439 -0.9206 -2.5469
   15bbb     C6  422   3.842   7.112  10.135 -0.1291  0.5701 -0.1777
   15bbb    H11  423   3.851   7.027  10.066 -0.3791  1.6345 -1.5529
   15bbb    H12  424   3.775   7.098  10.221  0.2487  0.2881  0.0767
   15bbb     C7  425   3.513   7.348   9.770 -0.2599  0.1985  0.0529
   15bbb    H13  426   3.525   7.401   9.866 -1.2906 -1.5029  1.1713
   15bbb    H14  427   3.430   7.277   9.779 -0.0949 -0.1194 -0.8566
   15bbb     C8  428   3.977   7.128  10.204 -0.3756  0.5393 -0.5763
   15bbb    H15  429   3.996   7.057  10.285  0.3966  0.6945 -0.6161
   15bbb    H16  430   3.979   7.231  10.241  0.9233  1.4638 -2.9498
   15bbb     C9  431   3.527   7.432  10.170  0.0617  0.2820 -0.0500
   15bbb    H17  432   3.630   7.455  10.139  0.6062  1.2302  2.2835
   15bbb    H18  433   3.509   7.483  10.266  2.3779 -0.2052  0.7017
   15bbb     O1  434   3.492   7.440   9.664 -0.3918  0.0036  0.2076
   16bbb     N1  435   3.027   7.276   8.833  0.3321 -0.5742  0.3045
   16bbb     C1  436   3.030   7.173   8.725  0.8210 -0.6866  0.1204
   16bbb     H1  437   3.133   7.150   8.697  0.7613  0.9978 -1.6763
   16bbb     H2  438   2.980   7.221   8.640 -0.9206 -1.9208  0.3998
   16bbb     C2  439   3.051   7.415   8.785  0.2515  0.6798 -0.7887
   16bbb     H3  440   3.072   7.414   8.677  0.1917 -0.1351 -0.7940
   16bbb     H4  441   3.148   7.447   8.827  0.0185  0.9795 -0.4747
   16bbb     C3  442   3.108   7.240   8.947 -0.1389 -0.1832  0.1441
   16bbb     H5  443   3.210   7.277   8.930 -0.8551  1.1521 -1.6167
   16bbb     H6  444   3.112   7.130   8.951  0.8860 -0.3045 -2.5220
   16bbb     C4  445   3.066   7.306   9.083  0.4191 -0.1814 -0.3427
   16bbb     H7  446   2.966   7.271   9.110 -0.0402  1.4702  0.2582
   16bbb     H8  447   3.061   7.416   9.086  1.8665 -0.0281 -1.9877
   16bbb     C5  448   2.966   7.035   8.753  1.1837  0.0177 -0.2973
   16bbb     H9  449   2.861   7.053   8.780  0.8176  0.0999 -1.6954
   16bbb    H10  450   3.007   6.993   8.845 -1.9450  0.6489  1.5336
   16bbb     C6  451   2.936   7.515   8.821 -0.2137 -0.2390  0.1685
   16bbb    H11  452   2.908   7.508   8.927  0.0410  1.5071  0.3908
   16bbb    H12  453   2.847   7.501   8.760 -1.1871  0.0161  1.4917
   16bbb     C7  454   3.158   7.269   9.195  0.9432 -0.1707  0.1140
   16bbb    H13  455   3.143   7.163   9.220  0.4250 -0.9540 -2.9961
   16bbb    H14  456   3.132   7.323   9.286 -0.1065 -1.3991  0.5611
   16bbb     C8  457   2.987   7.663   8.800  0.2801 -0.7896  0.1713
   16bbb    H15  458   2.892   7.717   8.784  0.7005 -0.2267 -0.4458
   16bbb    H16  459   3.043   7.678   8.707  0.3022  0.9797  0.4354
   16bbb     C9  460   2.976   6.938   8.636 -0.4132  0.3203 -0.0989
   16bbb    H17  461   2.926   6.988   8.552 -0.2520 -1.0271 -1.0168
   16bbb    H18  462   2.925   6.842   8.646  2.1522 -1.4656 -2.6641
   16bbb     O1  463   3.301   7.297   9.172 -0.3365 -0.6286 -0.9571
   17bbb     N1  464   2.100   7.318   9.920 -0.3260 -0.0225  0.0333
   17bbb     C1  465   2.009   7.359  10.033  0.3086  0.0086 -0.3003
   17bbb     H1  466   1.997   7.468  10.042  1.1191  0.0295  0.7538
   17bbb     H2  467   2.053   7.326  10.128 -1.4393 -1.9535 -0.0766
   17bbb     C2  468   2.074   7.391   9.801 -0.1140 -0.2847  0.0919
   17bbb     H3  469   2.092   7.497   9.821 -0.0477 -0.5975  1.7671
   17bbb     H4  470   1.971   7.391   9.764  0.1001  0.3463 -0.5349
   17bbb     C3  471   2.105   7.166   9.907 -0.1865  0.1038 -0.1247
   17bbb     H5  472   2.186   7.133   9.840  0.1417 -2.9635  1.6051
   17bbb     H6  473   2.010   7.131   9.865 -2.0757  2.0919  2.1983
   17bbb     C4  474   2.137   7.087  10.036 -0.0421 -0.2487  0.2108
   17bbb     H7  475   2.062   7.124  10.107  0.4753  0.7292  0.2711
   17bbb     H8  476   2.238   7.124  10.060 -0.4520  0.8413  0.3012
   17bbb     C5  477   1.867   7.301  10.030 -0.5745 -0.5784 -0.2520
   17bbb     H9  478   1.865   7.196  10.061 -0.5506 -1.0394 -1.7264
   17bbb    H10  479   1.820   7.304   9.930 -0.3425  1.5042 -0.3536
   17bbb     C6  480   2.174   7.353   9.685 -0.6211  0.1618  0.8306
   17bbb    H11  481   2.152   7.251   9.650 -1.3632  0.4353  0.5001
   17bbb    H12  482   2.278   7.362   9.720 -0.0748 -1.0146 -0.3745
   17bbb     C7  483   2.128   6.935  10.014 -0.0766  0.4763 -0.0724
   17bbb    H13  484   2.029   6.908   9.973 -0.6470  0.6437  1.1533
   17bbb    H14  485   2.135   6.881  10.109  0.9521  2.2277  0.9003
   17bbb     C8  486   2.163   7.443   9.562 -0.2773 -0.1769  0.2689
   17bbb    H15  487   2.194   7.541   9.600  1.4062  0.0930 -1.5864
   17bbb    H16  488   2.057   7.447   9.535 -0.0669  0.8268 -0.4937
   17bbb     C9  489   1.780   7.381  10.131  0.5053  0.1650  0.2130
   17bbb    H17  490   1.774   7.489  10.112  1.9263  0.4498  1.1920
   17bbb    H18  491   1.829   7.370  10.229 -0.4754 -0.7185  0.6304
   17bbb     O1  492   2.238   6.908   9.926  0.1700 -0.0624  0.2187
   18bbb     N1  493   1.666   7.076   9.377 -0.1910 -0.2319 -0.2892
   18bbb     C1  494   1.600   7.169   9.472 -0.0614 -0.2189  0.2965
   18bbb     H1  495   1.523   7.121   9.534 -0.5389 -1.0620 -0.8908
   18bbb     H2  496   1.548   7.249   9.417  1.0882  0.5965  0.3741
   18bbb     C2  497   1.555   7.010   9.302  0.7711  0.0829  0.0226
   18bbb     H3  498   1.592   6.967   9.208  0.2762  0.9160 -0.5721
   18bbb     H4  499   1.475   7.076   9.265 -0.1911 -0.5056  1.0089
   18bbb     C3  500   1.761   7.154   9.287 -0.1438  0.4918  0.1739
   18bbb     H5  501   1.842   7.191   9.351  2.9654 -1.5973 -2.2241
   18bbb     H6  502   1.711   7.240   9.243  1.8982  1.2639 -0.7751
   18bbb     C4  503   1.819   7.076   9.167 -0.3949 -0.2828  0.4098
   18bbb     H7  504   1.879   7.153   9.117  0.7825 -1.4939 -0.0959
   18bbb     H8  505   1.749   7.040   9.091 -0.8398  1.1780  0.1024
   18bbb     C5  506   1.697   7.237   9.572 -0.3511  0.1237  0.2700
   18bbb     H9  507   1.749   7.320   9.521 -2.0262  2.0143  1.4961
   18bbb    H10  508   1.778   7.167   9.596 -1.3813 -0.6123  1.7343
   18bbb     C6  509   1.478   6.890   9.378 -0.0201 -0.5073  0.1593
   18bbb    H11  510   1.428   6.931   9.467  0.0634 -0.9542  0.4151
   18bbb    H12  511   1.561   6.823   9.406  3.6632  3.2043 -0.7885
   18bbb     C7  512   1.904   6.954   9.198 -0.6748  0.0129  0.5567
   18bbb    H13  513   1.948   6.914   9.106 -1.8838 -0.7102  0.2855
   18bbb    H14  514   1.848   6.873   9.246 -1.3472 -0.1372 -0.4551
   18bbb     C8  515   1.376   6.817   9.273 -0.1667 -0.1395 -0.0108
   18bbb    H15  516   1.325   6.899   9.221  2.4280  1.3528 -0.3583
   18bbb    H16  517   1.300   6.761   9.330 -0.9505 -0.2650 -1.1386
   18bbb     C9  518   1.624   7.282   9.703  0.0792  0.2065  0.0101
   18bbb    H17  519   1.541   7.351   9.683  0.4119  0.9329  1.0250
   18bbb    H18  520   1.702   7.333   9.760 -1.0162  1.1850  0.6840
   18bbb     O1  521   2.007   6.990   9.286 -0.0028  0.0599  0.2473
   19bbb     N1  522   2.980   9.445   8.903 -0.0754 -0.6811 -0.3102
   19bbb     C1  523   2.908   9.458   9.031  0.2594 -0.3652 -0.3354
   19bbb     H1  524   2.852   9.364   9.031  0.6609 -0.6124 -0.6617
   19bbb     H2  525   2.830   9.533   9.018 -1.7672 -2.1768  0.7037
   19bbb     C2  526   3.034   9.574   8.847 -0.3135 -0.1480 -0.4081
   19bbb     H3  527   3.099   9.562   8.759 -0.4578  1.3496 -0.7582
   19bbb     H4  528   3.097   9.631   8.916 -1.4514  1.5973 -0.7189
   19bbb     C3  529   3.056   9.321   8.887  0.1684  0.3930 -0.2669
   19bbb     H5  530   2.992   9.248   8.937 -0.8011  1.8721  0.7351
   19bbb     H6  531   3.151   9.330   8.941  1.5558 -2.3570 -1.9835
   19bbb     C4  532   3.078   9.279   8.740 -0.1505 -0.2193  0.4830
   19bbb     H7  533   3.150   9.352   8.701  0.2599 -1.0393 -0.3295
   19bbb     H8  534   2.985   9.286   8.683  0.2898  2.6535 -0.0542
   19bbb     C5  535   2.989   9.473   9.161  0.0641 -0.0739  0.2888
   19bbb     H9  536   3.060   9.556   9.151 -0.8973  0.7864  0.4807
   19bbb    H10  537   3.042   9.377   9.162  1.1823  0.5088  2.6220
   19bbb     C6  538   2.925   9.665   8.783  0.0802  0.6428 -0.2307
   19bbb    H11  539   2.970   9.751   8.733 -1.2908  1.3556 -0.2894
   19bbb    H12  540   2.867   9.715   8.861 -0.6637  1.2895 -1.1589
   19bbb     C7  541   3.145   9.139   8.718  0.8124 -0.0795  0.3361
   19bbb    H13  542   3.233   9.138   8.783 -0.3603  1.2909  2.0227
   19bbb    H14  543   3.180   9.132   8.614 -0.1990 -1.4589  0.0589
   19bbb     C8  544   2.826   9.589   8.685 -0.0827 -0.2676 -0.0304
   19bbb    H15  545   2.812   9.493   8.736  0.0187 -1.1780 -1.6443
   19bbb    H16  546   2.881   9.555   8.596 -1.1122 -0.4660 -0.5999
   19bbb     C9  547   2.900   9.493   9.288  0.1490  0.1738 -0.4559
   19bbb    H17  548   2.855   9.593   9.282 -1.1078 -0.4149 -1.2032
   19bbb    H18  549   2.965   9.479   9.375 -0.6727 -1.3821 -0.0629
   19bbb     O1  550   3.053   9.038   8.757  0.2264  0.2699  0.3244
   20bbb     N1  551   3.277   8.834   8.055  0.0286  0.0072  0.0706
   20bbb     C1  552   3.340   8.949   8.134  0.4256 -0.0048 -0.4651
   20bbb     H1  553   3.404   9.014   8.072  2.0711  2.2005  3.1790
   20bbb     H2  554   3.408   8.900   8.204  1.4259 -0.6244 -1.8387
   20bbb     C2  555   3.197   8.883   7.940  0.5317 -0.8690  0.2588
   20bbb     H3  556   3.111   8.943   7.972  0.2114 -1.6393  0.8754
   20bbb     H4  557   3.173   8.791   7.885  1.6523  0.1911 -2.1850
   20bbb     C3  558   3.212   8.734   8.139  0.6362  0.1304 -0.7204
   20bbb     H5  559   3.129   8.780   8.195 -0.8027 -0.2096 -2.4825
   20bbb     H6  560   3.275   8.692   8.218 -1.1715 -1.1861  0.0748
   20bbb     C4  561   3.131   8.619   8.071 -0.4014  0.0019 -0.3475
   20bbb     H7  562   3.208   8.557   8.023 -0.0942  1.0811 -1.2633
   20bbb     H8  563   3.070   8.652   7.986 -0.7563 -1.8238 -0.8521
   20bbb     C5  564   3.238   9.043   8.215 -0.4827 -0.2617  0.0383
   20bbb     H9  565   3.200   8.983   8.298 -1.2949 -0.7731 -0.6890
   20bbb    H10  566   3.154   9.078   8.155  0.1061  0.1123 -0.5895
   20bbb     C6  567   3.273   8.972   7.844 -0.5398  0.6562  0.1695
   20bbb    H11  568   3.275   8.932   7.742  1.2719  1.1620 -0.0306
   20bbb    H12  569   3.381   8.958   7.862 -0.4714 -0.1131 -0.7295
   20bbb     C7  570   3.042   8.531   8.169 -0.1568  0.5993 -0.2051
   20bbb    H13  571   3.107   8.468   8.231  0.0009  0.5544 -0.4145
   20bbb    H14  572   2.971   8.468   8.113  0.5682  1.0467 -1.6932
   20bbb     C8  573   3.247   9.128   7.853 -0.5949  0.6523  0.4617
   20bbb    H15  574   3.307   9.180   7.778 -0.2635  0.9918  0.9524
   20bbb    H16  575   3.278   9.171   7.950  0.3796 -1.4599  1.1390
   20bbb     C9  576   3.316   9.166   8.271  0.0401  0.5858  0.0988
   20bbb    H17  577   3.400   9.134   8.335 -0.7052  0.0099  0.8241
   20bbb    H18  578   3.253   9.230   8.333 -1.4779 -0.4928 -0.2675
   20bbb     O1  579   2.970   8.619   8.258 -0.2179 -0.2519  0.0229
   21bbb     N1  580   3.919   7.854   9.368  0.0625  0.6585 -0.0266
   21bbb     C1  581   3.935   7.967   9.463  0.3764  0.2967  0.4296
   21bbb     H1  582   4.004   8.043   9.425  0.4310  0.6017  1.1127
   21bbb     H2  583   3.976   7.925   9.556 -1.7568 -1.0874  0.8142
   21bbb     C2  584   3.862   7.730   9.431  0.3261 -0.5958 -0.0739
   21bbb     H3  585   3.765   7.752   9.476  1.3232 -0.0506  1.9248
   21bbb     H4  586   3.930   7.708   9.514  1.1769  1.4889 -0.1725
   21bbb     C3  587   3.869   7.885   9.233 -0.4915  0.1787 -0.2426
   21bbb     H5  588   3.762   7.904   9.242 -0.8337 -1.2556 -0.9657
   21bbb     H6  589   3.870   7.800   9.163 -0.1684  1.6660 -2.1289
   21bbb     C4  590   3.935   8.007   9.168  0.2752  1.2558  0.2142
   21bbb     H7  591   4.039   7.974   9.156 -0.3709 -0.5407 -0.7882
   21bbb     H8  592   3.925   8.089   9.240  0.3263 -0.8617  2.7636
   21bbb     C5  593   3.793   8.024   9.505 -0.4844 -0.7678  0.1860
   21bbb     H9  594   3.730   7.941   9.540 -0.1323 -1.6981 -1.2569
   21bbb    H10  595   3.744   8.078   9.423  0.1419  0.1535  0.4052
   21bbb     C6  596   3.869   7.606   9.339 -0.7780 -0.7054  0.1414
   21bbb    H11  597   3.969   7.608   9.294 -0.2164  2.7813  1.2507
   21bbb    H12  598   3.801   7.620   9.254  1.6237 -0.4857 -1.8485
   21bbb     C7  599   3.870   8.042   9.031 -0.6060  0.6000  0.4946
   21bbb    H13  600   3.887   7.960   8.960 -0.1808  0.3735  0.8625
   21bbb    H14  601   3.916   8.136   8.999  1.4232 -0.1030  1.2395
   21bbb     C8  602   3.849   7.476   9.414 -0.7451  0.5078 -0.0821
   21bbb    H15  603   3.769   7.477   9.489 -1.1658 -1.0194 -0.4710
   21bbb    H16  604   3.942   7.456   9.468 -0.7871 -4.1402 -1.2672
   21bbb     C9  605   3.810   8.115   9.632 -0.6009  0.2903 -0.6424
   21bbb    H17  606   3.714   8.168   9.643 -0.2719  0.8510 -0.4459
   21bbb    H18  607   3.889   8.191   9.625 -0.9124  0.5753 -1.1379
   21bbb     O1  608   3.732   8.072   9.062 -0.1559 -0.0635  0.2077
   22bbb     N1  609   3.570   9.095   8.509 -0.1703  0.1460 -0.3493
   22bbb     C1  610   3.566   9.154   8.646  0.6070 -0.6735  0.1092
   22bbb     H1  611   3.668   9.177   8.680 -0.0928  2.1703  0.5102
   22bbb     H2  612   3.519   9.086   8.718 -1.2728 -0.2819 -0.6996
   22bbb     C2  613   3.694   9.146   8.441  0.6967  0.0161 -0.1460
   22bbb     H3  614   3.788   9.139   8.496  0.1931  0.5292  0.7983
   22bbb     H4  615   3.687   9.253   8.416  1.7634  0.2881  0.6442
   22bbb     C3  616   3.551   8.949   8.510  0.3525 -0.1999  0.8779
   22bbb     H5  617   3.622   8.898   8.577  0.1783 -2.8000 -0.7472
   22bbb     H6  618   3.581   8.902   8.416  3.8068  0.7389  1.3945
   22bbb     C4  619   3.408   8.908   8.537  0.3489 -0.2374  0.1162
   22bbb     H7  620   3.338   8.981   8.493  1.3589  0.9599  0.4140
   22bbb     H8  621   3.398   8.923   8.645  3.1997  1.6382  0.2367
   22bbb     C5  622   3.483   9.277   8.647  0.6822 -0.2432 -0.1463
   22bbb     H9  623   3.380   9.251   8.619 -0.1281  0.8320  1.6731
   22bbb    H10  624   3.507   9.349   8.568 -0.7315  0.0235 -0.3612
   22bbb     C6  625   3.720   9.078   8.306  0.4740 -0.3915 -0.4802
   22bbb    H11  626   3.630   9.068   8.244  0.1890 -4.1340  0.3335
   22bbb    H12  627   3.764   8.978   8.304  0.9244 -0.1902 -0.5855
   22bbb     C7  628   3.368   8.763   8.510  0.4367 -0.2843 -0.0739
   22bbb    H13  629   3.393   8.750   8.404  0.1729 -1.2643 -0.0189
   22bbb    H14  630   3.264   8.751   8.544  1.1825 -1.0473  2.1165
   22bbb     C8  631   3.827   9.165   8.230  0.6232 -0.4069 -0.1400
   22bbb    H15  632   3.797   9.270   8.229  1.2762 -0.1469  2.1771
   22bbb    H16  633   3.825   9.137   8.124 -3.5191  2.1824 -0.9842
   22bbb     C9  634   3.481   9.351   8.788  0.3414  0.2998 -0.3024
   22bbb    H17  635   3.403   9.429   8.791  0.8403  0.7927  0.0256
   22bbb    H18  636   3.577   9.398   8.811 -0.2777  0.5843  1.9220
   22bbb     O1  637   3.462   8.698   8.594  0.0290  0.3453  0.1168
   23bbb     N1  638   0.940   7.532   9.573  0.4093  0.1025  0.2594
   23bbb     C1  639   0.828   7.446   9.644 -0.5010  0.4994  0.4904
   23bbb     H1  640   0.745   7.508   9.680 -0.1111 -0.0612  2.5255
   23bbb     H2  641   0.864   7.394   9.734  0.6746  0.9273  0.2935
   23bbb     C2  642   1.049   7.477   9.490 -0.0053  0.0404 -0.0800
   23bbb     H3  643   1.099   7.564   9.444  0.1052  0.6784  1.1980
   23bbb     H4  644   1.005   7.421   9.407 -1.5529  3.9709 -2.2127
   23bbb     C3  645   0.985   7.637   9.665  0.3953 -0.3690 -0.1550
   23bbb     H5  646   1.061   7.695   9.611  0.5571 -1.0022 -0.6260
   23bbb     H6  647   1.036   7.587   9.748  0.8348  0.0890 -0.1442
   23bbb     C4  648   0.873   7.717   9.731 -0.1631  0.2854 -0.0866
   23bbb     H7  649   0.809   7.669   9.806 -0.8517  2.6693  0.9603
   23bbb     H8  650   0.806   7.751   9.650  2.2747 -0.3032 -2.4948
   23bbb     C5  651   0.777   7.331   9.549  0.7972 -0.2284  0.5803
   23bbb     H9  652   0.864   7.265   9.538  0.5705 -0.4277 -0.0577
   23bbb    H10  653   0.752   7.372   9.450  2.6429  0.0819  0.2030
   23bbb     C6  654   1.156   7.393   9.576 -0.7318 -0.0942  0.5405
   23bbb    H11  655   1.108   7.312   9.633 -1.6614  2.0209  2.9857
   23bbb    H12  656   1.192   7.453   9.661 -2.3142  0.3448  0.9401
   23bbb     C7  657   0.935   7.838   9.810 -0.2343 -0.0986  0.3961
   23bbb    H13  658   0.987   7.815   9.903 -2.0502 -1.3406  1.1667
   23bbb    H14  659   0.850   7.898   9.846 -0.9957 -1.6954  1.3841
   23bbb     C8  660   1.273   7.344   9.485 -0.4095 -0.0780  0.1640
   23bbb    H15  661   1.245   7.265   9.415  2.4421  0.3897 -1.6368
   23bbb    H16  662   1.350   7.289   9.539 -0.2847  0.0190  0.0870
   23bbb     C9  663   0.659   7.251   9.592  0.2729 -0.2802  0.3428
   23bbb    H17  664   0.690   7.206   9.687  0.1592  0.2052  0.6099
   23bbb    H18  665   0.648   7.171   9.517 -0.8823  1.7977 -1.8412
   23bbb     O1  666   1.017   7.923   9.729  0.2089  0.0831  0.3389
   24bbb     N1  667   0.971   8.467   9.260 -0.1306 -0.4122 -0.2700
   24bbb     C1  668   0.907   8.499   9.390  0.2404 -0.3166 -0.5669
   24bbb     H1  669   0.804   8.531   9.375  0.1905 -0.2998 -0.1867
   24bbb     H2  670   0.961   8.582   9.437 -0.2402 -0.5288  0.3788
   24bbb     C2  671   0.937   8.564   9.157 -0.3844  0.5015 -0.7111
   24bbb     H3  672   0.984   8.546   9.059 -2.1433 -0.7913 -1.3820
   24bbb     H4  673   0.967   8.664   9.188 -0.0055  0.8340 -2.0685
   24bbb     C3  674   1.115   8.445   9.257 -0.4367  0.3166  0.3315
   24bbb     H5  675   1.143   8.375   9.337 -0.7538  0.2952  0.4227
   24bbb     H6  676   1.169   8.535   9.289  0.9115 -0.4950  0.4510
   24bbb     C4  677   1.170   8.394   9.120  0.0727 -0.3765  0.5206
   24bbb     H7  678   1.211   8.483   9.072 -2.1047  0.3655 -0.1085
   24bbb     H8  679   1.093   8.356   9.052 -2.1452  1.8613  1.5976
   24bbb     C5  680   0.905   8.385   9.491  0.0707 -0.6948 -0.7605
   24bbb     H9  681   1.001   8.380   9.542 -0.7771 -1.1375  0.8517
   24bbb    H10  682   0.873   8.292   9.442  0.4694 -2.0682  1.4518
   24bbb     C6  683   0.785   8.587   9.133  0.1843 -0.6392  1.1624
   24bbb    H11  684   0.779   8.650   9.043  1.6086  1.4963  2.4855
   24bbb    H12  685   0.741   8.642   9.217 -0.5140 -0.9689  1.0229
   24bbb     C7  686   1.270   8.280   9.137  0.3133 -0.0065 -0.9184
   24bbb    H13  687   1.363   8.315   9.183 -0.5569  0.9596  0.1598
   24bbb    H14  688   1.313   8.233   9.047 -1.5204 -1.8001 -0.9258
   24bbb     C8  689   0.711   8.449   9.116 -0.1540 -0.4444  0.3262
   24bbb    H15  690   0.724   8.407   9.216  0.9819 -0.6363  0.1167
   24bbb    H16  691   0.766   8.385   9.046  0.6789  0.1983  0.3754
   24bbb     C9  692   0.805   8.419   9.604  0.0724 -0.0669 -0.1832
   24bbb    H17  693   0.709   8.453   9.562 -1.4445 -0.6233  2.5553
   24bbb    H18  694   0.846   8.502   9.664  0.9811 -0.9062  0.3849
   24bbb     O1  695   1.201   8.180   9.202  0.2762  0.2982 -0.2447
   25bbb     N1  696   1.728   7.726   9.097 -0.4753  0.6328  0.7258
   25bbb     C1  697   1.847   7.696   9.014 -0.1637  0.5281 -0.4769
   25bbb     H1  698   1.944   7.670   9.058  0.7006 -0.8875 -2.9796
   25bbb     H2  699   1.866   7.792   8.964 -3.3327  1.0677 -0.8754
   25bbb     C2  700   1.606   7.789   9.033 -0.4154 -0.3229 -0.3326
   25bbb     H3  701   1.536   7.809   9.115 -0.3631  0.6351 -0.5133
   25bbb     H4  702   1.563   7.720   8.960  2.7129 -1.1398 -1.5779
   25bbb     C3  703   1.694   7.622   9.195 -0.2170 -0.3090  0.1470
   25bbb     H5  704   1.645   7.544   9.135 -1.6298 -0.6054  1.6112
   25bbb     H6  705   1.621   7.659   9.268 -0.1775  0.0077  0.0298
   25bbb     C4  706   1.812   7.552   9.263  0.1529  0.3926  0.1948
   25bbb     H7  707   1.875   7.502   9.188  1.2494  0.8496  0.7882
   25bbb     H8  708   1.767   7.470   9.320 -1.9942 -1.8632 -4.1885
   25bbb     C5  709   1.823   7.594   8.890 -0.5452  0.0229  0.5104
   25bbb     H9  710   1.877   7.632   8.803 -1.3201  4.2089  1.6246
   25bbb    H10  711   1.715   7.601   8.875 -0.7634  0.6121  2.1324
   25bbb     C6  712   1.642   7.916   8.945  0.2406 -0.2887 -0.3652
   25bbb    H11  713   1.700   7.891   8.856  1.2916 -0.9683  0.4866
   25bbb    H12  714   1.699   7.991   9.001  0.1918  0.7584 -1.6822
   25bbb     C7  715   1.892   7.641   9.361 -0.7284 -1.1363 -0.2367
   25bbb    H13  716   1.947   7.587   9.439  1.7005  1.3741 -0.0284
   25bbb    H14  717   1.826   7.717   9.405  0.0462 -0.9924  0.7272
   25bbb     C8  718   1.515   7.973   8.875 -0.0466 -0.4485 -0.0720
   25bbb    H15  719   1.541   8.048   8.799 -0.1522  0.2353  0.5528
   25bbb    H16  720   1.462   8.032   8.950 -0.6777 -1.4162  0.2474
   25bbb     C9  721   1.858   7.449   8.912 -0.1487 -0.1913  0.4872
   25bbb    H17  722   1.812   7.419   9.007 -0.0661 -0.0790  0.5619
   25bbb    H18  723   1.968   7.450   8.912 -0.1299 -0.8174 -0.4104
   25bbb     O1  724   1.994   7.711   9.290  0.1909  0.3017 -0.1151
   26bbb     N1  725   1.671   7.830   8.481 -0.1027 -0.0523 -0.1680
   26bbb     C1  726   1.678   7.700   8.555 -0.0068  0.7585  0.1521
   26bbb     H1  727   1.587   7.640   8.539  0.9389 -0.4520 -0.9009
   26bbb     H2  728   1.689   7.716   8.663 -1.6402 -1.1429  0.6707
   26bbb     C2  729   1.541   7.857   8.404 -0.5258  0.0550 -0.0274
   26bbb     H3  730   1.568   7.947   8.347  1.5465 -1.0386 -0.8870
   26bbb     H4  731   1.457   7.883   8.469  0.9638  1.7111  1.3221
   26bbb     C3  732   1.708   7.958   8.560  0.0255  0.6478 -0.3201
   26bbb     H5  733   1.648   7.974   8.650  0.4521  1.7392 -0.2126
   26bbb     H6  734   1.674   8.048   8.506 -0.8357  0.8028  0.4544
   26bbb     C4  735   1.858   7.972   8.602  0.0831  0.5630 -0.1079
   26bbb     H7  736   1.912   7.998   8.511 -1.5628 -1.5615 -1.7932
   26bbb     H8  737   1.897   7.876   8.638  2.9973  0.8190 -2.2067
   26bbb     C5  738   1.800   7.616   8.506 -0.6585  0.6514  0.2425
   26bbb     H9  739   1.825   7.531   8.569 -2.6265  0.3929  0.7442
   26bbb    H10  740   1.899   7.663   8.504  1.1502 -2.7124  2.2702
   26bbb     C6  741   1.493   7.741   8.306 -0.2055 -0.4928  0.1660
   26bbb    H11  742   1.480   7.648   8.364 -0.5555  0.7786  2.2474
   26bbb    H12  743   1.577   7.719   8.240 -0.3674 -3.9028  0.8843
   26bbb     C7  744   1.881   8.085   8.705  0.3752  0.0430 -0.0734
   26bbb    H13  745   1.809   8.082   8.788 -0.9332 -0.6439 -1.1906
   26bbb    H14  746   1.858   8.176   8.648  2.5882 -0.5567 -2.0631
   26bbb     C8  747   1.367   7.782   8.235  0.1920 -0.0161  0.3504
   26bbb    H15  748   1.352   7.744   8.133 -0.0333  1.7077 -0.3014
   26bbb    H16  749   1.375   7.891   8.223  1.1958 -0.0557  0.5677
   26bbb     C9  750   1.776   7.551   8.365  0.4623 -0.2620  0.5174
   26bbb    H17  751   1.771   7.634   8.294 -0.7632  0.8706  1.8488
   26bbb    H18  752   1.675   7.509   8.360 -0.6706  2.2907  0.5557
   26bbb     O1  753   2.010   8.092   8.751  0.2813 -0.2877 -0.4361
   27bbb     N1  754   2.776   9.171   8.551  0.6327 -0.8354 -0.3032
   27bbb     C1  755   2.812   9.269   8.454 -0.3481 -0.5076 -0.1559
   27bbb     H1  756   2.834   9.359   8.512 -3.3453 -1.4224  2.7245
   27bbb     H2  757   2.725   9.289   8.389  0.2350 -0.2580 -0.8793
   27bbb     C2  758   2.759   9.038   8.496 -0.3571  0.9835 -0.1175
   27bbb     H3  759   2.736   8.971   8.580  2.1570  0.3336  0.1326
   27bbb     H4  760   2.853   9.008   8.449 -0.0928  1.4826  0.0922
   27bbb     C3  761   2.659   9.222   8.628 -0.8310  0.0489 -0.5892
   27bbb     H5  762   2.573   9.241   8.564 -0.2688  1.1225 -1.0461
   27bbb     H6  763   2.691   9.313   8.680 -0.5158 -0.9447  1.0415
   27bbb     C4  764   2.608   9.126   8.745 -0.1135  0.0387 -0.4717
   27bbb     H7  765   2.574   9.026   8.717 -1.7182 -0.5601  3.0230
   27bbb     H8  766   2.522   9.178   8.790  0.4461  0.0158  0.6673
   27bbb     C5  767   2.936   9.239   8.370 -0.5666 -0.1641  0.0513
   27bbb     H9  768   2.923   9.154   8.303 -0.4343 -0.1907  0.0597
   27bbb    H10  769   3.012   9.212   8.445 -0.3662  0.4951  0.0989
   27bbb     C6  770   2.644   9.022   8.394 -0.0357  0.0611 -0.1156
   27bbb    H11  771   2.563   9.089   8.424  0.1414 -0.4940  1.7021
   27bbb    H12  772   2.601   8.922   8.401  0.6235 -0.2150  0.0952
   27bbb     C7  773   2.707   9.100   8.859  0.1571  0.0323  0.5226
   27bbb    H13  774   2.736   9.201   8.891 -0.3479  0.4709 -0.3531
   27bbb    H14  775   2.804   9.056   8.831  1.0112  3.0764 -1.8002
   27bbb     C8  776   2.688   9.036   8.239 -0.1436 -0.1313  0.0308
   27bbb    H15  777   2.730   9.136   8.223 -0.9395 -0.1973 -3.2846
   27bbb    H16  778   2.601   9.025   8.172 -0.3959  0.3651  0.2647
   27bbb     C9  779   2.997   9.352   8.285 -0.0419  0.0053  0.7765
   27bbb    H17  780   2.932   9.372   8.199 -0.3986 -1.8141  0.5647
   27bbb    H18  781   3.086   9.300   8.246 -1.4755 -2.9984  1.1925
   27bbb     O1  782   2.645   9.040   8.974 -0.4348  0.3683  0.4467
   28bbb     N1  783   2.159   8.966   8.857  0.5456  0.5270  0.3584
   28bbb     C1  784   2.230   9.088   8.868 -0.3576 -0.1943 -0.7305
   28bbb     H1  785   2.269   9.127   8.773  1.6313  1.8271  0.7956
   28bbb     H2  786   2.318   9.077   8.932 -0.2634  1.4648 -0.5081
   28bbb     C2  787   2.235   8.872   8.770 -1.1107 -0.0510  0.4794
   28bbb     H3  788   2.259   8.922   8.676 -0.3213 -0.1427  0.6242
   28bbb     H4  789   2.188   8.779   8.736 -0.4437  0.3821 -1.7647
   28bbb     C3  790   2.117   8.906   8.989  0.0902  0.4675  1.1631
   28bbb     H5  791   2.066   8.987   9.043 -0.7124  1.7176 -1.2723
   28bbb     H6  792   2.196   8.872   9.057 -0.8577 -0.9570  1.5872
   28bbb     C4  793   2.022   8.790   8.965 -0.6000 -0.2407  0.3715
   28bbb     H7  794   1.983   8.787   8.863  0.2543  1.6751 -0.0688
   28bbb     H8  795   1.934   8.820   9.025  0.3408  2.3118  0.6280
   28bbb     C5  796   2.146   9.206   8.925  0.0834  0.1621  0.0305
   28bbb     H9  797   2.141   9.205   9.034  2.9354 -2.1161  0.2635
   28bbb    H10  798   2.052   9.198   8.869  0.4659  0.6865 -0.7096
   28bbb     C6  799   2.379   8.827   8.819  0.3115  0.4956  0.1098
   28bbb    H11  800   2.372   8.771   8.914  0.2272 -0.3585 -0.3909
   28bbb    H12  801   2.445   8.912   8.840 -0.3184  1.1478 -0.4765
   28bbb     C7  802   2.081   8.648   8.991 -0.1223  0.6922 -0.0168
   28bbb    H13  803   2.130   8.610   8.900  1.1134 -0.4816  1.1090
   28bbb    H14  804   1.998   8.583   9.022 -1.3047  3.0053  1.9589
   28bbb     C8  805   2.460   8.736   8.717 -0.0592 -0.3631  0.1712
   28bbb    H15  806   2.556   8.712   8.764  1.1374 -1.6168 -2.6819
   28bbb    H16  807   2.475   8.790   8.623  0.2310 -1.0109 -0.1653
   28bbb     C9  808   2.212   9.340   8.888  0.1985  0.2717 -0.2458
   28bbb    H17  809   2.234   9.351   8.781 -2.9248  1.8476 -0.8380
   28bbb    H18  810   2.139   9.418   8.909  0.4541  0.0927  1.4394
   28bbb     O1  811   2.177   8.647   9.098  0.3194  0.6954 -0.1528
   29bbb     N1  812   3.144   7.456   8.254 -0.7650 -0.1265  0.6697
   29bbb     C1  813   3.124   7.550   8.144 -0.0258 -0.3710 -0.3010
   29bbb     H1  814   3.136   7.500   8.047 -0.3290  1.9643 -1.6178
   29bbb     H2  815   3.212   7.616   8.150 -0.4504  0.1896 -0.1365
   29bbb     C2  816   3.047   7.346   8.250  0.2158  0.1405  0.6885
   29bbb     H3  817   2.946   7.390   8.250 -0.2420 -0.8654  0.3352
   29bbb     H4  818   3.049   7.294   8.347 -1.6504  2.7777  2.2891
   29bbb     C3  819   3.141   7.510   8.395 -0.3826 -0.2279 -0.2224
   29bbb     H5  820   3.153   7.432   8.471 -0.8341  0.2835  0.3889
   29bbb     H6  821   3.047   7.563   8.412  0.7476  1.8550 -0.1492
   29bbb     C4  822   3.250   7.610   8.427  0.2913  0.0527  0.5639
   29bbb     H7  823   3.339   7.580   8.370 -1.0606 -0.4620 -1.3547
   29bbb     H8  824   3.260   7.612   8.537 -2.5546 -0.9773  0.9066
   29bbb     C5  825   3.001   7.642   8.143 -0.1671  0.1827 -0.3797
   29bbb     H9  826   2.974   7.677   8.243 -0.5553 -2.7720  0.6271
   29bbb    H10  827   2.922   7.568   8.132 -0.5600  0.6425 -0.6968
   29bbb     C6  828   3.065   7.249   8.131  0.6972  0.7285  0.1376
   29bbb    H11  829   3.171   7.224   8.125  0.7099  0.6939  0.4641
   29bbb    H12  830   3.038   7.311   8.045 -1.2096 -0.7413 -0.4042
   29bbb     C7  831   3.203   7.755   8.386 -0.1631  0.7115 -0.6293
   29bbb    H13  832   3.197   7.773   8.278  0.3972  0.1204 -0.7632
   29bbb    H14  833   3.274   7.826   8.429 -1.8019  1.2701  1.3392
   29bbb     C8  834   2.978   7.115   8.132  0.2297 -0.0920 -0.8539
   29bbb    H15  835   2.884   7.149   8.176  0.4560 -0.8633  0.2812
   29bbb    H16  836   3.024   7.036   8.193  0.1006 -0.5374 -1.3253
   29bbb     C9  837   3.002   7.745   8.030  0.0712  0.3679 -0.0774
   29bbb    H17  838   3.085   7.718   7.963 -1.1881 -2.1817 -0.7582
   29bbb    H18  839   2.999   7.842   8.080 -1.9919  0.0292  0.5474
   29bbb     O1  840   3.072   7.775   8.436  0.0713  0.7252 -0.4284
   30bbb     N1  841   2.629   7.374   7.862 -0.1958  0.5703 -0.8192
   30bbb     C1  842   2.565   7.327   7.735  0.4266 -0.1920 -0.7135
   30bbb     H1  843   2.468   7.281   7.760  1.2693 -2.2762 -1.0367
   30bbb     H2  844   2.623   7.242   7.697  0.9717  0.6889 -1.9231
   30bbb     C2  845   2.753   7.445   7.836  0.5251 -0.6233 -0.6143
   30bbb     H3  846   2.789   7.486   7.931  0.5355 -0.0172 -0.8763
   30bbb     H4  847   2.755   7.531   7.769  0.4572 -1.5125 -1.7802
   30bbb     C3  848   2.632   7.268   7.960 -0.8427  0.0392 -0.0154
   30bbb     H5  849   2.684   7.179   7.922 -0.4439  0.5617 -0.7200
   30bbb     H6  850   2.527   7.237   7.970 -0.4096 -0.8795  2.5426
   30bbb     C4  851   2.679   7.316   8.095  0.3630  0.0336 -0.9794
   30bbb     H7  852   2.785   7.342   8.094  0.5596 -0.6888 -0.1846
   30bbb     H8  853   2.672   7.238   8.171 -1.3381 -0.0746 -1.2028
   30bbb     C5  854   2.563   7.432   7.616  0.3725 -0.1188 -0.5667
   30bbb     H9  855   2.487   7.395   7.547  1.2677 -0.3754 -1.4377
   30bbb    H10  856   2.651   7.428   7.551 -0.0539  0.0336 -1.1672
   30bbb     C6  857   2.869   7.358   7.786  0.5800  0.2326  0.0239
   30bbb    H11  858   2.840   7.320   7.687  2.1722  0.2197 -0.4675
   30bbb    H12  859   2.876   7.273   7.855 -0.8912 -0.0229 -0.1041
   30bbb     C7  860   2.605   7.435   8.157  0.4376 -0.1317  0.4259
   30bbb    H13  861   2.503   7.404   8.184  0.7046 -0.1263  1.5043
   30bbb    H14  862   2.601   7.526   8.096 -0.3458 -0.7339 -0.4557
   30bbb     C8  863   2.999   7.435   7.779 -0.3388  0.0592  0.8610
   30bbb    H15  864   3.073   7.354   7.780 -1.3347 -0.8797  0.4129
   30bbb    H16  865   3.022   7.493   7.869  5.3005 -0.9633  0.4723
   30bbb     C9  866   2.507   7.577   7.647 -0.2501  0.0991 -0.0551
   30bbb    H17  867   2.573   7.626   7.719 -0.3150  0.7341 -0.4197
   30bbb    H18  868   2.413   7.575   7.703 -0.7092 -2.2738 -0.7994
   30bbb     O1  869   2.664   7.465   8.286  0.3343  0.2053 -0.1369
   31bbb     N1  870   4.282   7.201   9.761  0.1196  0.0495  0.1186
   31bbb     C1  871   4.204   7.196   9.629  0.0031 -0.3706 -0.5098
   31bbb     H1  872   4.269   7.155   9.550  0.3707  1.7359 -1.3628
   31bbb     H2  873   4.192   7.301   9.600 -0.6201  0.1520  1.4736
   31bbb     C2  874   4.406   7.287   9.751 -0.5693  0.3582  0.5416
   31bbb     H3  875   4.470   7.276   9.839  1.5407 -1.3071 -1.0936
   31bbb     H4  876   4.374   7.392   9.743  0.4157  0.7026  0.9782
   31bbb     C3  877   4.204   7.234   9.882 -0.0130 -0.5500  1.0867
   31bbb     H5  878   4.125   7.158   9.885  0.2519 -0.8663  0.2645
   31bbb     H6  879   4.155   7.331   9.873 -1.6227 -1.4403 -0.2584
   31bbb     C4  880   4.283   7.227  10.016  0.7603  0.2535  0.4788
   31bbb     H7  881   4.356   7.308  10.027 -0.2839  1.3332 -0.3245
   31bbb     H8  882   4.344   7.136  10.026  0.2418 -0.1563 -0.0145
   31bbb     C5  883   4.079   7.107   9.631 -0.2090 -0.2771 -0.3531
   31bbb     H9  884   4.004   7.140   9.704 -0.7419  1.4116 -1.6091
   31bbb    H10  885   4.117   7.007   9.656  1.7847  0.2072 -1.2303
   31bbb     C6  886   4.495   7.259   9.629 -0.3236 -0.1840  0.5632
   31bbb    H11  887   4.431   7.275   9.541 -1.7070 -1.0489  1.3775
   31bbb    H12  888   4.515   7.152   9.631 -1.5204 -0.4260  2.7332
   31bbb     C7  889   4.180   7.233  10.133 -0.4981 -0.4374  0.5278
   31bbb    H13  890   4.125   7.328  10.136 -0.4747 -0.1258 -3.4029
   31bbb    H14  891   4.242   7.213  10.221 -1.1029 -0.9198  0.8554
   31bbb     C8  892   4.613   7.360   9.624 -0.6121 -0.5823  0.0338
   31bbb    H15  893   4.669   7.354   9.718 -0.0589 -0.6871 -0.2940
   31bbb    H16  894   4.575   7.461   9.606 -2.3713 -1.1569  0.3353
   31bbb     C9  895   4.012   7.110   9.491  0.2120  0.0033 -0.5639
   31bbb    H17  896   4.018   7.212   9.451  0.1906 -0.2758 -1.2857
   31bbb    H18  897   3.905   7.090   9.499  0.2656  0.2036  1.0174
   31bbb     O1  898   4.082   7.130  10.106  0.0061 -0.6667  0.0035
   32bbb     N1  899   3.339   7.921  10.006  0.4975  0.4200  0.3534
   32bbb     C1  900   3.235   7.914  10.110 -0.1784 -0.2765  0.7456
   32bbb     H1  901   3.236   7.815  10.156  2.0100 -0.8787 -0.4601
   32bbb     H2  902   3.141   7.934  10.056  1.7770 -0.7132 -3.2087
   32bbb     C2  903   3.375   8.054   9.943  0.1074 -0.4720 -0.1208
   32bbb     H3  904   3.439   8.030   9.858  0.8159  2.9731 -0.7288
   32bbb     H4  905   3.446   8.106  10.009  0.1967  1.5236 -1.6850
   32bbb     C3  906   3.315   7.814   9.905  0.4844 -0.7306  0.5234
   32bbb     H5  907   3.390   7.828   9.826  0.0430  1.3906  0.4420
   32bbb     H6  908   3.218   7.831   9.857  1.3868  0.6876 -0.9156
   32bbb     C4  909   3.316   7.669   9.963 -0.5631  0.5912 -0.7118
   32bbb     H7  910   3.293   7.596   9.885 -0.8731 -1.9300  1.5713
   32bbb     H8  911   3.238   7.648  10.037 -0.1070 -0.9847 -0.6476
   32bbb     C5  912   3.262   8.018  10.220  0.0624 -0.2336 -0.3800
   32bbb     H9  913   3.254   8.124  10.192  0.5645 -0.0887 -0.0034
   32bbb    H10  914   3.366   8.013  10.255 -0.3908 -0.7042  0.9407
   32bbb     C6  915   3.269   8.148   9.886 -0.1370 -0.0092  0.0559
   32bbb    H11  916   3.192   8.179   9.957  0.9452 -0.4807  1.4713
   32bbb    H12  917   3.217   8.090   9.809  1.3181 -0.7928 -0.3704
   32bbb     C7  918   3.446   7.619  10.034 -0.1561 -0.3097 -0.2596
   32bbb    H13  919   3.478   7.688  10.113 -1.6588  0.0100  0.1102
   32bbb    H14  920   3.529   7.620   9.963 -1.3839  0.7239 -1.7423
   32bbb     C8  921   3.336   8.277   9.841  0.1916  0.6637  1.0622
   32bbb    H15  922   3.271   8.332   9.772  1.4242 -1.7259 -2.2772
   32bbb    H16  923   3.425   8.255   9.780  1.2525  3.3365  1.4993
   32bbb     C9  924   3.160   7.994  10.339 -0.8230 -0.3074 -0.0494
   32bbb    H17  925   3.219   8.001  10.431 -0.2888  2.8825 -0.5280
   32bbb    H18  926   3.114   7.895  10.331 -2.3698  0.4172 -0.3794
   32bbb     O1  927   3.432   7.483  10.086  1.0599 -0.3009 -0.0206
   33bbb     N1  928   3.487   7.842   8.827 -0.2128  1.1316 -0.2343
   33bbb     C1  929   3.609   7.786   8.901  0.8871 -0.9235 -0.0209
   33bbb     H1  930   3.600   7.810   9.008 -0.9853 -2.2237  0.1720
   33bbb     H2  931   3.698   7.836   8.862 -0.5542  1.4825 -0.4218
   33bbb     C2  932   3.502   7.828   8.675  0.5652 -0.0090  0.0395
   33bbb     H3  933   3.426   7.897   8.636  1.4197  1.0445  0.1793
   33bbb     H4  934   3.473   7.725   8.650  1.1561 -0.2425  0.3066
   33bbb     C3  935   3.355   7.802   8.879 -0.0813  0.1001  0.4699
   33bbb     H5  936   3.353   7.823   8.987 -0.1607  0.1186  0.4639
   33bbb     H6  937   3.344   7.696   8.854 -0.3064  0.6253 -1.9187
   33bbb     C4  938   3.234   7.884   8.819  0.5650  0.5929  0.4482
   33bbb     H7  939   3.220   7.869   8.711  1.9339  0.0618  0.3255
   33bbb     H8  940   3.262   7.987   8.844  1.3420  0.8585 -1.3652
   33bbb     C5  941   3.632   7.631   8.888 -0.5425 -0.1871 -0.0895
   33bbb     H9  942   3.645   7.608   8.782  0.7286 -1.6514  0.3419
   33bbb    H10  943   3.544   7.576   8.923  0.7379 -2.4776 -0.2874
   33bbb     C6  944   3.632   7.860   8.607 -0.7678 -0.3876  0.3624
   33bbb    H11  945   3.720   7.804   8.642 -0.6803 -1.0792 -0.9266
   33bbb    H12  946   3.645   7.968   8.618 -0.9767 -0.1535 -1.4477
   33bbb     C7  947   3.103   7.853   8.901  0.6073  0.1072 -0.1551
   33bbb    H13  948   3.016   7.909   8.866 -0.9465 -0.2406  2.8580
   33bbb    H14  949   3.120   7.898   8.999  0.7018  2.3995 -1.1525
   33bbb     C8  950   3.632   7.827   8.451 -0.0393  0.6227 -0.0816
   33bbb    H15  951   3.604   7.722   8.438  0.6987  0.2023  1.4407
   33bbb    H16  952   3.729   7.825   8.399  0.3774  1.3438  0.6397
   33bbb     C9  953   3.749   7.568   8.963 -0.0672  0.3719  0.0794
   33bbb    H17  954   3.783   7.472   8.921 -0.5966  0.5555 -0.7945
   33bbb    H18  955   3.734   7.557   9.071  2.5830 -0.6330  0.4253
   33bbb     O1  956   3.071   7.712   8.908  0.2307 -0.4124 -0.5409
   34bbb     N1  957   3.429   7.150   8.394 -0.5970  0.1282 -0.0909
   34bbb     C1  958   3.504   7.109   8.270 -0.3590  0.4219 -0.3859
   34bbb     H1  959   3.481   7.174   8.184  0.8121  0.4672 -0.6931
   34bbb     H2  960   3.477   7.010   8.230  0.6529  0.1381 -0.4106
   34bbb     C2  961   3.438   7.296   8.422  0.2072  0.8388  0.2987
   34bbb     H3  962   3.359   7.343   8.361 -0.1909  0.1009  0.2328
   34bbb     H4  963   3.531   7.343   8.388 -0.1948  0.0769 -2.0767
   34bbb     C3  964   3.297   7.099   8.402  0.3076  0.1743  0.7757
   34bbb     H5  965   3.244   7.120   8.309 -1.3793  0.3126  1.7150
   34bbb     H6  966   3.238   7.153   8.478  0.2897  2.8705 -1.0456
   34bbb     C4  967   3.287   6.951   8.443  0.7644  0.0748  0.3355
   34bbb     H7  968   3.335   6.954   8.542 -0.8695  1.4772  1.1431
   34bbb     H8  969   3.344   6.884   8.378  0.2298  1.5211 -1.7137
   34bbb     C5  970   3.660   7.110   8.308  0.1853  0.0835  0.2216
   34bbb     H9  971   3.675   7.024   8.374 -0.1284  0.2367  0.4944
   34bbb    H10  972   3.679   7.193   8.378 -2.5095 -0.4571  1.7509
   34bbb     C6  973   3.437   7.331   8.572  0.2705 -0.3678 -0.4758
   34bbb    H11  974   3.335   7.308   8.604  0.2086 -2.2402 -1.8506
   34bbb    H12  975   3.460   7.438   8.573 -1.1001 -0.0682  0.2743
   34bbb     C7  976   3.143   6.898   8.456 -0.0633 -0.2535  0.1905
   34bbb    H13  977   3.139   6.792   8.426 -0.4276 -1.0103  2.6816
   34bbb    H14  978   3.075   6.958   8.393  3.0083  1.5663 -1.6362
   34bbb     C8  979   3.550   7.266   8.652  0.2711  0.4412 -0.4607
   34bbb    H15  980   3.555   7.158   8.631  3.0232  0.6265 -1.1719
   34bbb    H16  981   3.539   7.288   8.759  1.1456 -0.5949 -0.1309
   34bbb     C9  982   3.748   7.119   8.189 -0.5764 -0.1675 -0.3824
   34bbb    H17  983   3.714   7.193   8.116 -1.0794 -1.0375 -1.0502
   34bbb    H18  984   3.748   7.021   8.139  0.0922 -0.6637  0.5614
   34bbb     O1  985   3.116   6.917   8.599 -0.3745  0.3804 -0.1610
   35bbb     N1  986   2.319   7.448   8.962  0.3234 -0.2494 -0.0134
   35bbb     C1  987   2.425   7.551   8.930 -0.5995  0.4108  0.4660
   35bbb     H1  988   2.479   7.536   8.835  0.1184  0.4640  0.8549
   35bbb     H2  989   2.502   7.555   9.008  1.6546  3.7606 -1.6594
   35bbb     C2  990   2.367   7.311   8.940 -0.1644 -0.4102 -0.6970
   35bbb     H3  991   2.437   7.278   9.018  1.1551  2.3102 -0.6233
   35bbb     H4  992   2.425   7.305   8.846  3.0401  0.9878  1.0405
   35bbb     C3  993   2.231   7.476   9.077 -0.2051 -0.0498 -0.0701
   35bbb     H5  994   2.137   7.423   9.058  0.5046 -1.9818  1.3787
   35bbb     H6  995   2.210   7.583   9.080  2.3265  0.6763 -3.1353
   35bbb     C4  996   2.287   7.430   9.213 -0.4439 -0.2486 -0.0530
   35bbb     H7  997   2.386   7.472   9.236 -0.7929  1.0578 -0.8133
   35bbb     H8  998   2.302   7.321   9.203  1.4467 -0.0570  0.3531
   35bbb     C5  999   2.384   7.698   8.914 -0.4021 -0.0217  0.3855
   35bbb     H9 1000   2.475   7.747   8.877  0.7863 -2.4123 -0.0996
   35bbb    H10 1001   2.360   7.735   9.014  1.8975  3.2201 -0.0794
   35bbb     C6 1002   2.254   7.205   8.923 -0.1552 -1.2079  0.2198
   35bbb    H11 1003   2.181   7.230   8.845 -0.0650 -0.6351  0.3141
   35bbb    H12 1004   2.185   7.217   9.008  1.7244  3.3782  1.3503
   35bbb     C7 1005   2.183   7.443   9.325  0.1201 -0.8167  0.0655
   35bbb    H13 1006   2.095   7.381   9.302 -1.6622  0.6481  2.4528
   35bbb    H14 1007   2.158   7.550   9.325 -0.0044 -0.8209  2.0308
   35bbb     C8 1008   2.307   7.058   8.899 -0.7723  0.0804  0.1513
   35bbb    H15 1009   2.372   7.023   8.981  0.1351  0.1059 -0.5446
   35bbb    H16 1010   2.366   7.055   8.807 -2.0480  0.6836 -0.7092
   35bbb     C9 1011   2.263   7.726   8.818 -0.2836 -0.7945 -0.2241
   35bbb    H17 1012   2.248   7.832   8.792 -2.4440 -1.1961 -0.7898
   35bbb    H18 1013   2.172   7.696   8.871 -0.5147 -0.0073 -0.1631
   35bbb     O1 1014   2.235   7.400   9.443 -0.4818  0.4213 -0.0644
   36bbb     N1 1015   1.183   7.282   9.991  0.1464 -0.0228  0.1062
   36bbb     C1 1016   1.188   7.197   9.867  0.5847 -0.3500 -0.4304
   36bbb     H1 1017   1.262   7.235   9.796  1.6913 -1.4527  0.0965
   36bbb     H2 1018   1.090   7.210   9.819 -0.3468  1.8032  1.8126
   36bbb     C2 1019   1.068   7.379   9.984  0.4964 -0.4029 -0.5258
   36bbb     H3 1020   1.054   7.434   9.890 -1.4301  2.8145  1.4725
   36bbb     H4 1021   1.072   7.453  10.064 -0.4107 -2.0188  1.0859
   36bbb     C3 1022   1.309   7.361  10.015  0.6431 -0.0729 -0.5609
   36bbb     H5 1023   1.278   7.441  10.084  0.3124  0.0705 -0.8688
   36bbb     H6 1024   1.324   7.413   9.919 -1.0542 -0.0460 -0.8421
   36bbb     C4 1025   1.425   7.283  10.074  0.7935  0.6536  0.0094
   36bbb     H7 1026   1.445   7.184  10.032  1.0606  0.3392  0.8552
   36bbb     H8 1027   1.408   7.256  10.179  1.6629  1.8480  0.4874
   36bbb     C5 1028   1.212   7.040   9.897 -0.1182 -0.1810  0.3215
   36bbb     H9 1029   1.128   6.989   9.945 -1.1081 -0.4227 -1.5751
   36bbb    H10 1030   1.288   7.031   9.975  0.2167 -1.1990 -0.1005
   36bbb     C6 1031   0.932   7.306   9.997  0.1576  0.8274  0.3492
   36bbb    H11 1032   0.949   7.226  10.070 -0.3219  0.3285 -0.0735
   36bbb    H12 1033   0.906   7.264   9.899  2.3184 -1.7593  0.7739
   36bbb     C7 1034   1.547   7.368  10.056 -0.1492 -0.2002 -0.2824
   36bbb    H13 1035   1.523   7.471  10.087 -0.3562 -0.7570  1.4808
   36bbb    H14 1036   1.577   7.373   9.951 -0.6357  2.4596 -0.3662
   36bbb     C8 1037   0.820   7.410  10.036  0.3651  0.8749 -0.1526
   36bbb    H15 1038   0.844   7.506   9.989  0.1561  0.8562 -0.2982
   36bbb    H16 1039   0.812   7.421  10.145  0.3053 -3.3526  0.4342
   36bbb     C9 1040   1.242   6.962   9.764  0.5970  0.4148  0.6966
   36bbb    H17 1041   1.340   6.982   9.718  0.4596 -0.0821  0.1873
   36bbb    H18 1042   1.242   6.853   9.776 -2.0675  0.3710  0.7095
   36bbb     O1 1043   1.652   7.317  10.143  0.5430  0.0451  0.6523
   37bbb     N1 1044   1.565   6.275   9.064 -0.0879 -0.0069  0.5517
   37bbb     C1 1045   1.635   6.292   8.932  0.2293 -0.0929  0.4007
   37bbb     H1 1046   1.606   6.388   8.888 -0.0963  0.8384  2.4938
   37bbb     H2 1047   1.598   6.217   8.861 -0.1045 -0.4276  0.9131
   37bbb     C2 1048   1.416   6.241   9.059  0.3770 -0.2021  0.2336
   37bbb     H3 1049   1.363   6.328   9.018 -0.3211 -0.4882  0.5240
   37bbb     H4 1050   1.376   6.236   9.161 -0.9850  1.8270 -0.1491
   37bbb     C3 1051   1.595   6.379   9.169 -0.7113  0.4907 -0.6089
   37bbb     H5 1052   1.704   6.387   9.181 -0.5929 -1.9445  0.6670
   37bbb     H6 1053   1.545   6.344   9.261 -0.2904  2.3900  0.3834
   37bbb     C4 1054   1.548   6.517   9.128 -0.5521 -0.5055 -0.3683
   37bbb     H7 1055   1.476   6.496   9.048 -0.8963 -2.3728  0.3908
   37bbb     H8 1056   1.638   6.557   9.080 -0.0117 -1.1294  0.1209
   37bbb     C5 1057   1.788   6.290   8.934  1.3373  0.3483  0.5190
   37bbb     H9 1058   1.809   6.238   9.029  0.6473 -1.6041 -0.3405
   37bbb    H10 1059   1.822   6.394   8.937  0.8514  0.5007  1.0419
   37bbb     C6 1060   1.370   6.121   8.974  0.2767  0.0543 -0.1069
   37bbb    H11 1061   1.397   6.022   9.013 -1.0414 -0.5360 -0.6112
   37bbb    H12 1062   1.427   6.126   8.880  0.1194 -2.3832 -0.4057
   37bbb     C7 1063   1.483   6.600   9.244  0.1600  0.4128  0.4143
   37bbb    H13 1064   1.554   6.605   9.327  0.5557 -0.5721  0.1581
   37bbb    H14 1065   1.389   6.553   9.275  0.8606  0.0104  2.0322
   37bbb     C8 1066   1.206   6.113   8.952 -0.1992 -0.8854 -0.1722
   37bbb    H15 1067   1.156   6.129   9.048 -0.2056  1.5299 -0.5281
   37bbb    H16 1068   1.184   6.010   8.923 -1.6415  0.2136 -3.3896
   37bbb     C9 1069   1.841   6.205   8.812 -0.0797 -0.5818 -0.3029
   37bbb    H17 1070   1.820   6.266   8.724  0.0399  0.0067  0.0645
   37bbb    H18 1071   1.774   6.119   8.816 -1.0430  0.1277 -0.9368
   37bbb     O1 1072   1.451   6.723   9.187  0.1070 -0.1511 -0.4554
   38bbb     N1 1073   1.718   6.743   9.732  0.2603  0.0132  0.2172
   38bbb     C1 1074   1.613   6.658   9.671  0.4268 -1.1221 -0.8492
   38bbb     H1 1075   1.639   6.610   9.576 -1.6226 -2.7259 -0.6950
   38bbb     H2 1076   1.522   6.716   9.649  0.8215 -1.1837 -2.8447
   38bbb     C2 1077   1.797   6.822   9.636 -0.1871 -0.6131 -0.5388
   38bbb     H3 1078   1.879   6.870   9.691 -1.0450  0.7384 -0.3851
   38bbb     H4 1079   1.730   6.900   9.598 -1.8622 -2.5643 -1.8014
   38bbb     C3 1080   1.688   6.813   9.857 -0.1517 -0.0215 -0.0352
   38bbb     H5 1081   1.778   6.852   9.906 -0.3190 -0.6307  0.7792
   38bbb     H6 1082   1.650   6.738   9.928 -1.9452  1.3460  0.5362
   38bbb     C4 1083   1.600   6.934   9.827  0.2923  0.3074  0.2439
   38bbb     H7 1084   1.515   6.938   9.895  0.1991 -0.4121  0.1791
   38bbb     H8 1085   1.556   6.934   9.726  2.5413 -0.8783 -0.8166
   38bbb     C5 1086   1.563   6.543   9.760 -0.0876 -0.3863 -0.4808
   38bbb     H9 1087   1.515   6.580   9.851  1.5176 -0.8162  0.5959
   38bbb    H10 1088   1.655   6.500   9.803  0.7085  0.7267 -1.0070
   38bbb     C6 1089   1.872   6.756   9.524  0.6606  0.3435 -0.7981
   38bbb    H11 1090   1.950   6.829   9.499  0.3594  0.4557 -1.4149
   38bbb    H12 1091   1.801   6.758   9.441 -1.4151  2.1330  0.8883
   38bbb     C7 1092   1.661   7.077   9.838  0.2846 -0.6608 -0.4990
   38bbb    H13 1093   1.759   7.079   9.788  2.0455 -0.9365  2.6647
   38bbb    H14 1094   1.673   7.107   9.943  0.5999 -0.2642 -0.6463
   38bbb     C8 1095   1.923   6.612   9.549 -0.3214 -0.9021 -0.1228
   38bbb    H15 1096   1.844   6.539   9.569 -1.6565  0.5466  0.1397
   38bbb    H16 1097   1.975   6.619   9.646 -2.1923  2.8595  0.7975
   38bbb     C9 1098   1.476   6.437   9.676 -0.6195 -0.3150 -0.0003
   38bbb    H17 1099   1.439   6.365   9.750 -0.7484 -1.6212 -1.2860
   38bbb    H18 1100   1.538   6.379   9.607 -0.2825  0.6942 -0.5730
   38bbb     O1 1101   1.571   7.169   9.772  0.1083 -0.2021  0.0517
   39bbb     N1 1102   2.422   9.557   8.338 -0.0555 -0.9199 -0.0168
   39bbb     C1 1103   2.503   9.637   8.243  0.2688  0.7890  0.4883
   39bbb     H1 1104   2.597   9.667   8.291  0.8417  0.0456 -0.1409
   39bbb     H2 1105   2.445   9.726   8.217 -0.5021 -0.3235 -1.9017
   39bbb     C2 1106   2.306   9.489   8.276  0.7825 -0.2070 -0.5417
   39bbb     H3 1107   2.334   9.441   8.181 -0.1639 -0.8644 -0.5003
   39bbb     H4 1108   2.231   9.566   8.256  0.3705 -0.3467  0.4457
   39bbb     C3 1109   2.384   9.618   8.465 -0.2970 -0.0550 -0.8754
   39bbb     H5 1110   2.335   9.547   8.532  0.0201  0.1661 -0.4015
   39bbb     H6 1111   2.316   9.701   8.441  0.6029  0.0195 -3.4772
   39bbb     C4 1112   2.497   9.694   8.542  0.3426  0.4194 -0.3144
   39bbb     H7 1113   2.456   9.758   8.621 -1.7676  0.0968 -1.0956
   39bbb     H8 1114   2.551   9.762   8.476  0.1343  0.2396 -0.6705
   39bbb     C5 1115   2.557   9.565   8.117 -0.4677  0.2310 -0.4600
   39bbb     H9 1116   2.621   9.640   8.069  0.8912  0.2981  1.3339
   39bbb    H10 1117   2.471   9.546   8.052 -0.7948 -1.6714  0.4448
   39bbb     C6 1118   2.237   9.372   8.354 -0.1873 -0.0215  0.2029
   39bbb    H11 1119   2.147   9.339   8.301 -1.4858 -0.0901  2.3291
   39bbb    H12 1120   2.205   9.417   8.449  3.0270  3.5805 -0.1514
   39bbb     C7 1121   2.606   9.593   8.589  0.3568  0.2590 -0.0571
   39bbb    H13 1122   2.654   9.540   8.505  0.7853 -0.9558  0.9257
   39bbb    H14 1123   2.554   9.513   8.642 -0.2518  0.9613  0.4213
   39bbb     C8 1124   2.330   9.262   8.397 -0.9461 -0.3821 -0.4156
   39bbb    H15 1125   2.310   9.238   8.502 -0.5145 -1.8669 -0.6507
   39bbb    H16 1126   2.435   9.294   8.391 -1.1266  0.0644 -1.5007
   39bbb     C9 1127   2.631   9.426   8.144  0.8923 -0.3011  0.4176
   39bbb    H17 1128   2.555   9.352   8.172  0.1012  0.0528 -0.7425
   39bbb    H18 1129   2.697   9.447   8.230  0.1433  1.2503  0.6426
   39bbb     O1 1130   2.705   9.652   8.670 -0.0572 -0.5041  0.2334
   40bbb     N1 1131   2.332   9.253   9.438 -0.1628  0.3241  0.2842
   40bbb     C1 1132   2.348   9.105   9.437 -0.2116 -0.3462 -0.7177
   40bbb     H1 1133   2.390   9.063   9.529 -2.0123 -2.7189 -0.8863
   40bbb     H2 1134   2.418   9.080   9.356  1.3758 -0.7273  0.7129
   40bbb     C2 1135   2.259   9.308   9.316  0.4049  0.2908 -0.0908
   40bbb     H3 1136   2.164   9.254   9.319  0.2669  0.5487  2.2154
   40bbb     H4 1137   2.299   9.274   9.220 -2.4156  1.9896 -2.0052
   40bbb     C3 1138   2.457   9.327   9.472  0.2634 -0.6117  0.4129
   40bbb     H5 1139   2.492   9.280   9.565 -1.2371 -1.9506  0.3435
   40bbb     H6 1140   2.437   9.432   9.495 -2.3670 -0.4663 -2.0364
   40bbb     C4 1141   2.571   9.311   9.364 -0.4262 -0.3594 -0.1622
   40bbb     H7 1142   2.541   9.326   9.259  2.2798 -0.9741 -1.1287
   40bbb     H8 1143   2.616   9.211   9.367 -1.1419 -0.6566  1.1295
   40bbb     C5 1144   2.217   9.026   9.420 -0.1389 -0.5921 -0.2047
   40bbb     H9 1145   2.178   9.040   9.319 -2.0992 -0.2913  0.5428
   40bbb    H10 1146   2.141   9.061   9.491  1.6905 -0.6838  1.8998
   40bbb     C6 1147   2.224   9.460   9.314  0.1993 -0.2543  0.2638
   40bbb    H11 1148   2.316   9.520   9.314 -0.0334  0.1724 -1.8059
   40bbb    H12 1149   2.172   9.493   9.405  0.3765  0.9558 -0.0510
   40bbb     C7 1150   2.696   9.404   9.398  0.1311 -0.3043  0.2041
   40bbb    H13 1151   2.738   9.383   9.497  1.1989 -0.4677 -0.2748
   40bbb    H14 1152   2.671   9.510   9.392  1.8033  0.0263 -2.2284
   40bbb     C8 1153   2.156   9.515   9.192  0.5600  0.6187  0.1667
   40bbb    H15 1154   2.220   9.503   9.105  1.4283  1.1246  0.7164
   40bbb    H16 1155   2.130   9.621   9.209  0.2558  0.4702  0.6621
   40bbb     C9 1156   2.240   8.869   9.429  0.1227  0.4018  0.4494
   40bbb    H17 1157   2.323   8.840   9.363  0.2789 -1.6911  1.4950
   40bbb    H18 1158   2.146   8.823   9.396 -1.2099  1.3757  2.6224
   40bbb     O1 1159   2.797   9.392   9.290  0.5036  0.3246 -0.0109
   41bbb     N1 1160   3.059   9.644   7.785 -0.0186  0.4484 -0.0239
   41bbb     C1 1161   3.069   9.774   7.858 -0.1747  0.1670 -0.2801
   41bbb     H1 1162   2.979   9.788   7.919 -0.2489 -1.7843  0.1202
   41bbb     H2 1163   3.079   9.855   7.785  0.6971 -0.9491 -1.4273
   41bbb     C2 1164   2.950   9.648   7.683  0.1235  0.1591 -0.1694
   41bbb     H3 1165   2.950   9.556   7.624 -0.5419  0.2706 -0.3458
   41bbb     H4 1166   2.973   9.734   7.619 -0.1840 -0.0081 -0.5068
   41bbb     C3 1167   3.061   9.521   7.872 -0.2247 -0.1413 -0.1842
   41bbb     H5 1168   2.972   9.510   7.934  0.5266  0.3060  1.0014
   41bbb     H6 1169   3.143   9.519   7.945 -0.8185 -1.4223  0.4834
   41bbb     C4 1170   3.072   9.386   7.799 -0.9775 -1.3786 -0.1398
   41bbb     H7 1171   3.171   9.382   7.752 -1.4690 -0.3747 -1.3111
   41bbb     H8 1172   2.994   9.378   7.721 -0.7093  0.6937 -0.6706
   41bbb     C5 1173   3.199   9.779   7.945 -0.3400 -0.2345 -0.3908
   41bbb     H9 1174   3.291   9.751   7.893  0.7571  2.0527  0.1835
   41bbb    H10 1175   3.193   9.704   8.026  0.1752  1.5223  1.3671
   41bbb     C6 1176   2.807   9.666   7.731 -0.3844  0.2924  0.4718
   41bbb    H11 1177   2.798   9.740   7.811 -0.5145  0.0849  0.6507
   41bbb    H12 1178   2.791   9.574   7.788  1.2082  0.0677  0.5983
   41bbb     C7 1179   3.056   9.266   7.890  0.7732 -0.6788 -0.4535
   41bbb    H13 1180   2.948   9.247   7.896  0.1322  2.0301 -2.0596
   41bbb    H14 1181   3.099   9.284   7.990 -1.5214  0.2775  0.4337
   41bbb     C8 1182   2.714   9.697   7.617 -0.4366 -1.2100 -0.1302
   41bbb    H15 1183   2.770   9.730   7.529 -2.4373  1.1379 -0.6590
   41bbb    H16 1184   2.642   9.777   7.642  1.2212  0.7611 -1.3572
   41bbb     C9 1185   3.216   9.921   8.009 -0.1596  0.2123 -0.2231
   41bbb    H17 1186   3.141   9.940   8.086  1.6862 -1.7241  2.2325
   41bbb    H18 1187   3.216   9.996   7.929 -2.2464  1.2115  0.6519
   41bbb     O1 1188   3.113   9.155   7.835  0.0143  0.6580 -0.5974
   42bbb     N1 1189   3.639   9.382   7.867 -0.5550 -0.5803 -0.5028
   42bbb     C1 1190   3.543   9.346   7.762 -0.0559 -0.6008  0.6549
   42bbb     H1 1191   3.440   9.365   7.794 -0.6160  1.3543 -1.9984
   42bbb     H2 1192   3.554   9.242   7.728 -0.0329 -0.1207 -0.9017
   42bbb     C2 1193   3.778   9.351   7.842 -0.3350  0.0538  0.4226
   42bbb     H3 1194   3.845   9.376   7.924  0.3059  0.1269 -0.1149
   42bbb     H4 1195   3.807   9.411   7.754 -0.7435  0.2714  0.4315
   42bbb     C3 1196   3.594   9.339   8.001  0.1790  0.5313 -0.5277
   42bbb     H5 1197   3.678   9.365   8.067 -0.0918  0.7313 -0.2546
   42bbb     H6 1198   3.580   9.230   8.000  3.1350  0.0634  0.0462
   42bbb     C4 1199   3.475   9.418   8.060  0.4811 -0.4821 -0.2511
   42bbb     H7 1200   3.382   9.436   8.004 -1.5908  2.5137  3.6649
   42bbb     H8 1201   3.502   9.522   8.079  3.8666 -1.2159 -0.5238
   42bbb     C5 1202   3.552   9.425   7.634 -0.4516  0.0508 -0.1780
   42bbb     H9 1203   3.656   9.423   7.598  0.4201  1.4336  2.0269
   42bbb    H10 1204   3.544   9.532   7.657 -1.6732  0.2405 -1.3829
   42bbb     C6 1205   3.811   9.201   7.817  0.8558  0.0804  0.5852
   42bbb    H11 1206   3.763   9.160   7.728 -0.1941  1.4047  0.5049
   42bbb    H12 1207   3.766   9.141   7.898 -0.1178  0.0588  0.0477
   42bbb     C7 1208   3.434   9.345   8.194 -0.0898 -0.3256 -0.5244
   42bbb    H13 1209   3.380   9.412   8.262  0.3408 -0.4656 -0.0449
   42bbb    H14 1210   3.526   9.321   8.248 -1.5100  0.3719  2.4093
   42bbb     C8 1211   3.963   9.177   7.808 -0.6231 -0.8093 -0.0048
   42bbb    H15 1212   4.013   9.200   7.903 -0.2408  1.0271 -0.6090
   42bbb    H16 1213   4.019   9.226   7.728 -1.3477  1.0037  0.5383
   42bbb     C9 1214   3.442   9.386   7.531 -0.4847 -0.2979 -0.6068
   42bbb    H17 1215   3.443   9.454   7.444 -1.4509  0.0614 -0.3546
   42bbb    H18 1216   3.345   9.398   7.581 -0.5362  0.1580 -0.8015
   42bbb     O1 1217   3.368   9.227   8.158 -0.3780  0.6218  0.4301
   43bbb     N1 1218   3.746   7.031   9.066 -0.2368  0.2314  0.2956
   43bbb     C1 1219   3.788   6.894   9.113  0.0104  0.3452  0.6878
   43bbb     H1 1220   3.699   6.834   9.137  0.4222  0.7641  3.6267
   43bbb     H2 1221   3.845   6.889   9.206 -0.9554 -2.5950  1.2391
   43bbb     C2 1222   3.643   7.023   8.953 -0.4522  0.1345  0.5326
   43bbb     H3 1223   3.697   6.972   8.873 -3.1437  0.4178 -1.6199
   43bbb     H4 1224   3.614   7.125   8.922  3.2929  0.4630 -2.6247
   43bbb     C3 1225   3.703   7.117   9.181 -0.3384  0.4266  0.0875
   43bbb     H5 1226   3.775   7.103   9.263 -3.0740 -0.2221  2.5576
   43bbb     H6 1227   3.609   7.079   9.223 -0.4540  0.3609 -0.2297
   43bbb     C4 1228   3.701   7.265   9.144  0.2578 -0.7585  0.6241
   43bbb     H7 1229   3.609   7.274   9.085  2.0215 -0.0398 -2.2573
   43bbb     H8 1230   3.781   7.302   9.078  0.5752 -1.5980  0.5231
   43bbb     C5 1231   3.877   6.819   9.003 -0.3935 -0.1128 -0.3763
   43bbb     H9 1232   3.959   6.889   8.980 -0.2843  0.5410  1.8073
   43bbb    H10 1233   3.825   6.804   8.907 -1.4590  0.6879  0.0551
   43bbb     C6 1234   3.514   6.942   8.981  0.1178  0.1678  0.2239
   43bbb    H11 1235   3.468   6.977   9.074  0.7067 -0.2150  0.6664
   43bbb    H12 1236   3.534   6.835   8.988 -2.8530 -1.0506 -4.8859
   43bbb     C7 1237   3.702   7.358   9.274  0.1408  0.1515 -0.1152
   43bbb    H13 1238   3.644   7.311   9.355 -0.1405 -1.6316 -1.3010
   43bbb    H14 1239   3.656   7.453   9.247  0.0274 -0.5134 -2.4340
   43bbb     C8 1240   3.427   6.961   8.853  0.3973 -0.1834 -0.3075
   43bbb    H15 1241   3.393   7.065   8.859 -1.6357 -0.8314  0.2473
   43bbb    H16 1242   3.335   6.903   8.853 -1.3048  2.2936 -2.2270
   43bbb     C9 1243   3.935   6.694   9.063 -0.0099 -0.7663 -0.4253
   43bbb    H17 1244   3.856   6.634   9.111  0.5653 -1.7285 -0.6448
   43bbb    H18 1245   4.010   6.716   9.140 -0.1762  1.5901 -0.8635
   43bbb     O1 1246   3.836   7.372   9.317  0.2633  0.2231  0.0722
   44bbb     N1 1247   3.890   7.684   9.989 -0.3235  0.1278 -0.1143
   44bbb     C1 1248   3.849   7.680  10.135  0.0965 -0.4067  0.5094
   44bbb     H1 1249   3.748   7.637  10.141 -0.1088  0.2710  4.4755
   44bbb     H2 1250   3.838   7.784  10.166 -0.2967  0.2660 -1.7090
   44bbb     C2 1251   3.898   7.549   9.923 -0.1225 -0.8700  0.5893
   44bbb     H3 1252   3.803   7.495   9.924  0.4504 -1.9842 -0.9428
   44bbb     H4 1253   3.956   7.485   9.990  0.2078 -0.5007  0.6635
   44bbb     C3 1254   3.817   7.777   9.897  0.5303 -0.2920 -0.4389
   44bbb     H5 1255   3.722   7.735   9.861 -0.0727  0.0337  0.7022
   44bbb     H6 1256   3.877   7.795   9.807 -1.2730 -0.5111 -1.7568
   44bbb     C4 1257   3.777   7.918   9.963  0.0093 -0.3182  0.1592
   44bbb     H7 1258   3.874   7.954  10.000  1.0343 -1.6740 -1.0865
   44bbb     H8 1259   3.709   7.907  10.049 -0.4777 -1.9529 -0.4086
   44bbb     C5 1260   3.941   7.600  10.226  0.1786 -0.1013 -0.2481
   44bbb     H9 1261   4.049   7.605  10.207 -0.0781  2.7534 -1.4921
   44bbb    H10 1262   3.914   7.494  10.217 -2.5350  0.5967 -1.4225
   44bbb     C6 1263   3.956   7.544   9.781 -0.5304  1.1669 -0.5039
   44bbb    H11 1264   3.883   7.583   9.709 -1.3198  0.9853  0.1842
   44bbb    H12 1265   3.957   7.440   9.748 -0.0419  1.4128 -1.2880
   44bbb     C7 1266   3.735   8.017   9.849  0.4550 -0.0905 -0.2956
   44bbb    H13 1267   3.713   8.119   9.882 -1.3325 -0.6126  0.2274
   44bbb    H14 1268   3.649   7.969   9.800 -0.0984  0.1166  0.4415
   44bbb     C8 1269   4.091   7.607   9.760 -0.7840  0.0497 -0.1178
   44bbb    H15 1270   4.161   7.550   9.823 -0.4443  2.5755  1.9368
   44bbb    H16 1271   4.088   7.712   9.790  0.3218 -0.1495  0.7864
   44bbb     C9 1272   3.935   7.646  10.373  0.0249 -0.1803 -0.1203
   44bbb    H17 1273   3.965   7.558  10.431  0.7623  1.1282  1.5965
   44bbb    H18 1274   4.009   7.725  10.393  0.8216 -0.9722  0.1056
   44bbb     O1 1275   3.831   8.025   9.744  0.0264 -0.9028  0.1424
   45bbb     N1 1276   4.335   9.153   8.047 -0.5299  0.1572 -0.0306
   45bbb     C1 1277   4.438   9.076   7.981  0.1252  0.7195 -0.5776
   45bbb     H1 1278   4.533   9.129   7.985 -0.4602  1.8025 -0.7312
   45bbb     H2 1279   4.409   9.062   7.876 -0.8425  0.0434 -0.2428
   45bbb     C2 1280   4.318   9.290   7.996 -0.0883 -0.5090 -0.0489
   45bbb     H3 1281   4.408   9.351   8.012 -0.7186  1.2428 -2.6149
   45bbb     H4 1282   4.230   9.340   8.039 -0.5193 -2.0547  0.9539
   45bbb     C3 1283   4.331   9.143   8.191 -0.2457 -0.4354 -0.5270
   45bbb     H5 1284   4.356   9.240   8.236  1.4514 -0.7486 -0.7445
   45bbb     H6 1285   4.408   9.078   8.233  0.5110  1.1685  0.6795
   45bbb     C4 1286   4.196   9.100   8.251  0.1639  0.2654 -0.3087
   45bbb     H7 1287   4.194   9.128   8.357  2.8001  3.1517 -0.8877
   45bbb     H8 1288   4.180   8.992   8.236  0.8261  0.2437 -0.8819
   45bbb     C5 1289   4.474   8.931   8.031 -0.1697  0.1504  0.2196
   45bbb     H9 1290   4.383   8.870   8.023  0.2349 -0.4684  0.2843
   45bbb    H10 1291   4.503   8.915   8.135  3.3433 -1.5054 -0.8717
   45bbb     C6 1292   4.298   9.294   7.844  0.0359  0.6383  0.0790
   45bbb    H11 1293   4.223   9.225   7.801  1.5324 -0.8268 -0.3093
   45bbb    H12 1294   4.393   9.264   7.797 -0.3866  1.8021 -1.5924
   45bbb     C7 1295   4.068   9.174   8.203 -0.2091  0.4133 -0.6854
   45bbb    H13 1296   4.056   9.125   8.106  4.2582 -4.3813  0.7552
   45bbb    H14 1297   4.080   9.280   8.176 -1.0324  0.2722 -1.6739
   45bbb     C8 1298   4.265   9.434   7.796  0.3509 -0.9653  0.4370
   45bbb    H15 1299   4.175   9.473   7.846  0.2498 -1.1115  0.3685
   45bbb    H16 1300   4.243   9.447   7.689 -2.4899  1.2797  1.1484
   45bbb     C9 1301   4.590   8.868   7.940 -0.2301 -0.4748 -0.8695
   45bbb    H17 1302   4.688   8.888   7.985  0.2520 -2.6311 -0.8462
   45bbb    H18 1303   4.592   8.910   7.839 -0.2535  2.8181  0.3687
   45bbb     O1 1304   3.955   9.155   8.294  0.1300  1.0708 -0.0604
   46bbb     N1 1305   3.237   9.037   9.205  0.3279  0.1789 -0.4842
   46bbb     C1 1306   3.093   9.017   9.210  0.2438  0.1554 -0.6624
   46bbb     H1 1307   3.049   9.013   9.110  1.8549  2.4716 -1.5386
   46bbb     H2 1308   3.051   9.104   9.261 -0.3536  0.1965 -1.2220
   46bbb     C2 1309   3.329   8.910   9.199 -0.0211 -0.6717 -0.2216
   46bbb     H3 1310   3.307   8.848   9.286 -0.1383  0.2981  0.4539
   46bbb     H4 1311   3.435   8.937   9.203  0.4140 -2.4860  2.1436
   46bbb     C3 1312   3.270   9.147   9.110  0.1347 -0.0756 -0.2269
   46bbb     H5 1313   3.205   9.232   9.132 -0.8052 -0.2562 -2.0505
   46bbb     H6 1314   3.248   9.109   9.009 -1.0978  0.3719 -0.1424
   46bbb     C4 1315   3.412   9.200   9.121 -0.1149 -0.1953  0.0899
   46bbb     H7 1316   3.484   9.119   9.102  0.7184  0.5269  0.1294
   46bbb     H8 1317   3.432   9.242   9.220 -2.2460 -2.0025  1.3972
   46bbb     C5 1318   3.050   8.894   9.297 -0.0492  0.0379 -0.0112
   46bbb     H9 1319   3.086   8.800   9.253 -2.0066 -1.1999  0.8704
   46bbb    H10 1320   2.943   8.876   9.280  0.1627  0.5398 -2.1813
   46bbb     C6 1321   3.327   8.819   9.068  0.3161  0.3351  0.0936
   46bbb    H11 1322   3.228   8.801   9.024  0.8914 -0.5200 -0.8854
   46bbb    H12 1323   3.359   8.721   9.106  3.4044 -0.2549 -3.5272
   46bbb     C7 1324   3.437   9.320   9.021  0.6926  0.3778 -0.5385
   46bbb    H13 1325   3.510   9.392   9.058  0.4599 -0.1472  1.0255
   46bbb    H14 1326   3.343   9.376   9.020 -0.3922 -1.3404 -0.2535
   46bbb     C8 1327   3.433   8.856   8.964 -0.5273 -0.4922  0.2010
   46bbb    H15 1328   3.406   8.954   8.923 -0.5264  0.3028  1.9918
   46bbb    H16 1329   3.430   8.789   8.877 -1.5401 -1.0499  0.6421
   46bbb     C9 1330   3.081   8.888   9.450  0.0755 -0.0549  0.3117
   46bbb    H17 1331   3.188   8.903   9.471 -0.4375  0.7129  2.8632
   46bbb    H18 1332   3.053   8.790   9.492  2.4497 -1.0455 -0.2966
   46bbb     O1 1333   3.459   9.257   8.893  0.4854 -0.2972  0.1913
   47ccc     C3 1334   1.403   7.436   9.291  0.2812 -0.1924  0.0276
   47ccc     H5 1335   1.510   7.450   9.308  0.0298  1.7391  0.2326
   47ccc     H6 1336   1.390   7.331   9.261 -2.1637 -0.0495  0.3320
   47ccc     C2 1337   1.351   7.544   9.185 -0.3014  0.8926 -0.0892
   47ccc     H3 1338   1.389   7.522   9.084 -0.7188  0.8460 -0.2399
   47ccc     H4 1339   1.392   7.643   9.208  0.6900  0.1527  1.4965
   47ccc     C1 1340   1.198   7.561   9.172 -0.5359 -0.0378 -0.2628
   47ccc     H1 1341   1.187   7.620   9.080 -0.8809 -0.3246 -0.4082
   47ccc     H2 1342   1.163   7.625   9.254 -2.6196  0.7291 -1.6719
   47ccc     N1 1343   1.106   7.440   9.163  0.1567 -0.9271  0.2712
   47ccc     C4 1344   0.970   7.502   9.151 -0.0507  0.1280 -0.3941
   47ccc     H7 1345   0.960   7.562   9.060 -3.6015 -0.5609 -0.5923
   47ccc     H8 1346   0.961   7.566   9.239 -1.0270  0.0397 -0.4198
   47ccc     C5 1347   0.854   7.403   9.159 -0.4832 -0.3399 -0.3923
   47ccc     H9 1348   0.872   7.321   9.088  0.4240 -2.1636  1.8121
   47ccc    H10 1349   0.841   7.362   9.260  0.4398 -1.6043 -0.7540
   47ccc     C6 1350   0.732   7.468   9.112 -0.2755  0.1426 -0.9039
   47ccc     O2 1351   0.690   7.578   9.148 -0.1236 -0.2718 -0.2347
   47ccc     O3 1352   0.683   7.438   9.007  0.5236  0.0014  0.4638
   47ccc     C7 1353   1.140   7.351   9.053  0.9760  0.4348  0.4241
   47ccc    H11 1354   1.071   7.350   8.968  1.2825 -0.6578  0.1767
   47ccc    H12 1355   1.241   7.368   9.012  0.8019  0.3411 -0.0546
   47ccc     C8 1356   1.141   7.204   9.106  0.2888 -0.2865 -0.4003
   47ccc    H13 1357   1.205   7.207   9.195 -2.3098 -0.2504  1.5462
   47ccc    H14 1358   1.038   7.187   9.137  0.5205  1.5915  1.6350
   47ccc     C9 1359   1.172   7.099   9.015  0.1117 -0.5600 -0.3801
   47ccc     O4 1360   1.275   7.038   9.032 -0.2603 -0.2034 -0.4641
   47ccc     O5 1361   1.095   7.080   8.922 -0.5353 -0.0271  0.5923
   47ccc     O1 1362   1.327   7.457   9.405  0.0099 -0.2408  0.0587
   48ccc     C3 1363   0.465   7.332   9.479  0.4589  0.6241 -0.1987
   48ccc     H5 1364   0.536   7.346   9.397  0.8694 -0.3511 -0.0264
   48ccc     H6 1365   0.409   7.242   9.451  3.3403 -0.6934 -2.2038
   48ccc     C2 1366   0.381   7.463   9.484  0.1876 -0.0498 -0.9094
   48ccc     H3 1367   0.451   7.547   9.484 -0.2423  0.3309 -1.9723
   48ccc     H4 1368   0.327   7.466   9.579  0.1504 -1.3218 -0.8750
   48ccc     C1 1369   0.286   7.473   9.366  0.6128 -0.6385  0.4109
   48ccc     H1 1370   0.206   7.400   9.380  0.1442 -0.1734  0.1990
   48ccc     H2 1371   0.348   7.449   9.279  2.5497 -0.0714  1.5684
   48ccc     N1 1372   0.212   7.605   9.346 -0.3726  0.1232 -0.1028
   48ccc     C4 1373   0.305   7.714   9.303 -0.2907 -0.1170 -0.4121
   48ccc     H7 1374   0.400   7.712   9.359 -0.5063  0.6603 -0.0106
   48ccc     H8 1375   0.259   7.811   9.322 -1.2411 -0.3904 -1.1950
   48ccc     C5 1376   0.340   7.709   9.155 -0.1732  0.3453 -0.9939
   48ccc     H9 1377   0.368   7.608   9.123 -1.4111 -0.7994  1.3292
   48ccc    H10 1378   0.252   7.741   9.097 -1.3069  1.0893  1.0345
   48ccc     C6 1379   0.458   7.794   9.122 -0.0830 -0.1434  0.0922
   48ccc     O2 1380   0.540   7.846   9.193  0.1815 -0.7603  0.4844
   48ccc     O3 1381   0.481   7.794   9.005 -0.2417  0.5272 -0.0090
   48ccc     C7 1382   0.135   7.641   9.465  0.4276  0.0514 -0.1883
   48ccc    H11 1383   0.090   7.550   9.508 -0.3785  0.8228  0.6433
   48ccc    H12 1384   0.196   7.678   9.548 -0.6112 -0.7424  0.9760
   48ccc     C8 1385   0.024   7.740   9.424 -0.4827 -0.0458 -0.3627
   48ccc    H13 1386   0.046   7.795   9.331 -2.3225 -0.9745 -1.4001
   48ccc    H14 1387  -0.074   7.692   9.417 -0.4258 -0.2216  0.0460
   48ccc     C9 1388   0.011   7.841   9.537  0.0567  0.2977 -0.2065
   48ccc     O4 1389  -0.076   7.815   9.615  0.4861 -0.3976 -0.0106
   48ccc     O5 1390   0.051   7.951   9.546 -0.9963 -0.5371  0.0495
   48ccc     O1 1391   0.539   7.326   9.597 -0.0380  0.1705 -0.1302
   49ccc     C3 1392   0.559   8.486   8.928 -0.5557  0.2908 -0.1494
   49ccc     H5 1393   0.636   8.554   8.890 -0.8644  0.8435  0.1915
   49ccc     H6 1394   0.569   8.383   8.894  0.5863 -0.5774  2.5763
   49ccc     C2 1395   0.416   8.530   8.892  0.1967  0.0525  0.1551
   49ccc     H3 1396   0.402   8.540   8.783  1.3204 -0.5281 -0.0593
   49ccc     H4 1397   0.397   8.634   8.922 -1.1526  0.3294 -1.4744
   49ccc     C1 1398   0.299   8.445   8.957 -0.0346  0.2359 -0.5287
   49ccc     H1 1399   0.201   8.480   8.924 -1.1722  0.1262  2.4900
   49ccc     H2 1400   0.299   8.465   9.064 -2.9872  1.1078 -0.6057
   49ccc     N1 1401   0.312   8.295   8.937 -0.0575 -0.6616  0.2633
   49ccc     C4 1402   0.229   8.207   9.033  0.0330  0.1388  0.5940
   49ccc     H7 1403   0.232   8.102   9.002 -1.9879  0.3282 -0.4243
   49ccc     H8 1404   0.121   8.229   9.027  0.2764  0.9520 -1.9215
   49ccc     C5 1405   0.274   8.235   9.173 -0.0481 -0.2825 -0.0534
   49ccc     H9 1406   0.379   8.262   9.184  0.1500  0.4808 -2.9809
   49ccc    H10 1407   0.216   8.318   9.215 -0.5146  0.5398 -2.2086
   49ccc     C6 1408   0.241   8.123   9.270 -0.0151  0.4720  0.3423
   49ccc     O2 1409   0.336   8.055   9.310 -0.2957 -1.1143 -0.2777
   49ccc     O3 1410   0.132   8.118   9.319  0.7881  0.0928 -0.4082
   49ccc     C7 1411   0.289   8.263   8.791 -0.2439  0.3429 -0.0759
   49ccc    H11 1412   0.183   8.277   8.766  0.3989  4.0323 -1.4129
   49ccc    H12 1413   0.347   8.332   8.728  2.2454  0.0534  1.7523
   49ccc     C8 1414   0.327   8.125   8.748  0.2181  1.1387 -0.4210
   49ccc    H13 1415   0.276   8.052   8.812  0.5370  0.2029 -1.1972
   49ccc    H14 1416   0.301   8.107   8.643  1.2707 -1.1231 -0.3527
   49ccc     C9 1417   0.477   8.105   8.748  0.2759 -0.1289  0.1274
   49ccc     O4 1418   0.517   8.012   8.815  0.1680 -0.6042  0.1034
   49ccc     O5 1419   0.539   8.118   8.645 -0.0097  0.3471 -0.1970
   49ccc     O1 1420   0.576   8.484   9.072  0.2496 -0.3531  0.1829
   50ccc     C3 1421   0.681   8.311   9.782 -0.1415 -0.1420  1.0776
   50ccc     H5 1422   0.735   8.357   9.866  1.2128  0.2998 -0.0070
   50ccc     H6 1423   0.605   8.380   9.744 -0.7516 -0.1223  2.2737
   50ccc     C2 1424   0.623   8.175   9.827  0.6654 -0.1672  0.5443
   50ccc     H3 1425   0.708   8.106   9.841  0.0504 -1.0059  0.2501
   50ccc     H4 1426   0.574   8.128   9.741  4.8196  0.9636 -2.7545
   50ccc     C1 1427   0.536   8.199   9.956  0.6943 -0.5900  1.1830
   50ccc     H1 1428   0.595   8.264  10.021 -1.5556  1.4248  1.3211
   50ccc     H2 1429   0.520   8.098   9.997 -1.4224 -1.4461 -1.4155
   50ccc     N1 1430   0.405   8.275   9.931 -0.1992 -0.1418  0.0087
   50ccc     C4 1431   0.310   8.198   9.844  0.0082  0.2806  0.3998
   50ccc     H7 1432   0.261   8.110   9.888 -0.3550 -0.7323 -1.8805
   50ccc     H8 1433   0.364   8.161   9.755 -2.0971 -1.8262 -0.1153
   50ccc     C5 1434   0.197   8.297   9.797 -0.4155 -0.2498  0.1483
   50ccc     H9 1435   0.128   8.312   9.881  0.6591  3.4968  0.5748
   50ccc    H10 1436   0.229   8.395   9.758 -0.0743 -0.5574 -0.3617
   50ccc     C6 1437   0.124   8.228   9.685 -0.8122  0.5967  0.6162
   50ccc     O2 1438   0.009   8.195   9.697 -0.2567 -0.2487  0.5177
   50ccc     O3 1439   0.183   8.188   9.582 -0.0995 -0.2247 -0.0563
   50ccc     C7 1440   0.337   8.320  10.058 -0.8392  0.8382  0.2294
   50ccc    H11 1441   0.406   8.384  10.116  0.1346 -0.9522  1.1269
   50ccc    H12 1442   0.251   8.385  10.039 -0.6271  1.0516 -0.0105
   50ccc     C8 1443   0.313   8.198  10.150 -0.2584  0.1681 -0.1172
   50ccc    H13 1444   0.322   8.101  10.100 -0.4043  0.4391 -0.6655
   50ccc    H14 1445   0.381   8.202  10.236 -0.6684 -1.0658  0.2957
   50ccc     C9 1446   0.180   8.210  10.207 -0.8006  0.0806 -0.0467
   50ccc     O4 1447   0.087   8.144  10.168  0.2260 -0.5331 -0.5001
   50ccc     O5 1448   0.160   8.278  10.307 -0.3184  0.2635  0.0193
   50ccc     O1 1449   0.770   8.296   9.676 -0.2523 -0.1104 -0.0967
   51ccc     C3 1450   1.317   7.934   8.749  0.7940 -0.4171  0.4585
   51ccc     H5 1451   1.252   7.981   8.824  0.0400  0.3285 -0.6319
   51ccc     H6 1452   1.350   7.999   8.667 -0.9928 -1.9850 -1.6156
   51ccc     C2 1453   1.241   7.814   8.687  0.0999  0.3852  0.4191
   51ccc     H3 1454   1.302   7.775   8.605 -2.8218 -1.2828 -1.1137
   51ccc     H4 1455   1.146   7.847   8.644 -0.3964 -0.6563  0.6881
   51ccc     C1 1456   1.212   7.696   8.785 -0.3892  0.3786 -0.6190
   51ccc     H1 1457   1.215   7.740   8.885 -1.2381  2.3161 -1.4072
   51ccc     H2 1458   1.292   7.621   8.781 -0.7758 -0.0180 -1.2006
   51ccc     N1 1459   1.087   7.611   8.777  0.1875  0.4564 -0.0210
   51ccc     C4 1460   0.958   7.689   8.787 -0.4191  0.1396  0.0441
   51ccc     H7 1461   0.887   7.611   8.814  0.1996 -0.8318 -1.0590
   51ccc     H8 1462   0.925   7.739   8.694 -0.5699 -0.3039 -0.1402
   51ccc     C5 1463   0.959   7.795   8.896  0.0979  0.7868 -0.5093
   51ccc     H9 1464   0.990   7.749   8.991  0.8708  1.9221 -0.1965
   51ccc    H10 1465   1.014   7.884   8.863 -1.4615  1.3869 -1.6346
   51ccc     C6 1466   0.829   7.855   8.916 -0.8553  0.1517 -0.3425
   51ccc     O2 1467   0.804   7.962   8.867  0.1798 -0.3677  0.3392
   51ccc     O3 1468   0.747   7.807   8.994 -0.0875 -0.0212 -0.1596
   51ccc     C7 1469   1.089   7.530   8.661  0.7158 -0.5042  0.3572
   51ccc    H11 1470   0.988   7.487   8.667  0.8844 -0.7247  1.7802
   51ccc    H12 1471   1.098   7.593   8.571 -1.4959  1.8256  1.6420
   51ccc     C8 1472   1.195   7.423   8.654  0.0832  0.7463  0.1542
   51ccc    H13 1473   1.297   7.458   8.634  0.4866  0.5532  1.7378
   51ccc    H14 1474   1.188   7.372   8.750 -1.2504 -0.2699 -0.4544
   51ccc     C9 1475   1.151   7.318   8.558  0.4225 -0.1803 -0.7157
   51ccc     O4 1476   1.222   7.302   8.462 -0.1324  0.1468  0.3077
   51ccc     O5 1477   1.069   7.237   8.591 -0.4868  0.0013 -0.3225
   51ccc     O1 1478   1.437   7.874   8.808 -0.0730 -0.0808 -0.2036
   52ccc     C3 1479   1.868   7.245   8.796 -0.3946 -0.1452 -0.2531
   52ccc     H5 1480   1.977   7.239   8.788 -0.5222 -1.3512 -1.4278
   52ccc     H6 1481   1.838   7.198   8.890  1.4792 -0.0314  0.4463
   52ccc     C2 1482   1.811   7.157   8.679 -0.2425 -0.6312 -0.3175
   52ccc     H3 1483   1.709   7.134   8.712  0.1108  1.0167  2.2220
   52ccc     H4 1484   1.864   7.060   8.682 -2.6701 -2.0294  0.3152
   52ccc     C1 1485   1.825   7.217   8.538  0.7372 -0.5125 -0.4848
   52ccc     H1 1486   1.922   7.269   8.538  1.0779 -1.1333 -0.1375
   52ccc     H2 1487   1.740   7.285   8.526  1.6305  0.6389 -0.5897
   52ccc     N1 1488   1.819   7.124   8.420  0.3704  0.2249  0.3256
   52ccc     C4 1489   1.930   7.025   8.406 -1.4485 -0.6572 -0.1315
   52ccc     H7 1490   1.918   6.952   8.487 -1.4181 -1.0716 -0.4959
   52ccc     H8 1491   2.024   7.079   8.421 -2.2380  0.4896  0.8481
   52ccc     C5 1492   1.934   6.961   8.269 -0.2826 -0.2927 -0.3820
   52ccc     H9 1493   1.854   6.892   8.239  0.4934 -0.0406 -3.3453
   52ccc    H10 1494   1.920   7.040   8.195 -3.3617 -1.0020 -0.7244
   52ccc     C6 1495   2.056   6.884   8.243  0.1669  0.1523  0.0363
   52ccc     O2 1496   2.059   6.839   8.130 -0.4643  0.6477 -0.5884
   52ccc     O3 1497   2.093   6.811   8.334  0.2030  0.0763 -0.0082
   52ccc     C7 1498   1.680   7.081   8.378 -0.9295 -0.6178 -0.7700
   52ccc    H11 1499   1.603   7.158   8.384  0.0100  0.3074 -0.1792
   52ccc    H12 1500   1.689   7.056   8.272 -0.5406  3.1793 -1.7822
   52ccc     C8 1501   1.640   6.957   8.452 -0.3957  0.2323  0.0277
   52ccc    H13 1502   1.702   6.874   8.416 -0.5290  0.9406 -1.9364
   52ccc    H14 1503   1.634   6.977   8.560 -1.7037  0.4988 -0.0778
   52ccc     C9 1504   1.508   6.919   8.395 -0.0983 -0.5410 -0.6990
   52ccc     O4 1505   1.500   6.821   8.321  0.2902 -0.3626  0.0562
   52ccc     O5 1506   1.411   6.982   8.426 -0.2009  0.0693  0.1139
   52ccc     O1 1507   1.810   7.373   8.796  0.4484 -0.3441  0.0268
   53ccc     C3 1508   1.125   7.790   8.251  0.1069  0.4955 -0.4114
   53ccc     H5 1509   1.116   7.897   8.227 -0.8405  0.2783 -1.0814
   53ccc     H6 1510   1.126   7.740   8.153 -0.7063 -0.1670 -0.0849
   53ccc     C2 1511   1.010   7.753   8.344  0.2897 -0.7072 -0.2308
   53ccc     H3 1512   0.998   7.823   8.427 -1.5987 -1.8642  0.5324
   53ccc     H4 1513   1.036   7.660   8.395  2.1763  0.6722  1.5076
   53ccc     C1 1514   0.873   7.734   8.269  0.2704  0.6285  0.3186
   53ccc     H1 1515   0.898   7.697   8.169 -2.5854  0.3148 -0.3621
   53ccc     H2 1516   0.833   7.836   8.256 -1.0505 -0.1578 -2.5774
   53ccc     N1 1517   0.778   7.649   8.330  0.3166 -0.0648 -0.0111
   53ccc     C4 1518   0.813   7.503   8.322  0.4604 -0.2166  0.7738
   53ccc     H7 1519   0.720   7.449   8.342 -0.3580  1.0949  0.6394
   53ccc     H8 1520   0.888   7.480   8.398  1.3857 -1.0040 -0.3361
   53ccc     C5 1521   0.874   7.465   8.189  0.1558 -0.3490 -0.0760
   53ccc     H9 1522   0.822   7.512   8.105 -0.3450 -0.3921  0.2091
   53ccc    H10 1523   0.976   7.503   8.202 -0.5496  1.3902  0.7476
   53ccc     C6 1524   0.881   7.319   8.179 -0.8087 -0.7116 -0.8166
   53ccc     O2 1525   0.779   7.258   8.165 -0.3191 -0.4363  0.0863
   53ccc     O3 1526   0.989   7.262   8.187 -0.2793 -0.3275  0.0891
   53ccc     C7 1527   0.739   7.702   8.461 -0.3897 -0.3173  0.1624
   53ccc    H11 1528   0.826   7.727   8.524 -1.1875  1.3155  0.6945
   53ccc    H12 1529   0.686   7.797   8.444  1.7405  0.9752  0.3249
   53ccc     C8 1530   0.649   7.614   8.539 -0.3946 -0.4761  0.0428
   53ccc    H13 1531   0.556   7.598   8.484  0.9887  0.2855 -2.7127
   53ccc    H14 1532   0.697   7.520   8.568  1.8226  1.0092  1.5588
   53ccc     C9 1533   0.608   7.692   8.661  0.9084 -0.2115  0.0776
   53ccc     O4 1534   0.595   7.635   8.766 -0.1321 -0.1567 -0.4836
   53ccc     O5 1535   0.601   7.813   8.662  0.3130  0.1097 -0.4301
   53ccc     O1 1536   1.250   7.757   8.316  0.0076 -0.5426  0.5048
   54ccc     C3 1537   1.886   7.412   8.195  0.0566 -0.0142 -0.4243
   54ccc     H5 1538   1.919   7.495   8.130 -0.2949 -0.3880 -1.0972
   54ccc     H6 1539   1.962   7.333   8.188  0.7874  0.7109 -0.8149
   54ccc     C2 1540   1.750   7.359   8.145 -0.0641  0.5505  0.0709
   54ccc     H3 1541   1.666   7.426   8.122 -0.5116 -0.3116 -0.9216
   54ccc     H4 1542   1.719   7.294   8.227 -0.1491 -0.8067 -1.0024
   54ccc     C1 1543   1.756   7.256   8.025 -0.1133 -0.2789 -0.1455
   54ccc     H1 1544   1.793   7.156   8.050  0.4526 -0.8654 -2.9967
   54ccc     H2 1545   1.816   7.302   7.945 -0.9422 -0.2272 -0.7491
   54ccc     N1 1546   1.622   7.230   7.970 -0.3450 -0.4100  0.2404
   54ccc     C4 1547   1.547   7.140   8.052 -0.4824  0.4279 -1.0710
   54ccc     H7 1548   1.548   7.170   8.157  0.0163  0.2175 -1.0138
   54ccc     H8 1549   1.592   7.039   8.052 -2.3378 -0.5657  2.4827
   54ccc     C5 1550   1.403   7.135   8.012  0.0818  0.4314 -0.3702
   54ccc     H9 1551   1.372   7.240   8.010 -0.9395  0.4025  4.3399
   54ccc    H10 1552   1.381   7.096   7.912 -2.0464  0.6723 -0.0359
   54ccc     C6 1553   1.320   7.068   8.120  0.7855 -1.0954  0.6405
   54ccc     O2 1554   1.293   6.956   8.124  0.2216  0.5331  0.2996
   54ccc     O3 1555   1.300   7.138   8.218  0.3815 -0.2735 -0.4275
   54ccc     C7 1556   1.645   7.193   7.826  0.6542 -0.0424  0.2365
   54ccc    H11 1557   1.546   7.213   7.783  1.2966  0.6814 -0.9677
   54ccc    H12 1558   1.705   7.274   7.782 -1.5736  0.8296 -1.3944
   54ccc     C8 1559   1.683   7.054   7.783 -0.4093 -0.3722  0.4002
   54ccc    H13 1560   1.618   6.984   7.837 -3.1303  0.9652 -0.9373
   54ccc    H14 1561   1.664   7.046   7.676  0.6440 -0.9535  0.2526
   54ccc     C9 1562   1.828   7.048   7.805 -0.1426  0.0167  0.4709
   54ccc     O4 1563   1.870   6.951   7.859 -0.7160 -1.2527  0.3127
   54ccc     O5 1564   1.902   7.123   7.739 -0.6479  0.2707  0.2843
   54ccc     O1 1565   1.867   7.444   8.332 -0.1138  0.1320 -0.1357
   55ccc     C3 1566   2.868   8.954   8.104  0.8912  0.1845 -0.2017
   55ccc     H5 1567   2.896   9.058   8.081 -1.7969  0.6239 -1.9829
   55ccc     H6 1568   2.969   8.919   8.129  1.3313  1.2426 -0.4327
   55ccc     C2 1569   2.801   8.887   7.979  0.4243 -0.2263  0.0319
   55ccc     H3 1570   2.861   8.905   7.889  1.9880 -0.6198  0.9566
   55ccc     H4 1571   2.708   8.937   7.950  1.2540  3.0001  2.4041
   55ccc     C1 1572   2.770   8.734   8.007 -0.8598  0.2681  0.7278
   55ccc     H1 1573   2.855   8.685   8.056  0.4135 -0.4065 -1.9791
   55ccc     H2 1574   2.770   8.685   7.909  0.2598  0.5083  0.5900
   55ccc     N1 1575   2.646   8.697   8.072 -0.4741 -0.1814  0.0399
   55ccc     C4 1576   2.629   8.550   8.110 -0.7926  0.0636 -0.1924
   55ccc     H7 1577   2.727   8.511   8.139 -1.2979 -0.5838  0.6970
   55ccc     H8 1578   2.599   8.503   8.016  0.2788  1.1355 -1.1113
   55ccc     C5 1579   2.524   8.532   8.218  0.0738  0.0461  0.2291
   55ccc     H9 1580   2.573   8.532   8.316 -1.2036 -0.2364  0.8836
   55ccc    H10 1581   2.442   8.605   8.221  1.8871  2.1678  0.6532
   55ccc     C6 1582   2.463   8.392   8.194 -0.3111 -0.2064 -0.0359
   55ccc     O2 1583   2.370   8.376   8.113 -0.4410 -0.2500 -0.2602
   55ccc     O3 1584   2.515   8.292   8.236  0.3054  0.2441 -0.7383
   55ccc     C7 1585   2.522   8.758   8.014  0.3035  0.5665 -0.1961
   55ccc    H11 1586   2.430   8.731   8.067  0.9665 -0.2303  0.5842
   55ccc    H12 1587   2.513   8.863   8.044 -2.5025 -0.4789  3.3682
   55ccc     C8 1588   2.497   8.741   7.868  0.0627 -0.2689 -0.6536
   55ccc    H13 1589   2.416   8.811   7.842  0.8539 -0.4017 -3.8447
   55ccc    H14 1590   2.586   8.768   7.811  0.2117  0.8162  0.0602
   55ccc     C9 1591   2.445   8.603   7.833 -0.1625 -0.6647 -0.3340
   55ccc     O4 1592   2.323   8.577   7.832 -0.9041  0.2869 -0.3984
   55ccc     O5 1593   2.520   8.537   7.766  0.0333 -0.1318 -0.3097
   55ccc     O1 1594   2.785   8.927   8.221 -0.1188 -0.2148 -0.0689
   56ccc     C3 1595   3.070   9.585   8.281  0.4100  0.1140 -0.3363
   56ccc     H5 1596   3.161   9.564   8.222  2.6942  1.5061  2.4783
   56ccc     H6 1597   2.993   9.617   8.209  0.3119  1.8723  0.5134
   56ccc     C2 1598   3.097   9.703   8.369  0.4841 -0.6999 -0.0521
   56ccc     H3 1599   3.019   9.712   8.446  2.2280 -1.7785  1.9299
   56ccc     H4 1600   3.094   9.788   8.299 -0.6444 -1.3180 -0.7928
   56ccc     C1 1601   3.239   9.694   8.423 -0.2285  0.0036 -0.3829
   56ccc     H1 1602   3.313   9.654   8.353  1.9837  2.1406  0.6043
   56ccc     H2 1603   3.236   9.625   8.509 -0.5903  2.3348  1.6001
   56ccc     N1 1604   3.281   9.822   8.482 -1.0266  0.3377  0.8837
   56ccc     C4 1605   3.186   9.891   8.573 -0.3215 -0.1262 -0.6381
   56ccc     H7 1606   3.182   9.833   8.666  0.4039  1.5958  0.5130
   56ccc     H8 1607   3.081   9.890   8.540 -1.7482 -2.3848  3.2205
   56ccc     C5 1608   3.223  10.035   8.613 -0.5632  0.1038  0.2960
   56ccc     H9 1609   3.326  10.051   8.646 -0.1101  1.3881 -1.5784
   56ccc    H10 1610   3.215  10.096   8.522 -0.4707 -0.0375  0.1933
   56ccc     C6 1611   3.137  10.100   8.712  0.0658 -0.6073 -1.0152
   56ccc     O2 1612   3.016  10.100   8.699  0.6065 -0.3443 -0.7404
   56ccc     O3 1613   3.169  10.097   8.834  0.6285 -0.5048  0.8559
   56ccc     C7 1614   3.417   9.802   8.528  0.0695  0.1067 -1.0779
   56ccc    H11 1615   3.484   9.756   8.455  1.0120  0.5353 -0.4975
   56ccc    H12 1616   3.465   9.893   8.566  2.8991 -2.0846  1.0722
   56ccc     C8 1617   3.424   9.707   8.655  0.0341 -0.2045 -0.7722
   56ccc    H13 1618   3.358   9.735   8.739  2.8823  2.0094  0.9292
   56ccc    H14 1619   3.405   9.601   8.632 -2.0492 -0.2087  0.6683
   56ccc     C9 1620   3.569   9.705   8.705  0.5021  0.6678  0.2230
   56ccc     O4 1621   3.656   9.633   8.660  0.3445 -0.1895 -0.2162
   56ccc     O5 1622   3.592   9.762   8.807  0.5031 -0.5162 -0.2060
   56ccc     O1 1623   3.040   9.466   8.366 -0.1421 -0.6036  0.2209
   57ccc     C3 1624   2.409   8.551   8.575 -0.6180  0.2261  0.1914
   57ccc     H5 1625   2.408   8.620   8.489  3.5289 -1.3068 -1.3951
   57ccc     H6 1626   2.504   8.494   8.573 -0.3421  0.6715 -2.1016
   57ccc     C2 1627   2.301   8.452   8.554 -0.4312  0.6479 -0.4396
   57ccc     H3 1628   2.296   8.384   8.640 -2.3460  0.2043 -0.8636
   57ccc     H4 1629   2.341   8.391   8.472  0.8285  2.1757 -1.0221
   57ccc     C1 1630   2.164   8.516   8.531 -0.5337 -0.6323  0.1390
   57ccc     H1 1631   2.179   8.569   8.436  2.9461 -0.0830  0.8480
   57ccc     H2 1632   2.151   8.598   8.604 -0.8567  0.3000 -0.9390
   57ccc     N1 1633   2.052   8.426   8.544 -0.5997  0.3523  0.2184
   57ccc     C4 1634   1.930   8.502   8.513 -0.3772  0.5944 -0.3812
   57ccc     H7 1635   1.859   8.429   8.473 -0.6944  0.7156 -0.0365
   57ccc     H8 1636   1.938   8.588   8.446 -2.9325  0.6884 -0.6387
   57ccc     C5 1637   1.867   8.554   8.645 -0.6008 -0.5608  0.3908
   57ccc     H9 1638   1.825   8.465   8.693  0.5620 -0.4277  1.7196
   57ccc    H10 1639   1.942   8.600   8.711  1.6096 -2.2096 -0.8402
   57ccc     C6 1640   1.761   8.656   8.617 -0.1651 -0.3129  0.6445
   57ccc     O2 1641   1.762   8.768   8.662 -0.2167  0.3128  0.0075
   57ccc     O3 1642   1.653   8.617   8.569  0.4086  0.1996 -0.2519
   57ccc     C7 1643   2.080   8.303   8.466  0.4058 -0.0479 -0.7649
   57ccc    H11 1644   2.173   8.250   8.488 -0.5372 -1.3726  0.1603
   57ccc    H12 1645   2.000   8.234   8.494 -0.5265  1.0996 -0.4769
   57ccc     C8 1646   2.087   8.321   8.311 -0.6826 -0.1137 -0.0539
   57ccc    H13 1647   2.015   8.393   8.269  2.4087  1.2005 -3.6322
   57ccc    H14 1648   2.183   8.366   8.282  0.7355 -1.3007  2.4398
   57ccc     C9 1649   2.074   8.193   8.236  0.8930 -0.1323 -0.5704
   57ccc     O4 1650   1.978   8.179   8.165  0.5871  0.4694  0.3901
   57ccc     O5 1651   2.164   8.112   8.224  0.2162 -0.6784  0.5566
   57ccc     O1 1652   2.380   8.617   8.698 -0.0534 -0.3657  0.6874
   58ccc     C3 1653   2.419   9.460   8.918  0.4394  0.8453 -0.4226
   58ccc     H5 1654   2.445   9.435   8.814 -0.1799  1.5860 -0.7715
   58ccc     H6 1655   2.360   9.553   8.926  2.6485  2.2328  0.8490
   58ccc     C2 1656   2.548   9.480   8.999 -0.3309  0.8299 -1.5415
   58ccc     H3 1657   2.619   9.522   8.926 -0.8485  2.2572 -1.2329
   58ccc     H4 1658   2.585   9.382   9.033 -0.0107  1.3046 -0.5132
   58ccc     C1 1659   2.529   9.583   9.110  0.5167  0.6458  0.0384
   58ccc     H1 1660   2.622   9.574   9.168 -1.0767 -1.9857  2.5101
   58ccc     H2 1661   2.441   9.544   9.162 -1.1965  1.6339 -1.9760
   58ccc     N1 1662   2.488   9.724   9.073 -0.0761 -0.6198 -0.4898
   58ccc     C4 1663   2.608   9.792   9.015  0.6726  1.0654 -0.5603
   58ccc     H7 1664   2.667   9.725   8.951 -0.4826  0.7515 -1.3278
   58ccc     H8 1665   2.675   9.816   9.099 -0.5076 -0.3529  0.8407
   58ccc     C5 1666   2.581   9.925   8.956  1.6480 -0.8744  0.1537
   58ccc     H9 1667   2.498   9.913   8.886  2.2064  0.2854 -0.7565
   58ccc    H10 1668   2.552   9.999   9.031  0.0520 -1.6471  0.3364
   58ccc     C6 1669   2.693   9.979   8.871  0.2081 -0.1118 -0.1310
   58ccc     O2 1670   2.681   9.995   8.748  0.5186  0.1122  0.1918
   58ccc     O3 1671   2.794  10.017   8.928 -0.0545 -1.0560  0.1462
   58ccc     C7 1672   2.427   9.799   9.188 -0.1334  0.9290 -0.3713
   58ccc    H11 1673   2.419   9.905   9.160 -0.1621  1.2379  0.7651
   58ccc    H12 1674   2.326   9.760   9.200  0.0528  0.2101 -1.0591
   58ccc     C8 1675   2.503   9.772   9.316  0.0199 -0.0955  0.1302
   58ccc    H13 1676   2.503   9.667   9.345  0.5034 -0.5296 -1.3275
   58ccc    H14 1677   2.605   9.811   9.302 -0.5841  1.6475  0.2649
   58ccc     C9 1678   2.455   9.848   9.438  0.3316  0.6290 -0.5760
   58ccc     O4 1679   2.464   9.970   9.442  0.1332  0.3455 -0.1008
   58ccc     O5 1680   2.405   9.794   9.536  0.0185 -0.1725 -0.3297
   58ccc     O1 1681   2.334   9.346   8.963  0.2454 -0.6393 -0.4852
   59ccc     C3 1682   2.839   6.971   7.995  0.3518  0.4157  0.7702
   59ccc     H5 1683   2.873   6.879   8.044  0.3573  0.3830  0.7053
   59ccc     H6 1684   2.750   7.011   8.045 -0.2934 -1.4035  1.1632
   59ccc     C2 1685   2.813   6.934   7.845 -0.0413  0.0832 -0.6025
   59ccc     H3 1686   2.912   6.901   7.811  0.2004 -1.8394  1.6704
   59ccc     H4 1687   2.784   7.024   7.790 -0.5464  0.6008  0.4710
   59ccc     C1 1688   2.703   6.825   7.829  0.8179 -0.4596  0.2170
   59ccc     H1 1689   2.734   6.734   7.882 -1.6099 -1.4346  0.0864
   59ccc     H2 1690   2.682   6.797   7.726 -1.6873 -1.0321  0.8152
   59ccc     N1 1691   2.576   6.865   7.904  0.0546  0.1385  0.1837
   59ccc     C4 1692   2.462   6.873   7.815 -0.2448  0.9368  0.2273
   59ccc     H7 1693   2.409   6.777   7.811  1.3218  0.0177 -3.2776
   59ccc     H8 1694   2.499   6.874   7.711 -0.9282  1.4765 -0.0212
   59ccc     C5 1695   2.372   6.989   7.834 -0.0830 -0.2778 -0.2675
   59ccc     H9 1696   2.354   7.010   7.940 -0.9837  1.1143 -0.6691
   59ccc    H10 1697   2.434   7.072   7.797 -0.6771  1.5527  2.5886
   59ccc     C6 1698   2.238   6.980   7.761 -0.8755 -0.2808  0.4977
   59ccc     O2 1699   2.162   6.888   7.788  0.1172  0.3353  0.2217
   59ccc     O3 1700   2.188   7.074   7.709  0.3022  0.1572 -0.0812
   59ccc     C7 1701   2.544   6.787   8.022  0.1079 -0.1256 -0.4065
   59ccc    H11 1702   2.530   6.689   7.975 -0.2380  0.5048 -1.6835
   59ccc    H12 1703   2.627   6.793   8.094  0.6745  4.0744 -1.1222
   59ccc     C8 1704   2.420   6.813   8.107 -0.0118  0.4005  0.3944
   59ccc    H13 1705   2.416   6.921   8.124  0.5912  0.6213 -0.8195
   59ccc    H14 1706   2.331   6.779   8.052  1.2556 -2.4984 -0.0577
   59ccc     C9 1707   2.423   6.738   8.244 -0.1593  0.6995 -0.0469
   59ccc     O4 1708   2.327   6.673   8.279 -0.1203 -0.0685 -0.2854
   59ccc     O5 1709   2.522   6.746   8.319  0.1671  0.2705 -0.1561
   59ccc     O1 1710   2.944   7.067   7.999 -0.1513 -0.2431 -0.0830
   60ccc     C3 1711   2.754   7.737   8.005  0.9904 -0.2527 -0.4410
   60ccc     H5 1712   2.678   7.689   7.942 -0.3263 -1.1296  1.7059
   60ccc     H6 1713   2.738   7.692   8.104  0.5386 -2.2331 -1.3679
   60ccc     C2 1714   2.727   7.893   8.006 -0.0082 -0.4788 -0.3936
   60ccc     H3 1715   2.779   7.939   8.091  0.3441 -0.7174 -0.4746
   60ccc     H4 1716   2.620   7.903   8.027  0.3424 -0.1727  1.4140
   60ccc     C1 1717   2.758   7.970   7.866 -0.5417  0.3266 -0.0630
   60ccc     H1 1718   2.688   7.927   7.793  1.4380  1.2611 -2.6727
   60ccc     H2 1719   2.859   7.946   7.830 -0.4754  0.1288  0.2546
   60ccc     N1 1720   2.736   8.117   7.878  0.1486  0.3279  0.3279
   60ccc     C4 1721   2.778   8.181   7.755 -0.5176  0.4333  0.1561
   60ccc     H7 1722   2.711   8.188   7.668  1.0385  0.9781 -1.0414
   60ccc     H8 1723   2.863   8.124   7.715 -0.5423  0.5038  0.0041
   60ccc     C5 1724   2.829   8.318   7.799  0.3256  0.1896 -0.5645
   60ccc     H9 1725   2.744   8.380   7.831 -1.3699 -1.9405 -0.6372
   60ccc    H10 1726   2.899   8.312   7.882 -1.0131 -3.7193  0.5212
   60ccc     C6 1727   2.890   8.385   7.679  0.4718  0.1779 -0.7730
   60ccc     O2 1728   2.824   8.449   7.600  0.1595  0.0741  0.3653
   60ccc     O3 1729   3.015   8.384   7.666  0.0483 -0.3028  0.3053
   60ccc     C7 1730   2.608   8.163   7.930  0.1460  0.0626 -0.2166
   60ccc    H11 1731   2.589   8.129   8.033 -1.0065  0.8999 -0.1370
   60ccc    H12 1732   2.600   8.272   7.938  1.3290  0.0587  2.0071
   60ccc     C8 1733   2.492   8.135   7.835 -0.0030 -0.6287  0.4335
   60ccc    H13 1734   2.512   8.166   7.731 -0.7876  1.3937  0.8400
   60ccc    H14 1735   2.460   8.031   7.829 -3.1180  0.2849 -1.0905
   60ccc     C9 1736   2.365   8.198   7.875  0.1918 -0.1656  0.8273
   60ccc     O4 1737   2.302   8.143   7.962 -0.5455  0.4379  0.0285
   60ccc     O5 1738   2.316   8.294   7.815  0.4886  0.4664  0.1307
   60ccc     O1 1739   2.886   7.720   7.953  0.1462  0.2943  0.5427
   61ccc     C3 1740   3.116   7.613   7.662  0.0645  0.2379  0.0035
   61ccc     H5 1741   3.091   7.671   7.752  0.0151  0.5868 -0.2355
   61ccc     H6 1742   3.214   7.564   7.672 -1.2093 -2.0849  2.3238
   61ccc     C2 1743   3.112   7.698   7.534 -0.1567 -0.0790  0.7628
   61ccc     H3 1744   3.162   7.634   7.460  0.6768 -0.4862  1.6634
   61ccc     H4 1745   3.176   7.786   7.547 -1.4585  0.9259  0.5368
   61ccc     C1 1746   2.973   7.738   7.489 -0.4727  0.2771  0.3198
   61ccc     H1 1747   2.922   7.803   7.561  1.3594  1.1032  0.9226
   61ccc     H2 1748   2.913   7.646   7.480  0.6739 -0.2990 -2.9472
   61ccc     N1 1749   2.962   7.809   7.354  0.3169 -0.0476  0.0169
   61ccc     C4 1750   3.018   7.741   7.234  0.0429 -0.5571 -0.3768
   61ccc     H7 1751   3.126   7.725   7.234  0.0979 -0.1965 -0.5985
   61ccc     H8 1752   2.995   7.810   7.152  0.6463  0.9141  0.6595
   61ccc     C5 1753   2.940   7.611   7.208 -0.4111  1.0454 -0.3551
   61ccc     H9 1754   2.977   7.542   7.285  1.1107  0.7002 -1.3413
   61ccc    H10 1755   2.832   7.621   7.219 -0.3491  0.8102  0.5474
   61ccc     C6 1756   2.980   7.552   7.072 -0.5819 -0.6523 -0.1551
   61ccc     O2 1757   2.952   7.437   7.044 -0.3568  0.7116  0.0054
   61ccc     O3 1758   3.051   7.607   6.990  0.0312 -0.5843  0.2251
   61ccc     C7 1759   2.996   7.945   7.343  0.9301 -0.3290  0.3705
   61ccc    H11 1760   3.102   7.971   7.334  0.1857  3.6053  0.8790
   61ccc    H12 1761   2.949   7.990   7.254  2.0304  0.7133  0.2824
   61ccc     C8 1762   2.940   8.033   7.459 -0.7134  0.0425 -0.3648
   61ccc    H13 1763   2.831   8.028   7.448 -0.7612 -0.0855  0.1633
   61ccc    H14 1764   2.975   8.002   7.558 -1.1556  0.9627  0.0898
   61ccc     C9 1765   2.984   8.176   7.431  0.7782 -0.3053  0.0199
   61ccc     O4 1766   3.100   8.205   7.446  0.2947 -0.1192  0.6207
   61ccc     O5 1767   2.923   8.261   7.364 -0.1446  0.1293 -0.1256
   61ccc     O1 1768   3.020   7.505   7.656  0.2378 -0.0842  0.5331
   62ccc     C3 1769   2.628   7.689   7.458 -0.0234  0.1383  0.1248
   62ccc     H5 1770   2.705   7.721   7.529 -0.1553  0.0209  0.3234
   62ccc     H6 1771   2.657   7.609   7.389  0.0112 -0.6941  1.0703
   62ccc     C2 1772   2.602   7.809   7.366 -0.2368 -0.2305  0.2751
   62ccc     H3 1773   2.529   7.782   7.288 -0.2533  2.5225 -0.7826
   62ccc     H4 1774   2.695   7.837   7.314 -0.9314 -1.1619 -1.5831
   62ccc     C1 1775   2.548   7.936   7.447 -0.1341  0.1691  0.4089
   62ccc     H1 1776   2.630   7.975   7.509  2.6615  1.1520 -3.4303
   62ccc     H2 1777   2.469   7.905   7.515 -0.0260  0.8726  0.8700
   62ccc     N1 1778   2.501   8.056   7.368 -0.0901  1.1855 -0.5207
   62ccc     C4 1779   2.520   8.177   7.443 -0.0689 -0.9244 -0.4290
   62ccc     H7 1780   2.623   8.181   7.479  0.0237 -0.3025 -0.7399
   62ccc     H8 1781   2.451   8.181   7.528 -0.2954  3.6933 -0.5985
   62ccc     C5 1782   2.490   8.295   7.352  0.2480  0.0551  0.0440
   62ccc     H9 1783   2.551   8.302   7.262  0.4985  1.4445  0.2932
   62ccc    H10 1784   2.384   8.283   7.325  0.6154 -3.1265 -0.3183
   62ccc     C6 1785   2.514   8.427   7.417 -0.6282  0.7284 -0.4820
   62ccc     O2 1786   2.439   8.463   7.504  0.2686  0.1311  0.0026
   62ccc     O3 1787   2.616   8.489   7.398 -0.5567 -0.4826 -0.2402
   62ccc     C7 1788   2.366   8.033   7.311 -0.8666 -0.4914 -0.2032
   62ccc    H11 1789   2.341   8.106   7.233  0.8264  0.4262  0.0711
   62ccc    H12 1790   2.360   7.934   7.263 -4.2731 -1.1189  1.2513
   62ccc     C8 1791   2.247   8.043   7.409  0.2392  0.2937 -0.8683
   62ccc    H13 1792   2.255   7.957   7.476 -0.3438  0.3466 -0.7218
   62ccc    H14 1793   2.244   8.130   7.475 -1.5794  1.5424 -2.4676
   62ccc     C9 1794   2.113   8.022   7.348  0.4678 -0.1433 -0.4116
   62ccc     O4 1795   2.089   7.915   7.288 -0.6067 -0.3096  0.0439
   62ccc     O5 1796   2.020   8.099   7.376  0.2470 -0.1405 -0.4749
   62ccc     O1 1797   2.502   7.654   7.520 -0.8293  0.0125 -0.0118
   63ccc     C3 1798   4.766   7.205   9.511 -0.2345  0.5112 -0.5934
   63ccc     H5 1799   4.848   7.218   9.583 -0.9772  0.5560  0.2549
   63ccc     H6 1800   4.704   7.120   9.541  0.5051  0.4888  0.9223
   63ccc     C2 1801   4.841   7.189   9.376  0.6008  0.3315  0.7980
   63ccc     H3 1802   4.946   7.160   9.383  1.1366  1.7188 -0.8285
   63ccc     H4 1803   4.858   7.290   9.336 -0.1587  0.5659  1.0488
   63ccc     C1 1804   4.759   7.086   9.278 -0.1001  0.4353  0.1456
   63ccc     H1 1805   4.656   7.123   9.280 -0.8045 -1.1264  4.1817
   63ccc     H2 1806   4.758   6.997   9.343 -0.7240 -1.1044 -1.8756
   63ccc     N1 1807   4.818   7.058   9.147  0.9203  0.5720  0.1326
   63ccc     C4 1808   4.777   6.924   9.098 -0.7861  0.1761 -0.2649
   63ccc     H7 1809   4.809   6.911   8.994 -2.9224 -2.5833 -0.6935
   63ccc     H8 1810   4.669   6.906   9.099 -0.5560 -1.3053 -0.4325
   63ccc     C5 1811   4.842   6.811   9.185  0.0852 -0.6588  0.0209
   63ccc     H9 1812   4.947   6.832   9.208 -0.4176 -0.7046  2.6385
   63ccc    H10 1813   4.791   6.795   9.281 -2.0259 -0.3095 -0.9943
   63ccc     C6 1814   4.836   6.681   9.110  0.4909  0.0870  1.0668
   63ccc     O2 1815   4.783   6.587   9.163 -0.2112 -0.1406  0.6021
   63ccc     O3 1816   4.892   6.662   9.001  0.4379  0.1803 -0.4214
   63ccc     C7 1817   4.773   7.165   9.051 -0.5771 -0.8111 -0.0987
   63ccc    H11 1818   4.671   7.133   9.026 -0.7114 -1.0651  0.7637
   63ccc    H12 1819   4.762   7.263   9.097  2.2635  0.7952 -2.4944
   63ccc     C8 1820   4.854   7.172   8.922  0.0972 -0.0492 -0.6043
   63ccc    H13 1821   4.941   7.238   8.923 -0.3881  0.5916 -0.1369
   63ccc    H14 1822   4.890   7.072   8.893 -1.6472 -0.8949  0.0261
   63ccc     C9 1823   4.765   7.237   8.822  0.2031 -0.5207  0.3436
   63ccc     O4 1824   4.771   7.360   8.795  0.3644 -0.0418  0.2301
   63ccc     O5 1825   4.702   7.165   8.750 -0.3808 -0.0604  0.4333
   63ccc     O1 1826   4.687   7.327   9.503 -0.1246 -0.3833  0.0183
   64ccc     C3 1827   4.183   7.056   9.314 -0.1313  0.5571  0.5206
   64ccc     H5 1828   4.148   7.079   9.212 -0.8332  0.3146  0.6981
   64ccc     H6 1829   4.238   7.142   9.354 -1.4889  1.5807  0.2710
   64ccc     C2 1830   4.276   6.931   9.295 -0.4845  0.5583  1.1404
   64ccc     H3 1831   4.362   6.946   9.228 -0.1353  0.2557  1.5136
   64ccc     H4 1832   4.214   6.848   9.260 -2.3673  2.5395 -0.4827
   64ccc     C1 1833   4.332   6.895   9.433 -0.0553 -0.1728  0.4857
   64ccc     H1 1834   4.264   6.821   9.478 -0.5415 -0.0985 -0.1189
   64ccc     H2 1835   4.340   6.988   9.490 -0.3903  1.7050 -2.3251
   64ccc     N1 1836   4.459   6.824   9.421 -0.4324  0.5992  0.5278
   64ccc     C4 1837   4.443   6.700   9.347 -0.0562 -0.4015  1.2525
   64ccc     H7 1838   4.541   6.663   9.315  0.3595  0.4882  1.4506
   64ccc     H8 1839   4.387   6.717   9.254  0.3290 -0.3416  1.0295
   64ccc     C5 1840   4.376   6.577   9.423  0.3673  0.7194  0.1544
   64ccc     H9 1841   4.440   6.554   9.510 -0.4834 -1.1098  0.3335
   64ccc    H10 1842   4.274   6.601   9.455 -1.0576 -2.2922 -1.7296
   64ccc     C6 1843   4.375   6.445   9.351 -0.3257 -0.9721 -0.0947
   64ccc     O2 1844   4.290   6.364   9.382 -0.2659 -0.4276 -0.2464
   64ccc     O3 1845   4.452   6.430   9.261  0.7075 -0.3375  0.6247
   64ccc     C7 1846   4.519   6.823   9.553 -0.1331 -0.0287  1.2921
   64ccc    H11 1847   4.542   6.927   9.579  1.8085  0.2068 -0.9664
   64ccc    H12 1848   4.442   6.786   9.621  0.2278 -1.2014  1.0853
   64ccc     C8 1849   4.651   6.753   9.558 -0.2842  0.4252  1.2021
   64ccc    H13 1850   4.646   6.650   9.521 -1.2185  0.5366  0.9929
   64ccc    H14 1851   4.730   6.799   9.497 -0.1829  2.4055  2.7045
   64ccc     C9 1852   4.689   6.749   9.696 -0.6867 -0.4895 -0.4027
   64ccc     O4 1853   4.770   6.833   9.733  0.4769  0.3026  0.4598
   64ccc     O5 1854   4.641   6.663   9.771 -0.5588  0.2537 -0.0976
   64ccc     O1 1855   4.073   7.014   9.405  0.2546 -0.2559  0.3023
   65ccc     C3 1856   3.446   8.462   9.942 -0.2267 -0.8006 -0.1434
   65ccc     H5 1857   3.548   8.439   9.910  0.3091  1.3444 -0.1002
   65ccc     H6 1858   3.415   8.538   9.870  3.1924  1.2196  0.3129
   65ccc     C2 1859   3.467   8.527  10.074  0.4289  0.2934  0.2400
   65ccc     H3 1860   3.526   8.619  10.062  0.3976  0.0901 -1.9335
   65ccc     H4 1861   3.518   8.456  10.140 -0.0927  0.2809  0.6364
   65ccc     C1 1862   3.337   8.561  10.147  0.3366  0.3637  0.3331
   65ccc     H1 1863   3.290   8.466  10.174  0.3424  0.6185  1.2684
   65ccc     H2 1864   3.268   8.618  10.082  1.2387 -0.6786 -1.6352
   65ccc     N1 1865   3.359   8.629  10.279 -0.5089 -0.4431  0.0807
   65ccc     C4 1866   3.388   8.525  10.385  0.0921 -0.3074  0.3900
   65ccc     H7 1867   3.477   8.478  10.342  2.4925  2.6701  1.7192
   65ccc     H8 1868   3.300   8.461  10.397  1.4018 -2.2495  0.1106
   65ccc     C5 1869   3.432   8.593  10.514  0.4703 -0.2798 -0.0753
   65ccc     H9 1870   3.483   8.689  10.496  1.7829 -0.6625  1.4573
   65ccc    H10 1871   3.341   8.611  10.573  0.1128 -3.2303  0.3869
   65ccc     C6 1872   3.523   8.503  10.598  0.4423  0.8305 -0.9731
   65ccc     O2 1873   3.519   8.517  10.719  0.0942  0.5756  0.9707
   65ccc     O3 1874   3.592   8.410  10.552  0.2710 -0.1690 -0.4035
   65ccc     C7 1875   3.235   8.707  10.316  0.3085  0.0284  0.0254
   65ccc    H11 1876   3.145   8.652  10.287  1.0764 -0.3716 -1.6903
   65ccc    H12 1877   3.231   8.731  10.423 -1.3761 -2.3258  0.5702
   65ccc     C8 1878   3.230   8.833  10.240 -0.1922 -0.1766  0.2024
   65ccc    H13 1879   3.286   8.911  10.294 -2.6374  0.7542  1.5666
   65ccc    H14 1880   3.260   8.818  10.136  1.1020  1.5643  0.2715
   65ccc     C9 1881   3.091   8.886  10.245 -0.1467 -0.7182  0.8048
   65ccc     O4 1882   3.007   8.850  10.165 -0.1165  0.1867 -0.0971
   65ccc     O5 1883   3.071   8.980  10.320 -0.1295  0.8539 -0.0500
   65ccc     O1 1884   3.377   8.340   9.958  0.0141 -1.2109  0.4274
   66ccc     C3 1885   2.968   8.080  10.449 -0.1557 -0.8654 -0.4669
   66ccc     H5 1886   2.896   8.001  10.423 -0.9766  0.3487 -2.0601
   66ccc     H6 1887   3.027   8.040  10.532  0.9436  0.9172 -0.3535
   66ccc     C2 1888   2.899   8.213  10.475 -0.0730 -0.5506  0.0405
   66ccc     H3 1889   2.812   8.186  10.535 -1.0823  1.6841 -0.2936
   66ccc     H4 1890   2.851   8.247  10.382 -3.0182 -0.5335  1.4346
   66ccc     C1 1891   2.988   8.320  10.545  0.2778 -0.2193  0.0811
   66ccc     H1 1892   3.080   8.335  10.487 -0.2438  0.2011 -0.6442
   66ccc     H2 1893   3.023   8.272  10.637  0.6789  1.7163  0.9984
   66ccc     N1 1894   2.935   8.458  10.580  0.2619 -0.2180 -0.1315
   66ccc     C4 1895   2.890   8.528  10.462  0.0672  0.2972 -0.1905
   66ccc     H7 1896   2.830   8.459  10.400  0.5501  1.4693 -2.0266
   66ccc     H8 1897   2.980   8.551  10.405 -0.6510 -0.3203 -1.6292
   66ccc     C5 1898   2.808   8.638  10.500 -0.0098 -0.3686  0.1315
   66ccc     H9 1899   2.733   8.616  10.577  0.5393 -0.4644  0.6502
   66ccc    H10 1900   2.857   8.725  10.546  0.0018 -1.6540  2.7982
   66ccc     C6 1901   2.736   8.698  10.381 -0.1207 -0.2045  0.1531
   66ccc     O2 1902   2.615   8.697  10.375 -0.7057  0.3466  0.0276
   66ccc     O3 1903   2.788   8.771  10.298  0.0222 -0.0297 -0.3757
   66ccc     C7 1904   3.038   8.525  10.658 -0.5069  0.3783 -0.0141
   66ccc    H11 1905   3.138   8.522  10.612  0.9406  2.6830  2.6312
   66ccc    H12 1906   3.016   8.632  10.670 -2.4433 -0.1083  1.1502
   66ccc     C8 1907   3.064   8.470  10.800  0.2762 -0.3828  0.5700
   66ccc    H13 1908   2.989   8.517  10.864 -0.4508 -0.8767  0.0870
   66ccc    H14 1909   3.058   8.362  10.818  3.3345 -0.4874  1.5761
   66ccc     C9 1910   3.197   8.509  10.850 -0.4558  0.2302  0.3366
   66ccc     O4 1911   3.285   8.421  10.864  0.4021 -0.0143 -0.3152
   66ccc     O5 1912   3.220   8.626  10.879 -0.1232  0.1950 -0.4887
   66ccc     O1 1913   3.059   8.096  10.345  0.2702  0.0636 -0.1326
   67ccc     C3 1914   3.518   7.877   8.252 -0.3556  0.4348 -0.4490
   67ccc     H5 1915   3.605   7.891   8.187  1.4742 -1.5800  1.3938
   67ccc     H6 1916   3.484   7.773   8.257  1.2363 -0.1117 -0.2257
   67ccc     C2 1917   3.410   7.970   8.196 -0.1708 -0.1711 -0.2710
   67ccc     H3 1918   3.456   8.066   8.168 -1.3409  0.6853  0.6036
   67ccc     H4 1919   3.337   7.988   8.276 -2.1541  0.4225 -2.1336
   67ccc     C1 1920   3.330   7.908   8.073  0.0666  0.5972 -0.5064
   67ccc     H1 1921   3.246   7.851   8.114  0.8494  1.8385  3.1892
   67ccc     H2 1922   3.400   7.837   8.026  1.8954  0.1213  2.6928
   67ccc     N1 1923   3.279   8.009   7.973  0.3658  0.2546 -0.4401
   67ccc     C4 1924   3.255   7.949   7.843 -0.4373 -0.6837  0.1269
   67ccc     H7 1925   3.178   8.015   7.800  1.6539  0.8582 -1.4976
   67ccc     H8 1926   3.223   7.845   7.841  1.3683 -1.2812  0.4138
   67ccc     C5 1927   3.375   7.966   7.747 -0.5364 -0.6209  0.3112
   67ccc     H9 1928   3.466   7.922   7.791 -0.4759 -0.8754 -0.0666
   67ccc    H10 1929   3.344   7.905   7.661 -1.2304 -1.6931  1.2980
   67ccc     C6 1930   3.404   8.107   7.709  0.2969 -0.3976 -0.0777
   67ccc     O2 1931   3.507   8.159   7.742 -0.3563 -0.5477  0.1852
   67ccc     O3 1932   3.326   8.158   7.625  0.2181 -0.1687  0.2041
   67ccc     C7 1933   3.176   8.095   8.025  0.1217 -0.4545 -0.2165
   67ccc    H11 1934   3.081   8.041   8.015  0.8780 -2.1316  1.1984
   67ccc    H12 1935   3.189   8.125   8.130  0.5295  0.8426 -0.6271
   67ccc     C8 1936   3.154   8.220   7.945  0.6561 -0.4661  0.2782
   67ccc    H13 1937   3.099   8.195   7.854  1.1724  0.9021 -0.4344
   67ccc    H14 1938   3.083   8.280   8.003 -0.6361  0.1080 -1.7849
   67ccc     C9 1939   3.269   8.316   7.930 -0.5239 -0.1466 -0.8052
   67ccc     O4 1940   3.353   8.328   8.019 -1.2581 -0.0116  0.1176
   67ccc     O5 1941   3.294   8.367   7.821 -0.3723  0.3145  0.0473
   67ccc     O1 1942   3.546   7.921   8.385 -0.0486 -0.4446 -0.0291
   68ccc     C3 1943   3.990   7.601   8.986  0.6200  0.1695  1.1923
   68ccc     H5 1944   3.989   7.564   9.089  1.2696 -2.1232  0.4549
   68ccc     H6 1945   4.016   7.523   8.912 -1.9009 -0.4168  0.8266
   68ccc     C2 1946   4.092   7.718   8.974 -0.9523  0.3446 -0.8396
   68ccc     H3 1947   4.190   7.673   8.993 -1.1838 -0.4180 -1.4039
   68ccc     H4 1948   4.072   7.799   9.045 -1.3181  0.4865 -1.0979
   68ccc     C1 1949   4.089   7.779   8.833  0.0158 -1.1176 -0.4525
   68ccc     H1 1950   3.991   7.813   8.798 -0.7422  1.8477  3.7699
   68ccc     H2 1951   4.132   7.709   8.761 -1.6198 -0.1211 -2.5000
   68ccc     N1 1952   4.179   7.899   8.819  0.0535 -0.2741 -0.3086
   68ccc     C4 1953   4.195   7.973   8.698  0.1673 -0.1322  0.3453
   68ccc     H7 1954   4.219   7.904   8.616 -0.1630 -0.1162  0.2326
   68ccc     H8 1955   4.267   8.056   8.702 -3.0433  2.8425  2.7300
   68ccc     C5 1956   4.066   8.048   8.668 -0.5100 -0.2643  0.3050
   68ccc     H9 1957   3.985   7.980   8.637  1.5322 -0.9012 -4.4981
   68ccc    H10 1958   4.025   8.119   8.740 -1.3441  0.0441 -0.4446
   68ccc     C6 1959   4.089   8.123   8.540 -0.2955 -0.5493  0.0686
   68ccc     O2 1960   4.107   8.066   8.436  0.6353  0.7622  0.4190
   68ccc     O3 1961   4.097   8.245   8.539 -0.5009 -0.2409  0.3218
   68ccc     C7 1962   4.309   7.881   8.879  0.0266  0.1045  0.9058
   68ccc    H11 1963   4.358   7.979   8.883  2.9707 -1.1921 -0.1853
   68ccc    H12 1964   4.307   7.853   8.986  0.9432 -3.2390  0.1846
   68ccc     C8 1965   4.400   7.781   8.803 -0.8079 -1.0004 -0.1385
   68ccc    H13 1966   4.361   7.679   8.812 -2.1037 -0.3598  2.4648
   68ccc    H14 1967   4.405   7.805   8.696 -1.6888 -1.2343 -0.2378
   68ccc     C9 1968   4.544   7.777   8.842  0.6327 -0.5541 -0.5500
   68ccc     O4 1969   4.613   7.674   8.830  0.0784 -0.3452 -0.4616
   68ccc     O5 1970   4.602   7.874   8.881  0.1692  0.4510  0.1505
   68ccc     O1 1971   3.860   7.655   8.955 -0.7224 -0.2338 -0.6304
   69ccc     C3 1972   3.784   7.252   8.680  0.6524  0.0500 -0.8058
   69ccc     H5 1973   3.759   7.246   8.786 -0.2941 -0.2254 -1.0352
   69ccc     H6 1974   3.783   7.148   8.645  1.5624 -1.0374  2.1358
   69ccc     C2 1975   3.919   7.331   8.648 -0.1842  0.4741 -0.3966
   69ccc     H3 1976   4.000   7.276   8.698  0.0175  0.1112 -1.1100
   69ccc     H4 1977   3.916   7.426   8.703  2.0368 -0.2583  1.1823
   69ccc     C1 1978   3.962   7.359   8.501  0.4752  0.2347 -0.0426
   69ccc     H1 1979   3.876   7.422   8.474 -0.0387  1.0723  3.1089
   69ccc     H2 1980   3.966   7.268   8.441 -1.0489 -0.2222  0.4846
   69ccc     N1 1981   4.086   7.442   8.499  0.0625  0.6790 -0.2495
   69ccc     C4 1982   4.210   7.357   8.527 -0.9161 -0.0249  0.3517
   69ccc     H7 1983   4.219   7.268   8.463  1.9590  0.7862 -0.5177
   69ccc     H8 1984   4.205   7.321   8.630  0.4381  0.3885  0.5750
   69ccc     C5 1985   4.341   7.430   8.525 -0.4875 -0.7083 -1.0483
   69ccc     H9 1986   4.389   7.426   8.426  2.9893 -0.1258  0.4596
   69ccc    H10 1987   4.326   7.533   8.559  1.7981  0.5190 -3.3871
   69ccc     C6 1988   4.442   7.370   8.616  1.2403  0.7022 -0.8970
   69ccc     O2 1989   4.537   7.434   8.641  0.1134  0.0392 -0.2398
   69ccc     O3 1990   4.449   7.249   8.629  0.8849 -0.5943  0.3036
   69ccc     C7 1991   4.096   7.521   8.379 -0.3048 -0.0822  0.3195
   69ccc    H11 1992   4.196   7.567   8.376  1.8538 -4.2041  1.6929
   69ccc    H12 1993   4.087   7.463   8.286  0.9293  1.3688 -0.7457
   69ccc     C8 1994   3.997   7.631   8.373  0.1482 -0.1114 -0.2077
   69ccc    H13 1995   3.889   7.611   8.363 -0.1325  1.3522 -0.2798
   69ccc    H14 1996   4.004   7.701   8.457  0.3406  0.2343 -0.5068
   69ccc     C9 1997   4.024   7.721   8.252  0.4810 -0.2171  0.3421
   69ccc     O4 1998   4.081   7.828   8.268 -0.0339 -0.3968 -0.4050
   69ccc     O5 1999   4.002   7.693   8.140 -0.0874  0.1986  0.0961
   69ccc     O1 2000   3.682   7.327   8.614  0.2536 -0.1637 -0.5293
   70ccc     C3 2001   3.975   7.144   8.132  0.2211  0.2726 -0.5871
   70ccc     H5 2002   3.979   7.037   8.109  0.2188  0.0101  0.5486
   70ccc     H6 2003   3.945   7.205   8.046  1.7928  2.2833  0.1929
   70ccc     C2 2004   4.113   7.187   8.185  0.0769 -0.7698  0.2865
   70ccc     H3 2005   4.126   7.129   8.277 -1.3646  1.2623  1.8613
   70ccc     H4 2006   4.104   7.293   8.210 -1.0760 -0.5435 -0.9447
   70ccc     C1 2007   4.221   7.163   8.089 -0.2998  0.8282 -0.0902
   70ccc     H1 2008   4.189   7.204   7.992 -1.9143  1.1860  0.5671
   70ccc     H2 2009   4.229   7.055   8.072  1.4895  1.0490 -0.9833
   70ccc     N1 2010   4.350   7.220   8.133 -0.4181 -0.0384 -0.4144
   70ccc     C4 2011   4.361   7.367   8.139  0.7442 -0.3268 -0.4007
   70ccc     H7 2012   4.467   7.374   8.166  0.7984 -1.1360 -0.3920
   70ccc     H8 2013   4.305   7.419   8.217 -0.5966  0.2366 -1.6954
   70ccc     C5 2014   4.325   7.440   8.003  0.4127 -0.1961 -0.5357
   70ccc     H9 2015   4.385   7.396   7.923  1.1538 -2.9141  1.3831
   70ccc    H10 2016   4.216   7.438   7.989  0.4261 -0.6208 -0.5929
   70ccc     C6 2017   4.368   7.579   8.025 -0.5864  0.7711  0.1334
   70ccc     O2 2018   4.452   7.631   7.954  0.1242 -0.2843 -0.3164
   70ccc     O3 2019   4.301   7.658   8.086  0.3176  0.4432  0.4448
   70ccc     C7 2020   4.412   7.151   8.247 -0.1845 -0.1607  0.1394
   70ccc    H11 2021   4.371   7.200   8.336 -2.0686  0.0917 -0.8159
   70ccc    H12 2022   4.380   7.047   8.252 -1.0759  0.1383  0.9882
   70ccc     C8 2023   4.570   7.153   8.258 -0.3466 -0.6670  0.2929
   70ccc    H13 2024   4.603   7.087   8.176  0.4885  0.8014 -0.5932
   70ccc    H14 2025   4.611   7.252   8.238 -1.9184 -0.3571 -1.8042
   70ccc     C9 2026   4.602   7.112   8.399  0.2097 -0.6295  0.6248
   70ccc     O4 2027   4.687   7.161   8.462 -0.0007 -0.1954 -0.1737
   70ccc     O5 2028   4.557   7.015   8.454 -0.2061 -0.4493 -0.0397
   70ccc     O1 2029   3.878   7.152   8.242 -0.0216 -0.1054  0.5504
   71ccc     C3 2030   2.228   6.838   8.887 -0.5897 -0.2185 -0.7590
   71ccc     H5 2031   2.292   6.827   8.798  0.4582  2.6483 -0.4634
   71ccc     H6 2032   2.285   6.806   8.975 -1.1129 -1.8368 -0.9752
   71ccc     C2 2033   2.110   6.746   8.870 -0.3092  0.4357 -0.1991
   71ccc     H3 2034   2.044   6.765   8.956  0.9749 -0.6267  1.0578
   71ccc     H4 2035   2.145   6.643   8.883 -0.2813  0.5293  0.5153
   71ccc     C1 2036   2.037   6.759   8.729 -0.3182  0.5570 -0.6600
   71ccc     H1 2037   2.110   6.723   8.656 -0.8365 -1.3671 -0.3039
   71ccc     H2 2038   2.019   6.864   8.706 -1.8866  0.1942 -1.1940
   71ccc     N1 2039   1.918   6.671   8.721 -0.4363  0.6309  0.2008
   71ccc     C4 2040   1.809   6.699   8.817  0.3831 -0.0210  0.2490
   71ccc     H7 2041   1.843   6.692   8.921  1.8454 -0.0060 -0.1948
   71ccc     H8 2042   1.735   6.620   8.805 -3.9844  3.6728  0.0216
   71ccc     C5 2043   1.745   6.841   8.802  0.3290 -1.0248 -0.0637
   71ccc     H9 2044   1.795   6.916   8.865 -0.6995 -1.5831  1.4841
   71ccc    H10 2045   1.740   6.870   8.696 -2.5280 -1.6116 -0.1674
   71ccc     C6 2046   1.609   6.832   8.871 -0.4388 -0.3820 -0.1114
   71ccc     O2 2047   1.580   6.905   8.965 -0.0587 -0.1029 -0.1849
   71ccc     O3 2048   1.514   6.774   8.818 -0.0973 -0.4768  0.0243
   71ccc     C7 2049   1.878   6.655   8.583 -0.0364  0.5012  1.2115
   71ccc    H11 2050   1.769   6.649   8.579 -0.0913  1.7774  0.0645
   71ccc    H12 2051   1.912   6.730   8.510  0.2769 -1.1153 -0.3796
   71ccc     C8 2052   1.926   6.516   8.538 -0.7926 -0.4509 -0.2484
   71ccc    H13 2053   1.973   6.450   8.612  0.1155  1.5682  1.0895
   71ccc    H14 2054   1.843   6.457   8.499 -0.9809 -0.1588 -0.2900
   71ccc     C9 2055   2.025   6.535   8.423  0.0618  0.3503 -0.0582
   71ccc     O4 2056   2.141   6.554   8.434 -0.5264  0.6093  0.4098
   71ccc     O5 2057   1.986   6.528   8.311  0.1765 -0.1554 -0.5163
   71ccc     O1 2058   2.191   6.974   8.886 -0.1495  0.2020 -0.2880
   72ccc     C3 2059   2.174   7.655   8.608  0.1498  0.3575  0.7253
   72ccc     H5 2060   2.084   7.608   8.651  0.2824  0.2300  0.8645
   72ccc     H6 2061   2.154   7.759   8.582  1.1601  0.2428 -0.5809
   72ccc     C2 2062   2.210   7.575   8.476  0.0258  0.2747 -0.3902
   72ccc     H3 2063   2.302   7.614   8.432 -0.1822 -0.7235 -1.8051
   72ccc     H4 2064   2.132   7.580   8.398 -0.1745 -0.9663 -0.2868
   72ccc     C1 2065   2.243   7.424   8.507  0.4841 -0.4523 -0.2121
   72ccc     H1 2066   2.154   7.370   8.541  2.0311 -2.0326  1.6310
   72ccc     H2 2067   2.305   7.428   8.598  1.6091 -0.2395 -0.9723
   72ccc     N1 2068   2.294   7.341   8.387  0.5455  0.3730 -0.4249
   72ccc     C4 2069   2.375   7.237   8.437 -0.2648  0.1928  0.0332
   72ccc     H7 2070   2.451   7.258   8.514  0.8965 -2.8158 -0.1646
   72ccc     H8 2071   2.430   7.196   8.352 -0.6370 -1.9105  0.7419
   72ccc     C5 2072   2.306   7.126   8.505  0.3422  0.1569 -0.8645
   72ccc     H9 2073   2.250   7.159   8.594  0.6175 -1.2679 -0.1320
   72ccc    H10 2074   2.237   7.087   8.429  0.3476  0.6039 -1.1028
   72ccc     C6 2075   2.388   7.004   8.528  0.6918 -0.3769  0.0266
   72ccc     O2 2076   2.344   6.889   8.517  0.8395  0.2065  0.2965
   72ccc     O3 2077   2.505   7.006   8.540 -0.4568  0.2619  0.0718
   72ccc     C7 2078   2.198   7.320   8.281  0.3745 -0.1152 -0.1174
   72ccc    H11 2079   2.113   7.267   8.325  1.3034  0.2413  2.2762
   72ccc    H12 2080   2.162   7.416   8.240  1.4396  0.3844  0.0696
   72ccc     C8 2081   2.250   7.231   8.167  0.0436 -0.5782  0.1086
   72ccc    H13 2082   2.352   7.262   8.140  0.8738 -1.1399  2.3811
   72ccc    H14 2083   2.258   7.126   8.198 -0.7441 -0.7288 -0.1780
   72ccc     C9 2084   2.169   7.234   8.041  1.3609  0.9841 -0.0054
   72ccc     O4 2085   2.093   7.137   8.016  0.5479  0.2382  0.5745
   72ccc     O5 2086   2.170   7.326   7.964  0.0772  0.2435  0.1489
   72ccc     O1 2087   2.280   7.652   8.699 -0.3919 -0.2902 -0.1060
   73ccc     C3 2088   0.594   7.441  10.093  0.1691  0.1431  0.7339
   73ccc     H5 2089   0.602   7.398  10.194  0.6959 -1.8177 -0.1201
   73ccc     H6 2090   0.608   7.550  10.098 -1.5859  0.5429 -1.4262
   73ccc     C2 2091   0.445   7.423  10.042 -0.0686 -0.3854  0.1931
   73ccc     H3 2092   0.376   7.469  10.114 -0.3533  0.8734 -0.8405
   73ccc     H4 2093   0.418   7.318  10.027  0.2199 -0.2980 -1.0262
   73ccc     C1 2094   0.422   7.493   9.908  0.8381 -0.1889  0.8296
   73ccc     H1 2095   0.332   7.450   9.863  1.7156  0.2706 -1.5583
   73ccc     H2 2096   0.508   7.462   9.846  2.3619  1.2175  2.1528
   73ccc     N1 2097   0.431   7.643   9.898  0.4835  0.4640  0.1897
   73ccc     C4 2098   0.329   7.714   9.976 -0.2799 -0.4828 -0.1889
   73ccc     H7 2099   0.371   7.815   9.985  0.3536 -0.9195  2.9454
   73ccc     H8 2100   0.326   7.674  10.078  0.2695  1.0160  0.4442
   73ccc     C5 2101   0.190   7.712   9.919  0.2463  0.2189  0.1342
   73ccc     H9 2102   0.190   7.716   9.809  0.3758  1.0053  0.1561
   73ccc    H10 2103   0.144   7.618   9.953 -0.3216  0.6450  0.5482
   73ccc     C6 2104   0.111   7.824   9.970 -0.0277  0.1601 -0.4800
   73ccc     O2 2105   0.066   7.809  10.084 -0.4810  0.2367  0.3889
   73ccc     O3 2106   0.056   7.910   9.905  0.2233  0.5941 -0.1514
   73ccc     C7 2107   0.458   7.687   9.760 -0.2399 -0.2381  0.2481
   73ccc    H11 2108   0.539   7.628   9.715 -0.7859 -0.9839  0.2182
   73ccc    H12 2109   0.373   7.670   9.693  2.0267  0.5501 -3.0878
   73ccc     C8 2110   0.487   7.834   9.747 -0.3737  0.3584  0.4660
   73ccc    H13 2111   0.409   7.901   9.785  0.0229  1.9085 -1.2680
   73ccc    H14 2112   0.590   7.853   9.779  0.7561 -2.1829 -1.3522
   73ccc     C9 2113   0.486   7.862   9.598 -0.6115 -0.7412  0.1366
   73ccc     O4 2114   0.392   7.912   9.540 -0.1971 -0.0623 -0.1546
   73ccc     O5 2115   0.590   7.858   9.536 -0.2482 -0.2113  0.6480
   73ccc     O1 2116   0.683   7.372  10.000 -0.5618  0.0919  0.2202
   74ccc     C3 2117   1.153   6.959   9.534 -0.1947  0.0604 -0.6567
   74ccc     H5 2118   1.237   7.013   9.489 -0.8605  1.0561 -0.7366
   74ccc     H6 2119   1.181   6.853   9.531  0.7106  0.3023 -1.1474
   74ccc     C2 2120   1.026   6.992   9.457  0.3748  0.0194 -0.9734
   74ccc     H3 2121   1.050   6.992   9.350  1.6537  0.4432 -0.7051
   74ccc     H4 2122   0.997   7.096   9.475 -0.1241 -0.2190 -0.3943
   74ccc     C1 2123   0.910   6.896   9.490 -0.2181  0.4917 -0.7775
   74ccc     H1 2124   0.877   6.930   9.589  1.5985 -0.1481  0.0844
   74ccc     H2 2125   0.946   6.793   9.499 -0.2785  0.6334  1.7249
   74ccc     N1 2126   0.775   6.913   9.423 -0.7471  0.3148  0.1298
   74ccc     C4 2127   0.675   6.812   9.485 -0.4183  0.0552 -0.9394
   74ccc     H7 2128   0.708   6.711   9.460  1.7389 -0.2904  2.5623
   74ccc     H8 2129   0.579   6.833   9.436 -1.8405 -0.3957  1.5313
   74ccc     C5 2130   0.650   6.830   9.632 -0.0286 -0.4230 -0.2132
   74ccc     H9 2131   0.731   6.778   9.685 -0.5847  0.2668  1.3715
   74ccc    H10 2132   0.653   6.935   9.663  0.2415  0.6886 -3.6236
   74ccc     C6 2133   0.530   6.756   9.670 -0.2132 -0.2828 -0.1012
   74ccc     O2 2134   0.432   6.812   9.711 -0.5521  0.6158 -0.4981
   74ccc     O3 2135   0.544   6.635   9.701  0.0342 -0.4559 -0.0096
   74ccc     C7 2136   0.769   6.926   9.275 -0.2043 -0.8539  0.3115
   74ccc    H11 2137   0.865   6.963   9.238 -0.6169  1.1618  1.0812
   74ccc    H12 2138   0.747   6.834   9.220 -2.2967 -1.4023  1.9178
   74ccc     C8 2139   0.672   7.038   9.231 -0.6440  0.0798 -0.2657
   74ccc    H13 2140   0.568   7.020   9.263 -1.2289  2.9531 -0.3007
   74ccc    H14 2141   0.703   7.135   9.272 -1.6976  0.8715 -1.2718
   74ccc     C9 2142   0.665   7.050   9.086  0.1594  0.4235  0.3788
   74ccc     O4 2143   0.639   7.155   9.027  0.3138  0.4769 -0.2448
   74ccc     O5 2144   0.665   6.945   9.023 -0.8831 -0.1693  0.6316
   74ccc     O1 2145   1.139   6.998   9.668  0.2334  0.0921 -0.1883
   75ccc     C3 2146   1.039   6.206   8.805  0.3016  1.0673  0.1383
   75ccc     H5 2147   1.047   6.142   8.716 -0.7762  0.3546  0.5369
   75ccc     H6 2148   0.974   6.163   8.883  2.4612 -1.1968  0.8424
   75ccc     C2 2149   0.982   6.340   8.766  0.1911  0.0283  0.2025
   75ccc     H3 2150   0.969   6.400   8.857 -1.3303 -1.8793  1.3228
   75ccc     H4 2151   0.888   6.325   8.712 -0.5877  0.6435  1.3402
   75ccc     C1 2152   1.071   6.414   8.665 -0.0514 -0.0377  0.0465
   75ccc     H1 2153   1.091   6.340   8.587 -1.2355 -2.1954  1.6841
   75ccc     H2 2154   1.166   6.454   8.703  0.0111 -0.5459  0.4279
   75ccc     N1 2155   1.014   6.532   8.596 -0.2826  0.2042 -0.3782
   75ccc     C4 2156   1.075   6.557   8.466  0.1497  0.1166  0.0082
   75ccc     H7 2157   1.011   6.620   8.402  2.3002  1.8016 -0.6134
   75ccc     H8 2158   1.075   6.462   8.412 -0.9366  0.7059 -1.0775
   75ccc     C5 2159   1.217   6.617   8.465 -0.0466  0.2724  0.5841
   75ccc     H9 2160   1.216   6.712   8.521  1.2792  0.3876  0.4507
   75ccc    H10 2161   1.295   6.553   8.508  1.4199  1.1822 -0.6148
   75ccc     C6 2162   1.250   6.649   8.316 -0.1433 -0.0050  0.1421
   75ccc     O2 2163   1.343   6.593   8.258  0.5766 -0.3933  0.1541
   75ccc     O3 2164   1.206   6.751   8.267 -0.2206 -0.1856  0.3634
   75ccc     C7 2165   0.990   6.655   8.677  0.8621 -0.5764  0.6178
   75ccc    H11 2166   0.961   6.630   8.779 -1.8681 -0.5086 -0.0625
   75ccc    H12 2167   1.079   6.718   8.686 -0.3211  1.0660  1.2059
   75ccc     C8 2168   0.876   6.738   8.628  0.2913  0.1922  0.0911
   75ccc    H13 2169   0.878   6.767   8.522 -0.1283  0.1469  0.0671
   75ccc    H14 2170   0.780   6.689   8.648  0.6006 -0.7835 -0.7320
   75ccc     C9 2171   0.879   6.871   8.697 -0.9225 -0.2939  0.0641
   75ccc     O4 2172   0.986   6.933   8.700  0.2353 -0.4842 -0.1122
   75ccc     O5 2173   0.793   6.918   8.765  0.1017 -0.1274  0.7177
   75ccc     O1 2174   1.169   6.220   8.857  0.5191  0.2570 -0.0483
   76ccc     C3 2175   2.025   6.095   8.746 -0.2798 -0.2137 -0.7090
   76ccc     H5 2176   1.986   5.992   8.749  0.6569 -0.6254 -1.8507
   76ccc     H6 2177   2.003   6.143   8.650 -0.9288  2.7159  0.7925
   76ccc     C2 2178   2.172   6.091   8.783  0.4222 -0.0039  0.7350
   76ccc     H3 2179   2.221   6.009   8.729 -0.9952  0.2012 -0.9471
   76ccc     H4 2180   2.183   6.059   8.887  0.7453  0.0175  0.7085
   76ccc     C1 2181   2.237   6.229   8.776  0.6782 -0.2439  0.2583
   76ccc     H1 2182   2.195   6.294   8.854  0.0567 -0.1710 -0.1339
   76ccc     H2 2183   2.207   6.258   8.675 -0.8710  0.3487  0.8584
   76ccc     N1 2184   2.384   6.225   8.780 -0.0097 -0.2806 -0.1405
   76ccc     C4 2185   2.439   6.337   8.708  0.0528 -0.6384 -0.1901
   76ccc     H7 2186   2.407   6.327   8.604  2.1020 -0.5518 -0.8764
   76ccc     H8 2187   2.549   6.330   8.705  0.1538 -0.0514  1.2836
   76ccc     C5 2188   2.392   6.468   8.753 -0.4867 -0.3994 -0.4814
   76ccc     H9 2189   2.286   6.480   8.727 -0.1966 -1.7643 -2.5188
   76ccc    H10 2190   2.408   6.480   8.861  0.0330 -2.7713 -0.2319
   76ccc     C6 2191   2.450   6.579   8.671 -0.5343  0.6789  0.0572
   76ccc     O2 2192   2.549   6.638   8.707 -0.0836 -0.0505 -0.3826
   76ccc     O3 2193   2.403   6.599   8.563 -0.3743 -0.5093 -0.0154
   76ccc     C7 2194   2.434   6.204   8.918 -0.5949  0.2040  0.4408
   76ccc    H11 2195   2.398   6.279   8.989  0.0849 -1.2876  2.4816
   76ccc    H12 2196   2.391   6.108   8.950 -1.6876  0.5354 -0.0032
   76ccc     C8 2197   2.589   6.187   8.921  0.7866  0.2370  0.2718
   76ccc    H13 2198   2.624   6.104   8.860  0.4506  0.0985  0.2666
   76ccc    H14 2199   2.648   6.279   8.910 -0.0497  0.6924 -0.5529
   76ccc     C9 2200   2.611   6.153   9.070 -0.1297  0.0567  0.1178
   76ccc     O4 2201   2.563   6.056   9.123  0.3925  0.4891  0.1698
   76ccc     O5 2202   2.697   6.209   9.133  0.2341  0.1780 -0.4078
   76ccc     O1 2203   1.977   6.182   8.840 -0.4185 -0.1020  0.1597
   77ccc     C3 2204   1.945   6.528   9.327 -0.2745 -0.0009 -0.1958
   77ccc     H5 2205   1.895   6.434   9.353 -1.2205  0.6673  0.4797
   77ccc     H6 2206   1.868   6.601   9.298 -0.8993 -1.6324 -3.0585
   77ccc     C2 2207   2.047   6.486   9.215 -0.3965  0.3606  0.2629
   77ccc     H3 2208   2.087   6.574   9.162 -0.9848  0.9382  0.7574
   77ccc     H4 2209   1.987   6.416   9.156  2.4844  0.1365 -2.7061
   77ccc     C1 2210   2.161   6.399   9.273 -0.0002 -0.4813  0.5688
   77ccc     H1 2211   2.186   6.315   9.207  3.4964 -2.5923  4.1562
   77ccc     H2 2212   2.129   6.362   9.371  2.0371  0.6474  1.7127
   77ccc     N1 2213   2.291   6.466   9.303  0.3294 -0.2912  0.4689
   77ccc     C4 2214   2.373   6.510   9.180 -0.3030  0.3366  0.3831
   77ccc     H7 2215   2.306   6.546   9.101 -4.6066 -1.1721  2.9904
   77ccc     H8 2216   2.430   6.425   9.142 -1.7911  0.4434 -2.3393
   77ccc     C5 2217   2.473   6.617   9.211  0.2854 -0.2315 -0.4399
   77ccc     H9 2218   2.417   6.711   9.216  3.4244  1.7674 -0.0943
   77ccc    H10 2219   2.530   6.611   9.305  1.4007 -1.7746 -1.1755
   77ccc     C6 2220   2.580   6.621   9.100  1.1192  0.0275  0.1592
   77ccc     O2 2221   2.669   6.536   9.098  0.5427 -0.2452  0.5092
   77ccc     O3 2222   2.580   6.700   9.012 -0.5538 -0.4720 -1.0304
   77ccc     C7 2223   2.363   6.390   9.403  0.2972 -0.2321  0.5075
   77ccc    H11 2224   2.464   6.431   9.414  1.9827 -3.7882 -0.4398
   77ccc    H12 2225   2.311   6.394   9.499 -2.3010 -3.0946 -0.6335
   77ccc     C8 2226   2.390   6.243   9.366  0.3074 -0.1150  0.3494
   77ccc    H13 2227   2.295   6.189   9.365 -0.3965  1.0502 -1.5473
   77ccc    H14 2228   2.438   6.226   9.269 -2.2048 -2.8345 -0.5683
   77ccc     C9 2229   2.491   6.178   9.456  0.2895 -0.0049  0.0895
   77ccc     O4 2230   2.608   6.192   9.433 -0.0194 -0.3575  0.2630
   77ccc     O5 2231   2.456   6.110   9.545  0.0885 -0.5369 -0.1841
   77ccc     O1 2232   2.016   6.576   9.448  0.6572 -0.5735  0.5673
   78ccc     C3 2233   1.293   6.392   9.539 -0.2529 -1.0216 -0.0884
   78ccc     H5 2234   1.361   6.356   9.462 -0.4607 -0.7972 -0.3779
   78ccc     H6 2235   1.266   6.313   9.611 -0.4150  0.4898  1.5723
   78ccc     C2 2236   1.169   6.462   9.473  0.2877 -0.4976 -0.4807
   78ccc     H3 2237   1.194   6.568   9.458 -1.0949 -0.3694 -2.1904
   78ccc     H4 2238   1.083   6.451   9.540  1.8199 -0.0223  1.6623
   78ccc     C1 2239   1.122   6.406   9.337 -0.1293 -0.2851  0.4021
   78ccc     H1 2240   1.107   6.297   9.336  3.3560 -0.8853 -0.9222
   78ccc     H2 2241   1.208   6.416   9.269 -0.1250 -0.1779  0.4237
   78ccc     N1 2242   0.999   6.465   9.278 -0.6831  0.3081 -0.5703
   78ccc     C4 2243   1.010   6.603   9.221  0.0402  0.4279  0.4892
   78ccc     H7 2244   1.042   6.672   9.300 -0.0049  0.4506  0.4880
   78ccc     H8 2245   0.913   6.643   9.188 -0.0017  0.9749  1.2442
   78ccc     C5 2246   1.102   6.601   9.095 -0.2792 -0.5430 -0.5158
   78ccc     H9 2247   1.209   6.587   9.117 -0.1655  1.3455  0.3162
   78ccc    H10 2248   1.067   6.517   9.035 -2.2148  0.5274 -0.9491
   78ccc     C6 2249   1.103   6.722   9.017 -0.0649 -0.1936  0.3692
   78ccc     O2 2250   1.003   6.783   8.991  0.0255 -0.0829  0.1258
   78ccc     O3 2251   1.208   6.753   8.962  0.7776  0.0890  0.2971
   78ccc     C7 2252   0.870   6.429   9.341 -0.2001  1.2744 -0.7623
   78ccc    H11 2253   0.871   6.471   9.442  1.3515  0.8087 -0.5595
   78ccc    H12 2254   0.794   6.474   9.275 -1.8693 -1.2439 -0.6744
   78ccc     C8 2255   0.838   6.273   9.345 -0.6264 -0.2761 -0.2844
   78ccc    H13 2256   0.846   6.238   9.241  1.3126  0.5953 -0.4638
   78ccc    H14 2257   0.908   6.213   9.403  0.2387  0.1484 -0.8702
   78ccc     C9 2258   0.702   6.249   9.389  0.7242  0.5308  0.0850
   78ccc     O4 2259   0.652   6.140   9.357  0.1159 -0.0165  0.0962
   78ccc     O5 2260   0.650   6.305   9.484 -0.2803  0.3227  0.5364
   78ccc     O1 2261   1.366   6.498   9.612  0.1695  0.5783  0.1497
   79ccc     C3 2262   2.208   9.057   8.357 -0.4718  0.3649 -0.2035
   79ccc     H5 2263   2.216   9.038   8.464  0.0833 -3.4839 -0.7610
   79ccc     H6 2264   2.110   9.094   8.324 -0.5472 -1.0199 -1.7121
   79ccc     C2 2265   2.228   8.922   8.272 -0.0842 -0.6477 -0.0116
   79ccc     H3 2266   2.330   8.883   8.279  0.1355 -0.2889 -1.0265
   79ccc     H4 2267   2.206   8.956   8.170  2.8267  0.7187 -0.3019
   79ccc     C1 2268   2.137   8.806   8.313  0.6826  0.4445 -0.2155
   79ccc     H1 2269   2.132   8.800   8.422  0.2354  1.1438 -0.1908
   79ccc     H2 2270   2.190   8.717   8.276 -0.9636 -1.2643  1.3813
   79ccc     N1 2271   2.004   8.810   8.256  0.4028 -0.3817  0.2654
   79ccc     C4 2272   1.961   8.689   8.192 -0.0401 -0.1816  0.3967
   79ccc     H7 2273   1.855   8.693   8.163  0.2047  0.4799 -0.4425
   79ccc     H8 2274   1.991   8.602   8.252  0.7090  0.0008  0.2953
   79ccc     C5 2275   2.029   8.676   8.055  1.1129  0.1522  0.2436
   79ccc     H9 2276   1.998   8.756   7.986  1.4552 -0.0171 -0.1086
   79ccc    H10 2277   2.137   8.690   8.067  1.2829  1.9825 -2.4800
   79ccc     C6 2278   2.004   8.542   7.989  0.2291 -0.2202 -0.0174
   79ccc     O2 2279   1.896   8.511   7.947 -0.8191  0.0689 -0.2220
   79ccc     O3 2280   2.071   8.447   8.025 -0.3000 -0.1445 -0.1469
   79ccc     C7 2281   1.907   8.861   8.356  0.0310 -0.6866 -0.1235
   79ccc    H11 2282   1.900   8.796   8.443  1.9755  0.9204  1.3507
   79ccc    H12 2283   1.942   8.961   8.386 -1.2523  0.2182 -1.4491
   79ccc     C8 2284   1.770   8.887   8.305  0.1155 -0.1534  0.2310
   79ccc    H13 2285   1.782   8.942   8.211  1.6157  0.2482  0.6416
   79ccc    H14 2286   1.714   8.794   8.288 -1.0327  0.5529 -0.0157
   79ccc     C9 2287   1.679   8.959   8.398  0.6293 -0.8415 -0.1647
   79ccc     O4 2288   1.591   8.900   8.468 -0.2549 -0.7111  0.4678
   79ccc     O5 2289   1.704   9.075   8.431 -0.4519 -0.0408  0.0217
   79ccc     O1 2290   2.316   9.143   8.321  0.5294  0.2950  0.0390
   80ccc     C3 2291   2.655   9.351   7.907  0.2318 -0.1367 -0.3173
   80ccc     H5 2292   2.602   9.445   7.885  0.0347 -0.2065 -0.1509
   80ccc     H6 2293   2.735   9.327   7.836  1.0928  2.4054 -0.2859
   80ccc     C2 2294   2.545   9.246   7.917  0.2897  0.0316  0.4454
   80ccc     H3 2295   2.447   9.295   7.925  1.2551  2.2567 -0.4988
   80ccc     H4 2296   2.554   9.198   8.015  3.4227  0.6011  0.5372
   80ccc     C1 2297   2.540   9.132   7.810 -0.4218 -0.3812  0.2013
   80ccc     H1 2298   2.462   9.061   7.840  0.8753 -1.8935  0.1122
   80ccc     H2 2299   2.641   9.092   7.826 -0.1988 -0.4709 -1.3014
   80ccc     N1 2300   2.521   9.167   7.663  0.7549 -0.1620  0.4320
   80ccc     C4 2301   2.397   9.249   7.644 -1.1682 -0.2610  0.4795
   80ccc     H7 2302   2.397   9.290   7.542 -0.0468 -1.8903 -0.2183
   80ccc     H8 2303   2.395   9.337   7.709 -0.1551  0.6256 -0.6461
   80ccc     C5 2304   2.262   9.179   7.659 -0.3298 -0.0912 -0.3839
   80ccc     H9 2305   2.252   9.111   7.574  2.1134  1.8354 -2.3520
   80ccc    H10 2306   2.246   9.129   7.756 -0.7012 -2.1449 -1.4447
   80ccc     C6 2307   2.154   9.282   7.633 -0.7914  1.0160 -0.2299
   80ccc     O2 2308   2.078   9.267   7.538  0.2749  0.0052 -0.1270
   80ccc     O3 2309   2.099   9.318   7.733 -0.0303  0.0788  0.2335
   80ccc     C7 2310   2.506   9.046   7.579  0.3168 -0.3184 -0.7490
   80ccc    H11 2311   2.434   8.975   7.622  1.2091 -0.4967  0.4947
   80ccc    H12 2312   2.472   9.070   7.477 -2.6231  0.2269  0.2771
   80ccc     C8 2313   2.645   8.976   7.568 -0.5827  0.8845  0.0662
   80ccc    H13 2314   2.708   9.042   7.508 -0.2822  0.3304 -0.2324
   80ccc    H14 2315   2.689   8.955   7.666 -1.4861  1.4592  0.6149
   80ccc     C9 2316   2.631   8.840   7.490  0.0631  0.5530 -0.7523
   80ccc     O4 2317   2.580   8.844   7.380  0.1626 -0.1484  0.1355
   80ccc     O5 2318   2.688   8.741   7.535  0.3560 -0.7809 -0.4373
   80ccc     O1 2319   2.715   9.378   8.037 -0.4575 -0.3197 -0.2068
   81ccc     C3 2320   1.938   9.435   9.272  0.6766 -0.7302  0.6740
   81ccc     H5 2321   1.978   9.413   9.372  2.0538  3.3440  1.1802
   81ccc     H6 2322   1.880   9.527   9.286  0.3700 -0.4536 -1.9307
   81ccc     C2 2323   1.828   9.333   9.231 -0.0966  0.3054  0.5721
   81ccc     H3 2324   1.764   9.374   9.151  1.1422  1.7379  0.2670
   81ccc     H4 2325   1.766   9.317   9.320 -1.4899  1.7568 -0.0711
   81ccc     C1 2326   1.884   9.199   9.186 -0.8129  0.4114 -0.1865
   81ccc     H1 2327   1.940   9.158   9.271  1.5191  1.2627 -1.2343
   81ccc     H2 2328   1.955   9.223   9.106 -2.0612 -0.5438 -1.6468
   81ccc     N1 2329   1.784   9.108   9.136 -0.5216  0.1814 -0.0860
   81ccc     C4 2330   1.684   9.057   9.230 -0.3103  0.1475  0.7242
   81ccc     H7 2331   1.618   8.978   9.192 -2.8605  1.7766  1.4412
   81ccc     H8 2332   1.609   9.131   9.262 -1.0282 -0.2013 -0.1090
   81ccc     C5 2333   1.758   8.995   9.353  0.2851 -0.0527  0.6286
   81ccc     H9 2334   1.850   8.948   9.317  0.0637  1.0733 -1.6272
   81ccc    H10 2335   1.790   9.067   9.430  0.0720  0.0087  0.6607
   81ccc     C6 2336   1.666   8.910   9.424 -0.2773  0.7062 -0.3285
   81ccc     O2 2337   1.700   8.791   9.439  0.5451 -0.1514  0.0037
   81ccc     O3 2338   1.600   8.966   9.509  0.0131  0.4752  0.1777
   81ccc     C7 2339   1.735   9.126   8.998  0.2041 -0.1093  0.4382
   81ccc    H11 2340   1.639   9.178   9.006  0.2955  0.2657 -0.7588
   81ccc    H12 2341   1.803   9.185   8.936 -1.0944  0.7888 -0.1857
   81ccc     C8 2342   1.703   8.992   8.929 -0.6359 -0.4419 -0.2702
   81ccc    H13 2343   1.794   8.938   8.899 -2.1990 -2.2845 -2.0008
   81ccc    H14 2344   1.649   8.926   8.998 -2.3915 -0.4368 -1.5714
   81ccc     C9 2345   1.627   9.002   8.794 -0.3187 -0.3665 -0.1407
   81ccc     O4 2346   1.663   9.096   8.724  0.2420 -0.2113 -0.1685
   81ccc     O5 2347   1.540   8.925   8.751 -0.2193 -0.6070  0.5567
   81ccc     O1 2348   2.041   9.437   9.171  0.1701 -0.3350  0.4606
   82ccc     C3 2349   2.254   8.673   9.576 -0.5390 -0.5266 -0.4849
   82ccc     H5 2350   2.151   8.637   9.558 -1.0433  0.1840  0.8613
   82ccc     H6 2351   2.333   8.615   9.526  2.0453 -0.4942  3.1513
   82ccc     C2 2352   2.295   8.662   9.728  0.1358  0.3571  0.1419
   82ccc     H3 2353   2.402   8.679   9.740  0.1089  0.4405  0.2669
   82ccc     H4 2354   2.279   8.557   9.756  0.1705 -0.2198 -1.7936
   82ccc     C1 2355   2.207   8.754   9.817  0.2759 -0.1858  0.5356
   82ccc     H1 2356   2.207   8.857   9.781 -1.6120 -0.8802 -1.6787
   82ccc     H2 2357   2.258   8.768   9.913  0.9582 -0.1069  0.1690
   82ccc     N1 2358   2.074   8.703   9.841  0.4222  0.6043 -0.1006
   82ccc     C4 2359   2.073   8.607   9.957  0.2164 -0.1551 -0.2864
   82ccc     H7 2360   2.082   8.666  10.050  0.6901 -0.8202  0.0993
   82ccc     H8 2361   2.158   8.538   9.955  0.7976  0.5620 -1.2770
   82ccc     C5 2362   1.961   8.516   9.978  0.8897  0.0873 -0.4624
   82ccc     H9 2363   1.860   8.558   9.986  1.0412  0.3176  0.2642
   82ccc    H10 2364   1.961   8.444   9.894  2.5139  1.1106 -1.3737
   82ccc     C6 2365   1.978   8.437  10.104  0.5727  0.5531 -0.6757
   82ccc     O2 2366   1.941   8.487  10.210  0.4629  0.2948 -0.1703
   82ccc     O3 2367   2.024   8.327  10.105 -0.1745 -0.5412  0.1010
   82ccc     C7 2368   1.974   8.807   9.864  0.0223  0.5209  0.1216
   82ccc    H11 2369   1.883   8.759   9.903  0.3641 -0.1391  0.1152
   82ccc    H12 2370   2.011   8.876   9.941  1.0453 -3.4027  3.5392
   82ccc     C8 2371   1.952   8.891   9.739  0.7713  0.5117  0.1237
   82ccc    H13 2372   2.045   8.945   9.714  1.3671 -0.3595  0.4128
   82ccc    H14 2373   1.924   8.829   9.653 -0.0746  0.4533  0.4379
   82ccc     C9 2374   1.834   8.981   9.763  0.0399  0.2961 -0.5731
   82ccc     O4 2375   1.833   9.100   9.744 -0.0243  0.0564 -0.6893
   82ccc     O5 2376   1.723   8.936   9.771 -0.5928  0.3230  0.2760
   82ccc     O1 2377   2.271   8.814   9.557  0.2797  0.0259 -0.2104
   83ccc     C3 2378   2.554   9.600   7.479  0.8182 -0.1886 -0.2095
   83ccc     H5 2379   2.612   9.660   7.408  2.7128  2.2041  3.0949
   83ccc     H6 2380   2.532   9.504   7.430  1.7925  1.2411 -3.8017
   83ccc     C2 2381   2.423   9.681   7.498 -0.4188 -0.1296  0.0247
   83ccc     H3 2382   2.364   9.684   7.405  0.5542  0.1976 -0.6046
   83ccc     H4 2383   2.454   9.784   7.522  2.7638 -1.2195  1.0687
   83ccc     C1 2384   2.341   9.623   7.611 -0.2135 -0.1551  0.1047
   83ccc     H1 2385   2.405   9.608   7.699  1.4698 -0.2261 -1.0772
   83ccc     H2 2386   2.292   9.529   7.582 -0.6800  0.7428 -2.1997
   83ccc     N1 2387   2.225   9.701   7.641  0.1628 -0.2579 -0.5712
   83ccc     C4 2388   2.131   9.706   7.532  0.2044  0.2838  0.2959
   83ccc     H7 2389   2.076   9.612   7.522 -1.2242  1.1660 -0.4219
   83ccc     H8 2390   2.180   9.704   7.434 -2.5296  0.4738 -1.1642
   83ccc     C5 2391   2.038   9.821   7.542 -0.4771  0.3248  0.4467
   83ccc     H9 2392   1.987   9.822   7.639  2.3785 -2.1576  2.1443
   83ccc    H10 2393   2.104   9.908   7.537  1.4744 -1.1655 -2.0725
   83ccc     C6 2394   1.939   9.820   7.431 -0.1547 -0.0135 -0.1931
   83ccc     O2 2395   1.950   9.913   7.351 -0.6006  0.1242 -0.3476
   83ccc     O3 2396   1.840   9.748   7.420  0.3476 -0.7718 -0.4488
   83ccc     C7 2397   2.147   9.669   7.763  0.5394 -0.3176 -0.3037
   83ccc    H11 2398   2.092   9.756   7.802 -1.1727 -1.6063  0.3079
   83ccc    H12 2399   2.074   9.590   7.744  1.9772 -1.7480 -0.0966
   83ccc     C8 2400   2.234   9.624   7.881  0.1512 -0.5948  0.5606
   83ccc    H13 2401   2.260   9.520   7.857 -1.0117 -0.8574  0.4163
   83ccc    H14 2402   2.317   9.694   7.898  0.6315 -0.7263 -1.0351
   83ccc     C9 2403   2.148   9.613   8.000 -0.1878  0.5070 -0.3635
   83ccc     O4 2404   2.101   9.503   8.026  0.3976  0.0338 -0.0366
   83ccc     O5 2405   2.099   9.713   8.051  0.3976 -0.2070 -0.1697
   83ccc     O1 2406   2.631   9.586   7.598  0.5569 -0.0001  0.6697
   84ccc     C3 2407   3.386  10.056   8.151  0.2862 -0.0249  0.1601
   84ccc     H5 2408   3.399  10.137   8.078  1.3319  0.2369  0.6218
   84ccc     H6 2409   3.306  10.086   8.220  0.8729 -0.3442  0.9993
   84ccc     C2 2410   3.509  10.040   8.240  0.2543  0.0333  0.1320
   84ccc     H3 2411   3.499   9.947   8.297 -0.7376 -0.0021 -0.0825
   84ccc     H4 2412   3.517  10.117   8.318  1.9162 -1.0987  1.1464
   84ccc     C1 2413   3.639  10.043   8.161 -0.4979 -0.1585  0.3951
   84ccc     H1 2414   3.630  10.138   8.106  0.0422 -0.1250  0.3583
   84ccc     H2 2415   3.639   9.956   8.095 -4.6619 -0.1595  0.1305
   84ccc     N1 2416   3.768  10.039   8.238 -0.0581 -0.0199 -0.1790
   84ccc     C4 2417   3.890  10.062   8.156 -1.3268 -0.1111 -0.1576
   84ccc     H7 2418   3.921   9.968   8.108 -0.4300 -0.1510  0.4605
   84ccc     H8 2419   3.971  10.101   8.219  0.4866 -0.1097 -2.3360
   84ccc     C5 2420   3.875  10.178   8.051  0.1649  0.2350  0.4413
   84ccc     H9 2421   3.803  10.155   7.972  0.7681  0.2698 -0.1285
   84ccc    H10 2422   3.850  10.275   8.096  1.8703  0.5071  0.8926
   84ccc     C6 2423   4.003  10.199   7.981  0.3955 -0.3154 -0.2110
   84ccc     O2 2424   4.084  10.289   8.004  0.0388  0.3331  0.2371
   84ccc     O3 2425   4.038  10.116   7.899  0.0992 -0.0007 -0.2396
   84ccc     C7 2426   3.784   9.925   8.334  0.3569 -0.3484  0.1509
   84ccc    H11 2427   3.689   9.925   8.389  0.9655 -1.5629  1.2547
   84ccc    H12 2428   3.786   9.827   8.285  1.2869 -0.5936  0.6639
   84ccc     C8 2429   3.893   9.946   8.433  0.1794  0.1444  0.4687
   84ccc    H13 2430   3.993   9.940   8.389 -0.3764  2.5090 -1.3631
   84ccc    H14 2431   3.874  10.034   8.496 -0.5282 -0.2725  0.8509
   84ccc     C9 2432   3.887   9.827   8.526 -0.1396  0.0662  0.3493
   84ccc     O4 2433   3.921   9.719   8.482 -0.5529 -0.3786  0.4460
   84ccc     O5 2434   3.872   9.846   8.644 -0.0314 -0.1212  0.1687
   84ccc     O1 2435   3.350   9.930   8.081  0.1353 -0.1330  0.5690
   85ccc     C3 2436   4.110   8.989   7.826  0.1186  0.2649  0.1744
   85ccc     H5 2437   4.179   9.022   7.747  0.4367 -1.4697 -0.3184
   85ccc     H6 2438   4.141   9.016   7.928  1.4658  1.2807 -0.4624
   85ccc     C2 2439   4.112   8.842   7.820 -0.2098  0.2998  0.2548
   85ccc     H3 2440   4.216   8.809   7.808 -0.1676  1.0533 -1.8484
   85ccc     H4 2441   4.054   8.802   7.736 -0.7407 -0.7761  1.1008
   85ccc     C1 2442   4.034   8.782   7.936 -0.4083  0.3750 -0.7227
   85ccc     H1 2443   3.931   8.819   7.947 -0.1695  0.5703  1.1560
   85ccc     H2 2444   4.086   8.825   8.023 -0.1290 -0.5805 -0.4062
   85ccc     N1 2445   4.026   8.633   7.945  0.0776  0.3965  0.3272
   85ccc     C4 2446   4.009   8.562   8.077  0.1632 -0.6283  0.0470
   85ccc     H7 2447   4.005   8.453   8.062 -0.1833 -0.4590 -1.2612
   85ccc     H8 2448   3.917   8.589   8.130 -0.3911 -1.4372 -0.4757
   85ccc     C5 2449   4.127   8.595   8.166 -0.1018  0.4387  0.5916
   85ccc     H9 2450   4.222   8.571   8.117  0.0308 -3.2712  2.3051
   85ccc    H10 2451   4.123   8.702   8.191 -1.1155  0.3772  0.7431
   85ccc     C6 2452   4.125   8.520   8.300  0.1680  0.0697  0.3790
   85ccc     O2 2453   4.100   8.582   8.406 -0.1884  0.0585  0.0220
   85ccc     O3 2454   4.096   8.401   8.303 -0.2343 -0.0672  0.7018
   85ccc     C7 2455   3.934   8.572   7.844 -0.6219 -0.3786  0.3196
   85ccc    H11 2456   3.970   8.599   7.744 -3.3667 -0.5789 -0.7970
   85ccc    H12 2457   3.942   8.463   7.850 -2.3349 -0.5961 -0.7940
   85ccc     C8 2458   3.785   8.609   7.851 -0.0103 -0.1232  0.3416
   85ccc    H13 2459   3.752   8.616   7.956 -0.4903  1.3652  0.1101
   85ccc    H14 2460   3.763   8.702   7.798 -1.5928  0.0074  1.1835
   85ccc     C9 2461   3.704   8.503   7.798 -0.1605  0.2623  0.7904
   85ccc     O4 2462   3.735   8.435   7.703 -0.4453  0.5204 -0.9581
   85ccc     O5 2463   3.586   8.490   7.830  0.7323 -0.6803 -0.4199
   85ccc     O1 2464   3.978   9.041   7.793  0.1191  0.3964  0.1349
   86ccc     C3 2465   3.345   9.191   7.436  0.3142 -0.2706  0.1025
   86ccc     H5 2466   3.246   9.222   7.473  1.3697 -0.0742  3.0250
   86ccc     H6 2467   3.358   9.227   7.334  2.0664 -1.0813  0.0085
   86ccc     C2 2468   3.361   9.040   7.437 -0.0601  0.4583 -0.2493
   86ccc     H3 2469   3.365   9.003   7.540  1.5676  0.6907 -0.2004
   86ccc     H4 2470   3.450   9.010   7.380 -0.4318  0.1307 -0.6676
   86ccc     C1 2471   3.233   8.971   7.375 -0.0056 -0.8102 -0.3974
   86ccc     H1 2472   3.212   9.029   7.284  0.0593  0.1189  0.1707
   86ccc     H2 2473   3.150   8.974   7.447  0.0203 -0.1670 -0.3911
   86ccc     N1 2474   3.263   8.832   7.344 -0.8297  0.0826 -0.8563
   86ccc     C4 2475   3.305   8.737   7.448  0.0013  0.5970 -0.0915
   86ccc     H7 2476   3.217   8.696   7.499 -0.1695 -0.1943 -0.9935
   86ccc     H8 2477   3.368   8.790   7.520 -1.0291  1.1643  0.4115
   86ccc     C5 2478   3.379   8.619   7.390  0.1379 -0.2580 -0.4238
   86ccc     H9 2479   3.336   8.580   7.297 -2.2977  1.2223 -0.0197
   86ccc    H10 2480   3.485   8.646   7.379  0.7961 -1.6021  2.0434
   86ccc     C6 2481   3.362   8.498   7.477 -0.0668  0.6307  0.0751
   86ccc     O2 2482   3.458   8.441   7.521  0.2947 -0.6354 -0.5702
   86ccc     O3 2483   3.248   8.455   7.496 -0.3845 -0.3233  0.2123
   86ccc     C7 2484   3.156   8.778   7.254  0.9155 -0.3652 -0.8010
   86ccc    H11 2485   3.150   8.830   7.157  0.9152 -1.9724 -1.7063
   86ccc    H12 2486   3.181   8.672   7.238  2.2161 -0.8807  3.5496
   86ccc     C8 2487   3.020   8.779   7.330 -0.3615  0.1695  0.9442
   86ccc    H13 2488   3.002   8.800   7.436 -1.2803 -2.8113  1.4663
   86ccc    H14 2489   2.951   8.852   7.287 -0.7357 -0.9318 -0.4033
   86ccc     C9 2490   2.957   8.645   7.327 -0.4692  0.9836 -1.0744
   86ccc     O4 2491   2.851   8.623   7.274 -0.0418 -0.3877 -0.5924
   86ccc     O5 2492   2.999   8.556   7.403  0.3440 -0.2081  0.4428
   86ccc     O1 2493   3.460   9.248   7.502  0.1580 -0.4658  0.4457
   87ccc     C3 2494   3.518   6.804   8.715  0.3384  0.5201 -0.2597
   87ccc     H5 2495   3.570   6.763   8.802 -2.1787 -1.4062  0.4224
   87ccc     H6 2496   3.426   6.747   8.698  0.5070 -1.2010  3.6948
   87ccc     C2 2497   3.607   6.787   8.599 -0.5731  0.0436  0.2889
   87ccc     H3 2498   3.566   6.846   8.516  0.0862  2.2798  1.4625
   87ccc     H4 2499   3.598   6.685   8.561 -2.7105 -0.3344  1.6514
   87ccc     C1 2500   3.755   6.832   8.621 -0.2068  0.3667 -0.1043
   87ccc     H1 2501   3.810   6.763   8.687 -0.8728 -1.2026 -1.1464
   87ccc     H2 2502   3.749   6.934   8.664 -0.5050  1.4835 -2.6388
   87ccc     N1 2503   3.823   6.838   8.491  0.0809 -0.4199 -0.6222
   87ccc     C4 2504   3.942   6.918   8.500  0.2193  0.2033  0.4762
   87ccc     H7 2505   3.907   7.010   8.550  0.8657 -0.3200  1.9233
   87ccc     H8 2506   3.976   6.948   8.400  0.2383 -0.4751  0.2730
   87ccc     C5 2507   4.054   6.860   8.577  0.0097  0.2159 -0.1333
   87ccc     H9 2508   4.023   6.840   8.680 -0.6986  0.6534 -0.2548
   87ccc    H10 2509   4.082   6.761   8.539 -1.3968 -1.0408  1.9038
   87ccc     C6 2510   4.178   6.947   8.562  1.0032  0.4776  0.2978
   87ccc     O2 2511   4.209   7.020   8.654  0.1629 -0.7071  0.4039
   87ccc     O3 2512   4.263   6.907   8.491 -0.1843  0.2255 -0.5887
   87ccc     C7 2513   3.837   6.711   8.419 -0.7145  0.3331 -0.0478
   87ccc    H11 2514   3.921   6.649   8.451 -0.6266 -0.0507 -1.0034
   87ccc    H12 2515   3.744   6.653   8.427 -0.3295 -0.2081  0.5519
   87ccc     C8 2516   3.841   6.739   8.272  0.6537  0.1616  0.4344
   87ccc    H13 2517   3.758   6.800   8.234  1.4951  1.4517  0.5949
   87ccc    H14 2518   3.936   6.790   8.250  1.3514 -1.0214  0.6352
   87ccc     C9 2519   3.839   6.612   8.188  0.0382  0.1843 -0.6850
   87ccc     O4 2520   3.923   6.526   8.212  0.6643 -0.3898 -0.2169
   87ccc     O5 2521   3.739   6.568   8.126 -0.4220 -0.7111 -0.3204
   87ccc     O1 2522   3.494   6.944   8.730  0.1814  0.9657 -0.8829
   88ccc     C3 2523   4.077   6.503   9.007 -0.1706 -0.1882  0.1130
   88ccc     H5 2524   4.161   6.539   9.069  0.1162 -1.2673  0.3732
   88ccc     H6 2525   4.023   6.437   9.077 -1.6505  0.4299 -0.4205
   88ccc     C2 2526   4.131   6.424   8.885 -0.2248 -0.1149 -0.5024
   88ccc     H3 2527   4.040   6.383   8.841 -1.4417 -0.0061  1.7382
   88ccc     H4 2528   4.187   6.336   8.917 -0.0679  0.0369 -0.3555
   88ccc     C1 2529   4.227   6.502   8.796 -0.0938 -1.2553  1.2163
   88ccc     H1 2530   4.162   6.576   8.748 -1.2437 -2.8069  0.2974
   88ccc     H2 2531   4.266   6.426   8.727 -0.5235 -0.2111 -0.2321
   88ccc     N1 2532   4.337   6.582   8.864 -0.1354  0.2423 -0.2151
   88ccc     C4 2533   4.411   6.504   8.962  0.3660 -0.1109  0.1638
   88ccc     H7 2534   4.345   6.447   9.028  0.7161  1.3767  1.8732
   88ccc     H8 2535   4.466   6.570   9.031  0.0768  1.3948 -0.9897
   88ccc     C5 2536   4.508   6.402   8.902 -0.2332  0.0679 -0.0560
   88ccc     H9 2537   4.461   6.334   8.829 -1.8473  2.5089 -1.4115
   88ccc    H10 2538   4.594   6.453   8.859  0.2407 -0.6504  0.0158
   88ccc     C6 2539   4.569   6.326   9.011 -1.1779  0.6074  0.1046
   88ccc     O2 2540   4.512   6.228   9.069  0.0914 -0.0141 -0.0374
   88ccc     O3 2541   4.679   6.353   9.056  0.3645 -0.5702 -0.0528
   88ccc     C7 2542   4.418   6.662   8.771 -0.7375 -0.1448 -0.6152
   88ccc    H11 2543   4.484   6.603   8.706 -1.5509 -0.4542 -1.1861
   88ccc    H12 2544   4.351   6.723   8.709 -0.2432  0.0777 -0.9302
   88ccc     C8 2545   4.513   6.754   8.853  0.4362 -0.8432 -0.1881
   88ccc    H13 2546   4.450   6.804   8.927 -0.9554 -1.3048 -1.0037
   88ccc    H14 2547   4.591   6.695   8.902  0.5125  0.5456  1.4697
   88ccc     C9 2548   4.571   6.863   8.762 -0.4732  0.1982 -0.7402
   88ccc     O4 2549   4.513   6.968   8.748  0.4497  0.5262  0.3204
   88ccc     O5 2550   4.645   6.829   8.674 -0.1237 -0.4184 -0.2865
   88ccc     O1 2551   4.001   6.620   8.959 -0.0102 -0.2619 -0.3684
   89ccc     C3 2552   4.254   7.655   9.591  0.4014  0.7072  0.1353
   89ccc     H5 2553   4.266   7.752   9.642  0.5795  1.4977 -1.3493
   89ccc     H6 2554   4.333   7.588   9.627  1.0285  0.4374 -1.6265
   89ccc     C2 2555   4.264   7.671   9.436  0.2359 -0.0319 -0.0859
   89ccc     H3 2556   4.356   7.729   9.421 -0.7058  1.5713  0.2030
   89ccc     H4 2557   4.173   7.723   9.405 -0.1859 -0.0676  1.0742
   89ccc     C1 2558   4.278   7.531   9.370  0.0383  0.3396 -0.1370
   89ccc     H1 2559   4.182   7.481   9.390 -0.0576 -0.3678 -2.1153
   89ccc     H2 2560   4.354   7.480   9.429  0.7496  1.2410 -0.2496
   89ccc     N1 2561   4.299   7.530   9.225  0.0397 -0.0913 -0.2814
   89ccc     C4 2562   4.412   7.612   9.186  0.0744  0.1895  0.1237
   89ccc     H7 2563   4.394   7.716   9.213 -1.6636  0.2759 -1.1311
   89ccc     H8 2564   4.404   7.624   9.077  0.6755  0.4579  0.1070
   89ccc     C5 2565   4.556   7.579   9.236 -0.5739 -0.1888 -0.2843
   89ccc     H9 2566   4.570   7.618   9.337  1.2627 -1.8663  0.1718
   89ccc    H10 2567   4.559   7.470   9.250 -3.0151 -0.5043 -1.7025
   89ccc     C6 2568   4.650   7.622   9.132  0.0984 -0.5837 -0.0721
   89ccc     O2 2569   4.694   7.545   9.051 -0.2649 -0.2851 -0.5476
   89ccc     O3 2570   4.678   7.735   9.119  0.1690 -0.1315 -0.5021
   89ccc     C7 2571   4.298   7.388   9.178 -0.2645 -0.5247  0.5946
   89ccc    H11 2572   4.392   7.339   9.203 -0.5520 -0.3957  2.0328
   89ccc    H12 2573   4.213   7.335   9.224 -0.2336 -0.6076  0.5557
   89ccc     C8 2574   4.280   7.377   9.028 -0.6363  0.3160 -0.1405
   89ccc    H13 2575   4.175   7.357   9.002  0.1805 -1.5578 -2.3671
   89ccc    H14 2576   4.313   7.471   8.982  1.4104 -0.4541 -0.3331
   89ccc     C9 2577   4.373   7.280   8.963 -0.2295  0.0034 -0.0548
   89ccc     O4 2578   4.487   7.319   8.942 -0.4334  0.4971 -0.0214
   89ccc     O5 2579   4.347   7.165   8.928  0.5675 -0.6240 -0.5445
   89ccc     O1 2580   4.128   7.601   9.621 -0.3940 -0.2832 -0.2299
   90ccc     C3 2581   3.766   7.693  10.545  0.4490 -0.3827  0.0853
   90ccc     H5 2582   3.782   7.593  10.587  0.9885 -0.8211 -1.1077
   90ccc     H6 2583   3.837   7.759  10.596 -0.0148  1.8878 -2.0034
   90ccc     C2 2584   3.624   7.746  10.568 -0.5281  0.4197  0.1008
   90ccc     H3 2585   3.557   7.690  10.501 -0.0937 -2.0423  1.6028
   90ccc     H4 2586   3.617   7.851  10.538 -0.7173  0.3843  0.0135
   90ccc     C1 2587   3.554   7.730  10.709 -0.1496 -0.3225  0.7867
   90ccc     H1 2588   3.546   7.622  10.730  1.7839 -0.4063  1.2806
   90ccc     H2 2589   3.448   7.756  10.698  0.1485  0.2222 -1.2491
   90ccc     N1 2590   3.618   7.806  10.811 -0.7502 -0.1927 -0.3515
   90ccc     C4 2591   3.598   7.752  10.947  0.2555  0.9644  0.3987
   90ccc     H7 2592   3.492   7.761  10.973 -0.2503  2.9128 -2.0269
   90ccc     H8 2593   3.661   7.806  11.019 -1.5745 -0.0257  2.9295
   90ccc     C5 2594   3.651   7.605  10.961  0.0908  0.3048 -0.5076
   90ccc     H9 2595   3.559   7.548  10.944 -0.2540  0.9350 -0.7842
   90ccc    H10 2596   3.722   7.567  10.887 -0.2744 -1.6089  0.0659
   90ccc     C6 2597   3.702   7.570  11.097  0.3523 -0.2110 -0.1242
   90ccc     O2 2598   3.646   7.607  11.197 -0.1039 -0.1035 -0.6105
   90ccc     O3 2599   3.813   7.520  11.118  0.0361 -0.1241  0.0029
   90ccc     C7 2600   3.577   7.950  10.806 -0.3403 -0.3711 -0.2434
   90ccc    H11 2601   3.582   7.991  10.704  1.6267  0.7470  0.2595
   90ccc    H12 2602   3.475   7.964  10.845  0.7896  0.7560  2.5408
   90ccc     C8 2603   3.665   8.037  10.899 -0.2241 -1.0068 -0.1992
   90ccc    H13 2604   3.641   8.035  11.006  2.4276  4.0993  0.7691
   90ccc    H14 2605   3.770   8.006  10.890  0.0672 -0.3812  0.8390
   90ccc     C9 2606   3.665   8.182  10.861 -0.0645 -0.5609 -0.1459
   90ccc     O4 2607   3.764   8.230  10.809  0.2444  0.4163 -0.2504
   90ccc     O5 2608   3.567   8.258  10.852  0.2873 -0.0524  0.4943
   90ccc     O1 2609   3.797   7.687  10.402 -0.1532 -0.3587  0.1807
   91ccc     C3 2610   4.345   9.653   7.840 -0.3498 -0.3117  0.1000
   91ccc     H5 2611   4.339   9.689   7.736 -0.9400  0.3857  0.3685
   91ccc     H6 2612   4.253   9.679   7.892 -0.6115  0.7544 -0.8514
   91ccc     C2 2613   4.450   9.725   7.917  0.0802  0.0244 -0.0965
   91ccc     H3 2614   4.438   9.833   7.902 -0.2539  0.0060  0.0472
   91ccc     H4 2615   4.546   9.701   7.869  0.0904  2.1274 -1.2489
   91ccc     C1 2616   4.470   9.693   8.069  0.3050  0.0967 -0.3296
   91ccc     H1 2617   4.555   9.747   8.111 -1.2168  1.9584  0.5082
   91ccc     H2 2618   4.498   9.587   8.075  0.7608  0.2890  1.6169
   91ccc     N1 2619   4.346   9.721   8.147 -0.0080 -0.3988 -0.6173
   91ccc     C4 2620   4.306   9.865   8.139 -0.0128  0.1622  0.2190
   91ccc     H7 2621   4.223   9.894   8.204  0.1353 -0.4867  0.7049
   91ccc     H8 2622   4.252   9.891   8.047 -1.4803 -0.0709  0.9885
   91ccc     C5 2623   4.419   9.969   8.170  0.0080 -0.3345  0.0500
   91ccc     H9 2624   4.458   9.959   8.272  1.0494  1.5991 -0.1203
   91ccc    H10 2625   4.497   9.962   8.093  1.6402  0.1893  1.5841
   91ccc     C6 2626   4.347  10.101   8.161 -0.2019  0.0407 -0.0213
   91ccc     O2 2627   4.354  10.172   8.056  0.0508  0.3226  0.2160
   91ccc     O3 2628   4.292  10.158   8.251 -0.5657 -0.1809 -0.2050
   91ccc     C7 2629   4.352   9.671   8.282  0.1896  1.0679 -0.0729
   91ccc    H11 2630   4.451   9.691   8.325  1.6156 -1.9320 -1.6208
   91ccc    H12 2631   4.284   9.722   8.352 -2.0401 -1.1729 -0.4667
   91ccc     C8 2632   4.326   9.522   8.288 -0.1905 -0.2427 -0.2912
   91ccc    H13 2633   4.250   9.496   8.213  1.2537  0.9095 -2.2343
   91ccc    H14 2634   4.421   9.479   8.255  0.5331  1.6497 -0.7911
   91ccc     C9 2635   4.280   9.481   8.427 -0.5041  0.5102 -0.7299
   91ccc     O4 2636   4.162   9.497   8.454 -0.3042  0.2267 -0.3720
   91ccc     O5 2637   4.350   9.407   8.493  0.1572  0.5228 -0.0419
   91ccc     O1 2638   4.374   9.513   7.849 -0.2902  0.5234 -0.0326
   92ccc     C3 2639   4.628   8.647   7.853  0.4616 -0.2513  0.7166
   92ccc     H5 2640   4.614   8.687   7.752 -5.6602  0.5272  1.4907
   92ccc     H6 2641   4.735   8.638   7.874  0.6665 -1.7650 -0.6800
   92ccc     C2 2642   4.569   8.503   7.863 -0.0295 -0.3378 -0.0018
   92ccc     H3 2643   4.586   8.477   7.968  2.1604 -0.5644 -0.3796
   92ccc     H4 2644   4.622   8.430   7.800 -1.0730 -1.3494  0.2407
   92ccc     C1 2645   4.411   8.493   7.845 -0.0495 -0.3170  0.1470
   92ccc     H1 2646   4.386   8.533   7.745 -2.4664  0.8126  1.1270
   92ccc     H2 2647   4.350   8.548   7.917 -0.2460 -2.6365  1.8364
   92ccc     N1 2648   4.364   8.354   7.852  0.2012  0.1616  0.1205
   92ccc     C4 2649   4.361   8.299   7.988  0.1432 -0.1510  0.1800
   92ccc     H7 2650   4.272   8.332   8.042 -0.1283 -0.9833  0.2608
   92ccc     H8 2651   4.451   8.322   8.046  0.6243 -0.2873 -0.4970
   92ccc     C5 2652   4.355   8.151   7.984  0.0405  0.0342  0.1581
   92ccc     H9 2653   4.310   8.107   7.894  1.0277 -0.7193  0.0107
   92ccc    H10 2654   4.462   8.126   7.976  0.3309  1.4861 -0.8711
   92ccc     C6 2655   4.300   8.077   8.105 -0.0633 -0.4767  0.5602
   92ccc     O2 2656   4.238   8.127   8.198  1.1224  0.4910 -0.1416
   92ccc     O3 2657   4.327   7.956   8.108  0.1846  0.0382 -0.6969
   92ccc     C7 2658   4.227   8.348   7.801 -0.6146 -0.1599  0.7741
   92ccc    H11 2659   4.180   8.251   7.821 -0.5331 -0.2264  0.6442
   92ccc    H12 2660   4.166   8.424   7.851 -1.1262  1.0379 -1.4880
   92ccc     C8 2661   4.218   8.356   7.646  0.3279 -0.5540 -0.9237
   92ccc    H13 2662   4.263   8.440   7.592 -0.3652 -0.2902 -1.1046
   92ccc    H14 2663   4.275   8.270   7.608 -2.3103 -3.8827  1.9485
   92ccc     C9 2664   4.077   8.346   7.606 -0.7675  0.8470  0.4444
   92ccc     O4 2665   4.031   8.423   7.524 -0.4079  0.3697 -0.0324
   92ccc     O5 2666   4.016   8.252   7.641 -0.4568 -0.2428 -0.7519
   92ccc     O1 2667   4.556   8.732   7.945  0.3766  0.3885 -0.9160
   93ccc     C3 2668   3.670   8.935   8.959  0.6999  0.6153  0.1751
   93ccc     H5 2669   3.715   8.870   8.883  0.7391  1.0429 -0.1715
   93ccc     H6 2670   3.625   9.022   8.910  0.6016  0.6186  0.2726
   93ccc     C2 2671   3.774   8.995   9.068 -0.0566  0.0255  0.6614
   93ccc     H3 2672   3.831   8.913   9.114 -2.8022 -1.6818  1.3028
   93ccc     H4 2673   3.713   9.023   9.154 -0.5423  2.2085 -0.3353
   93ccc     C1 2674   3.851   9.117   9.018 -0.2658  0.8702 -0.0708
   93ccc     H1 2675   3.936   9.135   9.085  0.0375 -0.0821 -0.1863
   93ccc     H2 2676   3.798   9.212   9.028  0.6104  1.4998 -1.1643
   93ccc     N1 2677   3.915   9.100   8.882 -0.2974 -0.9128 -0.0834
   93ccc     C4 2678   4.007   8.992   8.869 -0.1295  0.1303  0.0038
   93ccc     H7 2679   3.969   8.903   8.921 -0.7589  0.2512 -0.2519
   93ccc     H8 2680   4.107   9.013   8.911  0.3164 -0.2307 -0.8518
   93ccc     C5 2681   4.002   8.944   8.722  0.7354 -0.7296  0.4256
   93ccc     H9 2682   3.902   8.903   8.706  0.7001 -2.0207  3.4213
   93ccc    H10 2683   4.017   9.036   8.663 -0.3339 -0.9102 -0.1377
   93ccc     C6 2684   4.100   8.836   8.694  0.1571 -0.2096  0.4447
   93ccc     O2 2685   4.212   8.859   8.654  0.5132  0.7843  0.4264
   93ccc     O3 2686   4.065   8.719   8.682 -0.2341  0.4216  0.2897
   93ccc     C7 2687   3.985   9.226   8.845 -0.2492 -0.7185  0.1144
   93ccc    H11 2688   4.036   9.264   8.935  0.2239  0.9150 -0.7963
   93ccc    H12 2689   4.062   9.201   8.771 -0.3274  0.6429 -0.4693
   93ccc     C8 2690   3.896   9.338   8.793 -0.2256 -0.2061 -0.2966
   93ccc    H13 2691   3.844   9.296   8.705  1.1221 -0.2287 -1.1043
   93ccc    H14 2692   3.830   9.358   8.878 -0.6284 -4.0395  0.4704
   93ccc     C9 2693   3.978   9.454   8.756  0.2398  0.2910  0.3551
   93ccc     O4 2694   4.103   9.445   8.739  0.8329 -0.3077  0.3174
   93ccc     O5 2695   3.922   9.554   8.713 -0.1150 -0.1681 -0.0441
   93ccc     O1 2696   3.564   8.864   9.022 -0.0426  0.7774  0.2234
   94ccc     C3 2697   3.019   9.018   9.645  0.1881  0.0435 -0.1268
   94ccc     H5 2698   3.008   8.934   9.714  0.5506  1.8999  2.3285
   94ccc     H6 2699   3.116   9.067   9.658  0.4782 -0.0531 -1.6753
   94ccc     C2 2700   2.912   9.114   9.694 -0.3149 -0.2946  0.3708
   94ccc     H3 2701   2.937   9.203   9.636 -1.0610 -0.6253 -0.4690
   94ccc     H4 2702   2.937   9.137   9.799  3.1569  1.0643 -0.6026
   94ccc     C1 2703   2.763   9.068   9.666 -0.2380  0.0301 -0.1100
   94ccc     H1 2704   2.765   8.984   9.595 -2.4784 -0.2361  0.0721
   94ccc     H2 2705   2.708   9.146   9.613  0.8276  1.8807  1.4064
   94ccc     N1 2706   2.713   9.024   9.795  0.4079  0.3534  0.6547
   94ccc     C4 2707   2.610   8.920   9.778 -0.3291 -0.9333 -0.8178
   94ccc     H7 2708   2.560   8.930   9.681 -0.1142  0.7891 -0.7804
   94ccc     H8 2709   2.543   8.924   9.865  0.9417  0.9014  0.1217
   94ccc     C5 2710   2.682   8.788   9.786 -0.1817  0.1186  0.4531
   94ccc     H9 2711   2.627   8.699   9.754 -1.1833  0.4937  1.0768
   94ccc    H10 2712   2.768   8.796   9.718 -0.9361  2.7980 -0.3392
   94ccc     C6 2713   2.736   8.777   9.926 -0.4779  0.3839  0.3381
   94ccc     O2 2714   2.672   8.727  10.016  0.3261  0.0599 -0.7983
   94ccc     O3 2715   2.860   8.799   9.942  0.6534 -0.2691  0.3377
   94ccc     C7 2716   2.651   9.142   9.857 -0.2440  0.6267 -0.3672
   94ccc    H11 2717   2.714   9.231   9.849 -0.7155  1.5010  3.6598
   94ccc    H12 2718   2.566   9.169   9.793  0.6106 -0.3760 -1.9942
   94ccc     C8 2719   2.610   9.126  10.006 -0.0143 -0.4889 -0.1749
   94ccc    H13 2720   2.599   9.224  10.055 -0.2036 -0.8069  0.4320
   94ccc    H14 2721   2.517   9.071  10.025 -0.3653  0.5983  1.5210
   94ccc     C9 2722   2.717   9.065  10.091  0.6308  0.5305  0.1434
   94ccc     O4 2723   2.830   9.074  10.058 -0.4361 -0.2323 -0.3305
   94ccc     O5 2724   2.678   8.996  10.182  0.1322 -0.5405 -0.0514
   94ccc     O1 2725   2.991   8.989   9.509  0.5713  0.6356  0.6880
   95SOL     OW 2726   8.441   8.230   0.927  0.6842  0.4909  0.4662
   95SOL    HW1 2727   8.402   8.299   0.980  0.5214 -0.4167  1.5776
   95SOL    HW2 2728   8.414   8.149   0.970  2.4759 -0.2205  0.3428
   96SOL     OW 2729   2.378   3.150   7.931 -0.6382 -0.2293  0.5030
   96SOL    HW1 2730   2.288   3.116   7.922 -1.3710  1.3917  1.2960
   96SOL    HW2 2731   2.392   3.200   7.851 -0.0366 -1.2675 -0.0719
   97SOL     OW 2732   4.513   4.746   7.921 -0.0433  0.4958  0.0688
   97SOL    HW1 2733   4.509   4.777   8.012  0.5534  0.5976  0.0610
   97SOL    HW2 2734   4.585   4.683   7.919 -0.4954 -0.0189 -0.1838
   98SOL     OW 2735   8.649   6.566   3.386  0.2596 -0.2201 -0.0641
   98SOL    HW1 2736   8.663   6.569   3.291  1.8483  1.1561  0.1783
   98SOL    HW2 2737   8.616   6.477   3.402  0.1658 -0.5583 -1.8658
   99SOL     OW 2738   3.038   0.053   7.920  0.3263  0.1402  0.3124
   99SOL    HW1 2739   3.078   0.139   7.931  1.4981 -0.3111 -0.2773
   99SOL    HW2 2740   3.004   0.054   7.831 -0.2174  0.2065  0.5170
  100SOL     OW 2741  10.309   2.719   9.757 -0.6050 -0.8556  0.2342
  100SOL    HW1 2742  10.238   2.779   9.735 -0.1576  0.2557  1.6889
  100SOL    HW2 2743  10.279   2.634   9.725 -2.0672 -0.2071 -0.2156
  101SOL     OW 2744   3.367   3.548   5.152 -0.0699  0.1529 -0.7265
  101SOL    HW1 2745   3.319   3.534   5.071 -0.9508  0.9030 -0.3552
  101SOL    HW2 2746   3.447   3.496   5.143  1.2667  2.3836 -3.3084
  102SOL     OW 2747   1.680   9.400   1.618  0.0407 -0.2073  0.0512
  102SOL    HW1 2748   1.770   9.431   1.609  1.0291 -2.9602 -0.7480
  102SOL    HW2 2749   1.662   9.405   1.712  1.2960 -0.2388  0.3109
  103SOL     OW 2750   0.228   3.777   4.229 -0.2616 -0.0560  0.0677
  103SOL    HW1 2751   0.245   3.723   4.152 -0.4053 -0.5689  0.3876
  103SOL    HW2 2752   0.295   3.845   4.226 -1.0715  0.7264 -1.2207
  104SOL     OW 2753   2.974   3.293  10.384 -0.7165 -0.5364  0.0145
  104SOL    HW1 2754   3.037   3.221  10.388 -0.6605 -0.5445 -0.8616
  104SOL    HW2 2755   2.898   3.256  10.338 -0.1103  0.3556 -1.8051
  105SOL     OW 2756   7.025   1.226   0.265 -0.3794  0.3290  0.2458
  105SOL    HW1 2757   6.931   1.220   0.282 -0.2837 -1.5913  0.2959
  105SOL    HW2 2758   7.032   1.226   0.170 -0.3718 -1.0799  0.2383
  106SOL     OW 2759   6.611   2.552   7.280 -0.3085  0.1347  1.1908
  106SOL    HW1 2760   6.602   2.638   7.319 -0.5269 -0.2599  2.0392
  106SOL    HW2 2761   6.704   2.543   7.261 -0.5918  1.5378 -1.2769
  107SOL     OW 2762  10.388   5.681   5.909 -0.7932 -0.0127  0.1682
  107SOL    HW1 2763  10.421   5.616   5.847 -0.4371  0.1593  0.1741
  107SOL    HW2 2764  10.390   5.764   5.861  0.2514  0.2621  0.6546
  108SOL     OW 2765   3.946   6.073   8.947 -0.3002 -0.1935  0.2094
  108SOL    HW1 2766   3.960   6.003   9.011 -0.6741 -1.5041 -1.0937
  108SOL    HW2 2767   3.954   6.154   8.998  0.0071 -1.1738  1.7851
  109SOL     OW 2768   7.856   0.112   1.328 -0.2581  0.1702  0.1141
  109SOL    HW1 2769   7.945   0.137   1.354 -1.0082 -0.0476  3.3376
  109SOL    HW2 2770   7.850   0.136   1.235  2.6443  1.6056  0.1913
  110SOL     OW 2771   0.073   3.559   8.086  0.0224  0.5970  0.6126
  110SOL    HW1 2772  -0.009   3.511   8.074  0.4488  0.4207 -2.5924
  110SOL    HW2 2773   0.070   3.628   8.020  3.7239 -1.4003 -2.0722
  111SOL     OW 2774  10.006   2.454   5.640 -0.4752  0.4737  0.1909
  111SOL    HW1 2775  10.095   2.473   5.610 -0.7454  0.4702 -0.6263
  111SOL    HW2 2776  10.017   2.391   5.710  0.1538  0.2978 -0.0644
  112SOL     OW 2777   2.228   2.335   1.186 -0.4853  0.3477 -0.0067
  112SOL    HW1 2778   2.292   2.402   1.210 -0.3192  0.5655 -1.0206
  112SOL    HW2 2779   2.182   2.316   1.268  1.3996 -0.4110  0.9585
  113SOL     OW 2780   8.409   0.139   4.053  0.1905 -0.1533 -0.7339
  113SOL    HW1 2781   8.415   0.116   3.960 -1.1150  0.2542 -0.9453
  113SOL    HW2 2782   8.417   0.234   4.056 -2.2224  0.1216 -0.7476
  114SOL     OW 2783   1.483   0.087   7.205  0.3911 -0.4248  0.3339
  114SOL    HW1 2784   1.395   0.115   7.228  0.1827 -0.2278 -0.6445
  114SOL    HW2 2785   1.540   0.133   7.266 -0.1198  0.1953  0.3494
  115SOL     OW 2786   4.345   8.966   6.964 -0.4319  0.4581  0.4759
  115SOL    HW1 2787   4.375   8.887   7.009 -1.0393 -0.2211 -0.2614
  115SOL    HW2 2788   4.405   8.977   6.891 -2.2874 -1.3722 -1.4861
  116SOL     OW 2789   2.432   4.606   5.339  0.0479 -0.5088  0.1209
  116SOL    HW1 2790   2.485   4.530   5.362  0.2271  0.0954  1.8658
  116SOL    HW2 2791   2.465   4.677   5.395  0.1743  0.9901 -1.7476
  117SOL     OW 2792   9.468   0.808   9.424  0.1840  0.4211 -0.3442
  117SOL    HW1 2793   9.514   0.892   9.428  0.5010  0.2322  0.1386
  117SOL    HW2 2794   9.469   0.776   9.515 -0.5283  0.2118 -0.4064
  118SOL     OW 2795   8.234   2.558   8.354 -0.2963 -0.5936  0.5325
  118SOL    HW1 2796   8.288   2.567   8.432 -1.1716  0.3277  1.0644
  118SOL    HW2 2797   8.248   2.467   8.325  1.6714 -0.3218  0.5015
  119SOL     OW 2798   1.333   8.000   4.451  0.3338  0.3514  0.4050
  119SOL    HW1 2799   1.375   7.966   4.372  0.5451  1.7311 -0.1125
  119SOL    HW2 2800   1.375   7.952   4.523 -0.6551 -1.7348 -0.3356
  120SOL     OW 2801   7.009   4.621   9.013  0.9624 -0.4982  0.6028
  120SOL    HW1 2802   6.957   4.691   8.974  1.1023 -1.7465 -1.9856
  120SOL    HW2 2803   6.978   4.616   9.103 -0.6943  1.2988  0.2031
  121SOL     OW 2804   7.730   6.468   4.276 -0.1588  0.3745  0.0632
  121SOL    HW1 2805   7.676   6.465   4.355  0.1850  1.1616  0.3398
  121SOL    HW2 2806   7.671   6.504   4.209 -1.3082 -2.8019 -0.7958
  122SOL     OW 2807   4.139   7.666   1.364  0.1069 -0.6313  0.2462
  122SOL    HW1 2808   4.138   7.736   1.299  0.2335 -1.4105 -0.6245
  122SOL    HW2 2809   4.085   7.597   1.325  1.0820 -1.5471  0.4716
  123SOL     OW 2810   3.336   3.533   4.303 -0.5163 -0.1759  0.4709
  123SOL    HW1 2811   3.414   3.532   4.359 -1.1767  2.4814  1.6090
  123SOL    HW2 2812   3.365   3.578   4.223 -0.7801  0.5406  0.7702
  124SOL     OW 2813   8.909   9.428   2.693  0.1227 -0.2286 -0.5199
  124SOL    HW1 2814   8.988   9.396   2.649  0.3999  0.5431 -0.6010
  124SOL    HW2 2815   8.925   9.521   2.706 -0.3589 -0.2665  0.3808
  125SOL     OW 2816   8.472   8.282   7.033 -0.1907  0.4821 -0.5817
  125SOL    HW1 2817   8.484   8.355   6.972  2.2212 -0.4203 -1.2700
  125SOL    HW2 2818   8.458   8.206   6.977 -0.8320  0.0824  0.0955
  126SOL     OW 2819   3.813   1.022   7.504  0.2170 -0.0400  0.4026
  126SOL    HW1 2820   3.760   0.951   7.539  0.7801 -1.0622 -0.7226
  126SOL    HW2 2821   3.750   1.083   7.466 -0.2003 -2.1041 -2.5317
  127SOL     OW 2822   6.529   1.649   5.230  0.0465 -0.4054 -0.2401
  127SOL    HW1 2823   6.597   1.583   5.244  0.0096 -0.3080  0.4279
  127SOL    HW2 2824   6.513   1.647   5.136  1.3317 -0.0725 -0.4829
  128SOL     OW 2825   0.935   8.502   7.311 -0.0631  0.1750 -0.0972
  128SOL    HW1 2826   0.995   8.437   7.275  0.3966  0.6139 -0.1422
  128SOL    HW2 2827   0.861   8.504   7.250 -0.4531 -0.8603  0.3237
  129SOL     OW 2828   0.580   2.513   4.957 -0.0205  0.1560 -0.0971
  129SOL    HW1 2829   0.561   2.595   4.911  0.3016 -0.3783 -1.2304
  129SOL    HW2 2830   0.676   2.507   4.956  0.0219  0.3214  1.0268
  130SOL     OW 2831   8.893   7.730   8.657 -0.2826 -0.8557  0.3007
  130SOL    HW1 2832   8.848   7.813   8.641  1.4035 -0.0751 -0.6627
  130SOL    HW2 2833   8.896   7.688   8.571 -2.5751 -2.7804  1.0314
  131SOL     OW 2834   4.374  10.350   9.359 -0.4114 -0.1476  0.5038
  131SOL    HW1 2835   4.436  10.309   9.419 -0.7863 -0.7090  0.5175
  131SOL    HW2 2836   4.426  10.374   9.283 -0.0651 -0.0602  0.7657
  132SOL     OW 2837   8.916   1.487   6.072 -0.7269  0.3903 -0.4110
  132SOL    HW1 2838   8.866   1.492   5.991 -2.2224 -1.1675  0.3301
  132SOL    HW2 2839   8.851   1.466   6.139  0.9349 -2.7436  0.4730
  133SOL     OW 2840   0.562   3.583   9.395 -0.2895 -0.2822  0.0198
  133SOL    HW1 2841   0.625   3.513   9.383 -0.6834 -0.8412  1.0568
  133SOL    HW2 2842   0.560   3.630   9.311  1.4441 -0.2825 -0.0374
  134SOL     OW 2843   4.869   2.963  10.288  0.8813  0.0367  0.1269
  134SOL    HW1 2844   4.895   3.045  10.330  0.1762  0.4862 -0.2835
  134SOL    HW2 2845   4.928   2.953  10.213 -1.7146  2.5179 -2.5197
  135SOL     OW 2846   4.338   9.785   2.418 -0.0739  0.4250  0.1078
  135SOL    HW1 2847   4.430   9.786   2.390  0.1177 -0.8196  0.6215
  135SOL    HW2 2848   4.339   9.736   2.500 -1.1701  0.6602  0.2726
  136SOL     OW 2849   5.132   3.633   0.793 -0.3568  0.3665 -0.7305
  136SOL    HW1 2850   5.162   3.544   0.773  2.0117  0.9750 -0.2304
  136SOL    HW2 2851   5.209   3.676   0.829 -2.1199  1.8968  1.4391
  137SOL     OW 2852   5.368   9.111   5.653 -0.0392 -0.1698  0.4415
  137SOL    HW1 2853   5.289   9.122   5.705 -0.0115  0.4082  0.3728
  137SOL    HW2 2854   5.376   9.017   5.639  0.7436 -0.4981  2.7067
  138SOL     OW 2855   2.788   0.622   9.065 -0.4557  0.2466  0.1302
  138SOL    HW1 2856   2.852   0.572   9.015  0.2101 -0.9221  2.0550
  138SOL    HW2 2857   2.705   0.577   9.050 -0.2005 -0.3035  0.3473
  139SOL     OW 2858   2.446   8.854   1.126 -0.4552 -0.2774 -0.3541
  139SOL    HW1 2859   2.367   8.801   1.119 -0.3262 -0.3850 -1.0221
  139SOL    HW2 2860   2.481   8.833   1.212 -0.3558 -1.3524 -0.6442
  140SOL     OW 2861   5.350   7.218   1.425 -0.2225 -0.5530 -0.5616
  140SOL    HW1 2862   5.412   7.290   1.431  0.7108 -1.2349 -1.4829
  140SOL    HW2 2863   5.284   7.236   1.492  1.0257  0.1535  0.5277
  141SOL     OW 2864   9.313   5.150   8.602  0.9260 -0.1649  0.5992
  141SOL    HW1 2865   9.271   5.233   8.581 -0.9637 -1.2397 -0.1754
  141SOL    HW2 2866   9.363   5.167   8.681  0.5002  1.6759  0.5123
  142SOL     OW 2867   4.177  10.307   7.722 -0.3752 -0.0808  0.5056
  142SOL    HW1 2868   4.239  10.327   7.652  1.0705 -2.2244  1.0798
  142SOL    HW2 2869   4.091  10.315   7.681  0.2681  2.0276 -0.5756
  143SOL     OW 2870   5.935   9.938   5.414  0.0678  0.4377  0.6644
  143SOL    HW1 2871   5.867  10.005   5.420 -0.7798  0.0755 -2.6443
  143SOL    HW2 2872   5.901   9.864   5.465 -1.7846  0.4848 -0.4212
  144SOL     OW 2873   8.279   4.477   8.937  0.7788 -0.3611  0.0862
  144SOL    HW1 2874   8.264   4.421   9.013  2.3479 -0.8627  0.0574
  144SOL    HW2 2875   8.287   4.416   8.863 -0.2073  0.0909 -0.4190
  145SOL     OW 2876   7.442   9.440   9.795 -0.2521  0.1847 -0.1758
  145SOL    HW1 2877   7.382   9.475   9.862 -0.0140  0.2781 -0.0084
  145SOL    HW2 2878   7.407   9.473   9.712  0.2614  1.2665  0.0141
  146SOL     OW 2879   2.471   2.486   4.566  0.3081  0.5093 -0.4245
  146SOL    HW1 2880   2.566   2.477   4.567  0.2413 -0.7849  2.5291
  146SOL    HW2 2881   2.451   2.542   4.640 -1.3049 -0.4541 -0.0805
  147SOL     OW 2882   3.437   6.243   5.024 -0.2704  0.3776 -0.3679
  147SOL    HW1 2883   3.397   6.272   4.942  1.2588  1.2640 -0.8437
  147SOL    HW2 2884   3.459   6.151   5.009 -1.4279  0.0761 -0.3429
  148SOL     OW 2885   3.623   9.610   9.323  0.3889  0.1246 -0.6128
  148SOL    HW1 2886   3.528   9.611   9.338  0.2356  3.3337 -1.1237
  148SOL    HW2 2887   3.634   9.658   9.240  2.3620 -2.1088 -1.7658
  149SOL     OW 2888   0.160   1.000   6.761 -0.2574  0.2842  0.6305
  149SOL    HW1 2889   0.244   1.043   6.779 -0.2674  1.3262 -1.4671
  149SOL    HW2 2890   0.095   1.066   6.785 -0.5413 -0.6637  2.6170
  150SOL     OW 2891  10.398   3.154   1.868  0.4831  0.5980  0.1522
  150SOL    HW1 2892  10.333   3.220   1.893 -0.2466 -0.0116 -0.0859
  150SOL    HW2 2893  10.345   3.081   1.837  1.3134  0.3166 -0.5987
  151SOL     OW 2894  10.402   7.112   9.060  0.5703 -0.0081 -0.5557
  151SOL    HW1 2895  10.344   7.152   9.125  1.2521  1.5236 -0.8504
  151SOL    HW2 2896  10.342   7.072   8.996 -0.1048 -1.3390  0.8353
  152SOL     OW 2897   7.425   3.995   2.224 -0.5385  0.2626 -0.3287
  152SOL    HW1 2898   7.361   4.013   2.155 -1.9625 -0.9736  0.6235
  152SOL    HW2 2899   7.420   4.072   2.281 -0.7413  0.4444 -0.5872
  153SOL     OW 2900   8.732   3.869   4.306  0.2923  0.4920  0.5234
  153SOL    HW1 2901   8.677   3.897   4.379 -0.7664 -0.5061  0.1278
  153SOL    HW2 2902   8.740   3.774   4.317 -0.1228  0.2835 -0.8060
  154SOL     OW 2903   0.008   7.712   5.928  0.2372 -0.0163  0.2371
  154SOL    HW1 2904   0.020   7.807   5.930  0.8562 -0.0913  0.4240
  154SOL    HW2 2905  -0.025   7.690   6.015 -0.5116  0.0925 -0.0082
  155SOL     OW 2906   0.605   4.141   4.029 -0.2989  0.2293  0.3578
  155SOL    HW1 2907   0.641   4.180   4.108  1.7300 -1.2127  0.2198
  155SOL    HW2 2908   0.525   4.097   4.059  2.0424 -3.1166  2.5048
  156SOL     OW 2909   4.379   9.389   4.442  0.4805  0.8099  0.2439
  156SOL    HW1 2910   4.322   9.417   4.371  0.8398  0.9225 -0.0064
  156SOL    HW2 2911   4.320   9.370   4.515  0.1182  0.8002 -0.0493
  157SOL     OW 2912   7.400   9.793   6.340 -0.1430 -0.1332  0.0355
  157SOL    HW1 2913   7.373   9.822   6.428 -1.1242  0.3346 -0.4012
  157SOL    HW2 2914   7.428   9.703   6.352 -1.6997 -0.5801  0.5931
  158SOL     OW 2915   3.612   5.595   7.711  0.2839  0.1184  0.0778
  158SOL    HW1 2916   3.642   5.679   7.676 -1.0021  0.2519 -0.7642
  158SOL    HW2 2917   3.659   5.529   7.659  2.1935  0.2715  1.5292
  159SOL     OW 2918   8.216   8.508   7.903 -0.4737 -0.5797  0.5735
  159SOL    HW1 2919   8.262   8.573   7.851 -1.5780  0.6544  1.0599
  159SOL    HW2 2920   8.279   8.480   7.969  1.0797 -2.4810 -1.5972
  160SOL     OW 2921   5.301   2.650   6.003 -0.1944 -0.9619  0.4726
  160SOL    HW1 2922   5.349   2.703   5.940 -2.6677 -1.6420 -2.1894
  160SOL    HW2 2923   5.344   2.565   6.000 -0.8883 -1.2920 -1.1679
  161SOL     OW 2924   5.578   0.490   4.443  0.2760 -0.1513 -0.5377
  161SOL    HW1 2925   5.513   0.485   4.373  1.9037  1.0243 -2.2074
  161SOL    HW2 2926   5.631   0.412   4.432  1.3305  0.6622 -1.5064
  162SOL     OW 2927   5.132   6.040   6.395 -0.3191 -0.0343 -0.0102
  162SOL    HW1 2928   5.118   6.097   6.471  0.8608 -2.0661  1.8805
  162SOL    HW2 2929   5.045   6.010   6.371 -0.7817  1.1688  0.0585
  163SOL     OW 2930   1.609   9.741   7.210 -0.2781 -0.3373  0.1280
  163SOL    HW1 2931   1.613   9.664   7.152 -0.1258 -0.6609  0.5627
  163SOL    HW2 2932   1.516   9.762   7.215 -0.3231 -0.5057  0.0216
  164SOL     OW 2933   1.129  10.091   5.887 -0.0722  0.3846  0.4793
  164SOL    HW1 2934   1.080  10.042   5.822  1.3166 -0.8026  0.2510
  164SOL    HW2 2935   1.157  10.170   5.842  1.5694 -0.7974 -0.7056
  165SOL     OW 2936   7.597   9.560   4.112 -0.3692 -0.2326  0.3065
  165SOL    HW1 2937   7.562   9.633   4.162 -0.7517 -0.2906  0.1257
  165SOL    HW2 2938   7.588   9.586   4.020 -1.3517 -0.8736  0.2056
  166SOL     OW 2939   7.455   9.677   7.327 -0.2694 -0.2112 -0.4845
  166SOL    HW1 2940   7.398   9.664   7.251  0.2691 -0.0044 -0.9378
  166SOL    HW2 2941   7.445   9.598   7.379 -1.6863  0.2163 -0.0624
  167SOL     OW 2942   2.138   2.862  10.107  0.6417  0.6298  0.7911
  167SOL    HW1 2943   2.118   2.901  10.022 -1.7219  0.2079  1.0799
  167SOL    HW2 2944   2.156   2.937  10.164  0.0210  1.0647  0.4263
  168SOL     OW 2945   4.693   7.435   0.310  0.0193 -0.1418  0.2517
  168SOL    HW1 2946   4.650   7.349   0.310 -0.0432 -0.1939  2.8913
  168SOL    HW2 2947   4.625   7.496   0.285  0.1851 -0.8415 -2.1704
  169SOL     OW 2948   5.470  10.358   1.479 -0.5537  0.2163 -0.4836
  169SOL    HW1 2949   5.375  10.356   1.491 -0.3738 -0.9987  1.2032
  169SOL    HW2 2950   5.502  10.283   1.529  1.3038  0.5672 -1.0487
  170SOL     OW 2951   7.562   3.974   6.842  0.2548 -1.0144 -0.3525
  170SOL    HW1 2952   7.631   4.019   6.794 -0.2828  0.7408  0.4267
  170SOL    HW2 2953   7.601   3.956   6.928  0.3256 -1.6803 -0.5197
  171SOL     OW 2954   6.171   2.953   2.212  0.2351 -0.1500 -0.2544
  171SOL    HW1 2955   6.151   2.924   2.123 -1.2515  0.2829 -0.0881
  171SOL    HW2 2956   6.265   2.970   2.211  0.4946 -1.4969 -1.3444
  172SOL     OW 2957   5.783   0.223   7.696 -0.7055  0.2450  0.3581
  172SOL    HW1 2958   5.710   0.203   7.754 -0.9740  0.3355  0.0607
  172SOL    HW2 2959   5.752   0.197   7.609 -0.2680  0.0045  0.2716
  173SOL     OW 2960   2.262   9.940   5.056  0.1727  0.0985 -0.1588
  173SOL    HW1 2961   2.351   9.929   5.091  0.0529 -0.3762  0.0062
  173SOL    HW2 2962   2.271   9.918   4.963  0.0407 -0.9281  0.0594
  174SOL     OW 2963   1.992   8.767   7.266 -0.2044  0.6771  0.0482
  174SOL    HW1 2964   1.956   8.819   7.194  0.5315  0.1864 -0.7002
  174SOL    HW2 2965   2.054   8.826   7.309  1.5993  0.0959 -1.5874
  175SOL     OW 2966   6.755   0.734   7.028  0.4382  0.2669  0.2615
  175SOL    HW1 2967   6.836   0.764   7.069  0.4768  2.0762 -1.0098
  175SOL    HW2 2968   6.686   0.788   7.068 -0.0845 -0.9109  0.9760
  176SOL     OW 2969   4.084   1.790   6.799 -0.2329  0.5982  0.2015
  176SOL    HW1 2970   4.173   1.809   6.772  0.4999 -1.6696  0.7553
  176SOL    HW2 2971   4.030   1.814   6.724  1.0666  0.2845 -0.8618
  177SOL     OW 2972  10.229   1.907   3.754 -0.2017 -0.3712 -0.0961
  177SOL    HW1 2973  10.163   1.976   3.751 -1.0398 -1.1859 -1.1447
  177SOL    HW2 2974  10.312   1.952   3.744 -0.8610  0.3406 -3.5396
  178SOL     OW 2975   4.274   7.564   5.632  0.3562 -0.1822  0.3254
  178SOL    HW1 2976   4.189   7.609   5.622 -0.3399 -1.7076 -1.1925
  178SOL    HW2 2977   4.254   7.488   5.686  1.0160  0.0408  0.8883
  179SOL     OW 2978   7.663   2.949   7.755 -0.4691  0.1245 -0.3858
  179SOL    HW1 2979   7.592   2.893   7.723  0.9140 -1.6006 -0.5591
  179SOL    HW2 2980   7.683   3.006   7.681  1.8280 -2.9637 -2.3849
  180SOL     OW 2981   6.432   8.107   4.765 -0.1727  0.1611  0.7770
  180SOL    HW1 2982   6.352   8.107   4.817 -0.1838 -0.0959  0.7629
  180SOL    HW2 2983   6.475   8.024   4.787 -0.7505 -0.5015 -0.5014
  181SOL     OW 2984   8.959   4.465   9.449  0.7194 -0.5146  0.1726
  181SOL    HW1 2985   8.866   4.448   9.434  0.4599  1.1957 -0.2877
  181SOL    HW2 2986   8.975   4.435   9.538 -0.3321 -0.5691  0.3528
  182SOL     OW 2987   6.673   7.796   2.491  0.6738 -0.4213 -0.1821
  182SOL    HW1 2988   6.709   7.722   2.442  0.3174 -0.0778 -0.9605
  182SOL    HW2 2989   6.629   7.755   2.566  0.5347 -0.9980 -0.5702
  183SOL     OW 2990   2.366   6.151   3.006  0.2915  0.0525 -0.0189
  183SOL    HW1 2991   2.388   6.145   3.099  0.5829  0.0224 -0.0900
  183SOL    HW2 2992   2.376   6.062   2.973 -0.0449  0.0147 -0.0298
  184SOL     OW 2993   0.988   2.423   7.636  0.5663  0.5318  0.3256
  184SOL    HW1 2994   0.902   2.382   7.637 -0.3385  2.2466 -1.0423
  184SOL    HW2 2995   0.989   2.479   7.714 -0.2610  1.7437 -0.4899
  185SOL     OW 2996   8.214   8.727   4.099  0.3973 -0.3243 -0.0586
  185SOL    HW1 2997   8.143   8.671   4.065 -0.4307  2.2681 -3.1228
  185SOL    HW2 2998   8.178   8.763   4.181 -2.2993  1.4271 -1.8329
  186SOL     OW 2999   6.269   0.554   3.448  0.5608  0.3511 -0.3565
  186SOL    HW1 3000   6.272   0.643   3.485 -0.9794 -0.4448  1.8909
  186SOL    HW2 3001   6.181   0.523   3.468  0.6372 -1.2623 -2.2439
  187SOL     OW 3002   1.554  10.427   1.357 -0.2751 -0.0680  0.3139
  187SOL    HW1 3003   1.591  10.500   1.308  0.9592  1.1534  2.8413
  187SOL    HW2 3004   1.603  10.350   1.327  1.3846  0.8503  0.5457
  188SOL     OW 3005   9.272   6.758   0.292  0.3452  0.5000  0.0855
  188SOL    HW1 3006   9.279   6.784   0.384 -0.9796 -0.9852  0.6449
  188SOL    HW2 3007   9.332   6.818   0.246 -0.7301  2.8842  1.5792
  189SOL     OW 3008   6.463   6.303   3.523 -0.0853  0.4438 -0.2958
  189SOL    HW1 3009   6.538   6.273   3.472 -0.2009  0.0103 -0.2156
  189SOL    HW2 3010   6.387   6.289   3.465 -0.2365 -0.2088  0.0494
  190SOL     OW 3011   5.645   4.388   2.274 -0.4711 -0.2513  1.0425
  190SOL    HW1 3012   5.697   4.424   2.201  0.8668 -0.4694  1.8436
  190SOL    HW2 3013   5.556   4.419   2.257  0.1572  1.3258  0.3464
  191SOL     OW 3014  10.191   4.687   7.215  0.4124 -0.6458  0.1576
  191SOL    HW1 3015  10.119   4.746   7.194  1.4538 -0.1985 -2.4816
  191SOL    HW2 3016  10.151   4.621   7.272 -2.5696 -1.3771 -2.4562
  192SOL     OW 3017   4.988   4.646   4.220 -0.1431 -0.1662 -0.2459
  192SOL    HW1 3018   5.008   4.627   4.312  0.5631 -0.7895 -0.5218
  192SOL    HW2 3019   4.995   4.562   4.176  0.4561  0.2806 -1.0360
  193SOL     OW 3020   3.746   5.897   9.569 -0.3620  0.4531  1.0625
  193SOL    HW1 3021   3.699   5.839   9.629  2.7520  0.6568  4.0338
  193SOL    HW2 3022   3.715   5.985   9.592 -0.8845  0.3854  0.6429
  194SOL     OW 3023   3.041   2.115   6.935 -0.0833 -0.1366  0.0083
  194SOL    HW1 3024   3.099   2.132   6.860 -0.0465 -0.1060  0.0439
  194SOL    HW2 3025   3.097   2.071   6.999 -0.5222 -1.7390 -0.6533
  195SOL     OW 3026   9.504   7.663   0.350  0.0990  0.3018  0.8599
  195SOL    HW1 3027   9.568   7.595   0.371 -0.0144 -0.3660 -0.8295
  195SOL    HW2 3028   9.432   7.648   0.412  0.0774 -1.1242  0.5178
  196SOL     OW 3029   8.444   3.101   3.006  0.5700 -0.2872  0.2806
  196SOL    HW1 3030   8.460   3.023   3.059  0.8271 -1.0476 -0.8940
  196SOL    HW2 3031   8.349   3.103   2.993  0.4370  0.2211  1.2157
  197SOL     OW 3032   2.947  10.306   4.621  0.1670 -0.3240 -0.6027
  197SOL    HW1 3033   2.960  10.257   4.702  0.8381  1.3030  0.3342
  197SOL    HW2 3034   2.867  10.269   4.583  0.7724 -2.2574 -0.1030
  198SOL     OW 3035   7.312   9.699   3.713  0.6859  0.1498  0.0715
  198SOL    HW1 3036   7.281   9.630   3.654 -0.4230  0.2303  0.5267
  198SOL    HW2 3037   7.340   9.770   3.655  1.8987 -0.6918 -0.4040
  199SOL     OW 3038   0.823   3.285   3.627 -0.2797 -1.1359  0.3131
  199SOL    HW1 3039   0.822   3.314   3.536 -0.1970 -1.6203  0.1551
  199SOL    HW2 3040   0.828   3.189   3.622  0.8993 -1.1130  0.8304
  200SOL     OW 3041   9.283   4.631   3.737 -0.2206  0.0036 -0.0457
  200SOL    HW1 3042   9.316   4.660   3.651  1.5232  0.1354  0.6329
  200SOL    HW2 3043   9.250   4.711   3.778  0.5442  0.2710  0.0734
  201SOL     OW 3044  10.238   1.226   2.405 -0.0586  0.4522 -0.2029
  201SOL    HW1 3045  10.213   1.140   2.371 -0.8602  1.5535 -2.5736
  201SOL    HW2 3046  10.331   1.235   2.384  0.4433 -0.3778  1.4251
  202SOL     OW 3047   2.339   9.444   6.188 -0.3371 -0.3579  0.6391
  202SOL    HW1 3048   2.335   9.502   6.112 -0.3905 -0.3928  0.6152
  202SOL    HW2 3049   2.421   9.468   6.232  0.8512 -1.8370 -0.6408
  203SOL     OW 3050   2.695   3.632   6.887  0.3692  0.2178  0.1220
  203SOL    HW1 3051   2.738   3.563   6.939 -0.4114  0.6952  1.4522
  203SOL    HW2 3052   2.713   3.607   6.796  1.0098 -1.1543  0.5794
  204SOL     OW 3053   9.316   6.807   9.361  0.0401  0.1292  0.0599
  204SOL    HW1 3054   9.389   6.776   9.308  0.5352  0.8247  0.3109
  204SOL    HW2 3055   9.336   6.899   9.377 -0.0072 -0.1035  1.5884
  205SOL     OW 3056   8.153   6.242   2.825 -0.5051  0.4537 -0.5196
  205SOL    HW1 3057   8.239   6.263   2.863 -1.6079  1.4024  1.6287
  205SOL    HW2 3058   8.135   6.315   2.766 -0.1284  0.6326 -0.4193
  206SOL     OW 3059   4.679   3.651   1.930 -0.4556 -0.8328 -0.7979
  206SOL    HW1 3060   4.721   3.734   1.952  0.5749 -1.9255  1.7505
  206SOL    HW2 3061   4.599   3.677   1.884  0.2252  1.5259 -0.7940
  207SOL     OW 3062   9.298   9.229   8.326  0.3056  0.0958  0.2738
  207SOL    HW1 3063   9.228   9.195   8.271 -1.0907  1.5159  1.1129
  207SOL    HW2 3064   9.333   9.304   8.279  1.5583 -0.8113 -0.3079
  208SOL     OW 3065   5.701   2.628   0.566 -0.4756  0.2896 -0.7762
  208SOL    HW1 3066   5.773   2.688   0.550 -1.3535  1.0998 -1.8667
  208SOL    HW2 3067   5.733   2.543   0.535  0.6809  0.2129  0.5460
  209SOL     OW 3068   7.339   8.682   5.396 -0.3131 -0.2515  0.1019
  209SOL    HW1 3069   7.320   8.608   5.454 -0.4148  0.6499  1.2538
  209SOL    HW2 3070   7.434   8.691   5.400 -0.3572  0.0643  0.4510
  210SOL     OW 3071   9.214   3.568   9.622 -0.2444 -0.2096  0.4666
  210SOL    HW1 3072   9.202   3.650   9.669 -0.3103  0.0344  0.0265
  210SOL    HW2 3073   9.129   3.549   9.584 -0.0225 -0.0478 -0.1278
  211SOL     OW 3074   6.511   5.261   1.668 -0.3127 -0.1850 -0.0438
  211SOL    HW1 3075   6.520   5.351   1.699 -0.2508  0.1246 -0.9274
  211SOL    HW2 3076   6.542   5.207   1.741  0.7351  0.5560  0.0730
  212SOL     OW 3077   0.221   7.004  10.390  0.1231  0.7687 -0.0034
  212SOL    HW1 3078   0.166   6.940  10.435  1.4838  0.0919  0.7631
  212SOL    HW2 3079   0.231   6.968  10.302 -2.2424  1.9110 -0.8164
  213SOL     OW 3080   1.575   5.700   1.508  0.4260 -0.0923 -0.2466
  213SOL    HW1 3081   1.589   5.615   1.465 -1.8703 -1.5292  1.5782
  213SOL    HW2 3082   1.651   5.710   1.566 -0.0998 -1.8664  0.8425
  214SOL     OW 3083   0.881   6.808   4.805 -0.1732  0.5843  0.0210
  214SOL    HW1 3084   0.903   6.716   4.792 -0.6239  0.6630 -1.4626
  214SOL    HW2 3085   0.917   6.829   4.892  0.0585 -0.9328  0.3255
  215SOL     OW 3086   4.760   1.077   6.143 -0.2559  0.0306 -0.6443
  215SOL    HW1 3087   4.825   1.018   6.106  0.1678  1.0843 -1.6151
  215SOL    HW2 3088   4.783   1.083   6.236  0.3612 -0.4565 -0.7617
  216SOL     OW 3089   5.163   6.570   0.007 -0.2167 -0.5277 -0.2487
  216SOL    HW1 3090   5.151   6.564   0.102 -2.0102  0.5607 -0.3502
  216SOL    HW2 3091   5.198   6.658  -0.007  0.7697 -0.9611 -0.5595
  217SOL     OW 3092   9.053   7.304   9.475  0.7134  0.3898  0.1249
  217SOL    HW1 3093   8.961   7.329   9.469  0.6577  0.3330  0.6538
  217SOL    HW2 3094   9.075   7.316   9.568  1.4793  1.2433 -0.1551
  218SOL     OW 3095   4.296   3.104   9.762  0.4868 -0.3428  0.5162
  218SOL    HW1 3096   4.374   3.146   9.726  0.5433 -2.6468 -2.4173
  218SOL    HW2 3097   4.324   3.016   9.785 -1.1951 -1.2369 -0.6551
  219SOL     OW 3098   2.044   0.450   7.271 -0.2317 -0.2141  0.4987
  219SOL    HW1 3099   2.088   0.384   7.219  1.9289  0.3786  1.4836
  219SOL    HW2 3100   2.112   0.487   7.327 -1.6929  1.7347  1.1179
  220SOL     OW 3101   0.908   7.173   3.555  0.1500  0.0707  0.0138
  220SOL    HW1 3102   0.994   7.140   3.529  0.2653 -0.2438  0.7561
  220SOL    HW2 3103   0.862   7.189   3.472 -0.2716 -2.9165 -0.4461
  221SOL     OW 3104   2.673   5.847  10.069  0.3782 -0.3064 -0.3039
  221SOL    HW1 3105   2.768   5.855  10.069  0.5064 -1.5702 -0.1017
  221SOL    HW2 3106   2.655   5.768  10.120 -0.6920 -0.8903 -1.5106
  222SOL     OW 3107   1.965   5.098   1.432  0.1563 -0.8854  0.0296
  222SOL    HW1 3108   2.039   5.101   1.493  0.0079 -2.2046  0.3108
  222SOL    HW2 3109   2.005   5.114   1.346  0.6239 -0.6896  0.2763
  223SOL     OW 3110   1.168   7.242   2.677  0.6059  0.0763  0.5676
  223SOL    HW1 3111   1.177   7.296   2.756  0.7040 -1.3079  1.5326
  223SOL    HW2 3112   1.074   7.244   2.659  0.6895  1.1516  0.1458
  224SOL     OW 3113   9.643   2.177   3.347  0.7909 -0.1854 -0.2300
  224SOL    HW1 3114   9.706   2.194   3.277 -0.8592  1.1599 -1.4606
  224SOL    HW2 3115   9.574   2.126   3.305 -0.3374  0.8321  0.3393
  225SOL     OW 3116   7.852   1.640   6.592  0.9354  0.5640  0.2293
  225SOL    HW1 3117   7.806   1.675   6.668  0.8013  1.7362 -0.3575
  225SOL    HW2 3118   7.939   1.679   6.597  1.4974 -0.7095  0.6926
  226SOL     OW 3119   2.780   0.490   7.091  0.7740  0.1224  0.7663
  226SOL    HW1 3120   2.857   0.535   7.127  1.6000 -0.7471  0.1358
  226SOL    HW2 3121   2.706   0.539   7.125  1.6233  1.6382  0.5496
  227SOL     OW 3122   1.271   2.198   7.507  0.0927  0.2983  0.1412
  227SOL    HW1 3123   1.283   2.284   7.548 -0.3129  0.4641 -0.0873
  227SOL    HW2 3124   1.323   2.203   7.427 -0.0218  0.3717  0.0710
  228SOL     OW 3125   7.679   7.534   5.302  0.1924 -0.4585 -0.5317
  228SOL    HW1 3126   7.587   7.559   5.287 -0.0429 -1.5057 -0.9111
  228SOL    HW2 3127   7.692   7.457   5.246  1.3740 -0.1889 -0.6506
  229SOL     OW 3128   6.492   4.078   3.589  0.3300  0.3078  0.4465
  229SOL    HW1 3129   6.412   4.038   3.623 -0.1462  1.0362  0.2114
  229SOL    HW2 3130   6.530   4.123   3.664  0.1175  0.5945  0.3822
  230SOL     OW 3131   2.720   0.966   6.155 -0.2025 -0.1622 -0.1476
  230SOL    HW1 3132   2.774   1.022   6.211 -0.5662 -1.5197  1.6247
  230SOL    HW2 3133   2.670   1.028   6.102  0.4996  1.1763  0.6776
  231SOL     OW 3134   9.994   8.223   1.149  0.1595 -0.0250 -0.3504
  231SOL    HW1 3135  10.028   8.213   1.060 -0.7964  1.9784 -1.0119
  231SOL    HW2 3136   9.972   8.316   1.155 -0.2143 -0.2130  1.8442
  232SOL     OW 3137   2.346   3.326   2.112  0.2865  0.5058  0.2511
  232SOL    HW1 3138   2.317   3.326   2.021 -0.0642  0.6396  0.3625
  232SOL    HW2 3139   2.441   3.322   2.106  0.3134  1.4110 -0.1382
  233SOL     OW 3140   0.905   1.914   4.992 -0.0412  0.2312  0.2184
  233SOL    HW1 3141   0.820   1.887   5.026 -0.3350  0.3741 -0.3955
  233SOL    HW2 3142   0.948   1.832   4.969 -0.3420  0.1985 -0.2409
  234SOL     OW 3143   6.744   9.893   0.353 -0.1517 -0.1369  0.0941
  234SOL    HW1 3144   6.735   9.953   0.279 -0.8691  0.4662  0.6570
  234SOL    HW2 3145   6.749   9.806   0.313 -0.5096  0.1782 -0.6589
  235SOL     OW 3146  10.283   3.881   9.498  0.2147  0.0717  0.3128
  235SOL    HW1 3147  10.203   3.933   9.511  1.6145  2.3901  0.2107
  235SOL    HW2 3148  10.258   3.792   9.525 -2.2142  0.8194  0.8303
  236SOL     OW 3149   1.498   6.427   8.028  0.1697  0.3294 -0.3705
  236SOL    HW1 3150   1.411   6.420   7.990 -0.4475  1.8682  0.6598
  236SOL    HW2 3151   1.499   6.513   8.071  1.3505 -0.6550  1.7355
  237SOL     OW 3152   6.256   4.406   9.303 -0.4082  0.7034  0.3877
  237SOL    HW1 3153   6.313   4.360   9.241 -1.5623 -1.6710  0.9922
  237SOL    HW2 3154   6.285   4.375   9.389 -1.3164  1.0171  0.8135
  238SOL     OW 3155   5.296   3.429   8.224 -0.2850  0.1631  0.0073
  238SOL    HW1 3156   5.245   3.356   8.257 -0.0203  0.8101  1.9729
  238SOL    HW2 3157   5.231   3.490   8.189 -0.8544  0.6379  1.7868
  239SOL     OW 3158   9.192   6.722   0.791  0.2250 -0.3187  0.2960
  239SOL    HW1 3159   9.098   6.704   0.785  0.1876 -0.3351  0.8475
  239SOL    HW2 3160   9.228   6.644   0.833  0.3935 -0.0479  0.6548
  240SOL     OW 3161   0.020   0.736   4.368 -0.2714  0.4221 -0.2352
  240SOL    HW1 3162   0.092   0.704   4.315 -0.1910  1.2054 -0.6095
  240SOL    HW2 3163  -0.049   0.671   4.356 -0.2035  0.5089 -1.1927
  241SOL     OW 3164   3.171   0.760  10.398 -0.3740 -0.1334 -0.0329
  241SOL    HW1 3165   3.153   0.853  10.387  0.6808  0.3394  1.8326
  241SOL    HW2 3166   3.244   0.742  10.338 -0.3974  0.3029 -0.1928
  242SOL     OW 3167   9.858   1.782   8.013  0.3199  0.6626  0.0204
  242SOL    HW1 3168   9.818   1.863   7.982 -0.1300 -0.8638 -4.1223
  242SOL    HW2 3169   9.948   1.786   7.982 -0.1704 -0.9928 -1.8964
  243SOL     OW 3170   0.218   0.251   5.569  0.6071 -0.3569  0.5610
  243SOL    HW1 3171   0.176   0.337   5.568 -0.0652 -0.6851 -0.7316
  243SOL    HW2 3172   0.290   0.259   5.507  0.4170 -0.7861  0.2819
  244SOL     OW 3173   3.601   3.797   3.737 -0.5791  0.1462 -0.1549
  244SOL    HW1 3174   3.546   3.782   3.660  0.0787 -0.1915 -0.5789
  244SOL    HW2 3175   3.672   3.853   3.705  0.4498 -1.1107 -0.1543
  245SOL     OW 3176   6.336   8.091   7.252 -0.1078 -0.0548 -0.1935
  245SOL    HW1 3177   6.392   8.014   7.263 -1.8538 -1.4187 -0.2516
  245SOL    HW2 3178   6.259   8.071   7.305 -1.2761  0.9602 -1.4555
  246SOL     OW 3179   9.518   1.011   6.412  0.8034 -0.5497 -0.0128
  246SOL    HW1 3180   9.458   0.936   6.409  1.2118 -0.9023  0.4886
  246SOL    HW2 3181   9.585   0.985   6.474  0.6740  0.4456  0.5548
  247SOL     OW 3182   0.651   9.931   2.105  0.2630 -0.2305 -0.1327
  247SOL    HW1 3183   0.616   9.954   2.019 -1.0893  0.4386  0.5685
  247SOL    HW2 3184   0.746   9.923   2.091  0.2842  1.5611 -1.3357
  248SOL     OW 3185   8.198   0.490   4.150 -0.3064  0.0226 -0.0331
  248SOL    HW1 3186   8.263   0.459   4.213 -1.1343 -2.5010 -0.2843
  248SOL    HW2 3187   8.132   0.535   4.203  0.3978  0.4128  0.5270
  249SOL     OW 3188   3.985   9.092   0.997 -0.1532 -0.5498 -0.1999
  249SOL    HW1 3189   3.990   9.043   0.915  0.2439 -0.1511 -0.4172
  249SOL    HW2 3190   3.894   9.084   1.025  0.1466 -2.4327  0.3824
  250SOL     OW 3191   0.804   3.495   0.251  0.1049 -0.2212 -0.1052
  250SOL    HW1 3192   0.758   3.422   0.291 -0.3825  1.0053  1.6596
  250SOL    HW2 3193   0.894   3.488   0.284  0.2296 -0.3794 -0.4648
  251SOL     OW 3194   3.145   6.637   1.181 -0.3244 -0.0175 -0.0262
  251SOL    HW1 3195   3.201   6.587   1.241  1.4390  1.0675 -0.6891
  251SOL    HW2 3196   3.190   6.633   1.097  0.1772  3.0283 -0.0153
  252SOL     OW 3197   5.616   4.810   5.836 -0.5092  0.0800  0.2374
  252SOL    HW1 3198   5.592   4.883   5.894  0.5385 -0.7133  1.7386
  252SOL    HW2 3199   5.708   4.825   5.816 -0.7560  0.1182 -0.9312
  253SOL     OW 3200   5.952   7.549   5.290  0.8377 -0.7298  0.4302
  253SOL    HW1 3201   5.960   7.562   5.195 -0.6184 -0.9830  0.2449
  253SOL    HW2 3202   6.000   7.468   5.307 -0.2463 -1.5873 -0.3832
  254SOL     OW 3203   5.127   6.967   5.454  0.3230 -0.0475  0.6657
  254SOL    HW1 3204   5.047   7.014   5.428  0.7607 -0.7200 -2.1437
  254SOL    HW2 3205   5.097   6.879   5.476  0.1215  0.1224  1.0840
  255SOL     OW 3206   4.983   0.118   3.823 -0.0471 -0.0113  0.1118
  255SOL    HW1 3207   4.942   0.082   3.902 -2.7965  1.9201 -0.2649
  255SOL    HW2 3208   4.949   0.063   3.752  1.2444 -0.8377  0.1159
  256SOL     OW 3209   5.552   5.355   4.500  0.6437 -0.8639  0.0062
  256SOL    HW1 3210   5.520   5.431   4.549  4.8318  0.4052  1.1148
  256SOL    HW2 3211   5.537   5.281   4.559 -0.2208 -0.3815  0.4201
  257SOL     OW 3212   8.263   9.080   6.780  0.7595 -0.1705  0.0197
  257SOL    HW1 3213   8.312   9.162   6.785  0.5146  0.0695 -1.0552
  257SOL    HW2 3214   8.323   9.019   6.737  0.4185 -0.1029 -0.5714
  258SOL     OW 3215   5.862   3.266   1.884 -1.2532  0.2210  0.3501
  258SOL    HW1 3216   5.926   3.284   1.953 -0.8130  0.0152  0.0008
  258SOL    HW2 3217   5.896   3.313   1.808 -0.5870 -1.3167 -0.3192
  259SOL     OW 3218   0.430   9.393  10.000 -0.1156  0.2149 -0.5169
  259SOL    HW1 3219   0.401   9.432  10.083 -0.6657 -2.9779  0.9367
  259SOL    HW2 3220   0.525   9.384  10.010 -0.0555  0.6828 -0.6435
  260SOL     OW 3221   0.464   8.364   0.222  0.1685 -0.1453  0.6317
  260SOL    HW1 3222   0.419   8.352   0.139 -1.0782  0.2001  1.2206
  260SOL    HW2 3223   0.551   8.326   0.209  0.2046  0.4296 -0.9939
  261SOL     OW 3224   4.750   4.497   7.211 -0.2201  0.1613 -0.2330
  261SOL    HW1 3225   4.740   4.480   7.118  1.2769  1.3346 -0.6528
  261SOL    HW2 3226   4.664   4.480   7.248 -0.9488  0.0547 -1.8934
  262SOL     OW 3227   9.756   5.798   2.622 -0.1733 -0.3188  0.1613
  262SOL    HW1 3228   9.785   5.831   2.536  1.6729  0.9123  1.1883
  262SOL    HW2 3229   9.729   5.876   2.670 -0.7462 -0.9456  0.8754
  263SOL     OW 3230   6.747   3.751   0.786 -0.3954  0.1287 -0.4391
  263SOL    HW1 3231   6.677   3.696   0.821 -0.2563  0.3508  0.2149
  263SOL    HW2 3232   6.779   3.704   0.710 -0.3551 -0.6435  0.0460
  264SOL     OW 3233   0.704   7.622   4.950  0.2111 -0.0156 -0.6979
  264SOL    HW1 3234   0.661   7.579   4.877 -0.7470 -0.0694 -0.1185
  264SOL    HW2 3235   0.722   7.711   4.920  0.4597 -0.2477 -1.2357
  265SOL     OW 3236   7.077   4.264   7.963  0.0691  0.2163 -0.0606
  265SOL    HW1 3237   7.130   4.245   8.041  1.1044  0.5906 -0.6602
  265SOL    HW2 3238   7.114   4.208   7.895 -1.9861 -1.4755  0.1091
  266SOL     OW 3239   0.637   6.001  10.216 -0.4586  0.3793 -0.1872
  266SOL    HW1 3240   0.632   6.048  10.300  2.4950 -0.8089  0.7814
  266SOL    HW2 3241   0.590   5.919  10.233  2.2543 -1.0085  1.3098
  267SOL     OW 3242   6.983   5.659   6.865  0.3321  0.2440  0.3113
  267SOL    HW1 3243   7.029   5.645   6.948  1.8783  1.5676 -0.2565
  267SOL    HW2 3244   6.938   5.576   6.848  0.0783 -0.1062  2.3789
  268SOL     OW 3245   5.747   7.494   2.990  0.4105  0.3705  0.1785
  268SOL    HW1 3246   5.658   7.461   2.978 -0.0868  1.8767 -0.4974
  268SOL    HW2 3247   5.787   7.433   3.052 -0.1386 -2.0521 -1.6830
  269SOL     OW 3248   0.429   4.009   4.557  0.5332  0.0070 -0.0444
  269SOL    HW1 3249   0.445   4.078   4.622 -0.0056  0.4816 -0.4078
  269SOL    HW2 3250   0.339   4.024   4.528 -0.2294 -1.9043  1.1250
  270SOL     OW 3251   7.573   1.383   3.926 -0.3077 -0.1271 -0.3959
  270SOL    HW1 3252   7.593   1.475   3.912 -1.2220  0.4595  1.7570
  270SOL    HW2 3253   7.542   1.378   4.017 -0.9917 -2.4307 -0.6801
  271SOL     OW 3254   6.857   3.134   6.935  0.8553 -0.1114 -0.0211
  271SOL    HW1 3255   6.861   3.196   6.862 -0.0750  0.0425  0.0448
  271SOL    HW2 3256   6.943   3.093   6.936  0.4759 -1.0850 -2.0699
  272SOL     OW 3257   1.163   2.586   6.193 -0.1458  0.2698 -0.6126
  272SOL    HW1 3258   1.114   2.668   6.204  0.0570  0.1968  1.1633
  272SOL    HW2 3259   1.214   2.599   6.113 -1.9384  0.9155 -1.6932
  273SOL     OW 3260   2.507   4.272   4.057 -0.2864  0.2087 -0.2946
  273SOL    HW1 3261   2.544   4.334   4.120  2.1756  0.7804 -2.1535
  273SOL    HW2 3262   2.413   4.272   4.076  0.1153  1.7361  2.1124
  274SOL     OW 3263   1.514   0.552   1.793  0.5180 -0.1433  0.1809
  274SOL    HW1 3264   1.536   0.563   1.700  2.6309  0.3617  0.6682
  274SOL    HW2 3265   1.526   0.639   1.830 -3.0425  0.3435  0.5216
  275SOL     OW 3266   8.645   3.491   4.867  0.5366  0.6599  0.2196
  275SOL    HW1 3267   8.654   3.477   4.773  0.5992 -1.8863  0.5416
  275SOL    HW2 3268   8.554   3.469   4.887  0.5767  0.9771  0.7793
  276SOL     OW 3269  10.002  10.347   9.265  0.0170  0.0413  0.0533
  276SOL    HW1 3270  10.091  10.315   9.249  0.4382  1.3355 -0.3412
  276SOL    HW2 3271  10.010  10.442   9.262 -1.3925  0.1800 -0.0195
  277SOL     OW 3272   9.750   5.325   2.178  0.0034  0.2572 -0.1729
  277SOL    HW1 3273   9.680   5.337   2.114 -0.2528 -0.1105  0.0355
  277SOL    HW2 3274   9.767   5.230   2.177 -0.7455  0.0957  1.0801
  278SOL     OW 3275   5.819   5.882   0.222  0.0605  0.0521  0.1458
  278SOL    HW1 3276   5.879   5.808   0.226  1.3683  0.8971 -1.9026
  278SOL    HW2 3277   5.866   5.953   0.266 -1.1007 -0.2247  1.9245
  279SOL     OW 3278   1.189   8.728   2.001 -0.4580 -0.2705  0.0556
  279SOL    HW1 3279   1.207   8.704   2.092 -0.6015  0.1881  0.2062
  279SOL    HW2 3280   1.269   8.774   1.972 -0.5113 -0.1945  0.0293
  280SOL     OW 3281   5.681   8.651   1.047  0.3723 -0.0892  0.0467
  280SOL    HW1 3282   5.629   8.656   1.128 -1.9704  0.5431 -1.4070
  280SOL    HW2 3283   5.707   8.559   1.042 -1.1628 -0.5828  0.5353
  281SOL     OW 3284   2.179   6.666   0.724  0.2864  0.0886  0.0716
  281SOL    HW1 3285   2.181   6.671   0.629  0.2481  1.1427  0.1104
  281SOL    HW2 3286   2.119   6.594   0.744  0.3970 -0.2152 -0.6989
  282SOL     OW 3287  10.252   7.060   7.555 -0.3200 -0.9863  0.5052
  282SOL    HW1 3288  10.162   7.045   7.526 -0.7524 -0.7765  1.6970
  282SOL    HW2 3289  10.246   7.064   7.650  0.8231 -0.1249  0.5553
  283SOL     OW 3290   9.578   9.268   7.703  0.1117  0.2878  0.2672
  283SOL    HW1 3291   9.634   9.190   7.708  1.1123  1.0357  1.3685
  283SOL    HW2 3292   9.602   9.310   7.620 -0.5819 -0.6575 -0.4337
  284SOL     OW 3293   3.525   9.357   2.269  0.7817  0.6013  0.0640
  284SOL    HW1 3294   3.606   9.408   2.267  1.6262 -0.4415  2.9455
  284SOL    HW2 3295   3.543   9.282   2.212  1.2295  1.1871 -0.5844
  285SOL     OW 3296   5.091   8.523   3.673  0.0066  0.2829 -0.3564
  285SOL    HW1 3297   5.030   8.451   3.662 -0.7605  0.7822  0.4997
  285SOL    HW2 3298   5.036   8.602   3.668  0.1536  0.6889  2.7567
  286SOL     OW 3299   4.334   9.822   1.214  0.2068 -0.1874  0.6250
  286SOL    HW1 3300   4.399   9.840   1.282  0.4194  0.6029  0.2299
  286SOL    HW2 3301   4.350   9.889   1.147  0.9434 -1.8114 -0.9069
  287SOL     OW 3302   9.700   9.399   0.236 -0.3705 -0.1505 -0.4537
  287SOL    HW1 3303   9.739   9.450   0.165 -1.1735  1.3282  0.1251
  287SOL    HW2 3304   9.659   9.324   0.193  0.1904  0.0790 -1.4084
  288SOL     OW 3305   6.671   5.546  10.002 -0.1440  0.3963 -0.3010
  288SOL    HW1 3306   6.643   5.593   9.924  0.5561 -0.4244 -1.0737
  288SOL    HW2 3307   6.616   5.468  10.005 -0.7703  0.8613  0.5308
  289SOL     OW 3308   5.033   6.728   1.615 -1.0994  0.7791  0.0570
  289SOL    HW1 3309   5.101   6.785   1.652  0.7850 -1.2832  0.0066
  289SOL    HW2 3310   4.956   6.744   1.669  0.2345  1.1741  1.9440
  290SOL     OW 3311   1.440   4.679   4.417  0.0541 -0.0053  0.9003
  290SOL    HW1 3312   1.518   4.704   4.465 -1.1276 -1.1972  3.7073
  290SOL    HW2 3313   1.461   4.594   4.378  0.6418  0.4171  0.2852
  291SOL     OW 3314   9.225  10.105   7.394  0.2427  0.2158 -0.1098
  291SOL    HW1 3315   9.305  10.090   7.444 -1.1159  1.9915  2.8819
  291SOL    HW2 3316   9.165  10.037   7.425 -0.7166  1.5251  1.0235
  292SOL     OW 3317  10.484   4.477   6.515 -0.0412 -0.3956 -0.7899
  292SOL    HW1 3318  10.431   4.397   6.518 -1.2855  0.4349  1.1295
  292SOL    HW2 3319  10.574   4.446   6.506 -0.4827 -2.0121 -0.0157
  293SOL     OW 3320   6.608   9.205   6.173 -0.1685  0.0015  0.1288
  293SOL    HW1 3321   6.662   9.186   6.096  1.5657 -2.4000  1.8017
  293SOL    HW2 3322   6.538   9.139   6.171  0.6068 -0.8961  1.1939
  294SOL     OW 3323   6.421   7.824   5.260 -0.3644 -0.1534 -0.0249
  294SOL    HW1 3324   6.394   7.835   5.352 -0.4291 -0.1536 -0.0438
  294SOL    HW2 3325   6.516   7.835   5.262 -0.6425  3.3057 -0.4817
  295SOL     OW 3326   4.487  10.178   1.706 -0.2835  0.6328  0.5271
  295SOL    HW1 3327   4.553  10.245   1.725 -0.5823  1.0415  0.1205
  295SOL    HW2 3328   4.472  10.185   1.612 -1.2625  0.8731  0.6943
  296SOL     OW 3329   4.752   9.545   7.729 -0.5412 -0.1255  0.0137
  296SOL    HW1 3330   4.692   9.573   7.660  0.5211 -0.9226 -1.3072
  296SOL    HW2 3331   4.720   9.458   7.755 -1.0838  0.2759  0.7330
  297SOL     OW 3332   8.939   1.087   8.154  0.1323 -0.4182  0.1579
  297SOL    HW1 3333   8.945   1.080   8.249 -0.8166  1.8922  0.4591
  297SOL    HW2 3334   9.025   1.117   8.126  1.4477 -4.0283 -0.1803
  298SOL     OW 3335   0.689   4.496   0.256  0.0243 -0.6173 -0.0960
  298SOL    HW1 3336   0.782   4.475   0.269  0.6645  1.0767 -1.5695
  298SOL    HW2 3337   0.689   4.564   0.189 -2.2314  0.2243  0.6773
  299SOL     OW 3338   5.876   1.168   2.557  0.3931 -0.6992 -0.2267
  299SOL    HW1 3339   5.839   1.233   2.498 -0.7047 -2.3878 -1.4888
  299SOL    HW2 3340   5.968   1.162   2.532 -0.0086 -1.2404 -1.6867
  300SOL     OW 3341   7.213   0.293   0.317 -0.5358 -0.0626  0.5543
  300SOL    HW1 3342   7.304   0.306   0.289 -0.3451 -1.6340  0.3592
  300SOL    HW2 3343   7.186   0.213   0.273 -2.0892  0.4833  0.4805
  301SOL     OW 3344   5.036  10.305   3.683 -0.1782  0.3125  0.1406
  301SOL    HW1 3345   5.027  10.245   3.609 -0.5334  0.6869 -0.1189
  301SOL    HW2 3346   5.127  10.293   3.711  0.1727  0.6691 -0.7918
  302SOL     OW 3347   2.309   2.454   6.458  0.4495  0.2332 -0.0852
  302SOL    HW1 3348   2.276   2.529   6.506  0.9468  0.6616 -0.3994
  302SOL    HW2 3349   2.274   2.378   6.504 -1.0192  0.6578 -0.4535
  303SOL     OW 3350   2.698   3.474   2.846  0.0986 -0.5594  0.1386
  303SOL    HW1 3351   2.675   3.548   2.790 -1.0796 -0.3873  0.7944
  303SOL    HW2 3352   2.791   3.460   2.832  0.5395  1.5649  0.5640
  304SOL     OW 3353   7.982   0.184   6.156 -0.1685 -0.2223 -0.0414
  304SOL    HW1 3354   8.005   0.150   6.242 -1.0057  1.7329  1.0299
  304SOL    HW2 3355   7.887   0.171   6.149 -0.5107  1.7331  0.3932
  305SOL     OW 3356   3.666   4.425   9.965  0.7001  0.3555  0.0655
  305SOL    HW1 3357   3.687   4.394   9.877  3.6586  1.7611  0.1658
  305SOL    HW2 3358   3.684   4.519   9.962  0.1769  0.5563  2.0117
  306SOL     OW 3359   9.317   3.378   4.577  0.1485 -0.5296 -0.1740
  306SOL    HW1 3360   9.394   3.373   4.633  0.5655  0.1978 -0.6634
  306SOL    HW2 3361   9.285   3.468   4.588 -0.2804 -0.6474 -0.4285
  307SOL     OW 3362   4.825   9.931   3.166 -0.4945  0.0562 -0.5397
  307SOL    HW1 3363   4.819   9.888   3.252 -0.5452  2.3102  0.6590
  307SOL    HW2 3364   4.904   9.894   3.127  0.3144 -0.0141  1.0742
  308SOL     OW 3365   1.955   5.007   1.075  0.5082  0.0134  0.1820
  308SOL    HW1 3366   2.007   5.069   1.023  0.6482 -0.1761  0.0955
  308SOL    HW2 3367   2.017   4.938   1.098  0.7045  0.5893  1.4626
  309SOL     OW 3368   7.172   5.799   2.303  0.7012  0.1472 -0.1284
  309SOL    HW1 3369   7.110   5.747   2.355  0.4815  1.3169  0.8314
  309SOL    HW2 3370   7.154   5.774   2.213 -1.9937  1.2271 -0.0010
  310SOL     OW 3371   1.644   3.045   7.436 -0.0681  0.0483  0.3867
  310SOL    HW1 3372   1.666   2.959   7.400  4.2621  1.2594 -0.4304
  310SOL    HW2 3373   1.598   3.090   7.365 -2.9430 -1.6504  1.0343
  311SOL     OW 3374   6.102   9.020   4.647  0.4839  0.2749  0.3805
  311SOL    HW1 3375   6.137   8.937   4.678 -0.7235 -0.4409 -0.0955
  311SOL    HW2 3376   6.130   9.084   4.712  0.2375 -0.7492  1.5263
  312SOL     OW 3377   0.821   7.753   4.110  0.3081  0.2089 -0.1254
  312SOL    HW1 3378   0.888   7.698   4.151 -0.5426 -1.1007 -0.4114
  312SOL    HW2 3379   0.745   7.745   4.167  0.0051  0.6654 -0.4559
  313SOL     OW 3380   6.584   3.700   1.593  0.2126 -0.0315  0.2081
  313SOL    HW1 3381   6.492   3.689   1.568  0.3490  0.7172 -0.7097
  313SOL    HW2 3382   6.622   3.613   1.584 -0.9067 -0.9145  2.9755
  314SOL     OW 3383   9.058   6.767   6.685 -0.1308 -0.0741 -0.1775
  314SOL    HW1 3384   8.983   6.708   6.674  0.8021 -0.9806 -2.1382
  314SOL    HW2 3385   9.085   6.754   6.776 -0.5615 -1.9638 -0.2657
  315SOL     OW 3386   5.501   5.646   1.176 -0.0731 -0.6432  0.4527
  315SOL    HW1 3387   5.525   5.738   1.171  0.6515 -0.8067  0.6689
  315SOL    HW2 3388   5.406   5.645   1.172 -0.3406  0.3605  3.7459
  316SOL     OW 3389   8.575   4.924   9.960 -0.1100  0.5561  0.5143
  316SOL    HW1 3390   8.571   4.849   9.901 -2.7174  0.1861  1.0473
  316SOL    HW2 3391   8.590   4.999   9.901  0.8487 -0.1781 -0.2028
  317SOL     OW 3392   8.344   0.818   8.339 -0.5914 -0.4609 -0.1368
  317SOL    HW1 3393   8.363   0.788   8.250  0.2114 -1.6723  0.4073
  317SOL    HW2 3394   8.362   0.741   8.394 -0.6146  0.4051  1.1125
  318SOL     OW 3395   1.386   1.967   3.720  0.1439 -0.2280 -0.1282
  318SOL    HW1 3396   1.299   1.934   3.699  0.0473  0.2190 -0.4476
  318SOL    HW2 3397   1.380   2.061   3.704  0.7036 -0.2040 -0.1999
  319SOL     OW 3398   4.691   5.869   9.204 -0.5095 -0.2939  0.0049
  319SOL    HW1 3399   4.780   5.906   9.204 -0.1724 -1.0321  1.3481
  319SOL    HW2 3400   4.645   5.917   9.135  1.4092 -1.1064 -1.9609
  320SOL     OW 3401   3.214   2.498   8.247  0.5464  0.1242 -0.3667
  320SOL    HW1 3402   3.230   2.410   8.213 -0.3198  0.1299 -0.8254
  320SOL    HW2 3403   3.238   2.557   8.174  0.2953  0.2207 -0.3724
  321SOL     OW 3404   4.035   9.980   8.780  0.2831  0.3141 -0.2983
  321SOL    HW1 3405   4.018  10.071   8.754 -1.8378 -0.1152 -0.6083
  321SOL    HW2 3406   3.986   9.927   8.717  0.9182 -1.0319  0.2906
  322SOL     OW 3407   8.398   6.904   4.754 -0.0933 -0.8048  0.0600
  322SOL    HW1 3408   8.413   6.822   4.802  0.6536 -0.2641  0.7678
  322SOL    HW2 3409   8.326   6.883   4.695 -0.6784 -1.6558  1.0305
  323SOL     OW 3410   8.754   7.337   3.960 -0.1177 -0.3560  0.0850
  323SOL    HW1 3411   8.761   7.329   4.056 -1.8637  1.1917  0.3918
  323SOL    HW2 3412   8.825   7.281   3.927 -0.0246 -1.6675  2.2483
  324SOL     OW 3413   7.086   4.097   2.896 -0.1849 -0.2638 -0.4731
  324SOL    HW1 3414   7.139   4.097   2.976  0.0869 -0.1485 -0.6508
  324SOL    HW2 3415   7.133   4.040   2.836 -0.8042 -0.9815 -0.2856
  325SOL     OW 3416   8.632   8.565   2.659  0.3747  0.1367  0.3137
  325SOL    HW1 3417   8.546   8.603   2.680  0.9100  1.1038  0.8019
  325SOL    HW2 3418   8.673   8.549   2.744  0.8030 -0.0405  0.0777
  326SOL     OW 3419   5.968   6.963   9.934  0.1137  0.3077  0.3601
  326SOL    HW1 3420   6.064   6.968   9.932  0.3450 -2.1070 -3.0876
  326SOL    HW2 3421   5.939   7.047   9.896  0.8973  0.6375  0.4725
  327SOL     OW 3422   6.264   6.598   0.118 -0.5888 -0.0214 -0.2572
  327SOL    HW1 3423   6.195   6.665   0.115 -1.3563 -0.7346  0.9702
  327SOL    HW2 3424   6.221   6.520   0.150  0.6788 -0.6533 -0.0255
  328SOL     OW 3425   1.740   2.167   3.721  0.0017 -0.6392 -0.3866
  328SOL    HW1 3426   1.718   2.258   3.740 -0.4230 -0.4237 -1.7748
  328SOL    HW2 3427   1.750   2.165   3.626  2.6343 -1.4805 -0.1860
  329SOL     OW 3428   5.889   0.061   6.963 -0.1075  0.3108 -0.7397
  329SOL    HW1 3429   5.873  -0.028   6.929 -2.6812  0.7419 -0.8498
  329SOL    HW2 3430   5.980   0.080   6.939  0.5868 -2.3433 -0.5426
  330SOL     OW 3431   9.174   8.369   5.484 -0.1782 -0.1333 -0.4812
  330SOL    HW1 3432   9.093   8.327   5.455  0.2696 -1.5130  0.1842
  330SOL    HW2 3433   9.145   8.439   5.542 -0.9000 -1.6453  1.0805
  331SOL     OW 3434   7.952   6.584   7.521  0.6409 -0.1307 -0.3366
  331SOL    HW1 3435   7.963   6.498   7.480  1.1516  0.1726 -0.8450
  331SOL    HW2 3436   7.977   6.646   7.453  2.1610  0.3740  0.6562
  332SOL     OW 3437   1.607   4.145   7.207 -0.1331  0.0164 -0.5088
  332SOL    HW1 3438   1.664   4.070   7.189  2.6246  1.6543  0.7070
  332SOL    HW2 3439   1.601   4.147   7.303 -1.9258  0.1806 -0.5957
  333SOL     OW 3440   5.643   2.379   6.964 -0.2125 -0.1652  0.5721
  333SOL    HW1 3441   5.593   2.414   6.890 -0.9765  0.4279  1.3518
  333SOL    HW2 3442   5.578   2.336   7.019  0.1552  0.4578  1.5091
  334SOL     OW 3443   5.889   7.089   2.705  0.0030  0.1264  0.5124
  334SOL    HW1 3444   5.962   7.044   2.664 -0.3604 -0.8617  0.9075
  334SOL    HW2 3445   5.858   7.028   2.772 -0.8068  0.7731  0.7481
  335SOL     OW 3446   8.674   4.875  10.422 -0.2902  0.1900 -0.4970
  335SOL    HW1 3447   8.714   4.953  10.384 -1.7344  0.2014 -2.1337
  335SOL    HW2 3448   8.655   4.819  10.347  0.4177 -1.6266  0.6134
  336SOL     OW 3449   6.255   3.410   7.826  0.1445 -0.1610  0.5516
  336SOL    HW1 3450   6.218   3.495   7.848  0.3714  0.2959 -0.7561
  336SOL    HW2 3451   6.249   3.360   7.907 -2.0451  0.3368  0.7531
  337SOL     OW 3452   0.903   2.908   1.695 -0.1148  0.4868  0.6020
  337SOL    HW1 3453   0.971   2.875   1.637 -0.6885 -1.5645  1.0211
  337SOL    HW2 3454   0.938   2.896   1.783 -0.9286 -0.5021  0.8175
  338SOL     OW 3455   0.120   0.262   2.756 -0.2241  0.6760 -0.0942
  338SOL    HW1 3456   0.145   0.169   2.759 -1.4140  0.3509  0.0055
  338SOL    HW2 3457   0.139   0.289   2.666  2.2641  0.9696  0.4486
  339SOL     OW 3458   7.891   8.917   9.049 -0.2804  0.0164 -0.4503
  339SOL    HW1 3459   7.795   8.915   9.053 -0.4870  3.9259  0.2271
  339SOL    HW2 3460   7.919   8.863   9.122 -2.1324  1.5715  1.5519
  340SOL     OW 3461   5.854   7.493   2.294 -0.7055  0.0562  0.1909
  340SOL    HW1 3462   5.851   7.527   2.383  0.6126  1.5183 -0.2701
  340SOL    HW2 3463   5.931   7.535   2.255  0.5955 -2.9163 -0.7050
  341SOL     OW 3464   4.337   5.583   0.836  0.5343 -0.2550  0.4949
  341SOL    HW1 3465   4.326   5.491   0.859  0.2874 -0.3108  0.1735
  341SOL    HW2 3466   4.257   5.625   0.868  0.1279 -0.3559 -0.3486
  342SOL     OW 3467   2.747   7.797  10.469 -0.2431 -0.0339  0.2293
  342SOL    HW1 3468   2.672   7.737  10.463 -0.4200  0.2319 -0.2868
  342SOL    HW2 3469   2.719   7.874  10.420  0.6519 -0.2177 -0.5977
  343SOL     OW 3470   9.459   6.312   4.605 -0.2312 -0.4497 -0.0246
  343SOL    HW1 3471   9.489   6.320   4.695  0.5976 -1.5562 -0.1869
  343SOL    HW2 3472   9.437   6.401   4.579  1.1486  0.1250  0.7179
  344SOL     OW 3473   2.045   5.977   4.942  0.0961 -0.3207  0.1315
  344SOL    HW1 3474   2.072   5.886   4.931  0.5859  0.0521 -2.7083
  344SOL    HW2 3475   2.122   6.020   4.978 -0.1719 -1.0087  1.5893
  345SOL     OW 3476   8.655   6.508   1.419 -0.2866  0.4102 -0.0891
  345SOL    HW1 3477   8.731   6.547   1.463 -0.7128 -0.7254  1.7445
  345SOL    HW2 3478   8.632   6.572   1.351  2.6177  0.5232 -1.0901
  346SOL     OW 3479   6.294   5.238   9.749  0.2479  0.1506 -0.8209
  346SOL    HW1 3480   6.328   5.176   9.812  2.2851  0.1762 -1.8246
  346SOL    HW2 3481   6.203   5.210   9.733  0.0834 -0.5462  1.1668
  347SOL     OW 3482  10.440  10.466   5.520 -0.0957  0.0261 -0.3243
  347SOL    HW1 3483  10.435  10.497   5.430 -0.3841 -1.1119 -0.7234
  347SOL    HW2 3484  10.364  10.504   5.563 -0.3048  0.0721 -0.7289
  348SOL     OW 3485   1.920   5.923   0.844  0.5257  0.1509 -0.6145
  348SOL    HW1 3486   1.982   5.856   0.873  0.9702  0.6600 -0.3621
  348SOL    HW2 3487   1.897   5.971   0.924  0.0184  0.1368 -0.7513
  349SOL     OW 3488   1.434   7.721   1.142 -0.1543  0.0982 -0.4066
  349SOL    HW1 3489   1.498   7.696   1.075  1.0668  0.6077  0.5414
  349SOL    HW2 3490   1.466   7.681   1.222 -1.1218  0.2373  0.0576
  350SOL     OW 3491   8.197   4.885   2.984  0.4839 -0.2714  0.2190
  350SOL    HW1 3492   8.119   4.898   3.038 -0.3806 -1.5964 -0.6560
  350SOL    HW2 3493   8.178   4.806   2.933  1.2780  0.8604 -1.9608
  351SOL     OW 3494   4.562   5.673   9.577  0.1678  0.5200 -0.5046
  351SOL    HW1 3495   4.616   5.608   9.623 -1.3180 -1.3342 -1.2560
  351SOL    HW2 3496   4.487   5.686   9.635  0.2910  1.3419 -0.5231
  352SOL     OW 3497   6.359   1.730   4.746  0.0362  0.4216 -0.2695
  352SOL    HW1 3498   6.411   1.809   4.759  2.7408 -1.3217  0.2553
  352SOL    HW2 3499   6.420   1.666   4.710 -1.8329 -1.6860  0.0623
  353SOL     OW 3500   8.453   8.934   0.566 -0.1585  0.0650  0.1271
  353SOL    HW1 3501   8.375   8.899   0.523  0.6344 -0.1429 -1.1995
  353SOL    HW2 3502   8.420   8.980   0.643 -1.4251 -1.6057  0.6299
  354SOL     OW 3503   1.764   8.371   1.357  0.4395  0.0485 -0.3901
  354SOL    HW1 3504   1.706   8.431   1.403  1.4543  0.4846  0.3428
  354SOL    HW2 3505   1.800   8.314   1.425  1.4928  0.3120 -0.7067
  355SOL     OW 3506  10.168   2.829   0.207  0.3056 -0.1649 -0.1919
  355SOL    HW1 3507  10.159   2.864   0.119  1.7872  0.6319 -0.0526
  355SOL    HW2 3508  10.092   2.772   0.218 -0.6353  0.7952 -1.4662
  356SOL     OW 3509   0.329   9.363   6.296 -0.5457  0.6033 -0.1056
  356SOL    HW1 3510   0.291   9.450   6.302 -0.3822  0.6035  1.3423
  356SOL    HW2 3511   0.396   9.370   6.228 -0.7317  1.5190 -0.2070
  357SOL     OW 3512   8.878   0.762   3.080 -0.0214  0.0834 -0.3513
  357SOL    HW1 3513   8.942   0.716   3.133 -1.9500 -1.9565  0.3488
  357SOL    HW2 3514   8.836   0.694   3.027 -3.7050  0.6919  1.4611
  358SOL     OW 3515   9.084   4.754   8.590  0.1105 -0.3857 -0.4516
  358SOL    HW1 3516   9.098   4.827   8.529  0.6473 -1.0753 -1.1923
  358SOL    HW2 3517   9.126   4.782   8.671  0.9551 -0.1524 -0.9495
  359SOL     OW 3518   4.381   2.887   4.111 -0.5449  0.3980 -0.5208
  359SOL    HW1 3519   4.424   2.956   4.060  0.2916  0.0277 -0.3219
  359SOL    HW2 3520   4.347   2.931   4.188  0.5036  0.4903 -0.1045
  360SOL     OW 3521   0.340   2.061   2.478 -0.2929 -0.7203 -0.2746
  360SOL    HW1 3522   0.429   2.056   2.514 -0.0456  0.8004 -0.6083
  360SOL    HW2 3523   0.295   2.123   2.535 -0.5024  0.1323 -1.3409
  361SOL     OW 3524   6.126   7.784   2.866  0.4495  0.2848  0.4848
  361SOL    HW1 3525   6.123   7.875   2.836 -0.7039  0.1290  0.1002
  361SOL    HW2 3526   6.035   7.756   2.867  0.8510 -1.1118 -0.1155
  362SOL     OW 3527  10.351   0.970   3.639  0.7869  0.4532 -0.2284
  362SOL    HW1 3528  10.382   1.059   3.623  1.3756  0.2665 -0.1557
  362SOL    HW2 3529  10.393   0.918   3.569  1.9944 -0.0830  0.8452
  363SOL     OW 3530   9.445   2.723   8.720 -0.0049 -0.8294 -0.5855
  363SOL    HW1 3531   9.357   2.694   8.696 -0.7081  0.1557  0.6567
  363SOL    HW2 3532   9.440   2.738   8.814  0.8441  1.3498 -0.8217
  364SOL     OW 3533   9.959   0.272   6.256 -0.1237 -0.5037  0.1698
  364SOL    HW1 3534   9.913   0.279   6.340  0.0271  0.1090  0.2093
  364SOL    HW2 3535  10.033   0.213   6.273  0.3993  0.2844  0.6955
  365SOL     OW 3536   2.200   4.336   4.014  0.2587  0.1370  0.2686
  365SOL    HW1 3537   2.188   4.321   3.920 -1.4113 -0.5578  0.5529
  365SOL    HW2 3538   2.259   4.411   4.019  1.6507 -0.7850 -1.3147
  366SOL     OW 3539   0.120   3.470  10.434 -0.1445  0.4981 -0.3711
  366SOL    HW1 3540   0.210   3.503  10.432 -0.8760  2.6844 -2.6448
  366SOL    HW2 3541   0.076   3.523  10.500  0.5546 -1.8890  2.1962
  367SOL     OW 3542   4.143   7.832   9.994  0.4690  0.0361 -0.4933
  367SOL    HW1 3543   4.126   7.893   9.923 -0.2394  0.2708 -0.1298
  367SOL    HW2 3544   4.080   7.761   9.982 -0.2140  0.4818  0.3664
  368SOL     OW 3545   8.861   0.128   4.295 -0.0608  0.1770  0.0702
  368SOL    HW1 3546   8.812   0.063   4.346 -1.5665  0.1626 -1.3474
  368SOL    HW2 3547   8.842   0.107   4.204  0.2734  1.9604 -0.4458
  369SOL     OW 3548   4.514   1.292   3.186  0.0510 -0.2810  0.2680
  369SOL    HW1 3549   4.578   1.359   3.164  0.2637 -0.7672 -0.6370
  369SOL    HW2 3550   4.473   1.324   3.267  2.3657 -0.6025  1.6688
  370SOL     OW 3551   8.275   7.019   4.507  0.0346 -0.4603  0.3466
  370SOL    HW1 3552   8.358   7.054   4.540 -1.2630  1.1627  2.0687
  370SOL    HW2 3553   8.279   7.035   4.413  0.7039  1.8214  0.7051
  371SOL     OW 3554   3.357   7.694   1.138 -0.0007  0.4070 -0.4601
  371SOL    HW1 3555   3.394   7.607   1.156  1.2615  0.8471 -0.8863
  371SOL    HW2 3556   3.313   7.718   1.220  0.9384  0.0133  0.1820
  372SOL     OW 3557   6.059   2.169   5.879 -0.6789 -0.1345  0.0274
  372SOL    HW1 3558   6.085   2.186   5.788  1.7422 -2.2248  0.2076
  372SOL    HW2 3559   6.016   2.083   5.875  0.1446 -0.5985  0.9371
  373SOL     OW 3560   9.420   0.635   2.498 -0.2647 -0.3175  0.4721
  373SOL    HW1 3561   9.334   0.629   2.456  0.3089 -0.3159 -0.7493
  373SOL    HW2 3562   9.406   0.693   2.573 -1.3968 -0.5978  0.4997
  374SOL     OW 3563   9.505   8.907   6.086  0.1499  0.0896  0.4822
  374SOL    HW1 3564   9.454   8.941   6.012 -1.0289 -1.4174  0.5556
  374SOL    HW2 3565   9.440   8.891   6.155  0.9581 -0.3040  1.1672
  375SOL     OW 3566  10.457   6.116   7.694  0.5044  0.0857 -0.1670
  375SOL    HW1 3567  10.387   6.149   7.750  0.1421 -1.8177  0.5915
  375SOL    HW2 3568  10.533   6.170   7.716 -0.5800  1.8887 -0.6749
  376SOL     OW 3569   2.693   4.837   7.980 -0.3549 -0.1245 -0.1579
  376SOL    HW1 3570   2.661   4.882   7.902  3.2087  1.2510 -1.0177
  376SOL    HW2 3571   2.733   4.757   7.947  1.0346  0.3881  0.2111
  377SOL     OW 3572   7.527   4.208   7.145 -0.0218 -0.3430 -0.3521
  377SOL    HW1 3573   7.576   4.128   7.128  0.0595 -0.8650  2.0519
  377SOL    HW2 3574   7.440   4.191   7.108  0.4812 -0.8572 -1.3323
  378SOL     OW 3575   7.676   9.416   9.945 -0.0839 -0.9652 -0.1803
  378SOL    HW1 3576   7.617   9.394  10.018  0.1167  0.7725  0.5541
  378SOL    HW2 3577   7.619   9.420   9.868 -0.4947 -1.7129  0.0791
  379SOL     OW 3578   8.132   4.878   0.126 -0.0218 -0.1599  0.1086
  379SOL    HW1 3579   8.190   4.920   0.062 -1.0441  0.7745 -0.2504
  379SOL    HW2 3580   8.051   4.862   0.077  0.1025 -1.9651  0.4401
  380SOL     OW 3581   6.881   4.050   3.418  0.4127 -0.1077  0.0378
  380SOL    HW1 3582   6.862   4.003   3.337 -1.6912 -0.0149  0.4393
  380SOL    HW2 3583   6.924   4.131   3.390  2.4386 -1.3657 -0.7646
  381SOL     OW 3584   7.587   9.069   2.961  0.1733 -0.3583  0.1964
  381SOL    HW1 3585   7.663   9.126   2.977 -0.2171  0.0416  0.6758
  381SOL    HW2 3586   7.561   9.088   2.871 -0.6072  1.0484  0.6811
  382SOL     OW 3587   3.238   4.605   2.813  0.6583  0.0183 -0.3002
  382SOL    HW1 3588   3.231   4.511   2.798  1.0783  0.2234 -2.1054
  382SOL    HW2 3589   3.148   4.634   2.829  0.3253 -0.5028 -1.1467
  383SOL     OW 3590   1.276   5.013   5.780  0.0739  0.3380 -0.3812
  383SOL    HW1 3591   1.291   4.946   5.713 -1.4744  1.4758 -1.9775
  383SOL    HW2 3592   1.336   5.084   5.756 -1.2915  1.2316 -1.3807
  384SOL     OW 3593  10.125   2.945   3.390  0.4472 -0.5823  0.5621
  384SOL    HW1 3594  10.096   2.854   3.388  3.3684 -1.6270 -0.6222
  384SOL    HW2 3595  10.204   2.944   3.445  1.7317  0.7693 -1.1378
  385SOL     OW 3596   0.730   7.848   6.150  0.3235  0.1071  0.4012
  385SOL    HW1 3597   0.743   7.881   6.062 -0.9534  0.3249  0.2812
  385SOL    HW2 3598   0.690   7.762   6.138 -1.3795  0.8036  0.7457
  386SOL     OW 3599   6.197   8.468   7.579  0.1413 -0.4682  0.1109
  386SOL    HW1 3600   6.268   8.532   7.583  0.3137 -0.7004  0.9433
  386SOL    HW2 3601   6.141   8.499   7.507  1.4988 -0.7337 -1.1074
  387SOL     OW 3602   9.344   6.446   4.176 -0.4383  0.1315 -0.0630
  387SOL    HW1 3603   9.340   6.461   4.270 -1.2039  1.2137 -0.2583
  387SOL    HW2 3604   9.435   6.464   4.153 -0.2908  0.0388  0.4463
  388SOL     OW 3605   0.564   9.977   7.218 -0.4874  0.2316 -0.7719
  388SOL    HW1 3606   0.619   9.944   7.147  1.3608 -2.1645  1.5764
  388SOL    HW2 3607   0.478   9.939   7.202 -0.2087  0.0421 -1.8981
  389SOL     OW 3608   4.137   3.587   8.089  0.5066 -0.2516  0.2999
  389SOL    HW1 3609   4.222   3.587   8.045  0.9688 -0.8057  1.1502
  389SOL    HW2 3610   4.128   3.676   8.123 -0.2829  0.4543 -1.6601
  390SOL     OW 3611   9.488   3.085   6.259  0.6825  0.1551  0.2798
  390SOL    HW1 3612   9.433   3.006   6.263  1.8015 -0.6727 -0.0576
  390SOL    HW2 3613   9.482   3.124   6.346  0.4378 -0.5283  0.5744
  391SOL     OW 3614   9.421   2.277   4.863 -0.3767 -0.4404  0.2226
  391SOL    HW1 3615   9.425   2.367   4.895  0.7797  0.1105 -1.3771
  391SOL    HW2 3616   9.340   2.273   4.813 -0.1327 -0.1153 -0.1983
  392SOL     OW 3617   0.918   4.296   6.164 -0.0410  0.3580  0.2603
  392SOL    HW1 3618   0.827   4.320   6.146 -0.2347  0.1562  0.9441
  392SOL    HW2 3619   0.945   4.355   6.234  0.3696  0.4400  0.0364
  393SOL     OW 3620   4.684   2.201   1.411  0.5401 -0.0464  0.2985
  393SOL    HW1 3621   4.655   2.144   1.340  0.0428 -0.1480  0.5793
  393SOL    HW2 3622   4.755   2.153   1.453  1.5656  0.4728 -0.7799
  394SOL     OW 3623  10.011   0.706   5.089  0.0703 -0.0175 -0.1640
  394SOL    HW1 3624  10.020   0.790   5.135 -0.1290  0.6905 -1.3805
  394SOL    HW2 3625  10.033   0.641   5.155 -0.6086  0.9389  1.0582
  395SOL     OW 3626   4.742   8.413   9.068 -0.3917 -0.4683 -0.1109
  395SOL    HW1 3627   4.648   8.413   9.087 -0.1898 -2.3994  1.1936
  395SOL    HW2 3628   4.781   8.366   9.141  1.7952  1.4741  0.0984
  396SOL     OW 3629   7.233   8.113   4.347 -0.0729  0.3617  0.5907
  396SOL    HW1 3630   7.273   8.051   4.286 -0.4739  0.9097 -0.2587
  396SOL    HW2 3631   7.208   8.061   4.423  0.3567 -0.3542  0.2469
  397SOL     OW 3632   1.353   0.336   6.724 -0.1743 -0.0409  0.3473
  397SOL    HW1 3633   1.389   0.259   6.767  1.6194 -0.4024 -1.5985
  397SOL    HW2 3634   1.258   0.327   6.732  0.0504 -0.8951  2.6681
  398SOL     OW 3635   5.555   8.286   7.523  0.0288 -0.2464 -0.6403
  398SOL    HW1 3636   5.476   8.289   7.469 -0.3799 -0.6634 -0.0754
  398SOL    HW2 3637   5.523   8.274   7.613  0.7477 -0.9660 -0.4647
  399SOL     OW 3638   9.559   5.272   0.796 -0.7317  0.2430 -0.2274
  399SOL    HW1 3639   9.571   5.228   0.711  0.4979 -0.1039  0.0957
  399SOL    HW2 3640   9.577   5.364   0.778 -1.0148  0.2556 -0.4525
  400SOL     OW 3641   6.192   1.407   7.110 -0.3346  0.2029 -0.4422
  400SOL    HW1 3642   6.113   1.436   7.156  0.3513  3.6401 -1.1562
  400SOL    HW2 3643   6.260   1.467   7.141  1.3504 -0.8436 -1.9594
  401SOL     OW 3644   9.003   4.039   9.064  0.4439 -0.7742  0.0324
  401SOL    HW1 3645   8.923   4.084   9.039 -0.6917 -1.8030  1.5762
  401SOL    HW2 3646   9.013   3.969   9.000 -0.6058 -1.3977  0.5312
  402SOL     OW 3647   8.013   3.478   6.640 -0.1643 -0.4947 -0.0533
  402SOL    HW1 3648   7.939   3.524   6.600  0.6896  2.7934  1.7968
  402SOL    HW2 3649   8.090   3.525   6.609  0.7117 -0.0216  2.6329
  403SOL     OW 3650   8.038   9.083   6.170  0.4587 -0.2086 -0.0483
  403SOL    HW1 3651   7.999   9.091   6.084 -0.9343  1.3428  0.6866
  403SOL    HW2 3652   8.024   8.991   6.195  0.9843 -0.7004 -1.4694
  404SOL     OW 3653   3.403   6.694   4.070 -0.2449  0.0467  0.6328
  404SOL    HW1 3654   3.453   6.759   4.119  0.7812  2.1035 -2.8273
  404SOL    HW2 3655   3.325   6.741   4.040 -0.5494 -0.9377 -0.1858
  405SOL     OW 3656   0.234   7.634   3.277 -0.5589 -0.0576 -0.2034
  405SOL    HW1 3657   0.264   7.624   3.187 -0.4091  1.1862 -0.3182
  405SOL    HW2 3658   0.139   7.644   3.270 -0.3515  2.6070 -0.5469
  406SOL     OW 3659   9.807   7.063   4.669 -0.1841 -0.1697 -0.1975
  406SOL    HW1 3660   9.786   7.091   4.580 -0.9596 -0.1045 -0.0001
  406SOL    HW2 3661   9.722   7.054   4.712  0.2120  1.1346  0.9326
  407SOL     OW 3662   6.934   2.745   5.033  0.0218  0.3447 -0.2663
  407SOL    HW1 3663   6.860   2.790   4.992  0.3062  2.3483  1.2063
  407SOL    HW2 3664   7.011   2.794   5.004  0.4472  0.2244  0.6144
  408SOL     OW 3665   7.134   1.400   4.912 -0.1477 -0.6537 -0.2581
  408SOL    HW1 3666   7.196   1.329   4.929  0.5304 -0.4950 -1.8075
  408SOL    HW2 3667   7.163   1.472   4.969 -0.0867 -1.2078  0.4197
  409SOL     OW 3668   7.403   7.490   1.699  0.1854 -0.4597 -0.0213
  409SOL    HW1 3669   7.335   7.436   1.739  0.8193 -0.7620  0.6706
  409SOL    HW2 3670   7.473   7.429   1.679  0.4942 -0.0573 -0.1763
  410SOL     OW 3671   7.888   2.522   6.725 -0.4858  0.0725  0.2033
  410SOL    HW1 3672   7.965   2.489   6.679  0.2458  0.2768  1.2475
  410SOL    HW2 3673   7.824   2.451   6.719 -0.1034 -0.2318 -0.3814
  411SOL     OW 3674   1.575   3.109   6.538  0.3293 -0.1340 -0.5111
  411SOL    HW1 3675   1.641   3.103   6.607 -0.2762  1.7458  0.3026
  411SOL    HW2 3676   1.491   3.104   6.585 -0.0959  1.2396 -1.0793
  412SOL     OW 3677   2.197   1.172   7.508 -0.2577 -0.1416  0.1992
  412SOL    HW1 3678   2.168   1.209   7.424 -0.2451 -0.9953 -0.1884
  412SOL    HW2 3679   2.185   1.243   7.571 -1.4582  0.1080 -0.2897
  413SOL     OW 3680   5.208   5.664   4.490 -0.3514 -0.4394  0.3490
  413SOL    HW1 3681   5.142   5.732   4.501 -0.8139 -0.8233  0.0319
  413SOL    HW2 3682   5.283   5.694   4.540 -0.6697  0.1426  0.4831
  414SOL     OW 3683   8.050   9.052   7.111  0.0071  0.1426  0.5270
  414SOL    HW1 3684   8.034   9.116   7.042  2.3350 -1.8708 -2.0857
  414SOL    HW2 3685   7.991   8.979   7.091 -0.4576  0.1723  1.6864
  415SOL     OW 3686   2.938   5.699   0.913  0.5337  0.6698  0.4804
  415SOL    HW1 3687   2.993   5.681   0.837 -0.6250  1.7913 -0.6760
  415SOL    HW2 3688   2.925   5.794   0.911 -0.6756  0.5348  1.2359
  416SOL     OW 3689   7.446  10.258   0.706 -0.1019  0.4713 -0.5864
  416SOL    HW1 3690   7.405  10.245   0.792 -0.5816 -2.1712 -1.1271
  416SOL    HW2 3691   7.538  10.276   0.726 -0.7303  3.0822  0.5158
  417SOL     OW 3692   1.443   1.304   5.731 -0.3133 -0.0557  0.1121
  417SOL    HW1 3693   1.487   1.369   5.786  0.3573 -1.4357  1.2879
  417SOL    HW2 3694   1.376   1.266   5.789 -0.3402 -0.7658 -0.3720
  418SOL     OW 3695   1.661   7.837   3.231 -0.0000 -0.5440  0.2667
  418SOL    HW1 3696   1.583   7.800   3.189  0.6787 -2.0888  0.2967
  418SOL    HW2 3697   1.733   7.782   3.200  0.8646 -0.1218  1.4617
  419SOL     OW 3698   4.082   8.982   0.375  0.0899 -0.7598  0.0945
  419SOL    HW1 3699   4.064   8.903   0.426  0.6195 -1.0206 -0.1133
  419SOL    HW2 3700   4.172   8.971   0.345  0.6829  0.5872  1.2705
  420SOL     OW 3701   5.233   1.064   0.286 -0.1258  0.2309 -0.1982
  420SOL    HW1 3702   5.304   1.048   0.224  1.2912  2.1656  0.8367
  420SOL    HW2 3703   5.162   1.097   0.231 -0.5526 -2.3052 -1.3289
  421SOL     OW 3704   2.186   4.655   9.428 -0.1451  0.4371  0.2456
  421SOL    HW1 3705   2.149   4.696   9.350  0.2539 -0.6587 -0.5411
  421SOL    HW2 3706   2.129   4.683   9.500 -1.2821  0.4091 -0.6282
  422SOL     OW 3707   7.494   9.551   9.157  0.1882  0.0317 -0.2008
  422SOL    HW1 3708   7.555   9.533   9.229 -1.9914  1.5707  2.1945
  422SOL    HW2 3709   7.440   9.473   9.151  0.7971 -0.3648 -0.6669
  423SOL     OW 3710   7.370   1.019   1.100  0.2105 -0.5165  0.2807
  423SOL    HW1 3711   7.436   0.981   1.158 -0.7501  1.1444  2.6571
  423SOL    HW2 3712   7.292   0.966   1.115 -0.5332  0.9455  1.9804
  424SOL     OW 3713  10.116   7.577   6.037  0.2884 -0.0790  0.2779
  424SOL    HW1 3714  10.082   7.662   6.008 -0.9868 -0.4137  0.7261
  424SOL    HW2 3715  10.098   7.518   5.963  1.3069  0.0482 -0.0931
  425SOL     OW 3716   1.058   5.871   0.288 -0.0211  0.2718  0.1680
  425SOL    HW1 3717   1.050   5.776   0.280 -1.7463  0.4676 -0.9880
  425SOL    HW2 3718   1.069   5.903   0.198  0.4551  1.1884  0.5273
  426SOL     OW 3719   0.058   7.858   4.993 -0.0828  0.0164 -0.0461
  426SOL    HW1 3720   0.054   7.799   5.069  1.3147  1.2814  1.0787
  426SOL    HW2 3721   0.132   7.826   4.942  1.4931  1.4877  1.2341
  427SOL     OW 3722   9.563   8.208   1.514 -0.2067  0.0715  0.6361
  427SOL    HW1 3723   9.604   8.155   1.583 -0.3052 -0.5068  0.2568
  427SOL    HW2 3724   9.476   8.229   1.548 -0.7186 -1.2418  0.1944
  428SOL     OW 3725   1.208   3.261   8.125 -0.6470 -0.0578  0.5628
  428SOL    HW1 3726   1.297   3.292   8.107 -1.4232  1.5626 -0.6568
  428SOL    HW2 3727   1.211   3.234   8.217  1.5631 -1.7774  0.0799
  429SOL     OW 3728   5.907   5.852   4.115  0.2372  0.4717 -0.0678
  429SOL    HW1 3729   5.822   5.837   4.155  0.8093 -0.2208  0.9405
  429SOL    HW2 3730   5.952   5.768   4.122  0.7774  0.6463 -1.1670
  430SOL     OW 3731   2.681   7.025   8.323 -0.3522  0.8843 -0.2142
  430SOL    HW1 3732   2.631   6.955   8.282 -0.7395  0.7251  0.5157
  430SOL    HW2 3733   2.633   7.045   8.404  0.0451  1.6238 -0.1510
  431SOL     OW 3734   1.995   2.114   9.074  0.1139  0.0190 -0.7050
  431SOL    HW1 3735   2.079   2.151   9.045 -0.1875  1.3991  0.0763
  431SOL    HW2 3736   1.929   2.168   9.031 -0.3409  0.5412  0.5759
  432SOL     OW 3737   8.217   7.040   0.971 -0.6172  0.1510  0.0936
  432SOL    HW1 3738   8.265   7.052   0.889 -1.5336  0.6076 -0.4023
  432SOL    HW2 3739   8.131   7.010   0.943 -1.7267  2.4915  0.6883
  433SOL     OW 3740   9.052   3.322   7.260  0.1659 -0.0482  0.2162
  433SOL    HW1 3741   9.020   3.348   7.346  1.1500  1.2760  0.2129
  433SOL    HW2 3742   8.973   3.308   7.207 -0.4254  0.9562  0.8121
  434SOL     OW 3743   9.996   8.726   2.875 -0.2543  0.6773 -0.3084
  434SOL    HW1 3744   9.980   8.710   2.781  0.9619  1.9152 -0.7453
  434SOL    HW2 3745   9.922   8.682   2.918 -0.8488  0.0774 -1.8318
  435SOL     OW 3746   2.880   5.872   8.182  0.5712 -0.1423  0.1379
  435SOL    HW1 3747   2.860   5.966   8.189 -0.1611 -0.3171  0.4554
  435SOL    HW2 3748   2.807   5.829   8.226  0.6771 -0.8847 -0.4074
  436SOL     OW 3749  10.316   5.853  10.478  0.0014 -0.3062 -0.2822
  436SOL    HW1 3750  10.369   5.932  10.488  0.0501 -0.5321  1.5523
  436SOL    HW2 3751  10.259   5.871  10.403  2.0215  0.2852 -1.7596
  437SOL     OW 3752   7.815   1.393   4.988 -0.4103  0.3836  0.3095
  437SOL    HW1 3753   7.867   1.469   4.962 -0.5714  1.7751  3.5715
  437SOL    HW2 3754   7.874   1.341   5.043 -1.3671  0.1124  1.1162
  438SOL     OW 3755   6.839   9.747   8.391  0.5612 -0.4716  0.2754
  438SOL    HW1 3756   6.930   9.718   8.378  0.9133  1.0428 -0.8987
  438SOL    HW2 3757   6.791   9.712   8.316 -0.1983 -2.5129  1.6318
  439SOL     OW 3758   8.369   7.506   7.838  0.6435  0.2174  0.3625
  439SOL    HW1 3759   8.425   7.574   7.876 -1.2206  1.2177  1.4380
  439SOL    HW2 3760   8.329   7.463   7.914 -0.1030 -0.4057 -0.3703
  440SOL     OW 3761   4.365   2.832   1.606 -0.1305  0.3003  0.1086
  440SOL    HW1 3762   4.423   2.757   1.599  0.1911  0.5576  0.0050
  440SOL    HW2 3763   4.295   2.815   1.543  0.3172  0.4206 -0.4283
  441SOL     OW 3764   5.512   6.347   3.024 -0.7716 -0.4608 -0.3644
  441SOL    HW1 3765   5.586   6.395   3.063  1.2333 -2.0475 -1.9533
  441SOL    HW2 3766   5.494   6.393   2.942 -1.5440 -0.0991  0.0054
  442SOL     OW 3767   8.939   7.159   8.718 -0.5642  0.5849  1.0774
  442SOL    HW1 3768   8.999   7.220   8.675 -1.7978  0.5575 -0.7553
  442SOL    HW2 3769   8.896   7.212   8.785 -1.2338  1.6362 -0.1386
  443SOL     OW 3770  10.413   4.935   3.394  0.4771 -1.1163 -0.3641
  443SOL    HW1 3771  10.377   4.859   3.350  0.3814 -1.4933  0.3602
  443SOL    HW2 3772  10.359   5.008   3.365  0.6012 -1.3062 -1.0989
  444SOL     OW 3773  10.352   4.799   2.278 -0.3624  0.1278 -0.0689
  444SOL    HW1 3774  10.432   4.824   2.324 -0.7059 -0.0578  0.6284
  444SOL    HW2 3775  10.359   4.704   2.267 -0.3677  0.1471 -0.2516
  445SOL     OW 3776   7.908   4.211   3.874 -0.1954 -0.1742  0.5757
  445SOL    HW1 3777   7.818   4.217   3.905 -0.5401  1.4982 -0.5986
  445SOL    HW2 3778   7.939   4.302   3.873  0.9083 -0.5297 -0.6888
  446SOL     OW 3779   6.384   6.660   5.222 -0.0700  0.1193 -0.5830
  446SOL    HW1 3780   6.454   6.697   5.169  0.3901 -0.9414 -0.7415
  446SOL    HW2 3781   6.312   6.723   5.215  0.8563  1.2383 -0.3991
  447SOL     OW 3782   5.270   0.243   3.483  0.2447 -0.0750 -0.1035
  447SOL    HW1 3783   5.362   0.254   3.463 -0.1368  3.8057 -0.5096
  447SOL    HW2 3784   5.267   0.233   3.579  1.0778 -0.5416 -0.1239
  448SOL     OW 3785   5.229   2.892   3.724  0.3633  0.3893  0.2787
  448SOL    HW1 3786   5.198   2.939   3.646 -0.6308 -1.1102 -0.2831
  448SOL    HW2 3787   5.177   2.927   3.796  1.6489  2.1602  0.4136
  449SOL     OW 3788   9.281   9.555   6.808  0.1889  0.2884  0.5237
  449SOL    HW1 3789   9.204   9.507   6.777 -0.4926  1.9571 -0.4569
  449SOL    HW2 3790   9.261   9.574   6.900 -0.3097  0.2098  0.4341
  450SOL     OW 3791   5.259   3.427  10.387  0.0725 -0.3869 -0.1344
  450SOL    HW1 3792   5.322   3.375  10.338  1.1955  0.1219  0.7192
  450SOL    HW2 3793   5.260   3.388  10.475 -1.5891 -1.0230 -0.3606
  451SOL     OW 3794   0.200   4.626   7.866  0.2020 -0.2060  0.3800
  451SOL    HW1 3795   0.261   4.584   7.926 -0.0131  0.1265  0.8434
  451SOL    HW2 3796   0.243   4.623   7.781 -0.2331 -2.2361  0.1984
  452SOL     OW 3797   2.964   3.793   3.937  0.2623 -0.0679 -0.2970
  452SOL    HW1 3798   2.953   3.720   3.998 -0.2049 -1.0541 -1.5119
  452SOL    HW2 3799   3.034   3.764   3.877  2.7990  2.0514  1.3886
  453SOL     OW 3800   0.410   4.393   2.551  1.0137 -0.2425  0.2568
  453SOL    HW1 3801   0.346   4.321   2.560  0.3555  0.4284  1.1677
  453SOL    HW2 3802   0.373   4.464   2.603  1.6333  0.7890 -0.6664
  454SOL     OW 3803   7.296   4.704   9.787  0.5333  0.3124  0.2363
  454SOL    HW1 3804   7.302   4.778   9.848 -1.6062  0.7366  0.0125
  454SOL    HW2 3805   7.230   4.646   9.826  0.5103 -0.3401 -0.7470
  455SOL     OW 3806   5.718   9.672   5.254  0.0078 -0.0271  0.4212
  455SOL    HW1 3807   5.711   9.739   5.322  1.3571 -0.0146  0.5622
  455SOL    HW2 3808   5.800   9.627   5.273 -0.9777 -1.9196  0.5012
  456SOL     OW 3809   9.571   0.889   4.688 -0.0965 -0.0581 -0.5092
  456SOL    HW1 3810   9.615   0.804   4.690 -0.7655 -0.4144 -0.6720
  456SOL    HW2 3811   9.613   0.937   4.617  0.0638 -0.3778 -0.6309
  457SOL     OW 3812   8.381   3.264   3.210 -0.7599  0.6473 -0.0076
  457SOL    HW1 3813   8.306   3.210   3.184 -0.5524 -0.4663  1.5515
  457SOL    HW2 3814   8.454   3.229   3.159 -1.2369  1.6732 -1.4604
  458SOL     OW 3815   0.741   2.907   0.495 -0.4269  0.4091  0.0526
  458SOL    HW1 3816   0.752   2.827   0.545 -1.5209  0.4561  0.3979
  458SOL    HW2 3817   0.828   2.926   0.459  0.2226 -0.0089  1.3541
  459SOL     OW 3818   7.953   5.402   1.516  0.8409  0.3587  0.4576
  459SOL    HW1 3819   8.001   5.450   1.449  1.1442 -1.1447 -0.4443
  459SOL    HW2 3820   7.881   5.461   1.540  1.1820  1.2592 -0.6126
  460SOL     OW 3821   5.606   4.114   2.395 -0.4961  0.2397  0.1734
  460SOL    HW1 3822   5.620   4.203   2.363 -2.3372  0.5644  0.1548
  460SOL    HW2 3823   5.601   4.060   2.316 -2.6054  0.6582 -0.0195
  461SOL     OW 3824   6.894   1.476  10.042 -0.0215  0.1339  0.1164
  461SOL    HW1 3825   6.850   1.516   9.968 -1.7179  0.2481  1.1241
  461SOL    HW2 3826   6.934   1.396  10.006 -1.2047 -0.0590 -0.8351
  462SOL     OW 3827   0.382   3.303   0.442 -0.0620 -0.5748 -0.0806
  462SOL    HW1 3828   0.373   3.287   0.536  0.9492 -0.5532  0.0255
  462SOL    HW2 3829   0.326   3.379   0.425  1.9675  1.2670  1.0604
  463SOL     OW 3830   2.425   4.039   9.829 -0.5596  0.3392 -0.3282
  463SOL    HW1 3831   2.429   4.107   9.761  0.1352  0.2406 -0.3880
  463SOL    HW2 3832   2.374   4.080   9.899  1.0118  1.4700  0.2231
  464SOL     OW 3833   3.852   8.068   5.614  0.4264  0.0075 -0.5984
  464SOL    HW1 3834   3.919   8.065   5.545  0.2258 -1.2470 -0.7673
  464SOL    HW2 3835   3.820   7.978   5.619 -1.0213  0.5230 -0.2812
  465SOL     OW 3836   6.103   1.649   8.856 -0.1029 -0.6708 -0.3256
  465SOL    HW1 3837   6.187   1.605   8.843 -0.5941 -1.3690 -1.1856
  465SOL    HW2 3838   6.076   1.623   8.944  0.3531 -0.8242 -0.2298
  466SOL     OW 3839   3.707  10.027   3.945 -0.1865 -0.3509  0.6642
  466SOL    HW1 3840   3.680   9.988   3.862  0.9639 -0.1035  0.1645
  466SOL    HW2 3841   3.669  10.114   3.944 -1.2118 -0.7774  0.9641
  467SOL     OW 3842   9.416  10.151   6.896  0.0621  0.3701  0.3207
  467SOL    HW1 3843   9.345  10.175   6.956  0.4764 -0.3230  1.1035
  467SOL    HW2 3844   9.375  10.153   6.810 -0.3157  2.2965  0.4852
  468SOL     OW 3845   9.510   3.243   4.107 -0.5411  0.8157 -0.5574
  468SOL    HW1 3846   9.563   3.193   4.045 -1.8537  0.5459 -1.5000
  468SOL    HW2 3847   9.438   3.184   4.129  0.4637  0.4671  2.1363
  469SOL     OW 3848   5.439   9.672   0.019  0.0804 -0.1816 -0.7699
  469SOL    HW1 3849   5.429   9.767   0.022 -0.9681 -0.1640 -3.1031
  469SOL    HW2 3850   5.358   9.638   0.056  0.7242 -0.2329  0.6885
  470SOL     OW 3851   7.721   5.101   6.877  0.3654  0.1770 -0.1719
  470SOL    HW1 3852   7.789   5.039   6.851  2.6952  2.5464 -0.1752
  470SOL    HW2 3853   7.731   5.109   6.972  0.4428  0.9056 -0.2371
  471SOL     OW 3854   7.426   9.403   3.769  0.0806 -0.5032 -0.5115
  471SOL    HW1 3855   7.353   9.412   3.831  0.9029  2.2225  0.1932
  471SOL    HW2 3856   7.469   9.321   3.795 -0.2839 -0.0298  1.8251
  472SOL     OW 3857   9.716   7.378   2.907 -0.3402  0.0500 -0.2950
  472SOL    HW1 3858   9.722   7.416   2.995 -0.8101  1.7356 -0.9590
  472SOL    HW2 3859   9.680   7.291   2.922 -0.5116  0.3359  1.1794
  473SOL     OW 3860   3.629   6.703   6.807 -0.1567  0.2235 -0.1925
  473SOL    HW1 3861   3.724   6.711   6.800 -0.2228  0.4690 -0.8815
  473SOL    HW2 3862   3.595   6.787   6.777 -0.5845  0.2343  0.3120
  474SOL     OW 3863   1.837   2.486   8.742  0.2312  0.1652  0.0992
  474SOL    HW1 3864   1.901   2.535   8.691 -0.3010 -0.5304 -1.2843
  474SOL    HW2 3865   1.770   2.459   8.679 -0.1599 -1.2114  1.0367
  475SOL     OW 3866   7.686   1.984   3.600  0.8622 -0.0077 -0.0170
  475SOL    HW1 3867   7.744   2.047   3.642 -0.0214  0.3646  0.6940
  475SOL    HW2 3868   7.666   2.022   3.515 -0.3371  1.1290  0.7346
  476SOL     OW 3869   8.071   1.855   2.627  0.2741 -0.4783 -0.4466
  476SOL    HW1 3870   8.047   1.789   2.561 -1.6289 -0.9948  0.6962
  476SOL    HW2 3871   7.988   1.894   2.652  1.1585  0.8566  0.4843
  477SOL     OW 3872   1.493   5.885   6.719 -0.4815  0.3435  0.3135
  477SOL    HW1 3873   1.506   5.968   6.674 -2.4067  1.3920  1.5309
  477SOL    HW2 3874   1.434   5.906   6.792 -0.3144 -1.9248  1.1953
  478SOL     OW 3875   5.934   3.759   9.786  0.1883  0.3799  0.0192
  478SOL    HW1 3876   5.991   3.688   9.814 -1.0513 -1.8057 -2.5441
  478SOL    HW2 3877   5.922   3.745   9.692 -1.7339  2.8313 -0.2188
  479SOL     OW 3878   0.672   5.656   5.376  0.9603  0.2614 -0.5578
  479SOL    HW1 3879   0.660   5.640   5.282 -0.6454 -2.3268 -0.0317
  479SOL    HW2 3880   0.636   5.578   5.418  0.7332  1.7603  2.2776
  480SOL     OW 3881   2.369   2.172   1.686  0.3017 -0.0004 -1.0851
  480SOL    HW1 3882   2.277   2.166   1.712  0.1177  1.8703 -1.1458
  480SOL    HW2 3883   2.418   2.150   1.766 -0.2299  1.1208 -0.4300
  481SOL     OW 3884   8.405   0.815   7.789  0.6593  0.6323  0.7276
  481SOL    HW1 3885   8.372   0.833   7.701 -1.1027 -0.4384  1.1233
  481SOL    HW2 3886   8.497   0.841   7.785 -0.4445  5.2372  0.0037
  482SOL     OW 3887   7.950   3.414   4.586  0.1907 -0.5696 -0.0070
  482SOL    HW1 3888   7.994   3.497   4.567 -1.3649  0.0174 -1.3229
  482SOL    HW2 3889   7.860   3.440   4.609 -0.7293 -1.9173 -1.8273
  483SOL     OW 3890   4.923  10.318   4.219  0.2594 -0.4014 -0.2916
  483SOL    HW1 3891   4.983  10.288   4.287  0.6162 -1.7674 -1.1745
  483SOL    HW2 3892   4.847  10.351   4.267  0.8567 -0.5513  0.7780
  484SOL     OW 3893   8.769   9.120   8.097 -0.6993  0.3831  0.1719
  484SOL    HW1 3894   8.776   9.031   8.063 -0.3452 -0.2075  1.7291
  484SOL    HW2 3895   8.743   9.109   8.188 -1.0937  1.8982  0.2687
  485SOL     OW 3896   5.438   0.196   2.770 -0.3633 -0.5255 -0.3270
  485SOL    HW1 3897   5.418   0.113   2.813  0.1480  0.1595  1.3243
  485SOL    HW2 3898   5.390   0.193   2.687 -0.9964 -2.1172  0.0704
  486SOL     OW 3899   1.004   1.035   0.595 -0.2876  0.4666 -0.0018
  486SOL    HW1 3900   0.959   1.057   0.513 -1.8416  0.4721  0.8212
  486SOL    HW2 3901   1.083   1.089   0.594  0.2641 -0.2815 -1.9548
  487SOL     OW 3902   3.705   2.797   8.717 -0.1417  0.4876  0.4036
  487SOL    HW1 3903   3.794   2.761   8.708 -0.1187  0.7363 -0.3993
  487SOL    HW2 3904   3.672   2.757   8.797 -0.2679 -1.6693 -0.6678
  488SOL     OW 3905   1.511   8.304   1.208  0.2568 -0.1723  0.0111
  488SOL    HW1 3906   1.578   8.237   1.205  0.5978  0.2095 -1.7348
  488SOL    HW2 3907   1.543   8.366   1.274  0.3825 -1.2163  0.9681
  489SOL     OW 3908  10.347   0.762   7.355  0.1016 -0.3840  0.1892
  489SOL    HW1 3909  10.415   0.728   7.297 -0.7436 -0.1624 -0.9679
  489SOL    HW2 3910  10.313   0.685   7.400 -0.5825 -0.8573 -1.0936
  490SOL     OW 3911   8.102   2.275   2.007 -1.9342 -0.4331 -0.4116
  490SOL    HW1 3912   8.070   2.266   2.097  1.2212  0.8805  0.9918
  490SOL    HW2 3913   8.154   2.196   1.993  1.8066  1.5343  1.0159
  491SOL     OW 3914   4.525   6.617  10.136 -0.3178 -0.4267  0.1447
  491SOL    HW1 3915   4.475   6.644  10.214  1.0408 -2.5259  1.8789
  491SOL    HW2 3916   4.543   6.524  10.151  2.7597 -0.1341 -1.1447
  492SOL     OW 3917   2.173  10.316   1.520 -0.2748  0.4824 -0.7513
  492SOL    HW1 3918   2.263  10.311   1.552 -0.9448  0.5404  1.2754
  492SOL    HW2 3919   2.166  10.404   1.483  0.0462  1.1392  0.6700
  493SOL     OW 3920   9.666  10.464   7.220 -0.5092  0.5144  0.1455
  493SOL    HW1 3921   9.619  10.389   7.183 -0.6230  1.9653 -3.0288
  493SOL    HW2 3922   9.735  10.425   7.273 -1.1825 -1.8170 -0.5674
  494SOL     OW 3923   4.308   5.414  10.488 -0.0993  0.2874  0.0510
  494SOL    HW1 3924   4.228   5.362  10.485 -0.1418  0.3521 -2.7413
  494SOL    HW2 3925   4.359   5.376  10.560 -2.5616  0.2356  1.8868
  495SOL     OW 3926   3.351   5.546   4.559 -0.5520  0.0431  0.5297
  495SOL    HW1 3927   3.315   5.604   4.492  2.1094  1.6633  0.3647
  495SOL    HW2 3928   3.445   5.540   4.538  0.0574 -0.7680  3.1273
  496SOL     OW 3929   8.496   9.964   1.536 -0.2017  0.1336  0.3220
  496SOL    HW1 3930   8.535   9.888   1.579  0.7513  0.0050 -0.7261
  496SOL    HW2 3931   8.406   9.966   1.568  0.1653 -0.5880  1.4573
  497SOL     OW 3932   5.616   1.690   0.030 -0.2466  0.2303 -0.6572
  497SOL    HW1 3933   5.551   1.745   0.075 -0.4675  0.9288 -1.7822
  497SOL    HW2 3934   5.576   1.670  -0.054  0.8197  0.3377 -1.2095
  498SOL     OW 3935   6.688   5.969   8.488  0.0801 -0.0251 -0.2637
  498SOL    HW1 3936   6.642   6.053   8.491  0.7946  0.4312 -1.3190
  498SOL    HW2 3937   6.775   5.991   8.455  0.7581 -1.0009  0.8160
  499SOL     OW 3938   9.304   4.980   4.991  0.6375  0.5996  0.0585
  499SOL    HW1 3939   9.354   5.062   4.998  1.8187 -0.2322  2.2946
  499SOL    HW2 3940   9.367   4.917   4.955  0.3939  0.1689  0.3820
  500SOL     OW 3941   2.059   4.071   3.993  0.3398  0.3134  0.4290
  500SOL    HW1 3942   2.152   4.066   4.012  0.3061  1.0043  0.8088
  500SOL    HW2 3943   2.052   4.132   3.919  0.2693 -0.5565 -0.3070
  501SOL     OW 3944   3.140   1.673   7.600  0.0646  0.3443  0.0703
  501SOL    HW1 3945   3.162   1.592   7.647 -1.2820 -0.2752 -0.3500
  501SOL    HW2 3946   3.217   1.690   7.545 -0.5721 -2.0008 -1.6834
  502SOL     OW 3947   6.622   4.484   8.978  0.2762 -0.3317 -0.2891
  502SOL    HW1 3948   6.640   4.541   8.903  2.8020 -2.0525 -1.1378
  502SOL    HW2 3949   6.570   4.412   8.942  1.5176 -1.1762 -0.4604
  503SOL     OW 3950   6.219   4.650   0.483 -0.1393 -0.5485 -0.2698
  503SOL    HW1 3951   6.310   4.678   0.491 -0.8568  1.8673  0.3576
  503SOL    HW2 3952   6.187   4.645   0.573 -0.1511 -3.4150 -0.3395
  504SOL     OW 3953   0.258   4.815   1.607 -0.4092 -0.2092  0.0209
  504SOL    HW1 3954   0.329   4.836   1.546 -1.2514 -0.2162 -0.9838
  504SOL    HW2 3955   0.266   4.721   1.622 -0.3753 -0.2616 -0.3190
  505SOL     OW 3956   3.305   1.558   7.942 -0.1629  0.3295 -0.0862
  505SOL    HW1 3957   3.230   1.516   7.899  0.1812 -0.5771  0.1738
  505SOL    HW2 3958   3.362   1.585   7.870 -1.0807  1.7466 -0.3318
  506SOL     OW 3959   7.276   8.328   7.513  0.7342 -0.4388 -0.0880
  506SOL    HW1 3960   7.255   8.408   7.464 -1.6065 -0.9989 -0.1303
  506SOL    HW2 3961   7.314   8.270   7.448  0.3201 -0.1573 -0.5906
  507SOL     OW 3962   5.365   3.654   5.265 -0.0781  0.1564  0.3154
  507SOL    HW1 3963   5.341   3.587   5.201  2.6271 -0.8697  0.2417
  507SOL    HW2 3964   5.386   3.605   5.344  0.7061  1.0398  0.6681
  508SOL     OW 3965   3.783   2.163   3.912  0.4174 -0.2003  0.3625
  508SOL    HW1 3966   3.808   2.113   3.990 -1.1005  2.3158  2.6176
  508SOL    HW2 3967   3.813   2.252   3.930 -1.4130  0.8070 -1.2195
  509SOL     OW 3968   2.117   1.685  10.373  0.1948 -0.8644  0.1968
  509SOL    HW1 3969   2.049   1.693  10.441 -0.0942 -1.2947 -0.0319
  509SOL    HW2 3970   2.096   1.602  10.329  0.4837 -0.6725 -0.3052
  510SOL     OW 3971   9.068   8.123   0.055 -0.5033  0.3858 -0.0757
  510SOL    HW1 3972   9.074   8.157  -0.035 -0.3272  1.4298  0.3103
  510SOL    HW2 3973   9.062   8.028   0.045 -0.5176  0.4925 -1.1928
  511SOL     OW 3974   4.598   6.353   3.162 -0.0788  1.0174 -0.5056
  511SOL    HW1 3975   4.556   6.339   3.246  3.1467 -3.6017  0.6947
  511SOL    HW2 3976   4.535   6.320   3.097 -1.6334  2.4791  0.1616
  512SOL     OW 3977   3.313   6.629  10.070  0.1136 -0.2683 -0.0660
  512SOL    HW1 3978   3.352   6.711  10.100  2.4284 -0.2892 -2.6473
  512SOL    HW2 3979   3.219   6.645  10.074  0.4067  1.5167  1.9493
  513SOL     OW 3980   4.869   6.327   2.928 -0.0380 -0.0077  0.1811
  513SOL    HW1 3981   4.901   6.237   2.935  1.1321  0.5044  2.3807
  513SOL    HW2 3982   4.923   6.377   2.989 -1.5433  1.9565  0.0279
  514SOL     OW 3983   0.747   8.481   2.951 -0.5813 -0.1019 -0.0573
  514SOL    HW1 3984   0.705   8.395   2.951  0.3088 -0.5456 -0.3311
  514SOL    HW2 3985   0.801   8.481   2.872  0.6424  0.0987  0.7648
  515SOL     OW 3986   9.516   7.561   2.381  0.1522  0.0138  0.2686
  515SOL    HW1 3987   9.536   7.474   2.416  0.7340 -0.8216 -1.9714
  515SOL    HW2 3988   9.591   7.615   2.405  1.2845 -0.9513 -0.9719
  516SOL     OW 3989   8.670   4.566   5.345  0.3652 -0.0378 -0.4055
  516SOL    HW1 3990   8.725   4.627   5.394 -0.8976  0.7294  0.0915
  516SOL    HW2 3991   8.597   4.619   5.313 -0.6291 -1.2282 -0.1745
  517SOL     OW 3992   9.013   6.176   6.038 -0.0495  0.1933  0.3751
  517SOL    HW1 3993   9.044   6.267   6.035  2.1745 -0.5126  0.0297
  517SOL    HW2 3994   8.927   6.182   6.080 -1.8983  2.8788 -3.2348
  518SOL     OW 3995   3.646   1.514   9.671 -0.4234  0.6214 -0.0236
  518SOL    HW1 3996   3.724   1.541   9.623 -0.2965  0.7303  0.2429
  518SOL    HW2 3997   3.596   1.594   9.682  0.0077  0.7781  0.8682
  519SOL     OW 3998   4.997   7.959   2.093 -0.0759  0.5801  0.0495
  519SOL    HW1 3999   5.057   7.886   2.109 -2.3621 -1.5718 -0.5914
  519SOL    HW2 4000   4.988   8.002   2.178 -1.1376 -1.9345  1.3150
  520SOL     OW 4001  10.063   5.497   4.149  0.0169 -0.7368 -0.3206
  520SOL    HW1 4002  10.005   5.421   4.159 -0.9752 -0.2080 -1.8272
  520SOL    HW2 4003  10.098   5.489   4.061 -0.1571  0.5884 -0.5285
  521SOL     OW 4004   1.695   9.979   3.696  0.1718  0.3442 -0.0381
  521SOL    HW1 4005   1.744   9.938   3.767 -0.9514 -0.1689  0.4736
  521SOL    HW2 4006   1.704  10.073   3.711  1.1185  0.2684 -0.0619
  522SOL     OW 4007   6.619   6.410   9.314  0.0608 -0.0588 -0.0329
  522SOL    HW1 4008   6.627   6.497   9.352  2.3853 -0.4643  0.5589
  522SOL    HW2 4009   6.616   6.425   9.220 -0.1756  0.6790  0.0885
  523SOL     OW 4010   5.363   8.282   8.411  0.1170  0.3230 -0.3727
  523SOL    HW1 4011   5.407   8.200   8.389  0.0192 -1.2196  4.1599
  523SOL    HW2 4012   5.277   8.275   8.368  1.2036 -0.3936 -2.5816
  524SOL     OW 4013   6.954   8.539   7.340 -0.3745 -0.0264 -0.5517
  524SOL    HW1 4014   6.905   8.575   7.414  0.9327  2.5567 -0.8156
  524SOL    HW2 4015   6.950   8.445   7.352 -0.9431  0.2714  2.3462
  525SOL     OW 4016   4.659   7.312   2.920  0.5870 -0.0807  0.1978
  525SOL    HW1 4017   4.582   7.272   2.961 -0.0417  1.7652  0.8881
  525SOL    HW2 4018   4.669   7.396   2.963  1.4782  0.8257 -1.6564
  526SOL     OW 4019   6.004   6.871   8.797 -0.6871  0.4774 -0.3089
  526SOL    HW1 4020   5.955   6.790   8.809 -1.7964  1.3248  1.4108
  526SOL    HW2 4021   6.082   6.860   8.852 -0.3519  0.2233 -0.8269
  527SOL     OW 4022   9.006   9.498   0.396  0.3174 -0.0634 -0.9301
  527SOL    HW1 4023   9.023   9.404   0.403 -0.0632 -0.0905 -0.2605
  527SOL    HW2 4024   9.082   9.540   0.435 -0.0384 -0.1242 -0.1651
  528SOL     OW 4025   4.156   8.337   8.795  0.2880 -0.2705  0.3145
  528SOL    HW1 4026   4.171   8.290   8.713  1.3784 -0.3836  0.5612
  528SOL    HW2 4027   4.088   8.401   8.773  0.8290 -0.0378 -0.7948
  529SOL     OW 4028   1.990   0.620   0.766  0.5003  0.0163 -0.3567
  529SOL    HW1 4029   1.974   0.682   0.694 -1.5088  0.6954  0.5965
  529SOL    HW2 4030   2.085   0.609   0.768  0.7258  1.2685 -2.0376
  530SOL     OW 4031   3.920   0.593   3.163  0.8164  0.3580 -0.1373
  530SOL    HW1 4032   3.996   0.534   3.162  1.2685  0.8709 -2.2672
  530SOL    HW2 4033   3.949   0.669   3.213  1.3381  0.0951 -0.0361
  531SOL     OW 4034   3.334  10.039   7.650 -0.5683  0.0772  0.4915
  531SOL    HW1 4035   3.410  10.070   7.602 -0.1578  0.0075  1.0933
  531SOL    HW2 4036   3.260  10.057   7.592  0.1118 -2.0419 -1.1776
  532SOL     OW 4037   5.443   1.084   9.087  0.2002  0.5634 -0.0177
  532SOL    HW1 4038   5.418   0.994   9.064 -2.3139  1.2850 -0.4766
  532SOL    HW2 4039   5.495   1.115   9.012  0.8319 -0.3958  0.0114
  533SOL     OW 4040   5.552   9.063   6.061 -0.0982 -0.3140 -0.1829
  533SOL    HW1 4041   5.615   8.991   6.050 -0.1065 -0.3891  0.2462
  533SOL    HW2 4042   5.601   9.141   6.037  0.6615 -0.1787  1.6454
  534SOL     OW 4043   5.217   1.262   8.859  0.8584  0.5548  0.0229
  534SOL    HW1 4044   5.163   1.268   8.938  0.3187 -0.3768 -0.2562
  534SOL    HW2 4045   5.266   1.344   8.857  0.9479  0.5483  1.3664
  535SOL     OW 4046   4.482   1.323   8.172  0.1280 -0.2716  0.5541
  535SOL    HW1 4047   4.425   1.307   8.096  1.8757 -2.9630 -0.3564
  535SOL    HW2 4048   4.551   1.380   8.138  0.6427 -1.0800  0.2000
  536SOL     OW 4049   0.372   0.038   9.686 -0.0061 -0.1182 -0.9403
  536SOL    HW1 4050   0.455  -0.006   9.671 -0.5228 -1.4703 -0.0775
  536SOL    HW2 4051   0.366   0.045   9.782 -1.0359 -0.3796 -0.9720
  537SOL     OW 4052   1.868   5.308   9.122  0.1960  0.0024  0.0961
  537SOL    HW1 4053   1.858   5.401   9.141 -1.3321 -0.2457  0.6409
  537SOL    HW2 4054   1.850   5.300   9.028  0.7861  0.3165 -0.0431
  538SOL     OW 4055   5.265  10.450   2.855 -0.4206  0.0359  0.6184
  538SOL    HW1 4056   5.202  10.491   2.915 -1.3872  2.4594 -1.7993
  538SOL    HW2 4057   5.224  10.459   2.768  2.8769  1.0514 -0.9931
  539SOL     OW 4058   5.044   5.877   7.135  0.2275  0.5403  0.0815
  539SOL    HW1 4059   5.087   5.799   7.172 -0.5953 -0.1773 -0.4317
  539SOL    HW2 4060   5.004   5.846   7.053  3.4423  2.4192 -2.4720
  540SOL     OW 4061   1.820   2.267   0.943 -0.7203 -0.1213 -0.6741
  540SOL    HW1 4062   1.763   2.344   0.939 -0.4315  0.2408  1.4065
  540SOL    HW2 4063   1.838   2.255   1.036  0.7188 -1.6302 -1.1054
  541SOL     OW 4064   6.130   6.438   4.792 -0.2499  0.4918 -0.2762
  541SOL    HW1 4065   6.203   6.469   4.846 -1.0217  3.3988 -0.7525
  541SOL    HW2 4066   6.169   6.370   4.736  1.0485 -1.0512  2.3282
  542SOL     OW 4067  10.400   8.636   8.673  0.3743 -0.3476 -0.0693
  542SOL    HW1 4068  10.346   8.668   8.602  0.7868  1.7669  0.5055
  542SOL    HW2 4069  10.444   8.714   8.707  1.0280 -1.4549  1.7813
  543SOL     OW 4070   1.184   5.290   1.983 -0.2899 -0.2549 -0.0741
  543SOL    HW1 4071   1.212   5.285   1.892 -0.6226 -1.1601 -0.1357
  543SOL    HW2 4072   1.117   5.359   1.984  0.3041  0.3319 -0.3501
  544SOL     OW 4073   2.803   2.161   2.944 -0.1740  0.7430  0.2369
  544SOL    HW1 4074   2.812   2.121   3.030 -0.6871 -0.8115 -0.3929
  544SOL    HW2 4075   2.893   2.174   2.915  0.0387 -0.5437  0.2342
  545SOL     OW 4076   5.006   4.180   2.107 -0.5007  0.1179 -0.1477
  545SOL    HW1 4077   4.999   4.271   2.137  1.3989 -0.2143  1.4972
  545SOL    HW2 4078   4.937   4.133   2.154 -0.8994  0.5340 -0.3089
  546SOL     OW 4079   1.654   6.479   1.409 -0.2421  0.2743  0.8064
  546SOL    HW1 4080   1.721   6.449   1.348 -1.2837 -2.4360  0.8642
  546SOL    HW2 4081   1.698   6.545   1.463  1.6666  0.2571 -0.6440
  547SOL     OW 4082   7.981   0.153   2.622  0.1070  0.2895  0.2041
  547SOL    HW1 4083   7.994   0.124   2.532  0.4320 -1.0209  0.6470
  547SOL    HW2 4084   8.030   0.235   2.628  1.8370 -0.6597 -0.2727
  548SOL     OW 4085   4.023   3.052   0.249  0.1744 -0.6776  0.5567
  548SOL    HW1 4086   3.940   3.098   0.239 -0.4922 -2.0035 -0.2816
  548SOL    HW2 4087   4.089   3.112   0.215 -0.7355 -0.5191 -0.9878
  549SOL     OW 4088   7.793   6.132   9.597 -0.0529  0.6633 -0.2447
  549SOL    HW1 4089   7.794   6.207   9.538 -1.3618  1.4067  0.6166
  549SOL    HW2 4090   7.710   6.088   9.580 -0.5959  1.0563  1.1964
  550SOL     OW 4091   3.103   5.101   8.754 -0.3842 -0.0070 -0.2323
  550SOL    HW1 4092   3.030   5.127   8.812 -0.1950 -0.1928  0.0931
  550SOL    HW2 4093   3.082   5.012   8.728 -1.2562  0.5871 -1.7023
  551SOL     OW 4094   8.810   2.204   7.888 -0.1253  0.9366 -0.4818
  551SOL    HW1 4095   8.877   2.272   7.896 -0.5344  1.3951 -0.9055
  551SOL    HW2 4096   8.740   2.232   7.947  0.2604  0.1945  0.3520
  552SOL     OW 4097  10.005   6.921   9.829 -0.1093  0.0887  0.0326
  552SOL    HW1 4098   9.940   6.979   9.791  0.7203  1.6126  0.8299
  552SOL    HW2 4099   9.958   6.873   9.897 -0.5846  0.5893  0.0606
  553SOL     OW 4100   5.932   7.146   2.390  0.2236 -0.3825  0.2153
  553SOL    HW1 4101   6.011   7.167   2.439  0.3752 -0.3359 -0.0451
  553SOL    HW2 4102   5.861   7.186   2.441  0.4366  0.1523  0.1060
  554SOL     OW 4103   8.906   7.563   2.939 -0.7671  0.4696 -0.3969
  554SOL    HW1 4104   8.892   7.573   3.033  0.7208  1.3277 -0.2451
  554SOL    HW2 4105   8.822   7.588   2.899 -2.0123 -1.5579  0.7247
  555SOL     OW 4106   8.615   8.350   5.727  0.0337  0.0607 -0.4219
  555SOL    HW1 4107   8.649   8.342   5.816 -2.7704  1.0766  0.8720
  555SOL    HW2 4108   8.603   8.260   5.697 -0.1963 -0.3256  0.7640
  556SOL     OW 4109   5.107   2.892   5.517  0.0650 -0.9716 -0.2225
  556SOL    HW1 4110   5.174   2.825   5.519  0.7406 -0.3192 -0.3923
  556SOL    HW2 4111   5.145   2.963   5.464 -0.2066 -0.0185  0.8079
  557SOL     OW 4112   4.510   5.484   2.298 -0.0211 -0.0506  0.0248
  557SOL    HW1 4113   4.456   5.417   2.257  0.1742  0.0782 -0.4481
  557SOL    HW2 4114   4.502   5.560   2.240  1.4679 -0.3399 -0.6099
  558SOL     OW 4115   9.134   1.125   2.241 -0.1184  0.5827  0.1388
  558SOL    HW1 4116   9.039   1.115   2.247  0.0376 -0.9181  0.6193
  558SOL    HW2 4117   9.149   1.162   2.155 -1.2907  3.7978  1.1704
  559SOL     OW 4118   8.082   1.322   2.005 -0.4331 -0.0062 -0.4054
  559SOL    HW1 4119   8.077   1.411   1.970 -1.1287 -0.3106 -1.1027
  559SOL    HW2 4120   8.172   1.315   2.038 -0.0061  0.5815 -1.3741
  560SOL     OW 4121   1.874   1.533   9.958 -0.0195 -0.4045 -0.2515
  560SOL    HW1 4122   1.969   1.541   9.967 -0.2035  1.6230  0.4381
  560SOL    HW2 4123   1.861   1.493   9.872  1.4604 -0.0668 -0.6590
  561SOL     OW 4124   2.578   6.381   5.492 -0.2254  0.7692 -0.0395
  561SOL    HW1 4125   2.595   6.287   5.480  0.3501  1.0053 -1.2781
  561SOL    HW2 4126   2.571   6.415   5.402  0.7718  2.1177  0.3648
  562SOL     OW 4127   1.609   0.886   2.611  0.4321 -0.7085  0.2372
  562SOL    HW1 4128   1.597   0.835   2.530 -1.2393 -0.8366  0.5227
  562SOL    HW2 4129   1.582   0.826   2.681 -0.4045  0.1481  0.6753
  563SOL     OW 4130   6.973   7.651   2.385 -0.8989  0.6866 -0.1127
  563SOL    HW1 4131   6.935   7.711   2.321 -0.8239  1.1666  0.2890
  563SOL    HW2 4132   7.067   7.655   2.369 -0.9312  0.3250 -0.3909
  564SOL     OW 4133   4.798   7.739   5.449 -0.0146 -0.1513  0.0161
  564SOL    HW1 4134   4.792   7.813   5.509  1.5449  0.9724 -1.1298
  564SOL    HW2 4135   4.846   7.773   5.373  0.8727 -2.3597 -0.4954
  565SOL     OW 4136   9.032   4.734   4.127  0.1146 -0.2195 -0.1205
  565SOL    HW1 4137   9.027   4.777   4.042 -0.2788  1.5115  0.7240
  565SOL    HW2 4138   9.025   4.806   4.190 -1.3797 -1.6089  1.3974
  566SOL     OW 4139   1.208   4.233   7.856 -0.2041 -0.0393 -0.1007
  566SOL    HW1 4140   1.189   4.162   7.795  1.3812 -0.1928 -0.4657
  566SOL    HW2 4141   1.209   4.192   7.942  1.5975 -0.7085 -0.3881
  567SOL     OW 4142   6.437   7.494  10.439  0.0574  0.4363 -0.5073
  567SOL    HW1 4143   6.525   7.517  10.471 -0.2935  0.9838  0.0985
  567SOL    HW2 4144   6.393   7.456  10.515 -0.1728 -0.0089 -0.8587
  568SOL     OW 4145   8.518   2.451   5.427  0.0032 -0.0742  0.1942
  568SOL    HW1 4146   8.436   2.422   5.465 -0.8508  2.8573  0.7977
  568SOL    HW2 4147   8.569   2.484   5.501 -0.4074  2.7669 -0.6412
  569SOL     OW 4148   3.118   1.591   1.606 -0.3747 -0.1410  0.2237
  569SOL    HW1 4149   3.207   1.564   1.582 -0.7095  1.2554 -3.1268
  569SOL    HW2 4150   3.066   1.511   1.596  0.2121 -0.5389  0.2931
  570SOL     OW 4151   4.115   1.361   5.177  0.7402  0.1708  0.3198
  570SOL    HW1 4152   4.176   1.323   5.240  0.8865 -1.3453 -0.6915
  570SOL    HW2 4153   4.076   1.286   5.133  0.0289  1.1779 -0.8142
  571SOL     OW 4154   5.151   0.140   8.412 -0.1806  0.1483  1.1471
  571SOL    HW1 4155   5.121   0.073   8.473  0.4638 -0.2113  1.0757
  571SOL    HW2 4156   5.074   0.195   8.396 -0.8241 -0.7987  0.9142
  572SOL     OW 4157  10.369   5.033   0.896  0.5565 -0.2183  0.6510
  572SOL    HW1 4158  10.446   4.976   0.896  0.5705 -0.2001  0.7265
  572SOL    HW2 4159  10.366   5.068   0.985  1.0146  0.5271  0.3874
  573SOL     OW 4160   6.990   5.556   8.632  0.1032  0.2783  0.1117
  573SOL    HW1 4161   7.022   5.481   8.581 -1.0630  0.1328 -0.4282
  573SOL    HW2 4162   6.914   5.522   8.678 -0.9550  1.3454 -0.8055
  574SOL     OW 4163   2.494   9.012   1.623 -0.0362 -0.0770  0.1797
  574SOL    HW1 4164   2.499   9.101   1.659 -0.2481 -0.2585  0.6654
  574SOL    HW2 4165   2.479   8.957   1.700  0.1539 -0.5380 -0.1160
  575SOL     OW 4166   7.714   4.945   7.400  0.3710 -0.6465 -0.6086
  575SOL    HW1 4167   7.622   4.920   7.401 -0.5689  2.4021 -0.1054
  575SOL    HW2 4168   7.735   4.964   7.491  1.2699 -0.5675 -0.8200
  576SOL     OW 4169   1.740   5.551   9.204  0.5833  0.0662  0.5969
  576SOL    HW1 4170   1.759   5.643   9.185  2.6197 -0.6616 -1.2646
  576SOL    HW2 4171   1.753   5.543   9.298  3.8896  1.0069  0.3391
  577SOL     OW 4172   2.069   0.929   0.139 -0.1834 -0.4958 -0.0164
  577SOL    HW1 4173   2.005   0.862   0.162  0.9753 -0.3624  4.3614
  577SOL    HW2 4174   2.024   1.012   0.156  0.7023 -0.3826  1.9561
  578SOL     OW 4175   8.270   1.100   9.855  0.0654  0.1890  0.0264
  578SOL    HW1 4176   8.272   1.013   9.897  0.9885  0.6505  0.9793
  578SOL    HW2 4177   8.177   1.122   9.851 -0.3018 -1.4289 -1.5105
  579SOL     OW 4178   1.013   7.433   1.788  0.2266  0.2276 -0.4934
  579SOL    HW1 4179   0.937   7.483   1.757 -0.0011 -1.0384 -2.1509
  579SOL    HW2 4180   0.986   7.342   1.781  1.4450 -0.2077  0.1728
  580SOL     OW 4181   8.525   5.851   3.248  0.0245 -0.2878 -0.0447
  580SOL    HW1 4182   8.590   5.914   3.218 -0.8174  0.3355 -0.6109
  580SOL    HW2 4183   8.474   5.899   3.314  0.0023 -0.6971  0.2390
  581SOL     OW 4184   8.106   5.734   6.381 -0.3646  0.0302 -0.0895
  581SOL    HW1 4185   8.069   5.806   6.431  1.0880  1.0202 -0.3576
  581SOL    HW2 4186   8.060   5.657   6.411 -2.5464  1.1448 -0.3546
  582SOL     OW 4187   0.088   0.511   3.656 -0.0385 -0.1506  0.5953
  582SOL    HW1 4188   0.025   0.513   3.584  0.0761 -1.0020  0.4632
  582SOL    HW2 4189   0.078   0.424   3.695 -0.5960  0.5359  2.0680
  583SOL     OW 4190   1.523   8.532  10.288 -0.1609  0.3018  0.5242
  583SOL    HW1 4191   1.557   8.532  10.377 -0.7465 -1.5337  0.8113
  583SOL    HW2 4192   1.464   8.456  10.286 -0.2018  0.3407 -1.4084
  584SOL     OW 4193   9.579   4.074   1.233 -0.3915 -0.6930 -0.0998
  584SOL    HW1 4194   9.499   4.082   1.181 -1.3254  0.6724  1.4383
  584SOL    HW2 4195   9.650   4.084   1.170 -1.4746  1.7812 -1.0615
  585SOL     OW 4196   5.924   9.499   8.903 -0.0961  1.0030  0.1492
  585SOL    HW1 4197   5.852   9.476   8.962  1.0057  0.0695  1.1900
  585SOL    HW2 4198   5.999   9.512   8.961  0.9480  0.3667 -1.0069
  586SOL     OW 4199   7.375   5.799   4.032  0.0029 -0.7246  0.1473
  586SOL    HW1 4200   7.437   5.824   4.101  1.6465 -1.6471 -0.9275
  586SOL    HW2 4201   7.374   5.704   4.034 -0.0538 -0.7605 -0.9624
  587SOL     OW 4202   9.393   9.613   4.778  0.2576 -0.0733 -0.5316
  587SOL    HW1 4203   9.470   9.650   4.735  2.0820  0.0546  2.5691
  587SOL    HW2 4204   9.322   9.673   4.755  1.3447  0.6245 -2.3005
  588SOL     OW 4205   8.211   1.549   9.082 -0.0379  0.0894 -0.1220
  588SOL    HW1 4206   8.293   1.499   9.075  0.6901  1.2104  0.0846
  588SOL    HW2 4207   8.144   1.482   9.099  1.1172 -0.7196  1.6604
  589SOL     OW 4208   2.918   1.551   2.067  0.9146 -0.0082  0.2706
  589SOL    HW1 4209   2.934   1.590   2.153  0.1062  0.0711  0.3925
  589SOL    HW2 4210   2.949   1.461   2.075 -0.4890 -0.4436  1.1188
  590SOL     OW 4211   6.460   0.063   0.638  0.2656  0.7562  0.3711
  590SOL    HW1 4212   6.396   0.131   0.618 -0.3949  0.0557  0.0832
  590SOL    HW2 4213   6.485   0.027   0.553 -0.4904 -0.3546  0.5983
  591SOL     OW 4214   4.802   6.880   8.442  0.2131  0.0733  0.2611
  591SOL    HW1 4215   4.853   6.808   8.404  0.4305 -0.0825  0.8437
  591SOL    HW2 4216   4.832   6.958   8.396  0.3806 -0.1328  0.0227
  592SOL     OW 4217   1.382   6.746   6.425 -0.1189  0.1613 -0.1332
  592SOL    HW1 4218   1.341   6.669   6.385  2.6741  0.5367 -4.3703
  592SOL    HW2 4219   1.463   6.712   6.464 -0.1891  0.5834  0.3885
  593SOL     OW 4220   1.059   1.129   9.693 -0.5156  0.9692  0.2583
  593SOL    HW1 4221   1.131   1.130   9.631 -0.1543 -0.6712  0.6084
  593SOL    HW2 4222   0.996   1.067   9.656 -0.3930  0.1254  1.3995
  594SOL     OW 4223   1.277   8.517   4.337 -0.5223  0.0930  0.2088
  594SOL    HW1 4224   1.368   8.547   4.324 -0.0257 -0.9620  1.1026
  594SOL    HW2 4225   1.283   8.422   4.337 -1.6547  0.0143  0.1863
  595SOL     OW 4226   2.801   5.596   0.635  0.1363  0.7618 -0.6721
  595SOL    HW1 4227   2.887   5.571   0.668  0.0657  1.3606 -0.0058
  595SOL    HW2 4228   2.752   5.623   0.713 -0.8812 -0.2012 -0.9603
  596SOL     OW 4229   6.790   0.710   4.737 -0.9416  0.4373  0.2963
  596SOL    HW1 4230   6.802   0.805   4.732  0.9358  0.2148 -0.4934
  596SOL    HW2 4231   6.865   0.681   4.789 -0.6399 -0.7461 -0.7711
  597SOL     OW 4232   5.982   6.460   9.098 -0.2002 -0.4997 -0.7431
  597SOL    HW1 4233   5.891   6.432   9.091 -0.9636  2.0120 -2.0670
  597SOL    HW2 4234   6.032   6.378   9.105 -2.4099 -2.0262 -1.6593
  598SOL     OW 4235   2.863   1.028   8.001  0.0175 -0.0627 -0.0967
  598SOL    HW1 4236   2.802   0.997   8.068 -0.3658  1.1300  0.1328
  598SOL    HW2 4237   2.807   1.074   7.937  0.4084 -0.9315 -1.0916
  599SOL     OW 4238   8.343   7.405   5.348 -0.6039  0.3462  0.2943
  599SOL    HW1 4239   8.402   7.481   5.351  0.1242 -0.1420 -1.0640
  599SOL    HW2 4240   8.343   7.378   5.256 -0.4382 -1.6330  0.8305
  600SOL     OW 4241   7.012   8.429   0.876  0.0285  0.8517 -0.6530
  600SOL    HW1 4242   7.025   8.482   0.797  0.9619 -1.8337 -2.4315
  600SOL    HW2 4243   7.049   8.344   0.854 -0.7437 -0.3708  2.3194
  601SOL     OW 4244   2.521   1.389   8.955 -0.4013  0.1521  0.7041
  601SOL    HW1 4245   2.597   1.432   8.916  0.3640 -0.8760  0.9896
  601SOL    HW2 4246   2.462   1.460   8.978  0.7472  1.0452  1.0214
  602SOL     OW 4247   7.156   7.323   7.782  0.1810 -0.5212 -0.5278
  602SOL    HW1 4248   7.096   7.397   7.792  1.1036  0.3437 -1.2456
  602SOL    HW2 4249   7.228   7.357   7.729  1.3461 -1.5125  0.3638
  603SOL     OW 4250   5.138  10.012   3.804  0.1326  0.0449  0.1441
  603SOL    HW1 4251   5.195  10.077   3.845 -0.0984  1.4589 -1.6408
  603SOL    HW2 4252   5.195   9.936   3.790  1.0108  0.6569  0.3023
  604SOL     OW 4253   5.013   0.896   0.054 -0.7485  0.0330 -0.3258
  604SOL    HW1 4254   5.099   0.872   0.020 -0.3380  1.2033 -0.1277
  604SOL    HW2 4255   5.027   0.978   0.100 -1.3340 -1.3421  2.4831
  605SOL     OW 4256   4.395   9.938   4.300  0.1986 -0.2703 -0.0551
  605SOL    HW1 4257   4.300   9.930   4.313  0.1225  0.0736 -0.3819
  605SOL    HW2 4258   4.428   9.968   4.385 -0.1648  0.9660 -0.3182
  606SOL     OW 4259   2.093   5.067   0.767 -0.0551  0.2278 -0.0259
  606SOL    HW1 4260   2.007   5.085   0.729 -0.8684 -1.4682  0.8645
  606SOL    HW2 4261   2.147   5.142   0.743 -2.1582  2.0159  0.5107
  607SOL     OW 4262   1.554   6.002   3.669  0.3283  0.0836  0.0993
  607SOL    HW1 4263   1.599   6.011   3.585  0.2845  0.4161  0.1122
  607SOL    HW2 4264   1.616   6.035   3.734 -0.4494  1.9067 -0.0201
  608SOL     OW 4265   4.699   9.307   7.091 -0.0714  0.4244 -0.5487
  608SOL    HW1 4266   4.625   9.352   7.050 -0.0124  0.2888 -0.8000
  608SOL    HW2 4267   4.681   9.214   7.077 -1.8458  0.1061  2.6428
  609SOL     OW 4268   5.508   5.039   3.125  0.2708  0.3755  0.6554
  609SOL    HW1 4269   5.484   5.129   3.145  1.2088  0.6800  0.4594
  609SOL    HW2 4270   5.484   5.028   3.033  1.6354  0.9580  0.2066
  610SOL     OW 4271   1.749   2.883   4.620 -0.0254  0.0985  0.5622
  610SOL    HW1 4272   1.653   2.883   4.612  0.0560  0.9570 -0.7742
  610SOL    HW2 4273   1.767   2.932   4.700 -0.6929  0.6025  0.4111
  611SOL     OW 4274   1.661   5.560   3.968 -0.6889 -0.6166 -0.1733
  611SOL    HW1 4275   1.575   5.559   4.011 -0.6584 -0.7332 -0.1168
  611SOL    HW2 4276   1.706   5.634   4.008 -1.2225  0.2286 -1.0885
  612SOL     OW 4277   7.913  10.272   4.998  0.2305  0.1922 -0.4318
  612SOL    HW1 4278   7.918  10.252   5.091  1.4661  1.8119 -0.1012
  612SOL    HW2 4279   7.826  10.241   4.971  0.6841 -2.3179  0.7000
  613SOL     OW 4280   3.814   4.760   1.311 -0.0748 -0.3600  0.4126
  613SOL    HW1 4281   3.737   4.728   1.264 -0.2425  1.8921 -0.9753
  613SOL    HW2 4282   3.887   4.740   1.253  0.2382 -1.2226  1.0878
  614SOL     OW 4283   5.271   8.424   7.142  0.1214 -0.5133 -0.8280
  614SOL    HW1 4284   5.206   8.489   7.167  2.5577  0.9259  2.5565
  614SOL    HW2 4285   5.326   8.468   7.077  0.1733 -0.1924 -0.5671
  615SOL     OW 4286   1.727   5.820   7.388  0.5153  0.4818  0.6748
  615SOL    HW1 4287   1.786   5.764   7.338  0.6362  0.8687  0.3822
  615SOL    HW2 4288   1.699   5.765   7.461 -0.6846 -0.5549 -0.5037
  616SOL     OW 4289   3.098   2.360   0.236 -0.5351  0.1859  0.0251
  616SOL    HW1 4290   3.141   2.446   0.243 -0.3325  0.0539  0.4328
  616SOL    HW2 4291   3.036   2.370   0.164  0.6688  0.1764 -1.0514
  617SOL     OW 4292   1.918   2.220   8.510  0.1630  0.1431 -0.0803
  617SOL    HW1 4293   1.932   2.248   8.600 -1.7937  2.6566 -0.4508
  617SOL    HW2 4294   1.993   2.256   8.462 -1.1220  2.9515 -0.1452
  618SOL     OW 4295   2.167  10.477   2.009  0.2193 -0.0617 -0.0748
  618SOL    HW1 4296   2.097  10.458   2.072 -0.5576 -1.2647 -1.2571
  618SOL    HW2 4297   2.142  10.562   1.972 -1.9836 -1.4933 -2.1636
  619SOL     OW 4298   5.097  10.357   9.027  0.5619  0.2582  0.0004
  619SOL    HW1 4299   5.124  10.294   8.961 -0.9578 -0.6489  0.2026
  619SOL    HW2 4300   5.001  10.355   9.024  0.4596  0.4562  1.9753
  620SOL     OW 4301   5.714  10.370   5.915  0.3880  0.5561  0.7416
  620SOL    HW1 4302   5.739  10.379   5.823  2.3152  0.1274  1.1903
  620SOL    HW2 4303   5.754  10.445   5.958  1.5763 -0.5176  1.5960
  621SOL     OW 4304   3.321   6.519   7.788 -0.6578  0.2227  0.2951
  621SOL    HW1 4305   3.313   6.486   7.699 -1.3023 -0.1379  0.4817
  621SOL    HW2 4306   3.247   6.481   7.835 -0.1106  0.1026  1.0823
  622SOL     OW 4307   6.744   8.457   1.743  0.2450 -0.0476  0.0004
  622SOL    HW1 4308   6.674   8.445   1.679 -0.0848 -1.8690  0.6515
  622SOL    HW2 4309   6.818   8.406   1.708  0.1029 -0.9520  0.9744
  623SOL     OW 4310   9.053   8.655   7.568  0.3076  0.5171  0.2222
  623SOL    HW1 4311   9.036   8.584   7.630 -0.4091  1.1728  0.8018
  623SOL    HW2 4312   8.976   8.712   7.575 -0.2178  0.1502 -1.9350
  624SOL     OW 4313   6.188   6.328   4.528  0.2144 -0.1851 -0.1986
  624SOL    HW1 4314   6.234   6.264   4.473  0.7563 -0.3693  0.4517
  624SOL    HW2 4315   6.213   6.413   4.492  2.9322 -0.1479  1.4528
  625SOL     OW 4316   6.816   9.027   2.222  0.1511  0.2097  0.0063
  625SOL    HW1 4317   6.904   9.054   2.250  0.9604 -1.7018 -0.5495
  625SOL    HW2 4318   6.805   8.939   2.258  0.1562 -1.2683 -3.2822
  626SOL     OW 4319   0.802   7.892   4.516 -0.1203 -0.0039  0.3414
  626SOL    HW1 4320   0.806   7.808   4.561 -1.1989  0.5659  1.5898
  626SOL    HW2 4321   0.889   7.904   4.477 -0.1525 -1.9700 -0.4239
  627SOL     OW 4322   8.755   6.930   1.888  0.1417  0.2107 -0.0679
  627SOL    HW1 4323   8.833   6.979   1.913  0.5507 -0.5271  0.1152
  627SOL    HW2 4324   8.760   6.849   1.939 -0.1587 -0.3402 -0.9020
  628SOL     OW 4325   1.521   2.227   1.758 -0.0202 -0.5749 -0.0910
  628SOL    HW1 4326   1.433   2.263   1.763  0.1628 -0.0703 -0.4903
  628SOL    HW2 4327   1.550   2.222   1.849  0.2314  0.9829 -0.0617
  629SOL     OW 4328   8.818   5.663   8.354 -0.1556 -0.2887 -0.1087
  629SOL    HW1 4329   8.861   5.613   8.424  0.7421  1.3897  0.5975
  629SOL    HW2 4330   8.727   5.668   8.382 -0.0665 -0.7192  0.2863
  630SOL     OW 4331   6.397   1.399   4.588 -0.2787  0.0388 -0.3636
  630SOL    HW1 4332   6.349   1.349   4.522 -1.7192  0.0247  0.6275
  630SOL    HW2 4333   6.450   1.334   4.633 -0.4857 -0.2307 -0.5016
  631SOL     OW 4334   5.948   8.985  10.264  0.0180  0.4684  0.1378
  631SOL    HW1 4335   5.944   9.040  10.186  1.1118  2.7372  1.5745
  631SOL    HW2 4336   5.856   8.972  10.289 -0.2793  1.0177 -0.6407
  632SOL     OW 4337   4.847   6.463   1.493 -0.0917  0.7948  0.2974
  632SOL    HW1 4338   4.912   6.531   1.474 -1.9451  2.2695 -1.2944
  632SOL    HW2 4339   4.797   6.456   1.412  0.0802 -2.6386  0.3601
  633SOL     OW 4340   0.512   6.591   3.331 -0.4679  0.2665 -0.4306
  633SOL    HW1 4341   0.461   6.521   3.371 -0.4186  0.5147  0.0695
  633SOL    HW2 4342   0.524   6.563   3.240  2.9891 -2.3789  0.6265
  634SOL     OW 4343   5.881   0.121   0.497  0.4543 -0.4158 -0.3308
  634SOL    HW1 4344   5.888   0.147   0.405  2.2255 -0.3780 -0.2103
  634SOL    HW2 4345   5.937   0.044   0.504 -0.9666 -1.4157  0.3753
  635SOL     OW 4346   3.870   2.033   5.555  0.2504 -0.4944 -0.2298
  635SOL    HW1 4347   3.802   1.965   5.545 -0.0481 -0.1663 -0.4659
  635SOL    HW2 4348   3.948   1.985   5.582 -0.1386 -0.8538  0.2896
  636SOL     OW 4349   0.515   4.224   9.368  0.0914 -0.2731 -0.4260
  636SOL    HW1 4350   0.423   4.209   9.390 -0.2982 -0.4862 -2.0691
  636SOL    HW2 4351   0.561   4.149   9.405 -0.4362 -0.3640  0.0671
  637SOL     OW 4352   1.416   6.122   7.468 -0.2275 -0.1316 -0.3646
  637SOL    HW1 4353   1.329   6.155   7.494 -0.4557 -0.6579 -0.4435
  637SOL    HW2 4354   1.411   6.027   7.483  0.2713 -0.1898 -0.5545
  638SOL     OW 4355   0.901   0.759   7.111 -0.1288 -0.1071  0.5129
  638SOL    HW1 4356   0.876   0.668   7.130  0.7951 -0.1597  1.5828
  638SOL    HW2 4357   0.976   0.750   7.053 -2.1159  0.0447 -2.2656
  639SOL     OW 4358   1.284  10.398   6.116  0.1921  0.7022  0.1436
  639SOL    HW1 4359   1.257  10.318   6.070  0.4422  1.2819 -1.0751
  639SOL    HW2 4360   1.221  10.407   6.187 -0.3101 -0.1680 -0.1693
  640SOL     OW 4361   5.273   3.386   8.538  0.3329 -0.3377 -0.3537
  640SOL    HW1 4362   5.364   3.400   8.515 -0.2390  1.3279 -1.8089
  640SOL    HW2 4363   5.237   3.335   8.465 -0.2558  0.4154 -0.6069
  641SOL     OW 4364   8.620   8.450   2.973 -0.1091  0.5183  0.1271
  641SOL    HW1 4365   8.655   8.536   2.995 -0.7981  1.0552 -0.7722
  641SOL    HW2 4366   8.695   8.400   2.942 -0.1950  2.0511 -2.9662
  642SOL     OW 4367   3.611   5.354   5.819 -0.5071 -0.0120  0.1124
  642SOL    HW1 4368   3.624   5.277   5.874  0.9578  1.5592  2.0930
  642SOL    HW2 4369   3.531   5.395   5.854 -0.9320 -0.2646 -0.5347
  643SOL     OW 4370   8.151   4.509   1.967  0.2089 -0.2102  0.5330
  643SOL    HW1 4371   8.067   4.465   1.973 -0.9348  1.6349 -0.7781
  643SOL    HW2 4372   8.165   4.546   2.054 -0.5219 -0.2151  0.6571
  644SOL     OW 4373   5.031   0.827   9.724 -0.0017  0.2106  0.5643
  644SOL    HW1 4374   4.972   0.764   9.685  1.6816 -2.2326  1.6995
  644SOL    HW2 4375   5.007   0.827   9.817 -0.1249  1.4450  0.5439
  645SOL     OW 4376   7.961   8.421   2.696  0.4165  0.7917  0.0262
  645SOL    HW1 4377   7.872   8.387   2.711 -0.0864  2.2169  0.4237
  645SOL    HW2 4378   8.004   8.353   2.645 -0.6775 -0.2526  0.4471
  646SOL     OW 4379   0.543   1.871   1.686  0.3388 -0.1831 -0.1848
  646SOL    HW1 4380   0.536   1.903   1.776  0.3391  1.7969 -0.8458
  646SOL    HW2 4381   0.453   1.868   1.655  0.5071  3.0901 -1.3515
  647SOL     OW 4382   8.206   8.305   6.832  0.3562 -0.5417 -0.5793
  647SOL    HW1 4383   8.215   8.383   6.886  0.9175 -0.1800 -1.1838
  647SOL    HW2 4384   8.278   8.248   6.860  0.3172 -0.5862 -0.5672
  648SOL     OW 4385  10.468   6.626   3.490 -0.0784  0.6220  0.2992
  648SOL    HW1 4386  10.514   6.706   3.516  0.6657  0.2896  0.0239
  648SOL    HW2 4387  10.456   6.578   3.572 -1.0252  1.2582  0.5514
  649SOL     OW 4388   5.652   0.085   5.064 -0.2041  0.1110  0.4736
  649SOL    HW1 4389   5.735   0.041   5.049 -0.1320 -0.1070  1.4550
  649SOL    HW2 4390   5.674   0.163   5.116 -0.5273  0.4311  0.1371
  650SOL     OW 4391   4.539   1.274   9.813  0.0868  0.5739 -0.2561
  650SOL    HW1 4392   4.493   1.353   9.841 -0.0579  0.2222  0.5457
  650SOL    HW2 4393   4.568   1.293   9.724 -1.5158  0.8468 -0.7611
  651SOL     OW 4394   5.119   6.895   4.769  0.2101 -0.0854  0.0406
  651SOL    HW1 4395   5.199   6.932   4.731  0.4741 -0.9942 -0.2978
  651SOL    HW2 4396   5.090   6.961   4.832 -0.7360  1.9201 -2.3227
  652SOL     OW 4397   7.440   5.112   7.324 -0.0463 -0.6870 -0.0734
  652SOL    HW1 4398   7.458   5.176   7.392  0.5429 -1.2433  0.3106
  652SOL    HW2 4399   7.407   5.163   7.250  2.4707  0.3541 -0.5819
  653SOL     OW 4400   0.595   7.500   1.600 -0.1570  0.1638  0.2750
  653SOL    HW1 4401   0.603   7.423   1.542  0.8691  2.1147 -2.3811
  653SOL    HW2 4402   0.504   7.528   1.589  0.2064  0.9089 -0.9794
  654SOL     OW 4403   5.293   8.884   9.736 -0.0831 -0.1981 -0.1639
  654SOL    HW1 4404   5.236   8.931   9.676  0.9662  1.0063 -0.2657
  654SOL    HW2 4405   5.268   8.915   9.823 -0.1561 -0.2992 -0.1497
  655SOL     OW 4406   2.209   9.047   5.563  0.1654 -0.2197  0.6674
  655SOL    HW1 4407   2.118   9.017   5.570 -0.4132  1.5805  1.6392
  655SOL    HW2 4408   2.256   9.000   5.631  0.3271 -2.2274 -0.7470
  656SOL     OW 4409   5.714   6.036   0.021 -0.1458  0.0231  0.0083
  656SOL    HW1 4410   5.637   6.033   0.079  0.9474  1.6045  1.6274
  656SOL    HW2 4411   5.777   5.976   0.062 -0.5099 -1.4133 -1.4147
  657SOL     OW 4412   7.028   3.686   1.256  0.0486 -0.0517  0.2909
  657SOL    HW1 4413   6.992   3.768   1.291  1.3352  0.4073  0.5879
  657SOL    HW2 4414   6.979   3.671   1.175  1.2729  2.2115 -0.9621
  658SOL     OW 4415  10.094   7.126   8.408 -0.0079  0.1405  0.0513
  658SOL    HW1 4416  10.189   7.116   8.419 -0.2293 -0.4461  1.7026
  658SOL    HW2 4417  10.068   7.051   8.355  0.4592  0.3988 -0.5581
  659SOL     OW 4418   4.746   3.905   3.211  0.3951 -0.1207 -0.1260
  659SOL    HW1 4419   4.739   3.889   3.117  0.5744  1.0047 -0.3540
  659SOL    HW2 4420   4.841   3.904   3.228  0.4250  0.7373 -0.1798
  660SOL     OW 4421   0.283   4.984   5.000 -0.0896  0.1149 -0.6195
  660SOL    HW1 4422   0.246   4.972   5.088  0.0941 -1.4275 -0.7299
  660SOL    HW2 4423   0.291   4.895   4.966  0.8437  0.6395 -1.7922
  661SOL     OW 4424   5.252   8.684   4.096 -0.2980  0.0732 -0.1027
  661SOL    HW1 4425   5.263   8.687   4.192 -1.1733 -2.4277  0.1499
  661SOL    HW2 4426   5.338   8.657   4.063 -0.2212  0.1024  0.0720
  662SOL     OW 4427   4.360   4.477   2.958  0.3789  0.1472  0.3153
  662SOL    HW1 4428   4.275   4.520   2.974  0.0651 -0.7168  1.0599
  662SOL    HW2 4429   4.337   4.387   2.935  1.1265 -0.3712  1.5300
  663SOL     OW 4430   9.221   7.971   2.052 -0.5028 -0.6458 -0.4512
  663SOL    HW1 4431   9.223   8.024   1.972 -0.3338  0.7279  0.4282
  663SOL    HW2 4432   9.133   7.987   2.088 -0.0555 -0.0513  0.4021
  664SOL     OW 4433   8.729   8.438   6.366 -0.1442 -0.2467  0.0980
  664SOL    HW1 4434   8.647   8.465   6.324  1.2675  1.5167 -1.7526
  664SOL    HW2 4435   8.740   8.499   6.439  0.5652  1.0143 -1.0205
  665SOL     OW 4436   7.514   0.450   3.077  0.0690 -0.2011 -0.4979
  665SOL    HW1 4437   7.543   0.362   3.100  1.4681  0.6099  1.0394
  665SOL    HW2 4438   7.592   0.492   3.040 -0.3341  0.6474 -0.4120
  666SOL     OW 4439   1.541   3.053   3.271  0.3122  0.0890  0.4702
  666SOL    HW1 4440   1.580   3.046   3.184  0.8812  0.2911  0.6996
  666SOL    HW2 4441   1.529   2.962   3.299  1.1091  0.0198  0.6020
  667SOL     OW 4442   5.396   8.363   0.614 -0.4896  0.0961  0.7289
  667SOL    HW1 4443   5.400   8.303   0.540  0.4458  1.1745 -0.1374
  667SOL    HW2 4444   5.416   8.309   0.690 -0.8777 -0.9195  0.1239
  668SOL     OW 4445   7.251   9.260   8.686  0.3548  0.0156  0.1290
  668SOL    HW1 4446   7.196   9.331   8.719  1.3681  0.5756  0.6720
  668SOL    HW2 4447   7.330   9.264   8.740  0.6995 -1.1149 -0.2658
  669SOL     OW 4448   7.208  10.164   2.946 -0.7419  0.1003 -0.7968
  669SOL    HW1 4449   7.142  10.234   2.943  0.0545  1.0823  1.8540
  669SOL    HW2 4450   7.288  10.205   2.913 -0.3515  0.4123  0.4692
  670SOL     OW 4451   5.119   3.849   3.011  0.0279 -0.5052 -0.0630
  670SOL    HW1 4452   5.115   3.913   3.083 -2.8574  3.1196 -2.9738
  670SOL    HW2 4453   5.059   3.779   3.038  2.3138 -1.5664  2.7203
  671SOL     OW 4454   7.692  10.152   1.222  0.0225  0.1438 -0.2189
  671SOL    HW1 4455   7.679  10.237   1.181  0.1185  0.1060 -0.3291
  671SOL    HW2 4456   7.718  10.172   1.312  2.2112  0.2818 -0.8406
  672SOL     OW 4457   8.364   6.323   2.957 -0.2651  0.0849 -0.1251
  672SOL    HW1 4458   8.353   6.277   3.041 -0.0735 -0.0211 -0.1567
  672SOL    HW2 4459   8.325   6.409   2.972  0.8055  0.4946  0.4573
  673SOL     OW 4460   4.668   1.288   0.438 -0.4201  0.1924 -0.4447
  673SOL    HW1 4461   4.651   1.310   0.347  1.3706 -0.2620 -0.9439
  673SOL    HW2 4462   4.730   1.214   0.433 -1.0244 -0.4605  1.1356
  674SOL     OW 4463   7.753   8.466   7.449 -0.1820  0.4463 -0.2002
  674SOL    HW1 4464   7.848   8.470   7.450 -0.2100  3.5406 -1.4331
  674SOL    HW2 4465   7.731   8.432   7.362 -0.3243 -2.7415  0.9185
  675SOL     OW 4466   9.341   5.368   7.989 -0.0231 -0.0688  0.3605
  675SOL    HW1 4467   9.346   5.274   7.969  3.2485  0.5142 -2.5581
  675SOL    HW2 4468   9.295   5.406   7.915  0.7931  0.8413  0.2934
  676SOL     OW 4469   3.126   1.844   1.539 -0.6212  0.3972  0.2528
  676SOL    HW1 4470   3.041   1.873   1.572 -1.9640 -2.3835 -0.4540
  676SOL    HW2 4471   3.129   1.750   1.558  1.6135  0.0837 -1.1926
  677SOL     OW 4472   9.597   0.961   2.406 -1.0434 -0.4264 -0.1917
  677SOL    HW1 4473   9.618   0.992   2.494  0.9284  2.1313 -1.4553
  677SOL    HW2 4474   9.506   0.988   2.393 -1.0318  0.0854  0.6804
  678SOL     OW 4475   7.260   9.186  10.107  0.2530 -0.3540  0.4950
  678SOL    HW1 4476   7.180   9.186  10.159 -0.8714  0.0778 -1.1515
  678SOL    HW2 4477   7.275   9.094  10.086  0.1235 -0.4279  0.7212
  679SOL     OW 4478   9.851   4.386   6.474  0.4227  0.5425 -0.4640
  679SOL    HW1 4479   9.890   4.404   6.388 -1.1754  1.9274 -0.9619
  679SOL    HW2 4480   9.833   4.472   6.511  1.4885 -0.0218  1.5063
  680SOL     OW 4481   2.104   7.256   7.329 -0.2593 -0.1656  0.0704
  680SOL    HW1 4482   2.125   7.312   7.254 -0.6478 -0.5443 -0.3286
  680SOL    HW2 4483   2.189   7.240   7.371 -0.0424  0.0760 -0.2698
  681SOL     OW 4484   0.042   6.142   4.554 -0.0621 -0.4226  0.5521
  681SOL    HW1 4485   0.082   6.085   4.620  0.4867 -1.0083 -0.2647
  681SOL    HW2 4486   0.037   6.228   4.596  3.3302  0.0517  0.2756
  682SOL     OW 4487   8.628   7.817   3.475 -0.3616 -0.0398  0.1451
  682SOL    HW1 4488   8.599   7.862   3.396  1.2831 -0.4758 -0.7533
  682SOL    HW2 4489   8.548   7.780   3.512 -0.9576 -1.9755 -2.7105
  683SOL     OW 4490   5.757   7.383   9.377 -0.0256  0.1822 -0.0558
  683SOL    HW1 4491   5.763   7.479   9.372  2.0101  0.1956  1.2654
  683SOL    HW2 4492   5.820   7.359   9.446 -0.7974 -2.0815 -0.0614
  684SOL     OW 4493   5.035   5.148   9.383  0.2237 -0.1090 -0.4903
  684SOL    HW1 4494   5.043   5.105   9.468 -2.6287  1.0629  0.4840
  684SOL    HW2 4495   5.035   5.242   9.403  1.2533  0.2604 -2.0167
  685SOL     OW 4496   6.371   6.438  10.411 -0.2698  0.8684  0.3121
  685SOL    HW1 4497   6.311   6.485  10.469 -0.7719  0.6814 -0.0415
  685SOL    HW2 4498   6.363   6.485  10.327 -1.4389 -0.3343 -0.2954
  686SOL     OW 4499  10.242   7.029   5.827  0.3375 -0.5833  0.0204
  686SOL    HW1 4500  10.261   7.033   5.921  2.1986  0.2314 -0.3439
  686SOL    HW2 4501  10.170   7.091   5.814  1.4480  0.8955  0.6325
  687SOL     OW 4502   8.659   3.658   7.486  0.6209  0.0818  0.2341
  687SOL    HW1 4503   8.599   3.591   7.454 -0.4014  0.8085  0.5998
  687SOL    HW2 4504   8.625   3.683   7.572  0.5530  1.5744 -0.1976
  688SOL     OW 4505   5.048   2.288   0.750 -0.6235  0.6296 -0.4851
  688SOL    HW1 4506   4.989   2.297   0.825  1.9076 -0.2370  1.7527
  688SOL    HW2 4507   5.003   2.335   0.679 -3.1628  1.4549  1.5027
  689SOL     OW 4508   0.970   7.213   4.892  0.3637  0.2409 -0.2748
  689SOL    HW1 4509   1.009   7.126   4.891  2.3410  1.0536 -1.9811
  689SOL    HW2 4510   1.027   7.264   4.950  0.0023  0.7139 -0.3286
  690SOL     OW 4511   8.370   6.219   7.845 -0.4897 -0.7725 -0.4175
  690SOL    HW1 4512   8.285   6.206   7.887 -0.0999 -0.2901  0.5521
  690SOL    HW2 4513   8.410   6.132   7.844 -0.1960 -0.6864  0.9525
  691SOL     OW 4514   1.765   0.217   8.234 -0.1658 -0.3839  0.3508
  691SOL    HW1 4515   1.812   0.212   8.317  0.7566 -0.1799 -0.1404
  691SOL    HW2 4516   1.737   0.308   8.227  0.8524 -0.0774 -0.1118
  692SOL     OW 4517   3.251   2.744   6.456 -0.2871  0.6864 -0.0421
  692SOL    HW1 4518   3.262   2.815   6.393 -0.4252 -0.4084 -1.3511
  692SOL    HW2 4519   3.210   2.786   6.532 -1.2405  1.8474 -1.1367
  693SOL     OW 4520   4.135   5.957  10.336 -0.3367 -0.2042 -0.0442
  693SOL    HW1 4521   4.200   5.941  10.267  0.2501 -0.7224  0.6179
  693SOL    HW2 4522   4.051   5.936  10.294 -0.0021 -0.3850 -0.6451
  694SOL     OW 4523   9.457   2.488   8.162 -0.1379 -0.5688  0.5192
  694SOL    HW1 4524   9.495   2.407   8.197  0.6746 -0.8114 -0.8560
  694SOL    HW2 4525   9.449   2.545   8.238  3.1612 -0.4298  0.9210
  695SOL     OW 4526   4.160  10.307   0.103 -0.0641 -0.0681  0.3776
  695SOL    HW1 4527   4.210  10.349   0.174  1.3116 -1.5955  0.3952
  695SOL    HW2 4528   4.203  10.336   0.023  1.2558 -1.7743  0.4134
  696SOL     OW 4529   7.754   2.039   7.097 -0.8890  0.2662 -0.4375
  696SOL    HW1 4530   7.792   2.108   7.041 -0.4247  0.7175  0.4000
  696SOL    HW2 4531   7.796   2.053   7.182 -1.3181 -0.6287 -0.0715
  697SOL     OW 4532   8.465   8.637   7.110  0.6939 -0.6071 -0.5026
  697SOL    HW1 4533   8.499   8.720   7.145 -0.5319  1.0213 -2.8481
  697SOL    HW2 4534   8.415   8.600   7.183 -0.9762  2.1263 -0.0984
  698SOL     OW 4535   5.416   1.609   4.460 -0.2420  0.2615  0.0622
  698SOL    HW1 4536   5.426   1.615   4.365  2.0269 -3.2341 -0.1075
  698SOL    HW2 4537   5.340   1.552   4.472  0.2271 -0.3321  0.2681
  699SOL     OW 4538   4.718   9.943   6.788  0.0949  0.1083 -0.3751
  699SOL    HW1 4539   4.789   9.997   6.752 -0.6147  1.4890  0.1917
  699SOL    HW2 4540   4.638   9.989   6.763 -0.6415 -1.5683 -1.2409
  700SOL     OW 4541   1.901   6.286   6.225  0.1881  0.3650 -0.2941
  700SOL    HW1 4542   1.845   6.283   6.302 -0.2422 -0.4951 -0.6226
  700SOL    HW2 4543   1.886   6.202   6.181  1.4305  0.2823 -0.6071
  701SOL     OW 4544   7.084   2.074   4.415  0.0856  0.1168  0.1297
  701SOL    HW1 4545   7.114   2.107   4.330  1.4935 -2.1621 -0.3400
  701SOL    HW2 4546   7.066   1.981   4.400  1.7448 -0.7055  2.6203
  702SOL     OW 4547  10.090   6.427   6.912 -0.2328 -0.2056 -0.3563
  702SOL    HW1 4548  10.133   6.511   6.932  2.2942 -1.3225 -0.6698
  702SOL    HW2 4549  10.150   6.384   6.850  0.4387 -3.6948  2.4026
  703SOL     OW 4550   6.588   1.342  10.142 -0.9993  0.6078  0.0023
  703SOL    HW1 4551   6.535   1.418  10.120 -0.1371  1.8744  1.9932
  703SOL    HW2 4552   6.667   1.378  10.181 -0.5094 -1.3055  0.9176
  704SOL     OW 4553   9.328   5.282   3.034  0.7491 -0.2033  0.7211
  704SOL    HW1 4554   9.415   5.241   3.026  0.8905  0.0111  1.1114
  704SOL    HW2 4555   9.288   5.270   2.948  2.0500  1.6754 -0.2245
  705SOL     OW 4556   3.124   2.358   4.055  0.5588  0.1530  0.0415
  705SOL    HW1 4557   3.085   2.344   4.142  1.7796 -0.8312  0.4657
  705SOL    HW2 4558   3.196   2.419   4.070  1.4980 -0.9023 -0.0475
  706SOL     OW 4559   8.744   8.154   0.629  0.0281  0.0207 -0.4331
  706SOL    HW1 4560   8.756   8.225   0.691 -0.7530 -2.1889  2.4771
  706SOL    HW2 4561   8.804   8.086   0.658 -2.3801 -2.1864 -0.1734
  707SOL     OW 4562   1.950   9.642  10.147 -0.0468 -0.4200  0.0463
  707SOL    HW1 4563   1.942   9.592  10.228 -1.9269  0.9817  0.7876
  707SOL    HW2 4564   1.865   9.631  10.104  0.3724  0.1612 -0.9593
  708SOL     OW 4565   3.807   0.356   0.940  0.2904  0.5857 -0.3822
  708SOL    HW1 4566   3.791   0.264   0.917 -0.8417  0.6018  0.2715
  708SOL    HW2 4567   3.887   0.379   0.893  0.9485 -0.9255 -0.0480
  709SOL     OW 4568   9.960   8.689  10.111  0.3695 -0.0052 -0.0848
  709SOL    HW1 4569   9.896   8.652  10.051 -0.6625 -0.1584  1.0744
  709SOL    HW2 4570  10.038   8.635  10.099 -0.0143 -0.4011 -0.8461
  710SOL     OW 4571   7.047   8.425   5.420 -0.8389 -0.5417 -0.5680
  710SOL    HW1 4572   7.037   8.520   5.416  0.3461 -0.3888 -0.2466
  710SOL    HW2 4573   7.140   8.411   5.435 -1.0095 -1.7592 -0.5177
  711SOL     OW 4574   3.472   5.588   6.610  0.5853 -0.0404  0.4393
  711SOL    HW1 4575   3.403   5.543   6.659  0.1479  1.8584  1.6787
  711SOL    HW2 4576   3.425   5.645   6.549  1.1104 -0.3303 -0.2574
  712SOL     OW 4577   6.040   1.379   3.540  0.5060  1.1738  0.5593
  712SOL    HW1 4578   6.026   1.458   3.487  0.7971  0.1264 -1.1542
  712SOL    HW2 4579   5.981   1.389   3.615 -1.6463  1.6631 -1.1134
  713SOL     OW 4580   1.310   1.931   8.894  0.9653  0.6321 -0.2892
  713SOL    HW1 4581   1.387   1.926   8.950  0.3163 -0.2578  0.5570
  713SOL    HW2 4582   1.343   1.965   8.811  1.8265  2.7700  0.8419
  714SOL     OW 4583   4.951   4.311   4.614  0.0292 -0.1113  0.3197
  714SOL    HW1 4584   5.026   4.349   4.569  0.0257 -2.1424 -1.6208
  714SOL    HW2 4585   4.986   4.235   4.661 -0.5489 -0.1268  0.7393
  715SOL     OW 4586   5.942   4.196   4.538 -0.1021 -0.2607  0.7925
  715SOL    HW1 4587   5.852   4.201   4.505 -0.1408  0.6007  1.0121
  715SOL    HW2 4588   5.945   4.115   4.588 -1.5066  0.9393  2.9699
  716SOL     OW 4589   2.718   8.624   6.613 -0.1842  0.2679 -0.4239
  716SOL    HW1 4590   2.670   8.626   6.696  0.7022 -0.3571  0.1125
  716SOL    HW2 4591   2.654   8.655   6.549 -1.5017 -1.0581  0.1839
  717SOL     OW 4592  10.404   4.602  10.037 -0.1600  0.0703  0.3375
  717SOL    HW1 4593  10.383   4.678  10.091  0.0072  0.3713 -0.0141
  717SOL    HW2 4594  10.412   4.637   9.948 -0.3616 -0.4024  0.1256
  718SOL     OW 4595   9.530   9.331   6.076  0.4275  0.1532  0.2198
  718SOL    HW1 4596   9.574   9.270   6.016  0.8502  0.9867 -0.3239
  718SOL    HW2 4597   9.439   9.332   6.047 -0.1649 -2.0135  1.6933
  719SOL     OW 4598   6.262   9.079   5.111 -0.0054  0.5756  0.1867
  719SOL    HW1 4599   6.345   9.101   5.154 -0.2011  1.7299  0.0313
  719SOL    HW2 4600   6.225   9.008   5.163 -0.5086  2.2964  2.3410
  720SOL     OW 4601   9.847   8.163   4.908 -0.8553  0.0824 -0.2074
  720SOL    HW1 4602   9.761   8.193   4.937 -1.0212 -0.5968  0.0222
  720SOL    HW2 4603   9.828   8.107   4.832 -0.7410 -1.0791  0.5858
  721SOL     OW 4604   8.404  10.301   5.600  0.0936 -0.4918  0.3323
  721SOL    HW1 4605   8.482  10.351   5.580 -0.8467  0.8251 -0.1616
  721SOL    HW2 4606   8.335  10.366   5.612 -0.8737 -1.5983  1.0616
  722SOL     OW 4607   3.947   7.813   0.551  0.6316 -0.1993  0.3302
  722SOL    HW1 4608   3.986   7.899   0.564  3.1739 -1.2584  0.1988
  722SOL    HW2 4609   3.982   7.782   0.468  0.9411 -1.9150  1.0393
  723SOL     OW 4610   8.729   1.228   9.134 -0.4052 -0.1799  0.1804
  723SOL    HW1 4611   8.656   1.290   9.131 -0.9787 -0.7158  1.7212
  723SOL    HW2 4612   8.806   1.283   9.144 -0.7005  0.3582 -0.4673
  724SOL     OW 4613   0.222   7.999   8.297 -0.5156 -0.3330 -0.0609
  724SOL    HW1 4614   0.174   8.059   8.353  0.4058  0.2076  0.1668
  724SOL    HW2 4615   0.296   7.969   8.350  0.1276 -0.1429 -0.8232
  725SOL     OW 4616   2.206   1.136   3.625  0.0224  0.1425  0.0958
  725SOL    HW1 4617   2.266   1.176   3.562 -0.2746 -1.3575 -1.1802
  725SOL    HW2 4618   2.240   1.048   3.638 -1.5759 -0.5568 -0.2360
  726SOL     OW 4619   9.920   0.535   4.736 -0.3022  0.5667 -0.6594
  726SOL    HW1 4620   9.967   0.609   4.774 -1.0738  1.0185 -0.5559
  726SOL    HW2 4621   9.836   0.572   4.708 -1.2108 -0.5087  0.5146
  727SOL     OW 4622   1.624   2.194   2.691 -0.4359  0.2118 -0.3619
  727SOL    HW1 4623   1.610   2.244   2.772  1.3576 -0.1793  0.2381
  727SOL    HW2 4624   1.542   2.204   2.642 -1.6711  0.2787  1.5966
  728SOL     OW 4625   3.151   6.551   8.613 -0.4423  0.1522  0.0384
  728SOL    HW1 4626   3.121   6.630   8.569  1.4454 -0.0885 -1.7996
  728SOL    HW2 4627   3.198   6.582   8.690 -1.0611  0.7179  0.1979
  729SOL     OW 4628   1.192   8.857   7.114 -0.5226  0.1397 -0.2082
  729SOL    HW1 4629   1.205   8.802   7.191 -0.0553  0.5601  0.0283
  729SOL    HW2 4630   1.136   8.928   7.145 -1.5927 -0.4900 -0.6576
  730SOL     OW 4631   3.840   8.548   0.276  0.2655 -0.4317  0.0772
  730SOL    HW1 4632   3.902   8.542   0.349  1.4187 -1.1033 -0.9014
  730SOL    HW2 4633   3.823   8.642   0.267  1.5216 -0.1803  0.0870
  731SOL     OW 4634   8.330   1.911   3.619 -0.0207 -0.1543  0.4081
  731SOL    HW1 4635   8.282   1.973   3.565  0.4220 -1.5717 -1.7535
  731SOL    HW2 4636   8.422   1.935   3.609  0.0644 -0.4322  0.4943
  732SOL     OW 4637   0.507   4.833   6.068 -0.2051 -0.3971  0.6413
  732SOL    HW1 4638   0.473   4.923   6.063 -2.7115 -1.3341 -0.9435
  732SOL    HW2 4639   0.475   4.800   6.151  0.9581  0.2130  1.3602
  733SOL     OW 4640   0.723   8.979   3.514 -0.2770  0.1687  0.3411
  733SOL    HW1 4641   0.628   8.979   3.517 -0.2679  0.3548  0.9319
  733SOL    HW2 4642   0.750   8.963   3.605  0.2423  1.7452  0.5055
  734SOL     OW 4643   6.689   4.403   6.226 -0.3476 -0.1501  0.0510
  734SOL    HW1 4644   6.713   4.398   6.133  1.1110  1.2246  0.3000
  734SOL    HW2 4645   6.660   4.315   6.248  0.8219 -0.9221 -1.3255
  735SOL     OW 4646   2.122   6.232   2.067 -0.5585 -0.1685  0.6562
  735SOL    HW1 4647   2.208   6.190   2.070 -0.3486 -0.0129 -1.4812
  735SOL    HW2 4648   2.059   6.160   2.075 -0.1986 -0.9374 -2.3195
  736SOL     OW 4649   1.273   3.010   2.342  0.3364 -0.0363 -0.6028
  736SOL    HW1 4650   1.261   2.915   2.337  0.7364 -0.3233  2.2151
  736SOL    HW2 4651   1.363   3.022   2.371 -0.3644  1.0400  1.3449
  737SOL     OW 4652   7.467   4.552   0.673 -0.1151 -0.0547  0.4763
  737SOL    HW1 4653   7.484   4.577   0.582 -1.8786 -2.2325 -0.5587
  737SOL    HW2 4654   7.377   4.519   0.673  0.3206 -1.5012  2.6864
  738SOL     OW 4655   8.458   5.189   6.002  0.0758 -0.0507 -0.1010
  738SOL    HW1 4656   8.445   5.164   6.094  1.2231 -1.8369 -0.3694
  738SOL    HW2 4657   8.418   5.275   5.995  1.5026  0.9353  2.5123
  739SOL     OW 4658  10.375   7.147   3.504  0.5500 -0.0757 -0.5528
  739SOL    HW1 4659  10.438   7.188   3.445  0.5819 -0.8313 -1.0546
  739SOL    HW2 4660  10.430   7.107   3.573  0.6834 -1.2985 -1.3413
  740SOL     OW 4661   9.634   9.488   6.634 -0.6996  0.3458 -0.0876
  740SOL    HW1 4662   9.542   9.468   6.616 -0.9204  0.1211  1.1986
  740SOL    HW2 4663   9.660   9.546   6.563 -1.8199  0.3698 -0.5017
  741SOL     OW 4664   6.618   7.191   1.100 -0.0617  0.4986  0.0243
  741SOL    HW1 4665   6.586   7.148   1.179  0.4873  0.1673  0.0661
  741SOL    HW2 4666   6.609   7.125   1.031  1.4630  0.0547  0.2295
  742SOL     OW 4667   2.423   4.062   1.796 -0.4406 -0.6080  0.2393
  742SOL    HW1 4668   2.379   4.145   1.780 -0.5721 -0.9938 -1.6318
  742SOL    HW2 4669   2.381   4.000   1.736 -0.2270 -1.9999  1.4682
  743SOL     OW 4670   7.990   5.047  10.242 -0.5233  0.2682 -0.2978
  743SOL    HW1 4671   8.045   5.014  10.171 -0.9675 -2.2308  0.4099
  743SOL    HW2 4672   7.987   4.975  10.305 -0.7234  2.1438  1.9376
  744SOL     OW 4673   3.463   3.165   6.300  0.1975 -0.2807  0.0227
  744SOL    HW1 4674   3.426   3.252   6.291 -2.1971 -1.0546  1.3976
  744SOL    HW2 4675   3.510   3.166   6.383  0.9843 -0.0737 -0.4110
  745SOL     OW 4676   8.940   1.115   6.407 -0.1385 -0.0965  0.9832
  745SOL    HW1 4677   8.920   1.181   6.341  0.0159  0.2996  1.3255
  745SOL    HW2 4678   8.857   1.097   6.450  0.1855  1.5724  2.4299
  746SOL     OW 4679   2.388   4.949   3.697 -0.1835 -0.3002  0.4488
  746SOL    HW1 4680   2.432   5.032   3.714 -0.9046  0.0352  0.6827
  746SOL    HW2 4681   2.375   4.948   3.602  0.3009 -0.3925  0.3794
  747SOL     OW 4682   1.847   5.108  10.433 -0.2078 -0.5733  0.2733
  747SOL    HW1 4683   1.794   5.047  10.484 -1.3052 -1.2755 -1.6232
  747SOL    HW2 4684   1.921   5.056  10.402  0.1126 -0.3186  0.6022
  748SOL     OW 4685   3.653  10.059   7.552  0.1128 -0.4340 -0.1069
  748SOL    HW1 4686   3.714  10.083   7.622  1.2413 -1.1354 -0.8219
  748SOL    HW2 4687   3.604  10.140   7.536  0.6773  0.0879  0.6569
  749SOL     OW 4688   6.753   0.567   1.466 -0.0548 -0.1503  0.2609
  749SOL    HW1 4689   6.717   0.648   1.503 -1.8290 -0.7334 -0.1179
  749SOL    HW2 4690   6.718   0.564   1.377 -0.4266 -1.5905  0.4414
  750SOL     OW 4691   8.605   8.257   7.536  0.4803 -0.3409  0.4667
  750SOL    HW1 4692   8.699   8.255   7.516  1.1082  1.5951  2.6688
  750SOL    HW2 4693   8.584   8.350   7.540 -1.0325 -0.6964  1.9656
  751SOL     OW 4694   8.148   4.459   9.223 -0.4638 -0.0214  0.6659
  751SOL    HW1 4695   8.060   4.439   9.255 -1.1372  0.9541 -0.4969
  751SOL    HW2 4696   8.162   4.551   9.247 -1.0171  0.7693 -1.7541
  752SOL     OW 4697   9.139  10.008   5.242 -0.2129 -0.1380  0.1860
  752SOL    HW1 4698   9.172  10.095   5.221 -0.4287  0.1517  1.0054
  752SOL    HW2 4699   9.048  10.009   5.213 -0.4502  0.1915  0.9187
  753SOL     OW 4700   7.252   0.664   9.892 -0.4227  0.4628  0.0590
  753SOL    HW1 4701   7.327   0.719   9.913  0.5955 -1.3800  1.6079
  753SOL    HW2 4702   7.185   0.690   9.956  0.3393 -0.5867  1.3291
  754SOL     OW 4703   8.525  10.431   7.987  0.0520  0.1241 -0.2541
  754SOL    HW1 4704   8.606  10.464   7.947  0.1423 -1.3469 -1.3662
  754SOL    HW2 4705   8.552  10.354   8.037 -0.5886 -0.0964 -0.2380
  755SOL     OW 4706   9.008   3.904   8.444 -0.4897  0.5793 -0.1975
  755SOL    HW1 4707   9.048   3.931   8.362 -1.8258 -0.7785 -1.3357
  755SOL    HW2 4708   8.930   3.959   8.452 -0.0530  1.1279  0.5053
  756SOL     OW 4709   0.059   5.332   6.872 -0.3860 -0.2653  0.3563
  756SOL    HW1 4710   0.077   5.384   6.793 -0.4770 -0.2425  0.3498
  756SOL    HW2 4711  -0.036   5.336   6.881 -0.3577 -0.1002  0.5815
  757SOL     OW 4712   2.038   0.827   7.762  0.3370 -0.3171 -0.3297
  757SOL    HW1 4713   1.998   0.804   7.678  0.8106 -0.8825 -0.4025
  757SOL    HW2 4714   2.116   0.878   7.739  1.4940 -2.0183 -0.3187
  758SOL     OW 4715   9.929   0.715  10.250 -0.0565  0.1711 -0.2244
  758SOL    HW1 4716   9.990   0.785  10.270  0.0891  0.1660 -0.6386
  758SOL    HW2 4717   9.948   0.647  10.315  1.0324 -0.2243 -0.9151
  759SOL     OW 4718   1.093   4.128   1.931  0.2480 -0.6338 -0.6928
  759SOL    HW1 4719   1.187   4.133   1.913 -0.0038  0.7249 -1.8441
  759SOL    HW2 4720   1.051   4.144   1.846 -1.0176  0.3092  0.0575
  760SOL     OW 4721   1.753   0.204   6.310 -0.2564  0.5334  0.5330
  760SOL    HW1 4722   1.680   0.265   6.319 -1.8868 -1.3239  0.5307
  760SOL    HW2 4723   1.731   0.150   6.234  1.9524  0.9401 -0.5015
  761SOL     OW 4724   5.395   6.680   0.209 -0.0809 -0.3189 -0.2097
  761SOL    HW1 4725   5.458   6.736   0.164  2.4186 -1.3365  1.7249
  761SOL    HW2 4726   5.392   6.715   0.298 -2.3709 -0.2719 -0.2624
  762SOL     OW 4727   6.849   7.757   5.621 -0.3644  0.4713  0.1579
  762SOL    HW1 4728   6.921   7.711   5.664  0.3117  0.5282 -0.8725
  762SOL    HW2 4729   6.892   7.821   5.564 -1.2715  2.1122  1.2270
  763SOL     OW 4730   0.384   6.178   9.316  0.3687  0.1828 -0.3148
  763SOL    HW1 4731   0.465   6.190   9.366  0.4197 -0.7163 -0.1624
  763SOL    HW2 4732   0.408   6.115   9.247 -0.0151  0.4735 -0.7198
  764SOL     OW 4733   4.464   0.580   8.744  0.3374 -0.2304 -0.4094
  764SOL    HW1 4734   4.499   0.507   8.794 -1.7619 -0.8455  0.2902
  764SOL    HW2 4735   4.409   0.539   8.677  0.4863  0.6773 -1.1136
  765SOL     OW 4736   4.357   0.861   4.049 -0.1888  0.0550 -0.1078
  765SOL    HW1 4737   4.434   0.917   4.049  0.3323 -0.6467  0.3409
  765SOL    HW2 4738   4.303   0.894   4.121 -0.1279  0.3047 -0.1766
  766SOL     OW 4739   8.498   1.820   6.283  0.1883 -0.3754  0.0817
  766SOL    HW1 4740   8.478   1.831   6.190  2.0530 -1.2502 -0.4695
  766SOL    HW2 4741   8.455   1.738   6.307 -0.1219 -0.2565 -0.0633
  767SOL     OW 4742   0.496   8.691   1.162 -0.7760  0.1077  0.0259
  767SOL    HW1 4743   0.588   8.711   1.143 -0.8705 -1.2355 -2.1889
  767SOL    HW2 4744   0.495   8.671   1.256  1.2366 -0.1066  0.0513
  768SOL     OW 4745   6.930   4.041   1.637  0.3043 -0.6208 -0.4144
  768SOL    HW1 4746   6.879   3.960   1.635  0.3290 -0.6402 -0.2673
  768SOL    HW2 4747   6.880   4.098   1.696 -0.2775 -0.1544 -1.3368
  769SOL     OW 4748  10.101   7.783   9.993  0.2794  0.2184 -0.2456
  769SOL    HW1 4749  10.045   7.727  10.047  0.7136  0.8314  0.8900
  769SOL    HW2 4750  10.189   7.745  10.002  0.5728  1.0419  0.5177
  770SOL     OW 4751   2.905   0.939   2.260 -0.0745  0.1983  0.3301
  770SOL    HW1 4752   2.817   0.931   2.297 -0.1917 -0.9632 -0.1615
  770SOL    HW2 4753   2.900   1.016   2.204 -0.7713  0.1504  0.3165
  771SOL     OW 4754   8.026   8.826   6.246 -0.2667  0.0506  0.3117
  771SOL    HW1 4755   8.047   8.774   6.323 -2.6654 -1.2011  0.2209
  771SOL    HW2 4756   7.982   8.765   6.187 -0.0071  1.3880 -1.3355
  772SOL     OW 4757   2.622   9.813   2.357  0.0209  0.3880  0.5560
  772SOL    HW1 4758   2.652   9.780   2.273 -0.5206  1.6648 -0.1640
  772SOL    HW2 4759   2.575   9.893   2.336 -0.5764  0.4543  2.0304
  773SOL     OW 4760   6.214   0.126   1.751  0.2439  0.2728  0.0103
  773SOL    HW1 4761   6.253   0.183   1.817 -0.2840 -0.1725  0.7143
  773SOL    HW2 4762   6.156   0.068   1.800  1.8331 -1.8419 -0.4849
  774SOL     OW 4763   1.606   6.235   3.472  0.6469 -0.3292  0.5293
  774SOL    HW1 4764   1.588   6.220   3.565  1.2229 -0.4370  0.6294
  774SOL    HW2 4765   1.675   6.302   3.472  0.1617  0.1715  0.1607
  775SOL     OW 4766   2.630   3.182   0.524 -0.1487 -0.3751 -0.0618
  775SOL    HW1 4767   2.712   3.183   0.474 -2.9127 -0.2470 -5.2652
  775SOL    HW2 4768   2.614   3.274   0.545  0.3328 -0.2354 -0.2785
  776SOL     OW 4769   3.619   9.213   3.673 -0.5166  0.1533  0.5879
  776SOL    HW1 4770   3.643   9.300   3.641 -1.0680  0.2327  0.3735
  776SOL    HW2 4771   3.656   9.153   3.608  1.5261  0.0976  1.7236
  777SOL     OW 4772   7.662   2.197   7.592 -0.5243  0.5044 -0.2764
  777SOL    HW1 4773   7.739   2.161   7.548 -0.4329  0.4116 -0.0385
  777SOL    HW2 4774   7.588   2.159   7.546 -0.4697  2.1335 -1.8551
  778SOL     OW 4775   5.862   8.116   6.693 -0.0363  0.1530 -0.3586
  778SOL    HW1 4776   5.814   8.145   6.770  0.5137  0.2988 -0.0598
  778SOL    HW2 4777   5.895   8.029   6.716 -0.6438 -0.2022 -0.7869
  779SOL     OW 4778   0.759   9.492   5.895 -0.3240  0.5013 -0.3339
  779SOL    HW1 4779   0.774   9.399   5.908 -0.1971  0.3442 -1.5011
  779SOL    HW2 4780   0.687   9.496   5.832  0.2714  1.1738 -0.9887
  780SOL     OW 4781   5.619   2.984   9.769  0.0383 -0.1683  0.7032
  780SOL    HW1 4782   5.616   3.075   9.798  0.2478  0.2300 -0.4761
  780SOL    HW2 4783   5.600   2.933   9.847  0.2265  0.8786  1.4452
  781SOL     OW 4784   6.074   3.001   6.274 -0.2154  0.1529  0.1308
  781SOL    HW1 4785   6.053   2.943   6.201 -0.6696  0.3577  0.0972
  781SOL    HW2 4786   5.998   2.995   6.333 -0.0134  0.2717  0.4058
  782SOL     OW 4787   0.163   1.441   0.029  0.2637  0.3160  0.4600
  782SOL    HW1 4788   0.249   1.482   0.024  1.8923 -2.7779  1.0130
  782SOL    HW2 4789   0.156   1.411   0.120 -1.0182 -0.2770  0.1902
  783SOL     OW 4790  10.113   0.154   1.790  0.4427 -0.4014 -0.9568
  783SOL    HW1 4791  10.110   0.165   1.695  1.3308  0.6905 -0.8732
  783SOL    HW2 4792  10.021   0.137   1.814  0.0904  0.0368 -1.9215
  784SOL     OW 4793   4.544   4.694   7.412 -0.0294 -0.0929 -0.2819
  784SOL    HW1 4794   4.455   4.667   7.393  0.1962  0.4015 -2.2764
  784SOL    HW2 4795   4.542   4.789   7.410 -0.1190  0.1341  3.3002
  785SOL     OW 4796   0.747   6.108  10.451 -0.4482 -0.0009  0.1223
  785SOL    HW1 4797   0.717   6.187  10.496 -0.9659 -1.1788  1.9528
  785SOL    HW2 4798   0.829   6.134  10.408  0.4644  1.0640  2.3474
  786SOL     OW 4799   2.593   7.411   1.726  0.6213  0.7772 -0.4312
  786SOL    HW1 4800   2.567   7.501   1.748 -0.9940  0.3541 -0.5667
  786SOL    HW2 4801   2.571   7.360   1.803  0.1686  0.2425 -0.9136
  787SOL     OW 4802   0.627   9.671   9.001 -0.4429  0.1251  0.2082
  787SOL    HW1 4803   0.581   9.741   9.047  0.3143 -0.8109  2.5057
  787SOL    HW2 4804   0.717   9.703   8.994  0.0490 -0.8307  1.8274
  788SOL     OW 4805   4.559   1.360   9.512 -0.1033 -0.6543 -0.6340
  788SOL    HW1 4806   4.608   1.441   9.527  1.5572 -1.7307  0.1093
  788SOL    HW2 4807   4.478   1.388   9.469 -0.6839  1.6528  1.6915
  789SOL     OW 4808   9.926   9.891   6.725  0.4910  0.5764  0.0257
  789SOL    HW1 4809   9.938   9.838   6.803  0.1704 -1.3614 -1.1787
  789SOL    HW2 4810  10.007   9.879   6.675 -0.2188 -0.1257 -1.0026
  790SOL     OW 4811   1.702   1.331   5.060 -0.1041  0.6111 -0.1575
  790SOL    HW1 4812   1.771   1.274   5.026 -0.4459 -0.2101  0.4968
  790SOL    HW2 4813   1.623   1.302   5.014 -0.2164  0.7892 -0.0746
  791SOL     OW 4814   3.201   5.897   5.438  0.1711  0.8238 -0.4851
  791SOL    HW1 4815   3.236   5.813   5.409 -1.0952  0.5140 -1.1998
  791SOL    HW2 4816   3.211   5.896   5.533 -0.3099 -0.3740 -0.4294
  792SOL     OW 4817   3.522   5.726   5.532 -0.2358 -0.5072 -0.2427
  792SOL    HW1 4818   3.459   5.756   5.466 -0.1604 -0.1636 -0.1595
  792SOL    HW2 4819   3.591   5.683   5.481 -0.5704 -0.9592 -0.3295
  793SOL     OW 4820   5.375   4.475   5.447 -0.4528  0.0926 -0.6076
  793SOL    HW1 4821   5.322   4.543   5.488  1.8176  1.0650  0.9082
  793SOL    HW2 4822   5.461   4.485   5.487  1.4008 -0.2550 -4.1666
  794SOL     OW 4823   0.449   0.467   2.873 -0.6916  0.6866  0.9779
  794SOL    HW1 4824   0.543   0.464   2.892 -0.8651  0.6183  1.8465
  794SOL    HW2 4825   0.437   0.548   2.824  0.1609 -0.3689 -1.1480
  795SOL     OW 4826   5.973   3.253   8.877 -0.1348 -0.1156 -0.0413
  795SOL    HW1 4827   5.964   3.233   8.970 -1.8875  0.4811 -0.0306
  795SOL    HW2 4828   6.027   3.183   8.842  1.8331  0.4486  1.6686
  796SOL     OW 4829   7.204   7.983   7.568 -0.3183 -0.5482  0.1849
  796SOL    HW1 4830   7.176   7.957   7.481 -1.1147  0.0238  0.2647
  796SOL    HW2 4831   7.125   7.981   7.622 -0.3757  1.5961  0.2903
  797SOL     OW 4832   9.794   2.676   2.524  0.2105 -0.7586 -0.6400
  797SOL    HW1 4833   9.710   2.663   2.481 -0.1424  0.1886 -0.2610
  797SOL    HW2 4834   9.815   2.768   2.509  0.2207 -0.4806  0.9297
  798SOL     OW 4835   5.891   9.376   5.910 -0.3281  0.1571  0.1390
  798SOL    HW1 4836   5.941   9.296   5.894 -3.6775 -1.6204 -2.8124
  798SOL    HW2 4837   5.908   9.397   6.002  2.1201 -2.8380  0.5302
  799SOL     OW 4838   2.106  10.442   7.538  0.0215 -0.4282 -0.1236
  799SOL    HW1 4839   2.106  10.351   7.566  0.5067 -0.6101 -0.6927
  799SOL    HW2 4840   2.029  10.481   7.581  0.1995 -0.9281  0.6575
  800SOL     OW 4841   1.350   3.399   4.585  0.1396 -0.3284 -0.2535
  800SOL    HW1 4842   1.283   3.447   4.633  1.2422  1.5761 -0.5196
  800SOL    HW2 4843   1.317   3.393   4.495 -0.4654 -1.0270  0.0058
  801SOL     OW 4844  10.082   1.041   6.781 -0.3358  0.5127 -0.0889
  801SOL    HW1 4845  10.019   0.972   6.804 -0.3127  0.8241  0.9621
  801SOL    HW2 4846  10.130   1.005   6.706 -2.1425  0.5101 -1.3119
  802SOL     OW 4847   8.987   7.379   0.584 -0.1297  0.5318 -0.6226
  802SOL    HW1 4848   8.942   7.345   0.661  0.1266  0.2531 -0.5909
  802SOL    HW2 4849   8.999   7.472   0.601  1.8341  0.1126  0.6530
  803SOL     OW 4850   2.889   2.489   9.528 -0.0377 -0.2143 -0.0317
  803SOL    HW1 4851   2.924   2.559   9.584 -0.9930  1.5140 -1.4801
  803SOL    HW2 4852   2.933   2.502   9.444 -2.0400  0.2842 -1.0753
  804SOL     OW 4853   2.680   2.748   7.799 -0.2850 -0.1840 -0.0489
  804SOL    HW1 4854   2.656   2.658   7.779  1.3809 -0.1882 -2.2833
  804SOL    HW2 4855   2.614   2.801   7.755 -0.2744 -0.2968 -0.2012
  805SOL     OW 4856   3.447   9.117   2.139  0.5721 -0.8015  0.0024
  805SOL    HW1 4857   3.423   9.154   2.054  1.3116  0.2620  0.2389
  805SOL    HW2 4858   3.367   9.124   2.191  0.7641  0.7289  0.1165
  806SOL     OW 4859   3.527   5.286   9.236 -0.3793 -0.4542 -0.3273
  806SOL    HW1 4860   3.615   5.255   9.258 -0.5931  0.0118  1.2870
  806SOL    HW2 4861   3.514   5.362   9.292 -1.5876 -0.1480 -0.9953
  807SOL     OW 4862   7.103   6.974   7.975  0.0468  0.3047  0.1057
  807SOL    HW1 4863   7.146   7.053   8.006 -3.1212  2.3251 -0.2144
  807SOL    HW2 4864   7.046   6.948   8.048 -0.5093 -0.4111 -0.5637
  808SOL     OW 4865   2.494   1.448   0.152  0.0750 -0.6231 -0.3273
  808SOL    HW1 4866   2.402   1.421   0.152 -0.3370  0.7164 -0.0065
  808SOL    HW2 4867   2.541   1.371   0.121 -1.1484 -1.3402 -0.4826
  809SOL     OW 4868   7.715   9.432   8.127 -0.3183  0.3513 -0.2204
  809SOL    HW1 4869   7.781   9.402   8.189  0.6290  2.5941 -0.0494
  809SOL    HW2 4870   7.633   9.390   8.156  0.4786 -0.2306  1.2937
  810SOL     OW 4871   7.018   5.195   9.424 -0.0126 -0.3349  0.3247
  810SOL    HW1 4872   7.005   5.289   9.440 -1.2634 -0.4043 -0.1019
  810SOL    HW2 4873   7.052   5.191   9.335  2.0518 -0.2087  1.0561
  811SOL     OW 4874   5.074   0.211   2.766 -0.6427  0.0847  0.1942
  811SOL    HW1 4875   5.000   0.167   2.808 -1.3302 -0.3838 -1.4500
  811SOL    HW2 4876   5.105   0.148   2.701  2.5029 -0.5721  2.1077
  812SOL     OW 4877   5.872   4.666   6.770 -0.0752  0.2343  0.4002
  812SOL    HW1 4878   5.904   4.603   6.706  2.3937  0.1275  1.6063
  812SOL    HW2 4879   5.826   4.613   6.835  0.8072 -0.1763  0.7037
  813SOL     OW 4880  10.136   8.303   8.802  0.3302 -0.2071 -0.5238
  813SOL    HW1 4881  10.103   8.215   8.818  0.6390 -0.0709  1.0636
  813SOL    HW2 4882  10.179   8.298   8.716  0.0946 -1.5178 -0.5839
  814SOL     OW 4883   5.445   9.146   0.645  0.3020 -0.1630  0.1329
  814SOL    HW1 4884   5.514   9.103   0.594  0.8723 -0.0320  0.7811
  814SOL    HW2 4885   5.436   9.091   0.723 -1.2205 -0.8937 -0.5191
  815SOL     OW 4886   1.091   3.626   9.259  0.2305 -0.2702 -0.2337
  815SOL    HW1 4887   1.022   3.688   9.281 -1.1349 -1.7743 -0.0827
  815SOL    HW2 4888   1.172   3.667   9.289 -0.6227  1.4033 -0.1476
  816SOL     OW 4889   3.014   1.117   5.567 -0.0165  0.1675  0.0370
  816SOL    HW1 4890   3.101   1.101   5.530  0.1081 -0.1600  0.4585
  816SOL    HW2 4891   2.955   1.062   5.516 -0.0807  0.8585 -0.6634
  817SOL     OW 4892   4.565   5.251   3.751  0.0418  0.0061 -0.2161
  817SOL    HW1 4893   4.629   5.203   3.698  0.6697  1.4154 -0.7770
  817SOL    HW2 4894   4.532   5.186   3.813  1.6736 -0.8704 -0.2153
  818SOL     OW 4895   4.567   9.638   2.822  0.8404 -0.3210  0.0946
  818SOL    HW1 4896   4.584   9.691   2.900 -1.2048 -1.1703  1.2063
  818SOL    HW2 4897   4.652   9.632   2.778  1.3942  2.8899  0.4744
  819SOL     OW 4898   7.419   8.327   2.341 -0.4883  0.0721 -0.1302
  819SOL    HW1 4899   7.484   8.263   2.312  0.3357  1.7087 -2.1271
  819SOL    HW2 4900   7.443   8.347   2.432 -0.0995 -1.5669  0.1603
  820SOL     OW 4901   6.093   8.660   4.020 -0.7290  0.1003 -0.4486
  820SOL    HW1 4902   6.099   8.702   3.934  0.9183  0.4741 -0.1716
  820SOL    HW2 4903   6.113   8.568   4.003 -2.7204 -0.3276 -0.7913
  821SOL     OW 4904   9.927   8.131  10.358  0.1554  0.3152  0.2409
  821SOL    HW1 4905   9.947   8.097  10.445 -0.8378  1.0095  0.7495
  821SOL    HW2 4906   9.925   8.053  10.302 -0.2151 -0.2601  1.0365
  822SOL     OW 4907   4.383   6.727   2.664 -0.6085  0.0294  0.1406
  822SOL    HW1 4908   4.472   6.752   2.689 -0.4061 -0.1613 -0.3660
  822SOL    HW2 4909   4.355   6.666   2.732 -0.6788  0.7379  0.7669
  823SOL     OW 4910   1.282   0.790   4.650 -0.2670 -0.4313  0.1149
  823SOL    HW1 4911   1.216   0.721   4.645 -0.5625 -0.1606  0.2402
  823SOL    HW2 4912   1.324   0.777   4.735 -1.2763  0.3922  0.7646
  824SOL     OW 4913   3.259   9.407   3.376 -0.7585  0.0760 -0.6043
  824SOL    HW1 4914   3.295   9.319   3.376 -0.6720  0.1011 -1.4964
  824SOL    HW2 4915   3.169   9.397   3.409 -0.9878 -0.4572 -1.3625
  825SOL     OW 4916   8.952   3.188   3.677 -0.0476 -0.5358 -0.0943
  825SOL    HW1 4917   8.926   3.260   3.620 -0.4084  0.1394  0.8895
  825SOL    HW2 4918   8.949   3.110   3.621 -1.2185 -0.0251 -0.7789
  826SOL     OW 4919   7.207  10.440   3.536 -0.0006 -0.2272  0.5532
  826SOL    HW1 4920   7.132  10.496   3.552  0.6385  0.5378  0.9249
  826SOL    HW2 4921   7.184  10.391   3.457 -0.6839  0.3521  0.3881
  827SOL     OW 4922   7.350   4.599   4.946  0.4146 -0.1966 -0.9252
  827SOL    HW1 4923   7.259   4.569   4.940 -0.1770  1.4558 -0.6392
  827SOL    HW2 4924   7.344   4.691   4.972  2.2048 -0.3937  0.4443
  828SOL     OW 4925   9.335   6.953   0.862 -0.1954  0.1304  0.1171
  828SOL    HW1 4926   9.277   6.880   0.839 -1.3318  1.0471 -0.0271
  828SOL    HW2 4927   9.276   7.021   0.894  1.0359  0.1397  2.5898
  829SOL     OW 4928   7.355   6.020   2.630  0.0028 -0.2162 -0.2677
  829SOL    HW1 4929   7.267   5.984   2.643  0.1276 -0.4066  0.0653
  829SOL    HW2 4930   7.414   5.948   2.652  0.2712  0.4327  1.3016
  830SOL     OW 4931   2.331   8.951   0.484 -0.6868  0.0359  0.1832
  830SOL    HW1 4932   2.252   8.975   0.532  0.4910  0.0571  2.2262
  830SOL    HW2 4933   2.388   8.911   0.550  0.7191 -0.6662 -1.3829
  831SOL     OW 4934   4.057   0.828   6.073 -0.2372 -1.1002 -0.2376
  831SOL    HW1 4935   3.963   0.811   6.063 -0.3419 -0.4207 -0.4214
  831SOL    HW2 4936   4.063   0.920   6.096  0.4034 -1.0647 -0.5198
  832SOL     OW 4937   8.665   1.384   7.244 -0.6858 -0.1114 -0.3384
  832SOL    HW1 4938   8.712   1.462   7.274 -1.8699  0.5418 -0.1034
  832SOL    HW2 4939   8.589   1.419   7.197 -0.1040 -1.1285 -2.1243
  833SOL     OW 4940   5.635   8.725   6.626 -0.0508  0.4973 -0.1206
  833SOL    HW1 4941   5.651   8.646   6.678 -0.9142  0.1197 -0.4153
  833SOL    HW2 4942   5.694   8.717   6.551  0.6084  0.6477  0.3630
  834SOL     OW 4943   9.514   9.940   2.864  0.3335 -0.1612 -0.2842
  834SOL    HW1 4944   9.603   9.909   2.881 -0.1661 -0.4055  2.2638
  834SOL    HW2 4945   9.459   9.887   2.922 -1.4555  0.1493 -1.6479
  835SOL     OW 4946   6.641   0.770   5.040 -0.0677  0.5716  0.2711
  835SOL    HW1 4947   6.706   0.746   4.974 -0.8335 -0.7791 -0.0187
  835SOL    HW2 4948   6.694   0.787   5.119  0.6576 -0.8188  0.1351
  836SOL     OW 4949   8.749   3.853   3.936 -0.0829 -0.3524 -0.0891
  836SOL    HW1 4950   8.755   3.936   3.984 -0.4622 -1.0886  1.2898
  836SOL    HW2 4951   8.710   3.877   3.852 -1.9055  0.6234  0.9762
  837SOL     OW 4952   6.825   0.214   5.517 -0.3064  0.0427  0.3485
  837SOL    HW1 4953   6.786   0.140   5.564  0.0803 -0.3072  0.1250
  837SOL    HW2 4954   6.825   0.285   5.581 -0.1423 -0.3154  0.7540
  838SOL     OW 4955   9.555   1.784   9.649  0.3338 -0.4513  0.0652
  838SOL    HW1 4956   9.507   1.828   9.578  2.4533  0.7653 -0.6988
  838SOL    HW2 4957   9.491   1.724   9.687 -1.3469  0.0093 -1.8459
  839SOL     OW 4958   3.807   2.393   7.064  0.8663 -0.0898 -0.3940
  839SOL    HW1 4959   3.888   2.420   7.107  0.5355  0.3909 -0.0637
  839SOL    HW2 4960   3.835   2.363   6.978  1.3449  0.4470 -0.4297
  840SOL     OW 4961   9.588   7.951   0.520  0.1974  0.2284 -0.3552
  840SOL    HW1 4962   9.512   7.951   0.461 -0.2496 -0.5952  0.2074
  840SOL    HW2 4963   9.664   7.952   0.461 -0.2446 -0.8645 -0.9682
  841SOL     OW 4964   4.455   5.807   0.460  0.1285  0.9085  0.2678
  841SOL    HW1 4965   4.375   5.766   0.427  0.1672 -0.0976  1.3632
  841SOL    HW2 4966   4.435   5.831   0.550  0.8495  1.2416  0.3475
  842SOL     OW 4967   3.246   2.289   5.339 -0.2278  0.4622  0.7526
  842SOL    HW1 4968   3.178   2.259   5.278 -0.1786  0.7586  0.5469
  842SOL    HW2 4969   3.219   2.254   5.424 -0.6581  0.5996  0.6771
  843SOL     OW 4970   6.419   0.385   2.967 -0.3526  0.4404 -0.0918
  843SOL    HW1 4971   6.350   0.441   3.002  0.2679  0.8517  0.4975
  843SOL    HW2 4972   6.406   0.388   2.872 -0.2368  1.7309 -0.0902
  844SOL     OW 4973   0.900   4.833   3.527 -0.2628 -0.1751 -0.9788
  844SOL    HW1 4974   0.894   4.758   3.468  1.5584 -1.7296  0.6462
  844SOL    HW2 4975   0.854   4.806   3.606  0.8961  0.1423 -0.1540
  845SOL     OW 4976   1.188  10.123   9.407  0.0657  0.2038  0.0264
  845SOL    HW1 4977   1.132  10.200   9.394 -1.5516 -1.3203 -3.5685
  845SOL    HW2 4978   1.176  10.072   9.327  2.3357 -3.0228  1.5410
  846SOL     OW 4979   4.218   6.797   2.087 -0.3193  0.1011  0.5303
  846SOL    HW1 4980   4.215   6.877   2.033 -1.2757 -0.9536 -1.0795
  846SOL    HW2 4981   4.141   6.803   2.144 -0.0602  0.5948  0.8327
  847SOL     OW 4982   4.920   9.514   1.841  0.1779  0.9197 -0.2111
  847SOL    HW1 4983   4.828   9.487   1.838  0.0754  1.2207 -3.3246
  847SOL    HW2 4984   4.968   9.434   1.864 -0.6958  0.0908 -1.1897
  848SOL     OW 4985   2.010   0.608   3.574  0.1890 -0.2060  0.2415
  848SOL    HW1 4986   1.998   0.545   3.646  0.6132 -0.2923  0.2411
  848SOL    HW2 4987   2.006   0.555   3.495 -0.2087 -0.1208  0.2024
  849SOL     OW 4988   5.249   7.948   2.383  0.7719  0.2363  0.0838
  849SOL    HW1 4989   5.334   7.989   2.370  1.3756 -0.4086  1.7974
  849SOL    HW2 4990   5.201   8.009   2.438  0.2544  0.3993 -0.5301
  850SOL     OW 4991   3.024   0.317   5.504  0.0420  0.0444 -0.2728
  850SOL    HW1 4992   3.089   0.254   5.471  0.4931 -0.1941  1.0271
  850SOL    HW2 4993   3.076   0.394   5.527 -0.3624  0.4688 -0.7606
  851SOL     OW 4994   1.008   9.876   4.287 -0.1785  0.2442  0.5189
  851SOL    HW1 4995   1.032   9.900   4.376 -0.8837 -2.9407  1.6885
  851SOL    HW2 4996   0.940   9.939   4.263  0.8416  1.8785  1.7426
  852SOL     OW 4997   8.952   0.838   0.098  0.5741 -0.2844  0.3500
  852SOL    HW1 4998   8.944   0.743   0.105 -0.6023 -0.4331 -2.0241
  852SOL    HW2 4999   9.037   0.852   0.056  0.7813 -0.2699  0.7686
  853SOL     OW 5000   2.910   3.643   9.095 -0.7261 -0.7721 -0.1745
  853SOL    HW1 5001   2.886   3.568   9.041 -0.3614 -0.0442 -1.3757
  853SOL    HW2 5002   2.994   3.672   9.060 -0.6057 -0.1318  0.6228
  854SOL     OW 5003   2.908   2.952  10.101 -0.2847  0.2118  0.2299
  854SOL    HW1 5004   2.963   3.006  10.157  0.6283 -0.5071  0.0515
  854SOL    HW2 5005   2.950   2.954  10.015 -0.5833 -0.2746  0.0651
  855SOL     OW 5006   4.204   0.085   1.072 -0.5222  0.2215  0.0412
  855SOL    HW1 5007   4.180   0.171   1.107 -0.1626  1.1487 -1.8748
  855SOL    HW2 5008   4.134   0.064   1.010 -0.3198 -0.6254  0.0851
  856SOL     OW 5009   2.829   1.975   4.328 -0.5338 -0.4624 -0.3739
  856SOL    HW1 5010   2.759   1.939   4.382 -0.0926 -1.1421 -0.2481
  856SOL    HW2 5011   2.822   2.070   4.339 -1.5454 -0.5134 -0.5104
  857SOL     OW 5012   2.843   0.016   2.484  0.4988  0.3371 -0.1393
  857SOL    HW1 5013   2.815  -0.036   2.408 -1.0790  0.1299  0.5412
  857SOL    HW2 5014   2.866  -0.048   2.551 -0.1474  0.5023  0.2513
  858SOL     OW 5015   5.578   5.327   1.049  0.3618 -0.6828  0.4445
  858SOL    HW1 5016   5.635   5.395   1.086 -0.7975  0.6765 -0.1807
  858SOL    HW2 5017   5.500   5.375   1.020  0.2811 -2.0044 -1.7108
  859SOL     OW 5018   7.885   2.227   9.319 -0.1457  0.2748  0.5089
  859SOL    HW1 5019   7.803   2.182   9.340 -0.8592  1.1357 -0.3911
  859SOL    HW2 5020   7.883   2.238   9.224  1.1543  0.0580  0.4428
  860SOL     OW 5021   0.194   5.012   8.722  0.1522 -0.2996 -0.2762
  860SOL    HW1 5022   0.182   5.093   8.673 -1.7933 -0.6093 -0.3947
  860SOL    HW2 5023   0.166   5.033   8.811  0.4937 -0.6259 -0.0839
  861SOL     OW 5024   5.374   7.510   2.864 -0.3392 -0.0131  0.4555
  861SOL    HW1 5025   5.282   7.529   2.879 -0.7006 -0.4748 -0.9754
  861SOL    HW2 5026   5.405   7.473   2.946 -1.3598  0.3875  1.0384
  862SOL     OW 5027   2.191   3.024   6.054  0.6591 -0.6887  0.2268
  862SOL    HW1 5028   2.200   3.119   6.052  1.5431 -0.7746 -0.9029
  862SOL    HW2 5029   2.132   3.004   5.981  2.2327 -1.1348 -0.9896
  863SOL     OW 5030   7.787   0.524  10.109 -0.1581  0.3676  0.1723
  863SOL    HW1 5031   7.847   0.485  10.172 -0.6654  0.2475  0.5906
  863SOL    HW2 5032   7.704   0.532  10.156 -0.9560 -1.0500 -0.8966
  864SOL     OW 5033   7.482   4.261   5.941  0.0170  0.5299 -0.1943
  864SOL    HW1 5034   7.505   4.206   6.016 -0.4951 -0.7924 -0.9579
  864SOL    HW2 5035   7.558   4.255   5.883 -0.6744 -0.7608 -1.0181
  865SOL     OW 5036   3.725   8.957   2.900 -0.0383 -0.2356 -0.2567
  865SOL    HW1 5037   3.813   8.941   2.868  0.2803  0.2382  0.3623
  865SOL    HW2 5038   3.719   9.052   2.909 -1.0721 -0.1438 -1.5506
  866SOL     OW 5039   2.786   4.809   4.206 -0.6752  0.3113  0.2461
  866SOL    HW1 5040   2.702   4.847   4.182 -0.4798  0.2261 -0.6073
  866SOL    HW2 5041   2.795   4.732   4.150 -0.5874 -0.4001  1.2109
  867SOL     OW 5042   1.832  10.410   8.291  0.5628 -0.1276 -0.0364
  867SOL    HW1 5043   1.827  10.487   8.347  0.3619 -0.2309  0.0911
  867SOL    HW2 5044   1.894  10.433   8.222 -1.9763  1.4522 -2.0017
  868SOL     OW 5045   2.822   8.485   2.588  0.3633  0.1541  0.7463
  868SOL    HW1 5046   2.894   8.428   2.614  2.0605  1.8976  0.1376
  868SOL    HW2 5047   2.779   8.510   2.670  0.4032 -0.9455  1.1138
  869SOL     OW 5048   5.400   3.302   1.153  0.6331  0.1891 -0.0845
  869SOL    HW1 5049   5.451   3.381   1.141  2.2988 -0.6673  0.9690
  869SOL    HW2 5050   5.444   3.255   1.224 -2.0462 -0.2697  1.4447
  870SOL     OW 5051   6.319   0.021   9.664  0.5594 -0.0310  0.2694
  870SOL    HW1 5052   6.273   0.023   9.748 -1.1033 -1.5561 -0.5327
  870SOL    HW2 5053   6.325  -0.072   9.642 -1.1115  0.3866 -2.3371
  871SOL     OW 5054   0.315   2.154   8.132 -0.5200  0.1223 -0.0183
  871SOL    HW1 5055   0.377   2.082   8.131  0.9614  1.3480 -1.2111
  871SOL    HW2 5056   0.339   2.207   8.056 -1.1011  2.2466  1.2156
  872SOL     OW 5057   0.601   9.287   3.995  0.8467 -0.3786  0.2651
  872SOL    HW1 5058   0.557   9.261   4.076  0.9259 -0.3005  0.3330
  872SOL    HW2 5059   0.669   9.347   4.024  0.1980  0.4792  0.0336
  873SOL     OW 5060   3.574   5.535   5.343  0.0431  0.0091 -0.1409
  873SOL    HW1 5061   3.591   5.474   5.415 -1.6121 -1.4040 -0.9010
  873SOL    HW2 5062   3.478   5.541   5.339  0.0670 -0.3364 -2.5288
  874SOL     OW 5063   0.237   4.284   5.391  0.1812  0.1739 -0.3759
  874SOL    HW1 5064   0.227   4.189   5.386  0.1963  0.2189 -1.6176
  874SOL    HW2 5065   0.160   4.319   5.347  0.6172  0.7180 -0.7210
  875SOL     OW 5066   8.149   1.349   3.938 -0.7485  0.4708 -0.5938
  875SOL    HW1 5067   8.155   1.433   3.985 -1.1439  1.6239 -2.4881
  875SOL    HW2 5068   8.193   1.286   3.995  0.4223  2.1670  0.4662
  876SOL     OW 5069   8.990   6.468   6.129  0.0101  0.4629  0.1365
  876SOL    HW1 5070   9.075   6.509   6.142 -0.2024  1.0295 -0.1976
  876SOL    HW2 5071   8.963   6.440   6.216  0.3434  0.6743  0.3113
  877SOL     OW 5072  10.226   7.401   2.027 -0.2157 -0.1933  0.4650
  877SOL    HW1 5073  10.316   7.420   2.053  0.0690  0.5802 -0.9604
  877SOL    HW2 5074  10.183   7.486   2.023 -0.4729 -0.3636 -0.6865
  878SOL     OW 5075   6.129   1.818  10.343  0.5622 -0.0452 -0.1437
  878SOL    HW1 5076   6.083   1.737  10.364 -1.0557  0.4918 -1.4049
  878SOL    HW2 5077   6.079   1.856  10.270  1.9629  1.4965 -0.3628
  879SOL     OW 5078   0.789   3.769   7.656 -0.7954  0.1610  0.4246
  879SOL    HW1 5079   0.743   3.686   7.664 -0.5696  0.0495  0.5785
  879SOL    HW2 5080   0.732   3.833   7.699 -0.7636  0.0105  0.6871
  880SOL     OW 5081   0.308   6.795   1.219 -0.2372  0.1160  0.4554
  880SOL    HW1 5082   0.236   6.736   1.197  0.6149 -1.6074  1.9924
  880SOL    HW2 5083   0.272   6.853   1.286 -1.3310  1.9996 -1.6625
  881SOL     OW 5084   5.849   1.140   3.538 -0.5953 -0.3343  0.0299
  881SOL    HW1 5085   5.765   1.109   3.571 -1.2920 -0.3507 -1.6183
  881SOL    HW2 5086   5.871   1.214   3.594 -1.4444 -0.6730  0.8327
  882SOL     OW 5087   7.137   5.402   0.097 -0.2073 -0.4676  0.0227
  882SOL    HW1 5088   7.104   5.346   0.168 -1.9557 -1.0673 -1.1815
  882SOL    HW2 5089   7.086   5.482   0.106  0.3756 -0.1060  0.1157
  883SOL     OW 5090   3.690   6.599   4.525 -0.1360  0.3069  0.2092
  883SOL    HW1 5091   3.686   6.681   4.476 -1.1638 -0.2364 -0.6498
  883SOL    HW2 5092   3.603   6.587   4.562  0.1162 -0.2007  0.6746
  884SOL     OW 5093   7.753   0.509   3.803 -0.6145  0.1028  0.0684
  884SOL    HW1 5094   7.780   0.527   3.713  0.4314  1.8814  0.7071
  884SOL    HW2 5095   7.828   0.463   3.842 -0.2491  1.1248  0.5897
  885SOL     OW 5096   9.676   5.311   9.697 -0.3827 -0.0629  0.1464
  885SOL    HW1 5097   9.581   5.295   9.699 -0.6059  1.1973  0.6621
  885SOL    HW2 5098   9.684   5.402   9.668  0.7440 -0.5539 -1.1605
  886SOL     OW 5099   2.613  10.080   7.490 -0.0434 -0.4945  0.0454
  886SOL    HW1 5100   2.601  10.017   7.419  1.0938 -0.5852 -0.0800
  886SOL    HW2 5101   2.588  10.164   7.453  0.1965 -0.5974 -0.3500
  887SOL     OW 5102   5.659   3.174   6.697  0.0968  0.0165  0.0955
  887SOL    HW1 5103   5.720   3.197   6.767 -2.8626  1.4548  2.4045
  887SOL    HW2 5104   5.635   3.257   6.657 -1.5308 -0.2786  0.3726
  888SOL     OW 5105   9.795   0.050   9.459  0.6458 -0.9171 -0.0804
  888SOL    HW1 5106   9.731   0.001   9.406 -1.6322  2.0286 -0.3488
  888SOL    HW2 5107   9.792   0.138   9.423  0.8740  0.6434  3.3498
  889SOL     OW 5108   6.066  10.049   6.108 -0.5216 -0.2904  0.5220
  889SOL    HW1 5109   6.047  10.141   6.129  1.2088  0.3888 -0.6672
  889SOL    HW2 5110   6.060  10.044   6.013 -0.3678 -1.3670  0.5535
  890SOL     OW 5111   7.834   4.181   3.327 -0.4718  0.2031 -0.3554
  890SOL    HW1 5112   7.896   4.152   3.395 -1.8777  0.1848  0.9519
  890SOL    HW2 5113   7.836   4.110   3.263  1.1102  0.3586 -0.5279
  891SOL     OW 5114   3.874   0.598   2.567  0.0503  0.3629 -0.2668
  891SOL    HW1 5115   3.810   0.643   2.622 -0.7441 -1.9650  0.8431
  891SOL    HW2 5116   3.925   0.545   2.629  0.1239 -1.1870 -1.5963
  892SOL     OW 5117   3.468   4.571   1.195 -0.8040  0.2997  0.5373
  892SOL    HW1 5118   3.520   4.622   1.133 -1.4670  0.9263  0.4835
  892SOL    HW2 5119   3.412   4.516   1.141  1.4706 -2.2777  0.5303
  893SOL     OW 5120   8.273   2.301   8.302  0.6943  0.1962  0.1760
  893SOL    HW1 5121   8.197   2.261   8.345  0.5668  0.5219  0.2593
  893SOL    HW2 5122   8.338   2.231   8.298 -0.0114 -0.4168 -0.9372
  894SOL     OW 5123   8.446   4.252   8.353 -0.2449 -0.0695  0.2048
  894SOL    HW1 5124   8.411   4.314   8.288  0.9989  1.8129  1.2542
  894SOL    HW2 5125   8.441   4.299   8.436  2.4379 -0.6215  0.7650
  895SOL     OW 5126   2.561   4.150   6.037 -0.3782  0.1038  0.3399
  895SOL    HW1 5127   2.546   4.099   5.957  0.8733  2.1067 -1.3100
  895SOL    HW2 5128   2.473   4.172   6.068 -0.9362  0.1498 -1.1478
  896SOL     OW 5129   8.732   9.752   7.613  0.3130  0.2909 -0.0310
  896SOL    HW1 5130   8.749   9.799   7.532 -2.9295 -0.3347 -1.2283
  896SOL    HW2 5131   8.677   9.812   7.665  0.3676 -0.2355  0.6520
  897SOL     OW 5132   6.368   3.075   3.569  0.1126 -0.1121 -0.5303
  897SOL    HW1 5133   6.453   3.101   3.535  0.4004 -0.7192 -0.2891
  897SOL    HW2 5134   6.348   3.140   3.637  0.4730 -0.0818 -0.4519
  898SOL     OW 5135   5.937  10.191   8.782 -0.7885 -0.2513 -0.0829
  898SOL    HW1 5136   5.972  10.260   8.838 -0.8428 -0.7598  0.5907
  898SOL    HW2 5137   5.847  10.220   8.763 -0.5149  0.3040 -0.5554
  899SOL     OW 5138   2.378   7.065   1.457 -0.2137  0.2042  0.3311
  899SOL    HW1 5139   2.416   7.137   1.406 -1.2519  1.0248  0.6837
  899SOL    HW2 5140   2.341   7.107   1.535 -0.4501 -0.7678  0.7607
  900SOL     OW 5141   9.813   9.128   8.013  0.2533 -0.0321 -0.3225
  900SOL    HW1 5142   9.735   9.113   7.959 -0.3134 -0.5987  0.6267
  900SOL    HW2 5143   9.876   9.063   7.983 -0.2393 -0.6875  0.0443
  901SOL     OW 5144   4.562   7.925   3.287 -0.2320  0.2048 -0.0072
  901SOL    HW1 5145   4.583   7.924   3.380 -0.9170  1.7338  0.1909
  901SOL    HW2 5146   4.551   8.017   3.265 -0.1387 -0.1208 -1.6037
  902SOL     OW 5147   2.538   2.255   2.431  0.7000  0.0008 -0.1137
  902SOL    HW1 5148   2.558   2.320   2.364 -2.2351 -1.8149 -3.0621
  902SOL    HW2 5149   2.623   2.230   2.468  2.5696  0.6733 -3.5959
  903SOL     OW 5150   1.218  10.286   5.736  0.4087 -0.8882 -0.1088
  903SOL    HW1 5151   1.297  10.338   5.751 -0.9512  0.9972  1.0749
  903SOL    HW2 5152   1.181  10.320   5.655 -0.3168 -0.1859  0.4988
  904SOL     OW 5153   6.217   3.492   9.510 -0.0967  0.4086  0.0658
  904SOL    HW1 5154   6.192   3.404   9.539 -1.2217  0.2000 -1.4581
  904SOL    HW2 5155   6.201   3.548   9.587 -0.1417 -0.5722  0.7879
  905SOL     OW 5156   7.777   2.666   1.051 -0.2024  0.2766  0.0850
  905SOL    HW1 5157   7.717   2.708   0.989 -1.2871  1.7882  2.0534
  905SOL    HW2 5158   7.803   2.736   1.111  0.5139 -1.1904  1.5668
  906SOL     OW 5159   5.051   4.951   4.613 -0.3655 -0.5227 -0.0249
  906SOL    HW1 5160   5.103   5.031   4.620  2.5571 -2.4078  2.9921
  906SOL    HW2 5161   5.041   4.921   4.703 -0.6705 -3.9121 -1.0422
  907SOL     OW 5162   6.252   8.906   4.140  0.1681 -0.6003  0.3366
  907SOL    HW1 5163   6.240   8.816   4.110 -0.1979 -0.0846 -1.1807
  907SOL    HW2 5164   6.196   8.913   4.217 -3.0794 -0.6108 -1.8109
  908SOL     OW 5165   6.739   0.920   8.278 -0.1463 -0.4400  0.0811
  908SOL    HW1 5166   6.710   0.852   8.217  0.7925 -0.7015 -0.0943
  908SOL    HW2 5167   6.828   0.941   8.249 -0.4009  0.8312  0.1627
  909SOL     OW 5168   0.395   8.137   3.344 -0.2689 -0.3600  0.3689
  909SOL    HW1 5169   0.475   8.085   3.349  1.0489  1.5160  0.0422
  909SOL    HW2 5170   0.410   8.212   3.402 -1.6994  0.1703  0.1187
  910SOL     OW 5171   0.471  10.425   3.017  0.2323  0.5926 -0.0171
  910SOL    HW1 5172   0.467  10.501   2.958 -5.1852 -0.9870 -2.2714
  910SOL    HW2 5173   0.412  10.448   3.089 -0.2286 -0.8667  0.0895
  911SOL     OW 5174   0.959   2.365   9.663  0.1281 -0.6634 -0.5128
  911SOL    HW1 5175   0.883   2.309   9.645 -0.5037 -0.0494  0.1844
  911SOL    HW2 5176   0.935   2.450   9.625  1.6801 -1.1978 -2.8865
  912SOL     OW 5177   3.108   3.623   9.532  0.0912 -0.1654  0.1437
  912SOL    HW1 5178   3.057   3.704   9.541 -0.8723 -0.4577 -1.9854
  912SOL    HW2 5179   3.171   3.642   9.462  0.0233 -1.1450 -0.2010
  913SOL     OW 5180   0.130   6.231   1.780 -0.5737 -0.0780 -0.2642
  913SOL    HW1 5181   0.133   6.149   1.831  2.0078 -1.2949 -2.1465
  913SOL    HW2 5182   0.180   6.293   1.832 -0.4115 -0.4350  0.0099
  914SOL     OW 5183   4.128   0.921   4.904 -0.2185  0.0427 -0.0835
  914SOL    HW1 5184   4.050   0.879   4.940 -0.0864 -1.5005 -1.4715
  914SOL    HW2 5185   4.193   0.850   4.898  0.4881  0.7522 -1.2167
  915SOL     OW 5186   7.052   4.819   5.274 -0.2458 -0.4345  0.2482
  915SOL    HW1 5187   7.034   4.908   5.304 -0.3526 -0.6109  0.7150
  915SOL    HW2 5188   7.012   4.815   5.187  0.0924  0.0908  0.0652
  916SOL     OW 5189   0.577   0.518   8.882 -0.9540 -0.1368  0.1282
  916SOL    HW1 5190   0.505   0.568   8.844 -0.8157 -0.9825 -1.3316
  916SOL    HW2 5191   0.541   0.481   8.962 -1.4604  1.1861  0.5475
  917SOL     OW 5192  10.311   1.507   0.645 -0.0811 -0.0035 -0.3012
  917SOL    HW1 5193  10.326   1.479   0.736  1.0642 -1.2461 -0.8350
  917SOL    HW2 5194  10.264   1.434   0.605 -0.4788  0.4881 -0.7471
  918SOL     OW 5195   8.704   2.355   7.113  0.3352  0.3387  0.1233
  918SOL    HW1 5196   8.676   2.435   7.069 -1.4307  1.0808  2.4114
  918SOL    HW2 5197   8.800   2.358   7.110  0.2889  1.2953 -1.8774
  919SOL     OW 5198   2.249   1.429   4.327  0.1647 -0.6585 -0.0126
  919SOL    HW1 5199   2.228   1.519   4.301  1.6627 -0.3165 -0.1767
  919SOL    HW2 5200   2.322   1.439   4.389 -0.0998 -1.7323  0.5016
  920SOL     OW 5201   5.310   9.400   0.225  0.4485 -0.2427 -0.5451
  920SOL    HW1 5202   5.292   9.306   0.231 -1.5524  0.1607  0.7641
  920SOL    HW2 5203   5.258   9.429   0.151  1.0389 -0.1446 -0.9264
  921SOL     OW 5204   8.375   0.288   2.272 -0.3889 -0.4688  0.8373
  921SOL    HW1 5205   8.294   0.324   2.308 -1.8173 -0.6721 -1.9006
  921SOL    HW2 5206   8.415   0.362   2.225 -0.1722 -0.9073  0.3205
  922SOL     OW 5207   8.870   8.188   7.432 -0.3106 -0.1664 -0.2989
  922SOL    HW1 5208   8.843   8.096   7.436 -0.7172 -0.1705 -2.1605
  922SOL    HW2 5209   8.934   8.190   7.361 -0.0279  0.9403 -0.0294
  923SOL     OW 5210   9.280   7.966   0.688 -0.3043  1.2057  0.1756
  923SOL    HW1 5211   9.319   7.973   0.601 -0.7723  2.2301  0.0380
  923SOL    HW2 5212   9.307   8.046   0.733 -0.0563  0.6837  0.9960
  924SOL     OW 5213   6.196   6.385   0.329  0.0849 -0.7615 -0.2243
  924SOL    HW1 5214   6.186   6.458   0.391  0.6523 -1.5483  0.8186
  924SOL    HW2 5215   6.220   6.311   0.383  3.9565 -0.7671 -1.6803
  925SOL     OW 5216   0.681   1.494   4.591  0.4509 -0.0291  0.2080
  925SOL    HW1 5217   0.734   1.572   4.580  0.1318  0.1162 -0.3744
  925SOL    HW2 5218   0.726   1.426   4.540  0.0540  0.1161 -0.3591
  926SOL     OW 5219   1.750   0.204   4.366  0.6475  0.8897  0.5517
  926SOL    HW1 5220   1.747   0.284   4.314 -2.6176  0.4697 -0.1361
  926SOL    HW2 5221   1.729   0.232   4.455 -3.0149  0.6912 -0.1033
  927SOL     OW 5222   8.738   5.682   4.259 -0.1168  0.0524 -0.3631
  927SOL    HW1 5223   8.799   5.628   4.309 -0.9112 -0.5541 -0.0217
  927SOL    HW2 5224   8.775   5.770   4.262  0.6569 -0.2781 -0.0461
  928SOL     OW 5225   7.531   8.818  10.155  0.0740 -0.2437  0.3242
  928SOL    HW1 5226   7.621   8.822  10.186 -0.2072  1.9775  0.9711
  928SOL    HW2 5227   7.528   8.739  10.100  2.7135  0.2637 -0.6800
  929SOL     OW 5228   3.627   4.576   4.240  0.5366 -0.0390 -0.5646
  929SOL    HW1 5229   3.715   4.565   4.206  0.3329 -1.4817 -0.6903
  929SOL    HW2 5230   3.620   4.511   4.311 -0.4357  0.0125 -0.5935
  930SOL     OW 5231   5.736   5.119   7.161  0.3441  0.5363  0.3845
  930SOL    HW1 5232   5.680   5.052   7.201  0.2553  0.3907  0.0231
  930SOL    HW2 5233   5.825   5.093   7.185  0.3670 -0.1450 -0.3752
  931SOL     OW 5234   4.985   4.966   8.060  0.2093 -0.6339 -0.4869
  931SOL    HW1 5235   5.027   4.886   8.029  1.1560 -0.1079 -0.5913
  931SOL    HW2 5236   4.943   5.003   7.982  1.1857 -0.1710 -0.8023
  932SOL     OW 5237   4.310   5.964   3.619  0.1021  0.1575 -0.2325
  932SOL    HW1 5238   4.377   6.026   3.590  0.4591  0.6334  1.4669
  932SOL    HW2 5239   4.314   5.893   3.556  2.2861  0.1422 -0.1578
  933SOL     OW 5240   2.966  10.364   2.700 -0.0616  0.4128  0.2382
  933SOL    HW1 5241   2.946  10.277   2.664  1.0488 -1.0209  2.8642
  933SOL    HW2 5242   3.059  10.375   2.685 -0.3677  1.6524 -0.9502
  934SOL     OW 5243   2.678   6.986   0.760  0.5116  0.4575 -0.1657
  934SOL    HW1 5244   2.716   6.910   0.805 -0.3339  0.6915  0.9856
  934SOL    HW2 5245   2.586   6.985   0.786 -0.1699  0.2656 -2.3909
  935SOL     OW 5246   4.379   3.002   1.019 -0.2305  0.3959  0.1586
  935SOL    HW1 5247   4.299   3.036   0.978  0.6276  0.6615 -1.3940
  935SOL    HW2 5248   4.424   2.956   0.948 -0.3219 -2.2386  1.6801
  936SOL     OW 5249  10.355   8.092   0.998 -0.0959  0.7120  0.3927
  936SOL    HW1 5250  10.267   8.121   0.976 -0.1996 -0.0297 -0.2114
  936SOL    HW2 5251  10.344   8.001   1.026  0.5621  0.3793 -0.3966
  937SOL     OW 5252   3.916   9.217   9.343 -0.2969  0.2965 -0.1859
  937SOL    HW1 5253   3.954   9.294   9.301  0.4645  0.7470  1.2650
  937SOL    HW2 5254   3.822   9.234   9.344 -0.5140 -0.3279 -2.8239
  938SOL     OW 5255   4.506   9.846   1.398  0.0811 -0.8047  0.2429
  938SOL    HW1 5256   4.464   9.832   1.483 -1.2345  1.8560  0.1401
  938SOL    HW2 5257   4.598   9.827   1.413 -0.2334 -1.0555  2.0954
  939SOL     OW 5258   0.143   0.851   5.881 -0.1911 -0.1763  1.0708
  939SOL    HW1 5259   0.087   0.775   5.897  0.8628 -1.3799 -0.6350
  939SOL    HW2 5260   0.082   0.924   5.874 -1.5105 -1.3087  0.0402
  940SOL     OW 5261   9.596   9.379   7.441  0.2614  0.1078  0.0973
  940SOL    HW1 5262   9.675   9.434   7.440 -0.2396  0.8598  0.9466
  940SOL    HW2 5263   9.524   9.440   7.427 -0.1932 -0.5607 -0.5627
  941SOL     OW 5264   8.353   9.780   4.113 -0.0484  0.7382 -0.6269
  941SOL    HW1 5265   8.431   9.812   4.158 -0.1370  1.3237 -0.8790
  941SOL    HW2 5266   8.284   9.783   4.180  0.5033 -1.4334  0.0944
  942SOL     OW 5267   9.956   5.298   4.580 -0.3365 -0.3554 -0.6339
  942SOL    HW1 5268   9.982   5.363   4.645 -1.4366  1.0259 -1.5043
  942SOL    HW2 5269   9.951   5.216   4.628 -0.2019  0.4462  0.7943
  943SOL     OW 5270   3.992   9.099   4.109 -0.3135 -1.1676 -0.6756
  943SOL    HW1 5271   4.005   9.016   4.155 -2.7102 -0.6428  1.1762
  943SOL    HW2 5272   4.072   9.112   4.059  0.5901 -4.0289 -0.1450
  944SOL     OW 5273   3.704   1.158   8.017 -0.3454 -0.4731 -0.5369
  944SOL    HW1 5274   3.780   1.099   8.011 -0.0041 -0.1241  0.1919
  944SOL    HW2 5275   3.645   1.128   7.948  0.3900 -0.8450 -1.0206
  945SOL     OW 5276   4.388   4.747   8.887  0.4850  0.3067  0.4341
  945SOL    HW1 5277   4.295   4.723   8.889  0.2346  0.8015 -2.0077
  945SOL    HW2 5278   4.388   4.841   8.900  0.5175  0.4821 -0.7615
  946SOL     OW 5279   8.567   5.495   9.745  0.4907  0.1900 -0.2411
  946SOL    HW1 5280   8.647   5.520   9.699  0.0489 -0.9036 -1.6749
  946SOL    HW2 5281   8.511   5.573   9.739  0.8665  0.4359 -0.5942
  947SOL     OW 5282   3.395   5.409   3.820  0.4525  0.5162  0.0789
  947SOL    HW1 5283   3.348   5.476   3.770 -2.9632 -1.5661  0.2021
  947SOL    HW2 5284   3.357   5.414   3.908  0.0516 -1.6081  0.0714
  948SOL     OW 5285   6.094   0.003   0.826 -0.0686 -0.1966  0.5497
  948SOL    HW1 5286   6.096   0.096   0.802  0.6117 -0.3213  0.0905
  948SOL    HW2 5287   6.001  -0.018   0.833 -0.3304 -0.0485 -1.6229
  949SOL     OW 5288   9.131   3.330   2.988 -0.8305 -0.1158  0.2520
  949SOL    HW1 5289   9.212   3.322   3.038 -1.4461  0.2113  1.3477
  949SOL    HW2 5290   9.096   3.241   2.986 -0.5820 -0.2095  0.0107
  950SOL     OW 5291   6.685  10.425   0.092 -0.0835 -0.5265  0.0328
  950SOL    HW1 5292   6.590  10.418   0.085 -0.1047 -0.5766  0.3875
  950SOL    HW2 5293   6.714  10.443   0.002 -0.4778  0.0615  0.0139
  951SOL     OW 5294   0.862   0.805   1.145  0.4269  0.2658  0.2503
  951SOL    HW1 5295   0.848   0.763   1.230  0.3998  0.5612  0.3972
  951SOL    HW2 5296   0.948   0.773   1.116  0.4567  0.1976  0.4121
  952SOL     OW 5297   4.282   8.926   2.036 -0.0244 -0.1649 -0.6701
  952SOL    HW1 5298   4.230   8.865   1.984  1.2061 -0.5204 -1.5287
  952SOL    HW2 5299   4.310   8.993   1.974 -2.3479  2.0683  0.4619
  953SOL     OW 5300   3.653   7.194   3.032  0.0025  0.4676  0.0417
  953SOL    HW1 5301   3.567   7.234   3.046 -0.3754 -0.2924 -0.0461
  953SOL    HW2 5302   3.705   7.262   2.991 -0.4784  1.0222  0.3425
  954SOL     OW 5303   5.209   2.083   1.664  0.0732 -1.0213 -0.1007
  954SOL    HW1 5304   5.124   2.127   1.660  0.5167 -0.1214 -3.8903
  954SOL    HW2 5305   5.200   2.009   1.604  1.5646 -1.7549  0.5371
  955SOL     OW 5306   7.422  10.316   2.858 -0.0342  0.1650 -0.1439
  955SOL    HW1 5307   7.425  10.383   2.927  0.5251  1.0430 -0.9914
  955SOL    HW2 5308   7.446  10.363   2.778 -0.7680 -0.8120 -0.9633
  956SOL     OW 5309   7.219   0.140   3.120  0.1927  0.2388  0.0920
  956SOL    HW1 5310   7.308   0.135   3.087  0.2838  0.3250  0.3266
  956SOL    HW2 5311   7.221   0.209   3.186 -0.1739  0.6204 -0.2939
  957SOL     OW 5312   3.344   1.170   7.050  0.2756 -0.3278 -0.2472
  957SOL    HW1 5313   3.400   1.102   7.014  0.1997  0.2359 -1.4918
  957SOL    HW2 5314   3.256   1.148   7.018  0.2357  0.2950 -0.5820
  958SOL     OW 5315   2.478   7.839   6.920 -0.0509 -0.0705  0.0998
  958SOL    HW1 5316   2.390   7.852   6.883  0.0311  0.8039  0.1782
  958SOL    HW2 5317   2.504   7.926   6.949  1.1359 -0.1865 -0.5715
  959SOL     OW 5318   5.560   8.696   7.521  0.1132  0.0341 -0.3450
  959SOL    HW1 5319   5.595   8.775   7.561 -0.3868  0.0314  0.1036
  959SOL    HW2 5320   5.586   8.625   7.579  1.1277 -0.2256 -1.0867
  960SOL     OW 5321   4.196   5.563   7.413 -0.1285 -0.5222 -0.1013
  960SOL    HW1 5322   4.131   5.497   7.386  0.9673 -2.3111  1.3674
  960SOL    HW2 5323   4.198   5.556   7.508 -0.5266  2.2711  0.1882
  961SOL     OW 5324   4.238   1.748   4.691  0.2822  0.0451 -0.1292
  961SOL    HW1 5325   4.321   1.727   4.649  1.1861 -1.2263  2.0903
  961SOL    HW2 5326   4.182   1.672   4.673  0.5061 -0.2754  0.4691
  962SOL     OW 5327   9.875   9.981   3.592 -0.2857  0.4144  0.5477
  962SOL    HW1 5328   9.788   9.961   3.627 -0.5801  1.1073  0.2158
  962SOL    HW2 5329   9.928  10.004   3.669 -0.2915 -0.3319  0.7896
  963SOL     OW 5330   7.636   2.360   3.220  0.5333  0.0748  0.0274
  963SOL    HW1 5331   7.583   2.439   3.209  0.5683  0.0336 -0.4549
  963SOL    HW2 5332   7.573   2.290   3.235  0.5408  0.3413  1.3955
  964SOL     OW 5333   3.306   0.891   0.148 -0.6103 -0.7298  0.0544
  964SOL    HW1 5334   3.263   0.835   0.082  1.1780 -2.3240  0.1243
  964SOL    HW2 5335   3.243   0.898   0.219 -1.2185 -2.0318 -0.3183
  965SOL     OW 5336   2.019   9.063   6.362 -0.4150  0.0760 -0.1636
  965SOL    HW1 5337   2.039   9.141   6.311  2.9220  0.1810  1.0710
  965SOL    HW2 5338   2.017   9.094   6.453 -1.1579 -0.9661  0.1988
  966SOL     OW 5339   7.944   5.728   4.228 -0.1714  0.1823 -0.0682
  966SOL    HW1 5340   7.926   5.733   4.134  0.4735 -0.7761 -0.2568
  966SOL    HW2 5341   7.857   5.720   4.268 -0.3941 -0.5713 -0.6733
  967SOL     OW 5342   7.870   2.771   0.385  0.0781 -0.9309  0.3406
  967SOL    HW1 5343   7.962   2.774   0.413  0.3730 -1.8272 -0.5070
  967SOL    HW2 5344   7.863   2.691   0.334 -0.7779 -0.0151 -1.0307
  968SOL     OW 5345   9.110   9.219   0.147 -0.1234 -0.2315  0.2708
  968SOL    HW1 5346   9.052   9.224   0.223  1.1835 -1.9924  1.4618
  968SOL    HW2 5347   9.195   9.249   0.180 -0.2588  2.3839 -1.4618
  969SOL     OW 5348  10.018   0.347   8.181  0.3417 -0.4709 -0.3531
  969SOL    HW1 5349  10.087   0.406   8.150  0.9630 -1.1912 -0.3740
  969SOL    HW2 5350  10.033   0.339   8.275 -0.4788  0.3326 -0.1310
  970SOL     OW 5351   5.238   3.261  10.054  0.5542  0.0809  0.4126
  970SOL    HW1 5352   5.265   3.296  10.139 -1.4208 -0.2602  1.2360
  970SOL    HW2 5353   5.152   3.300  10.038  0.0785 -1.2830 -0.5562
  971SOL     OW 5354   9.606   2.316   5.595  0.4273 -0.1085 -0.5845
  971SOL    HW1 5355   9.670   2.245   5.596  0.7821  0.2097 -0.3641
  971SOL    HW2 5356   9.650   2.388   5.550  0.2207  0.1089 -0.4420
  972SOL     OW 5357   8.537   5.276   9.926 -0.5827  0.0405 -0.3222
  972SOL    HW1 5358   8.555   5.305  10.016 -0.7353  0.2984 -0.3738
  972SOL    HW2 5359   8.527   5.357   9.876 -1.8581 -0.0751 -0.3041
  973SOL     OW 5360   7.586   5.339   2.204 -0.4972  0.0488  0.3082
  973SOL    HW1 5361   7.524   5.365   2.273  1.4412  0.6784  1.9012
  973SOL    HW2 5362   7.531   5.303   2.135 -2.5493 -0.8922  2.2983
  974SOL     OW 5363   3.877   8.352   5.443 -0.2519  0.8300  0.1311
  974SOL    HW1 5364   3.970   8.372   5.429  0.1461 -0.9147 -0.0285
  974SOL    HW2 5365   3.832   8.436   5.435  1.4305  1.9142  1.3029
  975SOL     OW 5366   1.826   2.435   6.388  0.3530  0.1802 -0.2154
  975SOL    HW1 5367   1.742   2.466   6.354  0.0119  1.3411  1.5515
  975SOL    HW2 5368   1.886   2.508   6.372  0.0195  1.0742  2.1383
  976SOL     OW 5369   4.013   2.267   9.533  0.3475 -0.0055 -0.3050
  976SOL    HW1 5370   4.065   2.253   9.612  1.8444 -0.9030 -1.3942
  976SOL    HW2 5371   3.932   2.218   9.548  0.2995  0.4174  0.9384
  977SOL     OW 5372   5.380   0.240   8.518  0.2289 -0.3195 -0.6370
  977SOL    HW1 5373   5.291   0.227   8.485 -0.1284  2.4930 -1.0831
  977SOL    HW2 5374   5.369   0.298   8.593  1.6108 -1.1599  0.2630
  978SOL     OW 5375   8.926   5.936   7.870 -0.2854 -0.1875 -0.6425
  978SOL    HW1 5376   8.885   5.915   7.954 -0.0598 -0.3542 -0.5748
  978SOL    HW2 5377   8.871   6.006   7.834 -0.7162 -0.5027 -0.6154
  979SOL     OW 5378   5.702   8.066   7.439  0.2800  0.4953 -0.1957
  979SOL    HW1 5379   5.652   8.132   7.489 -1.2815  0.0735 -1.1431
  979SOL    HW2 5380   5.730   8.112   7.360  0.3239  0.3893 -0.2419
  980SOL     OW 5381   5.381   2.864   8.515 -0.0959 -0.5692  0.2593
  980SOL    HW1 5382   5.433   2.784   8.508  2.4974  1.0002  0.3687
  980SOL    HW2 5383   5.387   2.888   8.608  0.4070  0.4961 -0.0312
  981SOL     OW 5384   5.524   8.174   1.485  0.0354  0.1628 -0.4811
  981SOL    HW1 5385   5.518   8.088   1.527  0.2867  0.3685 -0.0146
  981SOL    HW2 5386   5.444   8.181   1.432 -0.7407  0.2631  0.6660
  982SOL     OW 5387   2.781   5.177   5.817  0.1137 -0.0293 -0.1153
  982SOL    HW1 5388   2.736   5.243   5.765  0.0756  0.0096 -0.0325
  982SOL    HW2 5389   2.755   5.094   5.778 -1.4907 -0.1191  1.0728
  983SOL     OW 5390   3.776   3.056   9.270 -0.3303 -0.1750 -0.0889
  983SOL    HW1 5391   3.683   3.033   9.258 -0.9120  0.7073  2.1015
  983SOL    HW2 5392   3.775   3.151   9.284  0.8397 -0.2299  0.4807
  984SOL     OW 5393   8.977   0.523   9.685  0.3986 -0.0839 -0.6794
  984SOL    HW1 5394   8.940   0.583   9.750  1.2726  0.6569 -0.8500
  984SOL    HW2 5395   8.983   0.439   9.730 -1.2260 -0.1695 -0.5604
  985SOL     OW 5396   0.823   0.412   2.357  0.1393  0.2652  0.6591
  985SOL    HW1 5397   0.908   0.454   2.352 -1.1939  3.0601 -0.8968
  985SOL    HW2 5398   0.838   0.323   2.324  2.2758  0.9932 -0.4820
  986SOL     OW 5399   2.851   6.911   0.526  0.6811 -0.2982 -0.0363
  986SOL    HW1 5400   2.814   6.866   0.450  0.1697 -0.0182  0.0436
  986SOL    HW2 5401   2.796   6.988   0.537  0.4393 -0.5959  0.9221
  987SOL     OW 5402   5.229   4.596   1.897  0.2047  0.5173  0.4346
  987SOL    HW1 5403   5.259   4.541   1.969  0.7564  0.5364  0.2214
  987SOL    HW2 5404   5.309   4.626   1.854 -0.1145  0.7016 -0.0407
  988SOL     OW 5405   7.239   8.863   3.500 -0.2400  0.0713  0.2747
  988SOL    HW1 5406   7.200   8.786   3.461  0.3419  0.6999 -1.6496
  988SOL    HW2 5407   7.309   8.829   3.556  0.6095 -0.7738 -1.2564
  989SOL     OW 5408   7.073   6.862   9.278  0.0637 -0.4846 -0.2979
  989SOL    HW1 5409   7.031   6.908   9.350 -0.7629 -1.7873  0.0858
  989SOL    HW2 5410   7.151   6.822   9.316 -0.1908 -0.8881 -0.1880
  990SOL     OW 5411   0.303   0.995   7.953 -0.3166 -0.5251 -0.0549
  990SOL    HW1 5412   0.341   0.978   7.867 -0.8865  0.2560 -0.4674
  990SOL    HW2 5413   0.364   0.954   8.014  0.6299 -0.2204 -0.7698
  991SOL     OW 5414   6.939   6.556   1.223  0.1267  0.0690  0.2871
  991SOL    HW1 5415   6.866   6.591   1.172 -0.1029 -1.1738 -0.2754
  991SOL    HW2 5416   6.899   6.501   1.289  0.4737  1.0007  1.2983
  992SOL     OW 5417   3.318  10.375   4.272  0.4869 -0.1782  0.3105
  992SOL    HW1 5418   3.274  10.390   4.356 -0.1988  0.0529 -0.0782
  992SOL    HW2 5419   3.375  10.300   4.288  1.0373  0.4112  1.2228
  993SOL     OW 5420   7.227   9.138   5.737  0.3263 -0.0950  0.8271
  993SOL    HW1 5421   7.198   9.174   5.821  0.1081  1.2846  0.1961
  993SOL    HW2 5422   7.272   9.211   5.694  1.1295 -1.0125  0.0678
  994SOL     OW 5423   4.176   8.032   1.132  0.3872  0.1291 -0.1952
  994SOL    HW1 5424   4.253   8.086   1.112 -0.3785  1.2972 -0.0390
  994SOL    HW2 5425   4.152   8.055   1.221  1.9690 -2.8809  1.1558
  995SOL     OW 5426   6.149   1.808   0.443  0.5354  0.7154 -0.7611
  995SOL    HW1 5427   6.057   1.805   0.417  0.8130  0.9983 -1.8308
  995SOL    HW2 5428   6.149   1.775   0.532 -0.5496  0.2885 -0.8940
  996SOL     OW 5429   5.377   9.215   4.234  0.4567 -0.4650  0.7498
  996SOL    HW1 5430   5.357   9.264   4.155 -0.2744  0.1984  1.3246
  996SOL    HW2 5431   5.472   9.206   4.234  0.4858 -0.1885 -0.0319
  997SOL     OW 5432   0.771   3.750  10.024  0.2059 -0.1358 -0.2250
  997SOL    HW1 5433   0.701   3.709   9.972  0.3691  0.2223 -0.7252
  997SOL    HW2 5434   0.725   3.784  10.101 -0.3716  1.1296 -1.1047
  998SOL     OW 5435   7.229   2.857   2.707  0.3575  0.1103  0.4971
  998SOL    HW1 5436   7.198   2.878   2.619 -1.0266  1.1895  1.2060
  998SOL    HW2 5437   7.196   2.769   2.724  1.9689 -0.7589 -0.6177
  999SOL     OW 5438   9.100   9.090   1.725 -0.0882 -0.5435 -0.3564
  999SOL    HW1 5439   9.161   9.019   1.702  1.1416  0.9150 -1.8582
  999SOL    HW2 5440   9.058   9.113   1.642 -1.6466 -0.5348  0.4024
 1000SOL     OW 5441   7.211   4.446   2.719  0.4544 -0.5213  0.1691
 1000SOL    HW1 5442   7.226   4.530   2.762 -0.7472 -1.1497  1.9907
 1000SOL    HW2 5443   7.297   4.416   2.692  1.2040  0.2684  1.5687
 1001SOL     OW 5444   2.051   6.087   2.939 -0.5452 -0.0737  0.2801
 1001SOL    HW1 5445   2.098   6.009   2.970  0.7651  1.3208  2.0461
 1001SOL    HW2 5446   2.057   6.149   3.012 -0.6590  2.0552 -1.4097
 1002SOL     OW 5447   6.262   0.285   8.415  1.1733  0.1891  0.0177
 1002SOL    HW1 5448   6.253   0.247   8.327  0.1001  2.6617 -1.0261
 1002SOL    HW2 5449   6.353   0.314   8.418  0.2448  4.1362 -2.2275
 1003SOL     OW 5450   1.840   9.865   0.000 -0.0914 -0.7035  0.2265
 1003SOL    HW1 5451   1.831   9.847   0.094 -2.0422  1.1773  0.4764
 1003SOL    HW2 5452   1.769   9.814  -0.040 -0.3696 -0.1410 -0.0007
 1004SOL     OW 5453   2.387   0.149   1.817 -0.1608 -0.6234  0.4819
 1004SOL    HW1 5454   2.296   0.169   1.799 -0.0877 -1.3893 -0.9579
 1004SOL    HW2 5455   2.437   0.212   1.764  0.2554  1.5128  3.2103
 1005SOL     OW 5456   6.001   6.642  10.125  0.3446  0.5392 -0.1478
 1005SOL    HW1 5457   6.072   6.582  10.103  0.7087  0.4615  1.1136
 1005SOL    HW2 5458   6.013   6.659  10.219 -0.9514  1.0031 -0.0471
 1006SOL     OW 5459   7.089   9.704   8.287 -0.2990 -0.0553  1.1364
 1006SOL    HW1 5460   7.103   9.675   8.196 -1.0740  1.3796  0.5243
 1006SOL    HW2 5461   7.174   9.741   8.313  0.2217 -1.3555  1.3712
 1007SOL     OW 5462  10.199   4.380   6.650  0.0130  0.1655  0.0267
 1007SOL    HW1 5463  10.252   4.442   6.700 -0.9279  4.3730 -3.4563
 1007SOL    HW2 5464  10.109   4.402   6.673 -0.3630 -1.7210  0.4711
 1008SOL     OW 5465   4.390   7.082   3.749  0.1357 -0.1739 -0.2260
 1008SOL    HW1 5466   4.343   7.074   3.832  1.0589 -0.2842  0.3045
 1008SOL    HW2 5467   4.464   7.023   3.758 -0.2803 -0.9320 -1.5265
 1009SOL     OW 5468   4.009   5.966   1.733  0.1360  0.2853  0.0979
 1009SOL    HW1 5469   4.001   6.001   1.644 -0.3249 -1.5724 -0.6438
 1009SOL    HW2 5470   3.947   6.017   1.785 -1.7078 -0.4585 -1.2714
 1010SOL     OW 5471   3.799   6.708   7.555  0.2804 -0.3985 -0.4355
 1010SOL    HW1 5472   3.809   6.737   7.646  0.2116  0.0073 -0.5530
 1010SOL    HW2 5473   3.802   6.613   7.559 -0.0164 -0.3889  0.0241
 1011SOL     OW 5474   1.645   0.093   1.978 -0.0138 -0.3399  0.1003
 1011SOL    HW1 5475   1.679   0.141   2.054 -1.1921 -0.2384  0.5928
 1011SOL    HW2 5476   1.622   0.007   2.013  1.2386 -0.9683 -0.5832
 1012SOL     OW 5477   6.152   0.622   1.230 -0.2942  0.0731 -0.6372
 1012SOL    HW1 5478   6.096   0.698   1.215 -1.6954 -0.7319  0.2209
 1012SOL    HW2 5479   6.116   0.581   1.309  0.9935 -0.9734 -0.5546
 1013SOL     OW 5480   3.630   5.469  10.348 -0.1243  0.2468  0.1619
 1013SOL    HW1 5481   3.574   5.450  10.272 -0.5832  0.2774  0.4864
 1013SOL    HW2 5482   3.671   5.553  10.326 -1.0956  0.8042  0.4091
 1014SOL     OW 5483   5.373   4.876   4.658  0.3997 -0.0996 -0.3100
 1014SOL    HW1 5484   5.403   4.818   4.588 -2.5572 -2.0168 -0.1592
 1014SOL    HW2 5485   5.289   4.910   4.627  0.1636  0.9471  1.3204
 1015SOL     OW 5486   9.069   9.409   3.722 -0.1015  0.2425 -0.2097
 1015SOL    HW1 5487   9.080   9.315   3.704 -1.5015 -0.0779  0.4720
 1015SOL    HW2 5488   9.025   9.412   3.807 -0.2370  1.5141 -0.3094
 1016SOL     OW 5489   7.511   0.085   9.080 -0.5370  0.3897 -0.2506
 1016SOL    HW1 5490   7.479   0.015   9.138  1.0431  0.1061  0.3095
 1016SOL    HW2 5491   7.453   0.081   9.004 -1.7995 -0.1237  0.7014
 1017SOL     OW 5492   1.834   0.224   0.565 -0.4401 -0.5881  0.3948
 1017SOL    HW1 5493   1.824   0.310   0.523 -2.0476 -0.1800  1.5071
 1017SOL    HW2 5494   1.868   0.243   0.652  1.3038 -1.2944 -0.0958
 1018SOL     OW 5495   0.773   2.981   7.939 -0.4198  0.0515  0.1219
 1018SOL    HW1 5496   0.683   2.994   7.909  0.0927  1.7402 -0.8009
 1018SOL    HW2 5497   0.769   2.904   7.996 -2.5143  0.3672  0.4492
 1019SOL     OW 5498   8.070  10.172   7.441 -0.2064 -0.3959 -0.4142
 1019SOL    HW1 5499   8.055  10.265   7.455 -1.0887 -0.3653 -1.3614
 1019SOL    HW2 5500   8.164  10.160   7.450 -0.2363  0.3407  1.0170
 1020SOL     OW 5501   6.459   3.452   7.452  0.1041  0.1545 -0.9371
 1020SOL    HW1 5502   6.425   3.376   7.499  0.2384  0.9502  0.5129
 1020SOL    HW2 5503   6.390   3.518   7.459  0.3657  0.4810 -1.3562
 1021SOL     OW 5504   9.176   4.877   6.617  0.0992 -0.0491 -0.1943
 1021SOL    HW1 5505   9.114   4.849   6.684  1.3293  3.0645  2.5767
 1021SOL    HW2 5506   9.122   4.915   6.548 -1.1815 -2.5549 -0.6624
 1022SOL     OW 5507   4.258   5.459   4.915 -0.2397 -0.3160 -0.3801
 1022SOL    HW1 5508   4.169   5.493   4.929  0.0349  0.0018  0.7733
 1022SOL    HW2 5509   4.271   5.464   4.821 -0.6578  1.7247 -0.3921
 1023SOL     OW 5510   5.886  10.078   9.949  0.1721 -0.1722  1.1403
 1023SOL    HW1 5511   5.821  10.017   9.984  1.0504 -0.3485  2.5439
 1023SOL    HW2 5512   5.946  10.024   9.898 -1.4221  0.1587 -1.2426
 1024SOL     OW 5513   7.606   1.999   6.688  0.1104 -0.3140  0.1340
 1024SOL    HW1 5514   7.654   2.081   6.700  1.2118 -0.7536 -0.9811
 1024SOL    HW2 5515   7.663   1.933   6.727 -0.2731 -0.6705  0.0882
 1025SOL     OW 5516   1.924   1.155   0.205  0.1084 -0.5096 -0.4625
 1025SOL    HW1 5517   1.945   1.234   0.156  1.0339  0.4787  1.4113
 1025SOL    HW2 5518   1.854   1.181   0.264  0.1188 -1.1959 -0.1316
 1026SOL     OW 5519  10.099   9.567   8.886 -0.5251  0.4945  0.5962
 1026SOL    HW1 5520  10.053   9.484   8.872  0.8404 -0.2036  0.0582
 1026SOL    HW2 5521  10.104   9.607   8.799 -0.0942  0.5464  0.6436
 1027SOL     OW 5522   8.150   4.655   0.762 -1.0320 -0.5124  0.3561
 1027SOL    HW1 5523   8.239   4.679   0.788  0.0414 -1.9571 -1.6488
 1027SOL    HW2 5524   8.110   4.738   0.734 -0.4443  0.1999  1.5759
 1028SOL     OW 5525   4.285   6.507   7.664 -0.3290  0.8122 -0.5833
 1028SOL    HW1 5526   4.343   6.431   7.671 -1.5008 -0.3254 -2.3037
 1028SOL    HW2 5527   4.207   6.473   7.620 -1.9884  2.4585  0.9052
 1029SOL     OW 5528   4.023   5.407   7.266  0.2099 -0.0434 -0.5829
 1029SOL    HW1 5529   4.039   5.433   7.175  1.5711  2.8864  0.3664
 1029SOL    HW2 5530   4.074   5.327   7.278  1.2696  0.3945 -1.9911
 1030SOL     OW 5531   6.359   8.620   6.830 -0.1654 -0.1372  0.6228
 1030SOL    HW1 5532   6.300   8.594   6.760  0.3628 -0.8352  0.4247
 1030SOL    HW2 5533   6.340   8.713   6.844 -0.1950  0.0503 -0.5297
 1031SOL     OW 5534  10.132   7.795   2.169  0.7762 -0.0015  0.4716
 1031SOL    HW1 5535  10.201   7.858   2.147  0.2540  0.3157 -0.3169
 1031SOL    HW2 5536  10.090   7.832   2.247 -0.2994  1.3067 -0.6606
 1032SOL     OW 5537   0.755   5.214   1.089 -0.5439 -0.2435  0.5880
 1032SOL    HW1 5538   0.730   5.125   1.066 -3.5234  0.3396  1.2114
 1032SOL    HW2 5539   0.806   5.204   1.170 -1.3625 -1.3490  0.9942
 1033SOL     OW 5540   2.938  10.346   3.847 -0.6215 -0.4861  0.0064
 1033SOL    HW1 5541   3.019  10.323   3.801 -0.1812  1.9408 -0.6047
 1033SOL    HW2 5542   2.964  10.359   3.938 -0.4999 -0.5441 -0.0208
 1034SOL     OW 5543   8.607   5.299   6.903 -0.4271 -0.5819  0.2857
 1034SOL    HW1 5544   8.570   5.338   6.982  0.6324 -3.5719  2.4095
 1034SOL    HW2 5545   8.562   5.343   6.831 -0.4421  3.3252  2.4066
 1035SOL     OW 5546   6.606   2.155   8.662  0.7618  0.0184 -0.3334
 1035SOL    HW1 5547   6.695   2.150   8.697  0.6247 -0.9040 -0.0629
 1035SOL    HW2 5548   6.550   2.161   8.740  0.5094 -1.0835 -0.4030
 1036SOL     OW 5549   8.325   0.969   1.471  0.0543  0.2882 -0.7609
 1036SOL    HW1 5550   8.290   0.888   1.435  1.0554 -0.7330  0.4505
 1036SOL    HW2 5551   8.318   1.032   1.399 -1.6601 -0.5722 -1.4231
 1037SOL     OW 5552   5.394   8.280   4.279 -0.1156  0.2067  0.7347
 1037SOL    HW1 5553   5.471   8.264   4.225 -0.9526 -1.4690 -0.0226
 1037SOL    HW2 5554   5.423   8.346   4.343  1.6909  0.1948 -0.0170
 1038SOL     OW 5555   6.858   8.395   8.276 -0.6763 -0.3878 -0.2548
 1038SOL    HW1 5556   6.874   8.303   8.296 -1.7403 -0.2291  1.5565
 1038SOL    HW2 5557   6.927   8.418   8.214  0.5022 -2.0127  0.3640
 1039SOL     OW 5558   0.772   7.417   4.619 -0.1494  0.2473  0.2518
 1039SOL    HW1 5559   0.786   7.361   4.695 -0.6982  0.0780  0.2344
 1039SOL    HW2 5560   0.719   7.490   4.651 -2.1152 -0.8463 -0.3620
 1040SOL     OW 5561   6.139   0.937   7.456 -0.0545 -0.6585  0.3342
 1040SOL    HW1 5562   6.122   1.031   7.454 -0.2622 -0.6681  1.1061
 1040SOL    HW2 5563   6.222   0.926   7.410  0.3240 -0.0082  0.8450
 1041SOL     OW 5564   1.252   5.689   4.594  0.1598  0.1253  0.1699
 1041SOL    HW1 5565   1.172   5.687   4.646 -1.3654  0.4835 -1.9915
 1041SOL    HW2 5566   1.251   5.607   4.545 -0.3056  1.1729 -1.7228
 1042SOL     OW 5567   8.841   0.698   1.468 -0.5320 -0.1603 -0.0485
 1042SOL    HW1 5568   8.923   0.650   1.465  0.2110  1.0951 -0.9805
 1042SOL    HW2 5569   8.803   0.687   1.381  0.0691  1.5680 -0.5692
 1043SOL     OW 5570   7.934   0.149   4.664 -0.3581  0.4297  0.0398
 1043SOL    HW1 5571   7.986   0.183   4.591 -1.7929  2.3800 -0.1463
 1043SOL    HW2 5572   7.998   0.103   4.719  1.2728  1.3475 -0.9843
 1044SOL     OW 5573   8.505   9.459  10.373  0.9488  0.0488  0.0417
 1044SOL    HW1 5574   8.449   9.414  10.310  1.0450 -0.0842  0.0528
 1044SOL    HW2 5575   8.500   9.406  10.452  1.7571 -0.4323 -0.2185
 1045SOL     OW 5576   0.885   3.569   2.909 -0.2793  0.4393 -0.1153
 1045SOL    HW1 5577   0.913   3.652   2.947 -1.8133  0.4870  1.0508
 1045SOL    HW2 5578   0.966   3.523   2.886  0.6876  1.0972  1.7959
 1046SOL     OW 5579   5.702   7.008  10.098 -0.5374 -0.6912 -0.7875
 1046SOL    HW1 5580   5.791   7.013  10.065  1.0945 -0.3310  3.1733
 1046SOL    HW2 5581   5.669   7.098  10.092  0.0231 -0.4746 -0.6824
 1047SOL     OW 5582   9.017   8.123   7.072 -0.6463  0.1406  0.6533
 1047SOL    HW1 5583   8.980   8.053   7.018 -1.6071 -0.5773  2.1620
 1047SOL    HW2 5584   8.946   8.187   7.079 -0.5857  0.1538  1.1720
 1048SOL     OW 5585   2.624  10.007   9.995  0.2841  0.3865  0.1701
 1048SOL    HW1 5586   2.563   9.944  10.033  0.0815 -1.3926 -2.7903
 1048SOL    HW2 5587   2.711   9.978  10.023  0.0605 -0.0036  0.4495
 1049SOL     OW 5588   3.181   7.455   4.448 -0.5034  0.2449 -0.2611
 1049SOL    HW1 5589   3.228   7.480   4.369 -0.5702  0.5624 -0.2017
 1049SOL    HW2 5590   3.140   7.536   4.478  0.0838  0.2737  0.4799
 1050SOL     OW 5591   0.591   4.583   7.757 -0.2000 -0.0536  0.2070
 1050SOL    HW1 5592   0.627   4.499   7.786 -1.6430 -0.5082  0.7654
 1050SOL    HW2 5593   0.524   4.560   7.693  1.5946  0.8636 -2.1064
 1051SOL     OW 5594   8.748   4.075   9.334  0.4914  0.3448 -0.4034
 1051SOL    HW1 5595   8.773   3.986   9.310  1.6712  0.6649 -0.4407
 1051SOL    HW2 5596   8.777   4.129   9.260 -1.5995  0.6097 -1.0952
 1052SOL     OW 5597   6.894   2.733   1.581 -0.1078  0.2432  0.2296
 1052SOL    HW1 5598   6.932   2.807   1.629  0.8133  0.2218 -0.4444
 1052SOL    HW2 5599   6.841   2.773   1.512  0.6283  0.2860 -0.3203
 1053SOL     OW 5600   6.744   8.190   1.411 -0.1722 -0.3006  0.6149
 1053SOL    HW1 5601   6.799   8.199   1.489  1.0001 -1.8057  0.0043
 1053SOL    HW2 5602   6.741   8.278   1.374 -0.2329  0.3059  2.0164
 1054SOL     OW 5603   0.136   7.439   1.719  0.1286  0.9118 -0.1112
 1054SOL    HW1 5604   0.041   7.426   1.709  0.1635  0.6121 -0.0780
 1054SOL    HW2 5605   0.159   7.386   1.796  0.4348  0.4237 -0.5276
 1055SOL     OW 5606   9.325  10.415  10.287  0.3950  0.2823  0.1380
 1055SOL    HW1 5607   9.389  10.480  10.316 -0.6119  2.2111 -1.6074
 1055SOL    HW2 5608   9.374  10.333  10.282  1.6508  0.7760  2.7476
 1056SOL     OW 5609   4.335   3.034   8.993 -0.2129  0.0675  0.4359
 1056SOL    HW1 5610   4.281   2.967   9.034 -0.6197  1.1676  1.7809
 1056SOL    HW2 5611   4.338   3.105   9.057 -0.5267  1.7045 -1.2630
 1057SOL     OW 5612   1.030   3.695   1.412 -0.0650  0.3624  0.2579
 1057SOL    HW1 5613   1.067   3.665   1.329 -0.3107  1.1261 -0.1324
 1057SOL    HW2 5614   0.954   3.747   1.388  1.3307  2.8341  0.7742
 1058SOL     OW 5615   6.311   7.878   8.617  0.6364  0.7797 -0.0491
 1058SOL    HW1 5616   6.404   7.859   8.632 -0.2738 -1.8872  3.6970
 1058SOL    HW2 5617   6.281   7.809   8.559  0.8929  1.5596 -1.1441
 1059SOL     OW 5618   3.696   1.215   0.848  0.0401  0.0656  0.2947
 1059SOL    HW1 5619   3.656   1.142   0.800  1.7035 -0.9305  0.3357
 1059SOL    HW2 5620   3.637   1.289   0.833 -0.8682 -0.8891 -1.0783
 1060SOL     OW 5621   8.969  10.448   3.163 -0.1842 -0.0121 -0.2900
 1060SOL    HW1 5622   8.969  10.523   3.222  1.7247 -1.2699  1.4213
 1060SOL    HW2 5623   8.890  10.399   3.185  0.5883 -0.5545  1.4347
 1061SOL     OW 5624   6.272   8.533   8.231 -0.5276  0.2070  0.4062
 1061SOL    HW1 5625   6.285   8.478   8.308 -3.1115 -1.1163  0.0161
 1061SOL    HW2 5626   6.177   8.541   8.223 -0.2911  3.0441 -0.8013
 1062SOL     OW 5627   7.037   3.233   3.018  0.1068  0.5896  0.2982
 1062SOL    HW1 5628   7.041   3.276   3.103  0.3279  0.6817  0.2438
 1062SOL    HW2 5629   7.081   3.149   3.031  0.4546  0.7509  0.1920
 1063SOL     OW 5630  10.419   9.866   3.781 -0.0597 -0.2777  0.2124
 1063SOL    HW1 5631  10.350   9.854   3.715  0.1073 -1.6129  0.2419
 1063SOL    HW2 5632  10.458   9.779   3.790  0.6789  0.1428  1.2481
 1064SOL     OW 5633   4.250   9.842  10.486 -0.3630  0.4966  0.3977
 1064SOL    HW1 5634   4.287   9.813  10.403 -0.7369  0.9036  0.0821
 1064SOL    HW2 5635   4.170   9.888  10.462 -0.4305  0.6940  0.9788
 1065SOL     OW 5636   3.605   4.625   5.833 -0.1329 -0.2197 -0.9781
 1065SOL    HW1 5637   3.536   4.620   5.767 -1.0584 -0.6064 -0.0094
 1065SOL    HW2 5638   3.665   4.553   5.812  0.4752  0.6319 -2.3343
 1066SOL     OW 5639   0.067   9.922   6.611 -0.2907 -0.6556  0.5825
 1066SOL    HW1 5640   0.094   9.957   6.526  0.6173  0.4383  1.2864
 1066SOL    HW2 5641   0.057   9.999   6.666 -1.2921 -1.3246  1.3671
 1067SOL     OW 5642   7.806   8.555   2.956 -0.1289  0.1605  0.5342
 1067SOL    HW1 5643   7.897   8.584   2.957  0.4931 -1.6145  2.2589
 1067SOL    HW2 5644   7.810   8.464   2.986 -2.1735 -1.0011 -2.2889
 1068SOL     OW 5645   4.026   9.956  10.353 -0.0620 -0.3793 -0.4209
 1068SOL    HW1 5646   3.985  10.041  10.365 -0.9559 -0.6791 -1.1739
 1068SOL    HW2 5647   4.015   9.937  10.259 -0.6799 -1.6918 -0.1211
 1069SOL     OW 5648   9.690   5.339   3.438 -0.2308 -0.0950  0.3070
 1069SOL    HW1 5649   9.675   5.392   3.516  0.7584  0.9786 -0.2032
 1069SOL    HW2 5650   9.680   5.400   3.365 -0.8519 -1.0205 -0.4003
 1070SOL     OW 5651  10.458   0.114   5.265 -0.6505 -0.5316  0.8493
 1070SOL    HW1 5652  10.547   0.081   5.250 -0.1471  1.4465 -0.9966
 1070SOL    HW2 5653  10.469   0.209   5.273 -2.5291 -0.3252  1.2985
 1071SOL     OW 5654   8.298   1.968   8.221 -0.4021  0.6746  0.4090
 1071SOL    HW1 5655   8.303   1.945   8.314 -0.8720 -1.3961 -0.0265
 1071SOL    HW2 5656   8.389   1.976   8.193 -0.1660 -1.1830  0.5211
 1072SOL     OW 5657   8.991  10.130   4.825  0.1915  0.4285  0.5766
 1072SOL    HW1 5658   8.925  10.155   4.889 -0.1984  0.1372  0.2966
 1072SOL    HW2 5659   9.041  10.210   4.807 -0.3847  0.7585  0.4419
 1073SOL     OW 5660   8.073   1.068   3.710 -0.0809 -0.5737 -0.6211
 1073SOL    HW1 5661   8.067   1.142   3.650  2.0582 -0.0136 -0.2394
 1073SOL    HW2 5662   7.997   1.078   3.768 -1.8059 -0.7341 -2.7093
 1074SOL     OW 5663   1.357   8.646   3.475  0.7069  0.0371 -0.5923
 1074SOL    HW1 5664   1.394   8.573   3.425  1.3969  1.3824 -2.1099
 1074SOL    HW2 5665   1.308   8.697   3.411 -1.8321 -0.3516  0.9137
 1075SOL     OW 5666   0.805   2.465   0.259  0.8013 -0.6971  0.0620
 1075SOL    HW1 5667   0.712   2.485   0.263  0.3065 -2.4298 -1.4161
 1075SOL    HW2 5668   0.809   2.379   0.218  2.9730 -1.4935  1.7650
 1076SOL     OW 5669   7.982   4.892   9.453 -0.6896  0.5032  0.0342
 1076SOL    HW1 5670   7.945   4.951   9.388 -0.2417 -0.1581 -0.8415
 1076SOL    HW2 5671   7.914   4.827   9.468 -0.3182 -0.0857 -0.7584
 1077SOL     OW 5672   1.264   9.998   3.327  0.3609 -0.3894 -0.2493
 1077SOL    HW1 5673   1.236  10.055   3.256  0.9068  1.3384  0.8519
 1077SOL    HW2 5674   1.294  10.058   3.396 -0.6508 -1.9553  1.6671
 1078SOL     OW 5675   1.100   4.244   6.561 -0.4071 -0.3032 -0.2922
 1078SOL    HW1 5676   1.192   4.260   6.578 -0.6446 -0.5634  1.3485
 1078SOL    HW2 5677   1.072   4.320   6.509  0.4691  0.3160  0.1124
 1079SOL     OW 5678   0.268   6.703   4.652  0.2054 -0.4220 -0.2314
 1079SOL    HW1 5679   0.183   6.746   4.642  1.2982  1.7738 -0.7037
 1079SOL    HW2 5680   0.264   6.627   4.594 -0.9114  0.5072 -1.4127
 1080SOL     OW 5681   8.251   1.401   0.448 -0.0761  0.1925 -0.9274
 1080SOL    HW1 5682   8.344   1.389   0.426 -0.1582  1.1380 -1.8820
 1080SOL    HW2 5683   8.206   1.393   0.364 -0.9426 -0.9478 -0.3677
 1081SOL     OW 5684   6.505   1.691   4.020 -0.4892 -0.1916 -0.2566
 1081SOL    HW1 5685   6.587   1.681   3.972  0.9343  0.3307  1.8921
 1081SOL    HW2 5686   6.474   1.779   3.998 -0.4957 -0.3974 -1.0938
 1082SOL     OW 5687   2.418   1.456   8.123  0.2701  0.0751  0.3096
 1082SOL    HW1 5688   2.391   1.529   8.180  1.2174  1.7472 -1.2771
 1082SOL    HW2 5689   2.343   1.441   8.066  0.8406  1.3995 -0.8527
 1083SOL     OW 5690   9.877   4.793   6.710  0.1183  0.4266  0.4669
 1083SOL    HW1 5691   9.825   4.854   6.658  0.2187 -1.0511 -1.4975
 1083SOL    HW2 5692   9.816   4.757   6.774 -0.5745  0.7701  0.0077
 1084SOL     OW 5693   9.435   2.368   0.023 -0.6512 -0.3953 -0.1053
 1084SOL    HW1 5694   9.426   2.371   0.118 -0.8558 -1.8075 -0.0559
 1084SOL    HW2 5695   9.430   2.275   0.001  0.4672 -0.1910 -1.3929
 1085SOL     OW 5696   0.523   0.085   7.669 -0.1766  0.2132 -0.2106
 1085SOL    HW1 5697   0.467   0.162   7.680 -0.4123 -0.0818  0.7443
 1085SOL    HW2 5698   0.466   0.011   7.690  0.2604 -0.1666 -0.3544
 1086SOL     OW 5699   1.334   0.889   7.099  0.0102  0.6857 -0.1313
 1086SOL    HW1 5700   1.418   0.859   7.064 -0.2924 -0.1907 -0.1419
 1086SOL    HW2 5701   1.316   0.970   7.052  0.0726  0.0307 -1.3404
 1087SOL     OW 5702   7.598   7.944   8.753 -0.3798  0.1076  0.3277
 1087SOL    HW1 5703   7.679   7.992   8.735 -0.4177 -0.3013 -1.0666
 1087SOL    HW2 5704   7.528   8.009   8.739 -0.3644  0.0361 -0.0889
 1088SOL     OW 5705   3.809   6.686   0.737 -0.6983  0.1553  0.4369
 1088SOL    HW1 5706   3.832   6.776   0.715  0.2273 -0.2899 -0.5090
 1088SOL    HW2 5707   3.882   6.655   0.790 -0.6092 -0.2975  0.0567
 1089SOL     OW 5708   9.090   5.915   3.777  0.1379 -0.0057  0.1233
 1089SOL    HW1 5709   9.116   5.822   3.778  3.0666  0.6594  3.0211
 1089SOL    HW2 5710   9.034   5.925   3.853  1.6896  0.9234  1.2141
 1090SOL     OW 5711   3.066   0.861   3.623 -0.1533 -0.0938 -0.1519
 1090SOL    HW1 5712   3.162   0.864   3.619 -0.1605  0.7953  0.0731
 1090SOL    HW2 5713   3.038   0.888   3.536 -0.1941  1.8007  0.4025
 1091SOL     OW 5714   0.210   7.754   7.500  0.3833  0.2558  0.2118
 1091SOL    HW1 5715   0.294   7.798   7.486  1.4746 -1.7567  0.0792
 1091SOL    HW2 5716   0.155   7.820   7.541  1.9128  1.7383 -0.0086
 1092SOL     OW 5717   7.813   4.484   4.826  0.1500  1.0794 -0.1226
 1092SOL    HW1 5718   7.734   4.433   4.845 -0.4780  1.7298 -0.9089
 1092SOL    HW2 5719   7.885   4.424   4.845 -0.4961  0.7370  1.4008
 1093SOL     OW 5720   1.512   7.172   9.015 -0.5180  0.4832  0.0941
 1093SOL    HW1 5721   1.427   7.142   9.047 -0.0146  1.5213  2.5930
 1093SOL    HW2 5722   1.566   7.093   9.014 -1.1880  0.0157 -0.4750
 1094SOL     OW 5723   0.277   5.157   1.282  0.4076 -0.8610 -1.1298
 1094SOL    HW1 5724   0.347   5.221   1.282  1.5901 -2.0867  0.1097
 1094SOL    HW2 5725   0.304   5.091   1.218  0.1407 -1.0959 -1.0040
 1095SOL     OW 5726   4.460   5.947   2.232 -0.0002 -0.6606  0.2517
 1095SOL    HW1 5727   4.556   5.944   2.230  0.0424  0.4871  0.3583
 1095SOL    HW2 5728   4.439   5.982   2.319 -0.6144 -3.3546  1.3169
 1096SOL     OW 5729   6.037   9.901   9.205  0.6720 -0.0846  0.4858
 1096SOL    HW1 5730   5.985   9.821   9.213 -1.3858  1.1437  0.0890
 1096SOL    HW2 5731   5.973   9.972   9.201  2.4161  1.8277  2.8673
 1097SOL     OW 5732   8.255   1.907   6.457 -0.2266  0.2060 -0.3775
 1097SOL    HW1 5733   8.326   1.853   6.423  1.0205  1.2167  0.5409
 1097SOL    HW2 5734   8.175   1.861   6.430  0.7357 -2.9767  1.6044
 1098SOL     OW 5735   6.422   9.040   7.433 -0.0560  0.0877  0.3615
 1098SOL    HW1 5736   6.481   8.969   7.408 -1.2901  0.1164 -3.0851
 1098SOL    HW2 5737   6.409   9.028   7.528 -0.3002 -4.3606 -0.0438
 1099SOL     OW 5738   8.025   1.603   4.980  0.1121  0.2030  0.1084
 1099SOL    HW1 5739   8.072   1.535   5.029  0.9117 -0.1334 -1.0891
 1099SOL    HW2 5740   8.069   1.685   5.004  0.0949  0.1211  0.4254
 1100SOL     OW 5741   8.353   8.899   0.863  0.2465 -0.3757  0.4960
 1100SOL    HW1 5742   8.320   8.988   0.870  2.7170  0.6199  0.5208
 1100SOL    HW2 5743   8.383   8.878   0.952 -0.1714 -1.1999  0.4552
 1101SOL     OW 5744   9.544   0.545   2.849 -0.1434 -0.1473 -0.5317
 1101SOL    HW1 5745   9.493   0.463   2.845  1.5969 -1.4336  1.5721
 1101SOL    HW2 5746   9.499   0.598   2.914  0.1138 -0.4808 -0.0791
 1102SOL     OW 5747   5.021   9.731   0.707  0.0504  0.7363  0.4915
 1102SOL    HW1 5748   5.021   9.663   0.639 -0.2389 -1.6576  2.7535
 1102SOL    HW2 5749   5.031   9.813   0.658  0.1291 -0.8618 -2.4014
 1103SOL     OW 5750   3.620   5.188   1.096  0.3179  0.8165 -0.1743
 1103SOL    HW1 5751   3.686   5.129   1.131  1.6477  1.2826 -1.7729
 1103SOL    HW2 5752   3.637   5.272   1.140  1.6263  1.2564 -1.4491
 1104SOL     OW 5753   0.155   6.415   1.307 -0.2682 -0.0170  0.0146
 1104SOL    HW1 5754   0.135   6.357   1.234  1.3697 -0.8656  0.1831
 1104SOL    HW2 5755   0.104   6.381   1.381 -2.1649  1.0234 -0.7341
 1105SOL     OW 5756   1.458  10.450   0.378 -0.7640 -0.4126 -0.4647
 1105SOL    HW1 5757   1.532  10.444   0.438 -0.5542 -1.8115 -0.8267
 1105SOL    HW2 5758   1.477  10.527   0.324 -0.2793  0.0536  0.3418
 1106SOL     OW 5759   9.868   1.507   4.305  0.6536  0.0427  0.0150
 1106SOL    HW1 5760   9.962   1.506   4.284  0.3690  1.7982 -1.5908
 1106SOL    HW2 5761   9.861   1.566   4.380  0.8734 -0.5296  0.4951
 1107SOL     OW 5762   7.102   8.068   6.654 -0.6193 -0.1746  0.4544
 1107SOL    HW1 5763   7.098   8.083   6.748  2.1183 -1.2723  0.8470
 1107SOL    HW2 5764   7.101   8.155   6.616 -0.5942  0.3389  1.5923
 1108SOL     OW 5765   0.140   5.400   7.197  0.2895 -0.6333  0.3532
 1108SOL    HW1 5766   0.060   5.451   7.186  0.1995 -0.7825  0.3199
 1108SOL    HW2 5767   0.191   5.419   7.118  0.8026  0.3809  0.9042
 1109SOL     OW 5768   2.758   2.545   4.263  0.0643  0.0536  0.3215
 1109SOL    HW1 5769   2.693   2.577   4.324 -0.0358  1.4864 -0.5097
 1109SOL    HW2 5770   2.716   2.471   4.219 -0.7400  0.5180  0.2967
 1110SOL     OW 5771   3.063   0.716   6.378 -0.4368  0.3581 -0.4219
 1110SOL    HW1 5772   3.116   0.757   6.310  1.3445 -1.1917 -0.0401
 1110SOL    HW2 5773   2.973   0.726   6.348  0.0294  2.8162 -1.2466
 1111SOL     OW 5774   3.039  10.417   9.216  0.2063 -0.4084  0.3657
 1111SOL    HW1 5775   3.130  10.388   9.229 -0.0384 -1.6450 -0.4966
 1111SOL    HW2 5776   3.002  10.417   9.304  0.8098 -0.7230  0.6331
 1112SOL     OW 5777   6.642   2.761   7.473 -0.4543  0.2200  0.0355
 1112SOL    HW1 5778   6.560   2.748   7.521 -1.2754  2.7471 -0.5537
 1112SOL    HW2 5779   6.668   2.850   7.494  1.7814 -0.2795 -0.4141
 1113SOL     OW 5780   8.117   5.940   8.486 -0.9728  0.5978  0.4539
 1113SOL    HW1 5781   8.134   6.030   8.459  0.2250  0.8371  1.9031
 1113SOL    HW2 5782   8.117   5.943   8.582  2.0285 -1.3750  0.6678
 1114SOL     OW 5783   4.346  10.020   1.875  0.3720  0.0988 -0.5692
 1114SOL    HW1 5784   4.378  10.085   1.811 -2.5715  0.0828 -2.2198
 1114SOL    HW2 5785   4.359   9.936   1.832  0.8038 -0.1530  0.0342
 1115SOL     OW 5786   8.126  10.433   3.313 -0.2720  0.3449  0.2572
 1115SOL    HW1 5787   8.059  10.400   3.253 -0.7026  3.0848 -0.9688
 1115SOL    HW2 5788   8.092  10.416   3.400  0.3115 -3.6602 -0.1006
 1116SOL     OW 5789  10.076  10.166   9.663 -0.1402 -0.6180 -0.2631
 1116SOL    HW1 5790  10.149  10.128   9.613  1.4617  0.7071  0.9453
 1116SOL    HW2 5791  10.042  10.235   9.606  1.4083  0.6073  0.2287
 1117SOL     OW 5792   9.367   1.286   7.828  0.7174 -0.5277  0.0578
 1117SOL    HW1 5793   9.404   1.294   7.740 -0.9919 -0.8802 -0.7436
 1117SOL    HW2 5794   9.354   1.376   7.857  0.2380 -0.3910 -0.5460
 1118SOL     OW 5795   3.789   9.120   3.877  0.0694  0.0815  0.5233
 1118SOL    HW1 5796   3.778   9.163   3.962  1.0448 -1.1215  1.2926
 1118SOL    HW2 5797   3.721   9.158   3.822  0.8057  2.5322  1.1646
 1119SOL     OW 5798   7.278   0.544   1.581 -0.4033  0.0365 -0.4734
 1119SOL    HW1 5799   7.201   0.593   1.552 -0.3359  0.9171  0.7750
 1119SOL    HW2 5800   7.318   0.599   1.648 -1.1364 -2.3136  2.0982
 1120SOL     OW 5801   7.853   0.281   8.248  0.1216  0.5333 -0.2584
 1120SOL    HW1 5802   7.943   0.275   8.214 -0.2384  2.9093 -1.8357
 1120SOL    HW2 5803   7.858   0.348   8.316 -0.0505 -1.0494  1.3835
 1121SOL     OW 5804   2.451   4.114   5.291 -0.3478  0.2163  0.0548
 1121SOL    HW1 5805   2.541   4.126   5.322 -0.5030  1.1713  0.1726
 1121SOL    HW2 5806   2.400   4.106   5.372 -0.3476 -0.5279 -0.0152
 1122SOL     OW 5807   3.925   4.265   0.434 -0.0888  0.0649 -1.0973
 1122SOL    HW1 5808   3.916   4.344   0.488 -1.0769 -0.5622 -0.3249
 1122SOL    HW2 5809   3.903   4.294   0.345  0.7298  0.9143 -1.0438
 1123SOL     OW 5810  10.276   7.080   0.137 -0.0151 -0.2070  0.0811
 1123SOL    HW1 5811  10.353   7.098   0.191 -0.3339 -0.3885  0.6001
 1123SOL    HW2 5812  10.304   7.102   0.048  0.7007 -0.4619  0.2344
 1124SOL     OW 5813   0.214   0.177   2.000  0.2546  0.3571 -0.1606
 1124SOL    HW1 5814   0.171   0.238   2.059  1.7229 -0.7389  2.2196
 1124SOL    HW2 5815   0.147   0.154   1.935 -0.7671  3.2426 -0.2343
 1125SOL     OW 5816   1.275  10.428   4.503  0.5738  0.5912 -0.8505
 1125SOL    HW1 5817   1.206  10.430   4.437  0.0025 -2.6647 -0.5129
 1125SOL    HW2 5818   1.228  10.425   4.586  1.2358  1.4560 -0.4236
 1126SOL     OW 5819   1.466   4.192   3.191  0.1721 -0.9146  0.3448
 1126SOL    HW1 5820   1.404   4.234   3.251  0.3401 -0.7906  0.4330
 1126SOL    HW2 5821   1.417   4.120   3.152 -0.3721 -0.1653 -0.3900
 1127SOL     OW 5822   9.775   2.170   4.878  0.3583 -0.1031 -0.4072
 1127SOL    HW1 5823   9.746   2.115   4.950  2.3922  0.2796  0.7980
 1127SOL    HW2 5824   9.731   2.254   4.890  0.6382 -0.0654  0.3785
 1128SOL     OW 5825   7.462   5.388   8.786  0.3736  0.1095  0.0191
 1128SOL    HW1 5826   7.476   5.308   8.837  2.7317  0.6496  0.2980
 1128SOL    HW2 5827   7.414   5.446   8.845  1.9510  0.2587  1.2116
 1129SOL     OW 5828   7.608   9.779   0.668  0.2209  0.8004  0.0240
 1129SOL    HW1 5829   7.610   9.722   0.590  1.0122  0.4553  0.2792
 1129SOL    HW2 5830   7.667   9.736   0.730 -1.0884  0.5924  1.1690
 1130SOL     OW 5831   6.111   0.188   7.107 -0.4190  0.0465  0.4465
 1130SOL    HW1 5832   6.165   0.111   7.092 -0.9371 -0.2773  0.2073
 1130SOL    HW2 5833   6.153   0.257   7.056 -2.3624 -1.1234 -3.0961
 1131SOL     OW 5834   2.648   6.307   3.034 -0.4245  0.5421 -0.6303
 1131SOL    HW1 5835   2.582   6.346   3.092  0.0833 -0.0311  0.3498
 1131SOL    HW2 5836   2.644   6.213   3.052  1.1644  0.5731 -0.0105
 1132SOL     OW 5837   5.871  10.460   8.872  0.3230  0.2230  0.1946
 1132SOL    HW1 5838   5.893  10.459   8.965  1.8257 -2.2611 -0.1145
 1132SOL    HW2 5839   5.948  10.496   8.830  0.6125 -0.8805 -0.2512
 1133SOL     OW 5840   5.864   0.077  10.346  0.3430  0.2201  0.2226
 1133SOL    HW1 5841   5.959   0.087  10.349  0.4292 -0.5234  0.0030
 1133SOL    HW2 5842   5.848   0.002  10.289 -0.3472 -0.0321  0.7210
 1134SOL     OW 5843   0.736   8.330   6.721  0.0146 -0.4952 -0.5081
 1134SOL    HW1 5844   0.767   8.414   6.686 -0.7178 -0.3233 -0.7571
 1134SOL    HW2 5845   0.666   8.304   6.661 -1.5434 -0.0083  1.0337
 1135SOL     OW 5846   3.276   6.966   5.579 -0.3005  0.7672 -0.1286
 1135SOL    HW1 5847   3.263   7.037   5.642  0.4912  0.4120  0.4532
 1135SOL    HW2 5848   3.309   6.893   5.631  0.6007  0.5393 -0.9765
 1136SOL     OW 5849   8.695   1.318   5.561  0.2967  0.8694 -0.6270
 1136SOL    HW1 5850   8.622   1.292   5.504  0.7985  0.7889 -1.2416
 1136SOL    HW2 5851   8.664   1.297   5.649  1.5945 -4.4691 -1.0894
 1137SOL     OW 5852   7.371   2.680   2.544  0.3436 -0.4163 -0.0961
 1137SOL    HW1 5853   7.338   2.753   2.596  1.7564 -0.1887  0.5182
 1137SOL    HW2 5854   7.333   2.602   2.584 -1.0034 -0.0562 -0.6297
 1138SOL     OW 5855   1.800   8.998   2.441 -0.0262  0.3524 -0.5124
 1138SOL    HW1 5856   1.830   8.955   2.361  0.3253  0.7753 -0.6085
 1138SOL    HW2 5857   1.705   9.004   2.431  0.0391  0.6117 -1.0049
 1139SOL     OW 5858   0.936   1.755   3.774 -0.6168 -0.1731  0.1005
 1139SOL    HW1 5859   0.858   1.741   3.720 -0.5308 -1.5495  0.2794
 1139SOL    HW2 5860   0.936   1.681   3.835  0.1555  0.4883  0.9370
 1140SOL     OW 5861   1.326   8.307   8.512  0.4798  0.3549 -0.0356
 1140SOL    HW1 5862   1.298   8.379   8.455  0.8816 -1.3847 -2.6046
 1140SOL    HW2 5863   1.415   8.288   8.484  0.6716 -0.6279  1.1614
 1141SOL     OW 5864   0.892   2.467   6.185  0.1553 -0.3798 -0.4406
 1141SOL    HW1 5865   0.966   2.526   6.171 -0.5400  0.2794 -1.4969
 1141SOL    HW2 5866   0.836   2.514   6.246  0.3389 -0.6371 -0.0711
 1142SOL     OW 5867   2.125   7.989   4.074  0.3162 -0.0515 -0.3918
 1142SOL    HW1 5868   2.189   8.058   4.091  2.1828 -1.6846 -0.4537
 1142SOL    HW2 5869   2.104   7.954   4.160 -1.0291  0.8775 -0.3097
 1143SOL     OW 5870  10.046   2.076   3.445 -0.2444  0.2778  0.3584
 1143SOL    HW1 5871  10.106   2.150   3.453  0.3481  0.2417 -2.7203
 1143SOL    HW2 5872   9.965   2.107   3.487  0.9498  1.4220  1.9517
 1144SOL     OW 5873   5.589   6.431   2.745  0.2629 -0.5388  0.1738
 1144SOL    HW1 5874   5.681   6.415   2.765  0.9201 -0.0927 -2.1619
 1144SOL    HW2 5875   5.591   6.481   2.663 -2.0521  0.0128  0.3897
 1145SOL     OW 5876  10.182   2.127   0.971  0.3614  0.2028  0.3740
 1145SOL    HW1 5877  10.098   2.090   0.996  0.2454  0.3165  0.1583
 1145SOL    HW2 5878  10.205   2.082   0.889  0.1484  0.7049  0.0310
 1146SOL     OW 5879   3.768   7.423   7.901  0.2602 -0.0855  0.0670
 1146SOL    HW1 5880   3.727   7.436   7.986  0.7180 -2.6984  0.7790
 1146SOL    HW2 5881   3.851   7.470   7.906  0.1604 -0.0022  0.9682
 1147SOL     OW 5882   5.883   2.631   5.627  0.1023  0.2742 -0.1026
 1147SOL    HW1 5883   5.860   2.662   5.715 -3.2352  1.4923 -1.2585
 1147SOL    HW2 5884   5.840   2.545   5.621 -0.6567  0.6965 -0.8856
 1148SOL     OW 5885   4.921   1.876   4.217 -0.2878  0.3062  0.4319
 1148SOL    HW1 5886   4.945   1.851   4.306  2.0607 -1.4711 -0.6097
 1148SOL    HW2 5887   4.953   1.805   4.162 -2.1001  1.1127 -1.8291
 1149SOL     OW 5888   0.373   4.333   0.226 -0.3719  0.1416 -0.3768
 1149SOL    HW1 5889   0.424   4.380   0.160 -1.4468  0.9129 -0.6823
 1149SOL    HW2 5890   0.375   4.390   0.303  0.4465 -0.5163  0.1060
 1150SOL     OW 5891   4.272   4.228   9.704 -0.7665  0.1612  0.3551
 1150SOL    HW1 5892   4.321   4.223   9.622 -0.2438 -0.2878  0.6870
 1150SOL    HW2 5893   4.229   4.144   9.712  0.1564 -0.2584  1.1261
 1151SOL     OW 5894   3.553   3.387   4.461 -0.6111  0.0410  0.1404
 1151SOL    HW1 5895   3.609   3.311   4.480  0.8142  1.1254  0.3894
 1151SOL    HW2 5896   3.468   3.364   4.500 -0.3640 -1.6328 -0.2294
 1152SOL     OW 5897   3.347   3.005   8.342  0.1386 -0.6238 -0.3049
 1152SOL    HW1 5898   3.335   3.036   8.431  0.3243 -0.9874 -0.1535
 1152SOL    HW2 5899   3.404   2.929   8.350  1.9970  0.6361 -0.9322
 1153SOL     OW 5900   4.652   3.626   0.542  0.5713 -1.0278 -0.0396
 1153SOL    HW1 5901   4.733   3.620   0.593  1.8341  2.7038 -1.2670
 1153SOL    HW2 5902   4.681   3.657   0.456 -2.0974 -0.4186 -0.7996
 1154SOL     OW 5903   8.217   1.161   4.164  0.1921  0.1434  0.2295
 1154SOL    HW1 5904   8.301   1.206   4.167  0.8509 -1.0992  1.7567
 1154SOL    HW2 5905   8.220   1.099   4.237 -1.7698 -0.4336 -0.1182
 1155SOL     OW 5906   3.473   6.506   9.895  0.0676  0.3404 -0.1536
 1155SOL    HW1 5907   3.547   6.481   9.949  0.4371  0.1901 -0.7164
 1155SOL    HW2 5908   3.409   6.542   9.956  1.1344  1.7207  0.2033
 1156SOL     OW 5909   2.054   7.134   6.130 -0.4630  0.0419  0.1351
 1156SOL    HW1 5910   2.015   7.218   6.155 -0.1444  0.5979 -1.1311
 1156SOL    HW2 5911   2.123   7.120   6.194 -1.2147  0.2048  1.0015
 1157SOL     OW 5912   5.937   5.888   9.743 -0.0231 -0.3084 -0.3629
 1157SOL    HW1 5913   5.998   5.961   9.754  0.1389 -0.8104  3.1205
 1157SOL    HW2 5914   5.983   5.812   9.778 -2.0605 -0.9929  1.0494
 1158SOL     OW 5915   1.749   6.772   2.817  0.9295  0.1921  0.0676
 1158SOL    HW1 5916   1.730   6.680   2.835  0.9016  0.3992  1.1354
 1158SOL    HW2 5917   1.671   6.804   2.771  1.3227 -0.5399 -1.1769
 1159SOL     OW 5918   2.283   5.278   4.611 -0.1170  0.2278  0.3307
 1159SOL    HW1 5919   2.204   5.307   4.656 -1.2091 -2.3480  0.2523
 1159SOL    HW2 5920   2.258   5.274   4.519  0.4567  0.4128  0.1606
 1160SOL     OW 5921   7.395   9.313   3.408 -0.8394 -0.0338  0.3036
 1160SOL    HW1 5922   7.352   9.273   3.484  0.3741 -0.8108  0.6101
 1160SOL    HW2 5923   7.415   9.240   3.350  0.2393  0.2781  0.2659
 1161SOL     OW 5924   5.654  10.041   9.401 -0.0621 -0.4272 -0.2244
 1161SOL    HW1 5925   5.591  10.092   9.349  0.5846 -1.7620 -2.4273
 1161SOL    HW2 5926   5.599   9.981   9.452 -0.6925  0.5424  0.2689
 1162SOL     OW 5927   6.712   5.323   3.222  0.4357  0.3141 -0.1806
 1162SOL    HW1 5928   6.717   5.267   3.300  0.1152  1.2774  0.5627
 1162SOL    HW2 5929   6.803   5.335   3.195  0.4640 -1.1922 -0.8402
 1163SOL     OW 5930   7.453   1.075   3.403  0.0639  0.1480  0.2766
 1163SOL    HW1 5931   7.393   1.049   3.334 -1.8791 -0.1984  2.0142
 1163SOL    HW2 5932   7.479   1.164   3.379 -0.5027  0.0187 -0.9093
 1164SOL     OW 5933   5.220   9.251   2.586  0.3886 -0.1844 -0.0563
 1164SOL    HW1 5934   5.231   9.206   2.670 -0.7609  1.0500  0.7977
 1164SOL    HW2 5935   5.144   9.208   2.546 -0.3659  0.5955  0.5085
 1165SOL     OW 5936   8.371   3.988   1.747  0.0972  0.3970 -0.4216
 1165SOL    HW1 5937   8.420   4.063   1.712 -0.0179 -0.0291 -1.5515
 1165SOL    HW2 5938   8.319   3.957   1.673  0.6273 -1.2019 -0.1685
 1166SOL     OW 5939   2.796   4.813   1.182 -0.1145  0.2359 -0.1869
 1166SOL    HW1 5940   2.776   4.810   1.276 -3.0256 -0.6569 -0.7392
 1166SOL    HW2 5941   2.755   4.894   1.152  0.6405  0.4154 -0.7525
 1167SOL     OW 5942   6.385   4.780   2.954 -0.0392  0.1914  0.4199
 1167SOL    HW1 5943   6.333   4.817   3.025 -1.6018 -1.1461  0.0505
 1167SOL    HW2 5944   6.455   4.731   2.997 -1.3671 -1.1763  1.1135
 1168SOL     OW 5945   6.712   2.327   0.190  0.4936 -0.1779 -0.5353
 1168SOL    HW1 5946   6.721   2.387   0.116  0.4111 -0.6265 -0.9106
 1168SOL    HW2 5947   6.734   2.380   0.266  0.4797  0.3146 -0.8701
 1169SOL     OW 5948   0.867   3.832   4.218 -0.6671  0.2202 -0.4635
 1169SOL    HW1 5949   0.942   3.879   4.180 -0.1830 -0.1106  0.0561
 1169SOL    HW2 5950   0.874   3.849   4.312 -0.3674 -1.0289 -0.2406
 1170SOL     OW 5951   4.673   6.521   2.951  0.2711  0.2624 -0.0097
 1170SOL    HW1 5952   4.734   6.464   2.905 -0.3929 -0.2041 -0.3199
 1170SOL    HW2 5953   4.649   6.473   3.030  0.0614  0.3072 -0.0452
 1171SOL     OW 5954   3.067   9.701  10.040  0.0378  0.5339  0.5216
 1171SOL    HW1 5955   3.063   9.678  10.133 -1.6003 -0.4542  0.2440
 1171SOL    HW2 5956   3.160   9.695  10.018  0.3304 -0.2523  1.8477
 1172SOL     OW 5957   8.821   2.928   0.916  0.1950  0.3470  0.0328
 1172SOL    HW1 5958   8.749   2.967   0.866  1.1250  1.0344 -0.7980
 1172SOL    HW2 5959   8.793   2.935   1.007 -0.4916  1.2222 -0.2298
 1173SOL     OW 5960   2.397   3.705   8.795  0.1008  0.1196  0.5062
 1173SOL    HW1 5961   2.394   3.786   8.846  0.3260 -0.1429  0.9469
 1173SOL    HW2 5962   2.336   3.646   8.840 -0.3097  0.1515 -0.0037
 1174SOL     OW 5963   3.366   7.696   3.639  0.2639  0.1797  0.2036
 1174SOL    HW1 5964   3.367   7.661   3.549 -1.0450 -1.3889  0.7369
 1174SOL    HW2 5965   3.388   7.788   3.629  2.8035 -0.4780 -1.4382
 1175SOL     OW 5966  10.379   7.060   7.880  0.3597  0.2715 -0.6070
 1175SOL    HW1 5967  10.429   7.034   7.957  0.1520  0.0885 -0.5346
 1175SOL    HW2 5968  10.372   7.156   7.888  0.9760  0.3363 -0.7914
 1176SOL     OW 5969   0.983   5.271   8.382 -0.1665 -1.0030 -0.4264
 1176SOL    HW1 5970   0.951   5.251   8.294 -0.6769  0.2393 -0.5514
 1176SOL    HW2 5971   1.072   5.237   8.384  0.0982 -0.4132 -1.6812
 1177SOL     OW 5972   4.604   5.529   9.032 -0.1895 -0.6012  0.2204
 1177SOL    HW1 5973   4.564   5.511   9.118  0.9918 -1.8919  0.5308
 1177SOL    HW2 5974   4.590   5.448   8.983 -2.9030  0.8728 -1.6950
 1178SOL     OW 5975   0.483   6.559   2.305  0.2102  0.2344  0.3908
 1178SOL    HW1 5976   0.555   6.532   2.248 -0.4292 -0.2607 -0.1950
 1178SOL    HW2 5977   0.410   6.502   2.281 -0.3564  0.6650  1.0404
 1179SOL     OW 5978   0.561   1.590   8.944 -0.2792 -0.7486  0.8550
 1179SOL    HW1 5979   0.548   1.608   9.037  0.3187  3.2915  0.3147
 1179SOL    HW2 5980   0.640   1.639   8.921 -0.4606 -1.5823 -1.8148
 1180SOL     OW 5981   5.166   6.423   7.545 -0.7414 -0.4046 -0.4860
 1180SOL    HW1 5982   5.085   6.376   7.565 -1.2556  0.6151 -0.0640
 1180SOL    HW2 5983   5.136   6.499   7.493 -0.0764  0.0514 -0.2120
 1181SOL     OW 5984   6.859   1.706   1.896 -0.8652 -0.1115 -0.1137
 1181SOL    HW1 5985   6.791   1.771   1.875 -0.0225  0.8351  0.0385
 1181SOL    HW2 5986   6.928   1.756   1.938  2.0938 -0.0867 -4.3960
 1182SOL     OW 5987   8.013   6.769   4.373  0.2021 -0.0838 -0.3966
 1182SOL    HW1 5988   7.994   6.863   4.364 -1.0034 -0.2747 -0.1100
 1182SOL    HW2 5989   7.991   6.732   4.287  1.0506 -0.0508 -0.6300
 1183SOL     OW 5990   9.716   3.367   9.764 -0.1083 -0.3125  0.2003
 1183SOL    HW1 5991   9.648   3.308   9.796 -1.3465  0.3822 -1.0385
 1183SOL    HW2 5992   9.679   3.455   9.777  0.1642  0.0465 -1.2940
 1184SOL     OW 5993   8.192   4.446   6.628  0.5148 -0.1199  0.2821
 1184SOL    HW1 5994   8.286   4.438   6.643  0.5822 -0.4669 -0.2908
 1184SOL    HW2 5995   8.156   4.475   6.712  1.2592  1.0563  0.2183
 1185SOL     OW 5996   8.617   4.874   0.427  0.1229 -0.3192 -0.4659
 1185SOL    HW1 5997   8.659   4.807   0.481  2.2357 -0.1235 -1.7150
 1185SOL    HW2 5998   8.683   4.943   0.420 -2.3532  2.5310  1.6902
 1186SOL     OW 5999   9.721   8.725   1.237 -0.4254 -0.2048 -0.0818
 1186SOL    HW1 6000   9.677   8.769   1.310  2.4287 -1.7369  2.8006
 1186SOL    HW2 6001   9.765   8.796   1.189 -0.2833  0.6430  1.2520
 1187SOL     OW 6002   3.260   6.555   5.215  0.2476 -0.0672  0.5867
 1187SOL    HW1 6003   3.347   6.529   5.244  0.5148  0.8142  0.5930
 1187SOL    HW2 6004   3.268   6.649   5.196 -0.0077 -0.5083 -1.9982
 1188SOL     OW 6005   8.798   0.391   5.416 -0.0058 -0.6409 -0.3885
 1188SOL    HW1 6006   8.803   0.428   5.328 -0.3251 -2.0047 -1.0158
 1188SOL    HW2 6007   8.859   0.317   5.414  1.7994  0.7014  1.3047
 1189SOL     OW 6008   8.071   6.892   8.665  0.6311  0.4653  0.0316
 1189SOL    HW1 6009   7.996   6.862   8.716  0.3847 -0.0346 -0.6052
 1189SOL    HW2 6010   8.068   6.987   8.670 -0.5525  0.4782 -0.6907
 1190SOL     OW 6011   3.062   4.279   5.392 -0.7257  0.1561 -0.3316
 1190SOL    HW1 6012   3.081   4.249   5.303 -0.2068  1.2863 -0.6167
 1190SOL    HW2 6013   3.061   4.199   5.444 -0.1332 -0.4330 -1.1952
 1191SOL     OW 6014   4.981   3.056   2.863 -0.2142 -0.6941  0.3103
 1191SOL    HW1 6015   4.889   3.072   2.883 -0.4281 -2.0356  0.5466
 1191SOL    HW2 6016   4.984   3.049   2.768 -0.2347  0.0128  0.2559
 1192SOL     OW 6017   3.149   2.866   2.584  0.4203  0.2302 -0.1156
 1192SOL    HW1 6018   3.218   2.928   2.561  1.2551 -0.9482 -0.8700
 1192SOL    HW2 6019   3.134   2.880   2.677  0.3853  1.7445 -0.3174
 1193SOL     OW 6020   7.405   1.892   3.843 -0.5282 -0.2466 -0.0438
 1193SOL    HW1 6021   7.484   1.873   3.894 -1.0170  0.3795  0.9681
 1193SOL    HW2 6022   7.437   1.904   3.753  0.3714 -1.1565  0.1300
 1194SOL     OW 6023   7.697   4.062   3.542 -0.1760 -0.1504  0.3651
 1194SOL    HW1 6024   7.659   4.123   3.480  0.3676 -0.3716 -0.1954
 1194SOL    HW2 6025   7.782   4.101   3.565 -1.5383  1.4571  3.2527
 1195SOL     OW 6026   7.045   5.038   2.616  0.1774  0.6971 -0.3093
 1195SOL    HW1 6027   7.120   4.980   2.629  0.4754  1.2584  0.5332
 1195SOL    HW2 6028   7.083   5.121   2.589 -0.1922  0.7580 -0.6528
 1196SOL     OW 6029   0.124   6.895   4.927 -0.1886  1.1288 -0.0073
 1196SOL    HW1 6030   0.043   6.909   4.976 -0.1495  1.1467  0.0522
 1196SOL    HW2 6031   0.103   6.824   4.866 -0.1219  0.8390  0.3065
 1197SOL     OW 6032   2.759   9.635   3.706  0.6200 -0.0724 -0.2345
 1197SOL    HW1 6033   2.840   9.683   3.688  1.1082 -1.2964 -1.5516
 1197SOL    HW2 6034   2.788   9.545   3.724 -0.4480 -0.7871 -1.7960
 1198SOL     OW 6035   8.089  10.335   6.174  0.0208 -0.4421 -0.0483
 1198SOL    HW1 6036   8.139  10.402   6.127 -0.4352 -0.3654 -0.4199
 1198SOL    HW2 6037   8.123  10.340   6.264  1.2014 -0.8948 -0.4502
 1199SOL     OW 6038   5.930   9.196   6.719  0.5006  0.0689  0.4660
 1199SOL    HW1 6039   5.965   9.142   6.648 -1.1845 -2.2219  1.2390
 1199SOL    HW2 6040   5.851   9.234   6.683  0.2967 -0.1135  0.7132
 1200SOL     OW 6041   2.885   6.871   2.894  0.3608  0.2393  0.3948
 1200SOL    HW1 6042   2.816   6.832   2.948  1.1796 -1.6763  0.1214
 1200SOL    HW2 6043   2.956   6.888   2.956 -0.0742  1.5920  0.5552
 1201SOL     OW 6044   6.251   6.569   2.469 -0.2710 -0.3807 -0.2991
 1201SOL    HW1 6045   6.155   6.568   2.466 -0.2417 -0.7536 -1.8825
 1201SOL    HW2 6046   6.273   6.660   2.490 -0.9743  0.2952 -2.2351
 1202SOL     OW 6047   9.704   6.087   1.608 -0.3187  0.1715 -0.2656
 1202SOL    HW1 6048   9.706   5.999   1.647 -1.6131 -0.8648 -2.3776
 1202SOL    HW2 6049   9.782   6.130   1.644  0.7436 -2.0654  0.3279
 1203SOL     OW 6050   7.725   6.819   2.104  0.0260 -0.0081  0.1750
 1203SOL    HW1 6051   7.744   6.826   2.010 -0.1453 -1.5936  0.0104
 1203SOL    HW2 6052   7.806   6.848   2.146  0.5832 -0.5881 -0.4766
 1204SOL     OW 6053   2.435   1.291   7.128 -0.4735  0.5682  0.6616
 1204SOL    HW1 6054   2.484   1.240   7.192 -0.3167  0.8455  0.7685
 1204SOL    HW2 6055   2.459   1.382   7.147 -0.0954  0.6283 -0.0646
 1205SOL     OW 6056   4.093   4.473  10.286 -0.7068  0.4803 -0.6798
 1205SOL    HW1 6057   4.172   4.476  10.232  0.4321 -0.0496  0.9078
 1205SOL    HW2 6058   4.022   4.471  10.222  0.6086 -1.7877 -2.2246
 1206SOL     OW 6059   8.221   1.634   4.415  0.1580  0.1079 -0.4771
 1206SOL    HW1 6060   8.234   1.697   4.486 -0.4337  0.6302 -0.8203
 1206SOL    HW2 6061   8.127   1.616   4.416  0.5066 -1.9870  0.6206
 1207SOL     OW 6062   6.897   4.737   2.044  0.1424  0.2596  0.7003
 1207SOL    HW1 6063   6.859   4.707   2.127  1.1415 -0.7214  0.8257
 1207SOL    HW2 6064   6.966   4.673   2.025 -1.4686 -0.8374 -2.0018
 1208SOL     OW 6065   6.891   5.367   2.360 -0.4109 -0.1547 -0.2511
 1208SOL    HW1 6066   6.925   5.299   2.303 -1.2975 -0.8072 -0.0179
 1208SOL    HW2 6067   6.864   5.321   2.439 -1.9666  0.2910 -0.4850
 1209SOL     OW 6068   0.306   5.841   2.665  0.9786 -0.0959  0.0796
 1209SOL    HW1 6069   0.283   5.857   2.757 -1.2398 -0.8847 -0.2741
 1209SOL    HW2 6070   0.233   5.879   2.615  1.9020 -0.1239 -1.3456
 1210SOL     OW 6071   0.352   7.874  10.260 -0.1108 -0.7916  0.0990
 1210SOL    HW1 6072   0.432   7.898  10.215  0.2745 -0.2311  1.0480
 1210SOL    HW2 6073   0.351   7.929  10.339 -0.7757 -1.6982  0.7467
 1211SOL     OW 6074   9.782   2.506   5.939 -0.1914  0.2638  0.1948
 1211SOL    HW1 6075   9.802   2.541   6.026  0.1924 -1.4221  0.8211
 1211SOL    HW2 6076   9.868   2.490   5.900 -0.3120 -1.6705  0.6553
 1212SOL     OW 6077   2.221   1.724   5.773  0.1023 -0.2979  0.0850
 1212SOL    HW1 6078   2.185   1.636   5.761  2.0382 -1.2487  0.9168
 1212SOL    HW2 6079   2.183   1.754   5.856 -0.4339 -0.3977 -0.1206
 1213SOL     OW 6080   0.236   1.960   7.788  0.3489  0.2506 -0.2179
 1213SOL    HW1 6081   0.260   1.896   7.721 -0.0081  0.6733 -0.7531
 1213SOL    HW2 6082   0.284   2.039   7.764  0.0660  0.4624 -0.0851
 1214SOL     OW 6083   1.002   5.854   3.280  0.2325  0.1890  0.3742
 1214SOL    HW1 6084   0.948   5.829   3.204  1.2393 -1.2626  0.0888
 1214SOL    HW2 6085   1.083   5.803   3.269  1.2429  1.5362  1.3351
 1215SOL     OW 6086   4.229   0.508   9.652 -0.3611  0.1024 -0.6185
 1215SOL    HW1 6087   4.210   0.430   9.705 -0.5159  1.2370  1.0721
 1215SOL    HW2 6088   4.227   0.476   9.561 -1.1113 -1.7079 -0.0204
 1216SOL     OW 6089   5.843   6.767   5.022  0.1201  0.0172 -0.2486
 1216SOL    HW1 6090   5.831   6.833   5.091  1.1159 -0.1625  0.1220
 1216SOL    HW2 6091   5.851   6.819   4.942 -3.2457  0.1356 -0.6251
 1217SOL     OW 6092   9.587   2.421   3.539  0.2950 -0.1801 -0.5847
 1217SOL    HW1 6093   9.620   2.345   3.489  0.2621  0.0496 -0.9604
 1217SOL    HW2 6094   9.532   2.382   3.606  0.6502 -0.5205 -0.4799
 1218SOL     OW 6095   8.494   1.882   7.907  0.0093  0.6839  0.7813
 1218SOL    HW1 6096   8.474   1.975   7.915 -2.4639  0.5281 -2.0298
 1218SOL    HW2 6097   8.568   1.878   7.847  1.8076  0.8113  2.8405
 1219SOL     OW 6098   6.526   1.528   9.561 -0.0219 -0.5259 -0.2661
 1219SOL    HW1 6099   6.620   1.539   9.542  0.0778  1.3803  1.0791
 1219SOL    HW2 6100   6.502   1.606   9.611 -2.5889 -0.4545 -1.4311
 1220SOL     OW 6101   5.141   7.530   9.320  0.4337  0.0311 -0.8365
 1220SOL    HW1 6102   5.179   7.473   9.387  2.7062  0.7200 -1.4403
 1220SOL    HW2 6103   5.066   7.482   9.287 -0.4475 -0.5867  1.7859
 1221SOL     OW 6104   9.313   6.656   3.991  0.0413 -0.3841  0.1350
 1221SOL    HW1 6105   9.299   6.588   4.057  0.3359 -0.8239 -0.2471
 1221SOL    HW2 6106   9.401   6.639   3.958  0.1151  0.1840  0.0308
 1222SOL     OW 6107   1.014   5.613   6.021 -0.2571  0.2963 -0.8537
 1222SOL    HW1 6108   0.999   5.519   6.032  0.8268  0.2162  0.2218
 1222SOL    HW2 6109   1.045   5.622   5.931 -0.1686 -0.4059 -0.8992
 1223SOL     OW 6110   3.715   3.415   7.391  0.1348  0.1529 -0.1620
 1223SOL    HW1 6111   3.674   3.334   7.421  0.7280 -0.3993 -0.8178
 1223SOL    HW2 6112   3.643   3.479   7.387 -0.1347 -0.0277  1.4265
 1224SOL     OW 6113   7.996   8.078   1.216  0.0644  0.3465  0.5703
 1224SOL    HW1 6114   7.905   8.066   1.243 -0.3776  0.3122 -0.8484
 1224SOL    HW2 6115   7.991   8.137   1.141  1.0355 -1.2179 -0.7762
 1225SOL     OW 6116   8.224  10.069   8.801 -0.2083  0.1398  0.9025
 1225SOL    HW1 6117   8.155  10.106   8.746  0.4420 -0.1751 -0.1470
 1225SOL    HW2 6118   8.270  10.007   8.745  1.5791  1.0780  1.2370
 1226SOL     OW 6119   9.782   8.577   9.037 -0.5467 -1.2394  0.2608
 1226SOL    HW1 6120   9.761   8.561   8.945 -0.4979  0.8760 -0.1690
 1226SOL    HW2 6121   9.853   8.515   9.056 -0.4326 -1.5894 -1.1864
 1227SOL     OW 6122   7.841   7.453   7.998  0.1851  0.2053 -0.0459
 1227SOL    HW1 6123   7.757   7.498   8.001 -1.0613 -1.8724 -1.2372
 1227SOL    HW2 6124   7.856   7.437   7.905  0.3291 -2.1379  0.3154
 1228SOL     OW 6125   4.252   2.255   3.254 -0.1682 -0.6150  0.0435
 1228SOL    HW1 6126   4.286   2.299   3.176  3.1587 -1.1490  1.0094
 1228SOL    HW2 6127   4.180   2.311   3.284 -0.8725  0.1453 -2.7710
 1229SOL     OW 6128   8.543   6.949   7.035  0.2603 -0.6190 -0.1722
 1229SOL    HW1 6129   8.537   7.023   7.095  2.8151 -0.6124  0.1928
 1229SOL    HW2 6130   8.559   6.874   7.092  1.9578 -0.7343 -0.7530
 1230SOL     OW 6131   1.876   5.453   4.182  0.3368  0.4657  0.3139
 1230SOL    HW1 6132   1.802   5.396   4.159  1.3306 -1.9445  2.6101
 1230SOL    HW2 6133   1.920   5.469   4.098 -0.8160 -0.9862 -0.6320
 1231SOL     OW 6134   2.408   2.031   0.061  0.2940 -0.0482  0.0277
 1231SOL    HW1 6135   2.314   2.024   0.081  0.1779  1.5309  0.1484
 1231SOL    HW2 6136   2.432   1.944   0.031 -1.4866 -0.2287 -1.0807
 1232SOL     OW 6137   2.274   4.435   8.813 -0.2654 -0.0551  0.2407
 1232SOL    HW1 6138   2.203   4.371   8.819  0.5246 -0.8488  2.1921
 1232SOL    HW2 6139   2.235   4.516   8.845 -0.4864 -0.3321  0.6942
 1233SOL     OW 6140   6.946   0.644   0.163  0.6930 -0.2678 -0.6323
 1233SOL    HW1 6141   7.021   0.691   0.200  1.0548 -0.6613 -0.8631
 1233SOL    HW2 6142   6.880   0.647   0.232  1.8558 -2.2448  0.6686
 1234SOL     OW 6143   6.388   5.774   4.068  0.0372 -0.8346 -0.4540
 1234SOL    HW1 6144   6.461   5.769   4.005  1.2022  1.7798  0.5475
 1234SOL    HW2 6145   6.430   5.766   4.154 -1.1798 -1.4714  0.1089
 1235SOL     OW 6146   3.007   1.604   8.215  0.1370  0.3772 -0.0513
 1235SOL    HW1 6147   3.099   1.615   8.238 -0.5817  3.2943  2.1119
 1235SOL    HW2 6148   2.969   1.556   8.288 -0.3878  0.9224  0.0460
 1236SOL     OW 6149   4.513   9.830   7.339  0.3628  0.1051 -0.5226
 1236SOL    HW1 6150   4.576   9.804   7.271  0.4793 -2.2815  0.4236
 1236SOL    HW2 6151   4.440   9.770   7.328 -0.1156  0.4266  0.7352
 1237SOL     OW 6152   5.981   3.540   4.546  0.1313  0.0883 -0.1150
 1237SOL    HW1 6153   6.044   3.567   4.479 -0.5090  0.3101 -0.6287
 1237SOL    HW2 6154   5.927   3.473   4.504  1.0412 -1.3014  0.8282
 1238SOL     OW 6155   1.209   2.163   0.355 -0.5692  0.4871  0.7210
 1238SOL    HW1 6156   1.122   2.124   0.365  0.4596 -2.3622 -0.4170
 1238SOL    HW2 6157   1.207   2.205   0.269 -0.5620 -0.4609  0.2387
 1239SOL     OW 6158   1.136   1.674  10.266 -0.1818  0.5110 -0.3618
 1239SOL    HW1 6159   1.171   1.588  10.286 -0.3541  0.6653  0.6444
 1239SOL    HW2 6160   1.115   1.670  10.172 -1.7270 -1.1054 -0.0080
 1240SOL     OW 6161   4.963   5.441   7.019  0.1774  0.3914 -0.1289
 1240SOL    HW1 6162   5.037   5.410   7.072  0.4989  0.7391 -0.3710
 1240SOL    HW2 6163   4.970   5.537   7.023 -0.8907  0.4476  0.7392
 1241SOL     OW 6164   2.864   1.322   2.246  0.1356 -0.2425  0.4413
 1241SOL    HW1 6165   2.934   1.259   2.264 -0.2925 -0.7368  0.4124
 1241SOL    HW2 6166   2.899   1.406   2.275 -0.1719 -0.8551  2.7507
 1242SOL     OW 6167   3.442   1.769   8.839  0.8085 -0.3140  0.4839
 1242SOL    HW1 6168   3.443   1.864   8.825 -0.0983 -0.5796 -1.7976
 1242SOL    HW2 6169   3.383   1.757   8.913 -0.7250  0.8181 -0.4856
 1243SOL     OW 6170  10.302   9.720   9.333 -0.0541 -0.1759  0.2345
 1243SOL    HW1 6171  10.318   9.657   9.262 -2.4747  0.9940 -1.4649
 1243SOL    HW2 6172  10.257   9.669   9.400  2.3341 -1.3135  1.1210
 1244SOL     OW 6173   2.303   4.891   4.296 -0.5726  0.4204 -0.3646
 1244SOL    HW1 6174   2.298   4.878   4.390 -0.4144  1.6682 -0.1702
 1244SOL    HW2 6175   2.211   4.894   4.268 -0.6334 -1.3863 -0.4944
 1245SOL     OW 6176   9.203   7.182   4.236 -0.1201 -0.5061 -0.0029
 1245SOL    HW1 6177   9.175   7.272   4.222 -0.9630 -0.6591  0.5965
 1245SOL    HW2 6178   9.242   7.182   4.323 -0.3562 -0.7696  0.1048
 1246SOL     OW 6179   8.669   4.960   2.391  0.3257  0.2020 -0.0968
 1246SOL    HW1 6180   8.715   4.898   2.447 -0.1953  0.2504  0.4013
 1246SOL    HW2 6181   8.590   4.982   2.441  0.0253  0.5102 -0.7020
 1247SOL     OW 6182   9.395   5.304   3.562  0.2056  0.0545 -0.1764
 1247SOL    HW1 6183   9.475   5.334   3.605  0.6735  0.4118 -1.2521
 1247SOL    HW2 6184   9.401   5.340   3.473 -0.6952 -0.7038 -0.5593
 1248SOL     OW 6185   8.122   6.047   6.432 -0.1899 -0.1282 -0.4061
 1248SOL    HW1 6186   8.174   6.117   6.391 -0.1228  0.2176  0.2576
 1248SOL    HW2 6187   8.065   6.016   6.361 -0.1257  0.5073 -0.7500
 1249SOL     OW 6188   0.825   9.110   5.163  0.1773  0.2352 -0.1937
 1249SOL    HW1 6189   0.792   9.066   5.242 -0.4442  0.5423 -0.2794
 1249SOL    HW2 6190   0.854   9.196   5.194  0.2851  0.2135 -0.2349
 1250SOL     OW 6191   6.376   0.043   1.520  0.3277  0.1288 -0.5783
 1250SOL    HW1 6192   6.307   0.107   1.541  1.2902  0.5869  1.4462
 1250SOL    HW2 6193   6.454   0.096   1.505  0.8423 -0.4962 -0.1838
 1251SOL     OW 6194   9.295   2.659   4.727  0.1707 -0.2437 -0.5780
 1251SOL    HW1 6195   9.299   2.601   4.650 -0.5916 -1.1735  0.0588
 1251SOL    HW2 6196   9.222   2.625   4.778  0.5376  0.4982  0.4584
 1252SOL     OW 6197   8.571   2.769   5.632  0.7459 -0.1732 -0.2056
 1252SOL    HW1 6198   8.500   2.720   5.674  1.2101 -0.0272  0.7738
 1252SOL    HW2 6199   8.530   2.851   5.603  0.6676  0.2815  1.1018
 1253SOL     OW 6200   7.916   5.295   6.275  0.0895  0.1678 -0.4488
 1253SOL    HW1 6201   8.012   5.295   6.268  0.0929  0.2258 -0.3982
 1253SOL    HW2 6202   7.886   5.254   6.193  0.1947 -1.0308  0.0924
 1254SOL     OW 6203   6.573   7.002   0.910  0.4589 -0.0505 -0.6734
 1254SOL    HW1 6204   6.608   6.913   0.919 -1.2876 -0.9088 -1.6208
 1254SOL    HW2 6205   6.526   7.000   0.826 -0.6055  1.4020 -0.1527
 1255SOL     OW 6206   6.882   9.129   5.044  0.2949 -0.0107  0.0333
 1255SOL    HW1 6207   6.972   9.162   5.038  1.3599 -2.4445  1.1273
 1255SOL    HW2 6208   6.857   9.109   4.954  1.6147 -1.0992 -0.1173
 1256SOL     OW 6209   0.476   1.305   4.965 -0.1349 -0.7265 -0.8840
 1256SOL    HW1 6210   0.529   1.262   5.033 -0.5275  1.1128  0.7006
 1256SOL    HW2 6211   0.526   1.383   4.942 -0.9161 -0.3381 -1.3112
 1257SOL     OW 6212   5.223   7.479   0.020 -0.2966  0.2080 -0.1860
 1257SOL    HW1 6213   5.229   7.560   0.070  0.5401 -0.3727  0.6710
 1257SOL    HW2 6214   5.275   7.495  -0.059 -1.9588  1.2738 -1.1280
 1258SOL     OW 6215   5.162   9.392   9.503 -0.1897  0.3368  0.5803
 1258SOL    HW1 6216   5.138   9.474   9.460 -0.7046  0.2488  0.6955
 1258SOL    HW2 6217   5.105   9.326   9.464  1.6755 -0.3911 -1.0718
 1259SOL     OW 6218   3.651   8.764   3.665  0.5292  0.5237 -0.0175
 1259SOL    HW1 6219   3.612   8.766   3.752  1.7180  1.0260  0.5232
 1259SOL    HW2 6220   3.742   8.788   3.679  0.4219  2.0233 -1.5827
 1260SOL     OW 6221   5.360   4.742   7.443  0.3949  0.1230  0.7125
 1260SOL    HW1 6222   5.284   4.729   7.499  0.9834  0.5564  1.6362
 1260SOL    HW2 6223   5.433   4.754   7.503  1.0084  0.8613 -0.1361
 1261SOL     OW 6224   5.241   4.130   6.544 -0.2505  0.1434 -0.5005
 1261SOL    HW1 6225   5.194   4.137   6.627  1.5961  0.4592  0.5597
 1261SOL    HW2 6226   5.260   4.036   6.535 -0.4771  0.1051 -0.5826
 1262SOL     OW 6227   2.115   2.537   7.999 -0.3099 -0.0898  0.1270
 1262SOL    HW1 6228   2.163   2.618   7.982 -0.9119  0.2587  0.0573
 1262SOL    HW2 6229   2.175   2.485   8.053  1.6283 -1.1994 -2.8205
 1263SOL     OW 6230   6.197   4.843   1.622 -0.5901 -0.0123  0.3915
 1263SOL    HW1 6231   6.121   4.831   1.679 -0.6284  0.1428  0.3753
 1263SOL    HW2 6232   6.245   4.916   1.663  1.0137 -1.8414  1.9741
 1264SOL     OW 6233  10.160   9.598   1.268 -0.6678  0.1874 -0.4594
 1264SOL    HW1 6234  10.107   9.530   1.309 -0.4616  1.2435  1.7011
 1264SOL    HW2 6235  10.109   9.626   1.192 -1.9898 -0.5659  0.1161
 1265SOL     OW 6236   2.999   3.251   2.963  0.5950  0.2725 -0.9109
 1265SOL    HW1 6237   2.964   3.277   2.878 -0.3371 -0.2839 -0.7123
 1265SOL    HW2 6238   3.090   3.281   2.961  0.1648  1.6327 -1.4960
 1266SOL     OW 6239   5.639   3.788   4.900 -0.4473  0.1254  0.0522
 1266SOL    HW1 6240   5.674   3.871   4.932 -1.4668 -0.4030  2.7823
 1266SOL    HW2 6241   5.547   3.790   4.923 -0.5432 -1.6706 -0.0292
 1267SOL     OW 6242   0.306   5.086   3.733  0.0208 -0.4584 -0.0392
 1267SOL    HW1 6243   0.368   5.029   3.780 -0.8816 -1.3121  0.1546
 1267SOL    HW2 6244   0.244   5.025   3.693 -1.1765  0.4045  0.4648
 1268SOL     OW 6245   1.194   7.913   1.490  0.0339 -0.1978 -0.0419
 1268SOL    HW1 6246   1.171   7.898   1.582 -0.1282  0.3200  0.0031
 1268SOL    HW2 6247   1.234   7.831   1.462 -1.8757 -1.1372 -0.1446
 1269SOL     OW 6248   0.397   1.114   7.659  0.8434  0.6175  0.3566
 1269SOL    HW1 6249   0.431   1.166   7.731  2.9676 -1.9179  1.3615
 1269SOL    HW2 6250   0.475   1.075   7.619 -0.5734 -1.6536 -0.3542
 1270SOL     OW 6251   3.358   7.420   2.699  0.2153  0.0349  0.2977
 1270SOL    HW1 6252   3.274   7.455   2.671 -0.6309 -0.4574  2.1239
 1270SOL    HW2 6253   3.371   7.342   2.644 -0.7581 -0.1576  0.3276
 1271SOL     OW 6254   8.833   7.994   3.791  0.0509  0.0662  0.1481
 1271SOL    HW1 6255   8.767   8.055   3.822 -0.4562 -1.5559  2.5656
 1271SOL    HW2 6256   8.915   8.026   3.829  0.3678  0.9597 -1.2145
 1272SOL     OW 6257   7.506   9.439   1.956  0.3608  0.1354  0.1377
 1272SOL    HW1 6258   7.482   9.372   1.892  0.4216 -0.0364  0.2927
 1272SOL    HW2 6259   7.600   9.452   1.944  0.2924  0.4075 -0.0935
 1273SOL     OW 6260   8.733  10.072   8.349 -0.6305  0.5192 -0.6839
 1273SOL    HW1 6261   8.673   9.998   8.360 -0.4907  0.7325  2.2738
 1273SOL    HW2 6262   8.818  10.039   8.378 -0.6091  1.8298  0.9031
 1274SOL     OW 6263   5.823   9.076   0.982 -0.3286 -0.3549  0.9163
 1274SOL    HW1 6264   5.907   9.091   0.940 -1.6550 -1.5804 -2.4883
 1274SOL    HW2 6265   5.777   9.160   0.977 -0.5634 -0.5509 -0.3915
 1275SOL     OW 6266   7.712   2.455   8.301  0.5420 -0.7990 -0.4020
 1275SOL    HW1 6267   7.800   2.489   8.283  0.2620  0.7753  0.9462
 1275SOL    HW2 6268   7.655   2.500   8.239  0.4576 -0.4031 -0.0438
 1276SOL     OW 6269   3.722   8.750   2.025  0.3423 -0.3437  0.1286
 1276SOL    HW1 6270   3.658   8.705   2.079 -0.3552  1.2671  0.7041
 1276SOL    HW2 6271   3.806   8.735   2.069  0.2656 -1.7690 -0.1736
 1277SOL     OW 6272   0.780  10.220   5.741  0.3569  0.1368 -0.0090
 1277SOL    HW1 6273   0.786  10.132   5.778  0.5782  0.2531  0.2411
 1277SOL    HW2 6274   0.776  10.206   5.646 -0.1151 -0.1615  0.0502
 1278SOL     OW 6275   1.744   1.717   7.731 -0.1011  0.5177  0.6946
 1278SOL    HW1 6276   1.794   1.643   7.766  0.4254 -0.3964 -1.7762
 1278SOL    HW2 6277   1.712   1.763   7.809  1.1799 -1.1841  2.3321
 1279SOL     OW 6278   6.713   1.977   9.662 -0.2693 -0.0376  0.4795
 1279SOL    HW1 6279   6.748   2.005   9.747 -1.6956  0.1408  1.0353
 1279SOL    HW2 6280   6.728   2.051   9.604 -0.7762  0.4762  1.0045
 1280SOL     OW 6281   9.433   5.178   7.654 -0.5530  0.2548  0.3826
 1280SOL    HW1 6282   9.415   5.150   7.744  1.3994  2.1919  1.4518
 1280SOL    HW2 6283   9.487   5.256   7.663  1.6499 -0.7699 -2.4948
 1281SOL     OW 6284   6.216   4.895   3.150 -0.4166  0.3166  0.6474
 1281SOL    HW1 6285   6.154   4.950   3.198 -0.6445 -0.4802  1.2984
 1281SOL    HW2 6286   6.286   4.955   3.125 -0.5316  0.8645  1.5557
 1282SOL     OW 6287   0.655   6.547   7.305  0.6119  0.2068 -0.2993
 1282SOL    HW1 6288   0.565   6.560   7.337  0.9544 -0.5891  1.0851
 1282SOL    HW2 6289   0.684   6.634   7.281 -0.5261  0.4825 -0.7728
 1283SOL     OW 6290   2.130   4.477   3.453  0.2695  0.3880  0.0716
 1283SOL    HW1 6291   2.192   4.542   3.419 -0.1316 -0.6788 -2.9700
 1283SOL    HW2 6292   2.185   4.413   3.499  0.7410  2.3403  2.4419
 1284SOL     OW 6293   9.924   7.890   2.344 -0.0104  0.5503 -0.0859
 1284SOL    HW1 6294   9.845   7.841   2.364  1.4057 -1.9190 -0.0541
 1284SOL    HW2 6295   9.980   7.879   2.421  1.5768 -0.5348 -1.3113
 1285SOL     OW 6296   7.822   0.057   1.918  0.1852 -0.5449  0.0074
 1285SOL    HW1 6297   7.778   0.093   1.840 -2.7168  0.4914  1.9685
 1285SOL    HW2 6298   7.880   0.128   1.947 -0.1943 -0.1777 -0.1179
 1286SOL     OW 6299   4.474   9.399   3.911  0.2762 -0.1173  0.2614
 1286SOL    HW1 6300   4.386   9.434   3.898  0.9402  1.0525 -1.3739
 1286SOL    HW2 6301   4.529   9.448   3.850  2.0917 -0.7562  1.3100
 1287SOL     OW 6302   5.180   6.238   2.946 -0.0108  0.2399 -0.5463
 1287SOL    HW1 6303   5.167   6.146   2.923  0.8845  0.3553 -1.5919
 1287SOL    HW2 6304   5.229   6.274   2.872  0.1684  1.4147  0.1316
 1288SOL     OW 6305   1.331   8.638   5.555 -0.2362 -0.8254  0.1885
 1288SOL    HW1 6306   1.426   8.642   5.546 -0.2449  1.2603  0.5577
 1288SOL    HW2 6307   1.297   8.646   5.466 -0.0502  0.8756  0.2278
 1289SOL     OW 6308   6.550   0.348   2.423 -0.3746 -0.0571 -0.2440
 1289SOL    HW1 6309   6.637   0.387   2.421 -0.6208  0.4914 -2.1222
 1289SOL    HW2 6310   6.516   0.370   2.510  0.5935  1.4236 -0.2055
 1290SOL     OW 6311   4.286   0.341   4.249  0.1716  0.4674 -0.2666
 1290SOL    HW1 6312   4.208   0.372   4.202  1.3158  2.2607 -1.0972
 1290SOL    HW2 6313   4.354   0.337   4.182  0.9769 -0.4257  0.5797
 1291SOL     OW 6314   5.465   3.081   8.345  0.1765  0.1694 -0.2038
 1291SOL    HW1 6315   5.472   3.013   8.412  1.8938  0.4228 -0.0800
 1291SOL    HW2 6316   5.444   3.161   8.395 -1.6291 -0.1934 -0.3279
 1292SOL     OW 6317   8.707   6.284   8.087  0.3440  0.3278 -0.0108
 1292SOL    HW1 6318   8.798   6.296   8.059  0.6193  0.6217  0.9665
 1292SOL    HW2 6319   8.708   6.301   8.181 -0.4739 -1.0727  0.2765
 1293SOL     OW 6320   7.099   3.867   0.689  0.0997 -0.1383 -0.5519
 1293SOL    HW1 6321   7.023   3.895   0.740 -0.1804  0.8840 -1.4973
 1293SOL    HW2 6322   7.174   3.902   0.738 -0.1928  1.2914 -1.0689
 1294SOL     OW 6323   1.539   2.553   1.318  0.3321 -0.3434 -0.1283
 1294SOL    HW1 6324   1.470   2.491   1.340  0.6113 -1.2188 -1.5950
 1294SOL    HW2 6325   1.614   2.527   1.372  1.3379 -3.0870 -2.5643
 1295SOL     OW 6326   9.193   1.054   6.281  0.5276  0.3733 -0.4867
 1295SOL    HW1 6327   9.230   1.139   6.304 -1.1623  0.8948  0.5005
 1295SOL    HW2 6328   9.104   1.056   6.317  0.3452 -1.7081 -0.6935
 1296SOL     OW 6329   3.556   4.936   0.189  0.2778 -0.3516  0.0692
 1296SOL    HW1 6330   3.551   4.843   0.168  1.3602 -0.1755 -1.1092
 1296SOL    HW2 6331   3.540   4.980   0.105  0.5173  0.5113  0.4609
 1297SOL     OW 6332   5.299   0.733   5.019 -0.3870  0.2801  0.0177
 1297SOL    HW1 6333   5.249   0.651   5.022  0.1235 -0.0127  0.8671
 1297SOL    HW2 6334   5.377   0.710   4.969 -0.3464  0.3066  0.0695
 1298SOL     OW 6335   1.966   1.485   6.321  0.2498  0.0101  0.0470
 1298SOL    HW1 6336   2.041   1.473   6.379 -0.5427 -0.0399  1.0828
 1298SOL    HW2 6337   1.892   1.498   6.380 -0.5020  0.4209 -0.9626
 1299SOL     OW 6338   2.242   5.510   5.634 -0.0053 -0.1948 -0.1115
 1299SOL    HW1 6339   2.221   5.599   5.606 -0.5772 -0.5467 -0.8450
 1299SOL    HW2 6340   2.325   5.490   5.592  0.7247  0.4026  1.0026
 1300SOL     OW 6341   6.909   9.064   3.833 -0.1736  0.5038 -0.0927
 1300SOL    HW1 6342   6.947   9.146   3.865 -1.0025  1.2648 -0.9783
 1300SOL    HW2 6343   6.820   9.063   3.868 -0.2195  0.0546 -0.2139
 1301SOL     OW 6344   1.916   9.597   5.825  0.1754 -0.4243 -0.6071
 1301SOL    HW1 6345   1.838   9.551   5.793  0.7385 -2.5494  0.8721
 1301SOL    HW2 6346   1.882   9.655   5.893 -0.3307  0.0702 -1.2656
 1302SOL     OW 6347   0.003   6.438   4.519 -0.3239 -0.6743 -0.2946
 1302SOL    HW1 6348   0.088   6.412   4.482  0.0338 -0.2605  0.2095
 1302SOL    HW2 6349  -0.026   6.511   4.465  0.4308  0.2493  0.4999
 1303SOL     OW 6350   9.062   8.094   1.034  0.6134  0.2041 -0.2826
 1303SOL    HW1 6351   9.061   8.179   1.078 -0.5020  0.1887 -0.2509
 1303SOL    HW2 6352   9.017   8.035   1.095 -1.5751  0.3273 -1.6486
 1304SOL     OW 6353   5.701   5.292   9.040  1.2253 -0.0216  0.2570
 1304SOL    HW1 6354   5.734   5.209   9.004  1.0003 -0.0154  0.0340
 1304SOL    HW2 6355   5.607   5.288   9.025  1.0786 -0.1855  1.1946
 1305SOL     OW 6356  10.150   8.485   3.059  0.6138 -0.0985  0.0443
 1305SOL    HW1 6357  10.062   8.454   3.038  0.1860  0.3949  1.0641
 1305SOL    HW2 6358  10.187   8.510   2.975 -0.8269  1.2574 -0.2287
 1306SOL     OW 6359   8.153   5.307  10.125  0.0109  0.1014 -0.2035
 1306SOL    HW1 6360   8.182   5.257  10.049 -1.0650 -0.8587 -0.0275
 1306SOL    HW2 6361   8.107   5.242  10.179  2.0602  0.3800  2.0383
 1307SOL     OW 6362   8.558   9.033   5.103  0.3772  0.3932 -1.1026
 1307SOL    HW1 6363   8.584   8.980   5.179 -1.7653  1.3371  0.3968
 1307SOL    HW2 6364   8.508   8.973   5.048  0.9755 -0.0233 -1.1941
 1308SOL     OW 6365   7.295   0.784   7.500 -0.2465  0.0369 -0.2552
 1308SOL    HW1 6366   7.213   0.794   7.549  0.1482  1.0148  0.2161
 1308SOL    HW2 6367   7.276   0.713   7.438 -1.5503  0.4515 -0.3725
 1309SOL     OW 6368   2.491   2.503   0.873 -0.0012  0.1432 -0.1940
 1309SOL    HW1 6369   2.543   2.517   0.794 -0.8148 -0.4658 -0.8557
 1309SOL    HW2 6370   2.515   2.576   0.930 -1.1166  1.9683 -1.9050
 1310SOL     OW 6371   6.141   6.599   1.460 -1.0578 -0.2839 -1.0495
 1310SOL    HW1 6372   6.049   6.575   1.472 -0.8545 -0.1457  1.1436
 1310SOL    HW2 6373   6.190   6.523   1.491 -0.4539  0.3705 -0.3411
 1311SOL     OW 6374   7.229   6.067   8.952 -0.0074 -0.1979  0.6325
 1311SOL    HW1 6375   7.173   5.998   8.916  0.0871 -0.1318  0.3547
 1311SOL    HW2 6376   7.292   6.086   8.882  0.2738 -0.1741  0.8895
 1312SOL     OW 6377   7.088   3.116   2.355  0.4988  0.0413 -0.0579
 1312SOL    HW1 6378   7.095   3.067   2.273  0.0070 -0.8626  0.4304
 1312SOL    HW2 6379   6.996   3.109   2.379  1.0435 -1.6814  1.7526
 1313SOL     OW 6380   1.596   0.690   7.347 -0.6669  0.8644  0.3787
 1313SOL    HW1 6381   1.553   0.774   7.362  0.1511  1.2408  0.6780
 1313SOL    HW2 6382   1.552   0.629   7.407 -1.4436  1.0099 -0.0349
 1314SOL     OW 6383   9.188   5.394   5.396 -0.1234  0.2167  0.2838
 1314SOL    HW1 6384   9.109   5.441   5.423 -0.2978 -0.0517  0.2448
 1314SOL    HW2 6385   9.171   5.371   5.304 -0.1935 -0.2411  0.4100
 1315SOL     OW 6386   0.683   7.697   1.907 -0.2490 -0.4254 -0.0651
 1315SOL    HW1 6387   0.736   7.641   1.850  0.6422  0.3841 -0.0500
 1315SOL    HW2 6388   0.673   7.779   1.857  1.4227  0.6924  1.3188
 1316SOL     OW 6389   0.592   2.131   6.231 -0.2113  0.0211 -0.3493
 1316SOL    HW1 6390   0.626   2.190   6.164  0.4023 -0.4972 -0.5022
 1316SOL    HW2 6391   0.562   2.054   6.183  0.6653 -0.5527  0.0065
 1317SOL     OW 6392   7.471   6.235   5.743  0.0619 -0.2105  0.8653
 1317SOL    HW1 6393   7.378   6.217   5.754 -0.1971 -0.8411 -1.6528
 1317SOL    HW2 6394   7.477   6.331   5.739 -1.2052 -0.1067 -2.9018
 1318SOL     OW 6395   4.089   7.227   5.145  0.1486  0.2376  0.4021
 1318SOL    HW1 6396   3.996   7.224   5.121  0.5800 -0.7389 -1.3168
 1318SOL    HW2 6397   4.109   7.320   5.153 -0.7002  0.5100 -0.4586
 1319SOL     OW 6398   2.382   0.063   3.632  0.5237 -0.1950  0.0402
 1319SOL    HW1 6399   2.477   0.065   3.624  0.5369 -1.8085 -0.5638
 1319SOL    HW2 6400   2.350   0.119   3.561  1.0124 -0.2134 -0.1959
 1320SOL     OW 6401   0.790   2.592  10.118  0.2936  0.0223  0.1227
 1320SOL    HW1 6402   0.878   2.594  10.081  0.2523 -1.2842 -0.0738
 1320SOL    HW2 6403   0.779   2.503  10.151 -1.0618  0.0840 -0.1137
 1321SOL     OW 6404   8.229   4.518   3.882  0.2591  0.1570  0.1844
 1321SOL    HW1 6405   8.200   4.432   3.850  0.6206  0.2476 -0.3831
 1321SOL    HW2 6406   8.322   4.507   3.900  0.1554  0.2365  0.7729
 1322SOL     OW 6407   4.891   3.899   0.575 -0.5860  0.5517 -0.3777
 1322SOL    HW1 6408   4.834   3.973   0.597 -1.5499  0.4540 -2.2686
 1322SOL    HW2 6409   4.845   3.822   0.609 -0.9616  0.5976 -0.7634
 1323SOL     OW 6410   4.422   3.741   8.564 -0.0519  0.2457 -0.0944
 1323SOL    HW1 6411   4.514   3.719   8.577  0.2417  0.5209 -1.4985
 1323SOL    HW2 6412   4.387   3.667   8.513 -0.6011  0.1781  0.3633
 1324SOL     OW 6413  10.282   0.810   1.578 -0.3012  0.0619  0.2907
 1324SOL    HW1 6414  10.221   0.748   1.616 -0.3962 -0.2309 -0.3156
 1324SOL    HW2 6415  10.234   0.849   1.505  0.2456 -0.2281 -0.2402
 1325SOL     OW 6416   1.282   9.978   8.087 -0.5414 -0.0065 -0.4333
 1325SOL    HW1 6417   1.342  10.030   8.140 -1.1407 -0.8218  1.1140
 1325SOL    HW2 6418   1.196   9.993   8.126 -0.6459 -2.7242  0.6380
 1326SOL     OW 6419   3.902   0.913   2.541 -0.5347  0.1776  0.1972
 1326SOL    HW1 6420   3.972   0.884   2.599 -1.1059  1.6798  1.7384
 1326SOL    HW2 6421   3.917   0.866   2.459  0.4368 -1.8929  1.4645
 1327SOL     OW 6422   2.242  10.300   8.849 -0.2756 -0.4242  0.2418
 1327SOL    HW1 6423   2.267  10.390   8.869 -0.2691 -0.2375 -0.5749
 1327SOL    HW2 6424   2.175  10.308   8.781  0.0576 -1.0430 -0.1734
 1328SOL     OW 6425   2.363   3.983   8.926 -0.4884  0.2729  0.0593
 1328SOL    HW1 6426   2.346   4.063   8.975 -0.4671 -0.4821  1.3409
 1328SOL    HW2 6427   2.320   3.997   8.841 -1.4639  1.1682  0.6799
 1329SOL     OW 6428   8.151   1.973   4.029  0.0450  0.4920 -0.2436
 1329SOL    HW1 6429   8.075   1.931   4.069  0.3783 -0.0646 -0.1956
 1329SOL    HW2 6430   8.212   1.902   4.012  0.9609  1.0492  0.6042
 1330SOL     OW 6431   5.460   8.094   3.927 -0.0120 -0.5656 -0.2254
 1330SOL    HW1 6432   5.384   8.055   3.884 -0.0033 -0.2927 -0.4952
 1330SOL    HW2 6433   5.525   8.102   3.857  0.5361 -1.4848  0.1643
 1331SOL     OW 6434   2.053   3.872   2.430  0.2693  0.1129 -0.0754
 1331SOL    HW1 6435   2.029   3.962   2.406 -0.7929 -0.3292 -0.7790
 1331SOL    HW2 6436   2.147   3.875   2.444  0.3017  1.2718 -0.4224
 1332SOL     OW 6437   7.073   6.119   3.720  0.0443  0.6769 -0.4396
 1332SOL    HW1 6438   7.130   6.169   3.661 -0.3074  1.0280 -0.4895
 1332SOL    HW2 6439   7.052   6.181   3.791  1.7773 -0.2393  0.9435
 1333SOL     OW 6440   5.539   3.261   9.538  0.2371 -0.1563 -0.2751
 1333SOL    HW1 6441   5.486   3.242   9.461  0.5478  0.0262 -0.5333
 1333SOL    HW2 6442   5.630   3.259   9.507  0.3611 -0.0138  0.0678
 1334SOL     OW 6443   0.570   0.997   1.262 -0.0762  0.2933 -0.3741
 1334SOL    HW1 6444   0.596   1.045   1.184  1.2977  1.4013  0.7113
 1334SOL    HW2 6445   0.620   0.915   1.257  0.3928  0.5760 -0.4334
 1335SOL     OW 6446   7.810   9.409   4.073  0.2825  0.1091  0.7015
 1335SOL    HW1 6447   7.813   9.393   3.979  0.7772 -1.1394  0.9133
 1335SOL    HW2 6448   7.730   9.460   4.086  0.6300  1.0176 -0.4792
 1336SOL     OW 6449   6.127   2.160   8.688 -0.5957  0.4847 -0.0867
 1336SOL    HW1 6450   6.191   2.134   8.622 -1.0283  0.5764 -0.5474
 1336SOL    HW2 6451   6.042   2.143   8.648 -0.8685  0.8925  0.3007
 1337SOL     OW 6452   6.171   2.187   6.534  0.1036 -0.0023  0.1958
 1337SOL    HW1 6453   6.186   2.122   6.465  0.2790  0.4919 -0.2346
 1337SOL    HW2 6454   6.200   2.269   6.496  1.6190  0.0472  1.3753
 1338SOL     OW 6455   4.328  10.429   0.577  0.1481 -0.2293  0.2453
 1338SOL    HW1 6456   4.252  10.375   0.602 -0.4888  0.9865  1.0541
 1338SOL    HW2 6457   4.340  10.488   0.651  0.7045  0.8687 -0.6996
 1339SOL     OW 6458   1.207   3.743   7.258  0.4761  0.1221 -0.0323
 1339SOL    HW1 6459   1.159   3.661   7.256 -0.2432  0.5349 -0.0397
 1339SOL    HW2 6460   1.141   3.810   7.239  0.8000  0.8163  1.1965
 1340SOL     OW 6461   3.996   7.153   2.104  0.1302  0.0363  0.2005
 1340SOL    HW1 6462   3.961   7.073   2.143  0.4816 -0.7277 -0.9955
 1340SOL    HW2 6463   4.063   7.123   2.043  2.1076  1.3906  1.5717
 1341SOL     OW 6464   4.901   2.868   9.424  0.2504 -0.2594  0.0984
 1341SOL    HW1 6465   4.843   2.845   9.351 -1.7780 -0.5183  1.7017
 1341SOL    HW2 6466   4.970   2.802   9.421 -1.4007 -2.0548  0.1418
 1342SOL     OW 6467   0.816   7.999   9.508  0.9778  0.6248 -0.4972
 1342SOL    HW1 6468   0.756   7.930   9.535  0.4107  0.1873 -2.6658
 1342SOL    HW2 6469   0.884   8.000   9.576 -0.3764 -0.2719  0.9263
 1343SOL     OW 6470   7.700   0.680   7.441  0.2943 -0.3147  0.2608
 1343SOL    HW1 6471   7.787   0.717   7.453 -0.0909  0.4161  0.8806
 1343SOL    HW2 6472   7.665   0.671   7.529 -0.2191 -0.7052  0.0238
 1344SOL     OW 6473   6.214   0.675   5.022  0.2735 -0.0125  0.3896
 1344SOL    HW1 6474   6.136   0.731   5.025  1.1876  1.3965 -0.7849
 1344SOL    HW2 6475   6.285   0.734   4.997  1.3153 -1.6732 -0.7758
 1345SOL     OW 6476   2.880   4.750   9.189 -0.7602  0.0546  0.1980
 1345SOL    HW1 6477   2.809   4.751   9.254  1.1385 -0.0148  2.4029
 1345SOL    HW2 6478   2.921   4.836   9.198 -0.1357 -0.1609 -0.5388
 1346SOL     OW 6479   8.219   1.222   8.954 -0.6570  0.0112 -0.0029
 1346SOL    HW1 6480   8.291   1.285   8.953 -1.7382  1.2771 -0.1003
 1346SOL    HW2 6481   8.153   1.261   9.011 -1.2283 -1.1801  0.1718
 1347SOL     OW 6482   6.295   0.322   3.751 -0.1914  0.6699 -0.0965
 1347SOL    HW1 6483   6.323   0.306   3.661 -0.6174  1.9928 -0.4905
 1347SOL    HW2 6484   6.201   0.340   3.743 -0.7024 -1.2811  0.8940
 1348SOL     OW 6485   6.530   3.722   9.662 -0.1873 -0.3439 -0.7572
 1348SOL    HW1 6486   6.480   3.784   9.716  0.2110  0.4620 -1.2917
 1348SOL    HW2 6487   6.596   3.687   9.721 -0.4945 -0.3550 -0.4158
 1349SOL     OW 6488   9.136   1.193   2.864  0.0248 -0.9049 -0.1332
 1349SOL    HW1 6489   9.087   1.229   2.937  0.8921 -0.8184  0.4295
 1349SOL    HW2 6490   9.131   1.098   2.876 -0.1321 -0.9011 -0.1676
 1350SOL     OW 6491   4.302   0.831   1.883  0.0484 -0.0343 -0.0299
 1350SOL    HW1 6492   4.276   0.899   1.821  1.5296 -0.3185 -1.0088
 1350SOL    HW2 6493   4.335   0.759   1.828 -0.3558 -1.0654  1.0232
 1351SOL     OW 6494   3.427   2.243   6.721 -0.0192 -0.5431 -0.3997
 1351SOL    HW1 6495   3.480   2.220   6.644  0.4494 -0.2904 -0.1529
 1351SOL    HW2 6496   3.439   2.337   6.732 -1.5961 -0.2284 -1.1413
 1352SOL     OW 6497   2.152   1.574   8.013 -0.5431 -0.5129  0.1080
 1352SOL    HW1 6498   2.184   1.639   7.951  0.2183 -0.9734  0.0054
 1352SOL    HW2 6499   2.148   1.621   8.097  0.1501 -0.3650  0.0682
 1353SOL     OW 6500   1.179   4.495   0.131 -0.2026  0.1839  0.0771
 1353SOL    HW1 6501   1.211   4.406   0.118 -1.2705 -0.0114 -1.6248
 1353SOL    HW2 6502   1.206   4.542   0.052  2.7469  2.2132  2.0646
 1354SOL     OW 6503   9.602   7.338   2.504 -0.4120 -0.0547 -0.2315
 1354SOL    HW1 6504   9.554   7.263   2.470 -2.9146  1.3401  0.0317
 1354SOL    HW2 6505   9.580   7.342   2.597  0.3026  0.5810 -0.0696
 1355SOL     OW 6506   5.881   5.328   5.359  0.5424 -0.1500  0.8386
 1355SOL    HW1 6507   5.862   5.298   5.448 -1.4669  2.2374  1.3319
 1355SOL    HW2 6508   5.818   5.283   5.304 -1.4369  1.7615  1.3727
 1356SOL     OW 6509   1.363   1.992  10.269 -0.3140 -0.2898  0.8931
 1356SOL    HW1 6510   1.393   1.981  10.179 -0.4674  0.7386  0.6975
 1356SOL    HW2 6511   1.434   2.040  10.312 -1.1169  1.1186  0.7326
 1357SOL     OW 6512   7.613   6.050   7.070  0.5156 -0.0372  0.3384
 1357SOL    HW1 6513   7.638   5.976   7.014 -1.0300 -1.0551  0.9194
 1357SOL    HW2 6514   7.631   6.020   7.159  0.6412  0.6245  0.5432
 1358SOL     OW 6515   6.126   3.664   7.851  0.1418  0.3802  0.1001
 1358SOL    HW1 6516   6.054   3.643   7.792  1.8433 -0.7100 -1.7163
 1358SOL    HW2 6517   6.156   3.750   7.822 -1.2548  1.5150  1.8014
 1359SOL     OW 6518   1.013   7.592   7.137 -0.0286  0.3126 -0.2624
 1359SOL    HW1 6519   0.990   7.547   7.218  0.9722  0.5711  0.1814
 1359SOL    HW2 6520   0.985   7.532   7.067  2.2850 -1.6019  0.2985
 1360SOL     OW 6521   2.135  10.013   4.646  0.0330  0.4208 -0.3785
 1360SOL    HW1 6522   2.205  10.064   4.685 -0.5330  1.3760 -0.5761
 1360SOL    HW2 6523   2.162   9.922   4.657  2.6262  0.7319 -2.8301
 1361SOL     OW 6524   5.371   1.543   1.964 -0.0371 -0.1416  0.4173
 1361SOL    HW1 6525   5.357   1.483   1.891 -0.3924 -0.0228  0.3840
 1361SOL    HW2 6526   5.466   1.551   1.971  0.0098 -0.6483  0.3757
 1362SOL     OW 6527   4.564   3.711  10.245  0.2271 -0.0916  0.2916
 1362SOL    HW1 6528   4.527   3.679  10.163  0.8756  1.4340 -0.6522
 1362SOL    HW2 6529   4.580   3.632  10.297  0.6203 -1.1951 -1.4045
 1363SOL     OW 6530   1.052   6.864   7.628  0.2670 -0.5532  0.4873
 1363SOL    HW1 6531   0.959   6.884   7.617  0.0817 -0.2780  2.2728
 1363SOL    HW2 6532   1.086   6.861   7.538 -1.4283 -0.5799 -0.2054
 1364SOL     OW 6533   0.411   8.689   2.077 -0.1164  0.6965  0.2932
 1364SOL    HW1 6534   0.435   8.599   2.096  0.7488  1.1391  1.3974
 1364SOL    HW2 6535   0.315   8.687   2.070 -0.0057 -0.7004 -2.0690
 1365SOL     OW 6536   1.879   3.164   8.732  0.1373  0.1400 -0.7483
 1365SOL    HW1 6537   1.847   3.080   8.699  0.2317  0.3277 -1.3370
 1365SOL    HW2 6538   1.950   3.187   8.672 -2.2835  2.4768 -2.9976
 1366SOL     OW 6539   5.666   5.378   9.895  0.0832 -0.1155 -0.1052
 1366SOL    HW1 6540   5.761   5.370   9.888  0.1014 -0.2355  0.2337
 1366SOL    HW2 6541   5.632   5.324   9.824  0.2632 -0.5412  0.1256
 1367SOL     OW 6542   2.694   6.771   0.329 -0.0111 -0.3355 -0.5811
 1367SOL    HW1 6543   2.606   6.798   0.356  0.0605 -1.2022  0.6094
 1367SOL    HW2 6544   2.723   6.840   0.270 -0.8682  0.7938  0.2562
 1368SOL     OW 6545   1.516   3.829   9.741 -0.2532  0.1226 -0.1336
 1368SOL    HW1 6546   1.499   3.850   9.833  0.7024 -0.7894  0.2672
 1368SOL    HW2 6547   1.522   3.915   9.698  2.1132  0.6903  1.1894
 1369SOL     OW 6548   6.805   8.287   7.634  0.4231  0.1320 -0.0052
 1369SOL    HW1 6549   6.772   8.280   7.723 -0.8184  4.3600  0.1198
 1369SOL    HW2 6550   6.735   8.249   7.580 -0.4036  0.6026  0.7010
 1370SOL     OW 6551   4.921   3.667   6.402  0.0710 -0.0758  0.1021
 1370SOL    HW1 6552   5.016   3.668   6.400  0.0944  1.8223 -2.3331
 1370SOL    HW2 6553   4.895   3.627   6.319 -1.2125  0.9377 -0.0266
 1371SOL     OW 6554   5.727   4.892   6.847 -0.7418 -0.0288  0.5090
 1371SOL    HW1 6555   5.757   4.804   6.829 -0.1378  0.4691 -1.0984
 1371SOL    HW2 6556   5.803   4.937   6.884 -0.5314  0.2421 -0.2172
 1372SOL     OW 6557   4.887   7.881   3.343 -0.1071 -0.6000 -0.0005
 1372SOL    HW1 6558   4.894   7.973   3.320 -1.3967 -0.3980  0.3656
 1372SOL    HW2 6559   4.977   7.848   3.339  0.5341  0.9564  1.1022
 1373SOL     OW 6560   1.321   2.955   5.999  0.1848 -0.2630 -0.3385
 1373SOL    HW1 6561   1.237   2.994   6.022  0.4697 -0.6008  1.4456
 1373SOL    HW2 6562   1.370   2.954   6.081  2.8741  2.1258 -1.7333
 1374SOL     OW 6563   9.694   4.650   7.595 -0.0073  0.1393 -0.4228
 1374SOL    HW1 6564   9.692   4.746   7.601 -1.1846  0.1518 -0.7796
 1374SOL    HW2 6565   9.729   4.622   7.680 -2.1780  0.8254  0.7853
 1375SOL     OW 6566   1.583   6.630   7.498  0.1363 -0.2721  0.8502
 1375SOL    HW1 6567   1.620   6.603   7.414 -0.7161  2.6573 -0.5881
 1375SOL    HW2 6568   1.511   6.568   7.514  0.9945 -1.5322  0.0275
 1376SOL     OW 6569   0.733   4.104   3.453 -0.1614  0.4097 -0.0783
 1376SOL    HW1 6570   0.740   4.034   3.518 -3.2555 -0.7908 -0.8798
 1376SOL    HW2 6571   0.752   4.061   3.370  1.4468  1.4137 -0.2828
 1377SOL     OW 6572   3.975   4.847   7.289 -0.1898  0.1896  0.1145
 1377SOL    HW1 6573   3.938   4.798   7.363  0.6710  0.5497  0.8026
 1377SOL    HW2 6574   3.930   4.812   7.212  1.0814 -2.4459  0.4485
 1378SOL     OW 6575   8.548   3.026   8.355 -0.1669  0.2737  0.0493
 1378SOL    HW1 6576   8.569   3.060   8.441  0.3931 -0.6807  0.3061
 1378SOL    HW2 6577   8.584   2.937   8.354  0.1090  0.3682 -1.2687
 1379SOL     OW 6578   4.625   1.431   4.416  0.1245 -0.3152 -0.2891
 1379SOL    HW1 6579   4.619   1.336   4.409  0.2900 -0.2242 -1.8344
 1379SOL    HW2 6580   4.711   1.446   4.455  1.2411 -0.7521 -2.4421
 1380SOL     OW 6581   7.311   4.515   6.164  0.2357 -1.1971  0.4396
 1380SOL    HW1 6582   7.342   4.543   6.250 -1.0663 -0.6112  0.7423
 1380SOL    HW2 6583   7.298   4.596   6.116  0.2080 -1.4858 -0.0478
 1381SOL     OW 6584   3.791   8.951   1.856 -0.1578  0.3398  0.4952
 1381SOL    HW1 6585   3.744   8.876   1.892 -2.5412  0.3375 -2.2876
 1381SOL    HW2 6586   3.843   8.915   1.785 -0.8165  1.2116 -0.4460
 1382SOL     OW 6587   2.185   3.620   3.266 -0.4464  0.4755 -0.4360
 1382SOL    HW1 6588   2.236   3.699   3.248  1.1454 -0.4794 -0.2878
 1382SOL    HW2 6589   2.240   3.569   3.325 -1.2698 -0.9304 -0.8478
 1383SOL     OW 6590   5.294   2.046   3.363  0.2588 -0.3261  0.4926
 1383SOL    HW1 6591   5.253   2.119   3.317 -0.6173 -1.3251 -0.3850
 1383SOL    HW2 6592   5.222   2.005   3.411  0.7239 -0.6587  0.9206
 1384SOL     OW 6593   8.353   1.941   0.379 -0.0796 -0.5756 -0.3543
 1384SOL    HW1 6594   8.300   1.959   0.456  0.3319 -1.0330  0.0368
 1384SOL    HW2 6595   8.310   1.868   0.335 -1.8256  1.3221 -2.0139
 1385SOL     OW 6596   2.949   5.760   5.805  0.8915  0.2997  0.4821
 1385SOL    HW1 6597   2.934   5.683   5.750 -0.1818  1.2984 -0.6977
 1385SOL    HW2 6598   2.920   5.733   5.893 -0.5886 -0.2994 -0.1556
 1386SOL     OW 6599   3.741   2.932   3.581  0.4935  0.0955 -0.2998
 1386SOL    HW1 6600   3.672   2.957   3.520  0.9412 -0.0485 -0.8750
 1386SOL    HW2 6601   3.799   3.007   3.584  0.9859 -0.2596 -0.7990
 1387SOL     OW 6602   7.889   9.653   2.441 -0.4791 -0.2929  0.6196
 1387SOL    HW1 6603   7.842   9.579   2.404 -0.0197  0.4782 -1.6448
 1387SOL    HW2 6604   7.974   9.653   2.397  0.0910  0.7380  1.6416
 1388SOL     OW 6605   5.262   5.821   7.899 -0.8709 -0.3779 -0.5706
 1388SOL    HW1 6606   5.291   5.901   7.855  1.9528 -1.7002 -1.3247
 1388SOL    HW2 6607   5.221   5.769   7.829 -2.8437  0.3822 -0.0503
 1389SOL     OW 6608   5.776   2.892   4.003 -0.1568 -0.0781  0.1253
 1389SOL    HW1 6609   5.751   2.825   4.067  1.4954 -0.3838  0.5254
 1389SOL    HW2 6610   5.751   2.855   3.918 -0.4450 -0.6272  0.4422
 1390SOL     OW 6611   7.632   2.558   9.202  0.2067  0.0535  0.0116
 1390SOL    HW1 6612   7.567   2.516   9.259  0.9034 -0.3537  0.5108
 1390SOL    HW2 6613   7.696   2.596   9.261  0.1983  0.8561 -0.4696
 1391SOL     OW 6614  10.063   8.346   4.937  0.7433  0.1244 -0.3187
 1391SOL    HW1 6615  10.137   8.308   4.985 -1.2481 -1.8630  1.3875
 1391SOL    HW2 6616   9.998   8.276   4.935 -1.4717  2.0846 -0.9309
 1392SOL     OW 6617   5.732   5.682  10.220 -0.2865 -0.4685  0.1222
 1392SOL    HW1 6618   5.781   5.635  10.287  0.8654  0.3190 -0.1320
 1392SOL    HW2 6619   5.799   5.716  10.161 -1.0228  1.7389  0.4691
 1393SOL     OW 6620   0.664   8.068   7.395 -0.1960  0.3967  0.0307
 1393SOL    HW1 6621   0.671   8.163   7.395 -0.3930  0.4373 -1.5582
 1393SOL    HW2 6622   0.720   8.039   7.323 -1.8828 -0.4981 -0.9908
 1394SOL     OW 6623   3.430   9.343   3.866 -0.5517  0.0735  0.4360
 1394SOL    HW1 6624   3.433   9.291   3.947  2.6095  0.7541  0.8782
 1394SOL    HW2 6625   3.469   9.285   3.800 -0.9496  0.3809 -0.0734
 1395SOL     OW 6626   8.000   6.231   3.304 -0.0254 -0.2886 -0.1059
 1395SOL    HW1 6627   8.037   6.275   3.381  3.1600  0.0839 -1.6943
 1395SOL    HW2 6628   7.942   6.295   3.265  1.3766  1.0382 -0.1123
 1396SOL     OW 6629  10.349   2.171   9.807 -0.1017 -0.0792 -0.5296
 1396SOL    HW1 6630  10.336   2.130   9.892 -0.1730  2.4389  0.7841
 1396SOL    HW2 6631  10.263   2.207   9.784  0.0335 -0.2953 -1.4429
 1397SOL     OW 6632   6.850   4.224   0.958 -0.0984  0.1462 -0.1634
 1397SOL    HW1 6633   6.768   4.196   0.917 -0.7364  1.1596  0.3799
 1397SOL    HW2 6634   6.913   4.156   0.935 -0.9114 -0.2727 -1.2099
 1398SOL     OW 6635   1.562   2.552   9.144 -0.3620 -0.1692  0.1321
 1398SOL    HW1 6636   1.478   2.591   9.120 -0.6281 -0.3251  0.7895
 1398SOL    HW2 6637   1.618   2.627   9.163 -0.6826 -0.0852  0.7680
 1399SOL     OW 6638   1.153   0.707   6.984 -0.1911 -0.2785  0.7012
 1399SOL    HW1 6639   1.208   0.666   6.916  0.1653  0.2283  0.6847
 1399SOL    HW2 6640   1.213   0.764   7.032 -1.0804  1.9239 -0.6353
 1400SOL     OW 6641   8.929   9.372   2.350 -0.2359  0.7502  0.5473
 1400SOL    HW1 6642   8.955   9.343   2.437  0.4104 -2.1779 -0.5083
 1400SOL    HW2 6643   8.964   9.305   2.291 -1.4912  2.1095 -1.8874
 1401SOL     OW 6644   0.720   0.277   1.662 -0.0305 -0.0950 -0.0325
 1401SOL    HW1 6645   0.794   0.245   1.609  0.4455  0.6583  0.1602
 1401SOL    HW2 6646   0.743   0.254   1.752  1.0960  2.1373  0.3120
 1402SOL     OW 6647   3.555   9.128   6.285  0.2326  0.1291  0.3276
 1402SOL    HW1 6648   3.505   9.159   6.360  0.3290  1.8415 -0.2764
 1402SOL    HW2 6649   3.606   9.055   6.319 -1.0061 -0.2447  1.4862
 1403SOL     OW 6650   1.045   3.881   6.382 -0.3077  0.2016 -0.2384
 1403SOL    HW1 6651   1.062   3.939   6.308 -0.1798 -0.5360 -0.7991
 1403SOL    HW2 6652   0.976   3.822   6.351  0.0591 -0.4038  0.0720
 1404SOL     OW 6653   4.011   1.121   3.157  0.2680  0.2540 -0.7642
 1404SOL    HW1 6654   4.038   1.203   3.199 -1.1990  0.6130 -0.4515
 1404SOL    HW2 6655   3.931   1.143   3.110  1.1000 -0.4853 -2.6318
 1405SOL     OW 6656   0.433   4.463   0.463  0.1163  0.3563 -0.0795
 1405SOL    HW1 6657   0.505   4.471   0.400  0.0387  0.2301 -0.1851
 1405SOL    HW2 6658   0.474   4.423   0.541  0.0174 -0.3771 -0.3943
 1406SOL     OW 6659   5.203   5.091   5.391  0.0270  0.3543 -0.8018
 1406SOL    HW1 6660   5.284   5.143   5.386 -0.0167  0.4051 -0.9874
 1406SOL    HW2 6661   5.227   5.005   5.357 -0.4879  0.9617 -2.8131
 1407SOL     OW 6662   6.137   4.797   0.270 -0.5283  0.1683 -0.4665
 1407SOL    HW1 6663   6.146   4.732   0.340 -1.1375 -0.5446 -1.0389
 1407SOL    HW2 6664   6.212   4.855   0.282 -0.7728  0.2227  0.9462
 1408SOL     OW 6665   8.011   6.212   8.848 -0.0256 -0.1025  0.2003
 1408SOL    HW1 6666   8.050   6.203   8.935  0.5297 -0.4309 -0.0762
 1408SOL    HW2 6667   7.990   6.305   8.840  2.3289  0.4333 -0.3123
 1409SOL     OW 6668   2.740   0.940   7.516  0.5211  0.2630  0.7335
 1409SOL    HW1 6669   2.800   0.977   7.452 -0.0248 -1.9333 -1.2001
 1409SOL    HW2 6670   2.796   0.910   7.588  1.3648  1.0404  0.4134
 1410SOL     OW 6671   0.249   4.012   6.158 -0.1784  0.3729  0.0077
 1410SOL    HW1 6672   0.252   4.108   6.155  0.8271  0.3450 -0.2789
 1410SOL    HW2 6673   0.247   3.985   6.066 -0.6665  0.1198  0.0887
 1411SOL     OW 6674   0.174   6.023   3.302  0.0796 -0.0716 -0.7865
 1411SOL    HW1 6675   0.267   6.032   3.322 -0.2302  0.7677  0.4176
 1411SOL    HW2 6676   0.156   6.094   3.241  0.1615 -0.0075 -0.7363
 1412SOL     OW 6677   1.076  10.275   3.666  0.3807 -0.1667 -0.5260
 1412SOL    HW1 6678   1.064  10.354   3.613  0.3297 -0.7415 -1.3994
 1412SOL    HW2 6679   1.095  10.308   3.754 -1.0709  0.8047 -0.5350
 1413SOL     OW 6680   4.190  10.452   8.883  0.0288  0.2887  0.0325
 1413SOL    HW1 6681   4.177  10.515   8.955 -0.2407  0.3846 -0.1015
 1413SOL    HW2 6682   4.125  10.476   8.818  0.1921  0.1209 -0.1929
 1414SOL     OW 6683   7.552   1.020   8.569  0.1660  0.3748  0.1403
 1414SOL    HW1 6684   7.496   1.031   8.646  0.0006  0.0837  0.0601
 1414SOL    HW2 6685   7.641   1.018   8.605  0.1213  0.7384  0.2771
 1415SOL     OW 6686   1.028   3.687   8.955 -0.0770  0.2221 -0.9178
 1415SOL    HW1 6687   0.984   3.686   8.871 -1.6992  0.9106 -0.1128
 1415SOL    HW2 6688   0.984   3.618   9.006  0.2653  0.4319 -0.3330
 1416SOL     OW 6689   4.962   8.190   8.544  0.2022  0.0176 -0.3046
 1416SOL    HW1 6690   4.868   8.196   8.532 -0.0228  1.6615  1.7191
 1416SOL    HW2 6691   4.973   8.126   8.615  0.6159 -0.1295 -0.4946
 1417SOL     OW 6692   7.047   2.366   9.552  0.4962  0.7303 -0.2583
 1417SOL    HW1 6693   7.066   2.341   9.642  1.5875  0.9948 -0.4056
 1417SOL    HW2 6694   7.132   2.362   9.507 -0.3310 -1.7647 -1.8686
 1418SOL     OW 6695   6.011   1.634   0.991  0.2754  0.2502  0.1798
 1418SOL    HW1 6696   6.070   1.668   1.059  1.6714 -0.5353 -0.5907
 1418SOL    HW2 6697   6.017   1.539   1.000 -0.1911  0.1561 -0.4837
 1419SOL     OW 6698   5.800   3.921   7.680  0.4705 -0.1393  0.1085
 1419SOL    HW1 6699   5.782   3.838   7.635  0.4238 -0.6383  1.0362
 1419SOL    HW2 6700   5.716   3.948   7.716  0.0253  1.3783 -1.8862
 1420SOL     OW 6701   7.786   8.326   3.768 -0.1332 -0.2824 -0.6866
 1420SOL    HW1 6702   7.696   8.348   3.745 -0.8494 -0.9398  1.3071
 1420SOL    HW2 6703   7.788   8.231   3.772  0.7775 -0.2936 -1.1382
 1421SOL     OW 6704   6.663   5.126   7.534 -0.5474  0.3757 -0.0869
 1421SOL    HW1 6705   6.752   5.156   7.518 -0.6813 -0.0191 -1.6812
 1421SOL    HW2 6706   6.638   5.080   7.454 -1.0058 -2.4522  1.5421
 1422SOL     OW 6707   1.280   4.464   4.788 -0.5040 -0.8888  0.1902
 1422SOL    HW1 6708   1.331   4.433   4.713 -1.5609 -0.5066 -0.7102
 1422SOL    HW2 6709   1.324   4.545   4.815 -0.2740 -0.8827 -0.1914
 1423SOL     OW 6710   8.084   8.109   7.421 -0.1285  0.2709  0.3241
 1423SOL    HW1 6711   7.998   8.074   7.445 -0.9420  0.1389 -2.5213
 1423SOL    HW2 6712   8.143   8.034   7.425 -1.0804 -0.6781 -1.9124
 1424SOL     OW 6713   2.762   0.391   8.434  0.2934 -0.0646  0.2592
 1424SOL    HW1 6714   2.814   0.386   8.354 -0.0501  1.1262 -0.0633
 1424SOL    HW2 6715   2.726   0.480   8.434  1.1193  0.3258  2.2586
 1425SOL     OW 6716   8.253   0.238   0.453 -0.0849 -0.3750 -0.3919
 1425SOL    HW1 6717   8.262   0.310   0.516  3.6080  0.3900 -1.5965
 1425SOL    HW2 6718   8.323   0.176   0.476 -1.9588 -2.7453 -0.5924
 1426SOL     OW 6719   4.572   4.765   0.355 -0.1457  0.5204  0.1472
 1426SOL    HW1 6720   4.645   4.729   0.406  0.7217  0.4489 -1.1036
 1426SOL    HW2 6721   4.582   4.726   0.269 -1.0255  1.3688 -0.3543
 1427SOL     OW 6722   8.005   8.316   7.938 -0.2181 -0.2328 -0.2030
 1427SOL    HW1 6723   8.085   8.349   7.898 -0.6036 -1.6894 -2.3719
 1427SOL    HW2 6724   7.936   8.340   7.876 -1.4789  0.8141  1.5182
 1428SOL     OW 6725   8.188   8.262   9.801 -0.2052  0.1797 -0.2629
 1428SOL    HW1 6726   8.172   8.329   9.866 -1.5438  0.4007 -0.7900
 1428SOL    HW2 6727   8.227   8.189   9.850 -0.1488  0.7574  0.5658
 1429SOL     OW 6728   3.344   2.166   3.128  0.3310  0.1995 -0.1450
 1429SOL    HW1 6729   3.363   2.205   3.043  2.6337 -2.1194 -0.8334
 1429SOL    HW2 6730   3.429   2.159   3.171 -0.3880 -1.1782  1.1766
 1430SOL     OW 6731   8.149   2.400  10.145  0.2621 -0.1658  0.9867
 1430SOL    HW1 6732   8.122   2.313  10.174 -0.9106 -0.3150 -0.4439
 1430SOL    HW2 6733   8.197   2.436  10.220 -1.9024 -0.8190  2.8030
 1431SOL     OW 6734   5.781   3.355   9.525  0.6302  0.1216  0.2098
 1431SOL    HW1 6735   5.811   3.340   9.614  1.3997  3.5078  0.6815
 1431SOL    HW2 6736   5.859   3.342   9.471  0.9999  1.1522  0.4667
 1432SOL     OW 6737   1.648  10.183   1.739 -0.5716 -0.2953  0.1077
 1432SOL    HW1 6738   1.678  10.119   1.674  0.8024  0.9140 -0.5045
 1432SOL    HW2 6739   1.628  10.261   1.688  1.5234  1.0187  1.1828
 1433SOL     OW 6740  10.000   2.323   0.903 -0.1580 -0.3728  0.0614
 1433SOL    HW1 6741  10.067   2.261   0.933  0.7432  0.7834  0.5893
 1433SOL    HW2 6742  10.037   2.361   0.823 -0.1824  0.2342  0.3283
 1434SOL     OW 6743   0.945   8.870   0.607 -0.2706  0.1749  0.0811
 1434SOL    HW1 6744   0.926   8.813   0.682 -0.7285 -0.8111 -0.7630
 1434SOL    HW2 6745   0.987   8.813   0.543  0.5071  1.1036 -0.2693
 1435SOL     OW 6746   7.602   6.308   6.354 -0.4837  0.5564 -0.1171
 1435SOL    HW1 6747   7.592   6.267   6.440 -1.4171  0.2805 -0.3435
 1435SOL    HW2 6748   7.696   6.328   6.348 -0.2445 -0.2655  0.5773
 1436SOL     OW 6749   4.289   9.081   4.502  0.0141  0.1458  0.2294
 1436SOL    HW1 6750   4.267   9.170   4.531  1.6549  1.1376 -1.3272
 1436SOL    HW2 6751   4.205   9.037   4.494 -1.0786  2.3325 -1.2774
 1437SOL     OW 6752   2.307   2.936   3.487 -0.2777  0.4478  0.1517
 1437SOL    HW1 6753   2.278   2.861   3.436  0.4227  0.4852 -0.3065
 1437SOL    HW2 6754   2.392   2.910   3.522  0.8923  1.7409 -1.6134
 1438SOL     OW 6755   9.212   4.001   4.975 -0.7917  0.0857  0.1294
 1438SOL    HW1 6756   9.281   4.066   4.963  0.0978 -0.5462  1.6174
 1438SOL    HW2 6757   9.236   3.954   5.054 -2.1520 -1.1513 -0.1427
 1439SOL     OW 6758   3.735   6.454   3.809 -0.0478  0.7379 -0.0823
 1439SOL    HW1 6759   3.721   6.396   3.735 -0.2902 -1.4572  1.5725
 1439SOL    HW2 6760   3.669   6.427   3.873  1.4721  1.0985  1.7298
 1440SOL     OW 6761  10.116   5.481   6.690  0.0381  0.7050 -0.2136
 1440SOL    HW1 6762  10.155   5.541   6.754 -0.4198  1.1911 -0.3875
 1440SOL    HW2 6763  10.106   5.399   6.738  1.8982  0.3389 -0.3434
 1441SOL     OW 6764   5.341   5.126   7.964 -0.1391 -0.1123  0.1134
 1441SOL    HW1 6765   5.292   5.121   8.046 -0.0022 -1.9648  0.1348
 1441SOL    HW2 6766   5.433   5.123   7.990 -0.0340  1.5044 -0.0193
 1442SOL     OW 6767   0.944  10.138   8.716  0.2372  0.2693 -0.5732
 1442SOL    HW1 6768   0.979  10.227   8.728 -1.2165  1.1243 -2.0789
 1442SOL    HW2 6769   0.995  10.083   8.775  1.6823  1.9911 -0.1333
 1443SOL     OW 6770   3.625   1.005   5.083  0.2408 -0.5354 -0.3624
 1443SOL    HW1 6771   3.671   1.031   5.163 -0.3974  0.1916 -0.2185
 1443SOL    HW2 6772   3.573   0.929   5.108 -0.7925  0.3438  0.2031
 1444SOL     OW 6773   8.563  10.300   2.601  0.2181  0.2724 -0.0682
 1444SOL    HW1 6774   8.621  10.368   2.566  2.1084 -1.7073 -1.1024
 1444SOL    HW2 6775   8.613  10.261   2.673 -0.8707  0.0750  0.5918
 1445SOL     OW 6776   2.681   2.476   8.934 -0.2088  0.1176  0.6888
 1445SOL    HW1 6777   2.608   2.460   8.875 -0.3116 -0.8215  1.0435
 1445SOL    HW2 6778   2.733   2.543   8.891 -0.3499 -0.4515 -0.3947
 1446SOL     OW 6779   2.820   4.501   9.092 -0.1734  0.0767 -0.1957
 1446SOL    HW1 6780   2.845   4.581   9.138 -0.7328  0.3638 -0.3901
 1446SOL    HW2 6781   2.740   4.524   9.044 -0.7799 -0.8131  0.3651
 1447SOL     OW 6782   1.725   7.609   6.732  0.2593  0.3252 -0.4852
 1447SOL    HW1 6783   1.629   7.615   6.734  0.3426  3.2474  0.4396
 1447SOL    HW2 6784   1.753   7.695   6.702  2.6032  0.3513  1.4788
 1448SOL     OW 6785   5.003   1.673   4.068 -0.3171 -0.2707  0.3853
 1448SOL    HW1 6786   5.048   1.711   3.993  1.6827 -3.0494  0.0125
 1448SOL    HW2 6787   4.938   1.614   4.030 -3.1505  2.2147  0.9530
 1449SOL     OW 6788   7.075   2.202   5.720 -0.3725 -0.0610 -0.1616
 1449SOL    HW1 6789   7.110   2.114   5.736 -0.5182 -0.2211 -0.7238
 1449SOL    HW2 6790   6.984   2.197   5.748  0.1215  0.4661  1.6878
 1450SOL     OW 6791   5.133   9.035   9.989  0.5368  0.2637  0.1580
 1450SOL    HW1 6792   5.091   9.116   9.962  1.6559  1.6522  2.3028
 1450SOL    HW2 6793   5.060   8.976  10.009 -0.4397  1.9800  2.0092
 1451SOL     OW 6794   8.188   1.254   3.021 -0.0506  0.3571 -0.5559
 1451SOL    HW1 6795   8.276   1.289   3.033 -0.8182  2.0374  0.6166
 1451SOL    HW2 6796   8.131   1.331   3.024 -1.9148 -0.9623  2.6410
 1452SOL     OW 6797   3.175   5.878   8.150 -0.1337  0.4591  0.1714
 1452SOL    HW1 6798   3.082   5.877   8.172 -0.3785  0.0899 -0.8487
 1452SOL    HW2 6799   3.201   5.786   8.155 -0.2179  0.3549 -1.1447
 1453SOL     OW 6800   9.272   5.546   5.783  0.0776 -0.1076  0.4141
 1453SOL    HW1 6801   9.280   5.451   5.773 -1.2795 -0.3084  1.0643
 1453SOL    HW2 6802   9.248   5.559   5.875  1.4956  0.9698  0.6691
 1454SOL     OW 6803   7.469  10.359   6.385 -0.5680 -0.2520  0.5351
 1454SOL    HW1 6804   7.389  10.404   6.359 -0.9606 -1.2951 -0.1189
 1454SOL    HW2 6805   7.442  10.298   6.454 -0.7201 -1.8682 -0.8823
 1455SOL     OW 6806   3.834   7.009  10.490 -0.1133  0.1018 -0.0994
 1455SOL    HW1 6807   3.886   7.081  10.527  0.9842 -0.8649  0.3043
 1455SOL    HW2 6808   3.748   7.047  10.475  0.1769  1.2627  0.9825
 1456SOL     OW 6809   2.021   4.238   3.060 -0.0874 -0.4771 -0.1849
 1456SOL    HW1 6810   2.041   4.148   3.088 -2.1949 -0.7534  0.5623
 1456SOL    HW2 6811   1.953   4.228   2.994 -0.6277  0.5781  0.1925
 1457SOL     OW 6812   6.017   7.811   8.062 -0.1391 -0.4983 -0.4060
 1457SOL    HW1 6813   6.011   7.726   8.019 -0.4977 -0.8184  0.2668
 1457SOL    HW2 6814   6.085   7.858   8.013 -0.9273 -0.6295 -1.6881
 1458SOL     OW 6815   8.287   6.239   6.838  0.3278 -1.0828  0.6918
 1458SOL    HW1 6816   8.254   6.326   6.817  3.2243 -0.6054 -2.8351
 1458SOL    HW2 6817   8.354   6.254   6.905  0.3131 -0.7237  0.6277
 1459SOL     OW 6818   1.661   4.704   8.019 -0.1953 -0.7503 -0.4635
 1459SOL    HW1 6819   1.603   4.771   7.982 -2.4409 -1.8403  0.8873
 1459SOL    HW2 6820   1.677   4.644   7.946  0.1395  0.1269 -1.1346
 1460SOL     OW 6821   1.101   3.225   7.163 -0.4167  0.1670  0.2764
 1460SOL    HW1 6822   1.107   3.155   7.098 -1.0341 -1.4419  1.8972
 1460SOL    HW2 6823   1.089   3.181   7.247 -2.0333  2.2262  1.2396
 1461SOL     OW 6824   6.366   4.273   2.135 -0.0589  0.2717  0.0835
 1461SOL    HW1 6825   6.379   4.368   2.133  1.7641  0.1155  1.4679
 1461SOL    HW2 6826   6.344   4.254   2.226  0.7106 -0.7391  0.0727
 1462SOL     OW 6827   3.068   2.086   4.021 -0.3733  0.1773 -0.6341
 1462SOL    HW1 6828   3.017   2.084   3.940 -2.0657  1.9162  0.3118
 1462SOL    HW2 6829   3.089   2.179   4.033  1.3798 -0.2582  0.0610
 1463SOL     OW 6830   1.758   5.798   9.564 -0.2213 -0.3814 -0.2895
 1463SOL    HW1 6831   1.746   5.716   9.613  0.3615 -0.0412  0.4480
 1463SOL    HW2 6832   1.795   5.770   9.480  1.5168 -0.7925  0.5473
 1464SOL     OW 6833   3.405   9.473   1.110  0.1522 -0.3781 -0.0720
 1464SOL    HW1 6834   3.421   9.460   1.016 -0.1561  0.5720 -0.2617
 1464SOL    HW2 6835   3.474   9.534   1.138 -0.6037  0.4610  0.0037
 1465SOL     OW 6836   6.000   5.282   6.271 -0.1139 -0.4691  0.4743
 1465SOL    HW1 6837   6.026   5.343   6.202  0.7834 -0.9387  0.3747
 1465SOL    HW2 6838   6.071   5.217   6.273  0.4785  0.1779  2.6534
 1466SOL     OW 6839   9.973   8.699   0.542  0.1779  0.0250 -0.2524
 1466SOL    HW1 6840  10.059   8.734   0.515  1.0588 -0.2866  1.9498
 1466SOL    HW2 6841   9.994   8.618   0.588 -1.1852  0.5588  1.3794
 1467SOL     OW 6842   0.591  10.142  10.083 -0.0536 -0.2617  0.4310
 1467SOL    HW1 6843   0.588  10.055  10.122  1.6460 -0.5166  0.0536
 1467SOL    HW2 6844   0.669  10.183  10.120  0.1707  0.4317 -0.7475
 1468SOL     OW 6845   5.421   7.860   8.608 -0.5777 -0.4201  0.3862
 1468SOL    HW1 6846   5.387   7.835   8.694 -0.7090 -0.5468  0.2995
 1468SOL    HW2 6847   5.453   7.777   8.571 -2.2214 -0.7330 -0.4447
 1469SOL     OW 6848   7.631   2.932   3.221 -0.4317 -0.1440  1.1173
 1469SOL    HW1 6849   7.675   2.918   3.304  0.1475 -0.5961  0.7328
 1469SOL    HW2 6850   7.544   2.892   3.232  0.1229 -1.4017  1.0517
 1470SOL     OW 6851   7.402   2.884   5.321 -0.3994 -1.0995 -0.2677
 1470SOL    HW1 6852   7.358   2.886   5.236 -0.7627 -3.7502 -0.2057
 1470SOL    HW2 6853   7.460   2.809   5.317  0.0775 -0.8746  1.5970
 1471SOL     OW 6854  10.041   4.367   9.236 -0.1192 -0.4940 -0.4495
 1471SOL    HW1 6855  10.006   4.278   9.233 -2.2376  0.2255  1.0152
 1471SOL    HW2 6856  10.110   4.363   9.302 -0.2968 -1.0131 -0.2892
 1472SOL     OW 6857   0.667   3.694   3.743 -0.0179 -0.0907  0.5282
 1472SOL    HW1 6858   0.733   3.635   3.707  0.3376 -1.2401  2.8939
 1472SOL    HW2 6859   0.656   3.667   3.834 -2.2646  1.4025  0.8085
 1473SOL     OW 6860   3.642   4.267   5.022 -0.2105  0.3151 -0.1969
 1473SOL    HW1 6861   3.618   4.174   5.014 -0.5602  0.3503  0.3863
 1473SOL    HW2 6862   3.584   4.311   4.960 -0.6156  0.2315  0.1194
 1474SOL     OW 6863   7.833   9.290   1.399  0.5721 -0.6012 -0.1731
 1474SOL    HW1 6864   7.773   9.215   1.410  1.4041 -1.8019 -2.8709
 1474SOL    HW2 6865   7.777   9.359   1.364  0.1462 -0.6044  0.4911
 1475SOL     OW 6866   4.649   6.371   1.969  0.0955 -0.4921 -0.0743
 1475SOL    HW1 6867   4.632   6.442   2.031 -3.5858  0.8354 -2.2713
 1475SOL    HW2 6868   4.667   6.416   1.886 -2.7529 -1.9441 -1.6298
 1476SOL     OW 6869   6.822   1.391   3.081  0.5010  0.3201  0.4033
 1476SOL    HW1 6870   6.814   1.297   3.063 -0.3411  0.3123  0.7708
 1476SOL    HW2 6871   6.906   1.399   3.127 -0.4563 -0.6087  2.4569
 1477SOL     OW 6872   9.904   6.450   5.397 -0.8732  0.1050 -0.5801
 1477SOL    HW1 6873   9.817   6.489   5.398 -1.0625 -0.3179 -0.3882
 1477SOL    HW2 6874   9.962   6.522   5.372 -0.8193  1.3591  2.6263
 1478SOL     OW 6875   1.438   5.112   2.373  0.2805 -0.0098  0.0755
 1478SOL    HW1 6876   1.414   5.019   2.370  0.1117  0.0388 -0.1697
 1478SOL    HW2 6877   1.387   5.152   2.302 -0.9023  0.5503  1.1908
 1479SOL     OW 6878   6.415   3.647  10.382  0.5988 -0.1063 -0.2115
 1479SOL    HW1 6879   6.487   3.632  10.321  0.0975 -1.3592 -0.5286
 1479SOL    HW2 6880   6.412   3.568  10.436 -0.4001  0.0136 -0.0715
 1480SOL     OW 6881   0.095   9.759   8.651  0.2478  0.1962 -0.2517
 1480SOL    HW1 6882   0.172   9.756   8.707 -0.4454 -0.4670  0.7059
 1480SOL    HW2 6883   0.121   9.711   8.572  1.0010  0.4926 -0.1875
 1481SOL     OW 6884   1.897   3.079   9.007  0.0531  0.5474 -0.2275
 1481SOL    HW1 6885   1.875   3.080   8.914 -1.0692 -0.3317  0.0134
 1481SOL    HW2 6886   1.924   3.169   9.027  0.0759  0.7944 -1.3386
 1482SOL     OW 6887   3.783   1.004   5.534 -0.0579  0.0728 -0.4918
 1482SOL    HW1 6888   3.875   0.981   5.523 -0.2198 -1.3547  0.8300
 1482SOL    HW2 6889   3.762   0.978   5.624 -1.8208  0.1061 -0.8602
 1483SOL     OW 6890   1.728   9.829   5.118 -0.3872 -0.1890  0.1928
 1483SOL    HW1 6891   1.822   9.842   5.111 -0.2905 -1.3722 -0.9464
 1483SOL    HW2 6892   1.718   9.750   5.171 -0.7695  0.2060  0.7268
 1484SOL     OW 6893   3.219   5.386   2.096 -0.2907  0.0051 -0.3842
 1484SOL    HW1 6894   3.246   5.311   2.149 -1.7406 -0.7952 -0.7222
 1484SOL    HW2 6895   3.159   5.435   2.153 -0.3124  0.2274 -0.5980
 1485SOL     OW 6896   2.040   4.950  10.303 -0.2143 -0.6892 -0.0637
 1485SOL    HW1 6897   2.016   4.858  10.312 -0.0481 -0.8080 -0.7864
 1485SOL    HW2 6898   2.023   4.970  10.211 -0.4956  0.0750  0.1461
 1486SOL     OW 6899   1.084  10.012   9.816  0.3657 -0.3510 -0.3896
 1486SOL    HW1 6900   1.063   9.919   9.826  0.7919 -0.5540 -1.2826
 1486SOL    HW2 6901   1.121  10.019   9.728  1.6650  0.4238  0.2037
 1487SOL     OW 6902   2.546   3.627   1.631  0.4319 -0.6430  0.1853
 1487SOL    HW1 6903   2.522   3.540   1.597 -1.3636  0.5552 -1.8550
 1487SOL    HW2 6904   2.470   3.655   1.681  0.2767  0.4604 -0.6468
 1488SOL     OW 6905   5.361   9.566   0.449 -0.1819 -0.4869  0.6772
 1488SOL    HW1 6906   5.449   9.527   0.450  1.2386  2.3847 -0.1678
 1488SOL    HW2 6907   5.318   9.524   0.375  1.5178 -0.0062 -0.6548
 1489SOL     OW 6908   7.298   3.407   7.495  0.4666 -0.0317 -0.2224
 1489SOL    HW1 6909   7.295   3.364   7.580 -0.0689  1.9742  0.8441
 1489SOL    HW2 6910   7.221   3.463   7.493  2.0901  2.3741 -0.6448
 1490SOL     OW 6911   1.063   5.563   1.927 -0.2890 -0.0496  0.0734
 1490SOL    HW1 6912   1.018   5.593   2.006  0.1655  2.5829 -0.5535
 1490SOL    HW2 6913   1.010   5.598   1.855  0.7281 -0.1039 -0.7252
 1491SOL     OW 6914   7.797   4.905   3.715 -0.4706  0.8475  0.1500
 1491SOL    HW1 6915   7.837   4.871   3.635  1.4590 -1.0457  1.7948
 1491SOL    HW2 6916   7.802   5.000   3.705 -0.8786  0.7017 -2.2030
 1492SOL     OW 6917   6.270   4.123   6.658 -0.2075  0.3901 -0.3042
 1492SOL    HW1 6918   6.313   4.206   6.637 -1.5015  1.0121 -0.6129
 1492SOL    HW2 6919   6.259   4.080   6.573  1.3798 -0.6089 -0.0513
 1493SOL     OW 6920   3.703   2.383   2.687  0.0928  0.6456 -0.4539
 1493SOL    HW1 6921   3.613   2.416   2.690 -0.1285  0.1809 -1.5257
 1493SOL    HW2 6922   3.719   2.364   2.594  0.5406 -1.3411 -0.0199
 1494SOL     OW 6923   6.526   7.238   2.713 -0.5456  0.0218  0.4399
 1494SOL    HW1 6924   6.513   7.293   2.636  0.9379 -0.1692  0.0199
 1494SOL    HW2 6925   6.578   7.291   2.773 -2.5102  0.5493  1.8094
 1495SOL     OW 6926   4.678   2.843  10.420 -0.5832  0.2318 -0.5725
 1495SOL    HW1 6927   4.638   2.785  10.356 -1.2267  0.9914 -0.8684
 1495SOL    HW2 6928   4.749   2.886  10.372  0.2186 -0.6490 -0.2191
 1496SOL     OW 6929   6.382   6.137   0.194 -0.1495  0.0564  0.4541
 1496SOL    HW1 6930   6.328   6.150   0.116 -0.9440 -1.9882  0.5973
 1496SOL    HW2 6931   6.437   6.215   0.199 -1.9188  1.4465 -0.6473
 1497SOL     OW 6932   3.220   3.229  10.128 -0.0636  0.1301  0.3757
 1497SOL    HW1 6933   3.251   3.157  10.073  0.8472  0.6031  0.2640
 1497SOL    HW2 6934   3.243   3.203  10.217  0.1787  0.2393  0.3447
 1498SOL     OW 6935   5.745   7.615   8.766 -0.4693  0.5618 -0.1165
 1498SOL    HW1 6936   5.805   7.689   8.756  1.5028 -0.9938 -0.4740
 1498SOL    HW2 6937   5.742   7.575   8.678 -0.7906 -0.2651  0.2598
 1499SOL     OW 6938   7.704   3.315   3.298 -0.0070 -0.2132  0.2203
 1499SOL    HW1 6939   7.677   3.307   3.206 -0.3780 -0.0518  0.3120
 1499SOL    HW2 6940   7.786   3.266   3.303 -0.0756 -0.3746 -0.1581
 1500SOL     OW 6941   9.025   0.764   8.685  0.0008 -0.0219  0.2171
 1500SOL    HW1 6942   9.085   0.782   8.757  0.0037 -1.1173  0.5070
 1500SOL    HW2 6943   8.947   0.816   8.704  0.8226  1.4151 -0.1600
 1501SOL     OW 6944   0.297   6.516   7.799 -0.1042 -0.2429  0.3516
 1501SOL    HW1 6945   0.327   6.488   7.713  0.6126  0.3393  0.4004
 1501SOL    HW2 6946   0.375   6.508   7.855  0.3757  2.5190  0.2104
 1502SOL     OW 6947   7.452   2.020  10.419  1.0475 -0.2320 -0.1468
 1502SOL    HW1 6948   7.377   2.012  10.360  1.4691  1.0364 -0.8800
 1502SOL    HW2 6949   7.454   2.112  10.443  1.9653 -0.3914  0.4206
 1503SOL     OW 6950   9.082   6.916   7.246  0.4218 -0.6818 -0.1803
 1503SOL    HW1 6951   9.039   6.985   7.298  1.1751 -0.0884 -0.3368
 1503SOL    HW2 6952   9.034   6.836   7.269  0.3745 -0.3328  0.9942
 1504SOL     OW 6953   2.086   5.347   9.527 -0.3955 -0.7047  0.0301
 1504SOL    HW1 6954   2.125   5.432   9.506  0.4588 -1.0658  0.0891
 1504SOL    HW2 6955   2.148   5.307   9.588 -1.5035 -0.7874  1.1602
 1505SOL     OW 6956   2.422   0.147   1.474 -0.3900 -0.0123 -0.0777
 1505SOL    HW1 6957   2.351   0.097   1.434  0.0946  0.6256 -1.8090
 1505SOL    HW2 6958   2.378   0.218   1.521 -1.0093 -1.2220  1.2517
 1506SOL     OW 6959   9.612   7.874   5.705 -0.8598  0.2680 -0.3102
 1506SOL    HW1 6960   9.604   7.793   5.655 -0.9066 -0.3061  0.6032
 1506SOL    HW2 6961   9.643   7.846   5.791 -1.6113  1.1400  0.2643
 1507SOL     OW 6962   7.237   2.199   1.773  0.3701  0.2148  0.3332
 1507SOL    HW1 6963   7.295   2.274   1.765  1.4620 -0.2429  3.0781
 1507SOL    HW2 6964   7.275   2.132   1.716  2.2763  0.1158  1.6495
 1508SOL     OW 6965   4.330   1.109   1.264 -0.0550 -0.0180 -0.0620
 1508SOL    HW1 6966   4.236   1.093   1.269 -0.0847  0.5000  1.6536
 1508SOL    HW2 6967   4.359   1.057   1.189 -1.2618 -2.5806  1.0916
 1509SOL     OW 6968   8.648   3.072   5.920 -0.2764  0.0020  0.0173
 1509SOL    HW1 6969   8.709   3.065   5.993 -0.4248  0.1941  0.1611
 1509SOL    HW2 6970   8.562   3.084   5.961 -0.3260  0.3933 -0.1872
 1510SOL     OW 6971   9.008   1.796   8.977 -0.2335  0.1448  0.1716
 1510SOL    HW1 6972   8.943   1.732   9.007 -0.1928 -0.3332 -0.7292
 1510SOL    HW2 6973   9.037   1.839   9.057 -0.7356 -0.5152  0.7276
 1511SOL     OW 6974   4.567   9.612   5.056  0.1197  0.1255  0.3198
 1511SOL    HW1 6975   4.543   9.672   4.985 -2.1067 -1.4503 -0.3883
 1511SOL    HW2 6976   4.553   9.662   5.136  3.2727  2.1474 -0.2194
 1512SOL     OW 6977   1.117   0.134   6.571 -0.4051 -0.2236  0.3801
 1512SOL    HW1 6978   1.067   0.200   6.618 -0.6591  0.1238 -0.3598
 1512SOL    HW2 6979   1.143   0.178   6.489 -0.1094 -0.8592  0.1273
 1513SOL     OW 6980   8.064   6.309   4.044  0.2139 -0.6314  0.0530
 1513SOL    HW1 6981   8.135   6.281   4.102  1.8814 -0.3261 -1.7391
 1513SOL    HW2 6982   7.985   6.274   4.084  1.4212 -1.4543  1.8411
 1514SOL     OW 6983   6.699   5.798   5.191 -0.0535 -0.2075  0.0052
 1514SOL    HW1 6984   6.707   5.819   5.284  0.5056  0.5549 -0.2072
 1514SOL    HW2 6985   6.747   5.868   5.146 -0.9352 -0.1638 -0.9003
 1515SOL     OW 6986   1.735   0.260   4.619  0.2397 -0.4127  0.5353
 1515SOL    HW1 6987   1.683   0.181   4.636  1.2178 -0.7643  2.0949
 1515SOL    HW2 6988   1.784   0.274   4.700  0.7245  1.3213 -0.0198
 1516SOL     OW 6989   8.924   8.652   3.839  0.1635  0.4288 -0.0485
 1516SOL    HW1 6990   8.972   8.580   3.878 -2.2597  0.2052  2.8945
 1516SOL    HW2 6991   8.865   8.611   3.776  1.5996  0.3719 -1.3952
 1517SOL     OW 6992   0.795   6.770   2.540 -0.2971 -0.4799  0.4760
 1517SOL    HW1 6993   0.886   6.740   2.526 -0.9229 -3.1426  1.4705
 1517SOL    HW2 6994   0.798   6.821   2.620  0.6696  1.5318 -0.7656
 1518SOL     OW 6995   0.847   7.313   8.825 -0.5325 -0.3302  0.1868
 1518SOL    HW1 6996   0.786   7.338   8.894  1.2088 -0.4598  1.8400
 1518SOL    HW2 6997   0.887   7.395   8.797  0.6419 -0.5446  1.1912
 1519SOL     OW 6998   7.295   3.989   6.788 -0.3012 -0.1238  0.1497
 1519SOL    HW1 6999   7.305   4.006   6.695 -0.9915  0.8590  0.2440
 1519SOL    HW2 7000   7.385   3.984   6.822 -0.0512 -0.5039 -0.5543
 1520SOL     OW 7001   9.654   6.177   7.496  0.1740  0.2761  0.2714
 1520SOL    HW1 7002   9.644   6.185   7.591 -1.3614 -1.0357  0.2618
 1520SOL    HW2 7003   9.748   6.188   7.481  0.3605  1.1965  1.8506
 1521SOL     OW 7004   5.860   1.581   0.125 -0.0190  0.0683  0.1452
 1521SOL    HW1 7005   5.887   1.650   0.185 -1.2127  0.7183 -0.0312
 1521SOL    HW2 7006   5.771   1.606   0.098  0.2610 -0.5085 -1.4340
 1522SOL     OW 7007   3.264   4.570   7.671 -0.2797  0.3744  0.1269
 1522SOL    HW1 7008   3.323   4.642   7.653 -0.4113  0.3780 -0.3026
 1522SOL    HW2 7009   3.285   4.543   7.760 -0.5446  1.2400  0.4622
 1523SOL     OW 7010   6.645   3.691   4.986 -0.5428  0.6702 -0.2322
 1523SOL    HW1 7011   6.592   3.644   4.921 -1.2793  1.5162 -0.2630
 1523SOL    HW2 7012   6.617   3.655   5.070 -0.7685  0.7179 -0.2851
 1524SOL     OW 7013   5.829   4.975   5.712  0.2699  0.1230  0.2770
 1524SOL    HW1 7014   5.859   4.931   5.632 -1.1123 -0.0645 -0.1698
 1524SOL    HW2 7015   5.817   5.066   5.686 -0.4508  0.0052  0.1882
 1525SOL     OW 7016   8.351   7.040   3.328 -0.5313 -0.5240  0.0481
 1525SOL    HW1 7017   8.390   7.037   3.416 -0.0652 -1.4422 -0.1826
 1525SOL    HW2 7018   8.283   6.973   3.329  0.9035 -2.0794 -0.9337
 1526SOL     OW 7019   9.411   9.012   2.585  0.4985 -0.0333 -0.6226
 1526SOL    HW1 7020   9.352   9.041   2.515 -1.2868  1.2549  1.2900
 1526SOL    HW2 7021   9.453   9.092   2.616  0.8047 -0.4976  0.1954
 1527SOL     OW 7022   4.095   2.887   4.872 -0.1086 -0.3072  0.0071
 1527SOL    HW1 7023   4.075   2.843   4.954  0.5004 -0.4588  0.0762
 1527SOL    HW2 7024   4.189   2.904   4.875 -0.3832  1.4193  0.1878
 1528SOL     OW 7025   7.912   7.084   6.688 -0.3530  0.1667  0.0165
 1528SOL    HW1 7026   7.934   7.086   6.595 -1.0952  0.3281 -0.1678
 1528SOL    HW2 7027   7.995   7.092   6.734 -0.0043  0.2885 -0.6385
 1529SOL     OW 7028   2.034  10.363  10.119 -0.4358 -0.0708 -0.2078
 1529SOL    HW1 7029   2.007  10.273  10.098 -0.4084  0.1583 -1.3155
 1529SOL    HW2 7030   2.026  10.369  10.214  2.2030 -2.0903  0.2635
 1530SOL     OW 7031   7.041   2.251   5.016  0.1584 -0.2456 -0.1686
 1530SOL    HW1 7032   7.001   2.194   4.950  0.2581  1.2864 -1.6167
 1530SOL    HW2 7033   7.006   2.338   4.996  1.5440  0.5394  0.7161
 1531SOL     OW 7034   3.083   3.573   7.691 -0.5146 -0.1212 -0.1518
 1531SOL    HW1 7035   3.111   3.659   7.724  0.2211 -0.7667  0.9932
 1531SOL    HW2 7036   2.998   3.589   7.650  0.3219  1.4229 -1.3591
 1532SOL     OW 7037   6.917   4.889   6.318 -0.0385  0.7258  0.2430
 1532SOL    HW1 7038   6.883   4.799   6.316  2.1237 -0.1876  1.3396
 1532SOL    HW2 7039   6.975   4.894   6.242  0.3178  0.9788  0.5260
 1533SOL     OW 7040   7.616   2.324  10.408 -0.1915 -0.3204  0.1910
 1533SOL    HW1 7041   7.684   2.321  10.475 -1.4928  1.2884  1.6623
 1533SOL    HW2 7042   7.641   2.397  10.352  1.5072 -2.3459 -1.8868
 1534SOL     OW 7043   9.972   3.217   8.111  0.3937 -0.3440 -0.2622
 1534SOL    HW1 7044  10.003   3.307   8.099 -0.2387 -0.0063  0.5191
 1534SOL    HW2 7045   9.974   3.203   8.206 -1.4543 -0.4170 -0.1896
 1535SOL     OW 7046   2.666   3.055   5.507  0.1957  0.0231  0.0924
 1535SOL    HW1 7047   2.622   3.001   5.572 -0.4312  1.2126  0.6938
 1535SOL    HW2 7048   2.604   3.126   5.488  0.8985  0.4182 -0.8219
 1536SOL     OW 7049   3.395   1.685   7.504  0.5540 -0.1301  0.2456
 1536SOL    HW1 7050   3.450   1.714   7.431  1.8969 -0.8599  0.9448
 1536SOL    HW2 7051   3.373   1.594   7.484 -2.9006  0.8749 -1.4804
 1537SOL     OW 7052   2.253   3.146   1.282  0.5193 -0.6008  0.0154
 1537SOL    HW1 7053   2.276   3.229   1.325 -0.0203 -0.7748  0.6624
 1537SOL    HW2 7054   2.322   3.133   1.218  1.3926 -0.3515  0.8709
 1538SOL     OW 7055   5.085   8.669   0.245  0.3151 -0.3217  0.5998
 1538SOL    HW1 7056   5.125   8.644   0.328  1.2170 -1.0459 -0.0355
 1538SOL    HW2 7057   5.067   8.586   0.201  1.3504  0.0691 -0.6181
 1539SOL     OW 7058   2.791   1.253   6.920  0.4590 -0.3315  0.0684
 1539SOL    HW1 7059   2.835   1.181   6.875  1.9352  0.9384 -0.6128
 1539SOL    HW2 7060   2.842   1.266   7.000  0.5636  0.3302 -0.0996
 1540SOL     OW 7061   0.122   2.250  10.027  0.4450 -0.1415 -0.1650
 1540SOL    HW1 7062   0.057   2.303  10.074  0.6786 -0.6253  0.7262
 1540SOL    HW2 7063   0.206   2.292  10.046  0.7371 -1.3006  1.2823
 1541SOL     OW 7064   4.120   5.047   3.501  0.1419 -0.0687 -1.2715
 1541SOL    HW1 7065   4.186   5.109   3.533  0.0819 -1.7221  2.5671
 1541SOL    HW2 7066   4.169   4.966   3.488 -0.3599 -0.1142 -3.1752
 1542SOL     OW 7067   7.471   2.375   6.984  0.3288  0.3925  0.1498
 1542SOL    HW1 7068   7.422   2.389   6.903  0.5813  3.6311  0.4169
 1542SOL    HW2 7069   7.561   2.359   6.955  0.5687  2.2531 -0.2922
 1543SOL     OW 7070   4.409   4.250   1.896 -0.3184  0.2151  0.5792
 1543SOL    HW1 7071   4.314   4.261   1.884 -0.6255 -0.5202  2.1732
 1543SOL    HW2 7072   4.445   4.271   1.810 -2.0106 -0.6249 -0.3992
 1544SOL     OW 7073   7.399   6.501   2.601 -0.4039 -0.3389  0.3863
 1544SOL    HW1 7074   7.308   6.525   2.622 -0.4649  0.4470 -0.6938
 1544SOL    HW2 7075   7.436   6.580   2.562  0.8147 -0.5972  0.9864
 1545SOL     OW 7076   0.127   5.045   2.520  0.0770  0.1498 -0.1948
 1545SOL    HW1 7077   0.065   5.102   2.476 -1.5375  0.3912  2.2224
 1545SOL    HW2 7078   0.186   5.105   2.566 -0.4565 -0.0745  0.8128
 1546SOL     OW 7079   3.111   9.785   6.121  0.3055  0.3466 -0.3685
 1546SOL    HW1 7080   3.089   9.878   6.114 -0.2719  0.2168 -0.4006
 1546SOL    HW2 7081   3.068   9.757   6.202  0.3807  0.0834 -0.4183
 1547SOL     OW 7082   4.393   3.970   2.259  0.0596 -0.5620 -0.0025
 1547SOL    HW1 7083   4.298   3.982   2.262 -0.1062 -1.8579  0.3719
 1547SOL    HW2 7084   4.426   4.018   2.334 -0.2125  0.5077 -0.5434
 1548SOL     OW 7085   0.234   7.354  10.300 -0.5944 -0.1347  0.8905
 1548SOL    HW1 7086   0.218   7.302  10.378  1.1862  0.2344  1.5388
 1548SOL    HW2 7087   0.328   7.368  10.299 -0.2366 -1.7830 -2.4064
 1549SOL     OW 7088   5.012   2.346   2.061 -0.8214  0.0112 -0.0987
 1549SOL    HW1 7089   4.960   2.285   2.009 -1.9126 -1.8498  2.9281
 1549SOL    HW2 7090   4.949   2.408   2.096 -0.2900  0.5251 -0.0332
 1550SOL     OW 7091   8.144   9.706   9.263 -0.4743  0.3041  0.5206
 1550SOL    HW1 7092   8.091   9.785   9.265 -0.1487  0.5385  0.1998
 1550SOL    HW2 7093   8.205   9.720   9.189 -0.9862 -0.6155 -0.0960
 1551SOL     OW 7094   2.785   6.495   3.669 -0.1333  0.0935 -0.0530
 1551SOL    HW1 7095   2.784   6.408   3.630  0.7328  0.1687 -0.2656
 1551SOL    HW2 7096   2.833   6.549   3.606  1.7967  0.0859  1.3180
 1552SOL     OW 7097   5.931   5.268   9.942  0.3867  0.2205  0.2489
 1552SOL    HW1 7098   6.000   5.304   9.999  3.0704 -2.1223 -1.2574
 1552SOL    HW2 7099   5.903   5.188   9.987 -1.2742  1.0077  0.7029
 1553SOL     OW 7100   8.605   9.909   9.919  0.0299  0.5015  0.1104
 1553SOL    HW1 7101   8.659   9.934   9.993 -0.5149  1.3254  0.2356
 1553SOL    HW2 7102   8.517   9.939   9.941 -0.3764 -0.3120 -0.3425
 1554SOL     OW 7103   5.850   5.320   4.309 -0.7100 -0.3552  0.0690
 1554SOL    HW1 7104   5.888   5.407   4.299 -0.6788 -0.3470  0.2558
 1554SOL    HW2 7105   5.770   5.322   4.256 -1.1064  0.0350  0.6640
 1555SOL     OW 7106   7.468   6.854   4.599  0.0630 -0.2498 -0.6305
 1555SOL    HW1 7107   7.376   6.850   4.626  0.2134 -0.5348 -0.1484
 1555SOL    HW2 7108   7.489   6.948   4.600  0.6194 -0.3172  2.2502
 1556SOL     OW 7109   8.537   3.601   3.320  0.3019  0.2604  0.3875
 1556SOL    HW1 7110   8.529   3.532   3.386 -0.8484 -1.1557 -1.1396
 1556SOL    HW2 7111   8.563   3.555   3.241 -0.4562  1.5826 -0.6696
 1557SOL     OW 7112   9.726   4.660   4.466 -0.0660  0.0072 -0.4182
 1557SOL    HW1 7113   9.757   4.739   4.422  0.9127 -0.4736 -0.6234
 1557SOL    HW2 7114   9.793   4.594   4.447 -0.0140 -0.4309  1.1401
 1558SOL     OW 7115   8.942   0.950   1.054 -0.9044  0.3397  0.1587
 1558SOL    HW1 7116   8.980   0.931   1.140  0.1378  1.6930  0.0285
 1558SOL    HW2 7117   8.905   0.866   1.025 -1.1049 -0.1775  1.8247
 1559SOL     OW 7118   9.361  10.007   0.715  0.4339  0.1492 -0.1178
 1559SOL    HW1 7119   9.444  10.031   0.757  0.9077 -0.9440 -0.3826
 1559SOL    HW2 7120   9.303   9.983   0.788  0.8050 -0.4070  0.0037
 1560SOL     OW 7121   2.957   6.239   3.368  0.0581  0.1264 -0.5574
 1560SOL    HW1 7122   2.933   6.147   3.369 -0.3668  0.2211 -1.3942
 1560SOL    HW2 7123   2.889   6.281   3.316 -0.8687  1.2389  1.4398
 1561SOL     OW 7124   1.848   8.353   5.883 -0.0040  0.4848 -0.2042
 1561SOL    HW1 7125   1.880   8.264   5.869 -1.8719 -0.6086  1.8466
 1561SOL    HW2 7126   1.756   8.351   5.857 -0.6484  1.1907  1.8288
 1562SOL     OW 7127   0.985   4.980  10.165 -0.0643 -0.0311 -0.0280
 1562SOL    HW1 7128   0.965   5.068  10.132 -0.8388  0.3198  1.3034
 1562SOL    HW2 7129   1.007   4.930  10.086 -2.6647  0.5349 -1.2541
 1563SOL     OW 7130   5.340   4.686   4.865 -0.0043 -0.7468 -0.2040
 1563SOL    HW1 7131   5.373   4.753   4.804 -0.2408  1.4458  1.9058
 1563SOL    HW2 7132   5.373   4.604   4.830  1.9236  0.6365 -1.9351
 1564SOL     OW 7133   2.888   7.369   0.461  0.0763  0.7557 -0.0569
 1564SOL    HW1 7134   2.969   7.397   0.503  1.2142 -0.1665 -1.5585
 1564SOL    HW2 7135   2.856   7.447   0.416  0.6688  0.8698 -0.2822
 1565SOL     OW 7136   4.585   0.965   9.802  0.5967  0.1053 -0.1452
 1565SOL    HW1 7137   4.622   0.896   9.856  0.4742 -0.0285 -0.2320
 1565SOL    HW2 7138   4.554   1.030   9.865 -0.1390 -0.3495 -0.0194
 1566SOL     OW 7139   3.849   1.511   8.438  0.3930  0.0739 -0.9248
 1566SOL    HW1 7140   3.829   1.523   8.346 -0.8480  0.3036 -0.6409
 1566SOL    HW2 7141   3.853   1.416   8.450 -0.0735  0.0320 -1.0937
 1567SOL     OW 7142   8.224   9.220   1.465 -0.0673  0.0458 -0.0771
 1567SOL    HW1 7143   8.314   9.207   1.437  0.2945  0.6518  0.7801
 1567SOL    HW2 7144   8.181   9.136   1.447  0.9718 -0.6658  0.6673
 1568SOL     OW 7145   6.643   1.822   8.656  0.1922  0.1290 -0.0897
 1568SOL    HW1 7146   6.692   1.764   8.715 -0.3830  2.0953  2.5173
 1568SOL    HW2 7147   6.706   1.890   8.632 -0.3501  0.9439  0.7222
 1569SOL     OW 7148   6.809   2.134   2.756  0.2608  0.0382 -0.0798
 1569SOL    HW1 7149   6.736   2.072   2.759 -0.6231  0.9802 -1.1732
 1569SOL    HW2 7150   6.886   2.080   2.738 -0.1651 -0.9525  0.9224
 1570SOL     OW 7151   1.039   9.002   3.087  0.1830  0.3196 -0.0608
 1570SOL    HW1 7152   0.986   9.008   3.167 -1.1231  0.1227 -0.8856
 1570SOL    HW2 7153   0.998   8.933   3.036  1.8693 -0.5588 -0.3004
 1571SOL     OW 7154   5.044   6.311  10.379 -0.5185  0.4137  0.3482
 1571SOL    HW1 7155   5.120   6.253  10.370 -1.5363 -0.8775 -0.3272
 1571SOL    HW2 7156   5.080   6.394  10.411  1.1364 -0.2291  0.2347
 1572SOL     OW 7157   2.098   5.171   5.979 -0.8020 -0.2233  0.0725
 1572SOL    HW1 7158   2.013   5.171   5.936 -0.5255  0.4650 -0.4976
 1572SOL    HW2 7159   2.161   5.172   5.907 -0.2984 -0.9823  0.4814
 1573SOL     OW 7160   9.653   5.501   3.186  0.4459 -0.2352  0.0386
 1573SOL    HW1 7161   9.725   5.489   3.124  1.4142  0.2515  1.0343
 1573SOL    HW2 7162   9.579   5.528   3.132  0.2458 -3.1806 -1.3493
 1574SOL     OW 7163   9.185   3.816   3.717 -0.0735  0.7160 -0.4860
 1574SOL    HW1 7164   9.175   3.910   3.727  0.8939  0.7365  0.4963
 1574SOL    HW2 7165   9.259   3.805   3.658  0.6412  0.5863  0.4136
 1575SOL     OW 7166   7.790   6.373   0.107  0.2635  0.5704  0.2650
 1575SOL    HW1 7167   7.783   6.387   0.012 -0.4799  0.9408  0.3677
 1575SOL    HW2 7168   7.826   6.285   0.116  0.3955  0.5540 -0.3611
 1576SOL     OW 7169   7.718   1.729   8.652  0.1791  0.0982  0.2049
 1576SOL    HW1 7170   7.806   1.714   8.688  1.4076  2.4883 -1.5317
 1576SOL    HW2 7171   7.668   1.763   8.726  0.9678 -0.3923  0.9918
 1577SOL     OW 7172   6.195   7.976   2.705  0.2297 -0.4135 -0.4609
 1577SOL    HW1 7173   6.232   7.916   2.640  1.4504  1.3016 -1.4091
 1577SOL    HW2 7174   6.171   8.054   2.655  1.1449  0.9264  1.0865
 1578SOL     OW 7175   0.229   7.636  10.345  0.3350 -0.3066 -0.3136
 1578SOL    HW1 7176   0.220   7.541  10.359 -0.1326 -0.3608 -0.9263
 1578SOL    HW2 7177   0.323   7.653  10.353  0.6985 -1.1724 -2.2433
 1579SOL     OW 7178   7.702   7.267   9.274 -0.0208 -0.3793  0.3312
 1579SOL    HW1 7179   7.666   7.307   9.353  0.3583 -0.4747  0.5545
 1579SOL    HW2 7180   7.708   7.339   9.211 -0.0275 -0.2375  0.4908
 1580SOL     OW 7181   3.040   9.993   9.761 -0.1220  0.0781 -0.0893
 1580SOL    HW1 7182   3.095   9.928   9.718  0.6457  1.2959 -1.0097
 1580SOL    HW2 7183   3.083  10.007   9.846  0.7091  0.6278 -0.5834
 1581SOL     OW 7184   1.599   7.881   0.280 -0.4865  0.0504 -0.4978
 1581SOL    HW1 7185   1.635   7.960   0.319 -0.0938 -1.5949  2.7714
 1581SOL    HW2 7186   1.507   7.880   0.308 -0.1153 -1.3329  0.7541
 1582SOL     OW 7187   4.119   1.106   9.607  0.2990  0.4644  0.1915
 1582SOL    HW1 7188   4.137   1.101   9.513 -0.8685 -0.4596 -0.0019
 1582SOL    HW2 7189   4.204   1.091   9.648  0.7948  0.7323 -0.7116
 1583SOL     OW 7190   8.475   1.157   1.572  0.5305  0.2206  0.4455
 1583SOL    HW1 7191   8.425   1.081   1.542  0.2845  0.0804  1.2093
 1583SOL    HW2 7192   8.447   1.171   1.662 -1.3955  2.8278 -0.4377
 1584SOL     OW 7193   8.657   1.414   2.218 -0.7891  0.2197 -0.3045
 1584SOL    HW1 7194   8.641   1.320   2.213 -0.3248  0.1594 -0.7498
 1584SOL    HW2 7195   8.743   1.426   2.177 -0.3088  0.6906  0.8122
 1585SOL     OW 7196   2.027   1.597   8.762 -0.5225 -0.7711  0.0178
 1585SOL    HW1 7197   1.936   1.613   8.787 -0.7609 -0.0912 -1.2252
 1585SOL    HW2 7198   2.037   1.639   8.677  0.8942 -1.0530  0.0148
 1586SOL     OW 7199   6.962   6.867   4.930 -0.0828 -0.0902  0.4368
 1586SOL    HW1 7200   6.994   6.832   5.013 -1.4188  1.5330  1.6873
 1586SOL    HW2 7201   6.869   6.845   4.928 -0.7633  2.4142  0.8426
 1587SOL     OW 7202   0.020   5.591   3.356 -0.1306  0.1738 -0.2608
 1587SOL    HW1 7203   0.014   5.677   3.315 -1.1119  0.6709  0.8513
 1587SOL    HW2 7204  -0.021   5.603   3.442  0.8045 -1.1010  0.3985
 1588SOL     OW 7205   4.922   5.982   8.315 -0.3124 -0.0854  1.0311
 1588SOL    HW1 7206   4.959   6.057   8.361  2.3153 -1.6231  1.6459
 1588SOL    HW2 7207   4.863   5.941   8.379 -0.6279  0.6157  1.1969
 1589SOL     OW 7208   1.355   3.062   8.868 -0.1340 -0.3889  0.3241
 1589SOL    HW1 7209   1.426   3.000   8.848  1.4251  0.6426  2.3407
 1589SOL    HW2 7210   1.296   3.055   8.793  2.4008 -0.8403 -1.7839
 1590SOL     OW 7211   9.328   2.329   9.158 -0.6055 -0.7151  0.3123
 1590SOL    HW1 7212   9.245   2.282   9.169 -1.2541 -0.0540 -1.4489
 1590SOL    HW2 7213   9.330   2.353   9.065  1.0242  0.3047  0.5763
 1591SOL     OW 7214   1.812   8.922   3.658  0.2573  0.1854 -0.8092
 1591SOL    HW1 7215   1.738   8.973   3.625 -0.8866  0.5384  1.9780
 1591SOL    HW2 7216   1.812   8.940   3.753  2.3378 -1.8499 -0.3462
 1592SOL     OW 7217   2.546  10.470   2.713 -0.0445 -0.3224  0.1566
 1592SOL    HW1 7218   2.579  10.536   2.652 -2.3494  0.9001  0.1011
 1592SOL    HW2 7219   2.608  10.470   2.785 -0.2524  2.3728  0.4377
 1593SOL     OW 7220   7.811   3.749   1.192  0.3254 -0.5608 -0.0453
 1593SOL    HW1 7221   7.853   3.675   1.148 -0.6590 -1.3967  0.4094
 1593SOL    HW2 7222   7.723   3.719   1.212  0.0046  0.6334  0.4234
 1594SOL     OW 7223   8.280   1.438   1.194  0.0116 -0.0853  0.4075
 1594SOL    HW1 7224   8.291   1.527   1.160  0.5138 -0.2621  0.0955
 1594SOL    HW2 7225   8.343   1.385   1.144 -1.6492 -0.9773 -0.8222
 1595SOL     OW 7226  10.470   8.594   5.025 -0.3671 -0.2876 -0.2691
 1595SOL    HW1 7227  10.433   8.645   5.097 -0.8947 -0.1437 -0.6416
 1595SOL    HW2 7228  10.563   8.584   5.048 -0.0168  1.6844 -0.6649
 1596SOL     OW 7229   3.124   8.678   6.931  0.0845  0.2045  0.1169
 1596SOL    HW1 7230   3.036   8.647   6.951 -0.1408  1.2175  0.7922
 1596SOL    HW2 7231   3.182   8.617   6.977 -0.2059 -1.0601 -1.1489
 1597SOL     OW 7232   5.153   0.048   4.400  0.0773  0.0374  0.4713
 1597SOL    HW1 7233   5.122  -0.031   4.444  0.6886  0.1791  1.1836
 1597SOL    HW2 7234   5.229   0.019   4.349 -0.2952 -0.0181 -0.0606
 1598SOL     OW 7235   9.852   8.445   7.379  0.2611 -0.1128  0.2709
 1598SOL    HW1 7236   9.908   8.438   7.302 -0.1856  1.5598 -0.2580
 1598SOL    HW2 7237   9.871   8.367   7.430  3.5318  0.6628  0.4301
 1599SOL     OW 7238   8.618   1.058   4.493 -0.1835 -0.8827 -0.5656
 1599SOL    HW1 7239   8.633   1.139   4.444 -0.9286 -0.8291 -0.7182
 1599SOL    HW2 7240   8.686   0.999   4.462  0.8456 -0.0920  0.0903
 1600SOL     OW 7241   6.758   2.659   8.555 -0.0110  0.4017 -0.1119
 1600SOL    HW1 7242   6.823   2.588   8.551 -0.4246 -0.0496  0.9350
 1600SOL    HW2 7243   6.697   2.638   8.485  0.5444  0.4137 -0.6128
 1601SOL     OW 7244   3.558   7.018   4.671 -0.0094 -0.0511 -0.1994
 1601SOL    HW1 7245   3.529   7.093   4.723 -1.3751 -1.2087  0.7606
 1601SOL    HW2 7246   3.489   7.006   4.606  0.0279 -0.6879 -0.1255
 1602SOL     OW 7247   6.348   4.468   4.854 -0.0968 -0.5718  0.2969
 1602SOL    HW1 7248   6.412   4.400   4.878 -0.5454 -0.3540  2.3041
 1602SOL    HW2 7249   6.296   4.428   4.785  1.6351 -1.0709 -0.7948
 1603SOL     OW 7250   1.429   2.766   3.595  0.4134 -0.4303 -0.0716
 1603SOL    HW1 7251   1.386   2.699   3.542 -0.1145  0.1120 -0.3523
 1603SOL    HW2 7252   1.455   2.721   3.675 -1.2657 -0.6454  0.3944
 1604SOL     OW 7253   2.168   3.274   9.949  0.5100 -0.4453 -0.0686
 1604SOL    HW1 7254   2.188   3.249   9.859 -0.1369  1.3515 -0.7630
 1604SOL    HW2 7255   2.094   3.218   9.973  1.7459 -2.1405  0.0136
 1605SOL     OW 7256   8.062   5.676   1.663 -0.5102  0.0920 -0.0952
 1605SOL    HW1 7257   8.136   5.735   1.675 -1.8813  1.7837  0.4975
 1605SOL    HW2 7258   8.101   5.589   1.656  1.5071  0.9192  0.2704
 1606SOL     OW 7259   5.509   4.078   3.864  0.5464 -0.5614 -0.0468
 1606SOL    HW1 7260   5.467   4.110   3.945  0.6060 -0.6107  0.0040
 1606SOL    HW2 7261   5.583   4.027   3.895 -0.1877 -1.6754 -0.0958
 1607SOL     OW 7262   3.074   7.540   1.609 -0.0109 -0.4270 -0.1664
 1607SOL    HW1 7263   3.095   7.512   1.520 -2.1534  0.9026 -1.1662
 1607SOL    HW2 7264   2.988   7.503   1.626 -0.5801  1.1306  0.4845
 1608SOL     OW 7265   3.420   7.220   7.137  0.4523  0.2572  0.2919
 1608SOL    HW1 7266   3.332   7.256   7.151 -0.0600 -0.7562 -0.1644
 1608SOL    HW2 7267   3.425   7.145   7.197  0.7401 -0.1047 -0.1733
 1609SOL     OW 7268   5.970   1.546   7.232  0.0570  0.1613  0.5154
 1609SOL    HW1 7269   6.027   1.521   7.305  0.3894  0.9331  0.5334
 1609SOL    HW2 7270   5.892   1.582   7.274 -0.4785 -0.9404  0.4910
 1610SOL     OW 7271  10.380   4.263   5.022  0.0389 -0.2766  0.0411
 1610SOL    HW1 7272  10.370   4.347   4.976 -0.5250 -0.1292  0.4170
 1610SOL    HW2 7273  10.290   4.235   5.039  0.2295 -0.8555  0.1103
 1611SOL     OW 7274   7.416   2.114   7.425 -0.3602 -0.2566 -0.6446
 1611SOL    HW1 7275   7.333   2.113   7.473 -0.6326 -0.8668 -1.1237
 1611SOL    HW2 7276   7.392   2.108   7.333  0.1651  0.9692 -0.8864
 1612SOL     OW 7277   5.438   1.469   8.818  0.0176  0.3128  0.4136
 1612SOL    HW1 7278   5.444   1.511   8.732 -0.7619  0.8684  0.6142
 1612SOL    HW2 7279   5.491   1.390   8.810 -1.2252 -0.4191 -1.0574
 1613SOL     OW 7280   8.349   8.098   2.324  0.5860 -0.2287 -0.1276
 1613SOL    HW1 7281   8.345   8.193   2.333  2.9022 -0.0566 -0.3793
 1613SOL    HW2 7282   8.262   8.067   2.351  0.5858  1.7463  2.5196
 1614SOL     OW 7283  10.016   4.771   1.407 -0.4085  0.3200 -0.9847
 1614SOL    HW1 7284  10.063   4.744   1.486 -2.8836 -0.3600  0.3705
 1614SOL    HW2 7285  10.042   4.862   1.394  0.3032  0.3621  0.4654
 1615SOL     OW 7286   2.231   9.757   4.648 -0.2296  0.2661  0.1136
 1615SOL    HW1 7287   2.221   9.664   4.669 -1.1396  0.8120  2.4564
 1615SOL    HW2 7288   2.311   9.784   4.693  1.4051  0.1465 -2.5703
 1616SOL     OW 7289   5.825   9.831   7.103  0.0997 -0.2132 -0.0172
 1616SOL    HW1 7290   5.799   9.823   7.012  1.3426  0.7012 -0.4774
 1616SOL    HW2 7291   5.746   9.860   7.148 -0.6888 -1.2476 -0.6719
 1617SOL     OW 7292   6.678  10.151   6.031  0.2437  0.1930  0.5225
 1617SOL    HW1 7293   6.773  10.142   6.039  0.1684 -0.2600  0.9880
 1617SOL    HW2 7294   6.661  10.244   6.045  0.9966  1.1625 -3.6809
 1618SOL     OW 7295   1.176   3.031   8.653 -0.2518 -0.1378 -0.0707
 1618SOL    HW1 7296   1.243   3.020   8.585 -0.4139 -1.8292  0.0020
 1618SOL    HW2 7297   1.108   3.084   8.611 -0.8879 -2.0959 -1.6757
 1619SOL     OW 7298   6.627   4.746   6.195  0.0502 -0.3471 -0.3494
 1619SOL    HW1 7299   6.594   4.835   6.205  1.4113  0.1738 -0.3611
 1619SOL    HW2 7300   6.654   4.741   6.103 -2.0584 -1.5153 -0.9811
 1620SOL     OW 7301   9.700   8.476   6.992 -0.1782 -0.1566 -0.6069
 1620SOL    HW1 7302   9.705   8.548   6.929 -1.5904 -0.1453 -0.7448
 1620SOL    HW2 7303   9.783   8.430   6.983  0.2062  0.6765 -1.4686
 1621SOL     OW 7304   5.047   1.985   2.116  0.5738  0.0784 -0.5641
 1621SOL    HW1 7305   5.000   2.057   2.159  1.1717 -0.7494  1.5931
 1621SOL    HW2 7306   5.044   1.913   2.179  2.0599 -1.0251 -1.6796
 1622SOL     OW 7307   4.777   1.538   1.562 -0.0165  0.0937 -0.0340
 1622SOL    HW1 7308   4.796   1.459   1.613 -0.6329 -0.3871 -0.5456
 1622SOL    HW2 7309   4.864   1.573   1.541  0.2829 -0.7783 -0.3221
 1623SOL     OW 7310   1.423   2.489   8.248 -0.3147 -0.2365 -0.2414
 1623SOL    HW1 7311   1.450   2.436   8.173  1.4044 -0.3152  0.3823
 1623SOL    HW2 7312   1.475   2.569   8.240 -0.5922  0.0227  0.5197
 1624SOL     OW 7313   0.375   0.184   8.258  0.6943  0.1129 -0.5038
 1624SOL    HW1 7314   0.447   0.128   8.287  1.8012  1.2720 -0.9527
 1624SOL    HW2 7315   0.328   0.132   8.193  2.1281 -0.0593 -1.4420
 1625SOL     OW 7316   2.106   8.239  10.351  0.2875 -0.5362  0.0269
 1625SOL    HW1 7317   2.197   8.209  10.349  0.5977  0.3606  0.1360
 1625SOL    HW2 7318   2.090   8.272  10.263  0.0611 -0.7016  0.0056
 1626SOL     OW 7319   1.040   1.539   8.042 -0.2981  0.3833 -0.1738
 1626SOL    HW1 7320   0.975   1.605   8.065 -2.3545 -2.2717  2.3913
 1626SOL    HW2 7321   1.083   1.518   8.125  1.6576 -0.1978 -1.2779
 1627SOL     OW 7322   0.431   6.572   8.280 -0.3697  0.2963 -0.1652
 1627SOL    HW1 7323   0.419   6.486   8.322 -2.4127  0.6551  0.0916
 1627SOL    HW2 7324   0.377   6.632   8.332  1.1666  1.8081 -0.2333
 1628SOL     OW 7325   3.713   0.046   0.567  0.0114 -0.0365 -0.3366
 1628SOL    HW1 7326   3.687  -0.046   0.577  0.9827 -0.1569  1.5244
 1628SOL    HW2 7327   3.765   0.047   0.486 -1.7485 -0.6765 -1.5202
 1629SOL     OW 7328   8.215   9.037   9.651 -0.2653 -0.0003  0.9735
 1629SOL    HW1 7329   8.279   9.094   9.609 -0.8785  0.9677  1.3264
 1629SOL    HW2 7330   8.177   9.091   9.720 -0.9186 -0.8149  1.2644
 1630SOL     OW 7331   0.304   6.285  10.214 -0.6012 -0.3606  0.4968
 1630SOL    HW1 7332   0.218   6.321  10.234 -0.3363  0.9161 -0.5479
 1630SOL    HW2 7333   0.309   6.287  10.118  0.8060  0.1182  0.5638
 1631SOL     OW 7334   4.792   2.794   9.847  0.2544  0.1367  0.0624
 1631SOL    HW1 7335   4.843   2.748   9.913  0.1500 -2.8721 -1.7601
 1631SOL    HW2 7336   4.858   2.835   9.791  0.6653 -1.6550 -0.8521
 1632SOL     OW 7337   5.861   4.750   9.677 -0.1791  0.2847  0.3030
 1632SOL    HW1 7338   5.926   4.691   9.637 -1.0626  0.8222 -2.0935
 1632SOL    HW2 7339   5.805   4.692   9.728  0.9919 -0.4496  0.8169
 1633SOL     OW 7340   9.273   8.383   9.305 -0.1215 -0.7271  0.1756
 1633SOL    HW1 7341   9.288   8.373   9.211 -1.4327  0.8440 -0.2529
 1633SOL    HW2 7342   9.359   8.374   9.345  0.5965 -0.4681 -1.2662
 1634SOL     OW 7343  10.398   1.517   9.433 -0.3877  0.0135 -0.0084
 1634SOL    HW1 7344  10.480   1.548   9.471 -1.4702  0.9039  1.7355
 1634SOL    HW2 7345  10.344   1.595   9.426 -0.0527  0.0486 -4.1846
 1635SOL     OW 7346   6.451   5.995   0.980 -0.1238 -0.4507  0.8283
 1635SOL    HW1 7347   6.500   6.061   1.028 -1.6930 -0.2419  2.2483
 1635SOL    HW2 7348   6.359   6.013   1.000 -0.7226 -1.7461 -0.4912
 1636SOL     OW 7349   9.880   3.997   8.496 -0.0631 -0.8760  0.5170
 1636SOL    HW1 7350   9.861   4.010   8.589  0.3520  1.0140  0.3893
 1636SOL    HW2 7351   9.976   3.998   8.491 -0.0260 -2.8164  0.2657
 1637SOL     OW 7352   0.470   3.368   6.136 -0.7295  0.3621  0.3565
 1637SOL    HW1 7353   0.463   3.350   6.230 -0.5174 -0.0970  0.2907
 1637SOL    HW2 7354   0.413   3.303   6.095 -1.7587  1.3332  0.2268
 1638SOL     OW 7355   5.859   6.989  10.342 -0.0916  0.0374  0.2782
 1638SOL    HW1 7356   5.877   7.045  10.266  0.6699  2.3642  2.0564
 1638SOL    HW2 7357   5.774   7.019  10.374 -0.7832 -1.4774 -0.0893
 1639SOL     OW 7358   0.495   5.471   6.617  0.6087  0.1567  0.4396
 1639SOL    HW1 7359   0.437   5.542   6.646  0.8624 -0.2544  2.0664
 1639SOL    HW2 7360   0.565   5.469   6.683  1.1189 -0.9686 -0.1227
 1640SOL     OW 7361   5.044   9.844   4.709 -0.3051 -0.2064 -0.1162
 1640SOL    HW1 7362   5.049   9.847   4.613  0.1686 -0.2550 -0.0962
 1640SOL    HW2 7363   5.126   9.803   4.736 -0.4010 -0.1181  0.3156
 1641SOL     OW 7364   3.107   1.108   4.897  0.0140  0.1380 -0.1679
 1641SOL    HW1 7365   3.050   1.185   4.893  1.0368  0.9743  0.7360
 1641SOL    HW2 7366   3.170   1.128   4.967  0.7350 -1.2229 -0.3904
 1642SOL     OW 7367   8.373  10.303   0.922  0.2017 -0.4238  0.8873
 1642SOL    HW1 7368   8.328  10.220   0.942 -1.7018  0.1276 -0.6751
 1642SOL    HW2 7369   8.307  10.370   0.941 -0.0914  0.3728 -2.3419
 1643SOL     OW 7370   9.434   4.177   4.872  0.4110  0.4620 -0.6024
 1643SOL    HW1 7371   9.387   4.256   4.843 -0.3187  0.2477 -0.0417
 1643SOL    HW2 7372   9.474   4.143   4.793  0.2075  1.0501 -0.9708
 1644SOL     OW 7373   4.412   0.365   7.361 -0.3526  0.4248  0.2652
 1644SOL    HW1 7374   4.326   0.397   7.332 -0.6749  0.5587  1.2940
 1644SOL    HW2 7375   4.451   0.325   7.284 -0.6361  1.8474 -0.6544
 1645SOL     OW 7376   1.671   0.003   0.523 -0.0486 -0.0417 -0.0007
 1645SOL    HW1 7377   1.730  -0.013   0.450 -0.5552  1.8402 -0.8570
 1645SOL    HW2 7378   1.719   0.061   0.581 -0.4104  0.1097  0.1510
 1646SOL     OW 7379   0.717  10.449   0.925  0.0174 -0.3489  0.0684
 1646SOL    HW1 7380   0.642  10.397   0.896 -0.2356  0.8562 -1.5816
 1646SOL    HW2 7381   0.741  10.501   0.848 -0.6371  3.0618  1.9920
 1647SOL     OW 7382   9.335   7.896   3.813  0.2292 -0.7480  0.0190
 1647SOL    HW1 7383   9.363   7.875   3.724 -0.5029  1.7875 -0.9058
 1647SOL    HW2 7384   9.287   7.818   3.842  0.0798 -1.4647 -1.9958
 1648SOL     OW 7385   0.575   5.705  10.348  0.1990 -0.2155  0.1027
 1648SOL    HW1 7386   0.582   5.611  10.365 -0.3618 -0.2384  0.2177
 1648SOL    HW2 7387   0.663   5.738  10.366  1.0006 -1.0309 -1.9950
 1649SOL     OW 7388   1.134   7.326   5.072 -0.3657  0.2156  0.0542
 1649SOL    HW1 7389   1.119   7.419   5.090 -1.7236  0.1163 -0.4642
 1649SOL    HW2 7390   1.213   7.305   5.121  0.2950  1.7847 -0.2718
 1650SOL     OW 7391   7.294   9.303   7.637  0.3144  0.6615  0.0131
 1650SOL    HW1 7392   7.220   9.343   7.682  0.4614  1.4692 -0.4513
 1650SOL    HW2 7393   7.366   9.307   7.700  0.4338  1.4995 -0.1642
 1651SOL     OW 7394   5.743   2.754   3.305 -0.7466  0.0216  0.0415
 1651SOL    HW1 7395   5.760   2.768   3.212 -0.1839 -2.0567 -0.2306
 1651SOL    HW2 7396   5.741   2.842   3.343 -0.2522  0.8765 -1.7963
 1652SOL     OW 7397   3.305   6.209   1.081 -0.3820  0.0942 -0.0360
 1652SOL    HW1 7398   3.321   6.147   1.010 -0.1719  1.2405 -1.0243
 1652SOL    HW2 7399   3.338   6.165   1.159  0.7732 -0.5945 -0.8848
 1653SOL     OW 7400   4.420   4.750   0.943 -0.7508  0.1506 -0.2697
 1653SOL    HW1 7401   4.356   4.821   0.954 -0.6072  0.0043  2.1905
 1653SOL    HW2 7402   4.370   4.671   0.965 -0.6413 -0.4285 -1.9891
 1654SOL     OW 7403   3.624   4.448   3.423 -0.0222 -0.4887 -0.7166
 1654SOL    HW1 7404   3.591   4.358   3.427  1.4354 -1.0934 -1.4555
 1654SOL    HW2 7405   3.717   4.440   3.445 -0.6577  1.4389  3.7170
 1655SOL     OW 7406   9.494   0.797   1.197  0.0372 -0.9210  0.1909
 1655SOL    HW1 7407   9.581   0.766   1.172  0.5114  0.2058  0.3706
 1655SOL    HW2 7408   9.507   0.889   1.222 -1.2584 -0.6273 -0.1061
 1656SOL     OW 7409   5.644   3.573   8.206  0.2287  0.8787  0.4626
 1656SOL    HW1 7410   5.693   3.636   8.153 -3.3757  0.8526 -3.4188
 1656SOL    HW2 7411   5.598   3.626   8.270  1.1024  1.4993  0.6019
 1657SOL     OW 7412   5.329   0.036   9.879 -0.4458 -0.1508 -0.3542
 1657SOL    HW1 7413   5.271  -0.031   9.841 -0.6540 -0.1044 -0.1153
 1657SOL    HW2 7414   5.415  -0.007   9.883 -0.7152 -0.6225  0.3974
 1658SOL     OW 7415   9.020   4.133  10.230 -0.1872  0.1011  0.1454
 1658SOL    HW1 7416   8.993   4.210  10.181 -0.2956 -1.2692 -2.0797
 1658SOL    HW2 7417   8.959   4.064  10.203  1.0752 -1.2476  0.5844
 1659SOL     OW 7418   6.834   0.460   0.403  0.5697 -0.2552  0.7998
 1659SOL    HW1 7419   6.928   0.446   0.420  0.6847 -0.4610  0.0370
 1659SOL    HW2 7420   6.816   0.406   0.326  0.5379  2.0995 -0.9332
 1660SOL     OW 7421   3.285   5.563   3.284 -0.3067 -0.2035  0.3089
 1660SOL    HW1 7422   3.374   5.594   3.302  0.4650 -1.9354 -0.3084
 1660SOL    HW2 7423   3.238   5.574   3.366  0.3813  0.9880  0.5699
 1661SOL     OW 7424   0.451   3.705  10.295 -0.2726 -0.0695 -0.0470
 1661SOL    HW1 7425   0.438   3.621  10.251  1.3457 -0.7846  0.7565
 1661SOL    HW2 7426   0.430   3.770  10.228  0.4239 -1.1261 -1.3383
 1662SOL     OW 7427   4.395   2.646   3.682  0.0318 -0.2055  0.3013
 1662SOL    HW1 7428   4.430   2.622   3.596 -0.0254  1.4641 -0.2096
 1662SOL    HW2 7429   4.469   2.685   3.729 -0.5832  1.3845 -0.0052
 1663SOL     OW 7430   4.932   8.196   5.101 -0.5506  0.1164  0.0454
 1663SOL    HW1 7431   4.850   8.207   5.149 -0.7034 -1.4151  0.1709
 1663SOL    HW2 7432   4.905   8.178   5.011 -0.3172  0.5812 -0.1237
 1664SOL     OW 7433   5.350   0.167  10.272 -0.2171 -0.0391  0.2436
 1664SOL    HW1 7434   5.328   0.229  10.342 -1.3133  0.4472 -0.5140
 1664SOL    HW2 7435   5.296   0.194  10.198 -0.8251 -1.9920 -0.0653
 1665SOL     OW 7436   6.194   2.852   4.656  0.3046 -0.2571  0.0386
 1665SOL    HW1 7437   6.124   2.912   4.679 -0.3387 -1.1903  0.5744
 1665SOL    HW2 7438   6.214   2.872   4.564  0.2352  0.8795  0.2589
 1666SOL     OW 7439   1.135  10.177   8.475  0.5101 -0.1714  0.1755
 1666SOL    HW1 7440   1.148  10.086   8.501  0.6997 -0.0186  0.6392
 1666SOL    HW2 7441   1.091  10.217   8.550  1.8137  0.4856  0.6223
 1667SOL     OW 7442   2.352   2.393   8.037 -0.5503  0.1043  0.4550
 1667SOL    HW1 7443   2.376   2.310   7.994 -0.6141  0.0176  0.5854
 1667SOL    HW2 7444   2.423   2.409   8.099 -1.1587 -0.5056  1.3286
 1668SOL     OW 7445   5.689   5.983   3.853  0.1171 -0.6678 -0.1013
 1668SOL    HW1 7446   5.665   6.030   3.933  1.6700 -1.2456  0.7707
 1668SOL    HW2 7447   5.619   6.002   3.791 -0.5944  0.6650  1.0551
 1669SOL     OW 7448   7.577   0.526   5.591 -0.1812  0.0962  0.8738
 1669SOL    HW1 7449   7.563   0.574   5.672  0.5681 -0.1119  1.1302
 1669SOL    HW2 7450   7.497   0.474   5.580 -1.0238  1.4206  0.5555
 1670SOL     OW 7451   6.590   6.730   0.919  0.1277  0.2367 -0.4670
 1670SOL    HW1 7452   6.497   6.742   0.938  0.0167 -0.9086 -0.1821
 1670SOL    HW2 7453   6.621   6.672   0.989  1.2083  1.1183 -0.2034
 1671SOL     OW 7454   6.915   9.065   7.470  0.0450  0.2525 -0.3352
 1671SOL    HW1 7455   6.897   9.136   7.532 -0.0625  0.3110 -0.4355
 1671SOL    HW2 7456   7.008   9.045   7.485 -0.3864 -0.9212  1.0856
 1672SOL     OW 7457   0.899   2.175   0.865 -0.0193 -0.5542 -0.1964
 1672SOL    HW1 7458   0.881   2.267   0.843  0.8712 -0.8463 -2.4686
 1672SOL    HW2 7459   0.992   2.174   0.888 -0.1207 -0.8303  0.1956
 1673SOL     OW 7460   7.668   6.917   3.602 -0.1483  0.3561 -0.3639
 1673SOL    HW1 7461   7.729   6.959   3.663  0.2308  0.2670 -0.6707
 1673SOL    HW2 7462   7.614   6.988   3.569 -1.0717  0.2526  0.8699
 1674SOL     OW 7463  10.080   2.874  10.091  0.0699 -0.0709  0.2021
 1674SOL    HW1 7464  10.028   2.951  10.116  1.0991  0.5346  0.5155
 1674SOL    HW2 7465  10.024   2.826  10.030 -0.6488  0.8356  0.1324
 1675SOL     OW 7466   2.910   4.817   3.324  0.5088  0.4617  0.3938
 1675SOL    HW1 7467   2.839   4.813   3.260 -0.3635  1.4615  1.2381
 1675SOL    HW2 7468   2.865   4.834   3.407  1.8322  3.0847  0.6698
 1676SOL     OW 7469   6.228   9.181   4.081  0.3297 -0.1938  0.1609
 1676SOL    HW1 7470   6.141   9.215   4.058  0.8420  0.2969 -1.1947
 1676SOL    HW2 7471   6.218   9.086   4.077 -0.3809 -0.1678  1.0040
 1677SOL     OW 7472   0.318   5.450   4.492  0.0902 -0.0270 -0.1818
 1677SOL    HW1 7473   0.241   5.419   4.539  0.2591 -1.5137 -0.8338
 1677SOL    HW2 7474   0.384   5.464   4.561  0.0528 -1.3026  0.1473
 1678SOL     OW 7475   7.606   9.600   7.696 -0.2814  0.3951  0.6586
 1678SOL    HW1 7476   7.559   9.516   7.690 -0.4337  0.4790  0.6511
 1678SOL    HW2 7477   7.634   9.605   7.787  1.7249 -0.7178  0.1438
 1679SOL     OW 7478   7.352   4.851   0.340 -0.1382 -0.2433 -0.6120
 1679SOL    HW1 7479   7.354   4.943   0.314 -2.2057  0.0204  0.0222
 1679SOL    HW2 7480   7.288   4.810   0.282  0.3083 -1.1671 -0.4835
 1680SOL     OW 7481   4.343   4.423   2.582 -0.4219  0.2951  0.3509
 1680SOL    HW1 7482   4.258   4.467   2.577 -0.3205  0.3881 -0.9533
 1680SOL    HW2 7483   4.407   4.494   2.579 -0.2865  0.1599 -0.0135
 1681SOL     OW 7484   8.109   9.620   2.310 -0.3778 -0.1773 -0.2763
 1681SOL    HW1 7485   8.138   9.538   2.270  1.7932  0.5907 -0.4161
 1681SOL    HW2 7486   8.161   9.627   2.390 -1.3053  0.5675  0.2789
 1682SOL     OW 7487   2.300   7.289   6.234  0.3322 -0.6981  0.1849
 1682SOL    HW1 7488   2.229   7.320   6.291 -0.5863 -1.6725 -0.4012
 1682SOL    HW2 7489   2.352   7.368   6.216 -0.2303 -0.0914  1.1459
 1683SOL     OW 7490  10.337   0.741   3.789 -0.0324  1.0761 -0.2390
 1683SOL    HW1 7491  10.262   0.761   3.733  0.1050  1.8416 -0.1584
 1683SOL    HW2 7492  10.405   0.800   3.760  1.3251 -1.1367 -1.8437
 1684SOL     OW 7493   1.219   1.200   0.549 -0.4482 -0.3300 -0.4283
 1684SOL    HW1 7494   1.251   1.254   0.621  0.7873 -0.1934 -1.0630
 1684SOL    HW2 7495   1.149   1.252   0.509 -0.5197 -0.0153  0.0878
 1685SOL     OW 7496   6.463   9.438   2.549 -0.9432 -0.4446  0.0772
 1685SOL    HW1 7497   6.487   9.522   2.587 -0.1048 -0.7785  0.3066
 1685SOL    HW2 7498   6.530   9.377   2.580  1.1892 -0.3377 -3.6141
 1686SOL     OW 7499   2.111   5.557   3.278 -0.5636  0.0209 -0.3858
 1686SOL    HW1 7500   2.053   5.507   3.336 -1.0569  2.7702  1.6588
 1686SOL    HW2 7501   2.055   5.578   3.203 -1.5243  0.6257  0.4688
 1687SOL     OW 7502   0.342   2.567   7.991  0.6599 -0.0962  0.4943
 1687SOL    HW1 7503   0.409   2.507   7.958  0.2635 -0.2028 -0.1342
 1687SOL    HW2 7504   0.296   2.597   7.912  0.7256  0.8746  0.8157
 1688SOL     OW 7505   9.479   4.016   0.085 -0.1357 -0.4699 -0.2582
 1688SOL    HW1 7506   9.410   3.950   0.077  0.2302 -0.6303 -3.3862
 1688SOL    HW2 7507   9.450   4.073   0.156 -2.0071 -2.2007  0.4565
 1689SOL     OW 7508   5.016  10.152   9.246 -0.1007  0.2662 -0.2926
 1689SOL    HW1 7509   4.985  10.243   9.248 -1.8994 -0.2758 -1.2835
 1689SOL    HW2 7510   4.949  10.103   9.292  1.8660 -0.3655  2.1206
 1690SOL     OW 7511   3.953   3.679   4.802  0.0373  0.1555  0.2237
 1690SOL    HW1 7512   3.968   3.590   4.771  0.7901  0.3742 -0.0591
 1690SOL    HW2 7513   3.913   3.724   4.727  1.7324  0.6477 -0.4266
 1691SOL     OW 7514   8.393   0.385   9.777 -0.2425  0.3582 -0.6484
 1691SOL    HW1 7515   8.357   0.367   9.690 -1.2843  2.2493 -0.6552
 1691SOL    HW2 7516   8.481   0.349   9.774 -1.1035 -1.9077 -1.5926
 1692SOL     OW 7517  10.450   2.823   2.252 -0.0384  0.0460  0.2115
 1692SOL    HW1 7518  10.375   2.810   2.193 -0.8640 -0.9483  1.4350
 1692SOL    HW2 7519  10.471   2.735   2.283  1.1149  0.4204  0.5328
 1693SOL     OW 7520   3.527   6.023   8.419 -0.1997 -0.6228 -0.2177
 1693SOL    HW1 7521   3.610   5.976   8.426  0.7448  0.7886 -1.2808
 1693SOL    HW2 7522   3.463   5.965   8.460  0.9711 -2.5787 -1.0037
 1694SOL     OW 7523   8.508   0.679   6.553  1.0175 -0.6790  0.6905
 1694SOL    HW1 7524   8.541   0.710   6.638 -1.0259  1.0899  0.9215
 1694SOL    HW2 7525   8.413   0.675   6.564  0.9418 -4.7260 -0.1934
 1695SOL     OW 7526   9.226   4.106   4.115 -0.3089 -0.4871  0.2125
 1695SOL    HW1 7527   9.145   4.074   4.075  0.3991  0.9075 -2.5883
 1695SOL    HW2 7528   9.212   4.200   4.125  0.5388 -0.4160  0.8124
 1696SOL     OW 7529   9.687   6.763   8.299 -0.3594 -0.0505  0.8200
 1696SOL    HW1 7530   9.742   6.833   8.263 -0.8589  0.5872  1.2820
 1696SOL    HW2 7531   9.729   6.682   8.270 -1.2705  0.3868 -2.1178
 1697SOL     OW 7532   3.305   6.043   0.335  0.0821  0.0935 -0.2505
 1697SOL    HW1 7533   3.329   6.133   0.313  2.1593 -0.5951 -1.0487
 1697SOL    HW2 7534   3.388   6.002   0.360 -0.8419 -1.5812  0.2017
 1698SOL     OW 7535  10.389   4.668   6.681 -0.4683 -0.5254  0.2975
 1698SOL    HW1 7536  10.299   4.669   6.648 -0.0769 -0.9587 -0.8335
 1698SOL    HW2 7537  10.441   4.634   6.608  0.9696  1.9925  0.0377
 1699SOL     OW 7538   9.392   9.385   3.522 -0.2661  0.4399 -0.0143
 1699SOL    HW1 7539   9.384   9.434   3.604 -0.0902  1.2874 -0.4908
 1699SOL    HW2 7540   9.454   9.314   3.543 -0.4068  0.5013  0.6409
 1700SOL     OW 7541  10.108   7.802   6.311  0.0045 -0.3828 -0.0523
 1700SOL    HW1 7542  10.086   7.713   6.282 -0.8185 -1.0413  2.3723
 1700SOL    HW2 7543  10.027   7.852   6.296  0.9467  0.4895 -2.9593
 1701SOL     OW 7544   6.967   5.043   5.877  0.7141  0.0173  0.0969
 1701SOL    HW1 7545   6.879   5.078   5.862  1.6530  3.0020  0.9125
 1701SOL    HW2 7546   6.979   4.978   5.808 -2.1577 -0.6144  0.0662
 1702SOL     OW 7547   4.643   2.018   5.218  0.4515  0.0474 -0.1504
 1702SOL    HW1 7548   4.664   1.989   5.129 -0.7861 -2.5153  0.3103
 1702SOL    HW2 7549   4.712   1.979   5.273  0.1214 -0.0125  0.2246
 1703SOL     OW 7550   0.133   9.956   1.791  0.0663  0.7190  0.2144
 1703SOL    HW1 7551   0.172   9.974   1.877 -0.4714  0.3187  0.5571
 1703SOL    HW2 7552   0.149   9.862   1.777  0.9525  0.9717 -0.5519
 1704SOL     OW 7553   3.277   2.806   3.224  0.0802 -0.3853  0.2429
 1704SOL    HW1 7554   3.224   2.756   3.286  0.4145  0.5057  1.2704
 1704SOL    HW2 7555   3.214   2.846   3.165 -0.2762 -0.7216  0.3934
 1705SOL     OW 7556   6.524   4.256   4.673  0.3260  0.5252  0.1430
 1705SOL    HW1 7557   6.437   4.216   4.676  1.4093 -2.0177  0.4386
 1705SOL    HW2 7558   6.550   4.250   4.581 -0.6660  3.5135 -0.4513
 1706SOL     OW 7559   9.439   2.555   4.922  0.2171 -0.2952 -0.0434
 1706SOL    HW1 7560   9.389   2.593   4.849  1.3012 -1.2225 -1.3262
 1706SOL    HW2 7561   9.444   2.625   4.987  0.8120  1.2436 -1.6576
 1707SOL     OW 7562   2.782   3.583   5.565 -0.3445 -0.0970 -0.3884
 1707SOL    HW1 7563   2.810   3.495   5.539 -0.2457  0.0544 -0.7981
 1707SOL    HW2 7564   2.751   3.624   5.485 -0.5853  0.1716 -0.1610
 1708SOL     OW 7565   4.362   9.660   3.807 -0.1550 -0.1856  0.2073
 1708SOL    HW1 7566   4.268   9.677   3.811 -0.1231  0.3854 -1.0558
 1708SOL    HW2 7567   4.401   9.725   3.865 -0.4251  0.8101 -0.6839
 1709SOL     OW 7568   9.485   0.470   1.494 -0.0566 -0.0474  0.1176
 1709SOL    HW1 7569   9.525   0.534   1.554 -0.1456 -0.0100  0.1372
 1709SOL    HW2 7570   9.490   0.387   1.542  0.4081 -0.1301 -0.0625
 1710SOL     OW 7571   7.755   5.132   6.408 -0.2846  0.2881 -0.5171
 1710SOL    HW1 7572   7.815   5.205   6.388 -0.0057  0.0888 -0.4087
 1710SOL    HW2 7573   7.682   5.173   6.454  0.5764  0.2930  0.8997
 1711SOL     OW 7574   7.266   3.749   2.528 -0.2114 -0.4074 -0.2113
 1711SOL    HW1 7575   7.202   3.683   2.552  0.1336 -0.8273 -0.4353
 1711SOL    HW2 7576   7.301   3.720   2.444  0.2219 -0.1449 -0.1282
 1712SOL     OW 7577   4.240   4.582   8.587 -0.1041  0.1041 -0.0489
 1712SOL    HW1 7578   4.189   4.508   8.553  1.2982 -0.3740 -1.2104
 1712SOL    HW2 7579   4.232   4.573   8.682 -1.5217 -0.4051 -0.1892
 1713SOL     OW 7580   5.462   6.739   6.032  0.2288 -0.4747  0.4206
 1713SOL    HW1 7581   5.469   6.735   5.936  2.9507 -2.4570  0.5845
 1713SOL    HW2 7582   5.482   6.830   6.054 -1.2742  0.2216 -0.8887
 1714SOL     OW 7583   6.440   3.324   9.770 -0.0358 -0.3299  1.0480
 1714SOL    HW1 7584   6.517   3.268   9.774  0.9785  0.9686  0.3679
 1714SOL    HW2 7585   6.457   3.393   9.834 -0.9087 -0.3616  1.3265
 1715SOL     OW 7586   0.008   1.405   3.838  0.2039 -0.5079 -0.7169
 1715SOL    HW1 7587   0.051   1.436   3.918  0.1003  0.3898 -0.9991
 1715SOL    HW2 7588  -0.040   1.481   3.806 -0.4424 -1.1003 -1.1783
 1716SOL     OW 7589   8.702   4.327   4.320  0.1882  0.0335  0.5124
 1716SOL    HW1 7590   8.629   4.384   4.346  1.2654  1.9558 -0.3978
 1716SOL    HW2 7591   8.762   4.386   4.273  3.0567 -1.1125  2.4991
 1717SOL     OW 7592   6.130   5.680   4.051  0.3011  0.4298  0.1741
 1717SOL    HW1 7593   6.154   5.618   3.982 -0.2095  0.3385  0.0787
 1717SOL    HW2 7594   6.203   5.743   4.053  0.3835  0.3543 -0.3478
 1718SOL     OW 7595   5.689   2.771   1.263  0.6063 -0.1866 -1.4896
 1718SOL    HW1 7596   5.647   2.722   1.334  0.3745 -0.6580 -1.9485
 1718SOL    HW2 7597   5.705   2.858   1.301 -0.5128 -0.0848 -1.2024
 1719SOL     OW 7598   6.068  10.320   2.958  0.1374 -0.3191  0.0323
 1719SOL    HW1 7599   6.006  10.249   2.940 -1.3277  0.6565  1.0507
 1719SOL    HW2 7600   6.026  10.398   2.922  0.5578  0.4294  1.1283
 1720SOL     OW 7601   8.011   6.522   2.467 -0.4922  0.4196 -0.0632
 1720SOL    HW1 7602   7.963   6.499   2.387 -1.7761 -0.9245  1.0486
 1720SOL    HW2 7603   8.060   6.442   2.489  0.3071  0.9699  0.1937
 1721SOL     OW 7604   7.383   7.520   6.346  0.1696 -0.3693 -0.6573
 1721SOL    HW1 7605   7.318   7.459   6.381  0.3837 -0.3356 -0.1883
 1721SOL    HW2 7606   7.336   7.573   6.282  0.1377 -1.5158 -1.6326
 1722SOL     OW 7607   2.178   5.205   8.398  0.1413 -0.3868  0.1062
 1722SOL    HW1 7608   2.265   5.246   8.402  0.1958 -0.4793 -0.1136
 1722SOL    HW2 7609   2.122   5.264   8.448  0.9629 -1.9513  3.1698
 1723SOL     OW 7610   3.485   9.174   1.147  0.4624  0.2718 -0.0103
 1723SOL    HW1 7611   3.444   9.245   1.098  0.4696 -1.0397 -2.0018
 1723SOL    HW2 7612   3.426   9.099   1.137  1.0056 -0.3431  1.0980
 1724SOL     OW 7613   6.124   4.280   3.442  0.3759 -0.3895  0.1295
 1724SOL    HW1 7614   6.055   4.316   3.386 -0.4245 -0.1886  1.2131
 1724SOL    HW2 7615   6.085   4.201   3.480  0.6121 -0.0833  1.0295
 1725SOL     OW 7616   9.475   6.926   3.071  0.9412  0.0892  0.0497
 1725SOL    HW1 7617   9.440   7.013   3.052  0.5910 -0.3354 -1.4300
 1725SOL    HW2 7618   9.490   6.887   2.984  1.2155 -1.2712  0.6791
 1726SOL     OW 7619   6.347   2.992   6.958 -0.3726  0.2161 -0.1343
 1726SOL    HW1 7620   6.386   2.908   6.934  1.3584  0.6408  0.9844
 1726SOL    HW2 7621   6.356   2.996   7.053 -1.1857  1.3284 -0.0807
 1727SOL     OW 7622   1.298   1.549   0.543 -0.4881  0.0612  0.1302
 1727SOL    HW1 7623   1.229   1.577   0.483  1.7088  0.0870 -2.6278
 1727SOL    HW2 7624   1.378   1.588   0.507  1.1350 -0.8221  2.5199
 1728SOL     OW 7625   7.466   3.158   1.004 -0.0529  0.4724  0.0469
 1728SOL    HW1 7626   7.532   3.090   0.993  1.3783  1.9133 -0.8207
 1728SOL    HW2 7627   7.445   3.187   0.915 -0.3552  1.4041  0.4042
 1729SOL     OW 7628   2.823   4.997   0.338  0.2818  0.0336  0.4292
 1729SOL    HW1 7629   2.837   5.054   0.414  0.3621  1.2059 -0.4305
 1729SOL    HW2 7630   2.833   5.056   0.263  0.5320 -1.1683 -0.4984
 1730SOL     OW 7631   2.465   5.036   8.142  0.1085  0.2197  0.2763
 1730SOL    HW1 7632   2.560   5.030   8.152  0.0557  0.3890  0.9128
 1730SOL    HW2 7633   2.429   4.987   8.216 -0.3039  0.0420 -0.0344
 1731SOL     OW 7634   0.241   1.283   5.165  0.4270 -0.8277 -0.4141
 1731SOL    HW1 7635   0.335   1.266   5.175  0.8131  1.0936 -0.2990
 1731SOL    HW2 7636   0.228   1.291   5.071 -0.0850 -3.1535 -0.6076
 1732SOL     OW 7637   2.964   6.622   8.015  0.1092 -0.1774 -0.5773
 1732SOL    HW1 7638   2.928   6.556   8.074  0.3529 -0.9978 -1.3288
 1732SOL    HW2 7639   2.905   6.697   8.024 -1.3607 -1.2041 -1.2004
 1733SOL     OW 7640   9.106   2.838   4.295  0.1480 -0.0900 -0.6799
 1733SOL    HW1 7641   9.069   2.854   4.382 -0.1226 -2.1106 -0.3906
 1733SOL    HW2 7642   9.041   2.876   4.235 -1.0936 -1.1865 -0.0772
 1734SOL     OW 7643   4.552   1.491   6.055  1.0683 -0.1670 -0.2766
 1734SOL    HW1 7644   4.530   1.463   6.144  0.2367  0.5591 -0.2301
 1734SOL    HW2 7645   4.545   1.412   6.002 -2.7511  0.0702 -0.4285
 1735SOL     OW 7646   0.437   1.508   0.603  0.0216  0.0009 -0.5527
 1735SOL    HW1 7647   0.349   1.541   0.617 -0.2735 -1.0834  0.3284
 1735SOL    HW2 7648   0.428   1.413   0.608  1.1163 -0.1576 -1.2391
 1736SOL     OW 7649   6.411   5.716   3.457 -0.2829 -0.2328  0.2764
 1736SOL    HW1 7650   6.468   5.783   3.495  0.3498  0.1591 -1.2976
 1736SOL    HW2 7651   6.416   5.643   3.518  0.0217  0.6811  1.3740
 1737SOL     OW 7652   4.226   9.288   6.399  0.3700 -0.0021 -0.1151
 1737SOL    HW1 7653   4.301   9.229   6.409  0.8458  0.7258  0.7725
 1737SOL    HW2 7654   4.265   9.375   6.391 -0.3857  0.5740  1.8320
 1738SOL     OW 7655   2.069   6.197  10.313  0.0424  0.1322 -0.1230
 1738SOL    HW1 7656   2.140   6.259  10.295  0.6178 -0.5038 -0.1117
 1738SOL    HW2 7657   2.015   6.199  10.234  1.1205 -0.7395 -0.9362
 1739SOL     OW 7658   8.811   6.865   4.905 -0.4326 -0.3905  0.4615
 1739SOL    HW1 7659   8.905   6.857   4.919 -0.7267 -0.8753  2.6049
 1739SOL    HW2 7660   8.802   6.930   4.836  1.4509  1.1098  1.5342
 1740SOL     OW 7661   5.997   3.579   3.618  0.3486 -0.1974  0.4186
 1740SOL    HW1 7662   6.072   3.637   3.601  0.5130 -0.8123 -1.1143
 1740SOL    HW2 7663   6.027   3.492   3.591 -0.4574 -0.7131  1.1310
 1741SOL     OW 7664   5.694   2.712   6.714 -0.0489  0.3560  0.4812
 1741SOL    HW1 7665   5.682   2.792   6.664  0.6098  1.1641  1.5578
 1741SOL    HW2 7666   5.789   2.701   6.718 -0.1096  0.0159  1.0913
 1742SOL     OW 7667   0.616   5.953   9.550 -0.1062 -0.6240  0.1696
 1742SOL    HW1 7668   0.625   6.010   9.474 -0.2963 -2.1063 -0.9921
 1742SOL    HW2 7669   0.598   6.013   9.622 -1.6505  0.7057 -1.2360
 1743SOL     OW 7670   8.600   5.252   0.414  0.3996  0.1393 -0.5667
 1743SOL    HW1 7671   8.645   5.172   0.440  0.8759  0.8606  0.9285
 1743SOL    HW2 7672   8.663   5.322   0.431 -1.0029  1.1083  0.8884
 1744SOL     OW 7673   5.652   2.792   3.795  0.4947 -0.1482 -0.0177
 1744SOL    HW1 7674   5.609   2.717   3.755 -0.4055 -0.5489  1.6237
 1744SOL    HW2 7675   5.583   2.859   3.800  0.4549 -0.2762  1.2818
 1745SOL     OW 7676   0.278   4.747   4.003  0.0110  0.5263 -0.1703
 1745SOL    HW1 7677   0.334   4.750   4.081  0.3050 -3.0256 -0.0803
 1745SOL    HW2 7678   0.340   4.739   3.930 -0.2897 -0.7724 -0.3060
 1746SOL     OW 7679  10.456   3.757   3.303  0.8432 -0.0540  0.0111
 1746SOL    HW1 7680  10.465   3.670   3.344 -1.6879 -0.0968  0.6021
 1746SOL    HW2 7681  10.487   3.744   3.213  0.1286 -1.7042 -0.0326
 1747SOL     OW 7682   3.090   3.890   1.364 -0.5248  0.5494  0.7484
 1747SOL    HW1 7683   3.174   3.866   1.325 -0.7482 -0.6085  0.9439
 1747SOL    HW2 7684   3.026   3.872   1.295 -0.6784  0.8584  0.8086
 1748SOL     OW 7685   0.994   0.214   3.840  0.1131 -0.0277  0.8019
 1748SOL    HW1 7686   1.034   0.265   3.770 -1.3692  0.5091  0.3067
 1748SOL    HW2 7687   0.907   0.253   3.853 -0.6182 -1.6660  1.2127
 1749SOL     OW 7688   5.421   8.659   4.364 -0.5382  0.3792  0.3301
 1749SOL    HW1 7689   5.345   8.602   4.373 -0.1647  0.1208  2.1347
 1749SOL    HW2 7690   5.495   8.606   4.395  0.1611  1.1190 -0.0254
 1750SOL     OW 7691   7.457   4.839   7.372  0.3751  0.1713 -0.3508
 1750SOL    HW1 7692   7.433   4.792   7.292  2.0280 -0.3504 -0.5744
 1750SOL    HW2 7693   7.450   4.931   7.349 -1.4352  0.0757 -0.3620
 1751SOL     OW 7694   0.147   2.208   2.595  0.0606  0.0456  0.0108
 1751SOL    HW1 7695   0.081   2.141   2.614 -0.5126  0.6447  0.1670
 1751SOL    HW2 7696   0.104   2.291   2.617  0.8738  0.4441  0.1404
 1752SOL     OW 7697   5.661   4.932   9.707 -0.0485 -0.4280  0.4425
 1752SOL    HW1 7698   5.724   4.860   9.711 -0.3624 -0.8108 -1.0021
 1752SOL    HW2 7699   5.644   4.944   9.614 -2.0657 -0.2999  0.7759
 1753SOL     OW 7700   9.871   0.173   3.716 -0.2610 -0.2815 -0.1638
 1753SOL    HW1 7701   9.874   0.078   3.714  2.8334 -0.3947  1.7641
 1753SOL    HW2 7702   9.849   0.195   3.807 -2.4151  0.9359 -0.9046
 1754SOL     OW 7703   9.888   0.444   0.040  0.2833  0.1858 -0.3431
 1754SOL    HW1 7704   9.914   0.525   0.083 -0.2757  0.6206 -0.8137
 1754SOL    HW2 7705   9.950   0.434  -0.033 -0.1529  0.6295 -0.7828
 1755SOL     OW 7706   0.160   7.308   8.677  0.2764  0.2088  0.0926
 1755SOL    HW1 7707   0.072   7.312   8.638 -0.6734 -3.1313  1.5606
 1755SOL    HW2 7708   0.165   7.221   8.716  3.5380  1.0286  1.8447
 1756SOL     OW 7709   5.651   2.214   5.444  0.2050  0.3733 -0.4448
 1756SOL    HW1 7710   5.692   2.158   5.510  0.2678 -2.2900 -2.5504
 1756SOL    HW2 7711   5.590   2.156   5.398 -1.4811  2.6905 -1.2834
 1757SOL     OW 7712   7.563   1.862   4.309  0.1424  0.4561  0.7328
 1757SOL    HW1 7713   7.642   1.819   4.277  0.1365  0.2559  0.9924
 1757SOL    HW2 7714   7.540   1.923   4.239  0.7548  0.8093  0.8233
 1758SOL     OW 7715   9.887   5.972   0.645 -0.0852 -0.0307 -0.0520
 1758SOL    HW1 7716   9.792   5.982   0.638 -0.1783  0.1018  1.2057
 1758SOL    HW2 7717   9.900   5.878   0.659  0.0303 -0.1631 -1.0148
 1759SOL     OW 7718   5.095   2.447   3.928 -0.5329 -0.2643  1.0342
 1759SOL    HW1 7719   5.010   2.449   3.972 -0.2209 -0.6696  1.6850
 1759SOL    HW2 7720   5.133   2.533   3.945 -0.0226 -0.7321  2.3900
 1760SOL     OW 7721   5.091   9.136   1.127  0.4418 -0.2148 -0.1309
 1760SOL    HW1 7722   5.078   9.230   1.143  1.7102 -0.3323  1.9617
 1760SOL    HW2 7723   5.006   9.105   1.097  0.1646  1.7020 -1.4846
 1761SOL     OW 7724   7.629   5.584   0.251 -0.2699 -0.3415 -0.4110
 1761SOL    HW1 7725   7.542   5.619   0.270 -0.5319 -1.0096 -0.3350
 1761SOL    HW2 7726   7.648   5.615   0.162 -0.4614  0.0449 -0.3201
 1762SOL     OW 7727   9.666  10.081   8.371 -0.2185  0.1264 -0.1488
 1762SOL    HW1 7728   9.586  10.130   8.350 -0.3845 -0.1612 -0.1964
 1762SOL    HW2 7729   9.737  10.143   8.357 -0.3423  0.0246 -1.2810
 1763SOL     OW 7730   3.185   1.797  10.394  0.1364  0.5958  0.0554
 1763SOL    HW1 7731   3.199   1.707  10.422  0.6843  0.7414  0.2489
 1763SOL    HW2 7732   3.191   1.849  10.474 -0.3164  0.7936 -0.0333
 1764SOL     OW 7733   9.587  10.434   9.262 -0.2002 -0.1488  0.0692
 1764SOL    HW1 7734   9.563  10.364   9.323 -1.2805  0.1242 -0.0110
 1764SOL    HW2 7735   9.507  10.487   9.255  0.6157  1.1212  0.1705
 1765SOL     OW 7736   0.569   6.390   0.595  0.1610  0.1853  0.2250
 1765SOL    HW1 7737   0.643   6.393   0.654 -1.0819 -2.0843  2.0470
 1765SOL    HW2 7738   0.516   6.467   0.619  0.6454  0.3859  0.6717
 1766SOL     OW 7739   7.498   4.243   1.938 -0.2459  0.3099 -0.0964
 1766SOL    HW1 7740   7.516   4.301   2.013 -0.2703 -0.3287  0.4176
 1766SOL    HW2 7741   7.468   4.301   1.869  0.5408  1.0116  0.1369
 1767SOL     OW 7742   0.588   7.538   3.222 -0.3404  0.4667  0.2816
 1767SOL    HW1 7743   0.574   7.567   3.313  0.6050  1.1155  0.2407
 1767SOL    HW2 7744   0.657   7.597   3.189  0.7630 -1.0481 -0.2136
 1768SOL     OW 7745   8.292   7.372   6.887 -0.5326  0.2349  0.6445
 1768SOL    HW1 7746   8.294   7.373   6.791  0.0412 -3.1087  0.5204
 1768SOL    HW2 7747   8.384   7.379   6.912 -0.5198 -0.7364  0.8722
 1769SOL     OW 7748   2.348   3.457   7.422 -0.1312  0.0293  0.6752
 1769SOL    HW1 7749   2.308   3.389   7.477  1.0160 -0.9554  0.3309
 1769SOL    HW2 7750   2.319   3.435   7.333 -0.9781  0.8982  0.7165
 1770SOL     OW 7751   3.665   7.316   7.171 -0.0448 -0.4934 -0.5141
 1770SOL    HW1 7752   3.570   7.308   7.179  0.1065 -0.1771  3.4926
 1770SOL    HW2 7753   3.691   7.240   7.119 -2.4567 -0.3902 -2.0426
 1771SOL     OW 7754   3.487   1.059   3.886  0.5350 -0.0683 -0.2522
 1771SOL    HW1 7755   3.392   1.044   3.886  0.6971 -1.3842 -2.0180
 1771SOL    HW2 7756   3.498   1.137   3.941 -1.7675  1.2935 -1.5501
 1772SOL     OW 7757  10.161   6.076   9.428 -0.0616 -0.5950 -0.2068
 1772SOL    HW1 7758  10.114   6.094   9.347 -1.6720  0.3442  0.8787
 1772SOL    HW2 7759  10.158   5.981   9.438 -0.2190 -0.6762 -1.0245
 1773SOL     OW 7760   7.579   1.865   1.719 -0.2053 -0.2814 -0.0467
 1773SOL    HW1 7761   7.645   1.796   1.715 -0.0958 -0.1284 -1.2567
 1773SOL    HW2 7762   7.628   1.944   1.744 -0.7428 -1.0831  4.1096
 1774SOL     OW 7763   9.324   1.359   2.398  0.1352  0.3360  0.3612
 1774SOL    HW1 7764   9.345   1.402   2.314 -1.7066  1.9260  0.6358
 1774SOL    HW2 7765   9.249   1.304   2.378 -0.2198  0.6107  0.9153
 1775SOL     OW 7766   0.050   3.761   0.576 -0.5439 -0.7496 -0.4166
 1775SOL    HW1 7767   0.064   3.689   0.638 -0.9234 -0.2002  0.3199
 1775SOL    HW2 7768   0.074   3.724   0.491  1.8504 -0.9845  0.2692
 1776SOL     OW 7769   9.459   3.298   2.269 -0.0367  0.0783  0.3314
 1776SOL    HW1 7770   9.520   3.227   2.248 -0.3433 -0.3997  1.0150
 1776SOL    HW2 7771   9.514   3.373   2.288  0.3202 -0.1830  0.3348
 1777SOL     OW 7772   4.811   4.843   7.810  0.1390 -0.0247  0.1814
 1777SOL    HW1 7773   4.843   4.786   7.880 -1.2074  0.4184  1.2062
 1777SOL    HW2 7774   4.803   4.785   7.734  3.4351 -0.1192 -0.2316
 1778SOL     OW 7775   6.344   0.409   1.555 -0.0702 -0.4114 -0.4000
 1778SOL    HW1 7776   6.372   0.496   1.529 -2.8446  0.3618 -1.1064
 1778SOL    HW2 7777   6.339   0.360   1.473  2.3865 -1.6225  0.0776
 1779SOL     OW 7778   3.049   9.017   5.594 -0.4515  0.5837  0.1548
 1779SOL    HW1 7779   3.034   8.928   5.625  0.6931  0.4161  0.2749
 1779SOL    HW2 7780   3.101   9.058   5.663 -1.2950  1.4734  0.2819
 1780SOL     OW 7781   8.253   9.264   2.546  1.0455  0.6005  0.1058
 1780SOL    HW1 7782   8.181   9.232   2.492  0.6115  1.6805  0.0190
 1780SOL    HW2 7783   8.332   9.231   2.503  0.6628  0.6268 -0.6351
 1781SOL     OW 7784   8.155   9.369   2.199 -0.1458  0.1999 -0.4888
 1781SOL    HW1 7785   8.102   9.295   2.230 -1.4861  1.2326 -0.2232
 1781SOL    HW2 7786   8.204   9.334   2.126  1.2255 -1.6567  1.2117
 1782SOL     OW 7787   7.397   9.504   6.126  0.5091  0.1067 -0.0489
 1782SOL    HW1 7788   7.335   9.565   6.086 -0.6221 -1.1006 -0.2235
 1782SOL    HW2 7789   7.354   9.477   6.208  1.2560  0.0006  0.3157
 1783SOL     OW 7790   0.479   5.155   9.487  0.4400 -0.3351 -0.1347
 1783SOL    HW1 7791   0.475   5.246   9.456  0.3929 -0.6443 -1.0707
 1783SOL    HW2 7792   0.548   5.116   9.434 -0.7420 -1.3152 -0.9937
 1784SOL     OW 7793   2.550   6.681   2.618 -0.1396 -0.6149  0.3355
 1784SOL    HW1 7794   2.611   6.645   2.554 -0.8929  0.3348 -0.9446
 1784SOL    HW2 7795   2.561   6.625   2.695  1.5503 -1.1196 -0.2387
 1785SOL     OW 7796   4.748   2.503   0.886  0.4670  0.3271 -0.0774
 1785SOL    HW1 7797   4.799   2.579   0.859 -1.1215  1.8850  1.1112
 1785SOL    HW2 7798   4.811   2.431   0.886  2.9160  2.2768  2.1977
 1786SOL     OW 7799   3.116   5.381   5.480 -0.2930  0.1214 -0.4754
 1786SOL    HW1 7800   3.107   5.440   5.555  0.4868  0.6956 -0.8210
 1786SOL    HW2 7801   3.052   5.312   5.496 -2.8788  2.1886 -1.1214
 1787SOL     OW 7802   0.455   8.380   7.108  0.2432 -0.2206  0.0767
 1787SOL    HW1 7803   0.388   8.363   7.173 -1.6328 -0.1459 -1.7403
 1787SOL    HW2 7804   0.443   8.471   7.084  0.7191 -0.3182 -0.5684
 1788SOL     OW 7805   6.917   4.156   6.516  0.3579 -0.2377 -0.8027
 1788SOL    HW1 7806   6.980   4.192   6.453 -0.6402  1.0072 -1.1355
 1788SOL    HW2 7807   6.887   4.074   6.476  0.5907 -0.0347 -1.4049
 1789SOL     OW 7808   0.266   3.690   7.330  0.0515 -0.3389  0.2220
 1789SOL    HW1 7809   0.179   3.686   7.288  0.2237 -0.1593 -0.1580
 1789SOL    HW2 7810   0.328   3.689   7.257  0.3715 -0.4897  0.4949
 1790SOL     OW 7811   1.534   7.789   7.862 -0.2149 -0.6105  0.0202
 1790SOL    HW1 7812   1.573   7.854   7.921 -1.3338 -1.9348  2.3895
 1790SOL    HW2 7813   1.450   7.828   7.837 -0.4660 -0.7095  0.6760
 1791SOL     OW 7814   1.626   4.732   2.578  1.4898  0.2781  0.6897
 1791SOL    HW1 7815   1.595   4.726   2.488 -1.2749 -1.3526  1.6346
 1791SOL    HW2 7816   1.702   4.674   2.582  1.6224  0.3499 -0.5781
 1792SOL     OW 7817   0.366   1.180   8.965  0.0174 -0.1875 -0.5115
 1792SOL    HW1 7818   0.302   1.249   8.947 -0.6501 -0.8972 -0.9054
 1792SOL    HW2 7819   0.325   1.127   9.034  0.1302 -0.7013 -0.8333
 1793SOL     OW 7820   7.169  10.366   1.409 -0.2939 -0.1411 -0.0493
 1793SOL    HW1 7821   7.249  10.390   1.455 -0.3142  0.6208 -0.4005
 1793SOL    HW2 7822   7.099  10.383   1.472 -0.1797 -0.8464  0.2722
 1794SOL     OW 7823   0.447   4.914   0.232  0.0238  0.2747  0.7269
 1794SOL    HW1 7824   0.368   4.964   0.252  0.9725  2.7209 -1.1876
 1794SOL    HW2 7825   0.420   4.854   0.162 -0.7192 -0.8381  1.9158
 1795SOL     OW 7826   3.185   3.353   6.368 -0.3501  0.0143  0.4861
 1795SOL    HW1 7827   3.100   3.391   6.342  0.8284  1.4104 -1.6044
 1795SOL    HW2 7828   3.234   3.428   6.404  1.5848  0.3797 -2.5772
 1796SOL     OW 7829   0.971   0.316   6.327 -0.2101  0.3018  0.0046
 1796SOL    HW1 7830   1.064   0.293   6.320  0.4495  2.5591  0.3824
 1796SOL    HW2 7831   0.968   0.409   6.305 -2.3615  0.3445  0.2588
 1797SOL     OW 7832   4.299   0.270   7.706  0.2681 -0.2596 -0.2594
 1797SOL    HW1 7833   4.242   0.210   7.657 -1.5111  1.0244  0.1662
 1797SOL    HW2 7834   4.387   0.239   7.686 -0.5342 -2.2244 -1.0786
 1798SOL     OW 7835   5.545   1.485   1.300  0.8783 -0.1184 -0.1678
 1798SOL    HW1 7836   5.501   1.569   1.316  0.8698  0.0925 -1.2188
 1798SOL    HW2 7837   5.556   1.482   1.205  0.7444 -1.3789 -0.1597
 1799SOL     OW 7838   4.350   0.462   6.945 -0.2636 -0.3501  0.2584
 1799SOL    HW1 7839   4.392   0.546   6.924  0.3706 -0.8811 -0.6786
 1799SOL    HW2 7840   4.267   0.487   6.985 -0.7899  0.7656 -1.3994
 1800SOL     OW 7841   4.286  10.016   2.810 -0.3992 -0.3663 -0.0673
 1800SOL    HW1 7842   4.288   9.995   2.717  0.5212 -1.6145  0.2146
 1800SOL    HW2 7843   4.289   9.931   2.854 -0.2191  0.2272  1.1045
 1801SOL     OW 7844   0.472   0.882   4.501  0.2957  0.0790 -0.1026
 1801SOL    HW1 7845   0.378   0.867   4.513  0.0632  1.9088  0.5593
 1801SOL    HW2 7846   0.510   0.864   4.587  0.5595 -0.5137 -0.3323
 1802SOL     OW 7847   9.910   0.264   2.166 -0.0793 -0.5833 -0.6534
 1802SOL    HW1 7848   9.971   0.291   2.235 -0.1214 -1.7163 -0.1527
 1802SOL    HW2 7849   9.962   0.206   2.110 -0.3071 -0.4083 -1.0485
 1803SOL     OW 7850  10.436   1.595   7.659 -0.2720 -0.3820 -0.0458
 1803SOL    HW1 7851  10.366   1.562   7.716  0.5487 -1.5433  0.3213
 1803SOL    HW2 7852  10.465   1.518   7.610  0.2569  0.2389 -0.7139
 1804SOL     OW 7853   4.730   9.619   9.920 -0.1212  0.3247  0.5644
 1804SOL    HW1 7854   4.725   9.715   9.922 -0.4717  0.4073 -1.5941
 1804SOL    HW2 7855   4.646   9.591   9.885  0.6982 -0.6159 -0.7753
 1805SOL     OW 7856   4.638   5.079   1.555 -0.2672  0.3855 -0.1088
 1805SOL    HW1 7857   4.726   5.080   1.592 -0.5360  0.1456  0.5443
 1805SOL    HW2 7858   4.613   4.986   1.555  0.3020  0.1769 -2.2851
 1806SOL     OW 7859   2.040   9.242   1.251 -0.0658 -0.1335 -0.3025
 1806SOL    HW1 7860   2.113   9.181   1.241  0.9739  0.9407  0.4147
 1806SOL    HW2 7861   1.996   9.242   1.166  1.7005  0.3390 -1.2720
 1807SOL     OW 7862   2.096   3.464   1.301 -0.4464 -0.4441 -0.0139
 1807SOL    HW1 7863   2.029   3.412   1.257  0.8277 -1.9151 -0.3298
 1807SOL    HW2 7864   2.098   3.547   1.252 -1.8749 -0.4465 -0.1038
 1808SOL     OW 7865   1.727   9.766   1.724  0.4266 -0.1444 -0.1948
 1808SOL    HW1 7866   1.684   9.713   1.791 -0.2437  1.2699  0.5292
 1808SOL    HW2 7867   1.776   9.832   1.773  1.7370 -0.4243 -1.0660
 1809SOL     OW 7868   2.344   5.317   3.851  0.3074 -0.0067  0.1024
 1809SOL    HW1 7869   2.264   5.274   3.819  0.5819 -0.3838 -0.0825
 1809SOL    HW2 7870   2.415   5.260   3.822  0.7997  1.3151 -1.4415
 1810SOL     OW 7871   0.520   4.138   2.132  0.2450  0.2471  0.0270
 1810SOL    HW1 7872   0.516   4.206   2.200  0.2949 -0.3539  0.6419
 1810SOL    HW2 7873   0.522   4.187   2.050 -2.5974  1.0119  0.2861
 1811SOL     OW 7874   7.839   1.768   3.987  0.1996  0.7469 -0.1849
 1811SOL    HW1 7875   7.901   1.778   4.060  1.9245 -1.6281 -1.1585
 1811SOL    HW2 7876   7.891   1.727   3.918 -1.9534  0.7801 -1.9212
 1812SOL     OW 7877   0.515  10.407   1.271  0.6749 -0.4340 -0.1799
 1812SOL    HW1 7878   0.495  10.356   1.193 -0.3955  0.0314 -0.2264
 1812SOL    HW2 7879   0.441  10.392   1.330  0.1333  1.3242 -0.3422
 1813SOL     OW 7880   6.437   1.967   0.742 -0.3529 -0.1731 -0.1506
 1813SOL    HW1 7881   6.463   1.933   0.657 -0.6088 -0.7112 -0.0211
 1813SOL    HW2 7882   6.413   2.058   0.726  1.0910  0.1909 -0.3694
 1814SOL     OW 7883   1.328   9.560   5.854 -0.0703 -0.3615 -0.0538
 1814SOL    HW1 7884   1.326   9.630   5.919  0.7392  0.5012 -0.9262
 1814SOL    HW2 7885   1.253   9.505   5.877 -1.6349  1.5703 -0.1717
 1815SOL     OW 7886   0.513   8.413   6.567 -0.2203 -0.1930 -0.2159
 1815SOL    HW1 7887   0.487   8.392   6.657  0.6442  0.7319  0.2765
 1815SOL    HW2 7888   0.431   8.433   6.522 -0.4941  2.8491  1.3477
 1816SOL     OW 7889  10.270   2.276   0.342  0.1597 -1.1059  0.2442
 1816SOL    HW1 7890  10.196   2.224   0.312 -0.0043 -0.6829 -0.0919
 1816SOL    HW2 7891  10.231   2.347   0.392  0.3312 -0.8503  0.0203
 1817SOL     OW 7892   7.630   9.135   7.481 -0.0676 -0.1288  0.1430
 1817SOL    HW1 7893   7.716   9.174   7.494  0.7112 -1.8314  0.3665
 1817SOL    HW2 7894   7.604   9.162   7.393  0.6282  0.4973  0.1254
 1818SOL     OW 7895   0.760   7.123   6.930 -0.5890  0.6387  0.7463
 1818SOL    HW1 7896   0.776   7.181   6.855 -0.2312  1.5127  1.4814
 1818SOL    HW2 7897   0.706   7.174   6.989  0.2055  0.4450  1.6662
 1819SOL     OW 7898   0.324   0.986   1.187  0.2034  0.3266 -0.4427
 1819SOL    HW1 7899   0.283   0.948   1.265 -1.1852  2.0209 -0.2921
 1819SOL    HW2 7900   0.418   0.986   1.206  0.1321 -1.6209  0.1305
 1820SOL     OW 7901   5.885   9.155   0.487 -0.0885  0.3434 -0.1412
 1820SOL    HW1 7902   5.867   9.239   0.530 -1.8954 -0.6137  1.0721
 1820SOL    HW2 7903   5.863   9.089   0.553 -1.9383 -1.1731 -2.1672
 1821SOL     OW 7904   9.866   9.998   2.740  0.4087 -0.9251 -0.6134
 1821SOL    HW1 7905   9.953   9.997   2.781 -0.9319 -0.0040  2.5474
 1821SOL    HW2 7906   9.855  10.088   2.710  1.4819 -1.6525 -3.4655
 1822SOL     OW 7907   7.256   7.909   8.044  0.0222 -0.4125 -0.2826
 1822SOL    HW1 7908   7.285   7.830   7.999  2.3092  1.2024 -1.8947
 1822SOL    HW2 7909   7.163   7.917   8.023 -0.2124 -2.4888 -0.2543
 1823SOL     OW 7910   4.340   5.149   4.144  0.0122 -0.1299  0.0899
 1823SOL    HW1 7911   4.417   5.106   4.108 -1.0615 -1.4694 -0.7083
 1823SOL    HW2 7912   4.353   5.242   4.125  0.6810 -0.5107 -1.4605
 1824SOL     OW 7913   8.136   3.093   7.400  0.0551 -0.0142  0.5226
 1824SOL    HW1 7914   8.210   3.089   7.461 -0.6639  0.7789  1.4675
 1824SOL    HW2 7915   8.172   3.139   7.323  1.4530 -2.5054 -0.4469
 1825SOL     OW 7916   3.660   8.376   7.106  0.4369 -0.3519 -1.2897
 1825SOL    HW1 7917   3.625   8.450   7.057 -1.8585  0.1346  0.8588
 1825SOL    HW2 7918   3.598   8.305   7.091  0.1071 -0.4191  0.1667
 1826SOL     OW 7919   4.855   7.026   3.875 -0.0595  0.1805 -0.3067
 1826SOL    HW1 7920   4.862   7.021   3.779 -2.3723  3.2102 -0.7817
 1826SOL    HW2 7921   4.915   7.096   3.899  0.9065 -0.9204  0.5926
 1827SOL     OW 7922   2.245  10.240   5.953 -0.0321  0.6720  0.3690
 1827SOL    HW1 7923   2.251  10.324   5.907 -0.5455  0.5335  0.0316
 1827SOL    HW2 7924   2.260  10.174   5.885  0.6929  0.4953  0.6942
 1828SOL     OW 7925   8.006   4.655   7.566  0.1321  0.5578 -0.1688
 1828SOL    HW1 7926   8.045   4.568   7.560 -1.8077 -0.4128  0.2168
 1828SOL    HW2 7927   7.915   4.641   7.540 -0.9359  1.9000  2.4998
 1829SOL     OW 7928   7.172   5.162  10.407  0.0267  0.0201  0.6517
 1829SOL    HW1 7929   7.077   5.160  10.413 -0.0615  2.4485  1.3520
 1829SOL    HW2 7930   7.193   5.255  10.393  2.2884 -0.4685  0.3395
 1830SOL     OW 7931   4.346   5.398   6.045  0.6286 -0.1894 -0.1731
 1830SOL    HW1 7932   4.373   5.307   6.040 -0.1389 -0.5656  1.6707
 1830SOL    HW2 7933   4.366   5.434   5.958  2.4461 -1.6569 -0.4263
 1831SOL     OW 7934   1.188   5.406   7.276 -0.5947  0.3853  0.3634
 1831SOL    HW1 7935   1.235   5.459   7.213  1.5741 -0.3669  1.2626
 1831SOL    HW2 7936   1.253   5.383   7.343 -1.6221 -2.5818  0.5177
 1832SOL     OW 7937   4.844   4.501   6.094 -0.5130 -0.0788 -0.8434
 1832SOL    HW1 7938   4.775   4.455   6.143 -0.0151 -1.2788 -1.2179
 1832SOL    HW2 7939   4.922   4.448   6.108  0.1867  0.8901 -0.9897
 1833SOL     OW 7940   1.182   5.349   5.620 -0.1994  0.0336  0.1624
 1833SOL    HW1 7941   1.180   5.340   5.525 -0.1734 -1.5881  0.2838
 1833SOL    HW2 7942   1.272   5.329   5.645 -0.2542  0.2497  0.5477
 1834SOL     OW 7943   3.315   4.699   5.990  0.4776  0.0309 -0.1955
 1834SOL    HW1 7944   3.327   4.782   5.944  0.3480  0.4957  0.5911
 1834SOL    HW2 7945   3.220   4.691   6.001  0.5747  0.7767  1.4858
 1835SOL     OW 7946   3.830   4.714   7.101 -0.4126  0.6194  0.8546
 1835SOL    HW1 7947   3.849   4.687   7.011 -2.1581  1.1578  0.2866
 1835SOL    HW2 7948   3.814   4.632   7.148  0.3903  0.3436  0.6584
 1836SOL     OW 7949   3.889   6.801   6.839  0.9933  0.0488 -0.1153
 1836SOL    HW1 7950   3.838   6.871   6.879  1.5722  1.2081 -1.3298
 1836SOL    HW2 7951   3.905   6.831   6.749 -1.6719 -3.1484 -1.8699
 1837SOL     OW 7952   7.285   6.001   1.951 -0.0037  0.2190  0.0105
 1837SOL    HW1 7953   7.291   6.005   2.046  0.6118 -0.9211  0.0474
 1837SOL    HW2 7954   7.357   6.056   1.920  1.8779 -1.9211  0.2892
 1838SOL     OW 7955   9.761   2.741   0.628  0.2920  0.5375  0.9996
 1838SOL    HW1 7956   9.670   2.732   0.656  0.0477 -1.4686 -0.2172
 1838SOL    HW2 7957   9.811   2.690   0.692  0.4282  0.6431  0.9785
 1839SOL     OW 7958   1.320   3.113   9.917  0.0293  0.1833  0.2594
 1839SOL    HW1 7959   1.230   3.144   9.926 -0.1223  0.1681 -1.0618
 1839SOL    HW2 7960   1.332   3.101   9.823  1.4661  0.3245  0.4050
 1840SOL     OW 7961   5.163   0.081   6.388 -0.0283 -0.4615 -0.2069
 1840SOL    HW1 7962   5.068   0.075   6.393  0.0455 -2.3073 -0.3345
 1840SOL    HW2 7963   5.179   0.152   6.325 -1.3374 -0.7195 -0.8722
 1841SOL     OW 7964   3.052   5.223   4.529  0.4063  0.0329 -0.1307
 1841SOL    HW1 7965   3.139   5.253   4.502  0.1734  1.6768  0.8097
 1841SOL    HW2 7966   3.068   5.142   4.578  1.2347 -0.4944 -1.2189
 1842SOL     OW 7967   2.793   2.479   4.622 -0.3485 -0.3085 -0.0349
 1842SOL    HW1 7968   2.879   2.455   4.588  0.2018  2.1989 -0.5511
 1842SOL    HW2 7969   2.799   2.458   4.716  0.5574 -0.8016 -0.1857
 1843SOL     OW 7970   2.591   2.471   6.419 -0.0675  0.2661 -0.2466
 1843SOL    HW1 7971   2.621   2.442   6.333 -1.0208 -0.0653 -0.4826
 1843SOL    HW2 7972   2.498   2.451   6.420  0.0047 -0.1033  1.0231
 1844SOL     OW 7973   8.002   7.974   6.205 -0.0083  0.0638  0.8390
 1844SOL    HW1 7974   7.985   7.907   6.139  2.6044  1.5032 -1.4963
 1844SOL    HW2 7975   7.950   8.049   6.178  2.4073  1.2678 -0.7952
 1845SOL     OW 7976   8.837   9.540   7.401 -0.7511 -0.2035  0.0082
 1845SOL    HW1 7977   8.804   9.625   7.431 -0.0298  0.2441 -0.4119
 1845SOL    HW2 7978   8.822   9.541   7.306 -0.9596 -0.6496  0.0343
 1846SOL     OW 7979   4.049   5.518   8.573  0.1169  0.0003 -0.0815
 1846SOL    HW1 7980   3.989   5.468   8.630 -0.1993  0.2572 -0.1850
 1846SOL    HW2 7981   4.085   5.453   8.513 -1.2289  0.0863 -1.0196
 1847SOL     OW 7982  10.130   1.912   4.553 -0.7300  0.2630  0.3267
 1847SOL    HW1 7983  10.042   1.914   4.591 -0.7850  0.3926  0.1970
 1847SOL    HW2 7984  10.187   1.885   4.625 -0.7103  1.4170  0.7602
 1848SOL     OW 7985   9.015   0.465   2.265  0.4171  0.2281  0.1053
 1848SOL    HW1 7986   8.977   0.483   2.179  0.8180  0.6628  0.0117
 1848SOL    HW2 7987   9.081   0.397   2.248  0.7523  0.5740  0.0010
 1849SOL     OW 7988   8.725   4.288   2.680  0.4971  0.0708  0.1443
 1849SOL    HW1 7989   8.679   4.341   2.615  2.3327  0.3338 -1.0085
 1849SOL    HW2 7990   8.675   4.207   2.685 -1.9210  1.5111  1.3638
 1850SOL     OW 7991   0.291   8.045   4.651  0.2119 -0.5284 -0.0805
 1850SOL    HW1 7992   0.236   7.968   4.639 -0.1657 -0.3241  0.2962
 1850SOL    HW2 7993   0.275   8.098   4.573 -0.7238 -0.1191  0.3610
 1851SOL     OW 7994   4.785   3.974   4.454  0.0468  0.2522  0.1972
 1851SOL    HW1 7995   4.749   3.891   4.483 -0.9181  0.7171  0.3633
 1851SOL    HW2 7996   4.733   4.040   4.500  0.6962  0.9476 -0.0499
 1852SOL     OW 7997   4.688   6.872   6.675  0.0188  0.5748 -0.5716
 1852SOL    HW1 7998   4.747   6.829   6.737 -0.2943  1.4279  0.3459
 1852SOL    HW2 7999   4.746   6.928   6.622  0.4878 -1.2040 -2.0520
 1853SOL     OW 8000   4.129   4.179   4.405 -0.0722  0.4249 -0.1156
 1853SOL    HW1 8001   4.172   4.256   4.442 -0.2419  1.4313 -1.9114
 1853SOL    HW2 8002   4.177   4.162   4.324  0.0049 -1.4394  0.2823
 1854SOL     OW 8003   7.823   9.286   5.666  0.4429  0.6654 -0.3577
 1854SOL    HW1 8004   7.810   9.356   5.731 -0.9211 -2.1228  2.6813
 1854SOL    HW2 8005   7.910   9.302   5.631  1.3323  2.3384  2.2680
 1855SOL     OW 8006   4.547   9.050   6.788 -0.1777 -0.0132  0.1417
 1855SOL    HW1 8007   4.550   9.001   6.706 -1.6309  0.1819 -0.0475
 1855SOL    HW2 8008   4.597   9.130   6.770 -1.2988  0.4930 -0.8953
 1856SOL     OW 8009   1.871   6.536   4.496  0.5770  0.0518 -0.0634
 1856SOL    HW1 8010   1.896   6.603   4.433 -0.8336  0.9540  0.2792
 1856SOL    HW2 8011   1.785   6.505   4.466  1.3395 -1.8832 -0.4052
 1857SOL     OW 8012   2.317   5.765   5.257 -0.2240 -0.2920 -0.2704
 1857SOL    HW1 8013   2.270   5.758   5.340  0.4650 -1.1227  0.0752
 1857SOL    HW2 8014   2.404   5.797   5.282  0.5870 -2.2340 -0.4078
 1858SOL     OW 8015   2.004   2.045   7.391 -0.5864  0.5971 -0.3434
 1858SOL    HW1 8016   2.069   2.048   7.320  0.7608 -1.8317  0.6845
 1858SOL    HW2 8017   2.054   2.026   7.469 -2.5329 -1.8547  0.4327
 1859SOL     OW 8018   8.546   1.248   5.783 -0.5164  0.3851 -0.2893
 1859SOL    HW1 8019   8.486   1.183   5.820  1.8221 -1.2256  0.8958
 1859SOL    HW2 8020   8.573   1.301   5.858  1.8391 -0.8988 -0.1271
 1860SOL     OW 8021   6.057   0.141   5.379  0.0145  0.1016 -0.1351
 1860SOL    HW1 8022   6.030   0.224   5.339 -1.5282 -0.7108 -0.8555
 1860SOL    HW2 8023   6.092   0.090   5.306 -0.7234 -0.5351 -0.0613
 1861SOL     OW 8024   4.115   2.738   4.610 -0.0067 -0.0038 -0.0854
 1861SOL    HW1 8025   4.159   2.783   4.683 -0.9826 -1.4714  1.4990
 1861SOL    HW2 8026   4.099   2.807   4.546  0.0986  1.5759  1.4868
 1862SOL     OW 8027   9.248   0.648   9.349  0.3824 -0.5422  0.0327
 1862SOL    HW1 8028   9.178   0.710   9.368  1.3299 -0.2402  3.2518
 1862SOL    HW2 8029   9.329   0.698   9.367  1.1843 -2.3412  1.7948
 1863SOL     OW 8030   4.422   4.467   4.925  0.1830 -0.3313  0.2941
 1863SOL    HW1 8031   4.486   4.409   4.883  0.3124 -1.6056  2.1149
 1863SOL    HW2 8032   4.386   4.414   4.996 -0.0656  1.6772  1.7480
 1864SOL     OW 8033   3.646   8.406   2.296 -0.2740 -0.1348 -0.1805
 1864SOL    HW1 8034   3.642   8.417   2.391 -0.0058  0.6467 -0.2480
 1864SOL    HW2 8035   3.739   8.398   2.277 -0.2734  0.4048 -0.4369
 1865SOL     OW 8036   5.880   6.432   2.233 -0.4135  0.3179 -0.4048
 1865SOL    HW1 8037   5.836   6.348   2.245  0.0651  0.3337  1.9379
 1865SOL    HW2 8038   5.827   6.478   2.168 -0.8546 -1.6484 -1.5124
 1866SOL     OW 8039   3.975   4.800   6.729 -0.0840 -0.4359 -0.2739
 1866SOL    HW1 8040   3.906   4.768   6.671 -0.9426 -0.6787  0.8584
 1866SOL    HW2 8041   3.947   4.775   6.816  0.8470  0.5470  0.3318
 1867SOL     OW 8042   5.208   4.653   5.082  0.2922  0.3252  0.0488
 1867SOL    HW1 8043   5.278   4.601   5.121 -0.1024 -0.5021 -0.3013
 1867SOL    HW2 8044   5.237   4.667   4.992  0.5734  1.0509  0.2501
 1868SOL     OW 8045   7.365   4.800  10.316  0.4450  0.0425 -0.5508
 1868SOL    HW1 8046   7.360   4.800  10.220 -0.2944  0.7971 -0.5251
 1868SOL    HW2 8047   7.361   4.892  10.340 -1.4350 -0.1947  0.2859
 1869SOL     OW 8048   4.743   3.317  10.481 -0.2532 -0.1763  0.5237
 1869SOL    HW1 8049   4.674   3.257  10.510  0.5765 -1.3967  0.0238
 1869SOL    HW2 8050   4.819   3.261  10.464  0.3299  0.9163 -0.6647
 1870SOL     OW 8051   8.883   4.970   7.079 -0.0803  0.2992 -0.4425
 1870SOL    HW1 8052   8.909   4.947   7.168 -2.9763 -0.4944  0.3041
 1870SOL    HW2 8053   8.851   5.060   7.086 -2.1822 -0.4002 -0.1291
 1871SOL     OW 8054   8.525   3.980   5.001  0.7596  0.4704 -0.1072
 1871SOL    HW1 8055   8.497   3.899   4.959  1.3928  0.6692 -0.9619
 1871SOL    HW2 8056   8.606   4.004   4.955  0.5428  1.6242  0.0685
 1872SOL     OW 8057   1.137   5.701   5.018 -0.0055 -0.3921 -0.1106
 1872SOL    HW1 8058   1.153   5.754   5.097  1.3406  0.5490 -0.9731
 1872SOL    HW2 8059   1.212   5.643   5.013  0.3884  0.1916 -1.1797
 1873SOL     OW 8060   6.026   1.060   6.677  0.5598  0.6199 -0.1194
 1873SOL    HW1 8061   5.954   1.004   6.649  2.0897 -1.8112  0.4804
 1873SOL    HW2 8062   6.078   1.073   6.598  1.4423 -0.8499  0.1784
 1874SOL     OW 8063   6.327   2.770   4.981 -0.6948  0.2631  0.0435
 1874SOL    HW1 8064   6.274   2.706   4.933  0.4437 -1.8143  1.4460
 1874SOL    HW2 8065   6.369   2.822   4.912 -0.5764 -1.3911 -1.1998
 1875SOL     OW 8066   1.139   1.703   5.677  0.1264 -0.1103 -0.3921
 1875SOL    HW1 8067   1.103   1.622   5.642  0.0059 -0.2783  0.1110
 1875SOL    HW2 8068   1.093   1.772   5.629 -1.6120 -0.2985  0.9080
 1876SOL     OW 8069   1.521   2.404   2.858 -0.0206  0.4732 -0.1191
 1876SOL    HW1 8070   1.560   2.486   2.889  2.0584 -0.7947  0.8700
 1876SOL    HW2 8071   1.449   2.387   2.919  0.4550  0.8423  0.5587
 1877SOL     OW 8072   5.644   9.483   7.291 -0.1838  0.3877 -0.0467
 1877SOL    HW1 8073   5.673   9.540   7.363  1.2472  0.2638 -0.4904
 1877SOL    HW2 8074   5.561   9.520   7.263  0.1823  1.6068  0.4113
 1878SOL     OW 8075  10.266   6.139   1.152 -0.4954 -0.0151 -0.3455
 1878SOL    HW1 8076  10.216   6.089   1.217  0.3953 -0.3064  0.1401
 1878SOL    HW2 8077  10.256   6.230   1.179 -0.1191 -0.1340  0.2290
 1879SOL     OW 8078   7.135   4.724   3.586  0.3881  0.2545 -0.4124
 1879SOL    HW1 8079   7.124   4.726   3.491  1.2028  3.1813 -0.5247
 1879SOL    HW2 8080   7.108   4.810   3.616 -0.2039 -0.7207  2.1111
 1880SOL     OW 8081   3.341   4.672   5.326 -0.0229 -0.0926  0.4667
 1880SOL    HW1 8082   3.387   4.594   5.354  0.8954  0.4676  0.5667
 1880SOL    HW2 8083   3.388   4.701   5.247 -0.7875 -0.0380  0.0197
 1881SOL     OW 8084   7.464   2.923   4.417 -0.0367  0.3058  0.0357
 1881SOL    HW1 8085   7.368   2.923   4.411 -0.0701  1.4867  0.4453
 1881SOL    HW2 8086   7.493   2.951   4.331 -0.0750  0.4837  0.0803
 1882SOL     OW 8087   6.878   2.533   3.586 -0.5400  0.1682 -0.1290
 1882SOL    HW1 8088   6.893   2.592   3.512  0.1724  0.8524  0.5458
 1882SOL    HW2 8089   6.841   2.589   3.654 -0.0965 -0.2078  0.4310
 1883SOL     OW 8090   9.530   6.594   2.232  0.3452 -0.4684  0.3795
 1883SOL    HW1 8091   9.459   6.575   2.293  0.2346 -0.0830  0.3725
 1883SOL    HW2 8092   9.488   6.597   2.146  0.8973 -3.8087 -0.1697
 1884SOL     OW 8093   0.737   8.033   0.974  0.1713  0.3944  1.1562
 1884SOL    HW1 8094   0.815   8.084   0.955 -0.1882  1.1414  1.6777
 1884SOL    HW2 8095   0.666   8.080   0.930 -0.0178 -0.2142  0.7844
 1885SOL     OW 8096   9.746   2.265   2.472  0.1445  0.0366  1.0792
 1885SOL    HW1 8097   9.838   2.241   2.469 -0.7253 -3.9506 -0.2832
 1885SOL    HW2 8098   9.725   2.272   2.565  1.4511 -0.8077  1.4579
 1886SOL     OW 8099   3.926   1.031  10.103  0.0462 -0.2066 -0.3241
 1886SOL    HW1 8100   3.866   1.058  10.173  2.6196  1.7902  1.3353
 1886SOL    HW2 8101   3.892   1.074  10.025 -0.3903  1.4583  0.7069
 1887SOL     OW 8102   3.584   5.233   7.582 -0.2384 -0.3414 -0.0420
 1887SOL    HW1 8103   3.589   5.224   7.677  1.1172 -2.7998 -0.2475
 1887SOL    HW2 8104   3.641   5.164   7.549 -1.7573 -0.4564 -2.6869
 1888SOL     OW 8105   1.884   7.436   5.191  0.7261 -0.1317  0.5498
 1888SOL    HW1 8106   1.914   7.347   5.212  0.7912 -0.3385 -0.3527
 1888SOL    HW2 8107   1.965   7.486   5.178  0.6966  0.1831  1.4879
 1889SOL     OW 8108   4.922   3.515   1.920  0.1219  0.6741 -0.5023
 1889SOL    HW1 8109   4.832   3.540   1.898  0.0953 -1.0343 -2.8011
 1889SOL    HW2 8110   4.977   3.573   1.867  0.2657  0.2670 -0.8117
 1890SOL     OW 8111   2.005   8.245   5.542 -0.2761 -0.0600  0.0727
 1890SOL    HW1 8112   2.044   8.332   5.539 -0.5138  0.1014  1.1942
 1890SOL    HW2 8113   2.077   8.186   5.518 -0.4767  0.5128 -2.0921
 1891SOL     OW 8114   1.031   2.590   0.364 -0.4481 -0.1439  0.1447
 1891SOL    HW1 8115   0.952   2.556   0.323 -0.2825 -1.2176  0.6785
 1891SOL    HW2 8116   1.102   2.536   0.329  0.4094  2.1236 -1.9764
 1892SOL     OW 8117   5.269   4.581   7.754 -0.2963 -0.2490 -0.5249
 1892SOL    HW1 8118   5.341   4.586   7.692  0.2396  1.5841  0.1735
 1892SOL    HW2 8119   5.308   4.542   7.833  0.1916  1.4753  0.1286
 1893SOL     OW 8120   0.558   8.489   5.086 -0.7532 -0.1072 -0.0381
 1893SOL    HW1 8121   0.589   8.570   5.046 -0.1144  0.7072  1.9998
 1893SOL    HW2 8122   0.637   8.446   5.117 -1.2506 -0.4831  0.7418
 1894SOL     OW 8123   7.222   6.577   8.066  0.4009 -0.0091 -0.3540
 1894SOL    HW1 8124   7.267   6.497   8.037 -2.7789 -1.9809 -0.3017
 1894SOL    HW2 8125   7.133   6.568   8.033 -0.8817  2.1158  2.1659
 1895SOL     OW 8126   3.601  10.264   3.945  0.4776  0.1583  0.0453
 1895SOL    HW1 8127   3.672  10.323   3.919 -0.5760  2.7464  2.5046
 1895SOL    HW2 8128   3.526  10.322   3.958 -1.1201 -2.0074  0.9901
 1896SOL     OW 8129   8.001   7.108   7.233  0.1710  0.3886 -0.3093
 1896SOL    HW1 8130   7.976   7.059   7.154  0.1306  1.4505 -0.9899
 1896SOL    HW2 8131   7.945   7.186   7.230  0.2561  0.4966  0.7216
 1897SOL     OW 8132   8.365   2.390   2.063  0.0722  0.0330  0.5434
 1897SOL    HW1 8133   8.310   2.463   2.092 -1.4075  0.0804 -2.0281
 1897SOL    HW2 8134   8.343   2.319   2.122  0.1448  1.1322  1.9519
 1898SOL     OW 8135   2.423  10.269  10.203 -0.5895  0.0881 -0.7198
 1898SOL    HW1 8136   2.504  10.286  10.153 -0.4835  0.9536 -0.2775
 1898SOL    HW2 8137   2.402  10.353  10.243 -0.0199 -0.8299  1.6689
 1899SOL     OW 8138  10.332   3.619   4.172  0.4238  0.2572 -0.7585
 1899SOL    HW1 8139  10.362   3.658   4.254 -1.4414 -2.0803  1.1684
 1899SOL    HW2 8140  10.354   3.684   4.105  0.9348  2.7972  1.7102
 1900SOL     OW 8141  10.245   4.554   6.366  0.3603  0.4425 -0.1380
 1900SOL    HW1 8142  10.310   4.507   6.419 -0.7605 -0.2080  0.6953
 1900SOL    HW2 8143  10.263   4.647   6.384  1.1465  0.2750 -0.0266
 1901SOL     OW 8144   7.900   1.525   6.915  0.1842  0.4913 -0.0865
 1901SOL    HW1 8145   7.855   1.547   6.997  1.8084 -1.3042  1.3622
 1901SOL    HW2 8146   7.966   1.594   6.905  0.8126  0.0338  0.8149
 1902SOL     OW 8147   7.830   4.593   2.075 -0.0462 -0.4528  0.3156
 1902SOL    HW1 8148   7.802   4.623   1.988 -0.3732  0.0625  0.6011
 1902SOL    HW2 8149   7.812   4.499   2.073  0.4130 -0.5370 -0.3549
 1903SOL     OW 8150   7.385   1.886   5.176  0.3099  0.2249 -0.7601
 1903SOL    HW1 8151   7.451   1.955   5.176  1.4427 -0.8164 -0.5996
 1903SOL    HW2 8152   7.303   1.930   5.155  0.8372  1.7524  0.2475
 1904SOL     OW 8153   8.565   8.017   7.686 -0.6637  0.4005  0.0737
 1904SOL    HW1 8154   8.569   8.050   7.776 -0.6562  0.6792 -0.0297
 1904SOL    HW2 8155   8.531   8.090   7.635  0.1648  0.5383 -0.2988
 1905SOL     OW 8156   1.570   4.971   5.977  0.8844  0.0052  0.5171
 1905SOL    HW1 8157   1.604   4.968   5.887 -0.2008 -0.0787  0.0905
 1905SOL    HW2 8158   1.587   4.883   6.011 -0.0776 -0.4658 -0.1577
 1906SOL     OW 8159   4.021   6.521   4.277  0.1802  0.3558 -0.4524
 1906SOL    HW1 8160   3.971   6.442   4.297  1.1738 -0.2086 -0.1376
 1906SOL    HW2 8161   4.101   6.512   4.328 -0.4517  2.4426  1.0144
 1907SOL     OW 8162   7.538   6.400   9.447 -0.3500 -0.0110  0.3998
 1907SOL    HW1 8163   7.603   6.420   9.515 -1.6028 -0.6257  1.8196
 1907SOL    HW2 8164   7.576   6.326   9.400  0.0824 -0.2375  1.0856
 1908SOL     OW 8165   4.387   0.514   9.986 -0.1753 -0.0241 -0.4292
 1908SOL    HW1 8166   4.397   0.573   9.911 -0.4957 -1.1515 -1.3880
 1908SOL    HW2 8167   4.435   0.557  10.056 -1.8699  2.2877 -0.5654
 1909SOL     OW 8168   6.463   7.294   4.760 -0.0178  0.0251 -0.2362
 1909SOL    HW1 8169   6.421   7.320   4.842 -0.0840  0.0956 -0.2915
 1909SOL    HW2 8170   6.390   7.278   4.700  0.0326  0.0496 -0.3038
 1910SOL     OW 8171   7.407   1.870   6.812  0.4303  0.0595  0.2285
 1910SOL    HW1 8172   7.441   1.890   6.899 -0.6946  1.3356  0.4160
 1910SOL    HW2 8173   7.458   1.925   6.752 -0.5703  1.2418  0.4077
 1911SOL     OW 8174   5.025   3.598   0.122  0.2454  0.0631 -0.1486
 1911SOL    HW1 8175   5.110   3.640   0.107  0.1761 -0.2249 -1.4465
 1911SOL    HW2 8176   5.026   3.575   0.215  2.3005 -1.4655 -0.4613
 1912SOL     OW 8177  10.036   0.429  10.312 -0.1498 -0.4351 -0.0085
 1912SOL    HW1 8178   9.984   0.385  10.244  0.1486 -0.4218 -0.2501
 1912SOL    HW2 8179  10.115   0.458  10.266  0.0173 -0.3538  0.3289
 1913SOL     OW 8180  10.319   7.083   1.214  0.3572 -0.2586 -0.6312
 1913SOL    HW1 8181  10.323   7.178   1.197  1.2716 -0.1285  0.2619
 1913SOL    HW2 8182  10.292   7.045   1.130 -0.5183  0.8315 -0.8700
 1914SOL     OW 8183   1.878   0.730   7.537  0.0573  0.5741  0.3552
 1914SOL    HW1 8184   1.824   0.808   7.549 -0.3856  0.2197  0.7052
 1914SOL    HW2 8185   1.821   0.668   7.491  0.4911  0.5469 -0.1534
 1915SOL     OW 8186   3.111   5.019   6.118  0.2585 -0.0475  0.0725
 1915SOL    HW1 8187   3.162   5.094   6.088 -2.2241  2.4871  1.6227
 1915SOL    HW2 8188   3.105   4.961   6.041  2.7946  0.9793 -0.9943
 1916SOL     OW 8189   9.020   5.863   7.006 -0.4386 -0.4504 -0.4709
 1916SOL    HW1 8190   9.096   5.900   7.051  0.3240 -1.2615 -1.0589
 1916SOL    HW2 8191   8.959   5.936   6.999  0.5227  0.3832 -0.5034
 1917SOL     OW 8192   5.780   7.548   9.667 -0.0228  0.5594 -0.4168
 1917SOL    HW1 8193   5.773   7.515   9.756 -1.4874  0.3180 -0.5967
 1917SOL    HW2 8194   5.853   7.499   9.629 -0.8677 -1.0300 -0.0487
 1918SOL     OW 8195   3.440   1.225   2.382  0.5631  0.0348  0.0398
 1918SOL    HW1 8196   3.374   1.264   2.439  1.7392  0.3302  1.2406
 1918SOL    HW2 8197   3.480   1.299   2.336  0.3375 -0.1126 -0.4080
 1919SOL     OW 8198   3.569   1.439   4.471 -0.2679 -0.7714  0.0589
 1919SOL    HW1 8199   3.497   1.439   4.534  0.0910 -0.1034  0.4875
 1919SOL    HW2 8200   3.565   1.353   4.429 -2.5693 -0.0453 -1.3853
 1920SOL     OW 8201   5.964   2.212   1.875  0.1906  0.2404 -0.2467
 1920SOL    HW1 8202   6.043   2.226   1.823  0.1227 -0.8104 -0.6611
 1920SOL    HW2 8203   5.932   2.126   1.847  1.2421 -1.3603  2.9208
 1921SOL     OW 8204   3.997   4.165   6.059 -0.7314  0.0194 -0.1547
 1921SOL    HW1 8205   4.064   4.201   6.000  1.3223  1.6244  2.8770
 1921SOL    HW2 8206   3.935   4.237   6.072  0.2799  0.6485  1.5512
 1922SOL     OW 8207   3.573   7.003   5.494 -0.3579  0.2458  0.4749
 1922SOL    HW1 8208   3.496   6.952   5.469 -0.5335  0.2988  0.8987
 1922SOL    HW2 8209   3.582   6.988   5.588 -0.1697  0.6712  0.5270
 1923SOL     OW 8210   7.007   9.376   9.422  0.0476 -0.0606  0.1864
 1923SOL    HW1 8211   6.918   9.386   9.389  0.2244 -1.7004 -0.9028
 1923SOL    HW2 8212   7.054   9.453   9.388 -0.9675  0.9702  1.0108
 1924SOL     OW 8213   3.829   9.753   3.964 -0.0593  0.2902 -0.4219
 1924SOL    HW1 8214   3.821   9.721   3.874 -0.8593  0.5780 -0.4536
 1924SOL    HW2 8215   3.797   9.843   3.961  0.6624  0.5687 -0.0027
 1925SOL     OW 8216   9.992   9.977   4.320 -0.3931 -0.4306 -0.0214
 1925SOL    HW1 8217  10.021  10.066   4.298 -0.0776 -1.1575 -3.0504
 1925SOL    HW2 8218   9.907   9.968   4.277  0.2765 -2.0241 -1.1281
 1926SOL     OW 8219   7.957   8.365   2.395  0.1955 -0.0443 -0.3866
 1926SOL    HW1 8220   7.996   8.328   2.475  0.1317  0.0422 -0.3154
 1926SOL    HW2 8221   7.903   8.295   2.360  0.2493 -0.0939 -0.3716
 1927SOL     OW 8222   1.204   8.157   1.359 -0.0545 -0.4850  0.0254
 1927SOL    HW1 8223   1.207   8.075   1.410  1.6476 -0.9586 -0.7927
 1927SOL    HW2 8224   1.250   8.137   1.278  2.6935  1.9778  0.8334
 1928SOL     OW 8225   6.088   6.958   6.877 -0.1680  0.2349  0.1787
 1928SOL    HW1 8226   6.133   6.961   6.793 -1.5004  1.4091 -0.5431
 1928SOL    HW2 8227   6.115   7.038   6.922  0.4860 -0.3566  0.8599
 1929SOL     OW 8228   3.030   0.231   2.530 -0.1625 -0.3182  0.0488
 1929SOL    HW1 8229   2.964   0.169   2.497  1.2161 -2.1236  0.4845
 1929SOL    HW2 8230   3.009   0.314   2.488 -1.8196 -1.1988 -0.9478
 1930SOL     OW 8231   5.637   2.375   4.415 -0.3999 -0.0630  0.7276
 1930SOL    HW1 8232   5.693   2.450   4.433  0.3573  0.6250 -3.4286
 1930SOL    HW2 8233   5.548   2.410   4.418 -0.1424  0.6409  0.3948
 1931SOL     OW 8234   9.822   4.557   8.791 -0.1037  0.1298  0.2490
 1931SOL    HW1 8235   9.854   4.548   8.881  0.2654  2.0317  0.3396
 1931SOL    HW2 8236   9.751   4.493   8.784  0.4353 -0.6573  1.6039
 1932SOL     OW 8237   3.232   1.283   5.864 -0.1972 -0.1617 -0.0006
 1932SOL    HW1 8238   3.139   1.270   5.877 -0.2479 -0.6734 -0.7769
 1932SOL    HW2 8239   3.245   1.377   5.872 -1.0736  0.1292 -1.5732
 1933SOL     OW 8240   9.748   1.551   6.730 -0.4561 -0.1306 -0.2941
 1933SOL    HW1 8241   9.823   1.590   6.685 -0.5361 -0.7756 -0.9967
 1933SOL    HW2 8242   9.786   1.505   6.805  0.0282 -1.5468 -1.3571
 1934SOL     OW 8243   7.131   4.557   1.539  0.1131  0.2024  0.3010
 1934SOL    HW1 8244   7.171   4.480   1.498 -0.1648 -0.0293  0.4594
 1934SOL    HW2 8245   7.204   4.615   1.559  0.2462  0.3556 -0.6015
 1935SOL     OW 8246   5.014   3.293   5.858  0.2277  0.0747 -0.3541
 1935SOL    HW1 8247   4.937   3.244   5.886  0.9256 -1.6191 -1.2800
 1935SOL    HW2 8248   5.088   3.236   5.877  1.0968  0.8315 -1.3210
 1936SOL     OW 8249   2.762   9.491   2.440  0.3535 -0.2990 -0.2364
 1936SOL    HW1 8250   2.849   9.455   2.422 -0.1129 -0.8828 -1.4801
 1936SOL    HW2 8251   2.753   9.488   2.535  1.0113 -1.8870 -0.2011
 1937SOL     OW 8252   8.455   0.238   6.310 -0.5707 -0.4040 -0.3826
 1937SOL    HW1 8253   8.389   0.173   6.285  1.2616 -1.8867 -1.5990
 1937SOL    HW2 8254   8.446   0.244   6.405 -1.2052 -2.0232 -0.2952
 1938SOL     OW 8255   2.682   8.666   6.921 -0.3224 -0.6937 -0.3491
 1938SOL    HW1 8256   2.631   8.663   7.002 -0.3623 -0.4418 -0.3658
 1938SOL    HW2 8257   2.763   8.621   6.942 -1.2999 -2.8455 -0.8582
 1939SOL     OW 8258   6.359   7.717   7.447 -0.2192  0.0098  0.3287
 1939SOL    HW1 8259   6.339   7.644   7.388  0.5811  0.8152 -0.9555
 1939SOL    HW2 8260   6.391   7.787   7.391  2.2728  0.2242  1.8474
 1940SOL     OW 8261   5.579   8.421   8.143  0.1122 -0.2141 -0.2208
 1940SOL    HW1 8262   5.489   8.406   8.113  0.5183 -0.3988 -1.3896
 1940SOL    HW2 8263   5.634   8.395   8.070  1.0885  1.1080 -0.0132
 1941SOL     OW 8264   3.238   7.413   6.427 -0.1275 -0.6244  0.0319
 1941SOL    HW1 8265   3.264   7.337   6.375  0.7373 -1.8336  2.0728
 1941SOL    HW2 8266   3.318   7.464   6.435 -0.9551  1.1891 -2.2556
 1942SOL     OW 8267   0.238   7.699   6.522  0.5487 -0.4216 -0.5185
 1942SOL    HW1 8268   0.311   7.715   6.463  0.2381 -1.0749 -1.0881
 1942SOL    HW2 8269   0.280   7.668   6.603  0.8720 -1.6425 -1.1316
 1943SOL     OW 8270   5.859   3.833   8.850 -0.5933 -0.3118  0.4283
 1943SOL    HW1 8271   5.773   3.874   8.855  0.0435  1.4295 -1.4397
 1943SOL    HW2 8272   5.917   3.892   8.899 -0.1065 -0.3260 -0.1239
 1944SOL     OW 8273   7.858   0.577   0.783 -0.2658  0.7162 -0.5095
 1944SOL    HW1 8274   7.814   0.537   0.858 -0.8120  1.1102 -0.6116
 1944SOL    HW2 8275   7.929   0.517   0.762 -0.5021  0.2768 -0.0778
 1945SOL     OW 8276   5.384   9.737   0.681 -0.2415 -0.4445  0.3172
 1945SOL    HW1 8277   5.323   9.703   0.615  0.2828  3.0689 -2.3087
 1945SOL    HW2 8278   5.457   9.676   0.680 -0.2321 -0.5288 -2.5651
 1946SOL     OW 8279   9.660   0.994   8.409 -0.1931 -0.1935  0.0987
 1946SOL    HW1 8280   9.642   1.078   8.368 -1.1138 -1.0362 -1.3035
 1946SOL    HW2 8281   9.575   0.949   8.410 -0.3334 -0.1060  3.3159
 1947SOL     OW 8282   8.014   6.686   6.227 -0.1824  0.0865  0.5576
 1947SOL    HW1 8283   7.992   6.771   6.266 -3.7860 -1.1036  1.4908
 1947SOL    HW2 8284   7.964   6.684   6.145  0.2125 -0.9742  0.3291
 1948SOL     OW 8285   6.453   9.600   7.762 -0.1851 -0.3915 -0.8248
 1948SOL    HW1 8286   6.405   9.592   7.844 -1.4738 -1.4864 -1.6413
 1948SOL    HW2 8287   6.423   9.683   7.725 -1.9891 -1.3243 -1.5995
 1949SOL     OW 8288   9.054   4.198   7.892  0.3721 -0.0823  0.1645
 1949SOL    HW1 8289   9.058   4.104   7.874 -1.2507  0.0286 -0.9632
 1949SOL    HW2 8290   8.965   4.214   7.921  1.4110  0.6848  3.3115
 1950SOL     OW 8291   6.495   8.255   0.893  0.1272 -0.1904 -0.4519
 1950SOL    HW1 8292   6.555   8.307   0.947 -0.8585  2.1809 -1.4934
 1950SOL    HW2 8293   6.424   8.231   0.951  0.6205 -0.4481  0.0566
 1951SOL     OW 8294   5.904   5.744   7.542 -0.0262  0.0114  0.2999
 1951SOL    HW1 8295   5.809   5.756   7.549 -0.2139 -0.2615 -1.3224
 1951SOL    HW2 8296   5.915   5.687   7.466  1.4086 -0.7045  1.0183
 1952SOL     OW 8297   6.609   8.885   8.036  0.0660 -0.3225  0.1525
 1952SOL    HW1 8298   6.554   8.936   8.095 -0.4188  0.0325 -0.5939
 1952SOL    HW2 8299   6.569   8.798   8.034  0.2540 -0.4220  0.5662
 1953SOL     OW 8300   9.436   5.588   3.033  0.3642 -0.2321 -0.0214
 1953SOL    HW1 8301   9.458   5.565   2.943  1.5445 -0.7319  0.3815
 1953SOL    HW2 8302   9.349   5.550   3.047 -0.5346  1.1861 -1.4219
 1954SOL     OW 8303   5.408   5.239   1.487 -0.5019 -0.5539 -0.0299
 1954SOL    HW1 8304   5.406   5.335   1.482  1.8430 -0.3114  1.7288
 1954SOL    HW2 8305   5.407   5.220   1.581  1.1016 -2.1072 -0.2642
 1955SOL     OW 8306   4.304   1.311   1.585 -0.3513  0.0731 -0.1702
 1955SOL    HW1 8307   4.245   1.343   1.517 -1.0438  0.6223  0.6541
 1955SOL    HW2 8308   4.279   1.220   1.598 -1.0903  0.3211  0.2200
 1956SOL     OW 8309   0.402   4.231   4.278 -0.3656  0.0617  0.3950
 1956SOL    HW1 8310   0.342   4.288   4.230 -1.4725 -0.3494  1.2497
 1956SOL    HW2 8311   0.372   4.143   4.258  0.8292 -0.2182 -0.2618
 1957SOL     OW 8312   7.203   7.343   0.890  0.3968  0.5942  0.4922
 1957SOL    HW1 8313   7.242   7.422   0.928  0.5151  0.2247  1.1411
 1957SOL    HW2 8314   7.259   7.324   0.814  0.4192  1.0850  0.3810
 1958SOL     OW 8315   0.942   7.591   7.784  0.4630  0.4553  0.3204
 1958SOL    HW1 8316   0.958   7.685   7.788  0.7798  0.3610  2.1071
 1958SOL    HW2 8317   1.021   7.555   7.743  0.1529  0.9883 -0.7727
 1959SOL     OW 8318   6.672   8.054   5.255  0.9369  0.1034  0.6767
 1959SOL    HW1 8319   6.676   8.133   5.308  0.4618  1.2064 -0.8622
 1959SOL    HW2 8320   6.761   8.046   5.219  0.8165  0.2979  0.3347
 1960SOL     OW 8321   8.124   7.639   3.792  0.5467 -0.0677  0.5259
 1960SOL    HW1 8322   8.180   7.712   3.819 -1.2128  1.1718  0.9301
 1960SOL    HW2 8323   8.164   7.562   3.834  1.8057  0.7959  0.9815
 1961SOL     OW 8324   1.931   7.690  10.205  0.6304  0.5035  0.2713
 1961SOL    HW1 8325   1.926   7.770  10.257 -0.2133  0.6250  0.0287
 1961SOL    HW2 8326   1.856   7.696  10.145  0.8043 -0.2652 -0.0381
 1962SOL     OW 8327   3.606   3.597   6.651  0.0589 -0.2943  0.2911
 1962SOL    HW1 8328   3.593   3.536   6.723  1.3890  0.8932  1.5990
 1962SOL    HW2 8329   3.639   3.543   6.579 -2.5862 -1.7306  0.0219
 1963SOL     OW 8330   2.365   1.112   7.884  0.0770 -0.0711 -0.0666
 1963SOL    HW1 8331   2.314   1.190   7.906 -1.0502 -1.2130  1.6363
 1963SOL    HW2 8332   2.303   1.053   7.842  0.5568 -0.6077 -0.0467
 1964SOL     OW 8333   8.388   4.304   9.498 -0.3525 -0.1039 -0.1640
 1964SOL    HW1 8334   8.397   4.399   9.484  1.9208 -0.1473  0.6761
 1964SOL    HW2 8335   8.404   4.292   9.591  2.1925 -1.5529 -0.7111
 1965SOL     OW 8336   1.582   6.545   0.909  0.0075 -0.3106 -0.3795
 1965SOL    HW1 8337   1.651   6.482   0.888  0.3721 -0.1642  0.3380
 1965SOL    HW2 8338   1.598   6.618   0.847  0.9724  0.0519  0.2616
 1966SOL     OW 8339   3.096   2.324   8.523 -0.4176 -0.1198  0.2559
 1966SOL    HW1 8340   3.015   2.275   8.505 -0.1728 -0.5417  0.2795
 1966SOL    HW2 8341   3.157   2.294   8.456  0.8471 -2.5097  2.3172
 1967SOL     OW 8342   4.678   6.964   1.461  0.6709  0.4628  0.2932
 1967SOL    HW1 8343   4.761   7.007   1.443  1.5006  0.5664  3.7252
 1967SOL    HW2 8344   4.613   7.034   1.454  0.9812  0.6049 -1.3933
 1968SOL     OW 8345   2.759   0.287   1.217  0.2755  0.0148 -0.6784
 1968SOL    HW1 8346   2.788   0.374   1.192  0.2035  0.8345  1.8423
 1968SOL    HW2 8347   2.829   0.253   1.273 -1.2595 -0.0329  1.3185
 1969SOL     OW 8348   1.117   4.598   5.913  0.3753  0.6043  0.0198
 1969SOL    HW1 8349   1.092   4.638   5.996 -1.4148  0.6776 -0.5197
 1969SOL    HW2 8350   1.051   4.627   5.851  2.5291  1.8828 -1.8639
 1970SOL     OW 8351   0.326   9.285   8.879  0.2220  0.1967  0.6302
 1970SOL    HW1 8352   0.346   9.209   8.935 -0.7259 -2.2236 -2.0611
 1970SOL    HW2 8353   0.397   9.287   8.816  0.8332  2.3578  1.3143
 1971SOL     OW 8354   5.862   9.695   0.460 -0.0779  0.4016 -0.1099
 1971SOL    HW1 8355   5.838   9.608   0.428 -0.7327  0.3539  0.4823
 1971SOL    HW2 8356   5.955   9.688   0.482 -0.4896 -0.6441  1.4651
 1972SOL     OW 8357   2.210   7.633   6.881  0.1645 -0.0431  0.5950
 1972SOL    HW1 8358   2.151   7.677   6.942  1.6955 -1.0097  2.8992
 1972SOL    HW2 8359   2.247   7.704   6.828  0.0703  1.0639  1.9555
 1973SOL     OW 8360   3.810   2.219   1.570  0.4849  0.3754 -0.2660
 1973SOL    HW1 8361   3.835   2.280   1.500  0.5310  0.8404  0.1498
 1973SOL    HW2 8362   3.823   2.132   1.532  0.6709  0.6241 -0.7789
 1974SOL     OW 8363   3.202   0.242   5.078 -0.0152  0.2248 -0.0911
 1974SOL    HW1 8364   3.195   0.324   5.030  0.6241 -0.3624 -1.2094
 1974SOL    HW2 8365   3.223   0.268   5.168 -0.2817  1.2923 -0.3343
 1975SOL     OW 8366   0.034   1.126   5.626  0.1091 -0.1176  0.1271
 1975SOL    HW1 8367   0.061   1.035   5.613  0.4428 -0.0150  0.1021
 1975SOL    HW2 8368   0.064   1.172   5.548 -1.0400 -0.1951 -0.3798
 1976SOL     OW 8369   9.839   4.471   7.467  0.5498  0.1062  0.0968
 1976SOL    HW1 8370   9.791   4.541   7.512  0.1195  0.4498 -0.8817
 1976SOL    HW2 8371   9.780   4.396   7.470 -0.3267  0.6798 -1.5865
 1977SOL     OW 8372   7.230   6.324   4.631 -0.3232 -0.5652  0.6471
 1977SOL    HW1 8373   7.205   6.233   4.612  0.0277 -0.4045 -0.6288
 1977SOL    HW2 8374   7.325   6.321   4.641 -0.3976 -0.4712  1.4354
 1978SOL     OW 8375   7.051   6.456   4.817 -0.2660 -0.2536 -0.1349
 1978SOL    HW1 8376   7.121   6.478   4.878 -1.1469  1.0577  0.4573
 1978SOL    HW2 8377   7.095   6.416   4.742  1.2324  1.3330 -0.1550
 1979SOL     OW 8378   0.218   6.381   8.165  0.0018 -0.0969  0.2945
 1979SOL    HW1 8379   0.275   6.312   8.199 -1.3773 -0.4005  2.1108
 1979SOL    HW2 8380   0.278   6.443   8.123  1.3449 -1.9498 -0.6570
 1980SOL     OW 8381   0.038  10.384   7.445  0.1299 -0.5631 -0.1691
 1980SOL    HW1 8382   0.032  10.371   7.539  1.2494  1.8558  0.3265
 1980SOL    HW2 8383   0.129  10.368   7.423  0.0942 -0.1783 -0.6456
 1981SOL     OW 8384   9.745   6.887   7.019  0.3219  0.0666  0.1070
 1981SOL    HW1 8385   9.832   6.863   6.985  0.7752  0.5165  0.9017
 1981SOL    HW2 8386   9.740   6.982   7.006 -0.2383 -0.0178 -0.3260
 1982SOL     OW 8387   1.249   8.454   7.570  0.4225 -0.6285 -0.3295
 1982SOL    HW1 8388   1.236   8.433   7.477  0.5619  0.6581 -0.6513
 1982SOL    HW2 8389   1.160   8.468   7.604  0.4807  3.5890 -1.4391
 1983SOL     OW 8390   8.778   5.616   9.372 -0.5263  0.1613  0.5131
 1983SOL    HW1 8391   8.776   5.702   9.329 -2.3021  0.8529  1.8611
 1983SOL    HW2 8392   8.730   5.559   9.312 -1.2868  0.6479  0.6512
 1984SOL     OW 8393   9.597   8.365   2.411 -0.8901 -0.4777  0.3078
 1984SOL    HW1 8394   9.630   8.429   2.348  1.8809 -1.6373  0.4447
 1984SOL    HW2 8395   9.671   8.347   2.468 -2.1561 -2.3908  1.4622
 1985SOL     OW 8396   7.682   6.693   3.083  0.1989 -0.1459 -0.5834
 1985SOL    HW1 8397   7.663   6.613   3.132  0.2250 -0.9831 -1.8767
 1985SOL    HW2 8398   7.758   6.670   3.028  0.9028  1.1195 -0.1773
 1986SOL     OW 8399   1.432   5.407   3.401  0.5569  0.0584 -0.6647
 1986SOL    HW1 8400   1.467   5.460   3.472 -0.2694 -0.0315 -0.1819
 1986SOL    HW2 8401   1.501   5.343   3.382  0.4762 -0.4033  0.5690
 1987SOL     OW 8402   5.203  10.287   1.477 -0.3200  0.1704  0.8188
 1987SOL    HW1 8403   5.186  10.194   1.465  0.2362  0.2208 -0.5825
 1987SOL    HW2 8404   5.125  10.320   1.522 -0.6730 -0.9023  1.0224
 1988SOL     OW 8405   8.347   0.060   4.581 -0.5914  0.0119 -0.1282
 1988SOL    HW1 8406   8.333  -0.026   4.621 -2.4258  0.8338  1.1194
 1988SOL    HW2 8407   8.389   0.040   4.497  0.2926 -1.9919  0.7141
 1989SOL     OW 8408   5.468   1.915   5.078  0.0111  0.3241  0.2596
 1989SOL    HW1 8409   5.520   1.896   5.001  0.9692 -1.7781  1.3232
 1989SOL    HW2 8410   5.395   1.968   5.046  1.1981  0.8321 -1.7701
 1990SOL     OW 8411   5.146   3.087   8.588 -0.3012 -0.3928 -0.1909
 1990SOL    HW1 8412   5.166   3.149   8.658 -1.1857 -0.0377 -0.2401
 1990SOL    HW2 8413   5.193   3.007   8.613 -0.1712 -0.1027  0.5231
 1991SOL     OW 8414   5.801   7.900   1.346 -0.6681 -0.0082  0.2130
 1991SOL    HW1 8415   5.766   7.832   1.404 -1.3296  0.6816  0.6262
 1991SOL    HW2 8416   5.810   7.977   1.401  0.8652  0.0324 -0.0529
 1992SOL     OW 8417   1.812   6.416   8.041  0.0696  0.0171  0.0297
 1992SOL    HW1 8418   1.726   6.380   8.060 -0.1815 -1.1977 -2.8261
 1992SOL    HW2 8419   1.796   6.508   8.022 -0.6866 -0.2626 -0.7580
 1993SOL     OW 8420   2.688   4.359  10.198 -0.2855  0.8804  0.3488
 1993SOL    HW1 8421   2.747   4.434  10.196  0.9415 -0.0146  0.8089
 1993SOL    HW2 8422   2.746   4.284  10.180 -2.0284  0.2956 -4.1503
 1994SOL     OW 8423   9.279   2.840   5.938 -0.2489 -0.2195  0.0188
 1994SOL    HW1 8424   9.360   2.839   5.988  0.1662 -1.1259 -0.6393
 1994SOL    HW2 8425   9.254   2.748   5.931 -0.0892 -0.1550 -1.7503
 1995SOL     OW 8426   8.075   3.006   8.153 -0.0800  0.7297  0.6057
 1995SOL    HW1 8427   8.111   2.964   8.074  1.3102 -0.7781  1.9698
 1995SOL    HW2 8428   7.993   2.959   8.169 -0.7168  1.4982 -0.2831
 1996SOL     OW 8429   3.070   7.809   2.990  0.2038 -0.1439 -0.4313
 1996SOL    HW1 8430   3.096   7.897   2.962  0.4429 -0.5764 -1.6540
 1996SOL    HW2 8431   3.062   7.815   3.085 -2.0344  1.8046 -0.6465
 1997SOL     OW 8432  10.468   1.498   9.068  0.5127  0.4227  0.2787
 1997SOL    HW1 8433  10.400   1.437   9.095  0.5223  1.1570  2.0977
 1997SOL    HW2 8434  10.550   1.449   9.076  0.4358  0.3741  0.7548
 1998SOL     OW 8435   6.342   0.122   7.479 -0.2930  0.3625 -0.1043
 1998SOL    HW1 8436   6.254   0.100   7.447 -0.1885  0.2945 -0.3499
 1998SOL    HW2 8437   6.346   0.217   7.474 -0.9132  0.4960  1.4058
 1999SOL     OW 8438   2.785   9.903   8.527 -0.0230 -0.1470  0.7990
 1999SOL    HW1 8439   2.726   9.916   8.602 -0.3222  0.1602  0.5152
 1999SOL    HW2 8440   2.841   9.830   8.553  2.1034  2.0030  2.7062
 2000SOL     OW 8441   6.282   0.059   6.878 -0.3075  0.1215 -0.4793
 2000SOL    HW1 8442   6.262  -0.022   6.925 -0.7398  0.8784  0.6725
 2000SOL    HW2 8443   6.212   0.068   6.814 -0.4288 -0.2432 -0.3986
 2001SOL     OW 8444   8.961   1.663   2.570  0.4524  0.1566 -0.2186
 2001SOL    HW1 8445   9.018   1.699   2.638 -0.7691  1.7048  0.0146
 2001SOL    HW2 8446   8.946   1.735   2.510 -1.7934  0.0018  0.0841
 2002SOL     OW 8447   8.436   0.635   5.311  0.0224 -0.3065 -0.3709
 2002SOL    HW1 8448   8.362   0.588   5.347 -1.2063  1.5043 -0.4157
 2002SOL    HW2 8449   8.482   0.571   5.257 -0.3346 -1.9915  1.2445
 2003SOL     OW 8450  10.152   5.550   7.814 -0.6475  0.1783 -0.2174
 2003SOL    HW1 8451  10.081   5.496   7.779  1.6848 -2.7999 -0.6640
 2003SOL    HW2 8452  10.115   5.589   7.893 -3.2033 -0.0937 -1.1767
 2004SOL     OW 8453   2.471   5.837   3.031 -0.1324  0.2704  0.2703
 2004SOL    HW1 8454   2.515   5.759   3.064  1.0922 -0.5679 -2.9703
 2004SOL    HW2 8455   2.378   5.814   3.031  0.0767 -0.6170  0.7125
 2005SOL     OW 8456   6.970   7.399   3.325  0.3949 -0.1771 -0.0504
 2005SOL    HW1 8457   6.976   7.492   3.304  0.3216 -0.5225 -1.7775
 2005SOL    HW2 8458   7.056   7.364   3.301  0.1782 -0.6746 -0.1145
 2006SOL     OW 8459   7.009   1.674   9.757 -0.3488  0.3036  0.0479
 2006SOL    HW1 8460   7.097   1.698   9.785 -0.4894  0.1179  0.6830
 2006SOL    HW2 8461   7.014   1.581   9.735 -0.6195  0.0089  1.1538
 2007SOL     OW 8462   0.939   9.611   1.942 -0.3932  0.6883 -0.1456
 2007SOL    HW1 8463   0.953   9.698   1.979 -0.7922  1.0592 -0.8338
 2007SOL    HW2 8464   0.851   9.586   1.972 -1.0568  1.3349 -1.4486
 2008SOL     OW 8465   5.118   2.821   4.355 -0.5706 -0.0919  0.0126
 2008SOL    HW1 8466   5.048   2.767   4.392 -0.3485 -1.9521 -2.0423
 2008SOL    HW2 8467   5.197   2.768   4.366 -0.2699 -0.0536 -1.6871
 2009SOL     OW 8468   1.811   1.152   2.813  0.5503  0.0287  0.0062
 2009SOL    HW1 8469   1.868   1.081   2.784  2.6273  2.1828 -1.5279
 2009SOL    HW2 8470   1.749   1.109   2.873  1.0659 -3.2044 -1.5347
 2010SOL     OW 8471   4.898   5.576   7.308 -0.5262 -0.0256  0.0147
 2010SOL    HW1 8472   4.823   5.587   7.249 -1.4010 -1.2328  0.8588
 2010SOL    HW2 8473   4.908   5.481   7.316  0.9521  0.1156  0.1161
 2011SOL     OW 8474   5.721   8.088   9.486 -0.3739  0.0922 -0.2696
 2011SOL    HW1 8475   5.666   8.164   9.504  1.8256  2.1485 -1.5005
 2011SOL    HW2 8476   5.768   8.072   9.568  0.8168  1.6398 -0.5885
 2012SOL     OW 8477   6.525   5.620   8.685 -0.2691  0.0118  0.2312
 2012SOL    HW1 8478   6.595   5.643   8.625  0.5050 -1.7579  0.3999
 2012SOL    HW2 8479   6.445   5.652   8.643  0.4751  0.6841 -0.6936
 2013SOL     OW 8480   8.600   1.927   5.860  0.5359 -0.2966  0.2643
 2013SOL    HW1 8481   8.675   1.980   5.887  0.0111  1.6632 -1.8350
 2013SOL    HW2 8482   8.565   1.973   5.784 -1.1684 -2.6548 -0.4638
 2014SOL     OW 8483   8.459   5.165   1.840  0.4634  0.3452  0.3201
 2014SOL    HW1 8484   8.492   5.200   1.923  0.2455 -0.3439  0.7044
 2014SOL    HW2 8485   8.367   5.145   1.857  0.2913  0.6532 -0.2352
 2015SOL     OW 8486  10.154   4.911   8.472 -0.0183 -0.5242 -0.1547
 2015SOL    HW1 8487  10.124   5.000   8.491  0.0595 -0.5630  0.1606
 2015SOL    HW2 8488  10.081   4.855   8.498 -0.2838 -0.5197 -0.8734
 2016SOL     OW 8489   3.845   6.010   1.062 -0.2939  0.3711  0.2826
 2016SOL    HW1 8490   3.797   5.950   1.118 -2.1148 -0.1634 -1.6820
 2016SOL    HW2 8491   3.876   5.956   0.989  1.2383  1.1731  0.3081
 2017SOL     OW 8492   7.558   9.303   4.581 -0.1344 -0.6237  0.0147
 2017SOL    HW1 8493   7.627   9.237   4.575  1.6812  1.2336 -1.2976
 2017SOL    HW2 8494   7.538   9.325   4.490  0.7411  1.8996  0.3298
 2018SOL     OW 8495   6.112   9.566   6.555 -0.3992 -0.2006 -0.1001
 2018SOL    HW1 8496   6.196   9.588   6.516  0.4633  0.0904  1.8316
 2018SOL    HW2 8497   6.048   9.587   6.487  1.0263 -0.0077 -1.4441
 2019SOL     OW 8498   6.476   5.080   4.051  0.3552  0.0530  0.4631
 2019SOL    HW1 8499   6.547   5.043   3.999 -0.4338 -1.2500  0.2535
 2019SOL    HW2 8500   6.412   5.109   3.987  0.0111 -0.2439  0.6685
 2020SOL     OW 8501   7.178   4.054  10.283  0.4328 -0.0984  0.0689
 2020SOL    HW1 8502   7.256   4.108  10.297  0.1719  0.2614  0.1773
 2020SOL    HW2 8503   7.178   4.034  10.190  0.9170 -0.5104  0.1574
 2021SOL     OW 8504   6.234   8.408   1.783 -0.1556  0.4790  0.2059
 2021SOL    HW1 8505   6.156   8.446   1.823  0.9201  1.2858  1.6324
 2021SOL    HW2 8506   6.267   8.347   1.848 -0.5078 -1.1562 -1.0849
 2022SOL     OW 8507  10.381   3.477   0.890 -0.3024 -0.5952 -0.5830
 2022SOL    HW1 8508  10.337   3.394   0.908  1.8501 -1.7424 -0.2499
 2022SOL    HW2 8509  10.388   3.520   0.975 -0.3605 -0.6474 -0.5523
 2023SOL     OW 8510   2.837   5.437   8.619  0.5921 -0.0377  0.0153
 2023SOL    HW1 8511   2.842   5.365   8.556 -1.1428 -0.6715  0.5406
 2023SOL    HW2 8512   2.763   5.490   8.590 -0.2772 -0.3671  1.4917
 2024SOL     OW 8513   5.181   4.149   9.971 -0.2864  0.3445 -0.6270
 2024SOL    HW1 8514   5.086   4.139   9.975 -0.1850 -0.4401  0.0118
 2024SOL    HW2 8515   5.207   4.171  10.060  0.0352  1.6058 -1.0060
 2025SOL     OW 8516   2.494   0.288   0.597 -0.6656  0.3941  0.3211
 2025SOL    HW1 8517   2.474   0.353   0.664 -0.6376  1.5657 -0.7836
 2025SOL    HW2 8518   2.478   0.332   0.514  2.4365  0.0820 -0.5753
 2026SOL     OW 8519   6.508   5.339   7.571 -0.3149 -0.4873 -0.3029
 2026SOL    HW1 8520   6.540   5.299   7.489  0.0384  0.2260 -0.5216
 2026SOL    HW2 8521   6.517   5.269   7.636  0.4714 -0.7108 -0.6361
 2027SOL     OW 8522   3.544   0.244   5.006  0.7204 -0.2531 -0.3166
 2027SOL    HW1 8523   3.538   0.334   5.039  1.2016  0.0640 -1.0655
 2027SOL    HW2 8524   3.622   0.208   5.049  1.6373  0.3214 -1.4255
 2028SOL     OW 8525  10.162   2.578   8.619 -0.7865  0.2108 -0.2796
 2028SOL    HW1 8526  10.211   2.653   8.651 -0.8486  0.3523 -0.5126
 2028SOL    HW2 8527  10.195   2.504   8.670 -1.2110  0.5020  0.4343
 2029SOL     OW 8528   4.153   3.423   8.303 -0.1674  0.4672 -0.6330
 2029SOL    HW1 8529   4.135   3.331   8.284  0.6961  0.1873 -0.1466
 2029SOL    HW2 8530   4.140   3.468   8.220  0.4270 -0.2537 -1.1302
 2030SOL     OW 8531   0.727   9.820   1.475 -0.0965 -0.4645 -0.1083
 2030SOL    HW1 8532   0.641   9.851   1.447  1.2197  2.8519 -0.9454
 2030SOL    HW2 8533   0.732   9.845   1.567  0.0935 -0.3664 -0.1460
 2031SOL     OW 8534   9.767   1.244   9.791  0.0239 -0.5373  0.0667
 2031SOL    HW1 8535   9.860   1.256   9.803  0.3356 -1.2150 -1.3473
 2031SOL    HW2 8536   9.755   1.148   9.788 -0.8941 -0.4914  1.4034
 2032SOL     OW 8537   4.372   7.681   4.654  0.1292 -0.4550  0.2225
 2032SOL    HW1 8538   4.381   7.754   4.592 -0.9972 -2.3586 -2.3444
 2032SOL    HW2 8539   4.279   7.681   4.678 -0.3018 -2.0523 -1.2457
 2033SOL     OW 8540   7.715   9.698   4.636  0.4637 -0.1447 -0.0874
 2033SOL    HW1 8541   7.676   9.671   4.553 -0.2596 -0.2924  0.2926
 2033SOL    HW2 8542   7.722   9.617   4.686 -0.4500  0.1570  0.5429
 2034SOL     OW 8543   0.052  10.201   3.894 -0.4174  0.4094 -0.0189
 2034SOL    HW1 8544   0.036  10.145   3.969 -1.2332 -0.1656 -0.6095
 2034SOL    HW2 8545   0.130  10.252   3.918  0.2943 -0.9177  0.5453
 2035SOL     OW 8546   8.988   0.959   1.506  0.1360  0.0030 -0.2695
 2035SOL    HW1 8547   9.008   1.003   1.589 -0.1067  0.7440 -0.5934
 2035SOL    HW2 8548   8.898   0.928   1.516 -0.4746  1.5239 -0.8427
 2036SOL     OW 8549   4.417   3.491   6.246  0.6929  0.2661  0.0968
 2036SOL    HW1 8550   4.383   3.413   6.289  1.1972 -0.0126 -0.0034
 2036SOL    HW2 8551   4.417   3.558   6.315 -1.8020  0.8195 -0.3525
 2037SOL     OW 8552   9.331   4.247   6.975 -0.4217  0.4567  0.0113
 2037SOL    HW1 8553   9.426   4.245   6.986 -0.4179  0.1771 -0.0575
 2037SOL    HW2 8554   9.301   4.160   7.002 -0.8088  0.9843  1.3689
 2038SOL     OW 8555   4.925   7.654   1.822 -0.2034 -0.5048  0.0846
 2038SOL    HW1 8556   4.853   7.594   1.802  0.4417 -0.9165 -1.1127
 2038SOL    HW2 8557   4.937   7.646   1.917 -1.2669 -0.9534  0.2017
 2039SOL     OW 8558   8.528   1.744   2.915  0.2179  0.2478 -0.5516
 2039SOL    HW1 8559   8.442   1.758   2.956 -0.5212 -0.5525 -1.7428
 2039SOL    HW2 8560   8.537   1.815   2.853  0.0328 -0.1279 -1.0143
 2040SOL     OW 8561   7.286   4.401   9.971  0.8041 -0.0000 -0.3623
 2040SOL    HW1 8562   7.256   4.362   9.889 -0.1137 -2.8605  1.2054
 2040SOL    HW2 8563   7.217   4.463   9.994  1.2796  1.1762 -1.8871
 2041SOL     OW 8564   7.237   5.827   4.874  0.2946 -0.3035 -0.2449
 2041SOL    HW1 8565   7.169   5.783   4.926 -0.2264  0.1600 -0.5228
 2041SOL    HW2 8566   7.219   5.800   4.784 -1.1864  1.8895 -0.6791
 2042SOL     OW 8567   6.991  10.113  10.258  0.1491  0.2313 -0.3688
 2042SOL    HW1 8568   7.032  10.033  10.290  2.5518  0.9787 -1.3626
 2042SOL    HW2 8569   7.026  10.124  10.170 -0.1501  2.3725 -0.2587
 2043SOL     OW 8570   1.328   0.092   7.482  0.5114  0.4185 -0.2108
 2043SOL    HW1 8571   1.292   0.004   7.480  0.4180  0.4660 -0.9139
 2043SOL    HW2 8572   1.331   0.115   7.575  0.1402 -0.1611 -0.0516
 2044SOL     OW 8573   8.118   4.204   1.394  0.2158 -0.4098 -0.1972
 2044SOL    HW1 8574   8.073   4.190   1.477  0.1592 -3.7633 -0.6390
 2044SOL    HW2 8575   8.055   4.253   1.341 -0.6421 -0.1630  1.0113
 2045SOL     OW 8576   1.644   8.134   9.720  0.0967  0.3723  0.1923
 2045SOL    HW1 8577   1.607   8.096   9.640 -0.8892 -0.6646  1.1116
 2045SOL    HW2 8578   1.725   8.177   9.690 -1.1099  1.5343 -1.6375
 2046SOL     OW 8579   7.187   5.219   5.875 -0.1465 -0.2701 -0.1761
 2046SOL    HW1 8580   7.258   5.179   5.825  0.0934 -0.1605  0.0753
 2046SOL    HW2 8581   7.118   5.153   5.876  0.7457 -1.2443  1.3747
 2047SOL     OW 8582   5.057   3.363   7.651 -0.1362  0.3072  0.3768
 2047SOL    HW1 8583   5.095   3.410   7.725  0.8524 -0.1720  0.1889
 2047SOL    HW2 8584   5.106   3.281   7.647 -4.0553 -2.4612  2.8739
 2048SOL     OW 8585   1.757   7.981   5.640  0.3913  0.0459  0.1106
 2048SOL    HW1 8586   1.814   8.038   5.690 -0.5823  0.5184  0.7049
 2048SOL    HW2 8587   1.816   7.931   5.583  1.2436  1.8250 -0.6270
 2049SOL     OW 8588   6.683   7.146   4.729 -0.1933 -0.2405  0.1672
 2049SOL    HW1 8589   6.649   7.064   4.695 -1.0879 -0.0417  0.5454
 2049SOL    HW2 8590   6.605   7.202   4.738  0.1223 -0.0036  1.7027
 2050SOL     OW 8591   3.886   2.983   6.244  0.2423  0.2633 -0.2706
 2050SOL    HW1 8592   3.814   2.920   6.252 -1.2029  1.6482 -1.6882
 2050SOL    HW2 8593   3.879   3.037   6.322  0.7159 -0.5321  0.3383
 2051SOL     OW 8594   8.391   5.363   4.661  0.3598 -0.0756  0.2984
 2051SOL    HW1 8595   8.477   5.406   4.655 -0.1506  0.7064 -2.7446
 2051SOL    HW2 8596   8.387   5.306   4.585 -1.7207 -0.3496  0.5554
 2052SOL     OW 8597   1.797   9.986   7.080 -0.0377 -0.3830 -0.3703
 2052SOL    HW1 8598   1.727  10.031   7.032  1.1171  0.9060 -0.9033
 2052SOL    HW2 8599   1.874  10.042   7.068  0.9174 -1.4032  0.7980
 2053SOL     OW 8600   5.873   3.335   7.634  0.1096  0.1312 -0.0707
 2053SOL    HW1 8601   5.904   3.259   7.585 -0.0196  0.1707 -0.2133
 2053SOL    HW2 8602   5.782   3.315   7.656  0.3285 -0.1313  0.6395
 2054SOL     OW 8603   8.604   7.972   8.140 -0.5155 -0.4656  0.3370
 2054SOL    HW1 8604   8.589   8.054   8.187 -0.3518 -0.7682  0.9231
 2054SOL    HW2 8605   8.590   7.904   8.205  3.9403 -0.8119  1.2589
 2055SOL     OW 8606   9.106   9.287   2.534  0.0975  0.1813 -0.3759
 2055SOL    HW1 8607   9.145   9.288   2.621 -1.3613 -0.7332  0.3196
 2055SOL    HW2 8608   9.173   9.246   2.478  0.8687  0.3676  0.3917
 2056SOL     OW 8609   5.020   5.846  10.004 -0.6936  0.2730 -0.0379
 2056SOL    HW1 8610   5.082   5.917   9.988 -1.6489  1.5170  1.4680
 2056SOL    HW2 8611   5.067   5.766   9.979  1.2492  1.2274  0.3859
 2057SOL     OW 8612   0.772   5.833   5.647  0.3816 -0.1581  0.7815
 2057SOL    HW1 8613   0.689   5.853   5.603  0.2704  1.8891  1.7540
 2057SOL    HW2 8614   0.746   5.802   5.734  0.5901  0.9585  1.2666
 2058SOL     OW 8615   8.833   9.920   0.616 -0.0894 -0.1219  0.1507
 2058SOL    HW1 8616   8.797  10.005   0.640  0.0620 -0.0051 -0.0377
 2058SOL    HW2 8617   8.786   9.895   0.536  0.5186  0.2106 -0.3179
 2059SOL     OW 8618   4.582   9.157   2.774 -0.2317 -0.0395  0.3048
 2059SOL    HW1 8619   4.578   9.095   2.846  1.6174 -0.3678  0.1756
 2059SOL    HW2 8620   4.559   9.106   2.697 -1.5732  0.1597  0.5526
 2060SOL     OW 8621   6.259   3.655   1.568  0.4853  0.4351  0.3321
 2060SOL    HW1 8622   6.176   3.660   1.615  0.1122 -1.1018 -0.1200
 2060SOL    HW2 8623   6.256   3.728   1.506 -0.6558  0.2189  0.1178
 2061SOL     OW 8624   1.108   3.675   9.926  0.3996  0.2627  0.3299
 2061SOL    HW1 8625   1.196   3.652   9.954  0.5851  1.6534  0.9712
 2061SOL    HW2 8626   1.076   3.735   9.994 -1.8396 -1.8053  1.2286
 2062SOL     OW 8627   9.173   5.749   8.531 -0.1937  0.2660  0.7194
 2062SOL    HW1 8628   9.260   5.784   8.553 -0.0665 -0.2899  1.1200
 2062SOL    HW2 8629   9.112   5.813   8.567  0.0139 -0.5128  2.5528
 2063SOL     OW 8630   7.723   6.433   8.358  0.2993 -0.0958 -0.3797
 2063SOL    HW1 8631   7.767   6.423   8.443  0.6809 -0.3412 -0.6016
 2063SOL    HW2 8632   7.639   6.389   8.369  0.4021 -0.2418 -0.1674
 2064SOL     OW 8633   1.036   9.449   3.025  0.5586 -0.4611 -0.1943
 2064SOL    HW1 8634   1.096   9.451   3.099  0.7106 -0.4489 -0.3181
 2064SOL    HW2 8635   1.086   9.484   2.952  0.9481 -2.0186 -0.7008
 2065SOL     OW 8636   2.531   2.090   1.051  0.4153  0.4284 -0.2229
 2065SOL    HW1 8637   2.468   2.018   1.054  0.2373  0.4202 -2.3104
 2065SOL    HW2 8638   2.513   2.133   0.968  0.8445  2.6120  0.7626
 2066SOL     OW 8639  10.009   5.770   9.384  0.4311 -0.4851 -0.6025
 2066SOL    HW1 8640  10.019   5.791   9.291  0.9080  0.5151 -0.3401
 2066SOL    HW2 8641   9.933   5.821   9.412 -1.2028 -2.5868 -0.9492
 2067SOL     OW 8642   7.925  10.391   6.983  0.6904  0.4267  0.2295
 2067SOL    HW1 8643   8.011  10.432   6.986  0.0500  1.9501 -0.7439
 2067SOL    HW2 8644   7.885  10.414   7.068  1.2378 -0.3061  0.6921
 2068SOL     OW 8645   8.965   0.885   7.881 -0.0542  0.1585  0.0045
 2068SOL    HW1 8646   9.018   0.916   7.955 -0.0913 -2.1295  1.0605
 2068SOL    HW2 8647   8.990   0.943   7.809  1.7369  0.9859  1.1939
 2069SOL     OW 8648   6.214   4.452  10.417  0.1542  0.0153 -0.5889
 2069SOL    HW1 8649   6.136   4.462  10.364  0.6103 -0.4853 -1.3756
 2069SOL    HW2 8650   6.286   4.481  10.361  0.5927 -0.0357 -0.0703
 2070SOL     OW 8651   4.296   8.288   4.174  0.4214  0.1776 -0.0022
 2070SOL    HW1 8652   4.276   8.197   4.153  1.1279 -0.0440  0.2360
 2070SOL    HW2 8653   4.253   8.304   4.258 -2.2296  1.0003 -1.4233
 2071SOL     OW 8654   2.477   3.603   9.459  0.0772  0.1026  0.1566
 2071SOL    HW1 8655   2.486   3.614   9.365  0.2870 -0.5049  0.1033
 2071SOL    HW2 8656   2.523   3.522   9.479 -0.5185 -0.1135  0.6871
 2072SOL     OW 8657  10.287   7.508   7.477 -0.1065  0.0840  0.4591
 2072SOL    HW1 8658  10.315   7.420   7.453 -0.3809 -0.0968  0.7946
 2072SOL    HW2 8659  10.191   7.506   7.468 -0.6021 -0.9005  4.3618
 2073SOL     OW 8660   6.026  10.129   0.245  0.2686 -0.2381 -0.6908
 2073SOL    HW1 8661   6.007  10.036   0.236  1.0945 -0.6812  1.5993
 2073SOL    HW2 8662   5.950  10.165   0.290  0.3605  0.0134 -0.7358
 2074SOL     OW 8663   3.270   4.001   3.683 -0.2048 -0.2408  0.0182
 2074SOL    HW1 8664   3.240   3.915   3.714  0.2446 -0.5772 -0.4598
 2074SOL    HW2 8665   3.230   4.064   3.743  1.6599 -0.9277  2.1140
 2075SOL     OW 8666  10.434   8.903   2.722 -0.5237  0.6498  0.8037
 2075SOL    HW1 8667  10.465   8.984   2.762 -1.4785  2.3957 -1.7653
 2075SOL    HW2 8668  10.363   8.874   2.779  0.3336  1.1516  2.1711
 2076SOL     OW 8669   3.766   8.124   6.196 -0.1717  0.1706  0.1831
 2076SOL    HW1 8670   3.751   8.031   6.184 -0.7054  0.3130 -0.2653
 2076SOL    HW2 8671   3.691   8.155   6.246  1.5112 -0.2163  3.2257
 2077SOL     OW 8672   1.575   2.273   2.027 -0.0092  0.2883  0.1267
 2077SOL    HW1 8673   1.590   2.243   2.117 -0.9938  1.1010  0.5845
 2077SOL    HW2 8674   1.495   2.324   2.032  0.9450  1.9735 -0.8339
 2078SOL     OW 8675   6.226   4.215   7.925  0.1446 -0.1224 -0.4680
 2078SOL    HW1 8676   6.182   4.204   7.841 -2.6386  1.3131  0.6573
 2078SOL    HW2 8677   6.235   4.310   7.936  1.9118 -0.3263  0.2029
 2079SOL     OW 8678   2.372   7.103   2.500 -0.3051  0.2595  0.5435
 2079SOL    HW1 8679   2.441   7.047   2.537 -1.4272 -1.3478  0.2680
 2079SOL    HW2 8680   2.349   7.162   2.572 -0.2676 -0.7368  1.3904
 2080SOL     OW 8681   4.994   1.447   8.558 -0.3435 -0.1090  0.2705
 2080SOL    HW1 8682   4.966   1.512   8.494 -0.7331 -0.8049 -0.2727
 2080SOL    HW2 8683   5.089   1.440   8.546 -0.5209 -0.8849 -0.8719
 2081SOL     OW 8684   9.811   7.420   5.058 -0.5392 -0.1983 -0.2670
 2081SOL    HW1 8685   9.839   7.495   5.110 -1.2688  0.5510 -0.9355
 2081SOL    HW2 8686   9.812   7.452   4.967 -0.2183 -1.1953 -0.6315
 2082SOL     OW 8687   5.055   6.434   9.915 -0.1635  0.0551  0.1441
 2082SOL    HW1 8688   5.117   6.379   9.962  2.3318  1.5633 -1.2001
 2082SOL    HW2 8689   5.109   6.491   9.861 -2.7614  1.0965 -1.5528
 2083SOL     OW 8690   7.413   9.750   2.254 -0.3696  0.1806 -1.0811
 2083SOL    HW1 8691   7.478   9.812   2.221  2.0321 -1.7862 -0.3447
 2083SOL    HW2 8692   7.400   9.777   2.345  0.9348 -0.5206 -0.6556
 2084SOL     OW 8693   2.012   8.163   4.893 -0.4312 -0.0442  0.0888
 2084SOL    HW1 8694   1.977   8.190   4.808 -0.0274 -0.1455 -0.1140
 2084SOL    HW2 8695   2.107   8.176   4.885 -0.2141 -1.5217 -0.0301
 2085SOL     OW 8696   2.080   3.208   6.339 -0.0495 -0.6874 -0.0818
 2085SOL    HW1 8697   2.013   3.236   6.277 -0.7508 -1.2088  0.4130
 2085SOL    HW2 8698   2.050   3.122   6.369  0.7071 -0.8081  0.3510
 2086SOL     OW 8699   4.916   5.974  10.220  0.0047  0.1722 -0.1842
 2086SOL    HW1 8700   4.930   5.946  10.129 -0.9351  3.0357 -1.3482
 2086SOL    HW2 8701   4.993   5.942  10.267  0.3841 -1.6419 -1.9126
 2087SOL     OW 8702   2.396   8.223   2.172  0.0678  0.0113 -0.3717
 2087SOL    HW1 8703   2.368   8.314   2.182 -0.0269 -0.0094 -0.4535
 2087SOL    HW2 8704   2.379   8.202   2.080 -1.4064 -0.5835 -0.0019
 2088SOL     OW 8705   0.036   1.779   4.695 -0.2231  0.4272  0.3908
 2088SOL    HW1 8706   0.043   1.758   4.602 -0.0014 -0.1892  0.5436
 2088SOL    HW2 8707  -0.057   1.798   4.709 -0.1565  1.1639 -0.0846
 2089SOL     OW 8708   0.367   8.233   7.652 -0.0660 -0.0745  0.0166
 2089SOL    HW1 8709   0.409   8.147   7.658 -0.5907 -0.2956  0.5564
 2089SOL    HW2 8710   0.274   8.214   7.646 -0.0588  0.3561 -2.4944
 2090SOL     OW 8711   9.148   3.378   3.610  0.4239  0.0596 -0.2174
 2090SOL    HW1 8712   9.244   3.387   3.615  0.3580  0.1690  1.0810
 2090SOL    HW2 8713   9.130   3.292   3.647  0.0234 -0.0396 -0.6314
 2091SOL     OW 8714   1.009   5.764   1.301  0.3499  0.8008  0.6515
 2091SOL    HW1 8715   0.952   5.723   1.236 -1.7459  3.6736  0.4496
 2091SOL    HW2 8716   1.083   5.704   1.310 -2.2026 -2.7489  0.2130
 2092SOL     OW 8717  10.133  10.437   4.317 -0.4250  0.0857  0.0708
 2092SOL    HW1 8718  10.212  10.449   4.263 -0.7214  0.0538 -0.3793
 2092SOL    HW2 8719  10.165  10.437   4.407  0.1980 -0.7133 -0.1309
 2093SOL     OW 8720   0.791   6.300   3.727  0.8323 -0.0301  0.1345
 2093SOL    HW1 8721   0.720   6.284   3.666 -0.3551  1.5585  1.0299
 2093SOL    HW2 8722   0.748   6.329   3.807  2.4710  0.5993  0.8363
 2094SOL     OW 8723   8.610  10.200   1.448  0.0193  0.5888 -0.0133
 2094SOL    HW1 8724   8.570  10.260   1.512 -1.4148  0.9847 -1.2235
 2094SOL    HW2 8725   8.578  10.114   1.473  0.7362  0.5146  0.7181
 2095SOL     OW 8726   7.086   2.965  10.049  0.2114  0.3631 -0.1018
 2095SOL    HW1 8727   7.068   3.057  10.070  0.0437  0.1274  0.8649
 2095SOL    HW2 8728   7.108   2.965   9.956 -0.1029  1.3372 -0.1884
 2096SOL     OW 8729   7.937   3.144   7.092 -0.5003 -0.0994  0.1301
 2096SOL    HW1 8730   7.876   3.148   7.018 -1.5041  2.5828  0.9887
 2096SOL    HW2 8731   8.023   3.157   7.053 -0.9792  0.8873 -0.6391
 2097SOL     OW 8732   5.267   1.709   7.621  0.2046 -0.1805 -0.2840
 2097SOL    HW1 8733   5.343   1.655   7.640 -0.6579 -0.6579  2.1603
 2097SOL    HW2 8734   5.302   1.798   7.614  1.0007 -0.3841  0.8266
 2098SOL     OW 8735   8.486   6.936   2.821  0.1298 -0.3060 -0.1112
 2098SOL    HW1 8736   8.440   6.870   2.872 -0.5799  0.0911 -0.2173
 2098SOL    HW2 8737   8.416   6.982   2.774  0.7000 -0.1553 -0.8317
 2099SOL     OW 8738   9.942   7.347   8.125  0.1779 -0.3555  0.3677
 2099SOL    HW1 8739   9.977   7.357   8.036  1.2522  1.2377  0.9217
 2099SOL    HW2 8740   9.884   7.272   8.119  2.3026 -2.0278 -1.0627
 2100SOL     OW 8741  10.009   1.071   9.612  0.0649  0.2743 -0.5407
 2100SOL    HW1 8742   9.927   1.105   9.577  0.7191  1.7909 -0.6865
 2100SOL    HW2 8743  10.075   1.097   9.547  0.8071  0.0037  0.0911
 2101SOL     OW 8744   0.003   6.807   4.671  0.3187  0.0262 -0.0387
 2101SOL    HW1 8745  -0.037   6.893   4.664  1.9700  0.8158 -0.1168
 2101SOL    HW2 8746  -0.049   6.751   4.613 -1.9111  0.4979  1.4086
 2102SOL     OW 8747   4.304   0.240   6.414  0.1171 -0.3831  0.0294
 2102SOL    HW1 8748   4.273   0.208   6.499 -0.4509  1.8623  0.7469
 2102SOL    HW2 8749   4.228   0.232   6.356 -0.5869  1.2246  0.6761
 2103SOL     OW 8750  10.227   9.405   2.955 -0.1024 -0.2952 -0.0644
 2103SOL    HW1 8751  10.226   9.326   2.901 -1.7842  0.0434 -0.5975
 2103SOL    HW2 8752  10.205   9.476   2.894 -0.3758  0.3294  0.7372
 2104SOL     OW 8753   8.698   9.135   3.309 -0.6871  0.0052  0.7807
 2104SOL    HW1 8754   8.749   9.174   3.238 -1.0465 -1.6178 -0.4369
 2104SOL    HW2 8755   8.717   9.189   3.385 -2.4724  3.6264 -1.0668
 2105SOL     OW 8756   6.591   3.787   4.586 -0.4191 -0.3537  0.0891
 2105SOL    HW1 8757   6.509   3.780   4.537  0.6901 -0.8323 -1.8235
 2105SOL    HW2 8758   6.581   3.726   4.659 -2.5180  1.1211  1.1091
 2106SOL     OW 8759   1.237   7.859   2.098 -0.1322  0.0045 -0.0979
 2106SOL    HW1 8760   1.299   7.794   2.131 -0.0324  0.5865  0.8995
 2106SOL    HW2 8761   1.286   7.908   2.033  0.5772  0.6564  0.8991
 2107SOL     OW 8762   7.516   6.057   9.669  0.3573 -0.2792  0.4921
 2107SOL    HW1 8763   7.449   5.989   9.662 -0.0088  0.2288 -1.9790
 2107SOL    HW2 8764   7.467   6.137   9.687  0.1620  0.1600 -1.6877
 2108SOL     OW 8765   1.020   2.948   2.314  0.6135  0.2128 -0.7630
 2108SOL    HW1 8766   0.966   3.022   2.341  0.9003 -0.3929  1.7061
 2108SOL    HW2 8767   1.103   2.987   2.286  0.8611  0.8406  0.7762
 2109SOL     OW 8768   3.304   8.716   5.903 -0.3055  0.0790  0.2896
 2109SOL    HW1 8769   3.313   8.755   5.990  0.3908  0.0393  0.2458
 2109SOL    HW2 8770   3.387   8.669   5.890  0.0698  1.0123 -0.8512
 2110SOL     OW 8771   4.292   5.089   8.244  0.3215 -0.1570  0.3280
 2110SOL    HW1 8772   4.264   5.000   8.225 -1.7984  0.3413  0.8292
 2110SOL    HW2 8773   4.275   5.101   8.337  2.1164  0.2915  0.6421
 2111SOL     OW 8774   5.078   8.166   2.288  0.0550  0.0267  0.4677
 2111SOL    HW1 8775   5.071   8.254   2.326  0.2330  0.2699 -0.0558
 2111SOL    HW2 8776   5.006   8.117   2.329  0.2729  0.2644  1.1558
 2112SOL     OW 8777   6.336  10.485   1.109 -0.0157 -0.1417 -0.3285
 2112SOL    HW1 8778   6.316  10.553   1.045 -0.9854 -1.3677 -1.3981
 2112SOL    HW2 8779   6.257  10.430   1.110  0.4025 -0.7543  1.1393
 2113SOL     OW 8780   6.107   3.875   8.710  0.1605 -0.2451  0.3313
 2113SOL    HW1 8781   6.186   3.925   8.730 -0.0554  1.0591 -1.8070
 2113SOL    HW2 8782   6.138   3.786   8.694  1.2853  0.3611 -1.0102
 2114SOL     OW 8783   3.934   0.800   0.323  0.5158  0.0731  1.1152
 2114SOL    HW1 8784   3.974   0.884   0.346  1.3146 -0.6359  2.4233
 2114SOL    HW2 8785   3.899   0.814   0.235  1.8356  1.3689  0.7518
 2115SOL     OW 8786   6.789   6.840  10.352  0.3571 -0.3207  0.1554
 2115SOL    HW1 8787   6.880   6.846  10.322  0.1352 -0.3240 -0.5136
 2115SOL    HW2 8788   6.789   6.763  10.409  0.8103 -0.2195  0.3031
 2116SOL     OW 8789   6.675   4.675   5.839 -0.1387 -0.5730 -0.8060
 2116SOL    HW1 8790   6.766   4.646   5.840 -0.1261 -0.6471  1.6702
 2116SOL    HW2 8791   6.678   4.764   5.873 -1.2550 -1.8496  3.1105
 2117SOL     OW 8792   7.163   7.384   3.966  0.4599  0.5863  0.4903
 2117SOL    HW1 8793   7.170   7.334   4.048  0.7914  0.4660  0.3906
 2117SOL    HW2 8794   7.135   7.471   3.994  2.1293  1.0288  0.9118
 2118SOL     OW 8795   6.482  10.146   4.679  0.0474  0.2790  0.4532
 2118SOL    HW1 8796   6.439  10.231   4.691  1.2193  0.9522  0.1013
 2118SOL    HW2 8797   6.552  10.164   4.616 -1.9208 -1.7419 -2.5585
 2119SOL     OW 8798   8.491   9.580   2.863  0.4753  0.1250 -0.2068
 2119SOL    HW1 8799   8.484   9.504   2.805 -1.9270 -0.8199  1.1907
 2119SOL    HW2 8800   8.531   9.545   2.943 -0.5363  0.3212  0.3983
 2120SOL     OW 8801   0.716   9.901   7.437 -0.0315 -0.0042  0.2237
 2120SOL    HW1 8802   0.753   9.815   7.418 -2.2940 -0.9225 -0.3219
 2120SOL    HW2 8803   0.646   9.913   7.373 -0.1887  1.9742  0.6869
 2121SOL     OW 8804   0.012   1.534   3.199  0.5233  0.1883 -0.0856
 2121SOL    HW1 8805   0.070   1.524   3.123  1.7838 -0.7975  0.9763
 2121SOL    HW2 8806   0.042   1.469   3.261 -0.9044  0.5581  1.0327
 2122SOL     OW 8807   4.339   3.952  10.316 -0.7196 -0.1391 -0.6469
 2122SOL    HW1 8808   4.404   3.883  10.312 -0.5823 -0.0561 -0.0148
 2122SOL    HW2 8809   4.276   3.922  10.381 -0.6300  0.3528 -0.3313
 2123SOL     OW 8810   1.202   0.708   3.237  0.4687  0.5919 -0.0156
 2123SOL    HW1 8811   1.151   0.788   3.237  0.2839  0.4748 -0.0000
 2123SOL    HW2 8812   1.285   0.732   3.278  0.5945  0.8896 -0.4357
 2124SOL     OW 8813   3.012   8.973   7.643  0.2250 -0.5663 -0.0705
 2124SOL    HW1 8814   2.995   9.039   7.577  1.7508  0.3248  0.3808
 2124SOL    HW2 8815   3.055   9.020   7.715 -0.2594 -1.7254  1.0316
 2125SOL     OW 8816   5.610   0.038   8.861 -0.3680  0.8302  0.7528
 2125SOL    HW1 8817   5.599   0.064   8.952 -0.8059  2.9358  0.1685
 2125SOL    HW2 8818   5.702   0.012   8.855 -0.4348  0.2857  1.8620
 2126SOL     OW 8819   4.746   3.387   0.330  0.1474 -0.1574 -0.3383
 2126SOL    HW1 8820   4.832   3.386   0.288  1.1296  0.1599  1.5520
 2126SOL    HW2 8821   4.700   3.313   0.290  1.1477 -0.1278 -1.6344
 2127SOL     OW 8822   8.642   8.954   5.685  0.0616  0.1063 -0.5568
 2127SOL    HW1 8823   8.735   8.937   5.673  0.5565  1.5653  0.8924
 2127SOL    HW2 8824   8.611   8.979   5.597  0.8943 -0.8837 -1.1523
 2128SOL     OW 8825  10.101   5.748   8.543  0.2481  0.2150  0.2523
 2128SOL    HW1 8826  10.130   5.734   8.633 -0.1996  0.9563  0.5237
 2128SOL    HW2 8827  10.162   5.813   8.509  0.1739  0.2339  0.1559
 2129SOL     OW 8828   6.382   5.504   7.808  0.2999 -0.1214 -0.1818
 2129SOL    HW1 8829   6.286   5.509   7.814  0.3519 -0.3965  1.3990
 2129SOL    HW2 8830   6.399   5.429   7.752 -0.3883  1.3859 -2.5613
 2130SOL     OW 8831   6.232   9.165   4.856  0.4655 -0.6899  0.0146
 2130SOL    HW1 8832   6.250   9.255   4.882  1.8711 -0.8624 -0.2735
 2130SOL    HW2 8833   6.227   9.117   4.939 -0.2620 -0.3626  0.1660
 2131SOL     OW 8834   2.026   8.532   1.813 -0.3681  0.0326 -0.1970
 2131SOL    HW1 8835   2.065   8.445   1.804 -2.1047 -0.6360 -2.1625
 2131SOL    HW2 8836   2.046   8.576   1.730 -0.2606  1.1947  0.4280
 2132SOL     OW 8837   7.623   2.864   7.347  0.1338 -0.1215  0.0644
 2132SOL    HW1 8838   7.656   2.800   7.285  0.5252 -1.0422  1.1968
 2132SOL    HW2 8839   7.680   2.856   7.423  0.5448  1.9636  0.0393
 2133SOL     OW 8840   0.709   9.680   1.733  0.4803 -0.5782 -0.7071
 2133SOL    HW1 8841   0.740   9.610   1.675  0.8793 -0.7365 -0.3100
 2133SOL    HW2 8842   0.777   9.687   1.800 -0.1900 -0.7189  0.0056
 2134SOL     OW 8843   8.977   1.960  10.331  0.0220 -0.1573  0.3388
 2134SOL    HW1 8844   9.035   1.918  10.394  0.1478  2.4145  2.1102
 2134SOL    HW2 8845   8.890   1.928  10.354  0.0345  0.9216  2.0815
 2135SOL     OW 8846   7.088   0.873   1.090  0.2549  0.5986 -0.8608
 2135SOL    HW1 8847   7.157   0.809   1.078 -0.7291 -0.8981  0.9129
 2135SOL    HW2 8848   7.012   0.822   1.117 -0.6977  2.4530  0.1963
 2136SOL     OW 8849   2.945   4.078   8.222 -0.5521  0.0871  0.1325
 2136SOL    HW1 8850   2.874   4.013   8.218  0.0335 -0.6348  0.9525
 2136SOL    HW2 8851   2.927   4.138   8.150 -2.3016  0.2412  0.6544
 2137SOL     OW 8852   6.554   9.889   6.939  0.1775  0.0006  0.0538
 2137SOL    HW1 8853   6.566   9.980   6.967 -0.1008 -0.0690  0.4058
 2137SOL    HW2 8854   6.552   9.894   6.843 -1.9565  0.6622  0.0791
 2138SOL     OW 8855   1.862   0.198   8.489  0.7608 -0.4373  0.7279
 2138SOL    HW1 8856   1.849   0.171   8.580 -0.4981  1.5778  1.1814
 2138SOL    HW2 8857   1.931   0.264   8.493  0.3794 -0.0107  0.2611
 2139SOL     OW 8858   8.974   6.750   1.104 -0.0811  0.0148  0.0622
 2139SOL    HW1 8859   9.049   6.693   1.086 -0.8948 -0.5978 -1.6327
 2139SOL    HW2 8860   8.972   6.758   1.199  1.2726 -1.1388  0.2249
 2140SOL     OW 8861   4.424   6.696   8.466 -0.0770 -0.2636  0.0288
 2140SOL    HW1 8862   4.362   6.769   8.463  1.7190  1.3157 -0.6968
 2140SOL    HW2 8863   4.370   6.620   8.490 -1.8159  1.5207  2.3208
 2141SOL     OW 8864   9.557  10.364   4.541  0.4175  0.5441 -0.2965
 2141SOL    HW1 8865   9.636  10.322   4.575 -1.2333 -1.5988  1.1442
 2141SOL    HW2 8866   9.508  10.390   4.619 -0.2900  1.9388 -1.1573
 2142SOL     OW 8867   2.818   5.974   3.249  0.4131 -0.3658  0.2941
 2142SOL    HW1 8868   2.907   5.941   3.258  0.2044 -0.4914  2.6679
 2142SOL    HW2 8869   2.777   5.917   3.184  1.1277 -2.4551  1.6023
 2143SOL     OW 8870   6.087   6.850   1.351  0.0841  0.1795  0.0361
 2143SOL    HW1 8871   6.028   6.904   1.403  0.4751  0.5233  0.1295
 2143SOL    HW2 8872   6.112   6.778   1.409  0.0636  0.2470  0.1285
 2144SOL     OW 8873   5.289   3.279   6.883 -0.1122 -1.0412 -0.0651
 2144SOL    HW1 8874   5.356   3.258   6.818  0.1814  1.3589 -0.6350
 2144SOL    HW2 8875   5.339   3.302   6.962 -0.2588  0.3750 -0.3725
 2145SOL     OW 8876   8.511   1.143   3.931 -0.2178  0.6120  0.4590
 2145SOL    HW1 8877   8.472   1.097   3.857  1.0508  0.0781  0.0966
 2145SOL    HW2 8878   8.454   1.218   3.946 -2.2870 -0.9772  0.9847
 2146SOL     OW 8879   5.992   2.176   1.027 -0.2844 -0.2752  0.1942
 2146SOL    HW1 8880   6.002   2.147   1.118  0.3826  1.2933  0.6478
 2146SOL    HW2 8881   6.064   2.135   0.981  0.0205 -0.2048  0.6026
 2147SOL     OW 8882   2.060   0.923   5.496  0.1070 -0.0238 -0.4136
 2147SOL    HW1 8883   2.103   0.850   5.540  1.2087  0.3939 -0.7520
 2147SOL    HW2 8884   2.031   0.887   5.413  1.3309  0.0774 -0.9124
 2148SOL     OW 8885   3.732   1.090   9.153  0.1937  0.1771 -0.3892
 2148SOL    HW1 8886   3.639   1.089   9.178  0.4964  0.0944  0.7592
 2148SOL    HW2 8887   3.748   1.003   9.119  0.1044 -0.1597  0.4095
 2149SOL     OW 8888   3.704   6.497  10.023 -0.1053 -0.2410  0.3919
 2149SOL    HW1 8889   3.754   6.420   9.994  0.0011 -0.4644  1.1618
 2149SOL    HW2 8890   3.729   6.509  10.114 -1.0817 -0.0400  0.6373
 2150SOL     OW 8891   0.028   1.566   8.778 -0.2909  0.4800  0.0523
 2150SOL    HW1 8892   0.035   1.660   8.789 -3.7107  0.8878 -0.3810
 2150SOL    HW2 8893   0.005   1.533   8.865 -0.1984  0.1695 -0.0390
 2151SOL     OW 8894   5.890   9.791   3.078 -0.3857 -0.5737 -0.2303
 2151SOL    HW1 8895   5.964   9.832   3.033 -1.4432 -0.4679 -1.9790
 2151SOL    HW2 8896   5.853   9.732   3.012 -1.9534 -0.4953  0.5526
 2152SOL     OW 8897   6.274   9.878   1.646 -0.3130  0.9953  0.0142
 2152SOL    HW1 8898   6.287   9.797   1.696 -0.3268  0.7809 -0.3208
 2152SOL    HW2 8899   6.299   9.948   1.706 -1.0967  0.7940  0.5940
 2153SOL     OW 8900   4.963   7.028   0.473 -0.2231  0.4028  0.1561
 2153SOL    HW1 8901   5.011   6.984   0.403 -0.3222  1.7423 -0.7824
 2153SOL    HW2 8902   5.020   7.021   0.550 -0.4665 -1.7930  0.1907
 2154SOL     OW 8903   9.205   2.465   0.470  0.0799 -0.9824  0.2713
 2154SOL    HW1 8904   9.112   2.445   0.484  0.0848 -0.2807  1.3799
 2154SOL    HW2 8905   9.241   2.476   0.557  1.1429 -0.9029 -0.1631
 2155SOL     OW 8906   5.425   1.918   0.804  0.5562 -0.2012 -0.1240
 2155SOL    HW1 8907   5.490   1.949   0.867  1.0949  0.2807 -0.8925
 2155SOL    HW2 8908   5.459   1.946   0.719 -1.7863  2.2229 -0.4406
 2156SOL     OW 8909   5.944   3.203   2.295 -0.5792  0.3697  0.0471
 2156SOL    HW1 8910   6.004   3.222   2.223 -0.6574 -2.9991 -1.0745
 2156SOL    HW2 8911   5.857   3.209   2.257 -0.6496 -0.6974  0.0056
 2157SOL     OW 8912   3.359   3.564   6.436  0.0264  0.0147  0.1875
 2157SOL    HW1 8913   3.400   3.637   6.391  1.4275 -1.2664 -0.7141
 2157SOL    HW2 8914   3.354   3.591   6.528 -0.8729  1.8027 -0.3489
 2158SOL     OW 8915   8.121  10.040   9.667  0.1875 -0.5218  0.1646
 2158SOL    HW1 8916   8.067   9.996   9.602 -0.4690 -1.2426  1.1646
 2158SOL    HW2 8917   8.148  10.122   9.625 -1.7651 -0.0918 -0.3399
 2159SOL     OW 8918   9.017   2.893   0.012 -0.6721  0.0855  0.4071
 2159SOL    HW1 8919   8.997   2.978  -0.027  0.5623 -0.4030 -1.4076
 2159SOL    HW2 8920   8.971   2.830  -0.043 -0.4596 -0.5107  0.9030
 2160SOL     OW 8921   2.805   3.240   7.792 -0.1318  0.4137  0.1430
 2160SOL    HW1 8922   2.876   3.285   7.838 -1.1619  1.2487  0.9571
 2160SOL    HW2 8923   2.811   3.149   7.821  1.0183  0.3128 -0.3421
 2161SOL     OW 8924   7.689   8.715   3.716  0.2930  0.2738 -0.3332
 2161SOL    HW1 8925   7.656   8.784   3.659  0.2494  1.0455  0.5825
 2161SOL    HW2 8926   7.612   8.682   3.761  0.4034  0.1154 -0.2580
 2162SOL     OW 8927   9.355   7.703   4.691  0.1520  0.3942 -0.1081
 2162SOL    HW1 8928   9.408   7.778   4.716 -0.7121  0.8795  0.3463
 2162SOL    HW2 8929   9.393   7.671   4.609  1.7251  0.1148  0.6952
 2163SOL     OW 8930   3.341   0.448   9.319 -0.0447 -0.1919 -0.3099
 2163SOL    HW1 8931   3.359   0.538   9.345 -0.1639 -0.1063 -0.5229
 2163SOL    HW2 8932   3.406   0.396   9.367 -0.9863 -0.1558  1.0659
 2164SOL     OW 8933   6.724   3.894  10.419  0.3418  0.2792  0.8066
 2164SOL    HW1 8934   6.665   3.869  10.490 -0.6939  2.0677  0.6416
 2164SOL    HW2 8935   6.724   3.989  10.420  3.5794  0.3812  1.0376
 2165SOL     OW 8936   2.666   0.953   9.621 -0.8326 -0.0625  0.0896
 2165SOL    HW1 8937   2.694   0.995   9.702 -1.8510 -1.0453  0.9992
 2165SOL    HW2 8938   2.689   1.015   9.552 -0.5745  1.1198  1.1969
 2166SOL     OW 8939   6.020   0.160   5.648 -0.9624 -0.0080  0.3719
 2166SOL    HW1 8940   6.048   0.162   5.556 -0.1436  0.1080  0.6173
 2166SOL    HW2 8941   5.981   0.246   5.663  0.8650  0.8056  0.7166
 2167SOL     OW 8942   3.810   8.894   1.302 -0.6953  0.2400  0.3366
 2167SOL    HW1 8943   3.766   8.832   1.361 -1.7490  1.4947  0.9273
 2167SOL    HW2 8944   3.820   8.973   1.355 -2.8017  1.8456 -1.4946
 2168SOL     OW 8945   1.157   8.749   7.568  0.3052  0.1039  0.2732
 2168SOL    HW1 8946   1.074   8.735   7.521 -0.0916  0.2619  0.9210
 2168SOL    HW2 8947   1.221   8.699   7.517 -0.5096 -1.5378  0.7682
 2169SOL     OW 8948   4.681   3.451   2.106 -0.5880  0.1059 -0.5157
 2169SOL    HW1 8949   4.643   3.504   2.035 -0.9159 -0.5887 -0.8692
 2169SOL    HW2 8950   4.755   3.502   2.136 -2.3369  2.0075  0.8813
 2170SOL     OW 8951   3.224   1.581   1.162 -0.0648 -0.8122  0.0024
 2170SOL    HW1 8952   3.139   1.618   1.189  0.5151  0.3514  0.2996
 2170SOL    HW2 8953   3.259   1.645   1.099  1.3990 -0.3190  1.2538
 2171SOL     OW 8954   3.538   0.702   6.771 -0.3871  0.0310 -0.2464
 2171SOL    HW1 8955   3.485   0.726   6.696 -0.5018 -0.2287 -0.2482
 2171SOL    HW2 8956   3.614   0.760   6.766 -0.4292  0.0626 -0.5206
 2172SOL     OW 8957   9.066   0.104   7.931 -0.0429 -0.2104 -0.1155
 2172SOL    HW1 8958   9.140   0.075   7.878  0.3032  2.0641 -0.9924
 2172SOL    HW2 8959   9.078   0.061   8.015  1.0833 -1.5316 -0.9198
 2173SOL     OW 8960   5.463   1.345   1.726 -0.0163 -0.0954 -0.1275
 2173SOL    HW1 8961   5.416   1.397   1.661 -0.4472  0.1971  0.4109
 2173SOL    HW2 8962   5.432   1.255   1.711 -1.0980  0.1492  0.4951
 2174SOL     OW 8963   5.244   9.726   9.084 -0.1550 -0.3596 -0.1705
 2174SOL    HW1 8964   5.299   9.737   9.006  0.4117 -1.1101  0.1128
 2174SOL    HW2 8965   5.168   9.677   9.054 -0.9137  1.0559 -0.6576
 2175SOL     OW 8966   8.946   1.125   5.482  0.3668  0.5881 -0.8044
 2175SOL    HW1 8967   8.874   1.170   5.526  1.1844  1.3576 -0.2142
 2175SOL    HW2 8968   8.988   1.074   5.551 -0.3231 -0.8149 -1.3905
 2176SOL     OW 8969   2.807   6.790   2.471  0.1753 -0.2191 -0.0137
 2176SOL    HW1 8970   2.857   6.817   2.548  1.5076 -0.9564 -0.5797
 2176SOL    HW2 8971   2.842   6.704   2.449 -0.1479 -0.0092 -1.4662
 2177SOL     OW 8972   2.757  10.077   2.520 -1.1297  0.4736  0.2024
 2177SOL    HW1 8973   2.815  10.086   2.444 -2.4424  1.3453 -0.7409
 2177SOL    HW2 8974   2.671  10.058   2.482 -1.2586 -2.2132  1.6062
 2178SOL     OW 8975   6.228   9.978   4.032 -0.0312 -0.1167 -0.1976
 2178SOL    HW1 8976   6.185   9.893   4.039  1.5827 -0.8987  0.8844
 2178SOL    HW2 8977   6.223  10.014   4.121 -1.0169  1.1109 -0.7246
 2179SOL     OW 8978   7.745   4.344   7.616 -0.0822  0.0647 -0.0692
 2179SOL    HW1 8979   7.712   4.306   7.535 -1.1716 -0.0117  0.3996
 2179SOL    HW2 8980   7.730   4.438   7.606 -0.1031  0.0686 -0.0011
 2180SOL     OW 8981   2.384   3.499   3.758  0.4828  0.4476  0.3562
 2180SOL    HW1 8982   2.342   3.419   3.789  1.3871  0.3501  1.4063
 2180SOL    HW2 8983   2.476   3.490   3.785  0.9179  1.1987 -0.7708
 2181SOL     OW 8984   3.779   3.842   1.148  0.2370  0.2702  0.0935
 2181SOL    HW1 8985   3.873   3.855   1.141  0.0262  0.8842 -3.1878
 2181SOL    HW2 8986   3.768   3.746   1.147  0.8046  0.2043 -0.6941
 2182SOL     OW 8987   6.221   8.117   5.171 -0.1716 -0.2564 -0.2466
 2182SOL    HW1 8988   6.143   8.121   5.116 -0.5127 -2.2386  0.0245
 2182SOL    HW2 8989   6.188   8.121   5.261 -0.2872 -3.2685 -0.0322
 2183SOL     OW 8990   5.218   6.217   9.642  0.4793  0.1633 -0.2485
 2183SOL    HW1 8991   5.187   6.158   9.711 -0.2859  1.4966  0.5998
 2183SOL    HW2 8992   5.305   6.184   9.619  0.5960 -0.5324  1.0892
 2184SOL     OW 8993   6.782   8.918   9.034  0.7122 -0.4671 -0.4126
 2184SOL    HW1 8994   6.750   8.913   8.944  0.4700 -2.1045 -0.2663
 2184SOL    HW2 8995   6.746   8.840   9.077  1.2271  0.0208  0.9750
 2185SOL     OW 8996   9.867   1.306   4.462  0.6490  0.1624 -0.1133
 2185SOL    HW1 8997   9.949   1.261   4.442 -0.3243 -1.3275 -0.9634
 2185SOL    HW2 8998   9.860   1.374   4.394 -0.6318 -2.2153 -2.5828
 2186SOL     OW 8999   0.100   5.432   2.314 -0.1599 -0.1919  0.1251
 2186SOL    HW1 9000   0.036   5.361   2.318 -0.6245  0.2397  0.5612
 2186SOL    HW2 9001   0.048   5.512   2.325  0.4471  0.1669  0.4496
 2187SOL     OW 9002   3.537   6.256   3.359  0.0654 -0.0682 -0.4121
 2187SOL    HW1 9003   3.463   6.316   3.347 -0.3608 -0.3590  0.6470
 2187SOL    HW2 9004   3.507   6.173   3.321 -0.4813 -0.4100  0.7227
 2188SOL     OW 9005   3.966   3.886   6.885 -0.0592  0.5146  0.5037
 2188SOL    HW1 9006   3.959   3.862   6.792  0.3637  0.0083  0.5982
 2188SOL    HW2 9007   4.055   3.859   6.910 -1.1149 -2.1016  1.8147
 2189SOL     OW 9008   2.354   8.238   3.083  0.0828 -0.0470 -0.1988
 2189SOL    HW1 9009   2.314   8.270   3.002 -0.0371 -1.8785 -0.9278
 2189SOL    HW2 9010   2.293   8.262   3.152 -0.0470  1.1235 -0.6957
 2190SOL     OW 9011   4.299   6.835   1.683  0.3889 -0.0484 -0.2175
 2190SOL    HW1 9012   4.225   6.894   1.675  0.8002  0.5793  0.5055
 2190SOL    HW2 9013   4.260   6.751   1.709 -0.1592 -0.0150 -0.9146
 2191SOL     OW 9014   1.049   7.109   5.449 -0.0405  0.4854 -0.2537
 2191SOL    HW1 9015   1.033   7.037   5.510  0.7293 -0.2420 -0.8902
 2191SOL    HW2 9016   1.024   7.187   5.498  1.7851  0.0626  1.5095
 2192SOL     OW 9017   2.073  10.180   2.607 -0.4957 -0.7395 -0.0317
 2192SOL    HW1 9018   2.152  10.187   2.553 -0.3170 -1.4532  0.1174
 2192SOL    HW2 9019   2.095  10.227   2.688 -1.3261  1.7086 -1.1475
 2193SOL     OW 9020   3.349   3.192   4.255 -0.0971 -0.1399 -0.0041
 2193SOL    HW1 9021   3.361   3.143   4.337 -2.3695 -2.8577 -1.1326
 2193SOL    HW2 9022   3.438   3.203   4.221  0.6824 -1.3946  1.4949
 2194SOL     OW 9023   1.867   8.233   7.585  0.7559  0.0040  0.5120
 2194SOL    HW1 9024   1.916   8.184   7.519 -1.2810 -0.4382 -0.7794
 2194SOL    HW2 9025   1.814   8.167   7.630 -0.1101  0.6811  0.5164
 2195SOL     OW 9026  10.394   9.934   8.469 -0.0678 -0.4613  0.1412
 2195SOL    HW1 9027  10.445   9.907   8.545 -1.1787 -0.0442  1.0772
 2195SOL    HW2 9028  10.317   9.977   8.507 -0.4340  0.1344 -1.2355
 2196SOL     OW 9029  10.302   2.913   7.769  0.1106 -0.3650  0.8846
 2196SOL    HW1 9030  10.214   2.875   7.771 -0.1725  0.2800  0.8498
 2196SOL    HW2 9031  10.326   2.922   7.861 -0.4462  0.7856  0.9300
 2197SOL     OW 9032  10.024   0.690   1.426 -0.5326  0.6638  0.4187
 2197SOL    HW1 9033  10.028   0.640   1.507  0.0675 -0.4335 -0.2630
 2197SOL    HW2 9034   9.967   0.639   1.369  0.4626  0.4694 -0.4481
 2198SOL     OW 9035   2.106   7.917  10.351  0.8821 -0.0309 -0.0039
 2198SOL    HW1 9036   2.082   7.899  10.441  0.0726  0.0648 -0.1968
 2198SOL    HW2 9037   2.062   7.999  10.329 -0.5561 -1.0351 -1.0894
 2199SOL     OW 9038   9.351   9.428   0.420  0.2301 -1.1078  0.0744
 2199SOL    HW1 9039   9.320   9.508   0.377  1.4559 -0.8515 -0.3719
 2199SOL    HW2 9040   9.356   9.364   0.350 -0.9367 -1.6716  0.4644
 2200SOL     OW 9041   7.842   1.201   3.874  0.0664  0.2464  0.3124
 2200SOL    HW1 9042   7.865   1.271   3.813  0.3734  0.5424  0.7630
 2200SOL    HW2 9043   7.750   1.216   3.895 -1.0807 -1.7435 -2.5747
 2201SOL     OW 9044   0.455   0.753   7.974  0.6687 -0.0150 -0.5689
 2201SOL    HW1 9045   0.446   0.741   8.069  1.5617  1.9292 -0.1950
 2201SOL    HW2 9046   0.545   0.726   7.955  0.8502  0.6232 -0.6519
 2202SOL     OW 9047   8.060   3.169   6.552 -0.1845 -0.2913  0.5225
 2202SOL    HW1 9048   8.147   3.149   6.517 -0.6623 -2.3253  0.3729
 2202SOL    HW2 9049   8.061   3.264   6.564  1.4717 -0.0451 -1.0286
 2203SOL     OW 9050   2.689   7.173   0.477  0.9410  0.0021  0.1359
 2203SOL    HW1 9051   2.623   7.200   0.413  0.3893  1.3947  1.2248
 2203SOL    HW2 9052   2.752   7.245   0.478  0.5255  0.3859  1.6755
 2204SOL     OW 9053   7.395   9.564   8.363  0.4031  0.3078  0.3212
 2204SOL    HW1 9054   7.454   9.554   8.437 -0.2715  1.4672  1.0444
 2204SOL    HW2 9055   7.393   9.658   8.346 -1.0424  0.2813  0.1810
 2205SOL     OW 9056   1.546   7.261   4.635  0.9205 -0.1879  0.4450
 2205SOL    HW1 9057   1.497   7.237   4.713  0.9641 -0.3494  0.4227
 2205SOL    HW2 9058   1.484   7.251   4.563  1.2225 -1.2253  0.3126
 2206SOL     OW 9059   4.007   6.914   0.386  0.6408  0.3738 -0.9787
 2206SOL    HW1 9060   4.085   6.902   0.331  2.1918  2.0588  0.7272
 2206SOL    HW2 9061   4.037   6.967   0.460 -1.4749 -1.3451  1.2647
 2207SOL     OW 9062   8.140   1.114   6.345 -0.0854  0.0523 -0.0851
 2207SOL    HW1 9063   8.115   1.066   6.266 -0.6484 -1.5940  1.0383
 2207SOL    HW2 9064   8.228   1.148   6.326 -0.4254  0.1298 -1.5917
 2208SOL     OW 9065   3.357   4.072   5.338 -0.0636  0.1728  0.8388
 2208SOL    HW1 9066   3.343   3.979   5.321  1.2246  0.1649 -0.2922
 2208SOL    HW2 9067   3.356   4.079   5.434 -3.2323 -0.4707  0.9414
 2209SOL     OW 9068   3.926   8.066   5.966 -0.1289  0.0530 -0.7793
 2209SOL    HW1 9069   3.988   8.000   5.995 -1.3589 -1.4754 -1.5060
 2209SOL    HW2 9070   3.882   8.094   6.047  0.6790  0.3160 -0.4195
 2210SOL     OW 9071  10.416   3.149   1.037  0.3419 -0.1458  0.4941
 2210SOL    HW1 9072  10.344   3.206   1.061  0.4680  0.3828 -0.3580
 2210SOL    HW2 9073  10.390   3.110   0.954  1.3330  0.5955 -0.1872
 2211SOL     OW 9074   0.754   5.327   0.322 -0.4537 -0.7138 -0.3758
 2211SOL    HW1 9075   0.718   5.253   0.273 -0.4368 -1.1665  0.2830
 2211SOL    HW2 9076   0.689   5.396   0.313 -0.3613 -0.7243 -1.1927
 2212SOL     OW 9077   1.622   5.213   3.362 -0.4281 -0.0518  0.3428
 2212SOL    HW1 9078   1.630   5.139   3.302 -1.6238 -0.8823  1.1434
 2212SOL    HW2 9079   1.610   5.172   3.448 -1.3131  1.0738  0.7770
 2213SOL     OW 9080   3.901   5.747   6.803 -0.7949  0.3054  0.7188
 2213SOL    HW1 9081   3.947   5.740   6.886 -1.1664 -0.4613  0.8750
 2213SOL    HW2 9082   3.884   5.656   6.777 -2.0858  0.5452  0.6136
 2214SOL     OW 9083   3.573   2.986   8.087  0.2259  0.6645  0.9543
 2214SOL    HW1 9084   3.640   3.050   8.065  0.6297 -0.0082  0.1842
 2214SOL    HW2 9085   3.493   3.021   8.047  0.4010  0.7834  0.7084
 2215SOL     OW 9086   8.324   5.785   5.682  0.6799  0.0640 -0.7841
 2215SOL    HW1 9087   8.322   5.743   5.596  0.6074  1.8618 -1.7032
 2215SOL    HW2 9088   8.304   5.715   5.743 -1.3108 -0.8785 -2.3936
 2216SOL     OW 9089   4.477   8.855   8.734 -0.3568  0.9984 -0.1595
 2216SOL    HW1 9090   4.383   8.845   8.722 -0.4484  1.4887  0.1216
 2216SOL    HW2 9091   4.509   8.883   8.648 -0.5141  1.1481 -0.1686
 2217SOL     OW 9092   1.107   1.194   0.191  0.2617 -0.2048 -0.1735
 2217SOL    HW1 9093   1.019   1.202   0.154  0.8503 -0.4287 -1.6953
 2217SOL    HW2 9094   1.102   1.238   0.276 -0.7736  1.7316 -1.1750
 2218SOL     OW 9095   8.132   1.937   5.985 -0.0528 -0.4366  0.5076
 2218SOL    HW1 9096   8.052   1.906   5.943 -0.1468  0.3379  0.1146
 2218SOL    HW2 9097   8.102   1.998   6.053  0.2108  0.0298  0.2079
 2219SOL     OW 9098   4.824   2.279   3.649  0.0108 -0.3075 -0.0679
 2219SOL    HW1 9099   4.844   2.328   3.569 -1.8223  1.7371  0.6045
 2219SOL    HW2 9100   4.729   2.266   3.645  0.1158 -1.5956  1.0271
 2220SOL     OW 9101   0.571   2.429   6.558  0.0115  0.2741 -0.9762
 2220SOL    HW1 9102   0.539   2.344   6.529 -3.4462  0.8745  0.5959
 2220SOL    HW2 9103   0.642   2.451   6.497  1.6144 -4.0101 -0.9420
 2221SOL     OW 9104   6.640   8.421   3.449  0.4173  0.4587 -0.1335
 2221SOL    HW1 9105   6.561   8.461   3.413  0.5914  1.4328  0.5043
 2221SOL    HW2 9106   6.695   8.403   3.373  1.0789  3.1293 -0.4175
 2222SOL     OW 9107   9.417   3.838   1.215  0.0589  0.1245 -0.7088
 2222SOL    HW1 9108   9.496   3.888   1.237  0.8211 -0.8953 -1.0462
 2222SOL    HW2 9109   9.445   3.781   1.143 -0.8412 -0.6591 -0.4442
 2223SOL     OW 9110   6.158   7.583   6.539 -0.1631 -0.0851 -0.2712
 2223SOL    HW1 9111   6.106   7.536   6.604 -0.9895 -1.8712 -2.1185
 2223SOL    HW2 9112   6.169   7.671   6.576 -1.8367 -0.5950  1.5991
 2224SOL     OW 9113   5.811   4.509   0.308  0.6538 -0.4836 -0.2283
 2224SOL    HW1 9114   5.829   4.431   0.361 -1.0645 -1.5074 -1.0544
 2224SOL    HW2 9115   5.760   4.565   0.366 -0.6717 -1.3208 -0.5408
 2225SOL     OW 9116   5.311   9.772   3.546  0.1785 -0.1621 -0.1583
 2225SOL    HW1 9117   5.397   9.747   3.512  0.4770  0.3667  0.1966
 2225SOL    HW2 9118   5.328   9.802   3.635 -0.5944 -1.4891  0.4600
 2226SOL     OW 9119   9.528   5.633   2.505 -0.0220 -0.3623 -0.3214
 2226SOL    HW1 9120   9.535   5.724   2.534  2.6713 -0.6908  0.3251
 2226SOL    HW2 9121   9.557   5.634   2.414 -1.3881 -0.4148 -0.7851
 2227SOL     OW 9122   6.945   9.125   5.550 -0.5664 -0.6526 -0.4455
 2227SOL    HW1 9123   6.931   9.033   5.528  1.3622 -1.7096  2.1729
 2227SOL    HW2 9124   7.038   9.140   5.530 -1.0112  0.9693 -1.4576
 2228SOL     OW 9125   2.172   3.034   1.577  0.1303  0.1816  0.2875
 2228SOL    HW1 9126   2.265   3.044   1.554 -0.0842  0.7560 -0.3534
 2228SOL    HW2 9127   2.129   3.108   1.534 -0.4305  0.7300  1.7551
 2229SOL     OW 9128   3.441  10.069   6.734  0.5237  0.1804  0.1607
 2229SOL    HW1 9129   3.457  10.045   6.826 -0.2101 -1.5521 -0.1291
 2229SOL    HW2 9130   3.351  10.101   6.733  0.3558 -0.2848 -0.0258
 2230SOL     OW 9131   0.998   2.107   4.319 -0.3906 -0.2340 -0.4129
 2230SOL    HW1 9132   1.029   2.019   4.298 -1.2919 -0.3264 -1.4350
 2230SOL    HW2 9133   0.955   2.138   4.239 -1.7863  0.3633  0.5219
 2231SOL     OW 9134   8.530   4.455  10.127  0.3652  0.2672  0.0094
 2231SOL    HW1 9135   8.563   4.387  10.068  0.1943 -1.0386  1.3431
 2231SOL    HW2 9136   8.515   4.409  10.210  1.6805  2.2295  1.4288
 2232SOL     OW 9137   9.228   5.653  10.007  0.5625 -0.4135  0.2026
 2232SOL    HW1 9138   9.232   5.560  10.028  0.0291 -0.4397  0.1840
 2232SOL    HW2 9139   9.183   5.657   9.922 -2.2933  0.0558  1.6323
 2233SOL     OW 9140   1.276   4.821  10.442 -0.2468  0.5461 -0.0863
 2233SOL    HW1 9141   1.322   4.839  10.360 -2.6503  2.2004 -1.1638
 2233SOL    HW2 9142   1.255   4.907  10.478 -2.0100 -0.1201  0.6003
 2234SOL     OW 9143   4.542   6.601   0.051  0.2106  0.7496 -0.4077
 2234SOL    HW1 9144   4.477   6.546   0.006  1.4790 -0.9257 -0.2954
 2234SOL    HW2 9145   4.506   6.689   0.047 -1.7700 -0.0314 -0.8945
 2235SOL     OW 9146   8.127   9.333   0.864 -0.6129  0.2489 -0.2062
 2235SOL    HW1 9147   8.072   9.363   0.792  0.0389  0.8518 -0.4608
 2235SOL    HW2 9148   8.160   9.413   0.905 -0.2108 -0.0999  0.1658
 2236SOL     OW 9149   5.242   9.637   4.725 -0.2945 -0.0284 -0.2586
 2236SOL    HW1 9150   5.290   9.626   4.807  2.6712  0.3752 -1.8033
 2236SOL    HW2 9151   5.247   9.551   4.683  1.8405  0.7377 -1.7442
 2237SOL     OW 9152   6.843   2.073   6.378  0.5579  0.4330  0.2711
 2237SOL    HW1 9153   6.804   2.160   6.368 -0.9357 -0.3707 -1.4662
 2237SOL    HW2 9154   6.775   2.021   6.421  1.4438  0.1056  1.3087
 2238SOL     OW 9155   6.480   4.961   8.022  0.2338 -0.0124  1.0932
 2238SOL    HW1 9156   6.443   4.962   8.110 -1.6584  1.4060  0.3652
 2238SOL    HW2 9157   6.574   4.950   8.035  0.2036  1.6879  3.3906
 2239SOL     OW 9158   4.354   3.242   9.212 -0.2977  0.2575 -0.1099
 2239SOL    HW1 9159   4.426   3.214   9.269 -0.6686  1.5183  1.0320
 2239SOL    HW2 9160   4.320   3.322   9.253 -1.7826  0.1848 -1.1040
 2240SOL     OW 9161   8.987   9.104   5.407  0.1035  0.6223 -0.3740
 2240SOL    HW1 9162   8.971   9.194   5.437  1.4532  0.7480  0.0028
 2240SOL    HW2 9163   9.000   9.112   5.312 -1.9822  0.5056 -0.7232
 2241SOL     OW 9164   4.872   2.516   9.086  0.4471  0.4551  0.1781
 2241SOL    HW1 9165   4.806   2.461   9.044  1.7825  0.7217 -2.4574
 2241SOL    HW2 9166   4.925   2.455   9.138  0.4834 -0.3937 -0.8277
 2242SOL     OW 9167   0.518   8.918   7.703 -0.1051 -0.1363  0.0991
 2242SOL    HW1 9168   0.610   8.893   7.696  0.5049  1.4710  1.6923
 2242SOL    HW2 9169   0.472   8.837   7.722  1.0688 -0.8453 -0.0044
 2243SOL     OW 9170   1.618   4.009   9.490  0.2244 -0.3102  0.9391
 2243SOL    HW1 9171   1.660   4.057   9.419 -0.4540  1.0153  1.4142
 2243SOL    HW2 9172   1.689   3.959   9.531  0.7321 -0.5855 -0.2439
 2244SOL     OW 9173   3.702   6.903   1.299  0.5615 -1.1203 -0.7353
 2244SOL    HW1 9174   3.701   6.885   1.205  1.9338 -0.9402 -0.7917
 2244SOL    HW2 9175   3.780   6.859   1.332  2.4113  2.0811 -0.3889
 2245SOL     OW 9176   1.566  10.153   9.689  0.7966  0.4302 -0.3909
 2245SOL    HW1 9177   1.529  10.121   9.771  0.8030 -0.9751 -0.9160
 2245SOL    HW2 9178   1.494  10.199   9.646  0.9664  1.7402  0.6721
 2246SOL     OW 9179   8.465   3.939   5.728 -0.6562 -0.6285  0.2889
 2246SOL    HW1 9180   8.484   3.845   5.728 -0.4061 -0.6276 -1.7950
 2246SOL    HW2 9181   8.536   3.978   5.678  0.4683  1.0135  2.9892
 2247SOL     OW 9182   6.256  10.361   7.973 -0.0739 -0.4432  0.4001
 2247SOL    HW1 9183   6.334  10.337   7.924 -0.3397  1.6445 -1.1523
 2247SOL    HW2 9184   6.189  10.299   7.942  0.2546 -0.4131 -0.3950
 2248SOL     OW 9185   2.037   6.789   3.645 -0.3074 -0.3818 -0.2181
 2248SOL    HW1 9186   2.075   6.763   3.561  0.8737  0.1640  0.1214
 2248SOL    HW2 9187   2.097   6.856   3.679 -2.1062  1.2494 -0.0853
 2249SOL     OW 9188  10.444  10.463   3.483 -1.0182 -0.2609 -0.0967
 2249SOL    HW1 9189  10.366  10.408   3.475 -1.9337  0.9599  0.1000
 2249SOL    HW2 9190  10.503  10.413   3.540 -2.4609 -0.3872  1.3679
 2250SOL     OW 9191   4.914   3.320   3.966  0.0332  0.1507  0.4040
 2250SOL    HW1 9192   4.873   3.245   3.923 -1.2128  0.0980  1.6157
 2250SOL    HW2 9193   4.899   3.305   4.059  2.2479  0.4809  0.8781
 2251SOL     OW 9194   5.286   2.324   6.530 -0.0541  0.3348 -0.3825
 2251SOL    HW1 9195   5.222   2.369   6.584 -0.3620  0.0658 -0.5154
 2251SOL    HW2 9196   5.370   2.335   6.576 -0.3575 -0.1341  0.2972
 2252SOL     OW 9197   4.478   1.702   7.714  0.9636  0.3307  0.4093
 2252SOL    HW1 9198   4.527   1.650   7.651  1.3043  1.1875 -0.0452
 2252SOL    HW2 9199   4.413   1.749   7.662  0.1756 -0.1793  0.9060
 2253SOL     OW 9200   0.564   0.610   1.143  0.7307  0.6399 -0.0346
 2253SOL    HW1 9201   0.546   0.637   1.233  1.9961  0.4179  0.3024
 2253SOL    HW2 9202   0.483   0.567   1.114 -0.2910  2.2314  0.3826
 2254SOL     OW 9203   8.416   6.110   2.261  0.1468  0.8985 -0.1947
 2254SOL    HW1 9204   8.471   6.073   2.191 -0.3226 -0.4700  0.1227
 2254SOL    HW2 9205   8.478   6.130   2.331  0.2305 -1.0952  0.3504
 2255SOL     OW 9206   1.542   7.224   0.072  0.3852 -0.2395 -0.3532
 2255SOL    HW1 9207   1.591   7.175   0.006 -0.2398 -0.3189 -0.7694
 2255SOL    HW2 9208   1.587   7.206   0.154  0.9253 -0.4760 -0.6989
 2256SOL     OW 9209   7.351   5.268   2.083  0.1087 -0.7249  0.1839
 2256SOL    HW1 9210   7.337   5.346   2.029 -0.0008  0.0630  1.3125
 2256SOL    HW2 9211   7.318   5.195   2.030 -1.8022  0.2563 -0.0387
 2257SOL     OW 9212   5.491   7.284   0.901 -0.3547  0.0514  0.6724
 2257SOL    HW1 9213   5.399   7.279   0.874  0.2722  0.9737 -1.9461
 2257SOL    HW2 9214   5.516   7.193   0.916 -0.4896 -0.8265 -3.3811
 2258SOL     OW 9215   8.548   7.916   9.199 -0.2379 -0.2820  0.0426
 2258SOL    HW1 9216   8.610   7.887   9.266 -0.3629  0.8448  0.6764
 2258SOL    HW2 9217   8.472   7.947   9.248 -0.7722 -0.4263 -0.6710
 2259SOL     OW 9218   6.683   4.920   3.384  0.3879 -0.8943  0.0965
 2259SOL    HW1 9219   6.726   4.870   3.314  3.2362  0.2908  0.8769
 2259SOL    HW2 9220   6.676   4.858   3.457  0.4685 -1.1869 -0.1412
 2260SOL     OW 9221   7.927   1.360   7.582 -0.1030 -0.1765  0.0766
 2260SOL    HW1 9222   7.855   1.411   7.545  0.4201  0.5534  0.0319
 2260SOL    HW2 9223   7.902   1.269   7.569 -0.7542  0.0718 -0.4482
 2261SOL     OW 9224   1.906   8.385   2.846 -0.2780  0.1601  0.2944
 2261SOL    HW1 9225   1.829   8.399   2.791  0.6030 -0.3115 -1.1014
 2261SOL    HW2 9226   1.872   8.390   2.935 -2.4269 -2.5481 -0.2298
 2262SOL     OW 9227   2.763   9.129   1.536 -0.2714  0.5264 -0.0630
 2262SOL    HW1 9228   2.676   9.109   1.571 -0.7100  0.9536 -0.8894
 2262SOL    HW2 9229   2.765   9.087   1.450 -0.1449  1.5952 -0.5960
 2263SOL     OW 9230   1.152   8.771   2.775  0.7810  0.0293  0.5385
 2263SOL    HW1 9231   1.209   8.844   2.750  0.6752 -0.9464 -3.1248
 2263SOL    HW2 9232   1.065   8.810   2.780  1.0043  0.5227  0.6514
 2264SOL     OW 9233   3.337   0.282   3.537  0.2079  0.0134 -0.4501
 2264SOL    HW1 9234   3.416   0.308   3.583 -1.2064  0.1291  2.1094
 2264SOL    HW2 9235   3.321   0.352   3.474  2.2575 -0.1565 -1.2044
 2265SOL     OW 9236  10.246   1.590   5.814  0.6754 -0.4795  0.0628
 2265SOL    HW1 9237  10.200   1.568   5.894 -0.1133  0.9087  0.0269
 2265SOL    HW2 9238  10.226   1.683   5.800 -0.2912 -0.9941 -2.4422
 2266SOL     OW 9239   4.081   5.131   9.392 -0.1038  0.0716 -0.0942
 2266SOL    HW1 9240   4.022   5.086   9.453 -0.1328 -1.1953 -1.0181
 2266SOL    HW2 9241   4.104   5.212   9.436 -0.7440 -0.4601  1.2583
 2267SOL     OW 9242   1.519   6.960   1.040 -0.1011 -0.8613  0.4846
 2267SOL    HW1 9243   1.455   7.031   1.036  0.5245 -0.1913  1.7211
 2267SOL    HW2 9244   1.478   6.894   1.096 -0.4298 -1.2229 -0.1703
 2268SOL     OW 9245   8.008   4.336   1.019 -0.3507 -0.1212 -0.4459
 2268SOL    HW1 9246   8.019   4.241   1.021  1.0562 -0.0465 -2.3857
 2268SOL    HW2 9247   8.097   4.371   1.024 -0.7851  1.0756 -0.6120
 2269SOL     OW 9248   3.369   0.834   7.653 -0.0898  0.0242 -0.1534
 2269SOL    HW1 9249   3.350   0.742   7.637  0.9660  0.0616 -1.8067
 2269SOL    HW2 9250   3.358   0.844   7.748 -1.1272 -1.5689 -0.0674
 2270SOL     OW 9251   0.624   0.625   9.925  0.8891  0.3279  0.7797
 2270SOL    HW1 9252   0.715   0.653   9.934  1.8472 -2.2381 -0.0297
 2270SOL    HW2 9253   0.614   0.557   9.992  0.3846 -1.1862 -0.7887
 2271SOL     OW 9254   1.607   5.125   3.634 -0.2764  0.1805 -0.0944
 2271SOL    HW1 9255   1.676   5.060   3.649 -1.0854 -0.6092  0.3461
 2271SOL    HW2 9256   1.617   5.188   3.706  0.0007  0.0865 -0.0499
 2272SOL     OW 9257   5.437   1.832   1.607  0.7080 -0.3326  0.2279
 2272SOL    HW1 9258   5.388   1.765   1.559  2.3628 -1.5457  0.1516
 2272SOL    HW2 9259   5.379   1.857   1.679 -1.1365  0.3284 -1.4231
 2273SOL     OW 9260   3.372   3.848   0.007  0.9721 -0.0311  0.1038
 2273SOL    HW1 9261   3.309   3.868   0.076  1.0708  0.1533  0.1392
 2273SOL    HW2 9262   3.322   3.795  -0.056  0.9087 -0.2743  0.3605
 2274SOL     OW 9263   7.543   0.169   8.254  0.7172 -0.8101  0.1946
 2274SOL    HW1 9264   7.632   0.205   8.262  0.9452 -0.2319 -3.4584
 2274SOL    HW2 9265   7.489   0.242   8.226 -0.2725 -1.7962 -0.5923
 2275SOL     OW 9266   4.899   3.869   5.339  0.3568 -0.7849 -0.2562
 2275SOL    HW1 9267   4.857   3.954   5.352  1.6730 -0.2989  1.0655
 2275SOL    HW2 9268   4.831   3.806   5.361 -0.5303 -0.0879 -0.9016
 2276SOL     OW 9269   4.970   1.850   7.244 -0.5493  0.4882 -0.5627
 2276SOL    HW1 9270   5.011   1.788   7.184  0.4322  0.6549 -0.0893
 2276SOL    HW2 9271   4.900   1.801   7.285  1.0090 -0.7484  0.7518
 2277SOL     OW 9272   5.085   6.688   1.909 -0.0156 -0.4018 -0.2645
 2277SOL    HW1 9273   5.078   6.594   1.925  0.5340 -0.6327 -1.3051
 2277SOL    HW2 9274   5.097   6.726   1.996 -0.4899 -1.2639  0.1918
 2278SOL     OW 9275   8.523   1.364   0.369 -1.0555 -0.5245 -1.0639
 2278SOL    HW1 9276   8.609   1.397   0.343 -1.6769  1.9353 -0.3309
 2278SOL    HW2 9277   8.537   1.272   0.389  1.2923 -0.3180 -1.4748
 2279SOL     OW 9278   1.115   3.816   3.555 -0.2819  0.3790 -0.2618
 2279SOL    HW1 9279   1.093   3.836   3.646 -0.7900  0.2515 -0.3530
 2279SOL    HW2 9280   1.043   3.762   3.524 -0.2855  0.7020 -0.8427
 2280SOL     OW 9281   3.971   2.134   5.259  0.0887  0.2134 -0.1293
 2280SOL    HW1 9282   4.056   2.091   5.246 -0.4018 -0.6723 -0.5422
 2280SOL    HW2 9283   3.912   2.062   5.285 -0.3847  0.9191  0.8013
 2281SOL     OW 9284   0.940   2.207  10.148  0.0491 -0.0693 -0.1407
 2281SOL    HW1 9285   0.982   2.277  10.099  0.7888 -0.6075 -0.2860
 2281SOL    HW2 9286   1.012   2.160  10.190 -0.2293 -2.0311 -1.7198
 2282SOL     OW 9287   2.129  10.310   6.713 -0.0989 -0.3045  0.0377
 2282SOL    HW1 9288   2.161  10.400   6.700 -1.8189  0.6891  2.0327
 2282SOL    HW2 9289   2.119  10.275   6.624 -1.3775  2.2427 -0.9180
 2283SOL     OW 9290  10.112   5.837   5.297  0.2334  0.1574 -0.0059
 2283SOL    HW1 9291  10.180   5.837   5.230  1.2839 -1.3334  0.9787
 2283SOL    HW2 9292  10.161   5.835   5.380 -1.0135  0.4543  0.7601
 2284SOL     OW 9293  10.392   6.700   9.024 -0.0804 -0.6653  0.2451
 2284SOL    HW1 9294  10.409   6.612   9.058  2.8302 -0.2307  0.2215
 2284SOL    HW2 9295  10.398   6.757   9.101  0.4044 -0.2863 -0.0641
 2285SOL     OW 9296   8.851   5.589   8.955 -0.6219  0.1350 -0.0154
 2285SOL    HW1 9297   8.767   5.612   8.996 -0.9976 -0.9021 -0.1863
 2285SOL    HW2 9298   8.887   5.673   8.927 -1.4676  0.6267  0.3191
 2286SOL     OW 9299  10.416   7.755   1.962  0.1536 -0.5773 -0.4790
 2286SOL    HW1 9300  10.458   7.669   1.970 -0.1312 -0.9693 -2.5885
 2286SOL    HW2 9301  10.382   7.773   2.050  1.9676 -1.6778  0.5153
 2287SOL     OW 9302   5.718   1.872   5.186  0.1251 -0.1054 -0.5324
 2287SOL    HW1 9303   5.636   1.909   5.155  1.0827  1.7711 -1.0025
 2287SOL    HW2 9304   5.706   1.864   5.281 -0.3989  0.7832 -0.5060
 2288SOL     OW 9305   2.615   9.163   6.692  0.2713  0.2456 -0.5270
 2288SOL    HW1 9306   2.633   9.182   6.600 -1.3514  2.5768 -0.4652
 2288SOL    HW2 9307   2.692   9.193   6.739  0.9234 -0.5493 -1.0528
 2289SOL     OW 9308   1.712   4.247   0.719  0.0047 -0.4644 -0.2179
 2289SOL    HW1 9309   1.763   4.285   0.647 -2.1303  1.1979 -0.9828
 2289SOL    HW2 9310   1.633   4.301   0.723 -0.5486 -1.3119  2.5677
 2290SOL     OW 9311   5.207   4.803  10.123 -0.4328  0.1098  0.1022
 2290SOL    HW1 9312   5.273   4.836  10.183  1.8620 -1.8273 -1.1778
 2290SOL    HW2 9313   5.203   4.709  10.142 -0.1904 -0.4183 -2.1937
 2291SOL     OW 9314   7.486   6.669   2.062 -0.1717 -0.3450  0.2521
 2291SOL    HW1 9315   7.491   6.584   2.107 -0.1189 -1.4197 -1.7074
 2291SOL    HW2 9316   7.565   6.715   2.090  0.8462 -1.7484 -0.2175
 2292SOL     OW 9317   3.508   0.771   4.323  0.1336 -0.5874 -0.2827
 2292SOL    HW1 9318   3.509   0.750   4.416  0.8831 -3.2801 -0.8109
 2292SOL    HW2 9319   3.552   0.856   4.317 -3.8051  1.9712  2.1534
 2293SOL     OW 9320   8.188   4.125   8.372  0.2218  0.1441 -0.0587
 2293SOL    HW1 9321   8.113   4.139   8.429  1.3649  2.7840  0.9726
 2293SOL    HW2 9322   8.246   4.068   8.423  0.7212  1.5467  1.0186
 2294SOL     OW 9323   9.529   0.280   4.074  0.1029  0.1381  0.1696
 2294SOL    HW1 9324   9.470   0.256   4.146 -1.5481 -0.7024 -1.3968
 2294SOL    HW2 9325   9.520   0.375   4.066 -2.2693 -0.1221 -0.9995
 2295SOL     OW 9326  10.196   6.144   5.491  0.2467  0.5998  0.7862
 2295SOL    HW1 9327  10.262   6.076   5.494  0.1878  0.5604  1.7849
 2295SOL    HW2 9328  10.226   6.205   5.424  0.3113 -0.3837 -0.0914
 2296SOL     OW 9329   4.560  10.058   2.094  0.3099 -0.2354 -0.1038
 2296SOL    HW1 9330   4.646  10.095   2.074  0.1070  0.2244 -0.1449
 2296SOL    HW2 9331   4.498  10.120   2.055 -0.1671  1.3977  2.9781
 2297SOL     OW 9332   2.764   6.678   7.121 -0.3958 -0.0247 -0.1317
 2297SOL    HW1 9333   2.818   6.754   7.099  1.2010 -1.2832 -0.6894
 2297SOL    HW2 9334   2.782   6.615   7.052 -1.5512 -1.0034  0.4297
 2298SOL     OW 9335   2.559   5.282   8.613 -0.3404 -0.0303 -0.2160
 2298SOL    HW1 9336   2.519   5.315   8.533 -0.6805 -0.8678 -0.4042
 2298SOL    HW2 9337   2.488   5.279   8.677  0.0251  1.0628  0.2629
 2299SOL     OW 9338   4.714  10.446   1.300  0.2550  0.0188 -0.0793
 2299SOL    HW1 9339   4.679  10.489   1.378  0.2100  3.4367 -1.7729
 2299SOL    HW2 9340   4.807  10.470   1.298  0.6017 -1.2538 -0.3520
 2300SOL     OW 9341   7.466   1.244   3.028  0.2327  0.0816  0.2338
 2300SOL    HW1 9342   7.545   1.204   2.992 -0.2237  0.0807 -0.8183
 2300SOL    HW2 9343   7.440   1.309   2.963  0.4208  1.4568  1.4629
 2301SOL     OW 9344   2.367   2.503   0.210  0.3924 -0.5227 -0.4647
 2301SOL    HW1 9345   2.384   2.440   0.139  1.4771 -1.5936  0.6948
 2301SOL    HW2 9346   2.419   2.580   0.187  2.0477 -1.4792 -0.0314
 2302SOL     OW 9347   9.668   5.449   6.872  0.2720  0.0891 -0.3333
 2302SOL    HW1 9348   9.703   5.413   6.790 -0.0888  0.6622 -0.7447
 2302SOL    HW2 9349   9.623   5.375   6.914  0.3818 -0.1842 -0.6941
 2303SOL     OW 9350   8.157   7.844   0.568 -0.3741 -0.2562 -0.1985
 2303SOL    HW1 9351   8.166   7.751   0.549  0.7945 -0.1246 -0.3927
 2303SOL    HW2 9352   8.172   7.887   0.483 -1.3567  0.1016 -0.2067
 2304SOL     OW 9353   7.188   8.529   6.232  0.0574  0.0274  0.1815
 2304SOL    HW1 9354   7.276   8.543   6.197 -0.7500  0.8425 -1.6351
 2304SOL    HW2 9355   7.180   8.433   6.239  0.8988 -0.0715 -0.1350
 2305SOL     OW 9356   1.846   0.565  10.233  0.3962 -0.5976 -0.2346
 2305SOL    HW1 9357   1.848   0.615  10.151 -0.2901  0.9069  0.6222
 2305SOL    HW2 9358   1.753   0.565  10.258  0.8092  0.4872  1.4166
 2306SOL     OW 9359   0.927  10.416   0.649 -0.1884 -0.0201  0.4045
 2306SOL    HW1 9360   0.857  10.352   0.664  0.7782 -1.4767 -0.9350
 2306SOL    HW2 9361   1.003  10.377   0.693  0.7211 -0.4488 -1.4847
 2307SOL     OW 9362   0.799   6.240   2.379 -0.3509 -0.0610  0.7519
 2307SOL    HW1 9363   0.756   6.324   2.364 -2.4308 -1.0669  0.8116
 2307SOL    HW2 9364   0.854   6.228   2.302  0.3119  1.5072  0.9253
 2308SOL     OW 9365   1.165   6.132   4.808 -0.0873  0.1600 -0.3269
 2308SOL    HW1 9366   1.144   6.177   4.726  0.7619 -0.4016 -0.8755
 2308SOL    HW2 9367   1.114   6.178   4.874 -1.0914  0.3808 -1.2248
 2309SOL     OW 9368   9.355   9.691   0.773  0.5632  0.3277  0.0882
 2309SOL    HW1 9369   9.313   9.608   0.748  0.2043  0.4234  0.3716
 2309SOL    HW2 9370   9.285   9.756   0.767  1.0808  0.8001 -1.1386
 2310SOL     OW 9371   5.938   6.297  10.304 -0.4529 -0.7434 -0.0654
 2310SOL    HW1 9372   5.945   6.278  10.398  1.7411 -0.3796 -0.1068
 2310SOL    HW2 9373   6.023   6.273  10.268 -0.6608  0.7406 -1.6746
 2311SOL     OW 9374   7.011   1.596   7.341  0.5725 -0.5157  0.3205
 2311SOL    HW1 9375   6.925   1.633   7.361  0.1140 -1.7444  0.6855
 2311SOL    HW2 9376   7.068   1.631   7.409  0.6548  1.2644 -0.6105
 2312SOL     OW 9377   6.627   8.416   7.302 -0.1164  0.5956  0.0615
 2312SOL    HW1 9378   6.589   8.497   7.334  0.1777  1.2772 -1.2565
 2312SOL    HW2 9379   6.620   8.355   7.376 -0.9142  1.6197  0.8529
 2313SOL     OW 9380   3.781   6.314   3.527  0.2175  0.2953  0.5159
 2313SOL    HW1 9381   3.829   6.334   3.447  0.9283 -2.9951 -0.0205
 2313SOL    HW2 9382   3.691   6.301   3.498  0.3356 -0.1657  0.3389
 2314SOL     OW 9383   4.223   0.358   9.420 -0.3199  0.2942  0.0362
 2314SOL    HW1 9384   4.132   0.329   9.420 -0.2233 -0.0473 -0.6569
 2314SOL    HW2 9385   4.270   0.288   9.375  0.2338  0.6139  0.1057
 2315SOL     OW 9386   9.510   1.955   5.739  0.5973  0.4041  0.0264
 2315SOL    HW1 9387   9.589   2.002   5.712  0.2219 -0.0847 -2.1538
 2315SOL    HW2 9388   9.442   2.022   5.742  0.5463  0.4044 -0.8010
 2316SOL     OW 9389   9.381   3.211   1.858 -0.2751 -0.0752 -0.4203
 2316SOL    HW1 9390   9.396   3.298   1.820  1.2512 -0.2720 -0.3354
 2316SOL    HW2 9391   9.319   3.169   1.799 -1.8387  1.4140  0.0874
 2317SOL     OW 9392   1.858   3.247   6.646  0.5667 -0.1455 -0.3074
 2317SOL    HW1 9393   1.839   3.169   6.594  0.5466  0.2498 -0.9014
 2317SOL    HW2 9394   1.921   3.296   6.594 -0.8720  1.1829 -0.8838
 2318SOL     OW 9395   2.658   0.020   1.391  0.0679 -0.6932  0.5522
 2318SOL    HW1 9396   2.683   0.070   1.314  1.7815 -0.9754  0.8776
 2318SOL    HW2 9397   2.579   0.062   1.424  0.8977  1.1794  0.2414
 2319SOL     OW 9398   8.197   0.833   3.494  0.3391 -0.0685 -0.4377
 2319SOL    HW1 9399   8.256   0.893   3.540  0.8703 -0.8217 -0.1059
 2319SOL    HW2 9400   8.113   0.842   3.540  0.6049 -0.0941  0.0643
 2320SOL     OW 9401   3.181   8.685   2.576  0.4704 -0.3196  0.3458
 2320SOL    HW1 9402   3.110   8.722   2.523  0.4681 -0.3141  0.3528
 2320SOL    HW2 9403   3.251   8.750   2.570  0.2647 -0.0449  0.8194
 2321SOL     OW 9404   7.500   7.050   8.154 -0.2119 -0.0125  0.2779
 2321SOL    HW1 9405   7.432   6.983   8.156  0.8043 -1.1231 -0.8727
 2321SOL    HW2 9406   7.582   7.001   8.161  0.5079  1.4008  3.7516
 2322SOL     OW 9407   7.016   8.936   7.914  0.1451 -0.1283  0.0641
 2322SOL    HW1 9408   7.058   8.923   7.829 -0.6177 -0.6532 -0.2414
 2322SOL    HW2 9409   7.084   8.975   7.969  1.0573 -1.0582 -0.3801
 2323SOL     OW 9410   9.014   6.037   2.554  0.5269 -0.4051  0.1582
 2323SOL    HW1 9411   8.926   6.055   2.587  0.8783 -0.4232  1.1175
 2323SOL    HW2 9412   9.064   6.116   2.575  1.0309 -0.8507  0.6478
 2324SOL     OW 9413   0.522   2.459   8.338  0.0911  0.0779  0.3053
 2324SOL    HW1 9414   0.611   2.443   8.370  0.3621 -0.4830 -0.6979
 2324SOL    HW2 9415   0.516   2.408   8.257 -0.6573  1.2751 -0.4121
 2325SOL     OW 9416   0.888   3.926   5.448 -0.4519  0.3724  0.2990
 2325SOL    HW1 9417   0.942   3.868   5.394  0.4522  0.1613  1.3878
 2325SOL    HW2 9418   0.889   4.009   5.402  0.4708  0.2520  0.0770
 2326SOL     OW 9419   0.504   9.959   3.946 -0.6002 -0.0479 -0.7174
 2326SOL    HW1 9420   0.411   9.940   3.946 -0.5848 -0.2731 -2.5571
 2326SOL    HW2 9421   0.510  10.053   3.964 -1.0704 -0.3046  0.9187
 2327SOL     OW 9422   6.045   9.296   7.694  0.1725  0.6138  0.3718
 2327SOL    HW1 9423   6.120   9.291   7.753  0.0595 -2.1542  0.3848
 2327SOL    HW2 9424   6.033   9.207   7.663 -0.8820  1.6686 -2.5051
 2328SOL     OW 9425   5.770   5.494   9.285  0.6366 -0.3651  0.2820
 2328SOL    HW1 9426   5.722   5.544   9.220  0.1045 -1.2236 -0.0024
 2328SOL    HW2 9427   5.829   5.438   9.233 -1.6340 -3.0070  0.3062
 2329SOL     OW 9428   6.084   9.463   7.437  0.1497 -0.3000 -0.3000
 2329SOL    HW1 9429   6.157   9.519   7.464  0.2407 -1.1791  1.3964
 2329SOL    HW2 9430   6.053   9.423   7.518 -1.9665 -0.2822 -1.0360
 2330SOL     OW 9431   3.161   1.955   1.993  0.1860  0.2878 -0.6623
 2330SOL    HW1 9432   3.205   1.907   1.923  1.0672 -3.0947  1.9469
 2330SOL    HW2 9433   3.070   1.927   1.988  0.1095  0.5669 -0.8464
 2331SOL     OW 9434   1.180   5.445   5.341 -0.4963  0.0231 -0.4163
 2331SOL    HW1 9435   1.153   5.402   5.259 -0.5325 -0.6358 -0.0675
 2331SOL    HW2 9436   1.111   5.508   5.359 -0.0649  0.7854 -1.3450
 2332SOL     OW 9437  10.132   1.012   8.860  0.0979 -0.1063  0.4594
 2332SOL    HW1 9438  10.183   1.023   8.940  0.8064 -0.4694  0.0705
 2332SOL    HW2 9439  10.178   0.943   8.812 -1.1552 -0.9398  0.4080
 2333SOL     OW 9440   9.485   0.982   8.081 -0.0192 -0.1932  0.1622
 2333SOL    HW1 9441   9.546   1.028   8.024 -0.2205  0.6641  0.6188
 2333SOL    HW2 9442   9.509   0.890   8.073  1.4527  0.1414  0.4477
 2334SOL     OW 9443   1.240   0.532   4.958  0.3450 -0.6812  0.5304
 2334SOL    HW1 9444   1.187   0.532   5.038 -2.1093 -1.8655 -0.9640
 2334SOL    HW2 9445   1.244   0.441   4.932  0.7100 -0.2812 -0.9068
 2335SOL     OW 9446   4.455   5.122   2.865 -0.2981  0.7197  0.7644
 2335SOL    HW1 9447   4.410   5.175   2.799 -0.3695  0.7437  0.8313
 2335SOL    HW2 9448   4.385   5.080   2.914 -0.2481  0.7536  0.8665
 2336SOL     OW 9449   9.058   4.985   9.883 -0.0920  0.4925 -0.0410
 2336SOL    HW1 9450   9.105   5.069   9.881 -0.4345  0.7786  1.7365
 2336SOL    HW2 9451   9.093   4.940   9.959 -0.9023 -0.3846 -0.1654
 2337SOL     OW 9452   9.508   3.240   9.891  0.1312 -0.0334  0.3696
 2337SOL    HW1 9453   9.484   3.312   9.951 -0.3018  0.1791 -0.0542
 2337SOL    HW2 9454   9.438   3.239   9.826  0.5849 -0.2805 -0.1220
 2338SOL     OW 9455   0.106   3.696   0.304 -0.0211  0.4824  0.0917
 2338SOL    HW1 9456   0.147   3.758   0.243 -1.1809 -2.0141 -3.5368
 2338SOL    HW2 9457   0.168   3.623   0.310 -1.4510 -0.8948 -1.0798
 2339SOL     OW 9458   1.575   0.153   4.101 -0.3662  0.0060  1.5317
 2339SOL    HW1 9459   1.521   0.075   4.108  1.3811 -1.2036  2.4722
 2339SOL    HW2 9460   1.662   0.125   4.132  1.6405  1.0394 -2.4813
 2340SOL     OW 9461   0.807   7.958   5.896  0.1778 -0.1689 -0.5152
 2340SOL    HW1 9462   0.889   7.998   5.926 -0.4093 -0.1725  1.2076
 2340SOL    HW2 9463   0.814   7.957   5.801  2.7502 -1.3493 -0.3856
 2341SOL     OW 9464   2.070   4.746   0.236 -0.2530  0.4439 -0.1268
 2341SOL    HW1 9465   2.058   4.663   0.283  0.4685  0.2871 -0.2070
 2341SOL    HW2 9466   2.137   4.727   0.171  1.3933  1.5939  1.1385
 2342SOL     OW 9467   2.866   0.387   8.138 -0.2904 -0.0373 -0.0078
 2342SOL    HW1 9468   2.956   0.418   8.137 -0.1552 -0.4258 -1.3109
 2342SOL    HW2 9469   2.831   0.408   8.051 -1.5965  0.4828  0.6058
 2343SOL     OW 9470   2.714   6.901   4.059  0.1002  0.1844 -0.3979
 2343SOL    HW1 9471   2.796   6.853   4.074 -0.0815  0.4454  1.6568
 2343SOL    HW2 9472   2.738   6.972   3.999  1.8442  1.4101  1.6515
 2344SOL     OW 9473   2.672   8.841   2.289  0.5847  0.3170 -0.1459
 2344SOL    HW1 9474   2.711   8.806   2.209  0.5883 -0.5339  0.2106
 2344SOL    HW2 9475   2.591   8.883   2.260 -1.0347 -2.6223 -0.3015
 2345SOL     OW 9476   9.838   8.731   8.716  0.5185  1.1453 -0.3585
 2345SOL    HW1 9477   9.828   8.808   8.772  2.3471  1.3837 -0.2983
 2345SOL    HW2 9478   9.931   8.709   8.721  0.3954  0.0772 -1.8929
 2346SOL     OW 9479   7.455   3.983   0.551  0.4010 -0.0919  0.2218
 2346SOL    HW1 9480   7.453   4.048   0.480  1.6853  1.1793  1.2884
 2346SOL    HW2 9481   7.454   4.035   0.631  1.9287 -1.3495  1.1202
 2347SOL     OW 9482   0.289   3.655   9.907  0.2103  0.5529 -0.5250
 2347SOL    HW1 9483   0.250   3.608   9.981 -0.1388  1.5581 -0.0546
 2347SOL    HW2 9484   0.237   3.627   9.831 -0.5119  0.7842 -0.1263
 2348SOL     OW 9485   2.018   2.688   6.297  0.1559  0.9137  0.5695
 2348SOL    HW1 9486   2.107   2.723   6.294  0.5797 -0.1682  0.1693
 2348SOL    HW2 9487   2.001   2.659   6.207 -0.0036 -0.3425  0.9959
 2349SOL     OW 9488   7.256   2.120   5.391  0.9347 -0.3083 -0.5739
 2349SOL    HW1 9489   7.217   2.198   5.430  1.8012  0.0744 -0.4452
 2349SOL    HW2 9490   7.183   2.059   5.381  0.8681 -1.1220  3.2196
 2350SOL     OW 9491   2.213   5.758   3.017  0.2906  0.1567 -0.2863
 2350SOL    HW1 9492   2.160   5.680   3.032  0.6452 -0.3746 -1.6382
 2350SOL    HW2 9493   2.175   5.824   3.075 -0.1268 -0.9523  0.7570
 2351SOL     OW 9494  10.122   1.203   4.674  0.2018 -0.1599  0.1125
 2351SOL    HW1 9495  10.112   1.186   4.580 -0.4523 -0.9055  0.3058
 2351SOL    HW2 9496  10.192   1.268   4.680 -0.7152  0.9694 -0.9816
 2352SOL     OW 9497   8.357   9.504   9.332 -0.4882  0.1915  0.4720
 2352SOL    HW1 9498   8.285   9.561   9.359 -0.8651  1.4326 -2.6812
 2352SOL    HW2 9499   8.319   9.448   9.264  1.0126 -0.6111  0.2513
 2353SOL     OW 9500   3.053   9.644   1.015  0.3521  0.6463 -0.1311
 2353SOL    HW1 9501   3.006   9.563   0.996  0.6181  0.5697 -0.4696
 2353SOL    HW2 9502   3.074   9.680   0.929 -0.2583  1.3683  0.0090
 2354SOL     OW 9503   4.181   0.182   7.238  0.7972  0.0648  0.2741
 2354SOL    HW1 9504   4.254   0.157   7.181  1.6836  1.2832  0.8100
 2354SOL    HW2 9505   4.111   0.209   7.177 -0.2975 -3.6503 -0.3258
 2355SOL     OW 9506   0.524   2.234   0.888  0.3946  0.3813 -0.1202
 2355SOL    HW1 9507   0.522   2.166   0.821 -0.3236 -0.0781  0.3599
 2355SOL    HW2 9508   0.432   2.250   0.909  0.4258  2.6516 -1.3587
 2356SOL     OW 9509   6.329   5.143   4.995 -0.9806 -0.5967 -0.2612
 2356SOL    HW1 9510   6.256   5.205   4.990 -0.1467  0.6008  1.2374
 2356SOL    HW2 9511   6.327   5.112   5.086  0.5651 -0.2374 -0.0708
 2357SOL     OW 9512   5.585   7.255   0.532 -0.7504  0.1430 -0.2232
 2357SOL    HW1 9513   5.569   7.191   0.601 -0.0712  1.4352  1.1933
 2357SOL    HW2 9514   5.516   7.321   0.544 -1.5539 -0.3714 -1.7705
 2358SOL     OW 9515   9.778   1.058   7.473  0.0007 -0.6648  0.1694
 2358SOL    HW1 9516   9.716   1.120   7.433  0.2762  0.5000  1.4415
 2358SOL    HW2 9517   9.741   0.972   7.456 -1.0495 -0.0799 -0.6063
 2359SOL     OW 9518   9.390   5.865   8.091 -0.0081 -0.5036 -0.3527
 2359SOL    HW1 9519   9.303   5.858   8.051 -0.1640 -0.5856 -0.0074
 2359SOL    HW2 9520   9.374   5.854   8.185  0.2787  0.2395 -0.2085
 2360SOL     OW 9521   5.878   8.738   1.568  0.3354  0.3878  0.1034
 2360SOL    HW1 9522   5.795   8.731   1.522  1.1935  2.4335 -1.9228
 2360SOL    HW2 9523   5.943   8.748   1.499  2.4281 -1.8545  1.5897
 2361SOL     OW 9524   4.088   8.542   6.478  0.0232  0.3369 -0.5271
 2361SOL    HW1 9525   4.181   8.522   6.473 -0.0509 -0.5348  1.0154
 2361SOL    HW2 9526   4.045   8.464   6.444 -0.1773 -0.8244  2.1338
 2362SOL     OW 9527   6.281   5.140   0.158  0.3451 -0.2364  0.5831
 2362SOL    HW1 9528   6.357   5.108   0.109  0.8716  0.9693  0.5630
 2362SOL    HW2 9529   6.205   5.106   0.109  0.8603  0.5547 -0.8440
 2363SOL     OW 9530   7.396  10.182   0.940 -0.3345 -0.1072  0.6533
 2363SOL    HW1 9531   7.327  10.247   0.931 -0.3672 -0.4580 -3.5030
 2363SOL    HW2 9532   7.469  10.229   0.981 -1.0827  1.9370 -0.2330
 2364SOL     OW 9533   1.557   4.453   7.265 -0.0073 -0.1956  0.1009
 2364SOL    HW1 9534   1.597   4.532   7.301 -0.8913  1.0199 -1.4462
 2364SOL    HW2 9535   1.628   4.409   7.219  0.5681 -0.5097  1.2546
 2365SOL     OW 9536   3.253  10.438   0.058  0.2518 -0.0930 -0.2836
 2365SOL    HW1 9537   3.219  10.387  -0.015  0.5888 -1.0531  0.2126
 2365SOL    HW2 9538   3.179  10.491   0.087 -0.1115 -0.3165 -0.7923
 2366SOL     OW 9539   2.243   7.894   0.873  0.1075  0.0020  0.0972
 2366SOL    HW1 9540   2.233   7.883   0.778  1.9521  0.6016 -0.2104
 2366SOL    HW2 9541   2.336   7.914   0.885 -0.5071  2.2799  1.7978
 2367SOL     OW 9542  10.010   0.051  10.348  0.1334  0.0739  0.1272
 2367SOL    HW1 9543   9.992   0.098  10.266  1.3610 -0.8690 -0.7308
 2367SOL    HW2 9544  10.096   0.013  10.334  0.2595 -0.2959  1.8019
 2368SOL     OW 9545   1.413  10.104   2.532 -0.2673 -0.1646 -0.3190
 2368SOL    HW1 9546   1.453  10.121   2.617 -1.7339 -0.0353  0.3789
 2368SOL    HW2 9547   1.476  10.049   2.486  0.5324 -0.2725  0.8687
 2369SOL     OW 9548   7.284   4.539   8.730 -0.0876  0.7033  0.1245
 2369SOL    HW1 9549   7.242   4.453   8.726  0.3283  0.3911  1.6693
 2369SOL    HW2 9550   7.370   4.526   8.691  0.5238  0.0169  1.5985
 2370SOL     OW 9551   0.250   5.327   8.795 -0.5398 -0.1439 -0.4286
 2370SOL    HW1 9552   0.169   5.290   8.760 -0.9105  0.2273  0.0162
 2370SOL    HW2 9553   0.225   5.364   8.880 -0.0938  0.7343 -0.6624
 2371SOL     OW 9554   0.923   0.335   5.965 -0.2701  0.0263 -0.0288
 2371SOL    HW1 9555   0.847   0.365   6.016 -0.0622 -0.9501  0.8974
 2371SOL    HW2 9556   0.919   0.239   5.970 -0.1899 -0.0947 -1.8138
 2372SOL     OW 9557   1.422   3.308   8.361  0.5496  0.5516  0.1135
 2372SOL    HW1 9558   1.477   3.364   8.416  2.3321 -0.1676 -0.8554
 2372SOL    HW2 9559   1.454   3.324   8.272 -1.3998  0.7209 -0.5932
 2373SOL     OW 9560   2.137   7.813   5.388  0.0667 -0.4840 -0.2547
 2373SOL    HW1 9561   2.077   7.844   5.457  0.4305 -0.5054  0.0754
 2373SOL    HW2 9562   2.079   7.780   5.319 -0.3030 -1.5885  0.5566
 2374SOL     OW 9563   9.076   8.328   2.110 -0.4051  0.6005  0.0590
 2374SOL    HW1 9564   9.150   8.373   2.068  1.6989 -2.2395  0.4246
 2374SOL    HW2 9565   9.013   8.314   2.040  0.1793  1.5147 -0.6825
 2375SOL     OW 9566   6.260   4.830   2.241 -0.0108  0.2138  0.2115
 2375SOL    HW1 9567   6.245   4.906   2.296 -2.1918  0.0363 -0.0683
 2375SOL    HW2 9568   6.262   4.865   2.151 -0.5212  0.0198  0.1202
 2376SOL     OW 9569   0.971   4.693   2.181  0.1378  0.2279 -1.0735
 2376SOL    HW1 9570   0.892   4.641   2.193 -0.1582  0.8876  0.0377
 2376SOL    HW2 9571   0.940   4.776   2.146  0.1112  1.0692  0.8308
 2377SOL     OW 9572   0.959   7.624   4.564  0.4565  0.0598 -0.1344
 2377SOL    HW1 9573   1.008   7.608   4.645 -0.1933  2.5236  0.8286
 2377SOL    HW2 9574   0.880   7.570   4.572  1.0606 -0.7819  0.2076
 2378SOL     OW 9575   2.441   7.915   6.101  0.2063 -0.3346  0.4137
 2378SOL    HW1 9576   2.373   7.923   6.169  0.6224 -2.6525  1.2066
 2378SOL    HW2 9577   2.392   7.916   6.019 -0.5696  0.0905  0.8655
 2379SOL     OW 9578   9.344   9.213   6.928 -0.2263 -0.1413 -0.2481
 2379SOL    HW1 9579   9.289   9.259   6.991  1.8492  1.4913  0.4595
 2379SOL    HW2 9580   9.373   9.134   6.974 -1.0606 -0.4486 -0.2354
 2380SOL     OW 9581   5.771   4.389   5.962 -0.3999  0.0087 -0.0223
 2380SOL    HW1 9582   5.695   4.439   5.991 -0.4663 -0.4485  0.6222
 2380SOL    HW2 9583   5.753   4.299   5.990  0.2911 -0.1405 -0.0267
 2381SOL     OW 9584   7.001   8.100   7.741 -0.0493  0.3466  0.2852
 2381SOL    HW1 9585   6.996   8.043   7.818  0.7505 -0.3292 -0.1443
 2381SOL    HW2 9586   6.911   8.129   7.726 -0.0808  1.2835  2.0520
 2382SOL     OW 9587   4.629   0.294   3.795  0.1380 -0.1996  0.0812
 2382SOL    HW1 9588   4.662   0.265   3.711 -1.7911  0.9380 -1.1367
 2382SOL    HW2 9589   4.706   0.323   3.843  1.0750  1.0014 -2.0608
 2383SOL     OW 9590   6.763   6.660   3.058 -0.0884  0.1897  0.2101
 2383SOL    HW1 9591   6.683   6.655   3.110 -0.5774  1.7861 -0.3479
 2383SOL    HW2 9592   6.831   6.682   3.121 -0.6628  2.0131  0.2369
 2384SOL     OW 9593   9.506   1.279   6.345 -0.5033  0.3345 -0.2134
 2384SOL    HW1 9594   9.427   1.323   6.378 -1.2837 -1.3272  0.2163
 2384SOL    HW2 9595   9.499   1.189   6.377  0.9706 -0.1600 -1.1833
 2385SOL     OW 9596   3.043   2.852   2.299  0.0851 -0.2017 -0.0809
 2385SOL    HW1 9597   3.062   2.843   2.393 -1.8715 -0.7564  0.3072
 2385SOL    HW2 9598   2.979   2.783   2.282  1.4928 -1.0832 -2.1894
 2386SOL     OW 9599   9.295   2.240   4.504  0.6512 -0.5212 -0.1308
 2386SOL    HW1 9600   9.219   2.183   4.491  0.3676  0.2544 -2.2939
 2386SOL    HW2 9601   9.366   2.180   4.529  0.3678 -1.9028 -2.3668
 2387SOL     OW 9602   8.372   8.881   3.885 -0.0509  0.6478 -0.1528
 2387SOL    HW1 9603   8.365   8.806   3.826 -2.3292 -1.3822  2.4219
 2387SOL    HW2 9604   8.452   8.864   3.935 -0.6026 -0.1806  0.4780
 2388SOL     OW 9605   3.876   8.617   7.515  0.1803 -0.1345  0.7763
 2388SOL    HW1 9606   3.818   8.604   7.590  1.2909 -1.2553  1.4865
 2388SOL    HW2 9607   3.942   8.549   7.524  1.0786  0.5222 -0.5246
 2389SOL     OW 9608   0.556   8.981   0.143 -0.4925  0.2791  0.7988
 2389SOL    HW1 9609   0.519   8.920   0.079 -0.6136 -1.5244  2.4793
 2389SOL    HW2 9610   0.481   9.012   0.193 -0.4064  1.7274  0.0591
 2390SOL     OW 9611   3.400   4.828   7.137  0.1445  0.5186  0.6624
 2390SOL    HW1 9612   3.482   4.862   7.100 -0.0046 -1.5795 -1.8543
 2390SOL    HW2 9613   3.421   4.812   7.229  2.9053 -0.7191 -0.0769
 2391SOL     OW 9614   9.872   6.714   7.250 -0.0551 -0.1068  0.5963
 2391SOL    HW1 9615   9.895   6.802   7.220 -0.6141 -0.4840 -1.0007
 2391SOL    HW2 9616   9.777   6.718   7.266 -0.6131 -1.0780 -2.0474
 2392SOL     OW 9617   8.483   5.152   4.101 -0.1003  0.4190  0.6216
 2392SOL    HW1 9618   8.503   5.115   4.015  0.0818 -0.5423  1.0613
 2392SOL    HW2 9619   8.462   5.076   4.156  0.5347  0.9411  1.6240
 2393SOL     OW 9620   4.647   3.363   1.636  0.4451 -0.2697 -0.2224
 2393SOL    HW1 9621   4.701   3.314   1.574  0.9903  1.2423 -0.9973
 2393SOL    HW2 9622   4.565   3.313   1.641  0.7257 -0.9052 -1.4670
 2394SOL     OW 9623   1.356   3.440   6.585 -0.0957 -0.0044 -0.1497
 2394SOL    HW1 9624   1.325   3.388   6.659  0.8540 -0.0471  0.2398
 2394SOL    HW2 9625   1.279   3.454   6.531 -0.6673 -0.5503  0.5062
 2395SOL     OW 9626   6.102   1.406   4.637  0.1310  0.6198 -0.0646
 2395SOL    HW1 9627   6.190   1.371   4.648 -0.0395 -0.3273 -1.4242
 2395SOL    HW2 9628   6.112   1.500   4.652  1.1573  0.3888  0.8237
 2396SOL     OW 9629   8.394   3.267   5.844 -0.1760  0.5706 -0.5941
 2396SOL    HW1 9630   8.397   3.253   5.750  2.1597 -0.4795 -0.4236
 2396SOL    HW2 9631   8.470   3.322   5.863  0.2160 -0.4049  0.8433
 2397SOL     OW 9632   0.626   9.239   5.455 -0.4952 -0.3568  0.2264
 2397SOL    HW1 9633   0.694   9.306   5.456  0.2566 -1.1144  0.8725
 2397SOL    HW2 9634   0.673   9.156   5.458 -1.4293 -0.9078  0.0774
 2398SOL     OW 9635   2.924   3.989   0.268  0.2072  0.3342  0.2289
 2398SOL    HW1 9636   2.881   3.951   0.345 -1.4458  1.3706 -0.1318
 2398SOL    HW2 9637   2.855   3.992   0.202  0.4506  3.2055 -0.0045
 2399SOL     OW 9638  10.180   1.667   0.461  0.0318  0.0216  0.1110
 2399SOL    HW1 9639  10.252   1.623   0.507 -0.7194 -2.6371 -1.0279
 2399SOL    HW2 9640  10.162   1.610   0.387 -2.8842  0.8946  0.0413
 2400SOL     OW 9641   8.859   5.385   4.338  0.3203  0.1125 -0.1532
 2400SOL    HW1 9642   8.776   5.356   4.377 -0.5851  0.5174 -1.6719
 2400SOL    HW2 9643   8.908   5.423   4.411 -0.9258  0.0794  0.7352
 2401SOL     OW 9644   1.750   2.042   4.790 -0.1100  0.6103 -0.0421
 2401SOL    HW1 9645   1.726   2.003   4.874 -0.5393  1.6118  0.3132
 2401SOL    HW2 9646   1.667   2.057   4.746  0.0425  1.2101 -0.1289
 2402SOL     OW 9647   9.717   8.659   6.572 -0.9228 -0.1960  0.2787
 2402SOL    HW1 9648   9.717   8.732   6.510 -1.2344 -1.0122 -0.7052
 2402SOL    HW2 9649   9.792   8.605   6.546 -0.6764 -0.2206  1.0189
 2403SOL     OW 9650   2.395   7.005   5.169 -0.4482 -0.1014 -0.1520
 2403SOL    HW1 9651   2.401   6.979   5.076  2.2355 -1.5255  0.2907
 2403SOL    HW2 9652   2.452   7.082   5.176 -0.6465  0.0059  0.3093
 2404SOL     OW 9653   1.502   5.175   9.030 -0.2397  0.1040  0.1317
 2404SOL    HW1 9654   1.485   5.241   8.962 -1.9772  0.6737  1.0483
 2404SOL    HW2 9655   1.419   5.128   9.039  0.0971 -0.2677  1.5179
 2405SOL     OW 9656   7.918   5.012   5.725 -0.2853  0.3476  0.1775
 2405SOL    HW1 9657   7.861   4.936   5.737  0.6011 -0.2467  0.7713
 2405SOL    HW2 9658   7.897   5.045   5.638 -2.5570  1.0326  0.9109
 2406SOL     OW 9659  10.124   4.951   3.001  0.6494 -0.2438 -0.3031
 2406SOL    HW1 9660  10.114   4.954   2.906  0.1245  3.4057 -0.2854
 2406SOL    HW2 9661  10.217   4.966   3.016  0.9059 -1.8220 -0.2121
 2407SOL     OW 9662   7.436   2.490   6.072  0.6372 -0.1454 -0.2099
 2407SOL    HW1 9663   7.466   2.399   6.071  1.1357  0.0142 -1.6578
 2407SOL    HW2 9664   7.498   2.537   6.017  0.0400  0.9634  0.0356
 2408SOL     OW 9665   5.099   6.446   0.640 -0.4003  0.2410 -0.3752
 2408SOL    HW1 9666   5.057   6.460   0.725 -0.1547  0.4933 -0.2931
 2408SOL    HW2 9667   5.029   6.456   0.576 -0.2592  1.7765 -0.3212
 2409SOL     OW 9668   4.052   0.449   8.836 -0.2391 -0.6110 -0.5862
 2409SOL    HW1 9669   4.133   0.424   8.882 -0.6705  1.9277  1.8594
 2409SOL    HW2 9670   4.072   0.535   8.799 -1.9704  0.4628  0.8029
 2410SOL     OW 9671   5.562   4.606   4.200  0.2570 -0.5339 -0.3732
 2410SOL    HW1 9672   5.573   4.557   4.118  0.5473  0.5832 -1.0180
 2410SOL    HW2 9673   5.649   4.641   4.219  0.1183 -0.5134  0.2500
 2411SOL     OW 9674   3.556   2.537   3.966 -0.1951 -0.0237 -0.5732
 2411SOL    HW1 9675   3.571   2.494   3.881 -1.3999  1.1039 -1.3893
 2411SOL    HW2 9676   3.591   2.625   3.954  1.2167 -0.3690  0.7098
 2412SOL     OW 9677   6.285   5.610   2.095  0.4140  0.9524 -0.1801
 2412SOL    HW1 9678   6.262   5.550   2.166  2.8836  1.0135  0.7670
 2412SOL    HW2 9679   6.358   5.567   2.050 -0.2723  1.5183 -1.9041
 2413SOL     OW 9680   7.950   5.215   0.969  0.1019  0.0965  0.0909
 2413SOL    HW1 9681   7.924   5.252   0.884 -0.2022  1.4462  0.7393
 2413SOL    HW2 9682   8.044   5.232   0.974 -0.4348  3.2773  1.4833
 2414SOL     OW 9683   1.693   3.634   8.754 -0.1851 -0.5434 -0.1420
 2414SOL    HW1 9684   1.614   3.580   8.755  0.4254 -1.4573  0.2293
 2414SOL    HW2 9685   1.750   3.595   8.820  0.4411  0.3248 -0.1457
 2415SOL     OW 9686   7.452   3.026   7.011  0.1834  0.2757 -0.3515
 2415SOL    HW1 9687   7.461   3.108   6.962 -1.6385  0.3178 -0.6913
 2415SOL    HW2 9688   7.437   2.959   6.944 -1.2813  0.1657  0.0416
 2416SOL     OW 9689   4.531   9.065   8.884 -0.2312 -0.7223  1.1478
 2416SOL    HW1 9690   4.499   8.986   8.841 -0.8700 -0.9338  1.9809
 2416SOL    HW2 9691   4.601   9.097   8.827 -1.8223 -0.3059 -0.6724
 2417SOL     OW 9692   1.760   4.495  10.139 -0.1680  0.6004  0.0538
 2417SOL    HW1 9693   1.834   4.434  10.143 -0.5485  0.0088 -1.2434
 2417SOL    HW2 9694   1.683   4.438  10.136 -0.5583  1.1538 -0.7084
 2418SOL     OW 9695   6.746   6.148   0.106 -0.9765 -0.0507  0.0044
 2418SOL    HW1 9696   6.681   6.197   0.055 -0.2292 -0.7773 -1.7432
 2418SOL    HW2 9697   6.729   6.172   0.197 -4.0538 -0.6169 -0.3163
 2419SOL     OW 9698   5.052   8.596   7.266 -0.4995  0.2197 -0.7004
 2419SOL    HW1 9699   5.097   8.634   7.342  0.9751 -0.5422 -1.1428
 2419SOL    HW2 9700   5.046   8.667   7.203  0.1050  0.3492 -0.6222
 2420SOL     OW 9701   7.357   3.249  10.073  0.3467 -0.2520 -0.1522
 2420SOL    HW1 9702   7.279   3.281  10.027  0.5797 -0.4037 -0.6604
 2420SOL    HW2 9703   7.410   3.207  10.005  0.2952 -1.2638  0.4121
 2421SOL     OW 9704   5.113   3.722   5.019 -0.6145 -0.6112 -0.3154
 2421SOL    HW1 9705   5.158   3.642   4.993  0.3188 -0.3731  0.4982
 2421SOL    HW2 9706   5.183   3.779   5.052 -0.8781  1.4813 -3.0364
 2422SOL     OW 9707   5.740   5.706   2.129  0.5792  0.2972  0.0884
 2422SOL    HW1 9708   5.684   5.752   2.191 -0.0116  0.0511 -0.2618
 2422SOL    HW2 9709   5.739   5.760   2.050  1.7110  0.8617  0.4275
 2423SOL     OW 9710   9.827   9.143   9.695 -0.4559 -0.4622 -0.0216
 2423SOL    HW1 9711   9.742   9.184   9.680 -0.1782  0.2530  0.2951
 2423SOL    HW2 9712   9.890   9.206   9.660 -0.0896 -1.4108 -1.1198
 2424SOL     OW 9713   7.248   1.398   8.958 -0.5381  0.3927 -0.3044
 2424SOL    HW1 9714   7.242   1.353   9.042  1.1428  1.3593  0.3857
 2424SOL    HW2 9715   7.163   1.442   8.948 -0.3420  1.2641  1.5101
 2425SOL     OW 9716   4.446   2.047   6.326  0.6028  0.4581  0.4082
 2425SOL    HW1 9717   4.485   2.055   6.240  0.0309  0.4638  0.1420
 2425SOL    HW2 9718   4.442   2.136   6.360  0.6865  0.4737  0.3749
 2426SOL     OW 9719   3.058   3.051   8.575 -0.6478  0.2095 -0.2643
 2426SOL    HW1 9720   3.106   2.972   8.602  1.2541  1.0969 -0.8509
 2426SOL    HW2 9721   3.054   3.044   8.479 -1.0407  0.5131 -0.2691
 2427SOL     OW 9722   0.491   8.663   6.012 -0.4550  0.9590 -0.0352
 2427SOL    HW1 9723   0.459   8.690   5.926 -0.5558  0.3655 -0.1886
 2427SOL    HW2 9724   0.433   8.593   6.039  1.8200 -1.6004 -1.2454
 2428SOL     OW 9725   8.172   2.491   8.074 -0.2514  0.0484  0.0413
 2428SOL    HW1 9726   8.189   2.539   8.155  2.2712  0.0478 -0.4191
 2428SOL    HW2 9727   8.159   2.559   8.008  1.1175  0.1018 -0.1882
 2429SOL     OW 9728   3.734   3.916   4.937  0.0382 -0.6579  0.1482
 2429SOL    HW1 9729   3.649   3.947   4.968  0.3485  0.2139  0.1481
 2429SOL    HW2 9730   3.754   3.840   4.991 -0.9058 -1.0855 -0.0937
 2430SOL     OW 9731   4.863   9.452   6.149  0.7244 -0.0489  0.0481
 2430SOL    HW1 9732   4.927   9.461   6.078 -2.0648 -1.6122 -2.9606
 2430SOL    HW2 9733   4.854   9.357   6.161 -0.8809  0.1298  0.4671
 2431SOL     OW 9734   6.356   5.906   3.241  0.6972  0.0414  0.6126
 2431SOL    HW1 9735   6.377   5.846   3.312 -0.1303 -0.6665  0.2787
 2431SOL    HW2 9736   6.440   5.928   3.202  1.2003  0.7740  2.0623
 2432SOL     OW 9737   7.648  10.224   4.866  0.3868  0.1667  0.3105
 2432SOL    HW1 9738   7.596  10.225   4.946  1.4336  2.6201  1.0355
 2432SOL    HW2 9739   7.648  10.132   4.839 -0.8917 -0.5552  2.5029
 2433SOL     OW 9740   0.428   7.432   7.260  0.4084 -0.4963  0.3640
 2433SOL    HW1 9741   0.416   7.525   7.279  1.4191 -0.8846  3.7585
 2433SOL    HW2 9742   0.346   7.392   7.286  0.6370 -0.7243  0.7435
 2434SOL     OW 9743   2.374   1.251   8.788  0.1070 -0.2960 -0.1673
 2434SOL    HW1 9744   2.449   1.274   8.845 -0.4453 -0.9339  0.8499
 2434SOL    HW2 9745   2.339   1.336   8.761  1.2486  0.0162 -0.7375
 2435SOL     OW 9746   9.942   1.906   5.027  0.0092 -0.3898  0.1334
 2435SOL    HW1 9747   9.907   1.817   5.030 -1.1784  0.0197 -0.7478
 2435SOL    HW2 9748   9.919   1.938   4.940  0.8305  0.6276  0.2658
 2436SOL     OW 9749   4.326   2.254   1.191 -0.0054 -0.3560  0.3734
 2436SOL    HW1 9750   4.283   2.225   1.271  1.3096 -0.9458  0.9146
 2436SOL    HW2 9751   4.301   2.345   1.182 -0.8417 -0.5073  0.9980
 2437SOL     OW 9752   7.584   4.221   8.094 -0.1502  0.3186  0.1498
 2437SOL    HW1 9753   7.641   4.271   8.034  0.6445 -0.6946  0.0235
 2437SOL    HW2 9754   7.499   4.263   8.086  0.2873  1.1101 -0.6127
 2438SOL     OW 9755   5.511   9.387   4.732  0.2441  0.2104 -0.2503
 2438SOL    HW1 9756   5.586   9.443   4.716  1.4836 -1.4142 -0.3950
 2438SOL    HW2 9757   5.461   9.389   4.651  1.3627 -0.4669 -0.9761
 2439SOL     OW 9758   8.978   7.521   4.909 -0.0568 -0.7636 -0.0989
 2439SOL    HW1 9759   9.068   7.528   4.942 -0.3394  1.6787  0.3798
 2439SOL    HW2 9760   8.986   7.533   4.814  0.1829 -1.3644 -0.1586
 2440SOL     OW 9761   4.725   0.876   6.989 -0.5675  0.0428 -0.1080
 2440SOL    HW1 9762   4.694   0.890   6.900 -3.4004 -0.1855  0.7142
 2440SOL    HW2 9763   4.722   0.781   7.001 -2.8345  0.1697  0.9493
 2441SOL     OW 9764   6.662   1.450   9.051 -0.2939 -0.1520  0.1641
 2441SOL    HW1 9765   6.571   1.455   9.081  0.0120 -0.9244  1.3170
 2441SOL    HW2 9766   6.712   1.493   9.120  0.2996 -0.6121  0.0323
 2442SOL     OW 9767   9.504   1.776   3.466 -0.5203 -0.2493 -0.1720
 2442SOL    HW1 9768   9.448   1.852   3.455  0.4831  0.5056 -0.2565
 2442SOL    HW2 9769   9.496   1.727   3.384 -4.1157 -2.3566  1.2148
 2443SOL     OW 9770   2.002   3.293   9.339  0.2932 -0.2910  0.0765
 2443SOL    HW1 9771   1.911   3.265   9.348 -0.5741  1.4573 -2.1805
 2443SOL    HW2 9772   2.053   3.217   9.364 -1.8197 -1.9411 -0.3147
 2444SOL     OW 9773   8.883   3.147   9.072  0.1195 -0.2044 -0.3141
 2444SOL    HW1 9774   8.922   3.062   9.093 -0.8545 -0.6212 -0.1343
 2444SOL    HW2 9775   8.791   3.127   9.053  0.3161  0.5407 -2.2106
 2445SOL     OW 9776   0.283   3.851   2.138  0.5653 -0.4529  0.0740
 2445SOL    HW1 9777   0.346   3.785   2.165  0.9360 -0.2414 -0.2614
 2445SOL    HW2 9778   0.248   3.819   2.055 -0.7595 -1.2264  0.8961
 2446SOL     OW 9779   5.815  10.253   0.377 -0.7635 -0.2406  0.3819
 2446SOL    HW1 9780   5.771  10.300   0.307  2.2373  2.4170  0.0451
 2446SOL    HW2 9781   5.767  10.278   0.456 -0.7819  1.3697 -0.1097
 2447SOL     OW 9782   4.743   0.615   4.247  0.0333  0.2920 -0.7194
 2447SOL    HW1 9783   4.750   0.521   4.233 -1.4043 -0.3149  1.9009
 2447SOL    HW2 9784   4.659   0.639   4.208 -0.8787 -0.1094  0.8973
 2448SOL     OW 9785   4.094   1.490   6.646 -0.3660  0.5553  0.1211
 2448SOL    HW1 9786   4.017   1.482   6.703  2.1480  0.3619  3.8284
 2448SOL    HW2 9787   4.093   1.581   6.618 -1.8118  0.5984  0.2123
 2449SOL     OW 9788   0.726   6.519   4.513 -0.4757  0.1721  0.2901
 2449SOL    HW1 9789   0.738   6.611   4.536 -0.1794 -0.0448  1.0330
 2449SOL    HW2 9790   0.678   6.481   4.587  0.0910 -0.4468  0.3478
 2450SOL     OW 9791   6.541   6.990   2.041 -0.3773  0.2909  0.6032
 2450SOL    HW1 9792   6.499   6.942   1.970 -0.4247 -0.0004  0.8257
 2450SOL    HW2 9793   6.481   6.982   2.115  0.2597 -0.5103  1.0527
 2451SOL     OW 9794   7.523   6.474   3.152 -0.4274  0.0152  0.4537
 2451SOL    HW1 9795   7.445   6.484   3.097 -0.9664  1.7659  1.4697
 2451SOL    HW2 9796   7.520   6.383   3.182 -0.8499 -0.5764 -1.2896
 2452SOL     OW 9797   2.625   1.563   9.892 -0.0490  0.0519  0.3978
 2452SOL    HW1 9798   2.651   1.539   9.981  0.9133 -0.5501 -0.0270
 2452SOL    HW2 9799   2.686   1.632   9.867 -0.5775  0.5039  0.3484
 2453SOL     OW 9800   2.515   7.260   2.946 -0.2950 -0.2246  0.3543
 2453SOL    HW1 9801   2.530   7.184   3.003  1.2424  0.2716  0.6528
 2453SOL    HW2 9802   2.489   7.330   3.006 -0.7010 -0.2382  0.1961
 2454SOL     OW 9803   1.332   8.691   7.348  0.0696 -0.0543  0.6433
 2454SOL    HW1 9804   1.398   8.645   7.296 -1.1112 -1.8652  0.6365
 2454SOL    HW2 9805   1.381   8.736   7.416  1.3547 -0.7164  0.1805
 2455SOL     OW 9806   8.121   7.649  10.033  0.2557  0.0417  0.1094
 2455SOL    HW1 9807   8.030   7.650  10.063 -0.0597 -0.8629 -0.7383
 2455SOL    HW2 9808   8.114   7.624   9.940  1.1814  2.4577 -0.6983
 2456SOL     OW 9809   8.186   5.846  10.210  0.4654  0.5552 -0.3266
 2456SOL    HW1 9810   8.218   5.764  10.171  0.1878  0.7137 -0.8959
 2456SOL    HW2 9811   8.227   5.848  10.296 -0.2976 -0.6854  0.1007
 2457SOL     OW 9812   5.331   6.217   7.042 -0.3799  0.3577  0.1360
 2457SOL    HW1 9813   5.335   6.150   7.109  2.7366 -1.3994 -1.5319
 2457SOL    HW2 9814   5.277   6.179   6.972  1.8287 -0.8337 -1.0416
 2458SOL     OW 9815   6.771   9.200   0.793 -0.0548  0.6657  0.4189
 2458SOL    HW1 9816   6.676   9.191   0.799 -0.0139  1.0864  1.8909
 2458SOL    HW2 9817   6.795   9.145   0.717 -1.5305  1.1496 -0.4365
 2459SOL     OW 9818  10.001   9.355   1.793 -0.1199  0.2403  0.0861
 2459SOL    HW1 9819   9.976   9.389   1.879  1.1940 -0.4354  0.7750
 2459SOL    HW2 9820  10.069   9.415   1.763  1.3576 -1.0001  0.7747
 2460SOL     OW 9821   1.057  10.365   6.571  0.1810 -0.0514 -0.5358
 2460SOL    HW1 9822   0.985  10.359   6.634  0.5581 -2.2462 -0.2140
 2460SOL    HW2 9823   1.090  10.454   6.580 -0.7148  0.1396  1.3068
 2461SOL     OW 9824   3.555   4.608   3.166 -0.1094 -0.5975 -0.0343
 2461SOL    HW1 9825   3.600   4.563   3.237 -0.9137 -2.0072 -0.3764
 2461SOL    HW2 9826   3.547   4.699   3.195  0.9727 -0.8114  0.9674
 2462SOL     OW 9827   8.177   8.635   7.571 -0.5287  0.1282 -0.5337
 2462SOL    HW1 9828   8.225   8.565   7.615  0.5020  1.3165  0.3094
 2462SOL    HW2 9829   8.089   8.631   7.609  0.4030  1.3264  2.0381
 2463SOL     OW 9830   7.698   4.580   7.295 -0.1779  0.7581  0.0929
 2463SOL    HW1 9831   7.672   4.495   7.259  0.9743  0.3313  0.2393
 2463SOL    HW2 9832   7.626   4.639   7.272 -1.4330 -0.4545  0.7865
 2464SOL     OW 9833  10.140   3.588   9.983 -0.0241  0.2470 -0.4764
 2464SOL    HW1 9834  10.045   3.589   9.972 -0.0712  1.1648 -0.0497
 2464SOL    HW2 9835  10.155   3.529  10.057 -0.2525  0.1013 -0.5432
 2465SOL     OW 9836   0.831   0.997   7.790 -0.0146 -0.7051 -0.6122
 2465SOL    HW1 9837   0.900   0.941   7.825 -1.4013 -2.4214 -0.4719
 2465SOL    HW2 9838   0.784   1.028   7.867  1.4945  1.8260 -0.5897
 2466SOL     OW 9839   1.550   7.381   8.825  0.7166 -0.8559 -0.3420
 2466SOL    HW1 9840   1.641   7.411   8.828  0.2495  0.5887  1.4047
 2466SOL    HW2 9841   1.550   7.301   8.877  1.1659 -1.4917 -1.2907
 2467SOL     OW 9842   9.457   5.778   5.369 -0.3162 -0.0501  0.1781
 2467SOL    HW1 9843   9.466   5.706   5.431 -0.0889 -0.9556 -0.8784
 2467SOL    HW2 9844   9.479   5.856   5.420 -0.9617 -0.6671  1.4460
 2468SOL     OW 9845   5.615   3.537   2.221 -0.5152 -0.9129 -0.3657
 2468SOL    HW1 9846   5.636   3.572   2.307 -1.1343 -2.7557  0.5942
 2468SOL    HW2 9847   5.661   3.594   2.160 -2.5066  2.3617  0.9345
 2469SOL     OW 9848   6.654   5.718   8.459  0.1967 -0.2585 -0.2668
 2469SOL    HW1 9849   6.696   5.803   8.477  1.1047 -0.3508 -1.7735
 2469SOL    HW2 9850   6.564   5.740   8.438  0.2836  0.2836 -0.0986
 2470SOL     OW 9851   8.739   5.376   2.523  0.1507  1.0027 -0.1904
 2470SOL    HW1 9852   8.825   5.414   2.540  0.0985  0.1340  2.4536
 2470SOL    HW2 9853   8.736   5.299   2.579 -2.6004  1.3824  0.3142
 2471SOL     OW 9854   6.117   5.782   9.538  0.5365 -0.5167  0.5347
 2471SOL    HW1 9855   6.111   5.878   9.541  0.4623 -0.5343  1.0810
 2471SOL    HW2 9856   6.034   5.755   9.497  0.5303 -0.3513  0.4334
 2472SOL     OW 9857   0.790   3.198   4.622 -0.3266 -0.1450  0.5632
 2472SOL    HW1 9858   0.702   3.233   4.607 -0.4854 -0.4689  0.7189
 2472SOL    HW2 9859   0.779   3.138   4.696 -0.3322 -1.5599 -0.5543
 2473SOL     OW 9860   7.266   5.757   2.697 -1.0459  0.8358  0.3171
 2473SOL    HW1 9861   7.357   5.746   2.670 -1.4688  2.2977 -2.0089
 2473SOL    HW2 9862   7.271   5.774   2.790  0.9665  0.0190  0.4240
 2474SOL     OW 9863   0.274   0.561   4.572 -0.4259  0.0529  0.2551
 2474SOL    HW1 9864   0.351   0.580   4.625  0.9329  0.0592 -1.6015
 2474SOL    HW2 9865   0.310   0.532   4.488 -2.4700 -0.7909 -0.3824
 2475SOL     OW 9866   1.290   0.354  10.259  0.1793 -0.0309 -0.2546
 2475SOL    HW1 9867   1.317   0.268  10.292 -1.0520  0.4060  2.0337
 2475SOL    HW2 9868   1.230   0.334  10.187  0.2688 -1.0681 -0.0558
 2476SOL     OW 9869  10.122   9.864   5.615 -0.1483 -0.0956  0.1542
 2476SOL    HW1 9870  10.182   9.862   5.689  1.1100  1.4829 -0.7651
 2476SOL    HW2 9871  10.157   9.932   5.557 -1.6598 -0.5737 -1.4106
 2477SOL     OW 9872   4.505   7.987   9.460  0.1153 -0.4260  0.2840
 2477SOL    HW1 9873   4.442   8.052   9.427  0.2501 -0.3587  0.1593
 2477SOL    HW2 9874   4.493   7.989   9.555  0.8979  0.6049  0.3856
 2478SOL     OW 9875   8.567   9.136   4.637  0.6591 -0.2058  0.1058
 2478SOL    HW1 9876   8.542   9.155   4.727  0.1546 -1.4557  0.2467
 2478SOL    HW2 9877   8.650   9.183   4.624  0.4168  0.4890  1.0107
 2479SOL     OW 9878   7.442   4.283   1.015 -0.0222 -0.3668 -0.3997
 2479SOL    HW1 9879   7.496   4.239   1.081  1.4431  2.0761  0.1578
 2479SOL    HW2 9880   7.501   4.348   0.975 -1.0544 -1.2149 -3.6402
 2480SOL     OW 9881   0.413   7.853   1.726  0.1950  0.6695  0.1214
 2480SOL    HW1 9882   0.323   7.857   1.761  0.4131  1.3787  0.6363
 2480SOL    HW2 9883   0.417   7.770   1.679 -0.1107 -0.3361  1.7948
 2481SOL     OW 9884   1.535   9.339   8.798  0.1064 -0.5103  0.2064
 2481SOL    HW1 9885   1.457   9.299   8.836 -0.0419 -1.3508 -0.9139
 2481SOL    HW2 9886   1.587   9.264   8.767  0.1384  0.1301 -1.3559
 2482SOL     OW 9887   5.480   1.861   2.479 -0.2545 -0.2425  0.1653
 2482SOL    HW1 9888   5.449   1.786   2.428 -2.4080 -0.4882  1.6809
 2482SOL    HW2 9889   5.572   1.841   2.498 -0.2095 -1.4832 -1.1862
 2483SOL     OW 9890   4.336   0.388   0.757  0.5625  0.0883 -0.0875
 2483SOL    HW1 9891   4.399   0.455   0.783  2.7290 -0.6533 -2.9259
 2483SOL    HW2 9892   4.361   0.364   0.667 -2.1891 -2.1452 -0.4234
 2484SOL     OW 9893   9.542   4.697   9.198 -0.1547 -0.1200  0.4241
 2484SOL    HW1 9894   9.606   4.630   9.220  3.0630  2.5722  0.0344
 2484SOL    HW2 9895   9.540   4.754   9.274 -1.2171  0.5219 -0.0588
 2485SOL     OW 9896   3.450   6.206   8.868  0.2380 -0.3427  0.4094
 2485SOL    HW1 9897   3.527   6.153   8.887 -0.0998 -1.0301 -0.0972
 2485SOL    HW2 9898   3.430   6.186   8.776 -2.0250 -2.1183  1.2193
 2486SOL     OW 9899   9.674   8.767   7.734 -0.0679  0.2354  0.1683
 2486SOL    HW1 9900   9.667   8.795   7.642  0.5049 -1.0283 -0.2771
 2486SOL    HW2 9901   9.590   8.726   7.753 -0.4083  1.0164  0.4111
 2487SOL     OW 9902   9.689   7.796   0.130  0.2873  0.0643  0.1490
 2487SOL    HW1 9903   9.631   7.740   0.182 -0.7492  0.9497 -0.0265
 2487SOL    HW2 9904   9.725   7.858   0.194 -0.6268  0.8592 -0.0885
 2488SOL     OW 9905   5.097   9.753   6.461 -0.3621  0.4910  0.7575
 2488SOL    HW1 9906   5.082   9.658   6.453 -0.6201  0.5918 -0.0598
 2488SOL    HW2 9907   5.128   9.765   6.551 -2.0289 -0.1370  1.4475
 2489SOL     OW 9908   8.621   8.380   8.817 -0.0915 -0.1515  0.5676
 2489SOL    HW1 9909   8.577   8.342   8.893  2.0243 -1.2025  1.3559
 2489SOL    HW2 9910   8.602   8.473   8.822 -1.2081 -0.4072  1.5186
 2490SOL     OW 9911   8.508   5.695   7.309  0.5250  0.1009 -0.3146
 2490SOL    HW1 9912   8.494   5.603   7.332 -0.5980  0.6449  1.3731
 2490SOL    HW2 9913   8.512   5.740   7.393 -2.7146  2.1048 -1.0817
 2491SOL     OW 9914   0.069   9.172   7.275  0.2197 -0.0897 -0.1432
 2491SOL    HW1 9915  -0.001   9.221   7.233 -0.6118 -0.7870  0.3773
 2491SOL    HW2 9916   0.040   9.080   7.271  1.4006 -0.4734 -0.4710
 2492SOL     OW 9917   0.220   5.334   4.900 -0.3715 -0.5226  0.3050
 2492SOL    HW1 9918   0.197   5.305   4.989  2.1425 -0.8062  0.9389
 2492SOL    HW2 9919   0.264   5.258   4.861  1.3426  0.5896 -0.0159
 2493SOL     OW 9920   8.043   7.222   2.263  0.4474  0.8677 -0.2600
 2493SOL    HW1 9921   8.125   7.249   2.222  1.3136  2.1639  2.1265
 2493SOL    HW2 9922   8.037   7.276   2.341 -1.0533 -1.4487  1.3487
 2494SOL     OW 9923   4.201   3.162   4.541  0.1837  0.4617  0.3819
 2494SOL    HW1 9924   4.227   3.250   4.570 -0.5798  0.7740  0.1554
 2494SOL    HW2 9925   4.106   3.168   4.530  0.1608 -0.3204  0.1050
 2495SOL     OW 9926   2.931   9.099   0.221  0.0070 -0.2790 -0.2444
 2495SOL    HW1 9927   2.950   9.181   0.267  2.5821 -1.6152  1.2815
 2495SOL    HW2 9928   2.838   9.083   0.240  0.0575  1.0900  1.4405
 2496SOL     OW 9929   1.321   4.724   6.153  0.1835  0.1192  0.2372
 2496SOL    HW1 9930   1.309   4.779   6.230  0.1661 -0.4972  0.6790
 2496SOL    HW2 9931   1.315   4.635   6.186  1.4641 -0.1700 -0.2730
 2497SOL     OW 9932   0.864   6.669  10.404 -0.1260  0.0365  1.0014
 2497SOL    HW1 9933   0.908   6.610  10.342 -1.8332 -1.5573  1.1980
 2497SOL    HW2 9934   0.891   6.756  10.378  0.8582 -0.7178 -0.6708
 2498SOL     OW 9935   1.607   8.475   2.804  0.2920  0.3392  0.1140
 2498SOL    HW1 9936   1.635   8.549   2.751 -1.0139  0.2983 -0.6634
 2498SOL    HW2 9937   1.580   8.408   2.741  0.3365 -0.3543  0.8111
 2499SOL     OW 9938   4.595   9.040   7.076  0.8248  0.2450 -0.0336
 2499SOL    HW1 9939   4.574   9.028   6.983 -0.0971  0.7233  0.1067
 2499SOL    HW2 9940   4.676   8.990   7.088 -0.0815 -1.4750 -0.6363
 2500SOL     OW 9941   3.955   0.314   9.450 -0.6702  0.1279  0.4934
 2500SOL    HW1 9942   3.893   0.373   9.408 -0.7646 -0.3127 -0.0053
 2500SOL    HW2 9943   3.944   0.330   9.544 -2.9875 -1.3229  0.5443
 2501SOL     OW 9944   3.369   0.736   6.350  0.3038  0.0287 -0.9460
 2501SOL    HW1 9945   3.300   0.728   6.284 -1.0315  0.6396  0.3179
 2501SOL    HW2 9946   3.376   0.648   6.388  1.4009 -0.4380 -2.1808
 2502SOL     OW 9947   6.635   6.247   7.156  0.5150  0.0448  0.4010
 2502SOL    HW1 9948   6.599   6.162   7.131 -0.2643  0.1258  1.2007
 2502SOL    HW2 9949   6.646   6.241   7.251  0.7731  0.7177  0.4179
 2503SOL     OW 9950   8.282   3.021   5.309  0.5029 -0.1613  0.0766
 2503SOL    HW1 9951   8.338   3.001   5.384  0.5486 -1.1167 -0.1916
 2503SOL    HW2 9952   8.291   2.945   5.252 -0.4833  0.0081 -0.3256
 2504SOL     OW 9953   3.417   6.501   2.233 -0.0456 -0.4024 -0.1572
 2504SOL    HW1 9954   3.333   6.507   2.278  0.2964 -1.2227  0.6104
 2504SOL    HW2 9955   3.455   6.419   2.263  1.3934  0.3362  0.1113
 2505SOL     OW 9956   9.505   2.385   5.351  0.1105  0.0689 -0.4307
 2505SOL    HW1 9957   9.517   2.363   5.443  2.7073 -1.3677 -1.0127
 2505SOL    HW2 9958   9.478   2.303   5.310 -0.2738  0.5142 -1.0832
 2506SOL     OW 9959   0.037   6.873   7.497 -0.1621  0.5022  0.4751
 2506SOL    HW1 9960  -0.052   6.887   7.464 -0.0984  1.7606  0.8218
 2506SOL    HW2 9961   0.094   6.907   7.429  0.0419  0.2692  0.5278
 2507SOL     OW 9962   5.984   6.584   2.456  0.0768  0.2897 -0.3911
 2507SOL    HW1 9963   5.958   6.540   2.375 -0.9833  0.5384 -0.1939
 2507SOL    HW2 9964   5.938   6.538   2.525  0.2298  0.6847 -0.0177
 2508SOL     OW 9965   3.815   0.461   1.362  0.3984 -0.0704 -0.4975
 2508SOL    HW1 9966   3.726   0.466   1.397  0.8630  0.5550  0.6653
 2508SOL    HW2 9967   3.833   0.549   1.329  0.1441 -0.5300 -1.9069
 2509SOL     OW 9968  10.164   3.948   2.054 -0.2549 -0.0904  0.2347
 2509SOL    HW1 9969  10.188   3.857   2.034  0.1056 -0.2131  1.1795
 2509SOL    HW2 9970  10.244   3.988   2.085 -0.1728  0.8617 -1.1346
 2510SOL     OW 9971   2.939   3.651   5.158  0.9271 -0.4782  0.3721
 2510SOL    HW1 9972   3.000   3.594   5.206 -0.7362 -1.7458  1.0798
 2510SOL    HW2 9973   2.857   3.602   5.156 -0.4426  1.6904  0.5505
 2511SOL     OW 9974   1.440   7.425   4.125 -0.7348  0.0118 -0.2396
 2511SOL    HW1 9975   1.384   7.404   4.050 -0.8294  1.7777 -0.6942
 2511SOL    HW2 9976   1.528   7.404   4.096 -0.8791 -0.3094 -0.4565
 2512SOL     OW 9977   5.891   9.251   6.223  0.7158 -0.0898  0.5156
 2512SOL    HW1 9978   5.887   9.186   6.293  0.2822  1.3339  1.8711
 2512SOL    HW2 9979   5.800   9.280   6.212  1.2939  3.2275  2.9000
 2513SOL     OW 9980   6.354   2.222   4.826  0.0719  0.3675 -0.4113
 2513SOL    HW1 9981   6.357   2.157   4.896  1.0956  1.0472  0.2021
 2513SOL    HW2 9982   6.370   2.306   4.869 -0.4205  0.9405 -1.3016
 2514SOL     OW 9983   6.209   8.837   9.381 -0.5146 -0.1755  0.5120
 2514SOL    HW1 9984   6.286   8.888   9.358 -0.1578 -1.4900 -1.4898
 2514SOL    HW2 9985   6.140   8.901   9.393  0.5569  0.9392  0.9275
 2515SOL     OW 9986   9.205   8.503   3.557 -0.8044  0.0744  0.7831
 2515SOL    HW1 9987   9.295   8.472   3.550  0.2332  2.9446 -0.2698
 2515SOL    HW2 9988   9.162   8.440   3.614  1.5173 -2.0949  0.3239
 2516SOL     OW 9989   2.531   1.238   5.138  0.3081  0.3110  0.6577
 2516SOL    HW1 9990   2.597   1.296   5.101  0.0142  1.3262  1.6819
 2516SOL    HW2 9991   2.577   1.189   5.206  0.7367 -1.2347 -0.6668
 2517SOL     OW 9992   8.238   4.801   7.230  0.1159 -0.5172  0.0845
 2517SOL    HW1 9993   8.273   4.793   7.141  0.8422  0.0042  0.3171
 2517SOL    HW2 9994   8.303   4.854   7.276 -1.0503  0.5937  0.4917
 2518SOL     OW 9995   2.795   5.243   9.327 -0.5487 -0.5482  0.2281
 2518SOL    HW1 9996   2.765   5.170   9.273 -2.0915 -0.2655  0.6623
 2518SOL    HW2 9997   2.849   5.203   9.395 -2.3202 -1.4388  1.1513
 2519SOL     OW 9998   3.329   0.623   2.403 -0.2364 -0.0261 -0.2116
 2519SOL    HW1 9999   3.386   0.648   2.476  1.8104 -1.6883 -1.1126
 2519SOL    HW210000   3.283   0.703   2.379  0.4409  0.9955  1.6702
 2520SOL     OW10001   0.683   2.743   5.892 -0.4075 -0.5904 -0.0787
 2520SOL    HW110002   0.647   2.669   5.843 -0.1442 -0.7522 -0.0291
 2520SOL    HW210003   0.664   2.819   5.837  0.1460 -0.8047 -0.5816
 2521SOL     OW10004   9.354  10.289   7.993  0.3092  0.1166  0.2211
 2521SOL    HW110005   9.336  10.236   7.915  0.9976  1.1567 -0.6894
 2521SOL    HW210006   9.419  10.239   8.042  0.1081 -0.4043 -0.0398
 2522SOL     OW10007   0.907   0.729   0.813 -0.2788  0.4927  0.0289
 2522SOL    HW110008   0.883   0.645   0.853 -1.6261  0.8889  0.1011
 2522SOL    HW210009   0.972   0.706   0.746 -1.4119 -0.7697 -0.7010
 2523SOL     OW10010   9.856   0.434   8.668  0.2211  0.6731  0.2974
 2523SOL    HW110011   9.764   0.425   8.643  0.2796  0.6288  0.0899
 2523SOL    HW210012   9.866   0.380   8.746  0.5841 -1.1512 -0.9486
 2524SOL     OW10013   3.066   0.851   7.402 -0.0028 -0.5244  0.0493
 2524SOL    HW110014   3.111   0.838   7.485  0.3776 -0.1846 -0.1014
 2524SOL    HW210015   3.113   0.923   7.360 -1.0017  0.1818  0.1106
 2525SOL     OW10016   4.508   3.550   9.519 -0.1571  0.2041  0.3520
 2525SOL    HW110017   4.559   3.610   9.574  1.0844 -1.3821  1.0137
 2525SOL    HW210018   4.548   3.558   9.432 -1.7358  2.2681 -0.2576
 2526SOL     OW10019   9.572   1.314   4.476  0.0025 -0.2732  0.1996
 2526SOL    HW110020   9.666   1.295   4.476  0.5604  1.9115  2.1092
 2526SOL    HW210021   9.542   1.284   4.562 -0.6607  0.5267  0.2610
 2527SOL     OW10022   9.237   7.674   3.881 -0.0878  0.3139  0.1191
 2527SOL    HW110023   9.230   7.590   3.836  1.2731  1.1206 -1.6981
 2527SOL    HW210024   9.274   7.652   3.967 -0.5048 -1.0140 -0.0210
 2528SOL     OW10025   8.193   5.412   5.095 -0.8221  0.0977  0.5318
 2528SOL    HW110026   8.243   5.488   5.063 -1.1287  0.5820  1.1894
 2528SOL    HW210027   8.175   5.361   5.016 -2.9384  2.0633 -0.3839
 2529SOL     OW10028   2.259   5.185   8.058 -0.5040 -0.4116  0.7651
 2529SOL    HW110029   2.261   5.159   7.966  2.1850  1.2830  0.2441
 2529SOL    HW210030   2.316   5.123   8.102 -0.4773 -0.2431  0.9707
 2530SOL     OW10031   1.248   4.700   8.067  0.5048  0.8584  0.1815
 2530SOL    HW110032   1.326   4.724   8.018  0.3769 -0.1620 -0.5576
 2530SOL    HW210033   1.211   4.626   8.019 -0.2638  0.5635  1.1812
 2531SOL     OW10034   3.299   1.327   1.578  0.0814  0.3361 -0.0166
 2531SOL    HW110035   3.351   1.246   1.585 -1.0358 -0.4307 -0.3020
 2531SOL    HW210036   3.208   1.297   1.586 -0.3029  1.7241  1.1815
 2532SOL     OW10037   9.571   7.738   7.987  0.4942  0.2464 -0.1667
 2532SOL    HW110038   9.572   7.724   8.081 -0.9322  0.3054 -0.1122
 2532SOL    HW210039   9.645   7.797   7.970  1.1829 -0.3146  0.8026
 2533SOL     OW10040   4.506   7.593   3.863  0.0254 -0.3350 -0.0509
 2533SOL    HW110041   4.487   7.523   3.925 -0.3108  0.2913  0.5619
 2533SOL    HW210042   4.581   7.639   3.901 -0.7049  0.5602  0.3159
 2534SOL     OW10043   5.545   0.612   3.947  0.3983  0.0247 -0.3850
 2534SOL    HW110044   5.480   0.612   3.877 -1.2879 -1.5509  1.0877
 2534SOL    HW210045   5.558   0.519   3.967  0.3724  0.4517  1.7873
 2535SOL     OW10046   7.914   1.154   9.650 -0.8417 -0.0055 -0.0947
 2535SOL    HW110047   7.947   1.121   9.733 -1.2605 -0.6289 -0.1742
 2535SOL    HW210048   7.819   1.144   9.655 -0.7939 -1.3560 -1.1685
 2536SOL     OW10049   5.962   0.443   7.869  0.5197 -0.7485  0.3391
 2536SOL    HW110050   5.989   0.378   7.933 -0.8012  0.0630  1.7899
 2536SOL    HW210051   5.876   0.472   7.899  0.7254  1.1051 -0.6935
 2537SOL     OW10052   8.715   2.778   0.616 -0.2899  0.4588  0.0553
 2537SOL    HW110053   8.727   2.869   0.640 -2.1440  0.4343  1.3445
 2537SOL    HW210054   8.701   2.779   0.521 -0.6812  1.5712  0.1171
 2538SOL     OW10055   5.381   3.154   9.324  0.2716 -0.0434  0.2993
 2538SOL    HW110056   5.323   3.080   9.342  1.2042 -0.5086  1.5639
 2538SOL    HW210057   5.443   3.121   9.259  0.7122 -0.4129  0.8933
 2539SOL     OW10058   7.595   9.448   5.446  0.6253 -0.0709 -0.4210
 2539SOL    HW110059   7.557   9.478   5.529 -0.2281 -1.9254 -0.0852
 2539SOL    HW210060   7.553   9.363   5.430  0.6978  0.2708 -2.8126
 2540SOL     OW10061   8.364   8.534   8.612 -0.0246  0.1406 -0.1291
 2540SOL    HW110062   8.443   8.530   8.558 -0.0416 -0.1663 -0.1329
 2540SOL    HW210063   8.395   8.560   8.699  0.1987 -0.7959  0.0898
 2541SOL     OW10064   9.964   1.443   7.193 -0.3964 -0.3671 -0.4743
 2541SOL    HW110065   9.951   1.356   7.154 -0.8797  0.1016 -1.3888
 2541SOL    HW210066   9.965   1.503   7.118 -1.3765  0.5695  0.2280
 2542SOL     OW10067   6.556   8.058   0.045  0.1407 -0.5427 -0.3182
 2542SOL    HW110068   6.531   8.087   0.133 -0.6134 -1.0419 -0.3545
 2542SOL    HW210069   6.606   7.978   0.059 -0.1970 -0.7624 -0.3491
 2543SOL     OW10070   8.999   9.744  10.435  0.0006 -0.7365  0.1729
 2543SOL    HW110071   8.930   9.804  10.463  1.0557  0.0198  1.2810
 2543SOL    HW210072   8.953   9.664  10.408 -1.5968  1.0035 -2.8295
 2544SOL     OW10073   2.472   1.351   3.756  0.0131  0.3775  0.4263
 2544SOL    HW110074   2.393   1.356   3.810 -0.1032 -0.3880  0.3412
 2544SOL    HW210075   2.504   1.262   3.769  0.5389  0.4988  0.0018
 2545SOL     OW10076   2.654   8.270   8.453 -0.9687  0.1383 -0.0088
 2545SOL    HW110077   2.700   8.187   8.447 -1.0417  0.1111 -0.2086
 2545SOL    HW210078   2.605   8.276   8.371 -1.8085 -0.1160  0.4737
 2546SOL     OW10079   5.788   8.098   1.533 -0.0068  0.4071  0.3804
 2546SOL    HW110080   5.703   8.098   1.489  0.8210  0.7090 -1.3164
 2546SOL    HW210081   5.787   8.177   1.587 -1.0761 -0.0070  1.0134
 2547SOL     OW10082   8.732   8.885   6.875  0.3710 -0.0938  0.4395
 2547SOL    HW110083   8.669   8.931   6.930  1.6872  0.5081  1.4990
 2547SOL    HW210084   8.808   8.871   6.931  2.4584  2.0163 -1.6211
 2548SOL     OW10085   5.264   4.279   9.724 -0.2157 -0.1881  0.4460
 2548SOL    HW110086   5.300   4.314   9.642 -1.3179 -0.9364 -0.3795
 2548SOL    HW210087   5.201   4.346   9.753 -2.9447 -1.6911 -1.5696
 2549SOL     OW10088  10.410   5.474   7.803 -1.0868 -0.3592  0.0293
 2549SOL    HW110089  10.488   5.527   7.821 -1.7006  0.0977  1.5730
 2549SOL    HW210090  10.340   5.538   7.794 -1.0493 -0.6238 -3.3169
 2550SOL     OW10091   8.882   5.579   4.613  0.4215  0.4362 -0.1107
 2550SOL    HW110092   8.954   5.516   4.617  0.9871  0.8802 -2.2203
 2550SOL    HW210093   8.922   5.658   4.576 -1.1219  0.7225 -1.2387
 2551SOL     OW10094  10.235   0.480  10.140 -0.0230  0.1993 -0.4627
 2551SOL    HW110095  10.180   0.478  10.062  0.7905 -1.0751 -1.0506
 2551SOL    HW210096  10.315   0.526  10.112 -0.1283  0.6187 -0.0862
 2552SOL     OW10097   1.695   4.820   4.887  0.3754  0.2948  0.0695
 2552SOL    HW110098   1.786   4.791   4.892  0.4523  0.2226 -1.3767
 2552SOL    HW210099   1.644   4.749   4.925  0.8766  0.1126  0.4076
 2553SOL     OW10100   8.561   1.215   2.622  0.0628  0.0541  0.5199
 2553SOL    HW110101   8.475   1.253   2.603  0.3745  1.1741  1.2557
 2553SOL    HW210102   8.544   1.154   2.694  0.1477  1.7437  2.0647
 2554SOL     OW10103   6.009   6.297   7.052  0.0826  0.5877 -0.7684
 2554SOL    HW110104   5.998   6.246   7.132  1.6902  1.4900  0.0957
 2554SOL    HW210105   6.076   6.250   7.003 -1.2502 -0.2351 -1.8603
 2555SOL     OW10106   6.963   2.493   8.528 -0.7732  0.2705  0.0871
 2555SOL    HW110107   6.980   2.552   8.455  2.3407 -0.6893 -0.1356
 2555SOL    HW210108   6.949   2.408   8.488 -0.6582  0.0317  0.5412
 2556SOL     OW10109   5.542   0.488   3.498 -0.3344  0.1724  0.4841
 2556SOL    HW110110   5.565   0.395   3.488 -0.4726  0.1230  0.6192
 2556SOL    HW210111   5.618   0.528   3.539  0.3595  0.4292 -0.9626
 2557SOL     OW10112   8.881   0.989   6.912 -0.1734 -0.0381  0.4248
 2557SOL    HW110113   8.937   1.056   6.871 -0.1923 -0.4105 -0.2234
 2557SOL    HW210114   8.942   0.923   6.943 -0.2530 -0.6023 -0.5698
 2558SOL     OW10115   7.830   3.288   7.776  0.2262 -0.0253 -0.0329
 2558SOL    HW110116   7.913   3.260   7.739  0.1456  0.6422 -0.7471
 2558SOL    HW210117   7.763   3.243   7.724  0.1125 -1.9622  1.6540
 2559SOL     OW10118   9.037   6.442   0.407  0.9421 -0.1839  0.4431
 2559SOL    HW110119   9.041   6.389   0.327  1.5946  0.3313  0.1193
 2559SOL    HW210120   8.982   6.516   0.383 -0.1201 -0.7961  0.9516
 2560SOL     OW10121   4.366   7.553   2.386 -0.6158  0.4554 -0.2677
 2560SOL    HW110122   4.280   7.513   2.380 -1.3848  0.9799  3.8490
 2560SOL    HW210123   4.348   7.645   2.405  0.7419  0.3762  1.7193
 2561SOL     OW10124   3.384   6.277   0.670  0.2195 -0.2759  0.2432
 2561SOL    HW110125   3.436   6.340   0.620 -2.1783  1.4708 -0.2523
 2561SOL    HW210126   3.404   6.192   0.630  0.7043  0.6716 -1.6689
 2562SOL     OW10127  10.189   1.529   7.786  0.6230  0.1924 -1.1261
 2562SOL    HW110128  10.182   1.506   7.879 -1.7740  1.0650 -1.0194
 2562SOL    HW210129  10.117   1.589   7.771  1.7253  1.0735 -3.2997
 2563SOL     OW10130   3.987   5.048   1.415 -0.2695  0.2265  0.1332
 2563SOL    HW110131   4.030   5.121   1.461 -1.1406 -0.1852  1.6972
 2563SOL    HW210132   3.944   4.998   1.485  0.1752 -1.7161 -0.9038
 2564SOL     OW10133   0.278   2.897   9.316  0.0483  0.3696  0.0997
 2564SOL    HW110134   0.216   2.852   9.373 -0.7123  1.0486 -0.1709
 2564SOL    HW210135   0.230   2.912   9.235  1.2748 -1.0565 -0.9629
 2565SOL     OW10136  10.280   8.290   7.767 -0.5052 -0.4864  0.2934
 2565SOL    HW110137  10.202   8.346   7.769 -1.2588 -1.4680 -0.5026
 2565SOL    HW210138  10.339   8.334   7.707 -0.0335  0.7523  1.6066
 2566SOL     OW10139   2.153   4.802   0.763  0.4619  0.4819  0.9200
 2566SOL    HW110140   2.127   4.893   0.779  1.2261  0.9092 -0.1408
 2566SOL    HW210141   2.168   4.798   0.668  2.3550 -0.2313  1.2040
 2567SOL     OW10142   0.040   5.451   1.284 -0.3486 -0.0238 -0.4249
 2567SOL    HW110143   0.111   5.416   1.339  0.0691  1.2901 -0.0946
 2567SOL    HW210144  -0.040   5.424   1.329 -0.2107 -3.1514 -1.7707
 2568SOL     OW10145   4.003   2.926   1.948  0.4082  0.2201  0.2046
 2568SOL    HW110146   4.071   2.859   1.939  1.8692  1.5101  1.2091
 2568SOL    HW210147   4.017   2.984   1.874  0.1853  0.3188  0.2394
 2569SOL     OW10148   3.569   6.188   6.142 -1.0685  0.2001  0.7362
 2569SOL    HW110149   3.581   6.244   6.065 -0.3404 -0.3768  0.4093
 2569SOL    HW210150   3.510   6.119   6.112 -0.1206 -0.4998  0.4142
 2570SOL     OW10151  10.198   3.577   0.391 -0.3366  0.3843  0.4190
 2570SOL    HW110152  10.183   3.488   0.358 -0.7500  0.1205  1.2880
 2570SOL    HW210153  10.125   3.628   0.355 -0.7457  0.1147  0.8464
 2571SOL     OW10154  10.249   8.088   3.830 -1.0321  0.3544  0.0198
 2571SOL    HW110155  10.345   8.080   3.832 -1.1209 -3.7067 -2.1116
 2571SOL    HW210156  10.221   8.051   3.914 -0.7369 -0.7651 -0.3546
 2572SOL     OW10157   7.458   2.482   4.716 -0.4608 -0.2142  0.3854
 2572SOL    HW110158   7.432   2.523   4.634 -0.6870 -1.0383  0.0303
 2572SOL    HW210159   7.380   2.486   4.771 -0.6953 -0.7698  0.1010
 2573SOL     OW10160   5.611   4.996   6.020  0.1876 -0.1386 -0.5983
 2573SOL    HW110161   5.668   5.072   6.031  1.0905 -0.6977 -1.2204
 2573SOL    HW210162   5.523   5.032   6.016  0.3003  0.6360  1.9595
 2574SOL     OW10163   1.127   9.835   3.858  0.0491  0.4048  0.1275
 2574SOL    HW110164   1.168   9.883   3.931 -1.0440  0.2973  0.8403
 2574SOL    HW210165   1.136   9.743   3.882  1.0811  0.2885 -0.6566
 2575SOL     OW10166   2.520   7.617  10.164  0.1711 -0.2997 -0.1373
 2575SOL    HW110167   2.446   7.652  10.215  0.7220  0.4447  0.1555
 2575SOL    HW210168   2.547   7.689  10.107  2.7205  0.5935  2.0159
 2576SOL     OW10169   4.168   3.273   2.076  0.7053  0.3617 -0.0174
 2576SOL    HW110170   4.109   3.314   2.139  1.6666  0.2162  1.0011
 2576SOL    HW210171   4.213   3.346   2.033 -0.7792  0.5157 -1.4139
 2577SOL     OW10172  10.377   3.928   3.678  0.2758 -0.6026  0.0929
 2577SOL    HW110173  10.312   3.952   3.611 -0.5139 -1.1792  0.6315
 2577SOL    HW210174  10.454   3.981   3.657 -0.7189  0.8744  0.0420
 2578SOL     OW10175   6.802   5.522   5.208 -0.2373 -0.9328 -0.0502
 2578SOL    HW110176   6.795   5.493   5.117  1.2136  0.4354 -0.6342
 2578SOL    HW210177   6.773   5.613   5.206  2.3843 -0.0166  0.2860
 2579SOL     OW10178   2.612   8.615   3.217 -0.0080 -0.2590 -0.0988
 2579SOL    HW110179   2.649   8.680   3.158 -0.6837  0.4741  0.2547
 2579SOL    HW210180   2.535   8.658   3.255  1.0217 -0.2770  2.1660
 2580SOL     OW10181   1.096   6.639   7.079 -0.0873 -0.1726  0.3845
 2580SOL    HW110182   1.145   6.603   7.005  0.5517 -0.5477  0.9825
 2580SOL    HW210183   1.005   6.638   7.049  0.1622 -0.2925 -0.4083
 2581SOL     OW10184  10.097   1.504   7.422  0.3805  0.3153 -0.2290
 2581SOL    HW110185  10.046   1.501   7.341  1.6286 -0.2071 -1.0261
 2581SOL    HW210186  10.052   1.445   7.481 -1.1394  1.4870 -0.1646
 2582SOL     OW10187   1.539   5.661   1.074  0.6001 -0.0477 -0.2577
 2582SOL    HW110188   1.572   5.605   1.004  1.6933 -1.5525  1.3447
 2582SOL    HW210189   1.502   5.737   1.030  1.2050 -0.9491 -2.4338
 2583SOL     OW10190   7.223   1.364   5.455 -0.3035 -0.2696  0.5237
 2583SOL    HW110191   7.192   1.427   5.390  1.6882 -0.4595 -0.7005
 2583SOL    HW210192   7.265   1.419   5.522  1.6136 -0.2443 -0.6459
 2584SOL     OW10193   0.977   5.323   7.067 -0.6235 -0.4399  0.5304
 2584SOL    HW110194   1.026   5.355   6.991 -1.6473 -0.6970 -0.2542
 2584SOL    HW210195   0.989   5.392   7.133 -1.2092  0.6633 -0.4766
 2585SOL     OW10196   9.910   2.501   3.973 -0.1726 -0.0493  0.3106
 2585SOL    HW110197   9.980   2.493   4.038  0.5216 -0.5974 -0.4914
 2585SOL    HW210198   9.953   2.484   3.889 -1.2738 -0.4209 -0.1906
 2586SOL     OW10199   7.329   5.736   1.149  0.0682 -0.2226 -0.3979
 2586SOL    HW110200   7.312   5.670   1.217 -0.4578 -0.6066 -0.9002
 2586SOL    HW210201   7.409   5.706   1.107 -1.5080 -2.0101 -2.3415
 2587SOL     OW10202   8.473   6.241   5.870 -0.7363  0.0670 -0.7455
 2587SOL    HW110203   8.499   6.250   5.778 -0.5314  0.6084 -0.6398
 2587SOL    HW210204   8.444   6.329   5.895 -0.1678  0.0836 -0.1101
 2588SOL     OW10205   7.739   3.962   8.386 -0.3015 -0.6506  0.4368
 2588SOL    HW110206   7.720   3.959   8.480 -0.2853 -2.4612  0.4148
 2588SOL    HW210207   7.788   3.882   8.369  0.4742  0.0814 -0.9748
 2589SOL     OW10208   7.930   5.269   4.897 -0.3133  0.5155 -0.7665
 2589SOL    HW110209   8.025   5.264   4.890 -0.2968  1.1955 -1.0450
 2589SOL    HW210210   7.898   5.216   4.824 -0.1402  2.0771 -2.0142
 2590SOL     OW10211   8.359   5.960   5.319 -0.4016  0.1295  0.3585
 2590SOL    HW110212   8.446   6.001   5.317 -0.4869  0.3362  0.7830
 2590SOL    HW210213   8.346   5.927   5.230  1.1702 -2.1125  0.8708
 2591SOL     OW10214   4.039   2.487   0.459  0.2043  0.2172  0.5210
 2591SOL    HW110215   4.042   2.580   0.440 -0.1727  0.3130  0.9073
 2591SOL    HW210216   4.019   2.445   0.376  0.2618  0.4893  0.3710
 2592SOL     OW10217   7.251   7.024   0.549 -0.2554 -0.2859 -1.0072
 2592SOL    HW110218   7.255   6.946   0.603  0.8835 -0.4804 -1.3486
 2592SOL    HW210219   7.264   7.097   0.610 -1.2713 -0.3503 -0.6970
 2593SOL     OW10220   1.935   6.195   7.743  0.1075 -0.2162  0.4507
 2593SOL    HW110221   1.906   6.152   7.823  2.1320 -0.9429  0.8449
 2593SOL    HW210222   1.894   6.144   7.673 -1.1545  0.0260  0.9890
 2594SOL     OW10223   9.051   8.843   4.595  0.0580  0.2803  0.0157
 2594SOL    HW110224   9.107   8.900   4.647  0.8295 -0.3599 -0.1135
 2594SOL    HW210225   8.971   8.834   4.647  0.2465  0.8110  0.4100
 2595SOL     OW10226   6.282   6.404   1.579  0.0816  0.0214 -0.4310
 2595SOL    HW110227   6.250   6.351   1.652 -0.5949 -0.0706 -0.7878
 2595SOL    HW210228   6.377   6.412   1.594 -0.3907  2.3798  2.0262
 2596SOL     OW10229   6.523   8.162   7.995  0.4119 -0.0826 -0.0522
 2596SOL    HW110230   6.502   8.092   7.934 -1.7674 -0.0564  0.5787
 2596SOL    HW210231   6.531   8.119   8.080  1.6724  0.1156 -0.0535
 2597SOL     OW10232  10.321   0.371   6.032  0.3384 -0.5535  0.2567
 2597SOL    HW110233  10.270   0.304   5.988  1.8793 -0.2829 -2.0733
 2597SOL    HW210234  10.393   0.324   6.074  0.1297 -0.5787  0.5900
 2598SOL     OW10235   1.020   6.346  10.480  0.1047  0.1429 -0.0988
 2598SOL    HW110236   0.938   6.331  10.433  0.5801 -1.8015 -0.4085
 2598SOL    HW210237   1.081   6.377  10.414  0.5292 -1.7352 -0.6425
 2599SOL     OW10238   7.469   3.301   6.640 -0.0707 -0.1951 -0.7112
 2599SOL    HW110239   7.479   3.372   6.577  0.2126  0.4502  0.0543
 2599SOL    HW210240   7.524   3.325   6.714 -1.3326 -0.3285  0.3239
 2600SOL     OW10241   3.989   5.471   6.916  0.1617  0.4350 -0.0792
 2600SOL    HW110242   3.902   5.496   6.944  0.4008  0.3167  0.8058
 2600SOL    HW210243   3.982   5.378   6.895  0.5939 -0.2163  2.3602
 2601SOL     OW10244   5.255   1.608   6.425 -0.1863 -0.2712 -0.3460
 2601SOL    HW110245   5.203   1.687   6.431  1.2196  0.6233  0.9247
 2601SOL    HW210246   5.233   1.559   6.505  0.6168 -0.0494  0.0256
 2602SOL     OW10247   6.530   7.828   3.564  0.5747  0.8489 -0.1707
 2602SOL    HW110248   6.583   7.752   3.590 -1.5356 -0.7493 -0.2276
 2602SOL    HW210249   6.564   7.900   3.617  1.8077 -0.4150  0.8576
 2603SOL     OW10250   5.599   0.781   4.591  0.0624  0.4424 -0.1017
 2603SOL    HW110251   5.634   0.721   4.656  2.2449  2.2158  0.4848
 2603SOL    HW210252   5.592   0.728   4.511  1.0251 -0.8028  0.6089
 2604SOL     OW10253   1.873   5.160   7.468 -0.2470  0.0931  0.2079
 2604SOL    HW110254   1.803   5.131   7.410 -2.0889  0.5663  2.0701
 2604SOL    HW210255   1.936   5.204   7.410 -1.8929  0.3825 -1.4436
 2605SOL     OW10256   1.226   7.958   3.290 -0.5464 -0.2777 -0.6434
 2605SOL    HW110257   1.250   8.050   3.305 -2.8064 -0.0574  2.7317
 2605SOL    HW210258   1.310   7.914   3.272  0.6117  2.3601 -2.3017
 2606SOL     OW10259   4.582   0.847   1.658  0.1378 -0.4862 -0.5003
 2606SOL    HW110260   4.610   0.821   1.570 -0.0215 -0.2136 -0.6341
 2606SOL    HW210261   4.502   0.798   1.674 -0.7088  0.6284 -1.1485
 2607SOL     OW10262   9.171   9.770   4.706  0.1572  0.3077 -0.2099
 2607SOL    HW110263   9.183   9.846   4.763 -0.3805  1.0384 -1.0499
 2607SOL    HW210264   9.140   9.807   4.623 -0.1351 -0.8288 -0.6217
 2608SOL     OW10265   8.160   5.858   2.755 -0.4093  0.2463 -0.5086
 2608SOL    HW110266   8.251   5.866   2.784 -0.0063  0.6632 -1.8232
 2608SOL    HW210267   8.131   5.775   2.792 -0.5999  1.5923  2.7214
 2609SOL     OW10268   6.405   6.071   4.620 -0.0268 -0.5353  0.1664
 2609SOL    HW110269   6.393   6.079   4.526 -1.3139  0.8125  0.4051
 2609SOL    HW210270   6.360   5.990   4.644  0.7826 -1.1741 -0.4306
 2610SOL     OW10271   6.072   7.889   3.994 -0.2989  0.8639  0.4014
 2610SOL    HW110272   6.155   7.909   4.037 -0.1485  0.5898  0.2433
 2610SOL    HW210273   6.082   7.926   3.906 -0.3600  0.8705  0.3973
 2611SOL     OW10274   5.613   8.517   3.960  0.8700  0.0472 -0.6689
 2611SOL    HW110275   5.588   8.492   3.871  1.1390 -1.6613 -0.2896
 2611SOL    HW210276   5.614   8.435   4.009  1.4580  0.8614  0.7360
 2612SOL     OW10277   0.601   6.109   2.070 -0.4683  0.1528  0.1426
 2612SOL    HW110278   0.597   6.174   2.000  0.8241  0.0230 -0.0830
 2612SOL    HW210279   0.614   6.025   2.024  1.2579  0.1708  0.5314
 2613SOL     OW10280   8.518   7.194   7.144  0.3778  0.2899 -0.3829
 2613SOL    HW110281   8.462   7.244   7.204 -0.7375  0.5080 -1.5557
 2613SOL    HW210282   8.543   7.257   7.076  2.2883  0.2544  0.2454
 2614SOL     OW10283  10.474   8.212   7.081 -0.6621 -0.5237 -0.2249
 2614SOL    HW110284  10.444   8.269   7.152  0.7525  0.4477 -0.3841
 2614SOL    HW210285  10.439   8.126   7.104 -1.2667  0.0186  0.9999
 2615SOL     OW10286   1.848   8.601   2.157  0.0210  0.3885 -0.1084
 2615SOL    HW110287   1.795   8.522   2.163 -0.5101  0.7279 -0.3112
 2615SOL    HW210288   1.808   8.652   2.086 -0.0944  1.1809  0.5098
 2616SOL     OW10289   1.182   6.723   0.341  0.8567  0.1212 -0.4087
 2616SOL    HW110290   1.270   6.685   0.348  0.7412  0.0721  1.4510
 2616SOL    HW210291   1.128   6.669   0.398 -0.0770  0.9781 -0.4493
 2617SOL     OW10292   0.045   8.939   7.671 -0.4434 -0.0758 -0.2107
 2617SOL    HW110293   0.024   8.964   7.761  1.3514  1.0477 -0.0507
 2617SOL    HW210294  -0.009   8.996   7.617 -1.5554 -0.7807  0.1304
 2618SOL     OW10295   3.962   6.098   1.516  0.4219 -0.5840 -0.0587
 2618SOL    HW110296   3.883   6.063   1.476 -0.9051  1.1987  0.8156
 2618SOL    HW210297   4.030   6.089   1.449 -0.8542 -0.9480 -1.3431
 2619SOL     OW10298   7.354   2.849   3.285 -0.3053  0.1472 -0.2725
 2619SOL    HW110299   7.289   2.917   3.301  0.6232  0.9722  0.1548
 2619SOL    HW210300   7.352   2.794   3.363  0.1541  0.7241  0.1507
 2620SOL     OW10301   1.084   0.896   8.137  0.0271 -0.3194  0.4319
 2620SOL    HW110302   1.011   0.953   8.161 -0.8998 -0.6605 -1.4154
 2620SOL    HW210303   1.159   0.955   8.130 -0.1875  0.1410  1.6746
 2621SOL     OW10304   4.271   1.363   6.461  0.0790 -0.0753 -0.0149
 2621SOL    HW110305   4.263   1.269   6.475  1.6785 -0.7798 -2.8902
 2621SOL    HW210306   4.230   1.403   6.537  0.4697 -3.0860  1.9357
 2622SOL     OW10307   8.878   6.206   9.520  0.1943 -0.1818  0.0817
 2622SOL    HW110308   8.844   6.225   9.607  1.0602  1.8486  0.0277
 2622SOL    HW210309   8.803   6.214   9.462  0.0882  0.9909  0.3579
 2623SOL     OW10310   8.204   6.518   6.548 -0.1760 -0.1663 -0.5834
 2623SOL    HW110311   8.204   6.469   6.630 -2.1915 -0.6807 -0.8346
 2623SOL    HW210312   8.235   6.605   6.573  0.2768 -0.6163  0.5092
 2624SOL     OW10313   2.806   0.145   4.871 -0.0052  0.0406  0.1922
 2624SOL    HW110314   2.847   0.229   4.849 -0.0487  0.0098 -0.0098
 2624SOL    HW210315   2.854   0.114   4.948 -0.3104  0.4780  0.5576
 2625SOL     OW10316   4.986   2.916   9.713 -0.2466  0.1090 -0.3668
 2625SOL    HW110317   4.997   3.006   9.742 -0.0239 -0.0128 -0.0597
 2625SOL    HW210318   4.956   2.923   9.623  1.5487  0.4873 -0.9774
 2626SOL     OW10319   8.706   6.509   1.812  0.1863  0.0804  0.0122
 2626SOL    HW110320   8.622   6.548   1.791  0.0049  0.4211  1.2466
 2626SOL    HW210321   8.754   6.507   1.729 -1.8394 -2.2678 -1.2338
 2627SOL     OW10322   6.485   1.124   6.522 -0.6391  0.3602  0.4350
 2627SOL    HW110323   6.399   1.164   6.536 -1.1683 -0.5318 -0.1860
 2627SOL    HW210324   6.499   1.130   6.428 -0.6584 -0.7452  0.3477
 2628SOL     OW10325   7.682  10.329   7.509 -0.0348  0.4489 -0.0102
 2628SOL    HW110326   7.601  10.365   7.473 -0.5054 -1.3076 -0.8337
 2628SOL    HW210327   7.668  10.327   7.604 -0.2576  1.7258 -0.0054
 2629SOL     OW10328   6.795   2.092   4.477 -0.1592  0.4467 -0.0459
 2629SOL    HW110329   6.871   2.143   4.507  0.7525 -1.9077  2.1090
 2629SOL    HW210330   6.727   2.110   4.542  0.4472 -1.5544  1.2373
 2630SOL     OW10331   6.308   4.007   0.461 -0.1881  0.1402 -0.2683
 2630SOL    HW110332   6.397   3.981   0.437 -0.1141 -1.0631  1.1831
 2630SOL    HW210333   6.282   4.067   0.392  0.9473 -1.1402 -1.8915
 2631SOL     OW10334   7.862   0.159   1.030 -0.0842 -0.8291 -0.1730
 2631SOL    HW110335   7.809   0.088   0.993 -2.6282  0.1809  1.3008
 2631SOL    HW210336   7.826   0.239   0.992  0.2795 -0.0968  0.9725
 2632SOL     OW10337   2.613   3.977   3.980  0.5345  0.2632  0.5987
 2632SOL    HW110338   2.645   3.892   4.011  1.3541  0.5780  0.6349
 2632SOL    HW210339   2.613   3.969   3.885  1.4026  0.5053  0.5782
 2633SOL     OW10340   1.620   9.295   3.475  0.2999  0.1635 -0.4713
 2633SOL    HW110341   1.695   9.338   3.433 -0.0711  0.7560 -0.5509
 2633SOL    HW210342   1.545   9.319   3.420  0.1282 -0.9031 -0.7209
 2634SOL     OW10343   5.125   4.022   0.409  0.2008 -0.4185  0.1423
 2634SOL    HW110344   5.106   3.942   0.362  0.3215 -1.0754  1.1712
 2634SOL    HW210345   5.058   4.025   0.478  0.2009  0.3652  0.1194
 2635SOL     OW10346   2.160   4.231   7.180  0.3213 -0.6019  0.0022
 2635SOL    HW110347   2.233   4.275   7.224 -0.8076  0.8327  0.5092
 2635SOL    HW210348   2.116   4.183   7.250 -0.2659  0.0165  0.0720
 2636SOL     OW10349   8.560   6.294   2.720  0.6913  0.0105 -0.0150
 2636SOL    HW110350   8.495   6.303   2.790 -0.8663 -0.4148 -1.3319
 2636SOL    HW210351   8.643   6.283   2.765 -0.1878  0.2788  1.7508
 2637SOL     OW10352   9.510   1.986   5.448  0.2613 -0.2571 -0.0390
 2637SOL    HW110353   9.475   2.048   5.512  0.4662 -0.0788 -0.0984
 2637SOL    HW210354   9.452   1.994   5.373 -0.3036 -0.8565  0.3203
 2638SOL     OW10355   5.106   9.282   8.287 -0.2574 -0.1657  0.5674
 2638SOL    HW110356   5.140   9.371   8.295 -1.3596  0.1244  3.0054
 2638SOL    HW210357   5.176   9.233   8.245  1.2972  1.3618  1.2596
 2639SOL     OW10358   0.099   2.484   2.583  0.3521  0.3283 -0.9481
 2639SOL    HW110359   0.007   2.506   2.596  0.7780  2.8526 -1.7196
 2639SOL    HW210360   0.146   2.564   2.603  2.4370 -0.9667 -0.3880
 2640SOL     OW10361   5.933  10.102   6.997  0.2797  0.0200  0.2322
 2640SOL    HW110362   6.023  10.079   6.974  0.2564 -1.2497  1.3235
 2640SOL    HW210363   5.900  10.028   7.048 -0.3675  1.7247  2.5151
 2641SOL     OW10364   5.438   3.199   0.300 -0.4480 -0.1019  0.4479
 2641SOL    HW110365   5.496   3.227   0.372  0.0225  1.3042 -0.4329
 2641SOL    HW210366   5.405   3.281   0.263  1.6949 -0.5424 -2.8628
 2642SOL     OW10367   7.702   6.774   2.690 -0.1980  0.1746  0.3896
 2642SOL    HW110368   7.684   6.697   2.636 -0.0789 -0.3761  1.1165
 2642SOL    HW210369   7.618   6.797   2.728 -0.4421  1.0462 -0.6276
 2643SOL     OW10370   3.993   4.788   0.831 -0.1731  0.2815 -0.7028
 2643SOL    HW110371   3.945   4.824   0.757 -1.1438 -1.8990 -1.1808
 2643SOL    HW210372   4.038   4.711   0.797 -0.7069 -0.8243  0.9775
 2644SOL     OW10373   6.810   0.269   7.900  0.3046  0.3014 -0.4211
 2644SOL    HW110374   6.880   0.286   7.963 -0.5541  0.1232  0.6095
 2644SOL    HW210375   6.773   0.355   7.882  1.1947  0.4858 -1.4889
 2645SOL     OW10376   3.509   2.381  10.469  0.0395 -0.1686  0.0078
 2645SOL    HW110377   3.551   2.340  10.544  0.4813 -0.6178 -0.4779
 2645SOL    HW210378   3.443   2.317  10.440 -1.6357  0.8812  1.2907
 2646SOL     OW10379   2.297   5.133   7.361 -0.4738  0.0328  0.1355
 2646SOL    HW110380   2.225   5.195   7.343 -0.0986  0.2464 -0.6680
 2646SOL    HW210381   2.257   5.047   7.355 -0.3216  0.0725 -2.1017
 2647SOL     OW10382   7.409  10.303   8.321 -0.2920  0.4776 -0.1578
 2647SOL    HW110383   7.351  10.379   8.319  0.9403  1.4350 -1.5598
 2647SOL    HW210384   7.494  10.336   8.292  0.1620 -1.5025 -1.3316
 2648SOL     OW10385   3.988   8.232   3.503 -0.4029  0.1371 -0.8076
 2648SOL    HW110386   4.024   8.291   3.436 -0.0863 -0.4338 -1.1484
 2648SOL    HW210387   4.064   8.182   3.534  0.2261  2.7868  2.5705
 2649SOL     OW10388   3.695   5.046   5.105 -0.4298 -0.3303  0.6574
 2649SOL    HW110389   3.756   5.061   5.177  0.6939 -0.8221 -0.1457
 2649SOL    HW210390   3.741   4.984   5.048 -1.6548 -0.6319 -0.0327
 2650SOL     OW10391   0.533   8.154   4.779 -0.4896 -0.2128 -0.4549
 2650SOL    HW110392   0.576   8.182   4.698 -1.9295  0.8216 -0.8928
 2650SOL    HW210393   0.465   8.094   4.750  0.0899 -1.1965  0.1660
 2651SOL     OW10394   6.031   3.326  10.386 -0.3271  0.4180 -0.4496
 2651SOL    HW110395   6.042   3.233  10.406 -2.2146  0.0978 -0.7481
 2651SOL    HW210396   6.107   3.348  10.333  2.4076  0.1220  2.9687
 2652SOL     OW10397   6.745   7.606   7.572  0.0536  0.0711 -0.3280
 2652SOL    HW110398   6.791   7.542   7.519 -1.2569 -0.7602 -0.5169
 2652SOL    HW210399   6.662   7.564   7.594 -0.4946  1.3849  0.2493
 2653SOL     OW10400   6.200  10.280   0.383  0.0256 -0.3519 -0.4569
 2653SOL    HW110401   6.124  10.226   0.361  0.8753 -2.0060  0.4222
 2653SOL    HW210402   6.170  10.336   0.454 -0.3278 -1.2255  0.1088
 2654SOL     OW10403   4.205   7.434  10.396 -0.0366  0.2997 -0.4480
 2654SOL    HW110404   4.259   7.440  10.318  1.0795  0.8990  0.3437
 2654SOL    HW210405   4.206   7.523  10.433  0.2938 -0.1976  0.7920
 2655SOL     OW10406   8.863   3.637   5.930  0.1768 -0.2949 -0.5365
 2655SOL    HW110407   8.927   3.569   5.951 -1.1528 -1.9088 -1.4360
 2655SOL    HW210408   8.825   3.660   6.015  1.1565 -0.1187 -0.1301
 2656SOL     OW10409   3.804   5.130  10.201  0.3827  0.5248 -0.1625
 2656SOL    HW110410   3.870   5.077  10.244  0.4853  2.1563  1.8567
 2656SOL    HW210411   3.730   5.071  10.189  1.8459 -1.0990 -1.6829
 2657SOL     OW10412  10.157   5.522   3.899  0.0070  0.0405  0.1116
 2657SOL    HW110413  10.075   5.497   3.856  0.0995  0.1283 -0.1167
 2657SOL    HW210414  10.174   5.611   3.869  0.3907 -0.1176 -0.1559
 2658SOL     OW10415   5.872   9.217   4.293  0.6659 -0.0892  0.1065
 2658SOL    HW110416   5.886   9.148   4.359  2.1778 -0.3199 -0.4073
 2658SOL    HW210417   5.926   9.290   4.324  0.9715 -0.0109 -0.6030
 2659SOL     OW10418   7.987   9.092   0.860  0.1793  0.4377  0.1041
 2659SOL    HW110419   7.920   9.127   0.801 -0.4371  0.4821  0.8121
 2659SOL    HW210420   8.054   9.160   0.863 -1.2075  1.8396  1.8203
 2660SOL     OW10421   2.298   4.119   8.076 -0.2424 -0.3497 -0.4854
 2660SOL    HW110422   2.286   4.024   8.083  3.7327 -0.9027  1.6502
 2660SOL    HW210423   2.384   4.130   8.036 -0.6964  2.3974 -0.9152
 2661SOL     OW10424   7.192   8.740   6.513  0.1907  0.0188 -0.2765
 2661SOL    HW110425   7.231   8.653   6.512 -0.4808 -0.3321  1.1011
 2661SOL    HW210426   7.190   8.764   6.606 -0.1473  1.2736 -0.5837
 2662SOL     OW10427   3.133   4.385   3.486  0.3318 -0.2665  0.2809
 2662SOL    HW110428   3.088   4.364   3.568 -4.2023 -0.5807 -1.9918
 2662SOL    HW210429   3.134   4.481   3.482 -1.5451 -0.2397 -0.2258
 2663SOL     OW10430   0.115   4.099   9.229 -0.4101  0.2000  0.7377
 2663SOL    HW110431   0.099   4.024   9.286 -0.6760 -0.7412 -0.5368
 2663SOL    HW210432   0.029   4.120   9.193 -0.1783  0.5228  0.3683
 2664SOL     OW10433  10.092   9.483   0.799 -0.6472  0.2830  0.7028
 2664SOL    HW110434  10.184   9.467   0.779 -0.6737 -1.8891  1.9976
 2664SOL    HW210435  10.058   9.528   0.721  0.4443 -2.9798 -1.9040
 2665SOL     OW10436   2.781   4.932   9.628 -0.7640 -0.2297  0.1182
 2665SOL    HW110437   2.724   4.991   9.578  0.2410  1.1563  0.5507
 2665SOL    HW210438   2.865   4.977   9.630 -0.0770 -1.5055  0.8343
 2666SOL     OW10439   3.638   9.078   9.511 -0.1032  0.0353 -0.2249
 2666SOL    HW110440   3.627   9.160   9.464 -1.6600  0.5806  1.0020
 2666SOL    HW210441   3.711   9.094   9.572  0.5556 -0.0000 -0.9883
 2667SOL     OW10442   7.563   5.255   2.498 -0.7420 -0.1387  0.2001
 2667SOL    HW110443   7.521   5.214   2.422  1.5901  0.2135 -1.3981
 2667SOL    HW210444   7.559   5.187   2.566 -2.1286 -0.7915 -0.4827
 2668SOL     OW10445   6.700   0.847  10.139  0.2784  0.1794  0.0363
 2668SOL    HW110446   6.637   0.796  10.087 -0.2749  0.6123  0.2774
 2668SOL    HW210447   6.729   0.916  10.079  0.6455 -0.1158 -0.1275
 2669SOL     OW10448   8.385   0.512   8.821 -0.0536  0.2353 -0.4285
 2669SOL    HW110449   8.478   0.525   8.840  0.0235 -0.2951 -0.4263
 2669SOL    HW210450   8.384   0.453   8.745 -0.3780  1.1785 -1.1700
 2670SOL     OW10451   0.667   9.829   4.144  0.0615 -0.0745  0.1201
 2670SOL    HW110452   0.641   9.872   4.225  0.0792 -1.1965  0.7391
 2670SOL    HW210453   0.607   9.865   4.078 -1.8058 -1.1732  1.1534
 2671SOL     OW10454   9.958   0.903  10.005  0.1390 -0.1049  0.7980
 2671SOL    HW110455   9.956   0.815  10.043 -1.9206  1.1289  3.9746
 2671SOL    HW210456   9.884   0.904   9.944  0.9890 -0.9381 -0.2693
 2672SOL     OW10457   8.091   6.054   4.741 -0.9159 -0.3558  0.7273
 2672SOL    HW110458   8.082   6.138   4.785 -1.0363  0.7498 -1.3082
 2672SOL    HW210459   8.051   6.067   4.655 -2.6968 -3.0590  1.0186
 2673SOL     OW10460   7.805   1.863   1.235  0.2434  0.4186  0.1621
 2673SOL    HW110461   7.764   1.942   1.200  0.5334  0.0766 -1.0130
 2673SOL    HW210462   7.795   1.870   1.329 -4.0863 -0.4692 -0.0219
 2674SOL     OW10463   6.987   3.139   8.268 -0.5718  0.1279  0.6420
 2674SOL    HW110464   7.050   3.203   8.300  1.1441 -0.1630 -1.8810
 2674SOL    HW210465   6.949   3.180   8.190 -1.6761 -0.7348  0.7073
 2675SOL     OW10466   7.845   4.659   9.488  0.9557  0.3677 -0.3398
 2675SOL    HW110467   7.878   4.617   9.568  0.8445 -0.4695 -0.7247
 2675SOL    HW210468   7.873   4.601   9.417 -1.4196 -0.4426 -0.6914
 2676SOL     OW10469   2.422   9.894   6.693  0.4470 -0.4531  0.4726
 2676SOL    HW110470   2.499   9.945   6.716  1.0341  0.1085 -2.4068
 2676SOL    HW210471   2.351   9.935   6.742  1.5164  0.7534  1.0657
 2677SOL     OW10472   9.707   1.272   3.345  0.3908 -0.6078  0.1550
 2677SOL    HW110473   9.683   1.215   3.272  0.9688 -1.0410  0.2953
 2677SOL    HW210474   9.631   1.328   3.358  1.0612  0.9790 -2.2042
 2678SOL     OW10475   9.237   5.636   6.048 -1.0739  0.5934  0.0645
 2678SOL    HW110476   9.315   5.690   6.041 -0.9263  0.4039  0.2383
 2678SOL    HW210477   9.227   5.619   6.141 -1.2512  0.5113  0.0326
 2679SOL     OW10478   1.683   1.915   1.559 -0.1834  0.1116  0.0139
 2679SOL    HW110479   1.704   1.885   1.647  0.5018  0.3720 -0.0547
 2679SOL    HW210480   1.631   1.844   1.521 -1.2728  0.3822  0.9329
 2680SOL     OW10481  10.269   5.121   9.821 -0.9521 -0.1404 -0.3332
 2680SOL    HW110482  10.321   5.096   9.897 -1.3564  0.3245  0.1074
 2680SOL    HW210483  10.178   5.106   9.848 -1.1369  0.6812 -0.4786
 2681SOL     OW10484   0.545   8.531   3.115  0.1668  0.1389  0.5141
 2681SOL    HW110485   0.601   8.518   3.039  0.0208 -0.7386  0.5342
 2681SOL    HW210486   0.504   8.616   3.101  0.3667  0.1196 -0.2483
 2682SOL     OW10487   7.931   3.670   2.210 -0.2338  0.1345 -0.2372
 2682SOL    HW110488   7.928   3.588   2.260 -1.5745  1.4647  2.0228
 2682SOL    HW210489   8.022   3.698   2.216 -0.0237 -0.5687  0.0158
 2683SOL     OW10490   8.226   9.581   3.215 -0.1196 -0.0068  0.0803
 2683SOL    HW110491   8.284   9.657   3.210 -1.8098  1.3737  0.1662
 2683SOL    HW210492   8.243   9.532   3.134  3.2494 -1.3644  1.4501
 2684SOL     OW10493  10.390   9.837   2.652  0.1191 -0.2272 -0.7461
 2684SOL    HW110494  10.420   9.892   2.724 -0.4478  1.8490 -2.0066
 2684SOL    HW210495  10.460   9.772   2.640  0.1886 -0.6907  1.6566
 2685SOL     OW10496   3.955   3.041   2.204  0.3393  0.0389  0.4181
 2685SOL    HW110497   3.878   3.002   2.162  0.0621  0.9050  0.0936
 2685SOL    HW210498   4.026   3.030   2.141  0.1483  0.4756  0.1199
 2686SOL     OW10499   1.336   7.464   4.420 -0.6642  0.7579 -0.0793
 2686SOL    HW110500   1.242   7.448   4.410 -0.5671  0.5817 -0.7249
 2686SOL    HW210501   1.374   7.442   4.335  0.5550 -3.3221  1.2900
 2687SOL     OW10502   6.343   2.439   7.604  0.4395 -0.3018  0.1484
 2687SOL    HW110503   6.395   2.482   7.672  1.7761 -0.7025 -0.5748
 2687SOL    HW210504   6.281   2.384   7.651  0.2663  0.6330  1.0450
 2688SOL     OW10505   7.651   4.076   5.176  0.1621 -0.4693 -0.0086
 2688SOL    HW110506   7.656   4.026   5.094  1.8381  0.4510 -0.5121
 2688SOL    HW210507   7.723   4.138   5.170  2.8774 -2.8417  3.8382
 2689SOL     OW10508   2.674   7.965   1.961 -0.5096 -0.0286  0.2134
 2689SOL    HW110509   2.672   7.996   1.871  2.4514 -1.0098 -0.3119
 2689SOL    HW210510   2.646   7.873   1.956  0.4215 -0.3254  0.1002
 2690SOL     OW10511   5.057   1.891   4.877 -0.1220  0.0801 -0.1659
 2690SOL    HW110512   4.986   1.848   4.831 -0.7345  0.0294  0.7941
 2690SOL    HW210513   5.129   1.827   4.876 -0.8380 -0.7742  0.7651
 2691SOL     OW10514   6.292   7.808   0.888  0.4585  0.3783 -0.0678
 2691SOL    HW110515   6.312   7.816   0.981  0.3069 -0.4744  0.0432
 2691SOL    HW210516   6.364   7.854   0.844 -0.0663  1.7943  0.4906
 2692SOL     OW10517   9.231   2.584   3.653  0.5359  0.2834  0.0103
 2692SOL    HW110518   9.143   2.602   3.620 -0.1065  0.1897  1.5815
 2692SOL    HW210519   9.289   2.627   3.591 -0.7473  3.4904  0.8366
 2693SOL     OW10520   6.736   0.416   5.242  0.4110 -0.2141  0.1344
 2693SOL    HW110521   6.781   0.376   5.316 -1.4938 -1.0735  0.8869
 2693SOL    HW210522   6.703   0.499   5.276 -0.8081 -0.7879  0.4252
 2694SOL     OW10523   7.851   3.866   2.562  0.2798 -0.0973 -0.4694
 2694SOL    HW110524   7.804   3.936   2.518  2.4257  2.5323  1.0946
 2694SOL    HW210525   7.805   3.856   2.646  1.0719  0.8141  0.0868
 2695SOL     OW10526  10.224   4.956   1.176  0.0562  0.1026  0.3135
 2695SOL    HW110527  10.293   4.951   1.242  0.5738 -1.5428 -0.2976
 2695SOL    HW210528  10.251   4.895   1.108 -1.1574  0.7182 -0.7749
 2696SOL     OW10529   9.929   9.284   5.763 -0.3022 -0.1224  0.1185
 2696SOL    HW110530   9.852   9.334   5.790 -1.7244 -1.2243 -1.6542
 2696SOL    HW210531   9.930   9.290   5.667  0.0909 -2.5175 -0.1019
 2697SOL     OW10532   1.443   5.895   0.969 -0.7513  0.2780 -0.0233
 2697SOL    HW110533   1.474   5.872   0.882  1.5890  1.3702  0.4523
 2697SOL    HW210534   1.354   5.928   0.954 -1.5809 -2.3102 -1.5474
 2698SOL     OW10535   3.018   1.047  10.432  0.3621  0.2738  0.1382
 2698SOL    HW110536   3.071   1.124  10.454  1.6549 -0.6268  0.3077
 2698SOL    HW210537   2.945   1.049  10.493  0.7132  1.0315  0.5439
 2699SOL     OW10538   8.049   7.217   5.732 -0.0482 -0.2929  0.2928
 2699SOL    HW110539   8.091   7.282   5.675  0.8722 -0.6160  0.5746
 2699SOL    HW210540   8.094   7.227   5.816 -0.5997 -0.6024  0.6277
 2700SOL     OW10541   7.567   5.871   2.963 -0.2758  0.1567  0.6798
 2700SOL    HW110542   7.641   5.865   3.023  0.7529 -0.9092 -0.6339
 2700SOL    HW210543   7.558   5.965   2.945  0.0948  0.3830  1.6302
 2701SOL     OW10544   1.056  10.362   6.288 -0.4983  0.3655  0.2115
 2701SOL    HW110545   1.071  10.276   6.250  2.1601  0.9559 -0.3047
 2701SOL    HW210546   1.031  10.345   6.379 -0.7371 -0.9483 -0.0846
 2702SOL     OW10547   4.129   7.309   2.971 -0.1359 -0.2738 -0.0663
 2702SOL    HW110548   4.051   7.330   2.921 -1.0453 -1.5077  0.7704
 2702SOL    HW210549   4.141   7.382   3.031 -0.1285  0.3217 -0.7840
 2703SOL     OW10550   1.602   6.496   4.423 -0.1281 -0.1980 -0.2562
 2703SOL    HW110551   1.543   6.457   4.358 -1.0531  0.0085  0.4239
 2703SOL    HW210552   1.544   6.552   4.476  0.4841 -0.7934  1.0787
 2704SOL     OW10553   8.759   1.628   1.509  0.1359  0.1966  0.3215
 2704SOL    HW110554   8.667   1.648   1.488  0.4152  2.2931  0.8895
 2704SOL    HW210555   8.758   1.608   1.602  0.1869 -0.4408  0.1933
 2705SOL     OW10556   9.265   7.270   5.779  0.0043 -0.4329  0.0292
 2705SOL    HW110557   9.211   7.202   5.819  1.1851 -0.1173  2.3250
 2705SOL    HW210558   9.210   7.349   5.783 -0.0531 -0.4965  0.7089
 2706SOL     OW10559   5.615   6.765  10.207  0.1147 -0.0291  0.2527
 2706SOL    HW110560   5.534   6.813  10.225  0.5242  0.8272 -0.1243
 2706SOL    HW210561   5.663   6.821  10.147  2.3351  0.9458  2.7433
 2707SOL     OW10562   1.541   4.013   9.994  0.5329  0.1838 -0.6686
 2707SOL    HW110563   1.623   3.968   9.976  0.1220  0.1420 -2.7256
 2707SOL    HW210564   1.545   4.092   9.941  0.5150  1.7979  1.5923
 2708SOL     OW10565   2.561   9.085   5.597 -0.9212  0.2827 -0.0146
 2708SOL    HW110566   2.656   9.089   5.585 -0.8908 -1.2245 -0.5815
 2708SOL    HW210567   2.532   9.176   5.597  0.5276  0.7643  0.2051
 2709SOL     OW10568   0.747   7.140   7.221  0.0105 -0.7885 -0.5666
 2709SOL    HW110569   0.822   7.158   7.278 -0.1944 -0.7853 -0.2938
 2709SOL    HW210570   0.742   7.045   7.218  0.8757 -0.8152 -1.7203
 2710SOL     OW10571   7.899   8.832   5.276  0.0855 -0.0237  0.0719
 2710SOL    HW110572   7.893   8.912   5.329 -0.2181  0.0152 -0.0182
 2710SOL    HW210573   7.983   8.840   5.230  0.7955 -0.4956  1.2323
 2711SOL     OW10574   3.870   8.620   6.855 -0.2967  0.6148 -0.1072
 2711SOL    HW110575   3.775   8.613   6.851 -0.2524 -1.3478  1.0567
 2711SOL    HW210576   3.889   8.705   6.814 -2.4553  0.7036 -1.0852
 2712SOL     OW10577   2.984   1.297   0.398  0.7621  0.0490 -0.1484
 2712SOL    HW110578   2.971   1.208   0.365 -1.5196  0.3444 -0.2079
 2712SOL    HW210579   2.923   1.305   0.471  1.7066  1.2351  0.5544
 2713SOL     OW10580   9.046   8.867  10.100  0.7261 -0.3143 -0.5017
 2713SOL    HW110581   9.065   8.958  10.081  0.2000  0.1812  1.1761
 2713SOL    HW210582   9.130   8.822  10.091  1.3782  0.6713  0.5024
 2714SOL     OW10583   3.101   4.172   3.799  0.1041 -0.0773 -0.2834
 2714SOL    HW110584   3.067   4.176   3.888  0.2923  1.8101 -0.2517
 2714SOL    HW210585   3.023   4.181   3.743  0.2403  1.3913 -0.2546
 2715SOL     OW10586   4.637   1.461   0.878 -0.1607  0.1324  0.6682
 2715SOL    HW110587   4.559   1.505   0.911 -0.3793 -0.7112  1.3379
 2715SOL    HW210588   4.640   1.379   0.928  0.2042 -0.6166 -0.5608
 2716SOL     OW10589   3.088   6.598   0.449 -0.1776 -0.6418  0.9495
 2716SOL    HW110590   3.095   6.509   0.417 -0.0088 -0.6374  0.9697
 2716SOL    HW210591   3.098   6.653   0.372 -0.9724 -0.6510  0.8361
 2717SOL     OW10592   7.485   1.654   5.053  0.0663  0.2183 -0.0072
 2717SOL    HW110593   7.567   1.701   5.036 -0.5848  0.8377 -1.5275
 2717SOL    HW210594   7.433   1.714   5.106  0.7728 -0.3841  1.4170
 2718SOL     OW10595   9.903   2.332   6.475  0.5738 -0.1736 -0.5688
 2718SOL    HW110596   9.839   2.301   6.411  0.8931 -2.3632  0.0838
 2718SOL    HW210597   9.913   2.259   6.536  1.1874  1.3825  1.3047
 2719SOL     OW10598   2.734   4.440   3.766  0.5150  0.1042 -0.3965
 2719SOL    HW110599   2.763   4.417   3.678 -0.8941  0.1338 -0.9024
 2719SOL    HW210600   2.722   4.355   3.810  0.6291  0.0677 -0.4366
 2720SOL     OW10601   8.918   8.679   1.004 -0.3271  0.1684  0.5877
 2720SOL    HW110602   8.892   8.650   0.916 -3.8684  2.3265  0.7326
 2720SOL    HW210603   8.899   8.603   1.060 -0.2913 -0.4286 -0.1831
 2721SOL     OW10604  10.325   4.087   9.190 -0.1099  0.4521 -0.1931
 2721SOL    HW110605  10.311   4.138   9.269  0.7571  0.0101  0.2647
 2721SOL    HW210606  10.237   4.060   9.162 -0.3376 -0.4749  1.3518
 2722SOL     OW10607   1.004   5.697   8.205  0.6704  0.2130 -0.0204
 2722SOL    HW110608   1.072   5.636   8.176  1.2642  2.0980 -3.0574
 2722SOL    HW210609   1.053   5.775   8.233 -0.1618  0.4781  0.7491
 2723SOL     OW10610   7.652   1.016   5.662  0.6571  0.0644  0.2843
 2723SOL    HW110611   7.718   1.035   5.596  1.7985 -1.3722  0.9395
 2723SOL    HW210612   7.574   0.993   5.613  0.4209  2.3491 -0.5081
 2724SOL     OW10613   6.215   7.394   2.097 -0.0425  0.3290 -0.2588
 2724SOL    HW110614   6.141   7.455   2.098 -0.0383  0.3984 -1.6710
 2724SOL    HW210615   6.277   7.434   2.035  1.3332  0.4352  1.1416
 2725SOL     OW10616   7.048   0.897   6.190  0.1621  0.2384  0.5031
 2725SOL    HW110617   7.070   0.867   6.101  1.2444 -1.7318  1.3560
 2725SOL    HW210618   7.098   0.977   6.201  0.7007  0.0405 -0.3813
 2726SOL     OW10619   1.247   5.236   0.367 -0.5468  0.3321 -0.6728
 2726SOL    HW110620   1.163   5.254   0.326 -0.5714  1.1109 -0.2838
 2726SOL    HW210621   1.231   5.243   0.461 -0.4056 -1.0734 -0.5122
 2727SOL     OW10622   7.622   5.091   0.203 -0.2598 -0.4141  0.0278
 2727SOL    HW110623   7.526   5.092   0.207 -0.3039  1.8088 -0.4648
 2727SOL    HW210624   7.643   5.140   0.123  1.2941 -2.7306 -1.1021
 2728SOL     OW10625   7.816   1.659   8.351 -0.6162 -0.2763  0.2491
 2728SOL    HW110626   7.799   1.642   8.258 -1.1246 -0.2907  0.3419
 2728SOL    HW210627   7.910   1.643   8.361 -0.3293  0.8179 -0.4982
 2729SOL     OW10628   5.979  10.081   4.187 -0.6001 -1.1875 -0.1884
 2729SOL    HW110629   6.038  10.156   4.195 -1.2402 -0.4963 -1.4809
 2729SOL    HW210630   6.019  10.012   4.240  0.8853 -0.4560 -0.3140
 2730SOL     OW10631   4.101   4.317   0.765 -0.1205  1.0073 -0.6437
 2730SOL    HW110632   4.048   4.353   0.836 -0.9632  1.4558 -1.4856
 2730SOL    HW210633   4.092   4.222   0.774  1.1093  0.9908  0.8271
 2731SOL     OW10634   1.633   2.343   4.569 -0.1502 -0.2425  0.2917
 2731SOL    HW110635   1.637   2.407   4.498 -0.5034 -0.6550 -0.1031
 2731SOL    HW210636   1.552   2.295   4.554 -0.8108  0.4007  1.6084
 2732SOL     OW10637   4.238   2.479  10.389  0.3531  0.2624 -0.4623
 2732SOL    HW110638   4.271   2.568  10.378 -1.4034  0.9383 -0.5663
 2732SOL    HW210639   4.171   2.486  10.457  1.1788 -1.2703  0.5716
 2733SOL     OW10640   2.964   5.321   2.938  0.6461  0.5732 -0.4868
 2733SOL    HW110641   2.921   5.243   2.973 -0.0213  0.7134 -0.9606
 2733SOL    HW210642   3.024   5.349   3.007  1.4266 -0.7670 -0.5969
 2734SOL     OW10643   4.303   9.945   7.467  0.3265  0.1799 -0.6787
 2734SOL    HW110644   4.394   9.945   7.438  1.4592  0.2583  2.5071
 2734SOL    HW210645   4.275   9.854   7.459  1.3222 -0.2042  0.0184
 2735SOL     OW10646   9.670   4.198   1.479 -0.6370 -0.0996  0.2501
 2735SOL    HW110647   9.716   4.170   1.400 -2.4920  0.7864 -1.2508
 2735SOL    HW210648   9.579   4.174   1.463 -1.6635  3.0438  0.5580
 2736SOL     OW10649   9.992   6.033   6.999 -0.8532  0.0883  0.0840
 2736SOL    HW110650  10.086   6.030   6.982 -0.6509  1.6434  0.8071
 2736SOL    HW210651   9.957   5.955   6.956  0.7201 -0.3373 -0.4584
 2737SOL     OW10652   7.469   9.125   0.511 -0.4059 -0.3535  0.3641
 2737SOL    HW110653   7.449   9.061   0.579 -0.4146  0.1964  0.8881
 2737SOL    HW210654   7.541   9.085   0.461 -0.5806 -0.8768  0.5191
 2738SOL     OW10655   1.038   0.459   5.741  0.1895  0.1485 -0.1099
 2738SOL    HW110656   1.068   0.393   5.678  0.5231  0.0197  0.1806
 2738SOL    HW210657   1.021   0.410   5.821  1.4945  0.5477  0.4501
 2739SOL     OW10658   3.451   4.927   5.148 -0.2175  0.1146 -0.1539
 2739SOL    HW110659   3.533   4.975   5.146  0.5949 -1.2329 -0.6815
 2739SOL    HW210660   3.388   4.985   5.105  0.7065  0.7245 -0.7163
 2740SOL     OW10661   7.079   6.330   3.893 -0.3923 -0.0266  0.6404
 2740SOL    HW110662   7.152   6.302   3.949 -0.2885  0.5836  0.8217
 2740SOL    HW210663   7.034   6.396   3.946 -0.6119  0.1641  0.2130
 2741SOL     OW10664   5.397   6.397   2.485 -0.1604  0.5726 -0.1145
 2741SOL    HW110665   5.463   6.463   2.508  0.0716 -0.2500  1.7298
 2741SOL    HW210666   5.425   6.365   2.399  0.6653  1.6780 -0.2871
 2742SOL     OW10667   9.757   4.913   0.193  0.3417  0.3534 -0.2770
 2742SOL    HW110668   9.754   4.848   0.123  1.2918 -0.7003  0.6318
 2742SOL    HW210669   9.684   4.889   0.251  0.5195  0.2749 -0.0866
 2743SOL     OW10670   5.418   1.279   7.267 -0.4019 -0.0145 -0.1449
 2743SOL    HW110671   5.420   1.299   7.174 -1.3766 -0.0815 -0.1917
 2743SOL    HW210672   5.331   1.306   7.296 -1.1300 -2.4535  0.1618
 2744SOL     OW10673   3.290  10.430   1.600  0.7322  0.2565 -0.0230
 2744SOL    HW110674   3.327  10.518   1.599  0.2666  0.4929  1.4033
 2744SOL    HW210675   3.195  10.443   1.598  0.6565 -0.1997  0.3395
 2745SOL     OW10676   2.223   4.737   2.077 -0.1732  0.6837  0.0861
 2745SOL    HW110677   2.142   4.788   2.073  0.3496  1.4970 -2.5264
 2745SOL    HW210678   2.241   4.715   1.985  0.4733 -2.9155  0.9609
 2746SOL     OW10679   0.416  10.081   1.945  0.4775 -0.0025 -0.2737
 2746SOL    HW110680   0.405  10.174   1.922  1.2480  0.0826 -0.3507
 2746SOL    HW210681   0.341  10.060   1.999 -1.2945 -0.1254 -2.6331
 2747SOL     OW10682   4.077   8.279  10.264 -0.5850 -0.1887 -0.0638
 2747SOL    HW110683   4.119   8.350  10.313  0.8022 -1.0104  0.0073
 2747SOL    HW210684   4.031   8.228  10.330 -0.6337  0.0040  0.0517
 2748SOL     OW10685   8.155   4.960   6.372  1.0016  0.2066  0.4543
 2748SOL    HW110686   8.089   4.984   6.438  0.6375  0.2811  0.0663
 2748SOL    HW210687   8.105   4.917   6.303  1.6384 -1.9946  1.2516
 2749SOL     OW10688   6.862   1.413   7.827 -0.3485  0.1881 -0.0502
 2749SOL    HW110689   6.846   1.470   7.751  0.6200  0.1279 -0.3133
 2749SOL    HW210690   6.956   1.396   7.824 -0.5696 -1.1216  0.2495
 2750SOL     OW10691   0.155   9.526   5.525 -0.0637 -0.2499  0.8385
 2750SOL    HW110692   0.236   9.477   5.538 -0.9820 -2.2158 -0.3751
 2750SOL    HW210693   0.124   9.498   5.439 -1.2680  1.6110  0.6179
 2751SOL     OW10694   0.912   8.767   7.400 -0.1049 -0.6457 -0.4485
 2751SOL    HW110695   0.913   8.675   7.371 -1.1424 -0.1649 -2.1793
 2751SOL    HW210696   0.882   8.815   7.323 -1.4595  0.9348  1.0034
 2752SOL     OW10697   9.736   9.281  10.098 -0.1179 -0.4121 -0.4248
 2752SOL    HW110698   9.649   9.308  10.067 -0.3424 -0.3624  0.2406
 2752SOL    HW210699   9.753   9.199  10.051 -0.4807 -0.3744 -0.6315
 2753SOL     OW10700   4.082   8.251   7.153  0.4355  0.2874  0.5986
 2753SOL    HW110701   4.140   8.240   7.078 -0.0778 -0.4670  0.2930
 2753SOL    HW210702   4.026   8.325   7.130  1.0695  0.8294  0.7680
 2754SOL     OW10703   1.292  10.279   4.913 -0.0678 -0.4842  0.4536
 2754SOL    HW110704   1.378  10.262   4.876 -0.4477 -1.6316  0.0344
 2754SOL    HW210705   1.239  10.310   4.839 -0.6331 -2.0835  0.1483
 2755SOL     OW10706   9.305   9.736  10.221  0.0164 -0.1796  0.4469
 2755SOL    HW110707   9.291   9.752  10.315  2.8813  0.9650  0.7710
 2755SOL    HW210708   9.371   9.801  10.195 -0.3812 -0.7552 -2.2919
 2756SOL     OW10709   0.709   8.829   2.282  0.2713  0.3505  0.0437
 2756SOL    HW110710   0.658   8.901   2.321  0.2721  1.5878 -2.0587
 2756SOL    HW210711   0.665   8.811   2.199  1.3016 -0.9091 -0.2604
 2757SOL     OW10712   6.479   2.850   8.870 -0.3813  0.2727  0.0448
 2757SOL    HW110713   6.455   2.942   8.864 -0.4691  0.4150  1.8039
 2757SOL    HW210714   6.396   2.805   8.885 -0.1191  0.2109  1.4831
 2758SOL     OW10715   4.776   5.369   6.059  0.2060 -0.3861 -0.3743
 2758SOL    HW110716   4.804   5.385   6.149  1.5476 -0.1064 -0.8174
 2758SOL    HW210717   4.769   5.456   6.019  0.1753 -0.5348 -0.6989
 2759SOL     OW10718   4.803   7.446   7.054  0.3788  0.3293 -0.1491
 2759SOL    HW110719   4.736   7.508   7.082 -0.1612 -0.2466 -0.1589
 2759SOL    HW210720   4.882   7.472   7.103 -0.1729  0.2210  0.8192
 2760SOL     OW10721   5.329   1.309   1.337  0.1086 -0.5834  0.2975
 2760SOL    HW110722   5.399   1.368   1.365 -0.8182  0.4050  0.6031
 2760SOL    HW210723   5.320   1.326   1.243 -1.5785  1.3784  0.7527
 2761SOL     OW10724   5.353   1.965   2.694  0.5884  0.0190 -0.0418
 2761SOL    HW110725   5.397   1.972   2.609 -0.1404  1.4164 -0.3293
 2761SOL    HW210726   5.388   1.884   2.732  2.3320  0.3300 -0.8643
 2762SOL     OW10727   4.553   1.981   7.966 -0.2667 -0.2685  0.1230
 2762SOL    HW110728   4.523   1.957   8.054  1.2183 -0.2448  0.6675
 2762SOL    HW210729   4.556   2.077   7.968 -1.7957 -0.1812 -0.5233
 2763SOL     OW10730   0.560   3.126   2.221 -0.0988 -0.3110 -0.0729
 2763SOL    HW110731   0.641   3.174   2.238 -0.2666 -0.7757  2.4238
 2763SOL    HW210732   0.508   3.138   2.300 -0.9164 -3.0649 -0.0783
 2764SOL     OW10733   2.610   4.922  10.449  0.0228 -0.1161 -0.0088
 2764SOL    HW110734   2.551   4.875  10.508  0.1293 -0.3216 -0.0654
 2764SOL    HW210735   2.697   4.909  10.486  0.1046 -0.3517 -0.2783
 2765SOL     OW10736   3.555  10.256   2.623  0.0250 -0.1919 -0.1194
 2765SOL    HW110737   3.536  10.313   2.697 -0.8154 -1.0676  0.3597
 2765SOL    HW210738   3.627  10.300   2.577 -0.2297  0.9612  0.5365
 2766SOL     OW10739  10.247   8.492   1.767  0.0901 -0.9932  0.1790
 2766SOL    HW110740  10.315   8.531   1.713  1.0857 -1.9380  0.7203
 2766SOL    HW210741  10.289   8.417   1.808 -0.5461 -0.1702  2.4777
 2767SOL     OW10742   3.626   0.563   4.896 -0.0577  0.0695 -0.7689
 2767SOL    HW110743   3.710   0.544   4.854  0.2023 -1.3615  0.3053
 2767SOL    HW210744   3.645   0.563   4.990 -0.9720  1.3443 -0.5537
 2768SOL     OW10745   4.161   5.438   9.654 -0.4978 -0.4793 -0.3572
 2768SOL    HW110746   4.188   5.475   9.737  0.9524 -2.2437  0.0271
 2768SOL    HW210747   4.140   5.513   9.599  2.3805  0.9186  0.3109
 2769SOL     OW10748   6.349   1.392   6.310 -0.2983  0.4469 -0.0693
 2769SOL    HW110749   6.334   1.478   6.269 -1.4880  0.3428  0.1130
 2769SOL    HW210750   6.293   1.392   6.388 -0.6570 -0.6601 -0.3050
 2770SOL     OW10751   0.427  10.047   4.575  0.4596  0.5826 -0.4672
 2770SOL    HW110752   0.412  10.130   4.531  1.3194  1.1546  0.2633
 2770SOL    HW210753   0.466  10.071   4.660  1.4319 -0.5735 -0.5443
 2771SOL     OW10754   7.932   7.953   9.773  0.5952 -0.7100 -0.0634
 2771SOL    HW110755   8.001   7.939   9.709  1.1298 -0.2296  0.3999
 2771SOL    HW210756   7.860   7.897   9.744  0.7652 -0.3660 -1.1762
 2772SOL     OW10757   2.015   1.428   1.951 -0.5566  0.0145  0.6865
 2772SOL    HW110758   2.085   1.374   1.914 -0.9834 -0.8694  1.1274
 2772SOL    HW210759   1.954   1.441   1.879 -0.4424 -0.0750  0.5736
 2773SOL     OW10760   5.027   1.720   8.779  0.2758  0.6510  0.2315
 2773SOL    HW110761   5.107   1.737   8.729  1.4509  0.4136  1.9135
 2773SOL    HW210762   5.059   1.697   8.866 -1.5973 -0.8858  0.5658
 2774SOL     OW10763   5.648   7.714   2.731  0.2421  0.7976  0.1921
 2774SOL    HW110764   5.682   7.800   2.757 -0.3643  1.7313 -1.8844
 2774SOL    HW210765   5.553   7.726   2.725 -0.0000 -0.4046  1.0807
 2775SOL     OW10766   8.254   5.279   4.875 -0.2293 -0.1041  0.3478
 2775SOL    HW110767   8.282   5.189   4.890 -2.2071 -0.3982  2.9434
 2775SOL    HW210768   8.311   5.310   4.805  0.5201 -3.3429 -0.6799
 2776SOL     OW10769   4.803   2.343   8.215  0.9482  0.0441  0.2227
 2776SOL    HW110770   4.771   2.257   8.242 -3.4400  1.3411 -0.0924
 2776SOL    HW210771   4.873   2.363   8.277 -0.4959 -2.2002  2.7919
 2777SOL     OW10772   6.026   9.082   8.419  0.6267  0.5225  0.5628
 2777SOL    HW110773   5.987   9.030   8.488 -1.0342 -2.8827 -2.5867
 2777SOL    HW210774   5.954   9.134   8.384  0.5428 -0.4532 -0.7828
 2778SOL     OW10775   7.637   0.849   4.758  0.2467  0.0477  0.4335
 2778SOL    HW110776   7.643   0.869   4.664  0.6000  0.1075  0.4682
 2778SOL    HW210777   7.628   0.935   4.800  0.1784  0.0271  0.4610
 2779SOL     OW10778   6.910   0.955   4.978  0.0400  0.0082 -0.1403
 2779SOL    HW110779   6.867   0.989   4.900 -0.6036 -1.5343 -0.5054
 2779SOL    HW210780   7.002   0.942   4.951 -0.1051 -0.2009 -0.5479
 2780SOL     OW10781   3.982   0.626  10.126 -0.0269 -0.0918  0.5460
 2780SOL    HW110782   4.019   0.567  10.060 -2.4110 -0.3949 -0.6640
 2780SOL    HW210783   3.915   0.675  10.078  0.7777  2.5149  1.8933
 2781SOL     OW10784   7.997   4.598   8.908 -0.3462  1.0857  0.5437
 2781SOL    HW110785   7.942   4.534   8.953 -0.0513 -0.6093 -1.3594
 2781SOL    HW210786   8.084   4.585   8.946  0.2695 -1.5001 -1.4609
 2782SOL     OW10787   4.208   5.491   7.674 -0.4000 -0.6935 -0.4549
 2782SOL    HW110788   4.274   5.436   7.717  1.4084  0.9686 -0.9798
 2782SOL    HW210789   4.124   5.455   7.703  0.7223 -2.3554  0.9128
 2783SOL     OW10790   3.129   1.482   9.722  0.1348  0.0683  0.0389
 2783SOL    HW110791   3.039   1.452   9.711  0.6986 -1.1183 -1.8035
 2783SOL    HW210792   3.121   1.572   9.752 -1.7132  0.9106 -2.6135
 2784SOL     OW10793   1.276   7.791   0.612 -0.2762  0.1682 -0.4678
 2784SOL    HW110794   1.286   7.720   0.549  1.7286  1.7345 -2.0615
 2784SOL    HW210795   1.255   7.867   0.559  0.3831  1.3316  0.8787
 2785SOL     OW10796   3.681   0.721   0.752  0.2344  0.0991  0.4583
 2785SOL    HW110797   3.651   0.811   0.747  0.9324  0.3278  0.1937
 2785SOL    HW210798   3.718   0.703   0.665 -2.8521 -1.5376 -0.6537
 2786SOL     OW10799  10.014   2.770   5.625  0.2198 -0.1940  0.0895
 2786SOL    HW110800  10.042   2.737   5.540  2.9293  1.4839  0.2288
 2786SOL    HW210801   9.941   2.829   5.606  1.0963  0.5189 -1.1566
 2787SOL     OW10802   3.481   2.356   8.001  0.3364  0.4710  0.4524
 2787SOL    HW110803   3.511   2.294   7.934 -2.5012 -0.2271 -0.3124
 2787SOL    HW210804   3.524   2.438   7.980  1.3755 -0.3537 -0.7340
 2788SOL     OW10805   2.258   5.667   7.973  0.3327  0.6121  0.1391
 2788SOL    HW110806   2.286   5.609   8.044 -1.3120  0.4051  0.6627
 2788SOL    HW210807   2.249   5.752   8.015 -0.7235  0.4715  0.2251
 2789SOL     OW10808   9.393   9.487   3.773 -0.1417  0.1025  0.1085
 2789SOL    HW110809   9.381   9.425   3.846  1.4743  1.2232  1.3985
 2789SOL    HW210810   9.429   9.566   3.814  1.4984  0.5388 -1.9706
 2790SOL     OW10811   8.650   5.792   0.262  0.2131 -0.4474  0.7607
 2790SOL    HW110812   8.642   5.884   0.284 -0.7991  0.1305 -1.6347
 2790SOL    HW210813   8.741   5.770   0.280  0.3959  0.9252  1.6419
 2791SOL     OW10814   5.897   9.826   7.768 -0.3542  0.1581  0.3616
 2791SOL    HW110815   5.960   9.765   7.806 -0.0331  0.0272 -0.3519
 2791SOL    HW210816   5.914   9.821   7.674 -2.5312 -1.1384 -0.0361
 2792SOL     OW10817   6.207   9.350   8.887  0.4166 -0.5853  0.3376
 2792SOL    HW110818   6.170   9.421   8.941  2.5537  0.3354  0.6794
 2792SOL    HW210819   6.130   9.303   8.854 -1.0157 -0.6553  3.4502
 2793SOL     OW10820   8.275   1.152   2.223  0.3376  0.1411  0.6790
 2793SOL    HW110821   8.263   1.167   2.129 -0.4660  0.7203  0.8607
 2793SOL    HW210822   8.249   1.061   2.237 -0.3293  0.2914  0.4608
 2794SOL     OW10823   3.060   5.150   3.204 -0.0583 -0.0216  0.1999
 2794SOL    HW110824   3.131   5.121   3.147  0.1351  1.7158 -0.5074
 2794SOL    HW210825   3.102   5.168   3.288  0.6288  2.0804 -0.5232
 2795SOL     OW10826   7.075   6.591   0.402 -0.2384 -0.6160  0.2230
 2795SOL    HW110827   7.151   6.644   0.423 -0.0989 -1.1795  1.2203
 2795SOL    HW210828   7.102   6.538   0.327 -0.0371 -0.0178 -0.1319
 2796SOL     OW10829   8.168   8.062   0.372 -0.6045 -0.4019 -0.2927
 2796SOL    HW110830   8.143   8.133   0.431 -2.2844 -1.7843  0.7610
 2796SOL    HW210831   8.112   8.074   0.296 -0.6871 -0.4317 -0.2366
 2797SOL     OW10832   0.800   4.306   8.502 -0.2308 -0.0166  0.4961
 2797SOL    HW110833   0.860   4.360   8.450 -1.2611  0.1354 -0.5829
 2797SOL    HW210834   0.769   4.239   8.441 -2.5464  0.9991  0.4703
 2798SOL     OW10835   3.985   5.055   2.740  0.3311  0.6449 -0.1796
 2798SOL    HW110836   3.961   5.038   2.649 -1.4576  3.4036 -0.3374
 2798SOL    HW210837   3.916   5.011   2.791  1.1632 -0.6393 -0.1113
 2799SOL     OW10838   3.569   0.270   2.557 -0.2659  0.0971 -0.3634
 2799SOL    HW110839   3.486   0.234   2.526  0.4464 -1.1354 -0.8841
 2799SOL    HW210840   3.620   0.194   2.584 -0.5150  1.0153  3.1425
 2800SOL     OW10841   8.225   2.444   5.006  0.4807  0.3169  0.3027
 2800SOL    HW110842   8.208   2.388   4.931 -2.5753  0.6690  0.6258
 2800SOL    HW210843   8.224   2.533   4.970 -1.8785  0.5503  0.7845
 2801SOL     OW10844   7.327   7.441   7.595  0.2155 -0.1472  0.3940
 2801SOL    HW110845   7.407   7.479   7.560  0.9017 -2.0368 -0.2029
 2801SOL    HW210846   7.326   7.351   7.561 -1.7902 -0.3896  0.9721
 2802SOL     OW10847   2.324   6.491   0.500  0.6054 -0.3026 -0.4004
 2802SOL    HW110848   2.234   6.487   0.465  0.1458 -1.6785  0.8636
 2802SOL    HW210849   2.314   6.473   0.593  2.0935  0.7346 -0.0138
 2803SOL     OW10850   3.634   3.058   0.660 -0.0019  0.2651 -0.2428
 2803SOL    HW110851   3.574   3.123   0.696 -0.3212 -0.6227  0.8735
 2803SOL    HW210852   3.603   3.044   0.570 -1.3804 -0.0746  0.2718
 2804SOL     OW10853   2.662   2.878   7.297  0.3473  0.1948 -0.4507
 2804SOL    HW110854   2.701   2.811   7.354 -0.3121 -0.1410 -0.3933
 2804SOL    HW210855   2.571   2.885   7.325  0.2560  0.6987 -0.8462
 2805SOL     OW10856   6.536   0.276   9.726  0.5982  0.3163  1.0445
 2805SOL    HW110857   6.619   0.320   9.743  0.1084  0.7901  2.2648
 2805SOL    HW210858   6.490   0.276   9.810 -0.8524  0.5033  0.2884
 2806SOL     OW10859   4.214   0.761   9.271  0.0015 -0.2263  0.3594
 2806SOL    HW110860   4.165   0.754   9.353  0.0784 -0.1668  0.4105
 2806SOL    HW210861   4.287   0.701   9.282  1.9930  2.2725  1.7440
 2807SOL     OW10862   0.302   1.740   6.607 -0.1148 -0.2651 -0.2356
 2807SOL    HW110863   0.366   1.753   6.538 -0.6871 -0.3674 -0.7916
 2807SOL    HW210864   0.350   1.694   6.676  0.7241  0.7264 -0.1364
 2808SOL     OW10865   5.148   2.256   3.247 -0.1643  0.0943 -0.3192
 2808SOL    HW110866   5.147   2.293   3.335 -0.5933  3.2556 -1.5255
 2808SOL    HW210867   5.056   2.241   3.226 -0.1631  0.4863 -0.6289
 2809SOL     OW10868   1.594   2.708   1.751 -0.0710 -0.1777 -0.0983
 2809SOL    HW110869   1.672   2.718   1.697  0.3650  3.5947  0.9659
 2809SOL    HW210870   1.626   2.704   1.841 -1.0217 -1.0250  0.2287
 2810SOL     OW10871   3.122  10.442   4.452  0.5769 -0.1610 -0.5180
 2810SOL    HW110872   3.133  10.521   4.504 -3.2167  0.6612 -0.6576
 2810SOL    HW210873   3.064  10.387   4.505  1.1047 -1.7691 -1.5395
 2811SOL     OW10874  10.081   2.885  10.436 -0.0929  0.3848  0.8132
 2811SOL    HW110875  10.149   2.930  10.386 -1.3451 -0.3272 -1.6983
 2811SOL    HW210876  10.003   2.939  10.426 -0.8099 -0.6799  0.4599
 2812SOL     OW10877   4.706   3.852   6.374  0.5795  0.4170  0.1223
 2812SOL    HW110878   4.726   3.945   6.364  2.0929  0.1480  0.4503
 2812SOL    HW210879   4.781   3.816   6.422 -0.7714 -0.6534  1.5127
 2813SOL     OW10880   3.872   0.318   9.711 -0.2576  0.5287 -0.2006
 2813SOL    HW110881   3.858   0.401   9.755 -1.9132  0.8441 -1.2492
 2813SOL    HW210882   3.787   0.274   9.714  0.1886 -0.4438 -1.0353
 2814SOL     OW10883   8.909   1.606   4.603 -0.0643  0.0639 -0.2064
 2814SOL    HW110884   8.853   1.549   4.656  0.0205 -0.0494 -0.2388
 2814SOL    HW210885   8.989   1.556   4.591 -0.9556 -0.9344 -2.4946
 2815SOL     OW10886   2.609   5.991   4.734 -0.6841 -0.0324  0.1499
 2815SOL    HW110887   2.614   5.921   4.669  1.4247  0.8806 -0.7527
 2815SOL    HW210888   2.665   6.061   4.699 -1.2928  1.3944  1.8752
 2816SOL     OW10889   9.976   5.480   9.222 -0.4550 -0.4578  0.1809
 2816SOL    HW110890   9.981   5.565   9.265 -1.1485  0.3351 -1.2431
 2816SOL    HW210891  10.012   5.495   9.135 -2.1875 -1.1879 -0.6929
 2817SOL     OW10892   9.371   7.365   8.532  0.2143  0.1849  0.0592
 2817SOL    HW110893   9.465   7.355   8.516 -0.1506 -1.9041 -1.0820
 2817SOL    HW210894   9.366   7.434   8.599  2.4555  1.4229 -0.9062
 2818SOL     OW10895   3.378   6.174   7.904  0.7213 -0.3007  0.3199
 2818SOL    HW110896   3.379   6.141   7.814  0.4463  0.6435 -0.0422
 2818SOL    HW210897   3.306   6.126   7.946  0.6688 -0.5427 -0.0406
 2819SOL     OW10898  10.446   1.943   2.164 -0.4036 -0.5262 -0.4790
 2819SOL    HW110899  10.473   1.928   2.254  1.9132  0.3708 -0.9305
 2819SOL    HW210900  10.398   2.026   2.166  0.2277 -0.1579 -0.1392
 2820SOL     OW10901   4.765   0.953   0.165 -0.3141 -0.3130  0.2724
 2820SOL    HW110902   4.736   1.040   0.138 -1.8322 -0.2427  1.9256
 2820SOL    HW210903   4.860   0.960   0.170 -0.4573  1.5726  1.3739
 2821SOL     OW10904   4.704   2.864   1.163 -0.0817  0.0527 -0.5639
 2821SOL    HW110905   4.670   2.775   1.153 -1.0686  0.0875  1.7999
 2821SOL    HW210906   4.797   2.852   1.183 -0.4756 -0.5751  1.0376
 2822SOL     OW10907   5.597   4.439   4.651 -0.5066  0.2789 -0.1743
 2822SOL    HW110908   5.680   4.397   4.675 -1.3678 -0.5882  1.5469
 2822SOL    HW210909   5.616   4.533   4.653  0.1483  0.1479  1.5374
 2823SOL     OW10910   5.854   5.299   7.591 -0.3334 -0.5063  0.2237
 2823SOL    HW110911   5.900   5.383   7.599 -0.7867 -0.1367 -0.8468
 2823SOL    HW210912   5.909   5.237   7.639 -0.3086  0.5035  1.5753
 2824SOL     OW10913   4.672   2.625   5.673 -0.2577  0.1139 -0.7282
 2824SOL    HW110914   4.683   2.706   5.723 -0.5005 -0.5788  0.4919
 2824SOL    HW210915   4.689   2.555   5.737  0.2988 -0.7965 -1.8411
 2825SOL     OW10916   6.020   7.333   3.306  0.1542  0.5753  0.2546
 2825SOL    HW110917   6.063   7.310   3.388  1.6444 -0.7018 -0.8417
 2825SOL    HW210918   5.993   7.424   3.318  3.1268  1.4500  1.0305
 2826SOL     OW10919   8.764   4.013   8.509 -0.5021  0.1620  0.7968
 2826SOL    HW110920   8.759   4.101   8.548 -0.4696  0.2709  0.5548
 2826SOL    HW210921   8.749   3.954   8.583  1.8248  0.2806  1.4314
 2827SOL     OW10922   3.755   2.260   6.703  0.3869  0.2288  0.0041
 2827SOL    HW110923   3.681   2.249   6.643 -0.4683 -1.3007  1.2542
 2827SOL    HW210924   3.810   2.184   6.688  0.9674  0.6209  0.1068
 2828SOL     OW10925   5.889   6.568   5.318  0.6385  0.4399  0.6634
 2828SOL    HW110926   5.797   6.588   5.301  0.6224  0.1091  0.3541
 2828SOL    HW210927   5.923   6.537   5.234  1.1927  1.1417  0.6192
 2829SOL     OW10928   5.445   2.222   7.066  0.2845 -0.5857  0.7186
 2829SOL    HW110929   5.405   2.252   7.148  0.6565 -0.7799  0.9740
 2829SOL    HW210930   5.371   2.209   7.007  0.0069 -0.4955  1.0403
 2830SOL     OW10931   8.504   3.572   8.580  0.2700 -0.0589  0.6981
 2830SOL    HW110932   8.420   3.618   8.577 -0.3475 -1.1206  1.0491
 2830SOL    HW210933   8.564   3.629   8.533 -0.9012  0.2122 -0.5412
 2831SOL     OW10934   9.531   4.989   3.487 -0.3062 -0.0412 -0.0875
 2831SOL    HW110935   9.514   5.048   3.414  1.3210 -0.1600 -0.6063
 2831SOL    HW210936   9.577   5.043   3.551 -0.6492 -0.2359  0.3269
 2832SOL     OW10937   9.489   1.388   3.077 -0.1067 -0.4303 -0.3140
 2832SOL    HW110938   9.484   1.457   3.144 -0.6005 -1.2206  0.4957
 2832SOL    HW210939   9.554   1.419   3.014 -0.3382  0.7737  0.0311
 2833SOL     OW10940   6.521   3.035   9.732 -0.5160  0.2247  0.1645
 2833SOL    HW110941   6.564   2.999   9.809  0.9464 -2.0476 -1.5587
 2833SOL    HW210942   6.434   2.995   9.732 -0.4035 -0.0220  0.4712
 2834SOL     OW10943   5.224   1.481   8.180  0.0911 -0.0349 -0.0179
 2834SOL    HW110944   5.233   1.399   8.133 -1.1313 -1.0086  1.3599
 2834SOL    HW210945   5.209   1.547   8.111 -0.5150 -1.2091 -1.0401
 2835SOL     OW10946   0.987   0.800   7.906 -0.5174  0.6864 -0.6235
 2835SOL    HW110947   1.033   0.718   7.886 -1.1218  0.3234 -0.5588
 2835SOL    HW210948   1.035   0.838   7.979 -0.8578 -0.1428  0.0411
 2836SOL     OW10949  10.189   9.251   8.866 -0.0679 -0.5217 -0.7491
 2836SOL    HW110950  10.098   9.277   8.848 -0.2660 -0.8623 -0.2491
 2836SOL    HW210951  10.183   9.197   8.944  0.8130  1.2337  0.6137
 2837SOL     OW10952   7.654   5.951   7.308 -0.5029  0.0140 -0.0812
 2837SOL    HW110953   7.703   6.029   7.336 -0.0267  0.2836 -1.5538
 2837SOL    HW210954   7.678   5.884   7.372  0.0751  0.7378  0.4927
 2838SOL     OW10955   7.833   8.963   8.589 -0.0214 -0.5761 -0.7919
 2838SOL    HW110956   7.754   8.929   8.632  0.4077  0.6407  1.0687
 2838SOL    HW210957   7.901   8.956   8.655  1.1041 -0.2495 -1.8860
 2839SOL     OW10958   8.838   0.202   9.339 -0.3364 -0.2060  0.6392
 2839SOL    HW110959   8.829   0.297   9.352 -0.9158 -0.1973  0.2068
 2839SOL    HW210960   8.806   0.187   9.251 -0.4802 -0.8428  0.7970
 2840SOL     OW10961   8.267   8.484   9.093 -0.0422 -0.3002  0.3618
 2840SOL    HW110962   8.242   8.447   9.008  2.4029  2.0256 -1.5653
 2840SOL    HW210963   8.183   8.508   9.134 -1.3075 -1.4181 -1.4110
 2841SOL     OW10964   6.502   8.477   8.874 -0.1706 -0.1795  0.7981
 2841SOL    HW110965   6.523   8.549   8.815  0.3819 -1.7526 -1.0355
 2841SOL    HW210966   6.415   8.448   8.848 -0.1193 -0.5875  1.0648
 2842SOL     OW10967   8.063   6.943   3.856 -0.3017 -0.2272 -0.1127
 2842SOL    HW110968   8.136   6.952   3.917 -1.1088  0.7409  0.7458
 2842SOL    HW210969   8.079   6.859   3.812  1.1982 -0.1347  0.2026
 2843SOL     OW10970   6.937   7.712  10.385 -0.3401 -0.4497  0.1673
 2843SOL    HW110971   7.030   7.696  10.400  0.2451  2.5400  0.4881
 2843SOL    HW210972   6.927   7.807  10.397 -3.4699 -0.6825  0.2865
 2844SOL     OW10973   5.594   2.131   8.483 -0.1184 -0.2992  0.3580
 2844SOL    HW110974   5.516   2.095   8.526 -0.6121 -0.7958 -0.8991
 2844SOL    HW210975   5.647   2.166   8.554 -2.4668  2.0197  1.1211
 2845SOL     OW10976   3.562   5.879   0.350  0.1676 -0.0684 -0.5357
 2845SOL    HW110977   3.655   5.893   0.331  0.5205 -1.2493  0.2190
 2845SOL    HW210978   3.549   5.785   0.334 -0.8653  0.0557 -0.4770
 2846SOL     OW10979  10.246   1.032   4.838 -0.3612 -0.5614  0.1159
 2846SOL    HW110980  10.183   1.084   4.788 -0.6779 -0.4151  0.6619
 2846SOL    HW210981  10.234   0.943   4.805 -1.7584 -0.7602  1.0879
 2847SOL     OW10982   2.828   4.182   9.657 -0.0821  0.3536  0.0522
 2847SOL    HW110983   2.919   4.178   9.687 -0.1966  2.9755  0.9697
 2847SOL    HW210984   2.831   4.145   9.569  2.4582  2.9197 -1.0922
 2848SOL     OW10985   3.894  10.424   1.167 -0.4700 -0.0026  0.2878
 2848SOL    HW110986   3.974  10.388   1.129 -1.5043 -0.9430 -1.1442
 2848SOL    HW210987   3.894  10.516   1.141 -0.7279 -0.4274 -1.3517
 2849SOL     OW10988   0.289   4.110   0.368  0.0773  0.7826  0.7223
 2849SOL    HW110989   0.346   4.034   0.355 -0.3535  0.3520  1.2758
 2849SOL    HW210990   0.319   4.174   0.304 -0.3915 -0.3352 -0.6908
 2850SOL     OW10991   9.460   3.134   8.151 -0.4150 -0.2764 -0.0142
 2850SOL    HW110992   9.411   3.129   8.069  0.0556 -2.6461 -0.2223
 2850SOL    HW210993   9.522   3.062   8.146  0.8046  0.5857  1.7130
 2851SOL     OW10994   6.813   3.031   7.871 -0.0940  0.0770 -0.1793
 2851SOL    HW110995   6.727   3.001   7.841  0.5690 -3.1643  0.6938
 2851SOL    HW210996   6.876   2.988   7.813  0.9924  0.6231  0.5432
 2852SOL     OW10997   4.613   1.418   8.895  0.0902 -0.1647  0.2948
 2852SOL    HW110998   4.631   1.394   8.985  0.7595 -2.1510 -0.3146
 2852SOL    HW210999   4.698   1.444   8.859 -0.3483  1.6347  0.4855
 2853SOL     OW11000   3.666   4.756   8.296  0.1255 -0.4031 -0.1720
 2853SOL    HW111001   3.668   4.760   8.201 -0.5733  0.4302 -0.1544
 2853SOL    HW211002   3.607   4.683   8.316  0.0911 -0.4292 -0.3679
 2854SOL     OW11003   4.382   0.518   1.071  0.0757 -0.3137 -0.0068
 2854SOL    HW111004   4.356   0.430   1.099  2.9231 -1.1994  0.1681
 2854SOL    HW211005   4.299   0.564   1.057 -1.5506 -3.2281 -0.8560
 2855SOL     OW11006  10.018   2.290   4.809  0.2074 -0.0836 -0.5161
 2855SOL    HW111007  10.077   2.221   4.840  0.6413  0.4133 -0.2206
 2855SOL    HW211008   9.933   2.268   4.849  0.5242 -0.0154  0.2071
 2856SOL     OW11009   3.279   8.097   1.295  0.5645  0.1494  0.4236
 2856SOL    HW111010   3.209   8.041   1.328 -0.2795  0.2133 -1.1310
 2856SOL    HW211011   3.280   8.172   1.354 -0.7722  0.1946  0.4267
 2857SOL     OW11012   6.713   3.993   0.878  0.2275  0.0825  0.0812
 2857SOL    HW111013   6.749   3.992   0.967  0.1967  0.4277  0.1016
 2857SOL    HW211014   6.717   3.902   0.849  0.0650 -0.0627  0.5054
 2858SOL     OW11015   2.419   3.348   1.623 -0.2811 -0.2706  0.4273
 2858SOL    HW111016   2.426   3.254   1.605  2.2379 -0.4820  1.9887
 2858SOL    HW211017   2.405   3.388   1.537 -2.6043 -2.1024 -0.1420
 2859SOL     OW11018   8.307   3.474   3.025  0.1351 -0.3633  0.1762
 2859SOL    HW111019   8.254   3.404   3.063 -0.0643 -0.3857 -0.1328
 2859SOL    HW211020   8.381   3.484   3.084 -0.7847  0.4421  1.2213
 2860SOL     OW11021   9.988   5.038   4.711  0.4309 -0.5025 -0.1937
 2860SOL    HW111022   9.953   4.955   4.743 -0.7330  0.6160  1.6086
 2860SOL    HW211023  10.082   5.025   4.708  0.5815 -0.9832  3.0497
 2861SOL     OW11024   1.701   4.065   8.996  0.2544  0.1805 -0.1730
 2861SOL    HW111025   1.658   4.035   8.915 -0.0880  0.5335 -0.1246
 2861SOL    HW211026   1.782   4.014   9.000 -0.1934 -0.5550 -0.2261
 2862SOL     OW11027   1.717  10.141   0.296  0.2345  0.2996  0.5699
 2862SOL    HW111028   1.714  10.051   0.265 -2.2255 -0.1823  1.9390
 2862SOL    HW211029   1.806  10.153   0.329  1.4974 -0.6282 -2.2549
 2863SOL     OW11030   4.485   8.723   5.518  0.0493 -0.3948 -0.6990
 2863SOL    HW111031   4.422   8.773   5.570  1.1649 -0.3494  0.6596
 2863SOL    HW211032   4.555   8.786   5.498  0.3452 -0.8052 -0.9737
 2864SOL     OW11033   5.264   6.635   6.206  0.0201  0.1602 -0.0697
 2864SOL    HW111034   5.326   6.684   6.151  0.2583 -0.3158 -0.2313
 2864SOL    HW211035   5.294   6.651   6.295 -0.7639  1.4804 -0.0246
 2865SOL     OW11036   7.149   6.056   1.675 -1.0433  0.0598 -1.0056
 2865SOL    HW111037   7.197   6.001   1.737 -2.5061 -1.5613 -1.2327
 2865SOL    HW211038   7.199   6.049   1.593 -0.8137 -0.3390 -0.8334
 2866SOL     OW11039   3.487   5.376  10.113  0.0319 -0.4502 -0.9091
 2866SOL    HW111040   3.522   5.288  10.097  1.2987 -0.3069  0.7057
 2866SOL    HW211041   3.480   5.416  10.026 -0.7023 -2.1663 -1.6841
 2867SOL     OW11042   3.190   8.249   3.906  0.3086 -0.0973  0.1231
 2867SOL    HW111043   3.247   8.207   3.841  0.7172 -1.3348  1.2401
 2867SOL    HW211044   3.102   8.237   3.872  0.6017  0.5776 -0.9253
 2868SOL     OW11045   4.311   5.370   6.310 -0.3421  0.1791  0.3508
 2868SOL    HW111046   4.342   5.408   6.228  1.0637 -0.6901  0.4484
 2868SOL    HW211047   4.251   5.301   6.283 -0.7150  0.6055  0.0872
 2869SOL     OW11048   4.746   8.033   0.194 -0.5474 -0.5338 -0.1097
 2869SOL    HW111049   4.701   8.115   0.212 -1.4840 -0.8799 -0.7920
 2869SOL    HW211050   4.733   8.019   0.100 -2.7840 -2.8144  0.4439
 2870SOL     OW11051   8.834   2.709   0.322  0.2790 -1.0007 -0.3208
 2870SOL    HW111052   8.840   2.687   0.229 -0.7801 -0.5534 -0.5066
 2870SOL    HW211053   8.749   2.676   0.350  0.4502 -0.8491  0.4217
 2871SOL     OW11054   8.658   9.408   7.563 -0.7575  0.0018 -0.2561
 2871SOL    HW111055   8.720   9.455   7.508 -1.3895  2.0566  0.6855
 2871SOL    HW211056   8.711   9.344   7.611  0.3525  0.6014 -0.6624
 2872SOL     OW11057   9.243   5.609   2.678 -0.1057 -0.5539  0.0964
 2872SOL    HW111058   9.225   5.637   2.768 -1.0028 -3.5605  0.9721
 2872SOL    HW211059   9.327   5.565   2.683  0.7292  0.8367 -0.9887
 2873SOL     OW11060   7.746   0.407   0.961  0.4292 -0.4233  0.3795
 2873SOL    HW111061   7.680   0.382   0.896 -1.0717  3.8637 -0.0718
 2873SOL    HW211062   7.698   0.411   1.044  0.2756  1.6902  0.2385
 2874SOL     OW11063   1.191   1.859   8.564  0.2337 -0.3598 -0.4948
 2874SOL    HW111064   1.114   1.884   8.614  0.0918 -3.0246  0.7689
 2874SOL    HW211065   1.264   1.902   8.610 -0.1687 -0.6458  0.4349
 2875SOL     OW11066   5.347   7.838   7.480  0.9588  0.7273  0.5469
 2875SOL    HW111067   5.262   7.798   7.498  0.5637  0.8973 -0.7849
 2875SOL    HW211068   5.384   7.857   7.566 -1.2044  2.4093  1.2079
 2876SOL     OW11069   9.876   8.523   6.364  0.1075  0.0513 -0.1851
 2876SOL    HW111070   9.795   8.472   6.361  0.2158 -0.4890  2.9127
 2876SOL    HW211071   9.873   8.576   6.285 -2.3356 -1.3109 -1.1329
 2877SOL     OW11072   4.642   6.999   2.105  0.2750 -0.1534  0.0761
 2877SOL    HW111073   4.721   7.031   2.148 -0.0800  0.7641  0.0665
 2877SOL    HW211074   4.573   7.012   2.170 -0.2443  1.1322 -0.7093
 2878SOL     OW11075   6.110   0.326   8.103  0.0218  0.0886 -0.5538
 2878SOL    HW111076   6.020   0.318   8.136 -0.2863  0.0552 -1.3907
 2878SOL    HW211077   6.150   0.241   8.122 -0.7497 -0.6330 -2.0271
 2879SOL     OW11078  10.484   4.058   3.216  0.3054  0.3123 -0.1630
 2879SOL    HW111079  10.494   4.142   3.261  1.3840  0.1937 -0.1639
 2879SOL    HW211080  10.431   4.005   3.276  2.0251  0.0325  1.1816
 2880SOL     OW11081   6.664   1.305   1.868 -0.1700  0.3523  0.6817
 2880SOL    HW111082   6.666   1.330   1.776  0.8868 -1.8457  0.0237
 2880SOL    HW211083   6.739   1.350   1.907 -0.9573  1.7421  0.6264
 2881SOL     OW11084   9.691   9.442   0.859 -0.0880  0.3979 -0.3461
 2881SOL    HW111085   9.745   9.364   0.867 -0.8000 -0.2459 -1.5035
 2881SOL    HW211086   9.695   9.483   0.945 -1.2882 -1.9881  0.9407
 2882SOL     OW11087   0.081   4.101   1.477 -0.2685 -0.1535 -0.1794
 2882SOL    HW111088   0.076   4.024   1.533 -1.1023 -1.5022 -1.9902
 2882SOL    HW211089   0.000   4.149   1.494  0.5856  0.7752  1.4928
 2883SOL     OW11090   6.106   2.421   4.276  0.3550 -0.1676  0.1556
 2883SOL    HW111091   6.066   2.373   4.204 -0.6424  0.9003 -0.0305
 2883SOL    HW211092   6.164   2.484   4.233 -0.7273  0.9112  0.2213
 2884SOL     OW11093   6.140   9.394   7.977 -0.2986 -0.0316  0.1346
 2884SOL    HW111094   6.055   9.373   8.016  0.1716 -0.9332  0.7132
 2884SOL    HW211095   6.200   9.400   8.052  0.7080 -2.2315 -0.4184
 2885SOL     OW11096   7.511   7.956   1.192  0.0233  0.1868  0.3638
 2885SOL    HW111097   7.561   7.891   1.143  0.5387  0.0209  1.1014
 2885SOL    HW211098   7.461   7.906   1.256 -1.4970  0.3052 -0.6883
 2886SOL     OW11099   0.129   4.430   9.288  0.1020 -0.0088  0.0407
 2886SOL    HW111100   0.099   4.359   9.232 -1.5457  0.7357 -0.0949
 2886SOL    HW211101   0.133   4.507   9.230  1.6955  0.0827  0.2161
 2887SOL     OW11102   4.525   4.292   3.801 -0.6677  0.1452 -0.3620
 2887SOL    HW111103   4.600   4.269   3.855 -1.7844  1.7213  2.0431
 2887SOL    HW211104   4.452   4.296   3.862 -2.0451  1.9408 -1.9941
 2888SOL     OW11105   7.770   3.969   7.606  0.0034  0.1377  0.0266
 2888SOL    HW111106   7.694   3.923   7.569  0.1983 -1.2774  1.2806
 2888SOL    HW211107   7.820   3.997   7.530 -1.4629  0.5656 -0.8192
 2889SOL     OW11108   0.019   3.798  10.156 -0.1764  0.6527 -0.2997
 2889SOL    HW111109   0.024   3.885  10.197  3.2839  0.1181  0.7816
 2889SOL    HW211110  -0.013   3.816  10.067 -1.4562  2.7264  0.4874
 2890SOL     OW11111   6.839   5.734   3.348 -0.4563  0.2488 -0.3364
 2890SOL    HW111112   6.801   5.692   3.426  0.0737 -1.5512 -0.9984
 2890SOL    HW211113   6.892   5.665   3.308  0.2609  1.5202 -1.6280
 2891SOL     OW11114   9.976   2.427   3.710 -0.6942 -0.1263 -0.1786
 2891SOL    HW111115  10.020   2.346   3.735 -0.9646 -0.4439 -0.7083
 2891SOL    HW211116   9.955   2.415   3.617  0.8968  1.2980 -0.7657
 2892SOL     OW11117   5.004   3.110   9.177 -0.0185 -0.0028 -0.3299
 2892SOL    HW111118   5.089   3.152   9.168 -0.0529  0.1771  0.1335
 2892SOL    HW211119   4.968   3.146   9.259  0.8705 -2.5001  1.2664
 2893SOL     OW11120   4.715   6.403   8.212 -0.3247 -0.0202 -0.0337
 2893SOL    HW111121   4.795   6.365   8.248 -1.2420 -1.3059  0.7252
 2893SOL    HW211122   4.661   6.423   8.288 -1.2992 -0.4828 -0.5831
 2894SOL     OW11123   2.331   4.811   8.565 -0.5030 -0.0465  0.4988
 2894SOL    HW111124   2.407   4.786   8.512 -1.7124  0.8536 -1.8051
 2894SOL    HW211125   2.368   4.859   8.639  1.2640 -1.2981  0.4826
 2895SOL     OW11126   6.669   8.499   2.794 -0.4286 -1.0374 -0.2031
 2895SOL    HW111127   6.702   8.410   2.800 -1.4680 -1.4203  0.0723
 2895SOL    HW211128   6.604   8.505   2.864 -1.8784 -0.7295 -1.5281
 2896SOL     OW11129   5.312   3.690   1.948 -0.1187  0.7114  0.5780
 2896SOL    HW111130   5.261   3.724   2.022 -0.4847  1.9521 -0.2011
 2896SOL    HW211131   5.403   3.715   1.968  0.0266 -0.4254  1.3875
 2897SOL     OW11132   4.726   5.210   2.968 -0.4912  0.2078  0.2523
 2897SOL    HW111133   4.676   5.129   2.982  0.6618 -0.4823  0.5026
 2897SOL    HW211134   4.733   5.217   2.873 -1.4042  0.5328  0.2012
 2898SOL     OW11135   8.631   3.105   0.278  0.0497 -0.3372  0.1978
 2898SOL    HW111136   8.699   3.039   0.272 -1.3510 -1.7675 -0.8197
 2898SOL    HW211137   8.565   3.078   0.213 -1.9027  0.4512  1.7306
 2899SOL     OW11138   8.567   7.071   4.624 -0.2205 -0.0553  0.0538
 2899SOL    HW111139   8.510   7.022   4.684  0.3488  1.6397  2.0934
 2899SOL    HW211140   8.548   7.163   4.642  1.1722  0.5282 -1.2086
 2900SOL     OW11141   1.259   1.102  10.472  0.5912 -0.6981 -0.6769
 2900SOL    HW111142   1.197   1.135  10.407 -1.1631 -2.7847 -0.1589
 2900SOL    HW211143   1.224   1.131  10.556  2.2591  1.0411 -0.4921
 2901SOL     OW11144   6.760  10.027   7.194  0.1845 -0.3931  0.1404
 2901SOL    HW111145   6.853  10.010   7.211  0.3423  0.2035 -0.0962
 2901SOL    HW211146   6.715   9.987   7.268  0.6420 -0.5308  0.3523
 2902SOL     OW11147   9.361   3.716   3.497 -0.3392 -0.0531 -0.0823
 2902SOL    HW111148   9.340   3.654   3.427  1.4597  0.7984 -1.4443
 2902SOL    HW211149   9.434   3.675   3.543  0.0698  0.5066 -0.2350
 2903SOL     OW11150   4.804   7.344  10.455 -0.0983  0.3623  0.1689
 2903SOL    HW111151   4.714   7.378  10.457  0.3261  1.6616 -1.1181
 2903SOL    HW211152   4.859   7.421  10.468  0.8712 -0.6316  2.6116
 2904SOL     OW11153   2.886   0.925   7.003 -0.3242 -0.2432  0.3679
 2904SOL    HW111154   2.803   0.965   7.030  0.1679  2.0959 -1.3268
 2904SOL    HW211155   2.872   0.898   6.913  0.7012 -0.0027  0.1279
 2905SOL     OW11156   7.066   3.574   1.786 -0.0981 -0.0347 -0.5927
 2905SOL    HW111157   7.088   3.630   1.712 -0.7079 -0.1741 -0.8806
 2905SOL    HW211158   6.991   3.617   1.827  0.1387 -0.0413 -0.1446
 2906SOL     OW11159   0.888   1.683   6.808 -0.2949 -0.2663 -0.4686
 2906SOL    HW111160   0.854   1.680   6.719 -1.1531  1.4411 -0.2426
 2906SOL    HW211161   0.966   1.739   6.802 -0.5706  0.1675 -0.1017
 2907SOL     OW11162   4.901   0.135   9.139 -0.2047  0.6457  0.3456
 2907SOL    HW111163   4.865   0.142   9.050 -2.5030 -2.1779  0.8833
 2907SOL    HW211164   4.840   0.184   9.194 -0.1673  0.3695  0.6379
 2908SOL     OW11165   5.943   4.178   5.460  0.3843  0.0573 -0.0870
 2908SOL    HW111166   5.977   4.145   5.377  0.1746 -2.5740  0.7774
 2908SOL    HW211167   5.934   4.272   5.447  3.6959  0.2492 -1.8314
 2909SOL     OW11168   9.683   8.021   7.587  0.3287 -0.5401 -0.0449
 2909SOL    HW111169   9.725   8.052   7.668 -0.5889 -0.0989  0.2775
 2909SOL    HW211170   9.593   8.051   7.594  0.9853  2.7085 -2.8491
 2910SOL     OW11171  10.254  10.460   7.826 -0.2030  0.1628  0.2422
 2910SOL    HW111172  10.283  10.501   7.908  0.3914  0.0737  0.0831
 2910SOL    HW211173  10.167  10.426   7.846 -0.1185  0.2591  0.7982
 2911SOL     OW11174   6.869   9.307   4.596  0.0744  0.5355  0.1371
 2911SOL    HW111175   6.953   9.313   4.643  0.1852  1.3267 -0.1357
 2911SOL    HW211176   6.826   9.391   4.615 -0.8364 -0.0242  0.6063
 2912SOL     OW11177   2.106   8.066   1.612  0.3097  0.4519 -0.4674
 2912SOL    HW111178   2.188   8.057   1.564 -0.2580 -2.2225 -1.0842
 2912SOL    HW211179   2.083   7.977   1.638 -2.3127  1.1262 -0.1722
 2913SOL     OW11180   5.910   9.766   0.989 -0.1069  0.3702  0.1729
 2913SOL    HW111181   6.003   9.777   1.008 -0.1355 -0.3866  0.7910
 2913SOL    HW211182   5.899   9.804   0.902  0.6101  1.2204  0.4463
 2914SOL     OW11183   9.745   5.894  10.339  0.4896  0.1518  0.1539
 2914SOL    HW111184   9.731   5.812  10.386  2.2894 -0.4519 -0.2669
 2914SOL    HW211185   9.685   5.956  10.380 -0.5688 -1.2542  0.7963
 2915SOL     OW11186  10.491   6.466   6.989 -0.3656 -0.1512 -0.3148
 2915SOL    HW111187  10.537   6.539   7.031  0.9037 -0.5200 -1.0216
 2915SOL    HW211188  10.438   6.427   7.059 -1.3686  1.6582 -0.0081
 2916SOL     OW11189   7.778   1.341   9.021 -0.1291 -0.7956 -0.0404
 2916SOL    HW111190   7.697   1.309   9.061 -0.3416  1.3771  1.4548
 2916SOL    HW211191   7.748   1.400   8.952  0.2116 -0.8471 -0.2342
 2917SOL     OW11192   1.272   4.973   9.063 -0.0132  0.3032 -0.1519
 2917SOL    HW111193   1.258   4.949   8.972  0.3554  0.6599 -0.3061
 2917SOL    HW211194   1.195   4.939   9.109 -0.5522  0.7480 -0.7063
 2918SOL     OW11195  10.325   6.395   2.110  0.3079  0.4408  0.4102
 2918SOL    HW111196  10.283   6.472   2.071  2.2738  2.2006  1.5774
 2918SOL    HW211197  10.263   6.366   2.177 -1.0904  0.0994 -0.9715
 2919SOL     OW11198   6.757   9.115   1.670 -0.2695  0.3319 -0.1200
 2919SOL    HW111199   6.773   9.134   1.762 -2.7481 -0.3157  0.5250
 2919SOL    HW211200   6.835   9.147   1.624 -0.0194  2.8973  1.9016
 2920SOL     OW11201   2.518   3.491   2.420 -0.1254 -0.1356  0.2904
 2920SOL    HW111202   2.559   3.434   2.485  1.9814  3.4506  2.4660
 2920SOL    HW211203   2.592   3.526   2.370 -1.3396  0.5644 -1.0780
 2921SOL     OW11204   1.511   2.022   3.012 -0.2853  0.3009 -0.2748
 2921SOL    HW111205   1.447   1.974   3.064 -0.4670  1.1152  0.2650
 2921SOL    HW211206   1.535   1.961   2.942 -3.0870  0.6626 -1.6654
 2922SOL     OW11207   0.522   9.071   2.395 -0.0506  0.0834  0.0660
 2922SOL    HW111208   0.553   9.122   2.469  0.4758  1.5425 -1.1035
 2922SOL    HW211209   0.441   9.115   2.368 -0.0427 -0.2000 -0.4346
 2923SOL     OW11210   4.955   8.564   9.237  0.1848 -0.0011 -0.6417
 2923SOL    HW111211   4.897   8.533   9.306  0.7951  2.4838  1.1128
 2923SOL    HW211212   4.902   8.627   9.188  1.1438  1.9449  0.6955
 2924SOL     OW11213   0.621   3.280   8.123  0.2685  0.5468 -0.3267
 2924SOL    HW111214   0.640   3.272   8.217  2.7377  0.4794 -0.7646
 2924SOL    HW211215   0.527   3.267   8.117  0.3190 -1.7237  1.9111
 2925SOL     OW11216   7.379   7.958   5.395 -0.4794  0.6803  0.3985
 2925SOL    HW111217   7.415   7.881   5.438 -1.7398  0.3811  0.9731
 2925SOL    HW211218   7.292   7.930   5.366 -1.7915  2.4357  2.4014
 2926SOL     OW11219   1.345   7.285   4.871  0.2672  0.0846 -0.2596
 2926SOL    HW111220   1.420   7.314   4.922  0.4968 -0.2353 -0.4079
 2926SOL    HW211221   1.271   7.333   4.907  0.4920  0.1604  0.1072
 2927SOL     OW11222   4.193   2.816   7.888 -0.4149 -0.1323  0.0768
 2927SOL    HW111223   4.260   2.748   7.893 -0.7753 -0.4171  1.4032
 2927SOL    HW211224   4.116   2.772   7.851 -0.8454 -0.6374  1.5117
 2928SOL     OW11225   2.662   2.792   6.157 -0.0374  0.5396  0.3297
 2928SOL    HW111226   2.666   2.757   6.246  0.8896 -0.4236 -0.0640
 2928SOL    HW211227   2.625   2.880   6.167 -0.6662  0.1625  1.5692
 2929SOL     OW11228   1.580   7.641   3.912 -0.3670 -0.1138 -0.2637
 2929SOL    HW111229   1.625   7.560   3.936 -0.4964 -0.1822 -0.2483
 2929SOL    HW211230   1.632   7.710   3.953  0.4332 -0.0937 -1.2859
 2930SOL     OW11231   1.025   9.734   9.249  0.1568  0.1318 -0.5886
 2930SOL    HW111232   1.100   9.705   9.301  0.5640  3.3943  0.8667
 2930SOL    HW211233   1.016   9.667   9.182  3.4448 -1.1524  0.0396
 2931SOL     OW11234   2.594   8.206   2.547  0.6487 -0.3975 -0.5548
 2931SOL    HW111235   2.593   8.111   2.542 -2.7104 -0.6142  1.1916
 2931SOL    HW211236   2.600   8.226   2.641  0.4830  1.0559 -0.8167
 2932SOL     OW11237   2.572   4.143   9.143 -0.1094  0.1736  0.2078
 2932SOL    HW111238   2.560   4.048   9.150  2.4156 -0.3453 -1.2815
 2932SOL    HW211239   2.491   4.174   9.102 -0.7870 -1.3922  0.2939
 2933SOL     OW11240   4.354   4.268   2.226  0.3491 -0.3461 -0.2202
 2933SOL    HW111241   4.360   4.239   2.135 -0.2541 -0.2695 -0.2873
 2933SOL    HW211242   4.363   4.363   2.222 -2.0121 -0.0749 -0.4662
 2934SOL     OW11243   3.560   4.347   4.758  0.2488  0.3994 -0.2344
 2934SOL    HW111244   3.506   4.414   4.717 -0.2927  0.3891  0.4456
 2934SOL    HW211245   3.618   4.316   4.688  1.0047  2.0792 -0.3893
 2935SOL     OW11246   1.084  10.355   1.066  0.1461 -0.2060  0.3452
 2935SOL    HW111247   1.115  10.286   1.125 -1.1807 -1.3539 -0.2332
 2935SOL    HW211248   1.002  10.384   1.104  0.4718  0.7565  0.3347
 2936SOL     OW11249   6.214   9.345   2.482  0.1843 -0.4787  0.3775
 2936SOL    HW111250   6.209   9.252   2.501  0.3466 -0.9539 -1.6709
 2936SOL    HW211251   6.300   9.372   2.513  1.1991 -1.6283 -1.2712
 2937SOL     OW11252   5.551   1.580   7.358  0.4103 -0.2600  0.4221
 2937SOL    HW111253   5.540   1.522   7.283  2.1446  0.7870 -0.7019
 2937SOL    HW211254   5.466   1.624   7.367 -0.1394 -1.1528 -0.2510
 2938SOL     OW11255   3.867   9.343   4.580  0.1440 -0.1014  0.1622
 2938SOL    HW111256   3.842   9.285   4.651  0.1848 -0.7408 -0.3380
 2938SOL    HW211257   3.906   9.286   4.514  1.3711  0.6506  0.2022
 2939SOL     OW11258   8.103   4.308   3.502 -0.2306  0.0147  0.6968
 2939SOL    HW111259   8.175   4.286   3.562 -0.2630 -1.4424  0.2474
 2939SOL    HW211260   8.140   4.294   3.415 -0.5082  1.0905  0.3961
 2940SOL     OW11261   7.485   4.092   1.475 -0.7528 -0.1918  0.3757
 2940SOL    HW111262   7.530   4.152   1.535 -0.7980  1.9021 -1.5595
 2940SOL    HW211263   7.392   4.110   1.488 -0.7544  0.5260 -0.5040
 2941SOL     OW11264   3.514   2.081   8.189  0.0559  0.3451 -0.3021
 2941SOL    HW111265   3.490   2.081   8.096  1.7386 -1.8308 -0.8188
 2941SOL    HW211266   3.452   2.021   8.230 -1.0395  1.7316  0.1278
 2942SOL     OW11267   2.978   5.528   5.698 -0.1762  0.0826  0.2473
 2942SOL    HW111268   3.006   5.452   5.747  0.2366  0.8834  1.2860
 2942SOL    HW211269   2.902   5.498   5.647  1.6103 -1.7285 -1.5082
 2943SOL     OW11270   6.195   2.593  10.158  0.5826  0.2883 -0.3018
 2943SOL    HW111271   6.257   2.542  10.210  0.1464 -0.4758 -0.5222
 2943SOL    HW211272   6.205   2.683  10.190  1.1976  0.0314  0.2444
 2944SOL     OW11273   7.617   1.156   1.868 -0.4681  0.5653 -0.1571
 2944SOL    HW111274   7.594   1.226   1.930 -0.1726  0.2141  0.3595
 2944SOL    HW211275   7.713   1.154   1.869 -0.4689 -0.6328  0.7575
 2945SOL     OW11276   8.705   7.059   2.954  0.1365 -0.0197 -0.3762
 2945SOL    HW111277   8.684   7.128   3.017 -0.8811 -0.6339 -0.0332
 2945SOL    HW211278   8.629   7.054   2.897  0.5413 -0.3151 -0.9067
 2946SOL     OW11279   5.054   2.847   7.680 -0.0281 -0.1424  0.1281
 2946SOL    HW111280   5.115   2.834   7.753 -0.4365  1.4937  0.8123
 2946SOL    HW211281   5.079   2.781   7.616  0.7780 -1.1977  1.4741
 2947SOL     OW11282   0.224   0.136   5.004  0.7687 -0.7384  0.2654
 2947SOL    HW111283   0.281   0.202   4.965  1.2379 -1.9624 -1.2139
 2947SOL    HW211284   0.261   0.120   5.091 -1.0943  3.0464  1.9767
 2948SOL     OW11285   0.551   4.170   8.114 -0.1857 -0.3028 -0.4176
 2948SOL    HW111286   0.526   4.204   8.029  0.0008 -1.2456 -0.8567
 2948SOL    HW211287   0.508   4.085   8.120  0.4089 -0.5726  0.1172
 2949SOL     OW11288   4.450   1.618   1.024 -0.2264  0.1444  0.0824
 2949SOL    HW111289   4.379   1.629   1.088 -1.3644 -0.5606 -1.0256
 2949SOL    HW211290   4.474   1.708   1.001 -1.9051  0.4176 -0.7367
 2950SOL     OW11291   2.122   9.916   0.263 -0.6643 -0.0660 -0.4269
 2950SOL    HW111292   2.189   9.921   0.331 -2.4873 -1.6192  1.6205
 2950SOL    HW211293   2.121   9.824   0.237 -2.2284 -0.1833 -0.0924
 2951SOL     OW11294   0.228   7.971   3.212 -0.0878  0.5727 -0.1181
 2951SOL    HW111295   0.274   7.903   3.164 -0.8686 -0.0198 -0.0547
 2951SOL    HW211296   0.295   8.035   3.234  0.6689 -0.1927 -0.1505
 2952SOL     OW11297   7.165   5.766   2.010  0.0316  0.8567  0.1336
 2952SOL    HW111298   7.195   5.854   2.034  1.0641  0.5701 -0.0577
 2952SOL    HW211299   7.075   5.778   1.980 -1.2967  1.3420  3.7106
 2953SOL     OW11300   1.728   7.727   2.937  0.3618 -0.1520 -0.2527
 2953SOL    HW111301   1.706   7.764   2.851  2.0248  0.0703 -0.6250
 2953SOL    HW211302   1.811   7.769   2.960  1.2101 -2.0430  0.3209
 2954SOL     OW11303   1.328   5.301   8.084 -0.3416  0.0729  0.7411
 2954SOL    HW111304   1.418   5.310   8.053 -0.2198  0.2253  1.1253
 2954SOL    HW211305   1.289   5.235   8.028  0.2543 -0.5892  1.0926
 2955SOL     OW11306   8.071   5.656   3.510  0.9871 -0.0844 -0.6337
 2955SOL    HW111307   8.128   5.661   3.586  0.3434  1.5051 -0.2268
 2955SOL    HW211308   8.079   5.741   3.467  2.2905 -1.3383 -3.1090
 2956SOL     OW11309  10.119   2.946   9.775  0.0621 -0.3000  0.4812
 2956SOL    HW111310  10.040   2.904   9.808 -0.0917  1.3473  2.4350
 2956SOL    HW211311  10.117   3.034   9.814  2.0150  0.3525 -0.7585
 2957SOL     OW11312   1.516   6.792   5.825  0.1571  0.2009 -0.2751
 2957SOL    HW111313   1.432   6.832   5.807 -0.6085  0.4164  3.1171
 2957SOL    HW211314   1.506   6.701   5.798 -1.3422  0.1295  0.4537
 2958SOL     OW11315   8.054   8.782   3.477 -0.3631  0.6056 -0.0487
 2958SOL    HW111316   8.132   8.726   3.471  0.3923  1.6008  0.2254
 2958SOL    HW211317   7.991   8.741   3.418 -0.3931 -1.3870  1.2962
 2959SOL     OW11318   3.230   9.759   3.104 -0.1912 -0.2511 -0.4170
 2959SOL    HW111319   3.157   9.769   3.043  0.2385 -0.4767 -0.9708
 2959SOL    HW211320   3.256   9.667   3.096 -0.2890 -0.3485  0.2918
 2960SOL     OW11321   2.205   2.159   3.889  0.1679  0.4499  0.2260
 2960SOL    HW111322   2.256   2.090   3.933  2.7381  2.6229  0.8810
 2960SOL    HW211323   2.187   2.223   3.958 -1.3311  0.9461 -0.5742
 2961SOL     OW11324   8.179   2.606   7.289  0.4240 -0.0645  0.3810
 2961SOL    HW111325   8.093   2.648   7.288 -0.3588 -1.5808  0.8365
 2961SOL    HW211326   8.213   2.622   7.377  0.9896  1.2197 -0.0479
 2962SOL     OW11327   2.375   9.114   1.311 -0.0146  0.0697 -0.0905
 2962SOL    HW111328   2.313   9.061   1.261 -0.2006  1.1094 -0.9786
 2962SOL    HW211329   2.441   9.051   1.339 -0.8720 -0.8585 -0.0678
 2963SOL     OW11330   0.454   7.246   7.612  0.2992  0.1928 -0.1352
 2963SOL    HW111331   0.403   7.165   7.618 -0.7967  0.9623  2.2436
 2963SOL    HW211332   0.390   7.316   7.620  1.5732  1.1967  3.4273
 2964SOL     OW11333   0.981   4.133   6.758  0.4050 -0.4441  0.3760
 2964SOL    HW111334   1.011   4.191   6.689  0.4027  1.0999  1.6078
 2964SOL    HW211335   0.952   4.053   6.713  0.3291  0.5383 -1.3718
 2965SOL     OW11336   4.644   7.659   8.555  0.0762  0.1518  0.0156
 2965SOL    HW111337   4.685   7.705   8.628  1.4579 -0.1162 -0.5663
 2965SOL    HW211338   4.621   7.573   8.592  1.0283 -0.0875  0.0733
 2966SOL     OW11339   3.776  10.345   5.489 -0.3366  0.2503 -0.2694
 2966SOL    HW111340   3.862  10.365   5.526 -0.4634  2.4904 -1.0198
 2966SOL    HW211341   3.718  10.336   5.564  0.2837  0.1811  0.2063
 2967SOL     OW11342   2.087   3.758   9.494 -0.7022  0.5033  1.2673
 2967SOL    HW111343   2.161   3.712   9.534 -0.8097 -0.1134  0.7630
 2967SOL    HW211344   2.068   3.709   9.415 -2.9348 -0.5517  2.3653
 2968SOL     OW11345   6.084   8.409   3.178  0.2109  0.4286 -0.1301
 2968SOL    HW111346   6.149   8.452   3.123 -1.0240  0.0195 -2.0231
 2968SOL    HW211347   6.115   8.319   3.185 -0.7514 -0.1354 -2.2018
 2969SOL     OW11348   5.113   8.608   9.892  0.1684  0.1882 -0.4235
 2969SOL    HW111349   5.022   8.639   9.898  0.4077  0.7435  0.3540
 2969SOL    HW211350   5.135   8.581   9.981  0.6628 -0.2657 -0.6777
 2970SOL     OW11351   3.907   9.621   0.110  0.2443  0.5441  0.1424
 2970SOL    HW111352   3.908   9.559   0.183  0.1422  1.8175  1.2518
 2970SOL    HW211353   3.984   9.596   0.057  0.1736 -0.5552  0.5176
 2971SOL     OW11354   5.991   1.483   4.356 -0.6036  0.2524 -0.2095
 2971SOL    HW111355   6.061   1.512   4.298 -0.3966  0.5241  0.1746
 2971SOL    HW211356   6.036   1.453   4.435 -0.8906 -0.0058 -0.1413
 2972SOL     OW11357   1.385   1.008   8.887 -1.0938  0.0723  0.2725
 2972SOL    HW111358   1.471   0.997   8.846 -0.5748  0.6860  1.1477
 2972SOL    HW211359   1.385   0.943   8.958 -0.4152  1.5262  1.6886
 2973SOL     OW11360   3.003   7.682   0.052 -0.0353  0.2633  0.3077
 2973SOL    HW111361   3.019   7.719   0.139  1.0934  0.5462  0.0061
 2973SOL    HW211362   2.908   7.678   0.044 -0.2339  2.8831  0.4573
 2974SOL     OW11363   9.734   0.863   5.496 -0.1568 -0.3468 -0.8123
 2974SOL    HW111364   9.683   0.916   5.558  0.0825 -1.8391  0.7531
 2974SOL    HW211365   9.670   0.834   5.431 -0.8170 -0.2525 -0.2157
 2975SOL     OW11366   6.342   0.178   4.599 -0.1161  0.5703  0.0193
 2975SOL    HW111367   6.248   0.161   4.607  0.0435  0.2008  1.3320
 2975SOL    HW211368   6.351   0.272   4.617 -0.0015  0.1448  2.6192
 2976SOL     OW11369   1.623   0.354   3.025 -0.0242  0.7581 -0.0861
 2976SOL    HW111370   1.714   0.376   3.048  0.6926 -1.2803 -0.6982
 2976SOL    HW211371   1.600   0.285   3.087 -0.9352  0.8164 -0.3572
 2977SOL     OW11372   0.785   1.061   1.074 -0.0790 -0.0469  0.1988
 2977SOL    HW111373   0.797   0.980   1.124  1.1984  1.1865  2.0414
 2977SOL    HW211374   0.864   1.067   1.020 -0.1691 -0.0257  0.0698
 2978SOL     OW11375   9.050   2.809   7.180 -0.4310  0.0893  0.2808
 2978SOL    HW111376   9.000   2.874   7.131 -0.7253 -1.1867 -1.2097
 2978SOL    HW211377   9.141   2.825   7.156 -0.5756 -0.5512 -0.7834
 2979SOL     OW11378   1.527   9.374   7.962 -0.2346 -0.0623  0.1257
 2979SOL    HW111379   1.518   9.442   7.896 -0.6334 -1.1798 -1.0087
 2979SOL    HW211380   1.554   9.296   7.913  1.2941 -0.4817  1.5190
 2980SOL     OW11381   6.322   0.599   8.508 -0.3417  0.0085  0.4945
 2980SOL    HW111382   6.343   0.645   8.427  0.0347 -1.1668 -0.0977
 2980SOL    HW211383   6.399   0.612   8.564 -0.7826  1.1900  0.8483
 2981SOL     OW11384   5.844   5.987   1.227  0.1771 -0.5403  0.0004
 2981SOL    HW111385   5.819   6.072   1.263 -0.1393 -1.1160  1.1784
 2981SOL    HW211386   5.830   5.996   1.133 -0.3077  0.5594  0.1647
 2982SOL     OW11387   1.434   4.184   4.358 -0.4970  0.6473 -0.2572
 2982SOL    HW111388   1.429   4.150   4.268 -0.3472 -0.0672 -0.0076
 2982SOL    HW211389   1.514   4.144   4.393 -1.2987 -0.2162  0.6423
 2983SOL     OW11390   0.473   2.540   8.631  0.5642 -0.6580 -0.0650
 2983SOL    HW111391   0.540   2.607   8.640 -0.4630  0.3831  0.0844
 2983SOL    HW211392   0.453   2.514   8.721 -1.4161  1.3186  0.1570
 2984SOL     OW11393   2.382   8.786  10.181  0.0791 -0.2025  0.0911
 2984SOL    HW111394   2.354   8.855  10.120 -0.5474 -1.1273 -0.6987
 2984SOL    HW211395   2.307   8.773  10.238  0.1418 -0.3302  0.1431
 2985SOL     OW11396   5.001   7.131   4.919 -0.3049 -1.2277 -0.5315
 2985SOL    HW111397   4.993   7.191   4.844 -0.3325 -0.8496 -0.2299
 2985SOL    HW211398   4.919   7.141   4.967 -0.0208 -0.9757 -0.0917
 2986SOL     OW11399   8.707   7.485  10.262 -0.0879 -0.1849  0.1164
 2986SOL    HW111400   8.657   7.517  10.337 -0.4100  2.1216 -0.9764
 2986SOL    HW211401   8.787   7.537  10.262 -0.1696 -0.0074 -1.1823
 2987SOL     OW11402   7.705   2.710   9.832 -0.5031  0.2695  0.2621
 2987SOL    HW111403   7.622   2.715   9.785 -0.1756 -1.2778 -0.5598
 2987SOL    HW211404   7.684   2.667   9.915 -0.4789 -0.5237 -0.1309
 2988SOL     OW11405   8.089   2.300   5.205  0.1627 -0.1010 -0.3944
 2988SOL    HW111406   8.032   2.376   5.222  0.8595 -0.0284  1.8945
 2988SOL    HW211407   8.151   2.331   5.139  1.4698  1.9602  1.6458
 2989SOL     OW11408   5.922   7.210   6.015  0.1015 -0.2118  0.4936
 2989SOL    HW111409   5.961   7.297   6.009 -0.6351  0.1469  0.8523
 2989SOL    HW211410   5.829   7.224   5.995  0.1570 -1.0642 -0.4301
 2990SOL     OW11411   8.207   0.823   6.812 -0.3143 -0.5414 -0.1302
 2990SOL    HW111412   8.131   0.771   6.837  0.2537 -0.6791  1.3870
 2990SOL    HW211413   8.204   0.900   6.869  0.5145 -0.4023 -0.2576
 2991SOL     OW11414   1.001   4.478   8.356 -0.4153  0.1448 -0.1181
 2991SOL    HW111415   1.094   4.501   8.359  0.4357 -2.5248 -2.1224
 2991SOL    HW211416   0.959   4.553   8.314  1.2519  0.4230 -1.3902
 2992SOL     OW11417   8.549   2.000   8.776 -0.4663 -0.2293  0.2568
 2992SOL    HW111418   8.631   2.031   8.740 -0.7025 -0.6968 -0.7102
 2992SOL    HW211419   8.490   2.076   8.771 -0.2991 -0.0970  0.2972
 2993SOL     OW11420   6.009   1.112   1.175  0.0384  0.2878 -0.3328
 2993SOL    HW111421   6.070   1.186   1.173  0.0325  0.2972 -0.1642
 2993SOL    HW211422   5.932   1.143   1.127 -1.0050  1.2971  1.8911
 2994SOL     OW11423   7.847   2.264   8.566 -0.4801  0.5322  0.2360
 2994SOL    HW111424   7.886   2.249   8.480  0.6726 -1.4781  1.0403
 2994SOL    HW211425   7.758   2.231   8.559 -0.6594  1.1356 -0.3976
 2995SOL     OW11426   4.138   7.001   5.914 -0.0812 -1.0057 -0.5312
 2995SOL    HW111427   4.114   6.909   5.925  0.6947 -1.1489  0.0620
 2995SOL    HW211428   4.182   7.024   5.996 -3.6232  1.0046  1.0133
 2996SOL     OW11429   0.003   3.408   4.775 -0.1350 -0.2189  0.9498
 2996SOL    HW111430  -0.085   3.371   4.785  0.2104 -1.1512  0.5948
 2996SOL    HW211431   0.031   3.426   4.865 -0.1654 -1.1791  1.1615
 2997SOL     OW11432   2.462   3.078   1.556 -0.7487  0.6171  0.1225
 2997SOL    HW111433   2.484   3.028   1.478 -1.2657 -0.5066  0.6754
 2997SOL    HW211434   2.526   3.050   1.621  0.0735  2.0033 -0.0465
 2998SOL     OW11435   9.962   7.196   6.037  0.7101 -0.5795 -0.2488
 2998SOL    HW111436   9.989   7.175   6.126  4.0238 -0.2888 -1.0289
 2998SOL    HW211437   9.959   7.291   6.035  0.2912 -0.5956 -0.3560
 2999SOL     OW11438   0.047   3.511   1.114 -0.0300 -0.2184  0.1118
 2999SOL    HW111439   0.041   3.573   1.187 -1.2622 -2.4368  2.0407
 2999SOL    HW211440   0.140   3.509   1.093  0.1283  1.7981  0.3777
 3000SOL     OW11441   4.398   4.728  10.108 -0.9182  0.5461  0.0518
 3000SOL    HW111442   4.439   4.743  10.193 -0.7064  0.6703 -0.0705
 3000SOL    HW211443   4.326   4.791  10.105 -1.9914 -0.6208  0.8405
 3001SOL     OW11444   6.840  10.052   1.434  0.1607  0.7702 -0.1392
 3001SOL    HW111445   6.853  10.138   1.395 -1.1911  0.8611 -0.4373
 3001SOL    HW211446   6.879   9.991   1.371 -1.8625  0.9291 -1.6489
 3002SOL     OW11447   3.550   4.243   0.316  0.0469  0.0265 -0.6423
 3002SOL    HW111448   3.588   4.226   0.402 -1.3704 -1.6939 -0.2935
 3002SOL    HW211449   3.618   4.290   0.268  1.1800  0.2661  1.1351
 3003SOL     OW11450   5.454   3.590   0.464 -0.4912  0.2029  0.0065
 3003SOL    HW111451   5.493   3.591   0.376 -0.4436  0.7110  0.0289
 3003SOL    HW211452   5.481   3.506   0.501  1.5762  1.0077  0.4574
 3004SOL     OW11453   0.588   6.638   5.320  0.2227  0.4816  0.1423
 3004SOL    HW111454   0.560   6.716   5.272 -1.1319 -0.0094  0.1090
 3004SOL    HW211455   0.532   6.568   5.288  1.4977 -0.5531  0.0879
 3005SOL     OW11456  10.060   0.827   8.266  0.1621  0.7769  0.1066
 3005SOL    HW111457  10.136   0.838   8.208  1.6032  1.0415  1.9458
 3005SOL    HW211458  10.018   0.913   8.268  0.4199  0.9082 -0.1332
 3006SOL     OW11459   5.332   4.751   3.755  0.3290 -0.5791  0.3916
 3006SOL    HW111460   5.291   4.836   3.772  0.3295 -0.5717  0.3568
 3006SOL    HW211461   5.401   4.745   3.821  0.5418 -0.4056  0.1891
 3007SOL     OW11462   8.219   4.629   8.663  0.2411 -0.1002 -0.0268
 3007SOL    HW111463   8.192   4.658   8.750  4.1287  0.5890  1.1433
 3007SOL    HW211464   8.142   4.584   8.627 -1.6441 -0.0762  3.5654
 3008SOL     OW11465   4.398   1.565   3.337  0.7513  0.0194  0.4727
 3008SOL    HW111466   4.374   1.578   3.429 -0.4032 -1.2390  0.3816
 3008SOL    HW211467   4.490   1.537   3.340  0.1178 -2.2510  1.4848
 3009SOL     OW11468   6.102  10.275   2.598 -0.2535  0.0396 -0.0861
 3009SOL    HW111469   6.169  10.318   2.652 -0.1518  0.7355 -0.7551
 3009SOL    HW211470   6.152  10.227   2.532 -0.3563 -1.2977  0.7549
 3010SOL     OW11471   8.855   7.154   7.657 -0.5000  1.0720 -0.2697
 3010SOL    HW111472   8.884   7.244   7.643 -0.8881  1.5481  1.6465
 3010SOL    HW211473   8.935   7.106   7.678 -0.0780  0.5917 -2.6969
 3011SOL     OW11474   4.356   5.200   9.198 -0.7198 -0.4876 -0.1183
 3011SOL    HW111475   4.424   5.226   9.135 -0.9475 -1.2955 -0.7122
 3011SOL    HW211476   4.372   5.256   9.274  0.0881 -0.0787 -0.5695
 3012SOL     OW11477   1.612   4.266   1.590 -0.1453  1.0141  0.3610
 3012SOL    HW111478   1.659   4.312   1.660 -0.2205  0.4398  0.7993
 3012SOL    HW211479   1.535   4.321   1.574 -0.3849  0.9080  1.0814
 3013SOL     OW11480   4.981   8.643   4.599 -0.1009  0.3603  0.1634
 3013SOL    HW111481   4.991   8.692   4.517 -0.5820  0.1648 -0.0194
 3013SOL    HW211482   4.963   8.553   4.570 -1.6389  0.5392  0.4385
 3014SOL     OW11483   9.151   1.972   0.304  0.0915 -0.4051  0.5585
 3014SOL    HW111484   9.163   1.879   0.324 -0.4352 -0.6745 -0.3144
 3014SOL    HW211485   9.058   1.988   0.320  0.1416 -0.0701  0.5185
 3015SOL     OW11486   8.683   7.848  10.425 -0.3831 -0.6785  0.3479
 3015SOL    HW111487   8.732   7.776  10.463 -0.6558 -0.4633  1.1116
 3015SOL    HW211488   8.625   7.806  10.361 -1.5824 -1.3256  1.8018
 3016SOL     OW11489   0.065   4.614   1.314  0.1686 -0.4059 -0.0957
 3016SOL    HW111490   0.040   4.574   1.230 -0.4882  0.0222 -0.1014
 3016SOL    HW211491   0.090   4.703   1.291  0.2282 -0.3643  0.1339
 3017SOL     OW11492   0.952   0.069   6.150 -0.4248 -0.4464 -0.0332
 3017SOL    HW111493   0.974   0.145   6.203  1.5782 -0.3006 -1.0047
 3017SOL    HW211494   0.977  -0.006   6.204  1.0027 -0.3122 -0.4815
 3018SOL     OW11495   0.802   3.994   3.926  0.3248 -0.7854 -0.0452
 3018SOL    HW111496   0.745   4.061   3.964  1.2561 -0.1116  0.2128
 3018SOL    HW211497   0.765   3.976   3.839  0.2912  0.3549 -0.2741
 3019SOL     OW11498   2.963   7.606   2.836 -0.5210 -0.3297 -0.4915
 3019SOL    HW111499   2.999   7.687   2.870  0.7829 -1.2071  0.2814
 3019SOL    HW211500   2.875   7.601   2.875  0.7795 -1.1410  2.6106
 3020SOL     OW11501   2.956   1.636   1.147 -0.0146  0.1808 -0.2250
 3020SOL    HW111502   2.986   1.693   1.076 -2.0680 -0.9356 -2.1075
 3020SOL    HW211503   2.862   1.651   1.152  0.0324  0.1043  2.2268
 3021SOL     OW11504   5.619   8.382   0.103  0.1844 -0.0554 -0.2578
 3021SOL    HW111505   5.529   8.402   0.129  0.5450 -0.5884  1.5673
 3021SOL    HW211506   5.666   8.465   0.113 -0.0465  0.1567 -0.9365
 3022SOL     OW11507   4.547   6.961   5.548 -0.6778 -0.3016 -0.0925
 3022SOL    HW111508   4.600   6.893   5.505  0.5746  2.0624 -2.6200
 3022SOL    HW211509   4.585   6.970   5.635  0.8518 -1.0670 -0.6408
 3023SOL     OW11510  10.328   0.278   2.681 -0.0996 -0.6592 -0.3609
 3023SOL    HW111511  10.415   0.276   2.723  0.5152  2.5030 -1.2309
 3023SOL    HW211512  10.268   0.300   2.751  0.1081 -0.7843 -0.1418
 3024SOL     OW11513  10.441   2.983   7.010  0.0730 -0.8936  0.4045
 3024SOL    HW111514  10.513   2.922   6.993  0.0863 -0.4431 -1.3193
 3024SOL    HW211515  10.482   3.057   7.055  0.4845 -1.1056  0.3791
 3025SOL     OW11516  10.453   0.635   0.679  0.1309  0.7864  0.1304
 3025SOL    HW111517  10.521   0.661   0.617  0.4744  0.5323  0.3992
 3025SOL    HW211518  10.392   0.709   0.681 -0.1419  0.5993 -0.8744
 3026SOL     OW11519   9.450   0.105   2.178  0.3612  0.6202 -0.1772
 3026SOL    HW111520   9.524   0.141   2.225  2.0088 -0.8403 -1.4870
 3026SOL    HW211521   9.380   0.100   2.243  2.3142 -0.7511  1.9825
 3027SOL     OW11522   5.652   8.924   8.826  0.6545 -0.1849 -0.0992
 3027SOL    HW111523   5.617   8.986   8.762  0.9125 -0.6132 -0.6666
 3027SOL    HW211524   5.659   8.841   8.778  1.2966 -0.4011  0.3471
 3028SOL     OW11525   2.397   3.037   0.615 -0.1324 -0.0942  0.0501
 3028SOL    HW111526   2.490   3.055   0.601 -0.2541 -0.4089 -1.3717
 3028SOL    HW211527   2.394   2.943   0.635 -0.1510 -0.1094 -0.0228
 3029SOL     OW11528   9.396   8.448   7.489 -0.1363 -0.0495  0.0413
 3029SOL    HW111529   9.359   8.425   7.574 -1.4443  0.0285 -0.4722
 3029SOL    HW211530   9.319   8.454   7.431  0.7649 -0.6065 -1.2540
 3030SOL     OW11531   0.478   1.168   0.206  0.3874  0.2402 -0.1594
 3030SOL    HW111532   0.389   1.133   0.211 -0.7281  2.5739 -1.8152
 3030SOL    HW211533   0.487   1.224   0.283  0.3878  0.0768 -0.0411
 3031SOL     OW11534   8.635   1.801   5.074  0.3812 -0.5462 -0.0634
 3031SOL    HW111535   8.657   1.888   5.041 -0.0035 -0.3914  0.0920
 3031SOL    HW211536   8.706   1.780   5.135  1.2452 -0.9401 -1.1521
 3032SOL     OW11537   2.216   7.211   3.152  0.4766 -0.0217  0.2082
 3032SOL    HW111538   2.161   7.153   3.204 -1.0124  2.2207  1.2957
 3032SOL    HW211539   2.155   7.271   3.109  1.8744  0.1219 -1.7410
 3033SOL     OW11540   8.191   1.190   0.608  0.0792 -0.9999 -0.1570
 3033SOL    HW111541   8.229   1.265   0.563 -0.5532 -0.7857 -0.3425
 3033SOL    HW211542   8.102   1.184   0.574 -0.5413 -0.6168  1.3167
 3034SOL     OW11543   9.477   3.877   2.068  0.6923  0.2529  0.2129
 3034SOL    HW111544   9.558   3.851   2.112  1.4774  2.4067  0.1882
 3034SOL    HW211545   9.450   3.800   2.018  0.7713 -1.6849  2.9313
 3035SOL     OW11546   2.646   5.755   6.809  0.3577  0.2121  0.8388
 3035SOL    HW111547   2.608   5.807   6.880 -0.7441  0.5755  0.0138
 3035SOL    HW211548   2.619   5.665   6.829  0.1465  0.2974  0.9462
 3036SOL     OW11549   1.056   5.915   8.507 -0.8268  0.2898  0.3945
 3036SOL    HW111550   1.090   5.937   8.594 -0.0970 -0.1571  0.2354
 3036SOL    HW211551   1.028   5.999   8.471 -1.5078  0.4199  1.2121
 3037SOL     OW11552   8.647   8.623  10.236  0.4981  0.1231 -0.4012
 3037SOL    HW111553   8.709   8.697  10.239  1.1345 -0.3970 -0.5691
 3037SOL    HW211554   8.676   8.565  10.307 -0.7940  0.6431  0.5947
 3038SOL     OW11555   6.047   8.008   0.061  0.4898 -0.3308  0.1468
 3038SOL    HW111556   6.040   7.974  -0.028 -1.1825 -0.7048  0.3891
 3038SOL    HW211557   6.047   7.930   0.116 -0.4665 -0.0572  0.5567
 3039SOL     OW11558  10.185   4.649   9.308 -0.2011 -0.4387 -0.2859
 3039SOL    HW111559  10.097   4.618   9.326 -0.4050  0.0838 -0.3745
 3039SOL    HW211560  10.173   4.731   9.261  0.3327 -0.0879  0.1796
 3040SOL     OW11561   9.327   5.319   8.952  0.1069  0.3182  0.1740
 3040SOL    HW111562   9.383   5.371   8.894  0.2167  0.3875  0.3407
 3040SOL    HW211563   9.240   5.325   8.913  0.5388 -1.3503 -1.1591
 3041SOL     OW11564   7.925   4.946   1.029 -0.7354 -0.1696  0.3976
 3041SOL    HW111565   7.932   5.041   1.020  0.6403 -0.0437  2.2062
 3041SOL    HW211566   7.921   4.914   0.939  0.0130  1.5370 -0.2922
 3042SOL     OW11567   8.978   4.104   2.024 -0.2284 -0.4878 -0.2214
 3042SOL    HW111568   9.020   4.099   2.110 -0.7729 -1.0520  0.0127
 3042SOL    HW211569   9.034   4.052   1.967  0.1934 -0.0237 -0.2357
 3043SOL     OW11570   1.522   1.047   1.665  0.4971  0.0614 -0.1751
 3043SOL    HW111571   1.442   1.097   1.650 -0.8503 -1.6045  1.0493
 3043SOL    HW211572   1.561   1.086   1.743  0.8191  0.7844 -0.6889
 3044SOL     OW11573   6.730   7.751   8.241  0.3971  0.2324  0.4884
 3044SOL    HW111574   6.688   7.667   8.221 -1.9102  0.8518  2.3127
 3044SOL    HW211575   6.785   7.768   8.165  0.3213 -2.5124 -0.3159
 3045SOL     OW11576   7.377   6.074   5.494  0.2419 -0.5684  0.6116
 3045SOL    HW111577   7.341   6.132   5.560 -0.3284  0.7463 -0.7813
 3045SOL    HW211578   7.472   6.077   5.508  0.1714  0.1870  0.9802
 3046SOL     OW11579   4.038   0.256   6.321 -0.4876  0.3683 -0.5292
 3046SOL    HW111580   3.984   0.180   6.342  0.3797 -0.8393 -2.4048
 3046SOL    HW211581   3.977   0.318   6.279 -0.8393 -0.0407 -0.6263
 3047SOL     OW11582   5.497  10.135   4.166 -0.7615 -0.2266  0.0457
 3047SOL    HW111583   5.475  10.223   4.138 -0.4805 -1.0409 -3.1672
 3047SOL    HW211584   5.586  10.142   4.201 -0.9593  0.8381  0.3580
 3048SOL     OW11585   9.643   6.868   7.344 -0.1826 -0.4677 -0.4028
 3048SOL    HW111586   9.552   6.871   7.376  0.9225  0.8847  3.0734
 3048SOL    HW211587   9.651   6.945   7.288 -1.0499 -0.3582 -0.3942
 3049SOL     OW11588   3.167   3.892   2.005  0.7750  0.4213  0.4973
 3049SOL    HW111589   3.224   3.815   2.008  1.3629  0.6811 -2.0187
 3049SOL    HW211590   3.210   3.951   1.943  1.0823  3.4563  3.3234
 3050SOL     OW11591   5.731   1.537   8.095 -0.3410 -0.0663 -0.1317
 3050SOL    HW111592   5.804   1.496   8.142  1.2219  2.0327 -0.5838
 3050SOL    HW211593   5.720   1.483   8.017  0.1740 -0.8869  0.3421
 3051SOL     OW11594   6.716   0.857   1.343 -0.0973  0.1713  0.4028
 3051SOL    HW111595   6.676   0.933   1.300  0.3099  1.3244  1.9545
 3051SOL    HW211596   6.660   0.839   1.419  0.7047 -0.0282  0.9638
 3052SOL     OW11597   7.063   3.099   9.304  0.3226 -0.0366 -0.2465
 3052SOL    HW111598   7.131   3.032   9.308  0.4120  0.0394 -0.4663
 3052SOL    HW211599   6.996   3.062   9.247 -0.3377 -0.5738  0.8644
 3053SOL     OW11600   2.680   0.947  10.182  0.1697  0.0733  0.1216
 3053SOL    HW111601   2.748   1.006  10.216 -0.0760 -0.5433  1.7546
 3053SOL    HW211602   2.728   0.883  10.130  0.5752  0.9865 -0.6492
 3054SOL     OW11603   8.771   6.337   5.978  0.6623  0.0120 -0.5500
 3054SOL    HW111604   8.835   6.379   6.035  1.1163 -1.0581 -0.2511
 3054SOL    HW211605   8.720   6.409   5.942 -1.4594  0.7327  3.2641
 3055SOL     OW11606   7.172   1.494   8.637  0.1702  0.1503 -0.5745
 3055SOL    HW111607   7.208   1.425   8.580  0.5112 -0.4993  0.4011
 3055SOL    HW211608   7.192   1.464   8.726 -2.0024  0.2110 -0.0138
 3056SOL     OW11609   2.356   6.086   2.094  0.3598 -0.0320  0.1753
 3056SOL    HW111610   2.435   6.139   2.107  1.0338 -0.5843 -1.4122
 3056SOL    HW211611   2.320   6.075   2.182  2.3438 -0.2036  1.0257
 3057SOL     OW11612   9.016   7.555   1.491 -0.7819 -0.3702  0.1359
 3057SOL    HW111613   9.060   7.618   1.548  0.5512 -0.5974 -0.6087
 3057SOL    HW211614   8.968   7.498   1.551 -0.6866  0.3579  0.9166
 3058SOL     OW11615   5.592   6.248   1.647 -0.6895 -0.2810 -0.2033
 3058SOL    HW111616   5.686   6.251   1.629 -0.5122 -0.0086  0.7122
 3058SOL    HW211617   5.551   6.253   1.561  0.1425 -2.1452 -0.7717
 3059SOL     OW11618   1.922   1.265   7.615  0.3086  0.2107 -0.1939
 3059SOL    HW111619   2.000   1.318   7.603 -0.0815  1.1378  1.0889
 3059SOL    HW211620   1.919   1.208   7.539  1.6779  0.8616 -0.7604
 3060SOL     OW11621   5.650   8.569  10.020 -0.1403  0.2410  0.3889
 3060SOL    HW111622   5.630   8.643   9.963  1.4281 -0.6077 -1.3675
 3060SOL    HW211623   5.571   8.515  10.018  0.4850 -0.7450 -2.6496
 3061SOL     OW11624   0.727  10.002   6.322 -0.0313 -0.6570  0.0511
 3061SOL    HW111625   0.689  10.090   6.316 -0.8291 -0.8339  1.8437
 3061SOL    HW211626   0.678   9.960   6.393  0.0753 -2.7000 -1.0168
 3062SOL     OW11627  10.006   8.174   5.574 -0.3170 -0.1237  0.2316
 3062SOL    HW111628   9.988   8.251   5.520 -1.5950 -0.1309  0.6254
 3062SOL    HW211629  10.056   8.116   5.516  0.5698  0.9349 -0.1053
 3063SOL     OW11630   3.195   5.016   6.416  0.3853  0.3493 -0.4232
 3063SOL    HW111631   3.247   4.965   6.354  2.0432 -0.3857  1.4408
 3063SOL    HW211632   3.118   4.961   6.434  1.3756 -0.8377  0.3700
 3064SOL     OW11633   9.525   3.421   2.920  0.0527  0.3145 -0.2304
 3064SOL    HW111634   9.601   3.391   2.970 -1.3154 -2.6520  0.3495
 3064SOL    HW211635   9.496   3.500   2.965  0.7428 -0.4843  1.7414
 3065SOL     OW11636   2.115   0.551   1.250  0.0438  0.3488 -0.0867
 3065SOL    HW111637   2.037   0.527   1.300  0.7795 -0.3718  0.7151
 3065SOL    HW211638   2.114   0.647   1.249 -0.5178  0.3504  0.4292
 3066SOL     OW11639   9.885   2.449   5.194  0.3621 -0.3983 -0.0971
 3066SOL    HW111640   9.915   2.515   5.131  1.2761 -0.4664  0.2593
 3066SOL    HW211641   9.790   2.460   5.195 -0.0741 -2.2506 -3.5976
 3067SOL     OW11642   6.943   9.644   6.074 -0.6153 -0.1033  0.1057
 3067SOL    HW111643   6.982   9.594   6.002 -0.7729 -0.0235 -0.0355
 3067SOL    HW211644   6.850   9.625   6.068 -0.6908  0.2962 -0.0162
 3068SOL     OW11645   0.098   6.808   3.850  0.3678  0.0014  0.3492
 3068SOL    HW111646   0.161   6.738   3.828 -1.8313 -1.7646 -0.7732
 3068SOL    HW211647   0.138   6.853   3.924  3.7371  0.1031 -1.3246
 3069SOL     OW11648   0.212   3.215   9.071 -0.4548 -0.4932  0.2421
 3069SOL    HW111649   0.234   3.237   8.981  0.1102  1.3538  0.7686
 3069SOL    HW211650   0.144   3.148   9.064  0.6206 -1.4776 -1.5051
 3070SOL     OW11651   5.337   8.363   7.961 -0.4932 -0.2205 -0.4840
 3070SOL    HW111652   5.262   8.417   7.985 -0.1315  0.6187 -1.1881
 3070SOL    HW211653   5.319   8.278   8.002 -1.3889  0.2275  0.0967
 3071SOL     OW11654   0.133   5.240   8.528 -0.3832 -0.2060 -0.1662
 3071SOL    HW111655   0.087   5.281   8.455 -0.7569  0.8818  0.6697
 3071SOL    HW211656   0.196   5.306   8.557 -0.0111 -0.7532  0.3014
 3072SOL     OW11657   6.280   5.803   4.967 -0.3286  0.0077  0.0559
 3072SOL    HW111658   6.214   5.838   4.907 -0.1962 -0.5381 -0.4214
 3072SOL    HW211659   6.229   5.762   5.038 -0.5110 -0.3279 -0.2619
 3073SOL     OW11660   6.696   0.067   6.277 -0.3862  0.4140 -0.1904
 3073SOL    HW111661   6.771   0.119   6.247  0.5323 -1.2906 -1.0274
 3073SOL    HW211662   6.736  -0.013   6.311 -1.7904 -0.0762  0.3569
 3074SOL     OW11663   7.017   1.244   3.390  0.3849  0.0627 -0.1687
 3074SOL    HW111664   7.071   1.265   3.314  0.8890 -1.0670 -0.1374
 3074SOL    HW211665   7.077   1.204   3.452 -0.3542 -0.5499  0.1603
 3075SOL     OW11666   3.717   0.300  10.187 -0.0246 -0.1082 -0.6434
 3075SOL    HW111667   3.808   0.277  10.205 -0.3909  0.5601  2.9100
 3075SOL    HW211668   3.668   0.219  10.203 -0.2337  0.0723 -0.3572
 3076SOL     OW11669   8.237   1.008   5.728 -0.3688  0.0970  0.4822
 3076SOL    HW111670   8.182   1.035   5.655  0.8084 -1.2203 -0.9439
 3076SOL    HW211671   8.198   1.052   5.804 -1.5413  1.6302 -0.9200
 3077SOL     OW11672   8.202   8.307   5.340 -0.8683  0.1497 -0.0785
 3077SOL    HW111673   8.205   8.385   5.394 -0.3181  0.3723 -0.4206
 3077SOL    HW211674   8.136   8.251   5.381 -0.3360  0.2376  0.9268
 3078SOL     OW11675   6.775   8.990   8.481  0.4671 -0.0253 -0.1159
 3078SOL    HW111676   6.680   8.978   8.486  0.4617  0.0678  0.0207
 3078SOL    HW211677   6.805   8.917   8.427  0.3763 -0.3545  0.2712
 3079SOL     OW11678   5.354   1.025   1.328  0.5364 -0.2158  0.0334
 3079SOL    HW111679   5.359   1.118   1.346 -0.5141 -0.2752  0.7567
 3079SOL    HW211680   5.288   0.992   1.390  0.2578 -1.2788 -0.7962
 3080SOL     OW11681   4.494   1.355   4.723  0.1910  0.0779  0.3443
 3080SOL    HW111682   4.423   1.364   4.786  1.4076  0.5582  1.7093
 3080SOL    HW211683   4.551   1.430   4.739  1.4280 -0.7144 -0.1393
 3081SOL     OW11684   7.354   1.320   8.262 -0.2981 -0.2207 -0.2374
 3081SOL    HW111685   7.288   1.378   8.301  0.0046 -0.9208  1.3918
 3081SOL    HW211686   7.436   1.368   8.272 -0.3683  0.1186 -1.1582
 3082SOL     OW11687   2.317   0.623   6.800  0.4381 -0.1747  1.0990
 3082SOL    HW111688   2.399   0.671   6.793  0.1560  0.1060 -2.3752
 3082SOL    HW211689   2.338   0.534   6.771 -0.7032  0.4212 -2.0010
 3083SOL     OW11690   1.108   4.320   5.922 -0.6590  0.2222 -0.3468
 3083SOL    HW111691   1.110   4.413   5.900 -1.5493 -0.1525 -2.2670
 3083SOL    HW211692   1.051   4.314   5.999 -0.2491  1.2996  0.0437
 3084SOL     OW11693   4.202   4.540   1.106 -0.4560 -0.0786  0.0728
 3084SOL    HW111694   4.195   4.516   1.198  0.1706  1.5221  0.5588
 3084SOL    HW211695   4.257   4.471   1.068  1.5610  0.6779  1.4912
 3085SOL     OW11696   6.456   8.218   2.230 -0.3618  0.2019 -0.0039
 3085SOL    HW111697   6.403   8.174   2.296  0.0040  0.0445  0.1923
 3085SOL    HW211698   6.530   8.255   2.279 -0.8831  1.4242 -0.0922
 3086SOL     OW11699   4.036  10.067   7.474 -0.2501 -0.2616 -0.0452
 3086SOL    HW111700   3.975  10.099   7.540 -0.4544 -0.2573 -0.2370
 3086SOL    HW211701   4.081   9.993   7.517  1.2696  1.1531  0.9300
 3087SOL     OW11702   9.542   6.338   8.386 -0.5300  0.1662  0.4510
 3087SOL    HW111703   9.625   6.297   8.364  1.1733  3.0648  1.0153
 3087SOL    HW211704   9.477   6.287   8.339  1.6838 -1.3779 -1.1225
 3088SOL     OW11705   2.538   7.742   4.209  0.3427  0.7706 -0.5145
 3088SOL    HW111706   2.524   7.822   4.158 -0.0845 -0.1039 -1.8315
 3088SOL    HW211707   2.560   7.676   4.144 -0.1268 -0.3767  0.4490
 3089SOL     OW11708   7.456   1.515   2.559 -0.2928  0.2722  0.1799
 3089SOL    HW111709   7.387   1.514   2.492  0.4481 -0.7829 -0.5901
 3089SOL    HW211710   7.526   1.568   2.521  0.7621 -1.5873 -0.5751
 3090SOL     OW11711   1.104   3.048   9.046  0.3530 -0.2267  0.1560
 3090SOL    HW111712   1.055   2.983   8.995  0.7993 -0.3011 -0.1915
 3090SOL    HW211713   1.195   3.035   9.020  0.4274  0.6867 -0.0872
 3091SOL     OW11714   6.104   9.506   9.099 -0.0963 -0.4513  0.4016
 3091SOL    HW111715   6.189   9.530   9.135  0.1285 -2.0679  1.0015
 3091SOL    HW211716   6.048   9.496   9.176 -0.8272  0.5111  0.0188
 3092SOL     OW11717   1.051   9.447   8.869  0.7288 -0.3105  0.4022
 3092SOL    HW111718   1.093   9.475   8.787  2.4774  0.4054  1.4885
 3092SOL    HW211719   1.035   9.353   8.856  1.6952 -0.3804 -0.4743
 3093SOL     OW11720   8.755   1.000   2.795 -0.4979  0.1796  0.4260
 3093SOL    HW111721   8.814   0.965   2.729  0.4062  1.1514  0.6951
 3093SOL    HW211722   8.668   0.997   2.754 -0.2209 -0.9345 -0.1020
 3094SOL     OW11723   1.469   0.123   7.982  0.5749  0.1380 -0.1110
 3094SOL    HW111724   1.459   0.165   8.068 -0.3896  0.7752 -0.5290
 3094SOL    HW211725   1.462   0.029   8.001  0.5302  0.2629  0.5195
 3095SOL     OW11726   1.801   0.969   1.309  0.0520  0.0535  0.1965
 3095SOL    HW111727   1.872   0.989   1.369 -1.4221  0.7615  1.7990
 3095SOL    HW211728   1.831   0.892   1.260  1.3476 -0.5104  1.7944
 3096SOL     OW11729   7.137   0.909   4.027 -0.5822 -0.0468  0.8375
 3096SOL    HW111730   7.172   0.993   4.059 -2.0950  1.3692 -1.0359
 3096SOL    HW211731   7.048   0.929   4.000 -0.3700 -1.8025 -1.4534
 3097SOL     OW11732   9.756   9.364   4.902  0.4971  0.3616  1.0088
 3097SOL    HW111733   9.817   9.427   4.863 -0.2168 -0.4428 -1.6093
 3097SOL    HW211734   9.749   9.391   4.994  3.0956  1.7690  0.8895
 3098SOL     OW11735   2.974   8.434   0.792 -0.0721  0.3658  0.1557
 3098SOL    HW111736   3.010   8.353   0.755 -0.5562 -0.1937  0.8518
 3098SOL    HW211737   3.002   8.503   0.733 -0.0196 -0.3716 -0.7012
 3099SOL     OW11738   5.460   8.111   4.513 -0.3464 -0.1950 -0.0151
 3099SOL    HW111739   5.538   8.066   4.484 -0.8811  1.5074 -5.0337
 3099SOL    HW211740   5.488   8.201   4.528 -0.8577 -0.1992  1.0519
 3100SOL     OW11741   0.232   9.876   4.445 -0.2581  0.7972  0.3137
 3100SOL    HW111742   0.256   9.874   4.352 -1.8991 -0.0581 -0.1210
 3100SOL    HW211743   0.298   9.932   4.485  1.1624  0.2683 -1.1659
 3101SOL     OW11744   9.968   6.280   2.128 -0.1022 -0.0798  0.2926
 3101SOL    HW111745  10.000   6.317   2.046  0.3939 -0.2849  0.3907
 3101SOL    HW211746   9.873   6.291   2.124  0.0699  1.8713  0.6325
 3102SOL     OW11747   7.811   0.585   9.193  0.2221 -0.4988 -0.4773
 3102SOL    HW111748   7.744   0.625   9.137 -0.2153  1.8819  1.5831
 3102SOL    HW211749   7.891   0.633   9.172  0.2396 -0.1789  0.2907
 3103SOL     OW11750   3.626   1.918   5.425 -0.4199 -0.1847 -0.0263
 3103SOL    HW111751   3.559   1.932   5.491 -1.6988 -1.0285 -1.0831
 3103SOL    HW211752   3.639   2.004   5.385  2.4118  1.0195  3.0472
 3104SOL     OW11753   3.127   8.891   0.371 -0.1308  0.2242 -0.4243
 3104SOL    HW111754   3.112   8.910   0.279  0.6752  1.5872 -0.3075
 3104SOL    HW211755   3.156   8.800   0.373  0.5533  0.4055 -1.5987
 3105SOL     OW11756  10.214   3.495   8.729  0.0466 -0.1498 -0.2302
 3105SOL    HW111757  10.261   3.577   8.740  0.0667 -0.2511  0.4571
 3105SOL    HW211758  10.272   3.428   8.765 -0.4716 -0.3124  0.3353
 3106SOL     OW11759   9.889   3.725   3.511  0.1450 -0.1660 -0.0862
 3106SOL    HW111760   9.858   3.765   3.430  1.0228  0.9350  0.0982
 3106SOL    HW211761   9.823   3.751   3.576  1.1063  1.7709  0.2058
 3107SOL     OW11762   1.292   4.291   0.492 -0.0601 -0.0514  0.3654
 3107SOL    HW111763   1.302   4.385   0.510 -0.3461 -0.3490  2.2035
 3107SOL    HW211764   1.199   4.281   0.471  0.0445  0.1249 -0.1950
 3108SOL     OW11765   8.734   0.262   7.403  0.3299  0.2681 -0.1833
 3108SOL    HW111766   8.652   0.224   7.370  1.6152 -1.3310 -1.7818
 3108SOL    HW211767   8.755   0.210   7.481  1.0969 -1.1438 -1.2721
 3109SOL     OW11768   4.534   8.252   5.659 -0.8828 -0.1076  0.1455
 3109SOL    HW111769   4.552   8.257   5.565 -0.5285 -1.2120  0.1385
 3109SOL    HW211770   4.475   8.325   5.676 -1.3322 -0.1666 -1.0358
 3110SOL     OW11771   5.580   2.646   1.559  0.4777 -0.1613 -0.8470
 3110SOL    HW111772   5.556   2.559   1.530  1.8381 -0.5183 -0.9715
 3110SOL    HW211773   5.637   2.631   1.635  0.1547  0.6415 -0.4311
 3111SOL     OW11774   7.546   3.713   7.499 -0.0819 -0.4351 -0.0456
 3111SOL    HW111775   7.476   3.778   7.502  0.8453  0.5433  1.7255
 3111SOL    HW211776   7.534   3.660   7.577  0.9216 -0.4579  0.1136
 3112SOL     OW11777   0.834   7.419   4.358 -0.4525  0.0238  0.0216
 3112SOL    HW111778   0.787   7.346   4.316 -0.0451 -0.8142  0.9678
 3112SOL    HW211779   0.847   7.390   4.449  0.0092  1.1478  0.3344
 3113SOL     OW11780   0.310   4.074   1.861  0.1408  0.3742  0.0623
 3113SOL    HW111781   0.359   4.050   1.782  2.7710 -1.0577  2.0165
 3113SOL    HW211782   0.373   4.123   1.914 -0.8288 -0.6901  2.2778
 3114SOL     OW11783   0.903   9.068   0.791 -0.2816 -0.3537  0.4046
 3114SOL    HW111784   0.820   9.078   0.839  0.0149 -0.6029  0.9835
 3114SOL    HW211785   0.884   9.005   0.722 -1.4046  1.8720 -1.4712
 3115SOL     OW11786   1.000   4.781   9.024 -0.4457 -0.3863 -0.3877
 3115SOL    HW111787   0.945   4.847   9.065  2.3148  2.3107 -0.6090
 3115SOL    HW211788   0.980   4.787   8.931  0.5645  1.0929 -0.5535
 3116SOL     OW11789  10.325   2.683   6.385  0.3338 -0.0014 -0.1444
 3116SOL    HW111790  10.276   2.601   6.374  1.6524 -0.5090 -3.1230
 3116SOL    HW211791  10.386   2.663   6.457 -1.1791 -0.6311  1.0345
 3117SOL     OW11792   6.654   9.699   1.485  0.1897  0.1156 -0.5230
 3117SOL    HW111793   6.739   9.689   1.443  0.4953  1.1640 -0.1659
 3117SOL    HW211794   6.635   9.612   1.523  0.6124 -0.4033 -1.4819
 3118SOL     OW11795   0.906   3.679   8.393 -0.0552  0.3129  0.1875
 3118SOL    HW111796   0.999   3.656   8.393  0.1722  1.1729 -0.1351
 3118SOL    HW211797   0.863   3.602   8.357  0.4383 -0.4162  1.1148
 3119SOL     OW11798   3.517   9.467   6.994  0.5575 -0.2797 -0.0284
 3119SOL    HW111799   3.577   9.541   6.988 -0.1960  0.2370 -1.6376
 3119SOL    HW211800   3.497   9.444   6.904 -1.8844 -0.2359  0.4073
 3120SOL     OW11801   5.307   5.214   8.702 -0.8010  0.5351 -0.1260
 3120SOL    HW111802   5.328   5.255   8.786 -0.2209  2.1869 -1.0323
 3120SOL    HW211803   5.246   5.143   8.724 -1.1365  1.3239  1.6156
 3121SOL     OW11804   8.638   5.676   6.120 -0.3386 -0.6988  0.1388
 3121SOL    HW111805   8.650   5.734   6.044 -0.2059 -0.1137  0.6029
 3121SOL    HW211806   8.583   5.605   6.087  0.6953 -1.0718 -0.8292
 3122SOL     OW11807   2.422   7.575   0.615 -0.6737 -0.0274 -0.6320
 3122SOL    HW111808   2.475   7.639   0.664  0.0455 -2.4314  2.0189
 3122SOL    HW211809   2.486   7.522   0.569 -1.0876 -0.2596 -0.9375
 3123SOL     OW11810   1.517   6.065   2.621 -0.0619 -0.2582 -0.0508
 3123SOL    HW111811   1.492   5.978   2.652  0.7056 -0.1652  0.8931
 3123SOL    HW211812   1.435   6.107   2.596 -0.6576 -0.5916  1.2532
 3124SOL     OW11813   0.177   6.048   8.300  0.0261  0.0166 -0.0939
 3124SOL    HW111814   0.199   5.966   8.343 -0.5965 -0.1160 -0.0175
 3124SOL    HW211815   0.197   6.115   8.364  0.7769 -0.0540 -0.2478
 3125SOL     OW11816   6.165   1.054   8.073  0.6492  0.0421 -0.1238
 3125SOL    HW111817   6.097   1.085   8.014  0.4038 -0.9967 -0.4119
 3125SOL    HW211818   6.242   1.107   8.052  0.8756 -0.9722 -2.1257
 3126SOL     OW11819   5.658   0.634  10.236  0.3490 -0.1612 -0.1088
 3126SOL    HW111820   5.692   0.545  10.230 -1.5943 -1.0173  0.7945
 3126SOL    HW211821   5.736   0.688  10.250  1.5281 -1.7615 -0.1839
 3127SOL     OW11822  10.101   1.782   7.463  0.3524 -0.3090 -0.0213
 3127SOL    HW111823  10.107   1.689   7.444 -0.0920 -0.8832  2.3594
 3127SOL    HW211824  10.153   1.824   7.394 -2.1600 -1.9725 -3.1921
 3128SOL     OW11825   7.483   0.188   1.136 -0.3756 -0.1050  0.3811
 3128SOL    HW111826   7.494   0.282   1.124  1.4872 -0.0338  2.1288
 3128SOL    HW211827   7.406   0.179   1.192 -1.4578  0.2347 -0.9833
 3129SOL     OW11828   8.457   5.598   3.000 -0.3062 -0.2789  0.3346
 3129SOL    HW111829   8.503   5.617   3.082 -0.1876 -1.8719  0.6670
 3129SOL    HW211830   8.525   5.567   2.941 -0.3278  1.1953 -0.5348
 3130SOL     OW11831   1.593   1.192   6.671 -0.3876  0.3793 -0.0308
 3130SOL    HW111832   1.669   1.247   6.688  2.1648 -2.7549 -0.2631
 3130SOL    HW211833   1.588   1.187   6.575  1.1785 -1.7968 -0.0808
 3131SOL     OW11834   5.809   9.741   9.189 -0.2603  0.1812 -0.4066
 3131SOL    HW111835   5.823   9.666   9.130 -0.7720  0.0219 -0.3342
 3131SOL    HW211836   5.715   9.757   9.184 -0.0183  1.4680 -1.1926
 3132SOL     OW11837   2.255   4.451   2.061  0.1859  0.3910  0.3209
 3132SOL    HW111838   2.273   4.540   2.091  0.5920  0.5266 -0.3220
 3132SOL    HW211839   2.268   4.396   2.139 -0.4541  0.9299  0.8215
 3133SOL     OW11840   3.336   1.313   6.598 -0.0270  0.8001  0.3726
 3133SOL    HW111841   3.316   1.220   6.590 -1.5253  1.1680 -0.7402
 3133SOL    HW211842   3.334   1.331   6.692 -0.6821 -0.1040  0.5386
 3134SOL     OW11843   2.566   2.064   6.959  0.3689 -0.5157  0.6341
 3134SOL    HW111844   2.625   1.989   6.971 -0.2653 -1.0508  0.5047
 3134SOL    HW211845   2.605   2.115   6.888 -0.1629 -1.7494 -0.6100
 3135SOL     OW11846   1.884   2.961   5.305  0.2675  0.2797  0.2684
 3135SOL    HW111847   1.839   2.878   5.319  0.5596  0.0849  0.0570
 3135SOL    HW211848   1.848   3.020   5.371 -0.2641  0.1104  0.1305
 3136SOL     OW11849   5.379   4.910   1.139  0.1017 -0.2027 -0.1238
 3136SOL    HW111850   5.453   4.926   1.198  0.6386  1.2597 -1.1329
 3136SOL    HW211851   5.314   4.976   1.164 -0.0215 -0.1418 -0.5950
 3137SOL     OW11852   8.956   8.660   7.913  1.0640  0.3125  0.0020
 3137SOL    HW111853   8.995   8.585   7.958 -2.5531 -2.3616 -0.7875
 3137SOL    HW211854   8.916   8.712   7.983 -0.3070 -1.1079  0.3337
 3138SOL     OW11855   2.439   4.738   9.584  0.3423  0.5452  0.0200
 3138SOL    HW111856   2.358   4.723   9.536  0.7815 -0.7674 -0.3713
 3138SOL    HW211857   2.463   4.651   9.617  2.5253  0.5141 -1.4319
 3139SOL     OW11858   4.732   6.404   3.634 -0.5193  0.6568  0.2777
 3139SOL    HW111859   4.756   6.437   3.547 -0.6810  0.6582  0.2331
 3139SOL    HW211860   4.716   6.483   3.685  1.5155  0.7366  0.8830
 3140SOL     OW11861   9.211   3.961   5.271  0.3475 -0.1061 -0.1641
 3140SOL    HW111862   9.252   3.929   5.352 -0.9807 -0.1097  0.5292
 3140SOL    HW211863   9.171   4.044   5.295  0.0064 -0.0699 -0.8316
 3141SOL     OW11864   7.985   9.020   8.815 -0.0203  0.0137 -0.0119
 3141SOL    HW111865   7.962   8.962   8.887 -2.3158  0.4763 -0.3066
 3141SOL    HW211866   7.951   9.106   8.842  0.1283  0.4380 -1.1265
 3142SOL     OW11867   2.553   1.880   4.656  0.1207  0.7688 -0.0780
 3142SOL    HW111868   2.613   1.910   4.724 -1.0280  0.9596  0.8842
 3142SOL    HW211869   2.609   1.832   4.594  1.1797  0.4798  1.0552
 3143SOL     OW11870   4.223   9.535   9.417 -0.3014 -0.1072  0.1410
 3143SOL    HW111871   4.141   9.559   9.373 -0.4441 -4.1800 -2.3580
 3143SOL    HW211872   4.291   9.583   9.368 -0.8959 -0.4157 -1.0383
 3144SOL     OW11873   7.232   3.011   6.075  0.3258 -0.2301  0.5897
 3144SOL    HW111874   7.292   3.082   6.097 -0.7826  0.7825  0.4468
 3144SOL    HW211875   7.169   3.009   6.147  0.1527 -0.8531  0.4319
 3145SOL     OW11876   6.885   4.230   8.573  0.0596  0.2406 -0.0354
 3145SOL    HW111877   6.967   4.189   8.544  0.6722  0.8678  0.7574
 3145SOL    HW211878   6.909   4.321   8.591 -0.3541 -0.0174  2.0604
 3146SOL     OW11879   5.447  10.167  10.065 -0.2853 -0.5676 -0.2444
 3146SOL    HW111880   5.374  10.107  10.053  0.0485 -0.8605 -0.8744
 3146SOL    HW211881   5.491  10.136  10.144  0.3876 -1.7151 -1.0230
 3147SOL     OW11882   4.665   1.945   6.498 -0.3255 -0.5741 -0.3154
 3147SOL    HW111883   4.676   1.862   6.451 -1.4850 -0.1441 -1.3898
 3147SOL    HW211884   4.579   1.976   6.472 -0.9960 -0.2437  2.0192
 3148SOL     OW11885   4.421   3.223   7.082  0.1626 -0.3247 -0.4378
 3148SOL    HW111886   4.370   3.220   7.162 -0.2342 -0.7555 -0.7008
 3148SOL    HW211887   4.502   3.268   7.106 -0.2720  0.2124  0.0163
 3149SOL     OW11888   2.929   7.350   1.396 -0.7910  0.2812 -0.1177
 3149SOL    HW111889   2.908   7.354   1.490 -0.2364 -0.5513  0.0591
 3149SOL    HW211890   2.944   7.257   1.379 -1.9586  0.2832 -1.2906
 3150SOL     OW11891   5.699   8.888   4.693  0.5369  0.7510 -0.0708
 3150SOL    HW111892   5.610   8.869   4.720  0.6306 -0.7069 -0.7176
 3150SOL    HW211893   5.754   8.857   4.765  0.5365  2.1053  0.5557
 3151SOL     OW11894   6.165   0.417   9.386  0.0984  0.5322  0.1945
 3151SOL    HW111895   6.213   0.340   9.415  0.7689  0.0122 -2.0543
 3151SOL    HW211896   6.079   0.384   9.362  0.2727  0.5106 -0.4378
 3152SOL     OW11897   7.950   7.430   8.623 -0.1313 -0.3995 -0.2124
 3152SOL    HW111898   7.862   7.403   8.651  0.2502 -1.7149 -0.1983
 3152SOL    HW211899   7.936   7.512   8.576 -1.3297 -0.4238  0.0587
 3153SOL     OW11900   4.740   1.250   1.573 -0.2767 -0.0508 -0.6377
 3153SOL    HW111901   4.676   1.249   1.501 -1.6482  0.2218  0.5334
 3153SOL    HW211902   4.812   1.196   1.541 -0.3312  0.9595 -2.6583
 3154SOL     OW11903   7.523   6.414   0.216  0.0040 -0.8837  0.0564
 3154SOL    HW111904   7.470   6.463   0.153 -0.4763 -2.0060 -0.4459
 3154SOL    HW211905   7.613   6.421   0.183 -0.0244 -0.1537  0.1258
 3155SOL     OW11906   1.976   2.559   8.373 -1.1318  0.1380  0.6295
 3155SOL    HW111907   1.980   2.628   8.438  2.5769  1.0034 -0.2423
 3155SOL    HW211908   2.035   2.491   8.406 -0.1641  0.0307 -1.1604
 3156SOL     OW11909   4.650   2.013   2.810 -0.4471  0.0971  0.5445
 3156SOL    HW111910   4.711   2.084   2.790 -1.5099  1.0755  0.6658
 3156SOL    HW211911   4.615   2.035   2.896  0.7091 -1.6881  1.5446
 3157SOL     OW11912   1.701   8.264   0.287 -0.0070 -0.3099  0.2556
 3157SOL    HW111913   1.784   8.218   0.304 -0.1318 -0.4821  0.3981
 3157SOL    HW211914   1.639   8.226   0.349 -0.2911 -0.4521 -0.1088
 3158SOL     OW11915   9.743   6.161   1.088  0.4250  0.2989 -0.2681
 3158SOL    HW111916   9.759   6.181   1.180  0.9146  1.7245 -0.6250
 3158SOL    HW211917   9.701   6.076   1.088  0.1977  0.3881  1.2886
 3159SOL     OW11918   7.824   7.613   6.514  0.0834  0.2544  0.2707
 3159SOL    HW111919   7.796   7.690   6.464 -0.8975 -0.1979  0.0818
 3159SOL    HW211920   7.855   7.649   6.597 -1.1312  0.8211  0.5146
 3160SOL     OW11921   5.849   3.407   5.883  0.3520 -0.0318  0.0805
 3160SOL    HW111922   5.918   3.439   5.940  0.1335  0.0281  0.3134
 3160SOL    HW211923   5.856   3.460   5.804  1.1759 -0.6612 -0.2825
 3161SOL     OW11924   5.799   8.922   6.020  0.5952  0.1088  0.1019
 3161SOL    HW111925   5.840   8.925   6.107  0.9448 -1.1078  0.0090
 3161SOL    HW211926   5.839   8.845   5.978 -0.8464 -0.3588 -0.4755
 3162SOL     OW11927   7.070   7.496   6.261  0.2087  0.1088  0.3968
 3162SOL    HW111928   7.141   7.551   6.228 -2.0094  1.7893 -1.9661
 3162SOL    HW211929   7.112   7.412   6.282  2.7058  0.6239 -1.9786
 3163SOL     OW11930   4.591   1.399   0.190  0.0680 -0.2345 -0.0414
 3163SOL    HW111931   4.539   1.453   0.129  0.4378  1.2339  0.8830
 3163SOL    HW211932   4.632   1.333   0.134  1.7006  2.0337 -1.7308
 3164SOL     OW11933   1.743   5.501   3.010 -0.0213  0.1577  0.4756
 3164SOL    HW111934   1.768   5.422   3.058  0.5688 -0.3026 -0.5559
 3164SOL    HW211935   1.658   5.481   2.971  0.7475 -0.5145 -0.9271
 3165SOL     OW11936   6.527   0.678   4.713  0.4365 -0.3873 -0.2130
 3165SOL    HW111937   6.498   0.760   4.752  0.8140  0.1402 -1.0110
 3165SOL    HW211938   6.623   0.685   4.710  0.4102 -0.2268 -1.5663
 3166SOL     OW11939   2.687   5.873   8.624 -0.4984  0.5925 -0.3661
 3166SOL    HW111940   2.738   5.882   8.705 -1.2575  0.6877  0.1130
 3166SOL    HW211941   2.688   5.961   8.586  0.1318  0.4754 -0.6374
 3167SOL     OW11942   1.752   3.729   5.758  0.0135 -0.2879  0.7739
 3167SOL    HW111943   1.841   3.743   5.726  0.1996 -0.7124  1.0917
 3167SOL    HW211944   1.750   3.637   5.784 -0.8098 -0.5457 -0.1255
 3168SOL     OW11945   3.791   4.205   8.256  0.5131 -0.0616  0.4791
 3168SOL    HW111946   3.844   4.167   8.327  2.8341 -0.1020 -1.1689
 3168SOL    HW211947   3.803   4.144   8.183  0.6616  1.5124 -0.8515
 3169SOL     OW11948   6.733   3.393   3.884 -0.2857 -0.0057 -0.2648
 3169SOL    HW111949   6.774   3.370   3.801 -0.6966  0.5224 -0.6188
 3169SOL    HW211950   6.787   3.351   3.951 -0.3122 -0.9471 -0.8328
 3170SOL     OW11951   0.034   1.244   1.912  0.4579 -0.2111  0.2208
 3170SOL    HW111952  -0.024   1.309   1.953  1.4432 -0.1833  1.6445
 3170SOL    HW211953  -0.014   1.215   1.834 -1.0710  0.4491  0.8729
 3171SOL     OW11954   0.561   8.157   5.682 -0.3526 -0.8090 -0.2869
 3171SOL    HW111955   0.548   8.072   5.640  1.1062 -0.9479 -0.5340
 3171SOL    HW211956   0.568   8.138   5.775 -0.1666 -0.9556 -0.3292
 3172SOL     OW11957   7.654   9.871   7.701 -0.2130 -0.1374  0.1423
 3172SOL    HW111958   7.738   9.861   7.746 -0.7091  0.2531  1.1789
 3172SOL    HW211959   7.633   9.783   7.670  0.1329 -0.4233  0.6994
 3173SOL     OW11960   9.787   5.829   5.431  0.3253  0.2988  0.2182
 3173SOL    HW111961   9.710   5.836   5.486  0.0221 -1.2515  0.0463
 3173SOL    HW211962   9.852   5.785   5.486  0.2396 -0.6556 -0.4011
 3174SOL     OW11963   7.727   7.309   4.630 -0.0871 -0.5637 -0.1152
 3174SOL    HW111964   7.759   7.267   4.550 -0.0813  1.3474 -1.1728
 3174SOL    HW211965   7.795   7.292   4.695  1.0521 -0.1761 -1.1646
 3175SOL     OW11966   8.665   0.985   9.249 -0.1457 -0.0670 -0.3099
 3175SOL    HW111967   8.571   0.981   9.237  0.0674 -0.5343 -2.0677
 3175SOL    HW211968   8.692   1.066   9.205  0.1786  0.5929  1.0511
 3176SOL     OW11969   8.611   5.460   1.587 -0.7733  0.4009  0.1582
 3176SOL    HW111970   8.675   5.504   1.531  0.0304  0.0465  0.7746
 3176SOL    HW211971   8.663   5.426   1.660 -1.6665  0.0796  0.6580
 3177SOL     OW11972   7.015   1.473   6.027 -0.4221  0.3296  0.3043
 3177SOL    HW111973   6.920   1.470   6.023 -0.4008 -0.0181 -0.0020
 3177SOL    HW211974   7.044   1.402   5.970  0.0349  1.5879 -1.1192
 3178SOL     OW11975   9.193   4.097   3.166 -0.0030  0.0632 -0.2162
 3178SOL    HW111976   9.174   4.011   3.202 -1.5844  1.0425  1.4198
 3178SOL    HW211977   9.155   4.096   3.079  1.7446 -1.5157 -1.0397
 3179SOL     OW11978   5.186   7.262  10.162  0.5640  0.1863  0.1082
 3179SOL    HW111979   5.233   7.247  10.245 -0.5869  3.1768  1.4673
 3179SOL    HW211980   5.116   7.198  10.162  0.7265 -0.0230  1.3596
 3180SOL     OW11981   7.498   6.772   6.641  0.7931  0.2680  0.0186
 3180SOL    HW111982   7.552   6.694   6.629  0.9563  0.0948  1.6979
 3180SOL    HW211983   7.420   6.755   6.588  1.3363 -0.5006 -0.5593
 3181SOL     OW11984   4.508   2.219   4.888  0.5813  0.4055 -0.3675
 3181SOL    HW111985   4.560   2.139   4.896  0.9026  0.6178 -0.2907
 3181SOL    HW211986   4.424   2.196   4.926  0.5679  0.0115 -0.6284
 3182SOL     OW11987   9.646   7.353   8.549 -0.2678 -0.3335  0.0278
 3182SOL    HW111988   9.681   7.395   8.471 -1.6719 -0.5612 -0.7473
 3182SOL    HW211989   9.721   7.348   8.609  1.0709 -0.9913 -1.6263
 3183SOL     OW11990   7.565   9.139   5.701  0.0905 -0.1258 -0.0454
 3183SOL    HW111991   7.636   9.202   5.703  0.8741 -0.9366 -1.0399
 3183SOL    HW211992   7.517   9.159   5.621  0.6854 -1.1263 -0.6708
 3184SOL     OW11993   3.948   4.969   9.564  0.3411  0.6555 -0.1004
 3184SOL    HW111994   3.892   5.014   9.628  0.9702  0.9194  0.2678
 3184SOL    HW211995   3.986   4.897   9.613  1.7110  1.5188  0.1530
 3185SOL     OW11996   4.689   3.805   5.581  0.5443  0.0444 -0.4107
 3185SOL    HW111997   4.734   3.758   5.651 -0.7706 -2.1890 -0.9816
 3185SOL    HW211998   4.642   3.875   5.627  1.6772  0.1664  0.6127
 3186SOL     OW11999   2.070   7.721   6.271 -0.3850 -0.5745  0.2039
 3186SOL    HW112000   1.999   7.677   6.224 -1.6400 -0.6155  2.0541
 3186SOL    HW212001   2.053   7.702   6.363  0.3868  1.8222  0.9063
 3187SOL     OW12002   0.773   0.123   3.580  0.7096  0.0782 -0.0749
 3187SOL    HW112003   0.835   0.178   3.532 -0.2549  0.4135 -0.9917
 3187SOL    HW212004   0.688   0.147   3.544  0.0859 -0.6972  0.8309
 3188SOL     OW12005   5.690   5.034   4.104 -0.0477 -0.1037  0.3704
 3188SOL    HW112006   5.639   5.099   4.153  0.8096  0.6763  0.2550
 3188SOL    HW212007   5.765   5.083   4.071 -1.2490 -0.2160 -2.9408
 3189SOL     OW12008   3.950   8.225   0.806 -0.0432 -0.0488  0.8150
 3189SOL    HW112009   3.868   8.271   0.827 -0.8522 -0.4829 -1.1498
 3189SOL    HW212010   4.009   8.294   0.776  0.1049  0.1873  1.6366
 3190SOL     OW12011  10.180   3.224   1.549  0.4654  0.3117  0.6408
 3190SOL    HW112012  10.100   3.264   1.516  1.2710  0.9573 -0.6104
 3190SOL    HW212013  10.251   3.270   1.504  1.4947 -1.4015  0.4124
 3191SOL     OW12014   4.620   0.777  10.444 -0.2068 -0.3183 -0.1543
 3191SOL    HW112015   4.578   0.863  10.450  0.6623  0.2114 -1.2634
 3191SOL    HW212016   4.547   0.716  10.440 -0.8404  0.3346  0.8746
 3192SOL     OW12017   3.789   7.610   1.705 -0.0079  0.1979 -0.1635
 3192SOL    HW112018   3.745   7.692   1.727  0.7603  0.2153  1.4681
 3192SOL    HW212019   3.810   7.618   1.612 -4.3095 -0.2804 -1.3795
 3193SOL     OW12020   4.154   0.656   0.375  0.2586 -0.1335 -0.0365
 3193SOL    HW112021   4.084   0.711   0.339  0.2237 -0.0205  0.2048
 3193SOL    HW212022   4.118   0.567   0.374 -0.0088 -0.0328  0.3906
 3194SOL     OW12023   7.991   8.922   9.507 -0.4946  0.5029 -0.3178
 3194SOL    HW112024   7.924   8.981   9.541 -1.4122  0.7227 -2.3506
 3194SOL    HW212025   8.074   8.967   9.524 -0.9549  0.8796  0.9860
 3195SOL     OW12026   3.025   7.577   4.173  0.9196 -0.0355 -0.5112
 3195SOL    HW112027   2.965   7.652   4.181  0.5926 -0.2564 -0.8639
 3195SOL    HW212028   3.112   7.615   4.178  0.7514  0.2674  0.2432
 3196SOL     OW12029   8.488   3.748   9.212 -0.6912 -0.3426 -0.3630
 3196SOL    HW112030   8.415   3.791   9.258  0.4083  0.6140  0.5359
 3196SOL    HW212031   8.496   3.663   9.255 -2.8523 -1.5419 -2.1253
 3197SOL     OW12032   1.247   7.546   5.981  0.6860 -0.0997  0.6853
 3197SOL    HW112033   1.241   7.642   5.983 -2.7803 -0.1730 -0.1011
 3197SOL    HW212034   1.166   7.518   5.939  1.0480 -3.4664  1.9616
 3198SOL     OW12035   2.909   3.167   2.503 -0.5189 -0.0966 -0.2751
 3198SOL    HW112036   2.823   3.186   2.467 -0.9305  0.9404  1.1552
 3198SOL    HW212037   2.897   3.085   2.551 -0.6988  0.0040 -0.1456
 3199SOL     OW12038   2.861   2.567   8.508 -0.6898  0.4583 -0.3822
 3199SOL    HW112039   2.930   2.536   8.448  0.1839 -0.7780  1.1701
 3199SOL    HW212040   2.789   2.505   8.494  0.0421 -0.7029  0.7947
 3200SOL     OW12041   1.528   6.626  10.427  0.2338  0.0746 -0.2088
 3200SOL    HW112042   1.572   6.637  10.342  0.5815  0.6186  0.0377
 3200SOL    HW212043   1.451   6.573  10.407 -0.3814  1.2520 -1.1019
 3201SOL     OW12044   2.207   9.437   4.027 -0.0957  0.1533 -0.1040
 3201SOL    HW112045   2.118   9.440   3.992  0.4807 -0.6459 -1.7476
 3201SOL    HW212046   2.233   9.529   4.036 -0.4869  0.3893 -1.2495
 3202SOL     OW12047   7.850   1.509   9.744 -0.5008 -0.0090  0.0626
 3202SOL    HW112048   7.825   1.599   9.765  0.5527  0.1336  0.8094
 3202SOL    HW212049   7.772   1.471   9.705 -0.6974  1.4931 -1.1256
 3203SOL     OW12050   3.268   7.461   4.938  0.6611 -0.4373  0.2276
 3203SOL    HW112051   3.346   7.416   4.908  0.7856  0.4865 -0.8881
 3203SOL    HW212052   3.195   7.412   4.901  0.7421 -0.6732  0.3803
 3204SOL     OW12053   6.982   1.745   8.384  0.0695  0.0702  0.5820
 3204SOL    HW112054   6.886   1.748   8.393  0.0052  1.9154 -0.1755
 3204SOL    HW212055   6.999   1.784   8.298  1.5089 -0.0964  0.7719
 3205SOL     OW12056   2.052   3.237   8.277 -0.3938 -0.6659 -0.4534
 3205SOL    HW112057   1.970   3.191   8.295 -0.7915 -0.4111 -1.5091
 3205SOL    HW212058   2.073   3.282   8.358 -0.7630 -1.5307  0.1436
 3206SOL     OW12059   1.742  10.269   1.112 -0.5307 -0.0890  0.3273
 3206SOL    HW112060   1.786  10.271   1.027 -0.4215  0.5809  0.3939
 3206SOL    HW212061   1.652  10.296   1.093 -0.3989  0.4853  0.4752
 3207SOL     OW12062  10.235   6.313   9.013  0.1941 -0.5280 -0.0697
 3207SOL    HW112063  10.296   6.243   8.989 -1.0130 -2.1507  1.2550
 3207SOL    HW212064  10.203   6.346   8.929  2.3715 -0.0535 -0.7762
 3208SOL     OW12065   5.166   2.301   3.512 -0.5538 -0.2941 -0.0874
 3208SOL    HW112066   5.160   2.261   3.599 -1.8423  1.9599  0.9572
 3208SOL    HW212067   5.238   2.364   3.519 -0.4455 -0.3295 -0.7764
 3209SOL     OW12068   7.398   5.086   8.553 -0.5940 -0.0015  0.4397
 3209SOL    HW112069   7.329   5.051   8.609 -0.4473  0.1028  0.6871
 3209SOL    HW212070   7.352   5.134   8.484 -1.0180 -3.3502 -1.8610
 3210SOL     OW12071   2.194   7.641   4.212 -0.0521  0.0279 -0.3329
 3210SOL    HW112072   2.239   7.624   4.129  1.0266  2.4000 -0.3361
 3210SOL    HW212073   2.265   7.645   4.277 -0.6585  0.1422  0.3387
 3211SOL     OW12074   7.858   9.831   8.769 -0.2286  0.1380 -0.0122
 3211SOL    HW112075   7.946   9.801   8.748 -0.6422 -1.0812 -0.0817
 3211SOL    HW212076   7.845   9.804   8.860 -0.2801  0.9297  0.2195
 3212SOL     OW12077   5.846   4.245   1.470 -0.1030  0.0924 -0.3359
 3212SOL    HW112078   5.785   4.269   1.399 -0.2758  0.7179  0.0168
 3212SOL    HW212079   5.923   4.299   1.454 -0.0983  0.1504 -0.1144
 3213SOL     OW12080   8.639   8.317   9.738 -0.1608 -0.5290 -0.2718
 3213SOL    HW112081   8.580   8.391   9.751  0.4343 -0.3325  1.6337
 3213SOL    HW212082   8.704   8.325   9.808  1.4026 -1.4470 -1.5415
 3214SOL     OW12083   1.731   9.609   4.126 -0.2069  0.8384 -0.3463
 3214SOL    HW112084   1.691   9.559   4.196  1.6442 -1.1148 -0.5797
 3214SOL    HW212085   1.785   9.675   4.170 -0.5139  0.8489  0.0134
 3215SOL     OW12086   2.646   8.520   0.598  0.5388 -0.3793 -0.2372
 3215SOL    HW112087   2.673   8.449   0.657  0.5267  0.1074  0.3689
 3215SOL    HW212088   2.710   8.589   0.613 -2.4302  1.9668  3.3905
 3216SOL     OW12089   8.291   1.620   8.287 -0.2713 -0.2777 -0.6292
 3216SOL    HW112090   8.365   1.559   8.278  0.9321  0.9076  0.6232
 3216SOL    HW212091   8.319   1.698   8.239 -0.0965  0.6546  0.8982
 3217SOL     OW12092   5.794   5.537   2.327 -0.4981  0.3867  0.5265
 3217SOL    HW112093   5.725   5.535   2.394 -1.2698  0.0879 -0.2598
 3217SOL    HW212094   5.752   5.578   2.251 -0.4288 -1.5383 -0.6170
 3218SOL     OW12095   2.488   0.028   8.921  0.7910 -0.0197 -0.1971
 3218SOL    HW112096   2.548   0.067   8.985  2.4002  0.2770 -1.8187
 3218SOL    HW212097   2.528  -0.056   8.899  1.4146  0.7548 -2.2925
 3219SOL     OW12098   7.559   5.642   7.525  0.5026  0.2674 -0.1888
 3219SOL    HW112099   7.633   5.703   7.531 -0.7055  1.6622  0.8866
 3219SOL    HW212100   7.574   5.578   7.595 -0.1330  1.5061  1.1095
 3220SOL     OW12101   9.315   4.125   8.737 -0.4308 -0.0890 -0.0383
 3220SOL    HW112102   9.286   4.208   8.701  0.2307  0.0023 -0.3773
 3220SOL    HW212103   9.369   4.086   8.668  1.8561  0.6304  1.2604
 3221SOL     OW12104   2.547   5.191   7.451  0.1873 -0.2817  0.0125
 3221SOL    HW112105   2.463   5.174   7.409  0.7844 -1.2253 -0.8320
 3221SOL    HW212106   2.525   5.244   7.527 -1.0520  0.4089 -0.7957
 3222SOL     OW12107   6.314   9.584   1.717 -0.4918  0.4040  0.1805
 3222SOL    HW112108   6.269   9.551   1.640 -0.5491  1.1662 -0.1181
 3222SOL    HW212109   6.340   9.505   1.765 -0.7110 -0.0668 -0.4616
 3223SOL     OW12110   6.418   2.248   1.014 -0.1910  0.6469  0.0426
 3223SOL    HW112111   6.462   2.168   1.044  0.3968  0.3904 -1.4007
 3223SOL    HW212112   6.428   2.310   1.086 -0.0971 -0.3791  0.9338
 3224SOL     OW12113   8.958   3.637   9.190 -0.3379  0.0924  0.5349
 3224SOL    HW112114   8.991   3.672   9.107  0.4481 -1.1185  0.3254
 3224SOL    HW212115   8.903   3.707   9.225 -1.2855  0.3500 -1.3654
 3225SOL     OW12116   2.473   4.479   9.660 -0.2210 -0.1647  0.3538
 3225SOL    HW112117   2.387   4.436   9.665 -0.2114 -0.0606  3.0682
 3225SOL    HW212118   2.535   4.411   9.682  0.2804  0.0976 -0.2208
 3226SOL     OW12119  10.473   0.301   9.966  0.3082 -1.0048 -0.7765
 3226SOL    HW112120  10.456   0.391   9.940 -2.2942 -1.0263  0.5304
 3226SOL    HW212121  10.387   0.264   9.982  1.3315 -3.5944 -0.7227
 3227SOL     OW12122   1.234   1.123   9.457 -1.0048  0.1947 -0.1028
 3227SOL    HW112123   1.282   1.144   9.377  1.0755  1.1122  1.3006
 3227SOL    HW212124   1.244   1.029   9.466 -0.7394  0.1676 -0.6006
 3228SOL     OW12125   2.520   3.069   6.232 -0.1134 -0.1465  0.0807
 3228SOL    HW112126   2.560   3.053   6.317 -1.0447 -2.4264  0.1427
 3228SOL    HW212127   2.458   3.140   6.248  0.8947  0.5912  0.8926
 3229SOL     OW12128   9.953   7.512   2.424  0.0038  0.2788  0.0168
 3229SOL    HW112129  10.038   7.474   2.402 -0.0163 -1.6641  2.6689
 3229SOL    HW212130   9.939   7.485   2.515 -2.4152  2.5248  0.4102
 3230SOL     OW12131   6.187   2.309   6.782 -0.1569 -0.5075  0.0607
 3230SOL    HW112132   6.147   2.248   6.720  0.2199 -1.0973  0.3836
 3230SOL    HW212133   6.281   2.297   6.771 -0.0166 -2.4764  2.4520
 3231SOL     OW12134   1.806  10.283   9.785  0.1938  0.2281 -0.4164
 3231SOL    HW112135   1.734  10.229   9.752 -0.4329 -2.0402  3.9534
 3231SOL    HW212136   1.770  10.371   9.790 -1.4925 -0.4158 -0.5526
 3232SOL     OW12137   8.257   2.323   9.550  0.3795  0.4024 -0.2330
 3232SOL    HW112138   8.318   2.351   9.482 -0.9671  0.4430 -1.4819
 3232SOL    HW212139   8.198   2.262   9.506  0.7354 -1.2245  1.4363
 3233SOL     OW12140   7.381   6.849   5.465 -0.2082  0.4251 -0.0608
 3233SOL    HW112141   7.383   6.942   5.440 -1.0445  0.3039 -0.6058
 3233SOL    HW212142   7.466   6.815   5.438 -0.8906  0.4064 -2.3208
 3234SOL     OW12143   1.411   4.104   8.881 -0.4757 -0.4529 -0.0916
 3234SOL    HW112144   1.398   4.102   8.976  2.9694 -0.6437  0.4783
 3234SOL    HW212145   1.474   4.175   8.867  0.0555 -1.2532 -2.0825
 3235SOL     OW12146   9.932   6.281   9.676 -0.8211 -0.0590 -0.2098
 3235SOL    HW112147   9.889   6.244   9.599 -0.9031  0.5955 -0.4872
 3235SOL    HW212148  10.024   6.257   9.666 -0.5566  1.2477 -1.2884
 3236SOL     OW12149   5.377   2.297   2.486 -0.5222 -0.0279 -0.3157
 3236SOL    HW112150   5.340   2.284   2.574 -0.7997 -0.9975 -0.5634
 3236SOL    HW212151   5.364   2.213   2.442 -0.2498  0.4021 -1.2390
 3237SOL     OW12152   3.942   7.122   6.506 -0.2556  0.1794 -0.4240
 3237SOL    HW112153   3.898   7.037   6.516 -1.6378  1.0637  1.4831
 3237SOL    HW212154   3.908   7.175   6.578  2.1661  1.7038 -0.3218
 3238SOL     OW12155   3.057   1.515   7.364  0.2353 -0.0494 -0.4348
 3238SOL    HW112156   3.119   1.479   7.428  1.8564 -0.1931 -2.0150
 3238SOL    HW212157   3.077   1.608   7.360 -0.7311  0.2003  0.1596
 3239SOL     OW12158   6.600   1.786   2.310 -0.4206  0.0379  0.0710
 3239SOL    HW112159   6.527   1.785   2.372 -1.8511  0.0059 -1.5227
 3239SOL    HW212160   6.630   1.877   2.309  0.5339 -0.2244  1.7694
 3240SOL     OW12161   1.698   8.643   7.031 -0.0403  0.1759 -0.6653
 3240SOL    HW112162   1.752   8.627   7.109 -1.6348 -1.9489  0.0919
 3240SOL    HW212163   1.741   8.592   6.962  0.1818  0.3282 -0.6421
 3241SOL     OW12164   3.826   9.103   1.501  0.0452 -0.1195  0.0041
 3241SOL    HW112165   3.752   9.101   1.562 -1.3775  1.0417 -1.5932
 3241SOL    HW212166   3.886   9.167   1.539  0.5459 -1.4526  1.5928
 3242SOL     OW12167   6.428   0.079   4.914  0.1749  0.5259  0.0486
 3242SOL    HW112168   6.347   0.130   4.910  1.1933  2.3717  1.2292
 3242SOL    HW212169   6.498   0.145   4.911  1.5588 -0.7182  2.1497
 3243SOL     OW12170   8.376   0.818   8.753  0.3904  0.2741  0.2946
 3243SOL    HW112171   8.363   0.761   8.677  1.2674 -0.7548  0.8878
 3243SOL    HW212172   8.292   0.814   8.799  0.1489  0.1748 -0.1453
 3244SOL     OW12173   4.320  10.489   8.089 -0.3563  0.0413 -0.6973
 3244SOL    HW112174   4.272  10.572   8.089  0.2371  0.4316  0.6924
 3244SOL    HW212175   4.409  10.513   8.062 -0.0847 -0.0581  0.0804
 3245SOL     OW12176   2.861   7.821   0.627 -0.1299  0.1319 -0.0291
 3245SOL    HW112177   2.880   7.810   0.534  2.1357 -0.8540  0.4761
 3245SOL    HW212178   2.939   7.787   0.671 -0.8661  1.1965  2.2231
 3246SOL     OW12179   8.105   0.262   7.370 -0.3245  0.3465 -0.4012
 3246SOL    HW112180   8.118   0.203   7.444 -1.4786 -0.6840 -0.9936
 3246SOL    HW212181   8.048   0.332   7.404 -0.4982  0.1105 -0.2069
 3247SOL     OW12182   7.183   4.405   9.034 -0.1840  0.5965 -0.2657
 3247SOL    HW112183   7.132   4.483   9.016  1.4305  1.5113 -1.0780
 3247SOL    HW212184   7.166   4.347   8.959 -0.7057  0.5069 -0.0844
 3248SOL     OW12185   1.238   7.347   3.398 -0.0306 -0.6250 -0.2088
 3248SOL    HW112186   1.252   7.398   3.478 -1.3925 -0.0002 -0.3236
 3248SOL    HW212187   1.220   7.258   3.429  0.6722 -0.6659  0.0970
 3249SOL     OW12188   6.877   5.522   4.756 -0.0640  0.1735  0.1359
 3249SOL    HW112189   6.833   5.487   4.833 -3.4140  0.3998 -1.4915
 3249SOL    HW212190   6.860   5.617   4.760  2.9058  0.7706  0.9031
 3250SOL     OW12191   5.443   2.717   2.397 -0.2612 -0.5470 -0.3950
 3250SOL    HW112192   5.409   2.652   2.336 -1.2341 -0.4290  0.0114
 3250SOL    HW212193   5.420   2.684   2.483  1.0074 -0.6549 -0.0677
 3251SOL     OW12194   3.703   3.089   5.939 -0.5410  0.2913  0.1905
 3251SOL    HW112195   3.761   3.156   5.975 -0.8216  1.1511 -0.8694
 3251SOL    HW212196   3.731   3.080   5.848 -0.9098 -0.5875  0.1576
 3252SOL     OW12197   4.998   3.658   7.186  0.2235  0.2895 -0.4678
 3252SOL    HW112198   5.053   3.581   7.171  0.9266  0.8365 -0.7601
 3252SOL    HW212199   5.053   3.732   7.160 -0.5060  0.8803 -0.3578
 3253SOL     OW12200   6.119  10.041   7.277 -0.1528 -0.2906 -0.1992
 3253SOL    HW112201   6.117  10.038   7.373 -0.8856  0.2567 -0.1871
 3253SOL    HW212202   6.038  10.086   7.253  1.2153  1.9012 -0.9817
 3254SOL     OW12203   6.744  10.315   0.355 -0.4992  0.4792  0.1802
 3254SOL    HW112204   6.792  10.391   0.387 -1.3662  1.3465 -0.5009
 3254SOL    HW212205   6.697  10.348   0.278 -1.5223 -0.5459  0.3498
 3255SOL     OW12206   3.378   3.702   3.037 -0.4113  0.4293  0.4032
 3255SOL    HW112207   3.466   3.708   3.073 -0.9679 -0.6270  2.0381
 3255SOL    HW212208   3.374   3.614   2.999 -0.1929  1.1350 -1.3947
 3256SOL     OW12209   3.169   5.559   7.466  0.5425  0.7427  0.2283
 3256SOL    HW112210   3.168   5.614   7.388 -2.1907  0.2892 -0.1450
 3256SOL    HW212211   3.108   5.602   7.526  0.6248 -0.3081  1.0962
 3257SOL     OW12212   5.888   2.703   7.281 -0.2866 -0.9400 -0.2421
 3257SOL    HW112213   5.902   2.609   7.273  2.0928 -0.6346 -0.6055
 3257SOL    HW212214   5.911   2.739   7.195  2.4608  0.2328  0.8542
 3258SOL     OW12215   4.114   6.184   2.450 -0.3190 -0.0140 -0.4683
 3258SOL    HW112216   4.152   6.098   2.466  0.2633  0.4880  1.0780
 3258SOL    HW212217   4.022   6.175   2.474 -0.0231  0.0420  0.7747
 3259SOL     OW12218   6.940   9.350   3.800  0.0438 -0.6126 -0.1876
 3259SOL    HW112219   6.989   9.341   3.718 -1.1039 -2.4370 -0.7462
 3259SOL    HW212220   6.849   9.358   3.772 -0.2493 -0.0090  0.8987
 3260SOL     OW12221   0.620   0.016   0.210 -0.0595 -0.4143 -0.7771
 3260SOL    HW112222   0.624   0.099   0.257  1.0701 -0.6854 -0.3542
 3260SOL    HW212223   0.535  -0.021   0.233 -0.2238  0.2463 -0.3019
 3261SOL     OW12224   1.543   1.764   7.925 -0.1561  0.2484  0.1356
 3261SOL    HW112225   1.562   1.685   7.976 -1.0922  1.0497  1.7976
 3261SOL    HW212226   1.503   1.731   7.844 -0.4784 -0.9920  0.7719
 3262SOL     OW12227   9.831   9.023   1.384 -0.0540  0.3006 -0.7549
 3262SOL    HW112228   9.827   9.110   1.423 -0.0839  0.7318 -1.6950
 3262SOL    HW212229   9.906   9.025   1.326  0.6109 -0.6661  0.0243
 3263SOL     OW12230   7.675   2.855   2.328  0.2277 -0.0261 -0.4377
 3263SOL    HW112231   7.695   2.822   2.415 -0.4556  0.5306 -0.0679
 3263SOL    HW212232   7.702   2.947   2.330  0.7567 -0.1600 -1.0038
 3264SOL     OW12233   1.411   5.099   4.637 -0.0760 -0.1670  0.2015
 3264SOL    HW112234   1.369   5.082   4.553  2.1438  0.0871 -1.0655
 3264SOL    HW212235   1.467   5.175   4.620 -0.0330  0.2813  2.1060
 3265SOL     OW12236   9.647   4.066   9.542  0.4271  0.0375  0.4345
 3265SOL    HW112237   9.603   3.993   9.498  0.3143  1.3717 -1.8474
 3265SOL    HW212238   9.577   4.115   9.584  0.1480  0.1855 -0.1839
 3266SOL     OW12239   1.192   9.510   3.219 -0.0633 -0.2293 -0.4670
 3266SOL    HW112240   1.234   9.553   3.145  0.0652  0.4441 -0.0190
 3266SOL    HW212241   1.167   9.582   3.278  2.5461 -0.8484  1.5859
 3267SOL     OW12242   8.636   5.183   9.207 -0.4851 -0.5119 -0.3549
 3267SOL    HW112243   8.653   5.135   9.126  0.5932 -1.5150  0.4277
 3267SOL    HW212244   8.543   5.204   9.204 -0.5978 -1.1209 -1.5424
 3268SOL     OW12245   9.215   0.314   5.112  0.3046 -0.0368  0.2850
 3268SOL    HW112246   9.157   0.238   5.109  1.4939 -1.0506  1.6098
 3268SOL    HW212247   9.157   0.387   5.133 -0.6765 -0.7964  0.3072
 3269SOL     OW12248   9.075  10.463   0.405 -0.0102  0.1594 -0.0952
 3269SOL    HW112249   9.020  10.498   0.475  0.3266  0.6477 -0.0697
 3269SOL    HW212250   9.068  10.368   0.413  0.2882  0.2106  0.8085
 3270SOL     OW12251   6.524   7.500  10.185 -0.4472 -0.1113 -0.5750
 3270SOL    HW112252   6.497   7.473  10.273 -0.0168  0.8600 -0.1393
 3270SOL    HW212253   6.605   7.548  10.198  0.6783 -1.5894 -1.7144
 3271SOL     OW12254  10.166   6.107   7.261 -0.1860  0.8261  0.1952
 3271SOL    HW112255  10.088   6.051   7.260  0.9655 -0.8527 -1.6053
 3271SOL    HW212256  10.226   6.063   7.320  0.4807  0.4771 -0.7224
 3272SOL     OW12257   6.028   7.609   5.018 -0.0070 -0.4874  0.0139
 3272SOL    HW112258   6.060   7.554   4.946  1.5391 -2.1480  1.8753
 3272SOL    HW212259   6.101   7.667   5.038 -0.0380 -0.7503  0.9133
 3273SOL     OW12260   7.987   6.745   0.127  0.2758 -0.1811 -0.4099
 3273SOL    HW112261   8.079   6.743   0.151 -0.0291 -2.9995  0.8137
 3273SOL    HW212262   7.970   6.837   0.106  3.1426  0.5411  0.0674
 3274SOL     OW12263   7.353   7.020   1.425 -0.3662  0.5193  0.0131
 3274SOL    HW112264   7.332   7.094   1.368 -0.6210  0.4546  0.0194
 3274SOL    HW212265   7.444   6.999   1.407 -0.3752  0.6592 -0.1882
 3275SOL     OW12266   8.216  10.484   0.063  0.5432  0.1088 -0.0394
 3275SOL    HW112267   8.154  10.489  -0.010  1.2814  0.4265 -0.6489
 3275SOL    HW212268   8.295  10.444   0.026  0.6445 -0.5051  0.7821
 3276SOL     OW12269   8.997   2.144   8.589 -0.0754  0.2097 -0.9632
 3276SOL    HW112270   8.909   2.179   8.604 -0.6124 -1.5413  0.2929
 3276SOL    HW212271   9.001   2.065   8.644  2.3738  0.3877 -0.7771
 3277SOL     OW12272   2.698   3.259   4.210  0.2478  0.0081  0.2767
 3277SOL    HW112273   2.687   3.185   4.270  1.5103  1.3628  2.2647
 3277SOL    HW212274   2.665   3.335   4.258 -0.3634  0.8901 -1.4544
 3278SOL     OW12275   6.687   6.112   3.710  0.0296  0.0733  0.1469
 3278SOL    HW112276   6.705   6.205   3.696 -1.2109  0.2346 -0.5364
 3278SOL    HW212277   6.727   6.068   3.636  0.3487  0.0974  0.3059
 3279SOL     OW12278   3.753   0.478   0.243  0.2814 -0.3028 -0.5062
 3279SOL    HW112279   3.661   0.473   0.267  0.5368 -1.4433  0.3292
 3279SOL    HW212280   3.758   0.552   0.183 -1.2933 -0.6291 -1.1020
 3280SOL     OW12281   7.559   6.903   2.945  0.5233 -0.7467 -0.4027
 3280SOL    HW112282   7.500   6.868   2.879  0.2089 -0.0088 -0.5265
 3280SOL    HW212283   7.592   6.826   2.991 -2.2261 -1.0997  1.1614
 3281SOL     OW12284   2.894   8.881   5.988  0.0422 -0.0310 -0.1630
 3281SOL    HW112285   2.978   8.915   6.018 -0.4899  0.4192  0.8585
 3281SOL    HW212286   2.906   8.786   5.987  1.4137  0.0656 -2.6617
 3282SOL     OW12287   4.387   3.503  10.003  0.1090  0.6647 -0.2736
 3282SOL    HW112288   4.431   3.444  10.065  4.1294  2.0369 -1.4702
 3282SOL    HW212289   4.414   3.472   9.917 -1.3500  1.6615 -1.1366
 3283SOL     OW12290   2.528   6.516   1.115 -0.2712  0.2418 -0.4074
 3283SOL    HW112291   2.573   6.445   1.161  1.2039  0.8021 -0.9267
 3283SOL    HW212292   2.441   6.482   1.097  0.1029 -1.0746  0.1872
 3284SOL     OW12293   4.686   0.533   9.515 -0.0475  0.2114  0.8220
 3284SOL    HW112294   4.644   0.617   9.498 -1.4591 -0.2403  1.8300
 3284SOL    HW212295   4.635   0.471   9.462  0.7257 -0.0769  0.3986
 3285SOL     OW12296   0.521   8.820   8.244  0.5157 -0.7658 -0.3801
 3285SOL    HW112297   0.558   8.837   8.330  0.5871  1.9312 -0.8690
 3285SOL    HW212298   0.429   8.800   8.260  0.9141 -2.0611  0.4187
 3286SOL     OW12299   1.502   3.508   5.981 -0.3157 -0.7189 -0.1178
 3286SOL    HW112300   1.444   3.518   5.905 -0.1017  0.2675 -0.1736
 3286SOL    HW212301   1.590   3.506   5.943 -0.1016  1.2366  0.1519
 3287SOL     OW12302   1.198   3.815   1.618 -0.3669  0.3693 -0.3797
 3287SOL    HW112303   1.144   3.799   1.695 -1.5811  2.2039 -0.7650
 3287SOL    HW212304   1.161   3.758   1.550 -2.0409  1.7097 -0.6835
 3288SOL     OW12305   9.974   1.265   2.101  1.0035 -0.3755 -0.1182
 3288SOL    HW112306   9.892   1.258   2.149  1.5201 -0.6375  0.7480
 3288SOL    HW212307   9.972   1.192   2.039  1.0368 -1.0284  0.6266
 3289SOL     OW12308   4.249   3.068  10.078  0.1574  0.0175 -0.1801
 3289SOL    HW112309   4.261   2.974  10.095  0.7258  0.0511 -0.3611
 3289SOL    HW212310   4.179   3.071  10.013 -1.5282 -0.1464  1.5523
 3290SOL     OW12311   2.018   8.233   6.991  0.6486  0.2041  0.4800
 3290SOL    HW112312   1.934   8.191   6.975  1.0608 -0.2107 -0.7047
 3290SOL    HW212313   2.007   8.278   7.074 -0.1949 -1.2704  1.2137
 3291SOL     OW12314   9.366   0.063   4.989 -0.2128  0.0133 -0.4402
 3291SOL    HW112315   9.320   0.041   5.070  1.9983 -2.4526  0.2689
 3291SOL    HW212316   9.404   0.149   5.005 -1.4705  0.4545  0.3276
 3292SOL     OW12317   4.668   3.324   6.676 -0.0496 -0.1411  0.6131
 3292SOL    HW112318   4.598   3.261   6.661  2.2423 -2.7139  0.0765
 3292SOL    HW212319   4.644   3.399   6.622 -1.3121 -1.7976 -1.2524
 3293SOL     OW12320   7.565   4.905   4.750  0.0143  0.4239  0.0893
 3293SOL    HW112321   7.520   4.968   4.806  1.0344 -0.1946  1.6913
 3293SOL    HW212322   7.594   4.956   4.675  0.0519  1.6806  0.9181
 3294SOL     OW12323   8.513   6.401   4.241  0.7296 -0.4782 -0.0543
 3294SOL    HW112324   8.533   6.396   4.335 -1.6578 -1.1934  0.5021
 3294SOL    HW212325   8.551   6.484   4.213  1.9945 -0.5258  1.3989
 3295SOL     OW12326   7.251   7.121   5.576  0.1866  0.6805  0.4351
 3295SOL    HW112327   7.170   7.146   5.621 -0.6786  0.0906 -0.7301
 3295SOL    HW212328   7.268   7.194   5.516  0.3279  0.6531  0.4418
 3296SOL     OW12329  10.218   0.310   8.775  0.6579 -0.2527  0.3958
 3296SOL    HW112330  10.203   0.359   8.856  3.2660  0.6543  0.3963
 3296SOL    HW212331  10.198   0.219   8.798 -2.3829  0.4169  0.9192
 3297SOL     OW12332   7.567   3.726   5.020  0.1578 -0.5555  0.1643
 3297SOL    HW112333   7.663   3.727   5.022  0.2786 -2.8976 -0.8347
 3297SOL    HW212334   7.545   3.746   4.929 -0.3107 -0.1340  0.3667
 3298SOL     OW12335   2.355   8.732   0.326 -0.3820  0.2051  0.2948
 3298SOL    HW112336   2.315   8.813   0.358 -1.0202  0.0474 -0.0837
 3298SOL    HW212337   2.294   8.663   0.352 -0.3983 -0.0329 -0.3635
 3299SOL     OW12338   4.744   4.569   6.798 -0.4676  0.6450 -0.1201
 3299SOL    HW112339   4.827   4.601   6.832 -0.9661  0.6817  1.1068
 3299SOL    HW212340   4.720   4.497   6.856 -0.8973  0.0817 -0.9654
 3300SOL     OW12341   6.117  10.010   9.806  0.0843 -0.0205  0.1609
 3300SOL    HW112342   6.200   9.967   9.826 -0.1019 -0.7905 -0.6771
 3300SOL    HW212343   6.073   9.952   9.744 -1.1123  0.3506  0.6279
 3301SOL     OW12344   7.897   1.586   5.984 -0.1871  0.5516 -0.2857
 3301SOL    HW112345   7.838   1.542   6.045  0.1415 -2.0139 -1.6745
 3301SOL    HW212346   7.839   1.634   5.925 -1.0929 -2.4789 -2.0520
 3302SOL     OW12347   2.855   8.131   4.113  0.7616  0.1635  0.7087
 3302SOL    HW112348   2.855   8.132   4.209 -1.5986  0.9849  0.7610
 3302SOL    HW212349   2.943   8.101   4.089  1.7974  1.0745  3.0979
 3303SOL     OW12350  10.169   3.089   6.410  0.4439 -0.1092 -0.1223
 3303SOL    HW112351  10.078   3.119   6.420  0.3319 -0.3793 -0.3240
 3303SOL    HW212352  10.209   3.155   6.353 -0.1072 -0.9174 -1.5061
 3304SOL     OW12353   6.619   9.443   1.662  0.4042  0.6762  0.1260
 3304SOL    HW112354   6.571   9.441   1.745  0.3697 -0.8670  0.1036
 3304SOL    HW212355   6.568   9.388   1.603  0.7272  1.2983 -0.7571
 3305SOL     OW12356   0.745   4.386   3.153 -0.2620 -0.0999 -0.0677
 3305SOL    HW112357   0.800   4.333   3.095  1.0414  0.4755  0.5907
 3305SOL    HW212358   0.727   4.466   3.103  0.1303  0.0184 -0.0295
 3306SOL     OW12359   1.172   7.523  10.373 -0.1094 -0.3216 -0.6633
 3306SOL    HW112360   1.237   7.458  10.399  0.1666 -0.4215 -1.5564
 3306SOL    HW212361   1.107   7.522  10.443 -0.0010 -1.4100 -0.5587
 3307SOL     OW12362   8.530   7.542   4.507 -0.1360 -0.4403 -0.2042
 3307SOL    HW112363   8.502   7.485   4.435  0.9691 -1.8213  0.4067
 3307SOL    HW212364   8.522   7.630   4.472 -2.2015 -0.9249 -1.0859
 3308SOL     OW12365   5.649   8.160  10.140  0.0086 -0.0933  0.6078
 3308SOL    HW112366   5.703   8.183  10.064 -0.0234 -0.4264  0.4811
 3308SOL    HW212367   5.671   8.225  10.206  0.5429 -0.2040  0.5463
 3309SOL     OW12368   0.502   0.500   5.391  0.4391 -0.4100  0.1483
 3309SOL    HW112369   0.565   0.537   5.328 -0.5717  0.6254 -0.2833
 3309SOL    HW212370   0.462   0.427   5.344  2.0692 -1.8155  0.8198
 3310SOL     OW12371   5.787   4.907  10.423  0.0022  0.4106  0.1315
 3310SOL    HW112372   5.770   4.900  10.517 -0.6350 -0.6685 -0.0551
 3310SOL    HW212373   5.749   4.992  10.399 -0.5914  0.3197  0.6960
 3311SOL     OW12374   2.838   4.451   9.475 -0.3104  0.2239 -0.0800
 3311SOL    HW112375   2.782   4.514   9.520 -0.7293 -0.4681  0.3853
 3311SOL    HW212376   2.786   4.421   9.401 -0.1087  0.4252 -0.3049
 3312SOL     OW12377   3.487   3.607   4.739  0.8372 -0.5901  0.0864
 3312SOL    HW112378   3.510   3.625   4.830 -1.8092  0.0600  0.7140
 3312SOL    HW212379   3.481   3.511   4.734 -0.1044 -0.6045  0.9617
 3313SOL     OW12380   3.233   0.160   7.078 -0.0482  0.7607 -0.3124
 3313SOL    HW112381   3.263   0.233   7.024  0.7756  0.0013 -0.9090
 3313SOL    HW212382   3.180   0.107   7.019 -1.3372  1.2741  0.3333
 3314SOL     OW12383   0.634   0.964   7.599  0.1531  0.2411  0.4562
 3314SOL    HW112384   0.602   0.874   7.611 -0.7905  0.7689  2.1622
 3314SOL    HW212385   0.695   0.979   7.671  1.6089  0.4529 -0.7656
 3315SOL     OW12386   4.574   0.309   4.704  0.3580  0.2783  0.5163
 3315SOL    HW112387   4.550   0.269   4.620 -2.1841  1.9301  0.3354
 3315SOL    HW212388   4.643   0.371   4.682 -0.2006  0.6083 -0.3866
 3316SOL     OW12389   6.040   3.070   5.283  0.0746 -0.2280  0.3191
 3316SOL    HW112390   5.975   3.007   5.314  0.7656 -0.4184  1.4692
 3316SOL    HW212391   6.058   3.045   5.193 -3.4807  1.5297 -1.0483
 3317SOL     OW12392   5.996   6.009   9.274  0.0341  0.9606 -0.9354
 3317SOL    HW112393   5.999   5.914   9.286  2.2546  1.0601 -0.3690
 3317SOL    HW212394   5.928   6.038   9.335 -0.4531 -0.2276 -0.8882
 3318SOL     OW12395   0.143   0.974   5.097 -0.2874 -0.3890  0.0763
 3318SOL    HW112396   0.185   0.937   5.019  0.1362 -1.0138  0.5990
 3318SOL    HW212397   0.206   0.962   5.167 -1.3005 -1.2962  0.8659
 3319SOL     OW12398   3.826   2.687   6.169  0.2694 -0.3630  0.1082
 3319SOL    HW112399   3.822   2.725   6.081  0.2221  0.8231  0.6044
 3319SOL    HW212400   3.748   2.721   6.213 -0.8659 -2.6542 -0.0297
 3320SOL     OW12401   6.555   6.950   4.607  0.4616  0.0591  0.1772
 3320SOL    HW112402   6.514   7.012   4.546 -0.7612  0.3520  1.2597
 3320SOL    HW212403   6.485   6.890   4.630  0.7030  0.3860  1.8558
 3321SOL     OW12404   7.666   8.527   4.866  0.2958  0.0567 -0.0087
 3321SOL    HW112405   7.573   8.509   4.878  0.6952 -1.6312  0.8730
 3321SOL    HW212406   7.684   8.599   4.927 -0.0217 -1.0007  1.3729
 3322SOL     OW12407   7.497   3.871   3.005  0.1393  0.5152  0.9585
 3322SOL    HW112408   7.486   3.935   2.934  2.7092 -0.1132 -0.0925
 3322SOL    HW212409   7.439   3.799   2.980 -0.2267  0.9883  0.3877
 3323SOL     OW12410   7.495   9.332  10.122  0.3931  0.1311 -0.5514
 3323SOL    HW112411   7.490   9.346  10.216 -2.0112  0.8550 -0.7288
 3323SOL    HW212412   7.413   9.289  10.099 -0.5549  2.8023 -2.7289
 3324SOL     OW12413   4.011   7.116   4.175  0.3073 -0.4761  0.2700
 3324SOL    HW112414   3.933   7.093   4.225  1.4212 -0.7313  1.9536
 3324SOL    HW212415   4.016   7.048   4.107 -2.5545  1.2046 -1.8769
 3325SOL     OW12416   5.010   0.511   1.717  0.3906  0.1389 -0.7913
 3325SOL    HW112417   5.089   0.511   1.771  0.2369 -0.7186 -0.5377
 3325SOL    HW212418   4.938   0.496   1.779  0.0566  0.6284 -1.0520
 3326SOL     OW12419   8.282   2.857   2.333  0.5160  0.5072 -0.0326
 3326SOL    HW112420   8.250   2.941   2.365  1.9386  0.9646  0.2306
 3326SOL    HW212421   8.319   2.814   2.410  2.5194  0.9413 -0.6969
 3327SOL     OW12422   7.530   4.653   9.684 -0.3031 -0.2274 -0.6456
 3327SOL    HW112423   7.539   4.727   9.624  1.6449  0.4386  0.3971
 3327SOL    HW212424   7.440   4.660   9.716 -0.0033  2.1204 -0.0922
 3328SOL     OW12425   6.130   3.067   0.850 -0.5263 -0.0078 -0.2192
 3328SOL    HW112426   6.083   3.015   0.915  0.9211  0.6306  1.4327
 3328SOL    HW212427   6.106   3.158   0.870 -0.9147  0.1499 -1.3166
 3329SOL     OW12428   6.711   6.138   7.555 -0.4615  0.2781  0.4509
 3329SOL    HW112429   6.657   6.062   7.534  0.7840 -0.0504 -1.9447
 3329SOL    HW212430   6.653   6.213   7.544 -0.7553 -0.1273 -0.9867
 3330SOL     OW12431   4.786   8.104   7.792 -0.7444 -0.0153 -0.0873
 3330SOL    HW112432   4.747   8.055   7.720 -0.7536  1.3034 -1.0180
 3330SOL    HW212433   4.807   8.038   7.858 -0.8310 -1.2418 -1.2548
 3331SOL     OW12434   6.189   2.214   3.800 -0.3501  0.0480  0.1166
 3331SOL    HW112435   6.128   2.250   3.735 -0.6244 -0.0381  0.3218
 3331SOL    HW212436   6.274   2.247   3.774 -0.3424 -0.6003 -0.7350
 3332SOL     OW12437   4.121   1.316   3.318 -0.0858  0.3412  0.4148
 3332SOL    HW112438   4.203   1.268   3.328 -0.7944 -0.6665  1.7388
 3332SOL    HW212439   4.083   1.316   3.406 -1.4187  0.9459 -0.1384
 3333SOL     OW12440   9.626   2.292   8.800 -0.3422 -0.4447 -0.7458
 3333SOL    HW112441   9.591   2.216   8.754  2.3168 -1.5533 -1.1035
 3333SOL    HW212442   9.642   2.357   8.731 -1.0461 -0.1784 -0.6657
 3334SOL     OW12443   6.585   1.086   2.005 -0.0784  0.1013  0.1332
 3334SOL    HW112444   6.587   1.168   1.956 -0.4800  0.3730  0.5525
 3334SOL    HW212445   6.660   1.092   2.064  1.4818 -1.0208 -1.6556
 3335SOL     OW12446   5.276   5.014   5.958 -0.0478  0.5621  0.3151
 3335SOL    HW112447   5.292   4.927   5.921  0.2959  0.7856 -0.0752
 3335SOL    HW212448   5.267   4.998   6.052  1.3767  0.2546  0.4274
 3336SOL     OW12449   0.386   2.526   2.154  0.5372 -0.1925  0.2334
 3336SOL    HW112450   0.319   2.477   2.201  1.2024 -1.4212 -0.0640
 3336SOL    HW212451   0.360   2.618   2.164 -0.1542 -0.5224  1.7053
 3337SOL     OW12452   6.151   3.347   3.536 -0.4113  0.0972  0.5556
 3337SOL    HW112453   6.095   3.274   3.511 -0.1220 -0.8139  2.4221
 3337SOL    HW212454   6.217   3.352   3.467 -0.4024 -1.4487  0.4230
 3338SOL     OW12455   9.034   4.640   7.090 -0.0592  0.4441 -0.2001
 3338SOL    HW112456   9.108   4.587   7.062 -0.6882 -0.5679 -0.0065
 3338SOL    HW212457   9.022   4.704   7.020 -0.6962 -1.1102 -1.5770
 3339SOL     OW12458   2.604   4.390   5.406 -0.2543 -0.3206  0.0504
 3339SOL    HW112459   2.606   4.305   5.449 -2.0901 -0.7746 -0.6652
 3339SOL    HW212460   2.680   4.390   5.349  0.5525 -0.8977  1.0971
 3340SOL     OW12461   1.918   3.767   8.658 -0.1185  0.1903 -0.4634
 3340SOL    HW112462   1.889   3.848   8.699 -1.9524 -0.6195 -0.0851
 3340SOL    HW212463   1.860   3.700   8.693  1.1407 -1.2480 -1.0295
 3341SOL     OW12464   0.446   8.573   1.668 -0.2730  0.5889  0.1656
 3341SOL    HW112465   0.382   8.568   1.597  2.3070  0.8309 -2.3807
 3341SOL    HW212466   0.439   8.663   1.700 -1.2030  0.5933 -0.0108
 3342SOL     OW12467   9.009   2.307   2.475  0.0671 -0.2215  0.6913
 3342SOL    HW112468   8.997   2.275   2.386  0.8054 -0.2931  0.6078
 3342SOL    HW212469   9.050   2.234   2.521  1.0633  0.3227  0.6976
 3343SOL     OW12470   8.031   6.694   0.513 -0.1342 -0.0786  0.9251
 3343SOL    HW112471   8.043   6.646   0.595 -0.2150  1.0343  1.6183
 3343SOL    HW212472   8.007   6.627   0.449  0.4746 -1.0456  1.6813
 3344SOL     OW12473   4.072   5.238   6.279 -0.3920 -0.4616 -0.0703
 3344SOL    HW112474   4.117   5.154   6.265 -2.5786 -1.7223 -0.0516
 3344SOL    HW212475   4.012   5.221   6.352  0.9743  1.9649  1.7683
 3345SOL     OW12476   6.204   5.387   0.241  0.3312 -0.3147  0.0537
 3345SOL    HW112477   6.239   5.394   0.330 -0.4159 -0.3823  0.3538
 3345SOL    HW212478   6.233   5.301   0.211  0.5737 -0.2964  0.2316
 3346SOL     OW12479   5.868   3.967   0.315  0.3776  0.3187 -0.0987
 3346SOL    HW112480   5.863   4.058   0.289  1.6014  0.2909 -0.4970
 3346SOL    HW212481   5.918   3.968   0.397  0.8529 -0.0364 -0.3791
 3347SOL     OW12482   4.099   6.712   7.966  0.0707  0.0716 -0.0484
 3347SOL    HW112483   4.135   6.795   7.999 -1.5684 -0.0624  2.2889
 3347SOL    HW212484   4.153   6.644   8.006  0.5631 -0.0359 -0.8781
 3348SOL     OW12485   7.311   4.686   5.293  0.4379  0.6508 -0.2586
 3348SOL    HW112486   7.377   4.711   5.229 -1.0510 -0.7262 -2.4658
 3348SOL    HW212487   7.235   4.741   5.272 -0.6257 -0.9721 -0.8568
 3349SOL     OW12488   6.281   2.827   1.035 -0.1996 -0.3398 -0.3518
 3349SOL    HW112489   6.315   2.738   1.041 -0.9593 -0.5904  0.4632
 3349SOL    HW212490   6.355   2.883   1.057 -0.0131 -0.8216  0.2678
 3350SOL     OW12491   1.984   8.433   2.356  0.8393  0.3630  0.0254
 3350SOL    HW112492   2.020   8.394   2.277  1.0311  1.6139 -0.5218
 3350SOL    HW212493   1.943   8.515   2.326  2.3940  1.7208  1.4382
 3351SOL     OW12494   5.003   8.545   5.337  0.0989 -0.8137  0.0097
 3351SOL    HW112495   5.012   8.595   5.256  1.9055 -0.2287  0.5346
 3351SOL    HW212496   4.949   8.601   5.393 -0.3675 -0.7972 -0.4457
 3352SOL     OW12497   6.700   2.761   3.017 -0.2701  0.3034 -0.1671
 3352SOL    HW112498   6.659   2.791   2.936 -2.5403  1.2225  1.2219
 3352SOL    HW212499   6.663   2.817   3.085 -0.1994 -1.8896  1.8167
 3353SOL     OW12500   6.816   1.491   6.592 -0.2643 -0.2924  0.4660
 3353SOL    HW112501   6.793   1.483   6.499 -1.1195 -1.2627  0.7516
 3353SOL    HW212502   6.867   1.572   6.597 -2.0322  0.9348 -0.4895
 3354SOL     OW12503   8.556   8.592   5.961  0.2664 -0.0061 -0.2154
 3354SOL    HW112504   8.626   8.578   6.024  0.3682 -0.1025 -0.3474
 3354SOL    HW212505   8.500   8.515   5.969  0.9905 -0.6587 -1.1500
 3355SOL     OW12506  10.113  10.325   9.914 -0.4523  0.0597 -0.3474
 3355SOL    HW112507  10.117  10.285  10.000  0.1152 -0.9923 -0.8437
 3355SOL    HW212508  10.107  10.251   9.853  2.2191  0.5562 -1.3934
 3356SOL     OW12509   9.366   6.882   2.192  0.5160  0.3661  0.3186
 3356SOL    HW112510   9.333   6.802   2.231 -0.8622  0.4604 -0.5875
 3356SOL    HW212511   9.363   6.947   2.263 -0.3124  0.1205  0.5123
 3357SOL     OW12512   4.760   6.028   2.009  0.3956  0.6636 -0.0556
 3357SOL    HW112513   4.710   6.083   2.069  0.2775  0.0913  0.3757
 3357SOL    HW212514   4.770   6.081   1.930  2.2831  2.2400  1.1390
 3358SOL     OW12515   6.857   2.984   3.233 -0.3115 -0.0008  0.2343
 3358SOL    HW112516   6.766   2.956   3.238 -0.6465  0.8993 -0.5399
 3358SOL    HW212517   6.852   3.080   3.229  0.7137  0.1032  1.0745
 3359SOL     OW12518   4.202   9.532   4.291  0.2119  0.6390  0.1767
 3359SOL    HW112519   4.147   9.548   4.214 -0.9246 -0.5827  0.6895
 3359SOL    HW212520   4.163   9.585   4.360 -0.6160 -0.5188  0.6386
 3360SOL     OW12521   2.142   5.857   1.470 -0.6926 -0.0758  0.1561
 3360SOL    HW112522   2.159   5.919   1.541 -1.7364 -0.5681  0.8415
 3360SOL    HW212523   2.229   5.831   1.440 -0.2421  0.8972  0.5755
 3361SOL     OW12524   0.375   5.787   4.711  0.1039 -0.6962 -0.3421
 3361SOL    HW112525   0.397   5.695   4.729 -0.5222 -1.0800 -1.4372
 3361SOL    HW212526   0.453   5.823   4.671  0.3201 -0.7736  0.0054
 3362SOL     OW12527   6.291   5.578   2.826  0.1762 -0.0066  0.6229
 3362SOL    HW112528   6.362   5.639   2.805 -0.9203  1.1088  0.0009
 3362SOL    HW212529   6.247   5.617   2.902 -0.6374  0.0869  0.1221
 3363SOL     OW12530   9.052   2.923   9.142 -0.1391 -0.3820  0.0387
 3363SOL    HW112531   9.085   2.890   9.058 -0.5253 -1.6853  0.3736
 3363SOL    HW212532   9.090   2.864   9.207 -1.3318 -0.5203  0.6208
 3364SOL     OW12533   1.991   0.937   1.728 -0.0726  0.2316 -0.7147
 3364SOL    HW112534   2.017   0.986   1.806 -0.3021 -0.7302 -0.0149
 3364SOL    HW212535   2.001   0.845   1.753  1.0081 -0.0839 -2.2348
 3365SOL     OW12536   6.617   1.815   4.911  0.5719 -0.5133  0.0114
 3365SOL    HW112537   6.696   1.833   4.859  0.5287  1.4042  0.5184
 3365SOL    HW212538   6.607   1.720   4.907  0.2394 -0.4957 -3.9176
 3366SOL     OW12539   8.969   4.799  10.183  0.1591 -0.0726 -0.3517
 3366SOL    HW112540   9.052   4.773  10.143  0.3958  0.0994  0.0167
 3366SOL    HW212541   8.912   4.723  10.173  0.4053 -0.2432 -0.4785
 3367SOL     OW12542   0.124   3.857   1.623  0.1987  0.5394 -0.1736
 3367SOL    HW112543   0.128   3.877   1.717  0.8636  0.8821 -0.2635
 3367SOL    HW212544   0.035   3.826   1.608  0.3423 -0.3198  0.7255
 3368SOL     OW12545   2.495   9.217   3.257 -0.0144 -0.4096 -0.1999
 3368SOL    HW112546   2.415   9.190   3.303 -0.4922  0.8884 -0.2402
 3368SOL    HW212547   2.480   9.309   3.236  1.8223  0.0713  0.4644
 3369SOL     OW12548   7.303   7.428   7.036  0.7313 -0.0120 -0.0670
 3369SOL    HW112549   7.362   7.370   7.085  0.8676 -1.3987 -1.8018
 3369SOL    HW212550   7.354   7.458   6.961 -0.3949 -0.2924 -0.9708
 3370SOL     OW12551   2.095   3.485   7.722 -0.5579 -0.3148  0.7590
 3370SOL    HW112552   2.028   3.493   7.654  1.2228 -0.3398 -1.1086
 3370SOL    HW212553   2.048   3.498   7.804 -3.1474 -2.0174 -0.3166
 3371SOL     OW12554   2.255   2.399   0.906 -0.2232 -0.1999 -0.4565
 3371SOL    HW112555   2.327   2.462   0.908 -0.1995 -0.2360  0.0884
 3371SOL    HW212556   2.236   2.382   0.998 -2.1312  1.1714 -0.5375
 3372SOL     OW12557   5.304   2.885   2.685 -0.3025 -0.2316 -0.4261
 3372SOL    HW112558   5.267   2.920   2.604 -0.8634 -0.2771 -0.1951
 3372SOL    HW212559   5.247   2.812   2.707 -0.2466 -0.1170  0.0958
 3373SOL     OW12560   5.095  10.354   9.495 -0.0950 -0.5438  0.2039
 3373SOL    HW112561   5.076  10.429   9.551  1.3083 -1.8154  2.6135
 3373SOL    HW212562   5.017  10.342   9.442 -0.0150  3.1106 -0.9862
 3374SOL     OW12563   4.279   0.804   3.802 -0.3834 -0.2445  0.4300
 3374SOL    HW112564   4.306   0.826   3.891 -1.0116 -2.1690  1.1478
 3374SOL    HW212565   4.359   0.776   3.759 -0.1765  0.1280  0.5664
 3375SOL     OW12566   0.229   3.206   1.481 -0.0040 -0.1685 -0.5008
 3375SOL    HW112567   0.168   3.237   1.548  0.7355  0.5846 -0.1485
 3375SOL    HW212568   0.192   3.236   1.399 -0.9412 -1.1314 -0.4492
 3376SOL     OW12569  10.012   7.605   2.046 -0.5059  0.7187 -0.6009
 3376SOL    HW112570  10.058   7.668   2.101  1.1244 -1.2241  0.4134
 3376SOL    HW212571   9.962   7.551   2.108 -3.6021  2.1923 -1.6021
 3377SOL     OW12572   2.656   4.393   3.226  0.1023 -0.0723  0.3242
 3377SOL    HW112573   2.729   4.438   3.183  0.6308 -1.3346 -0.1490
 3377SOL    HW212574   2.685   4.302   3.233 -2.7977 -1.5198 -3.1656
 3378SOL     OW12575   7.504   3.094   9.870  0.0433 -0.2046  0.1727
 3378SOL    HW112576   7.503   3.011   9.918  2.6658 -0.5948 -0.3001
 3378SOL    HW212577   7.430   3.087   9.809 -0.7350 -1.4956  1.2067
 3379SOL     OW12578   9.469   7.848   2.404 -0.0529  0.1682 -0.4038
 3379SOL    HW112579   9.452   7.930   2.359  0.7683 -0.6519 -2.3176
 3379SOL    HW212580   9.401   7.788   2.373  0.1950 -0.2632 -0.1331
 3380SOL     OW12581   2.843   1.252   4.211 -0.7098  0.0591 -0.0343
 3380SOL    HW112582   2.768   1.312   4.220 -1.5992 -0.6218 -2.2437
 3380SOL    HW212583   2.834   1.191   4.284 -3.8540 -1.5486 -1.5868
 3381SOL     OW12584   6.610   0.132   7.165 -0.2799 -0.0517 -0.5392
 3381SOL    HW112585   6.631   0.041   7.142 -0.1265 -0.2158  0.2431
 3381SOL    HW212586   6.661   0.149   7.244 -2.2919 -0.1415  0.8494
 3382SOL     OW12587   8.496   8.348   5.448 -0.5944 -0.2609 -0.0700
 3382SOL    HW112588   8.554   8.408   5.497  1.1180  0.3708 -2.6782
 3382SOL    HW212589   8.550   8.272   5.430 -2.0946 -1.7329  1.3294
 3383SOL     OW12590   4.931   6.573   2.730 -0.2882  0.4446 -0.2018
 3383SOL    HW112591   5.014   6.577   2.683  0.9882 -2.7639  1.5061
 3383SOL    HW212592   4.950   6.610   2.816 -0.7792  0.1825  0.0244
 3384SOL     OW12593   2.633   3.862   4.657  0.7456  0.2787  0.2086
 3384SOL    HW112594   2.666   3.783   4.699  1.1912  0.1399 -0.3821
 3384SOL    HW212595   2.538   3.854   4.659  0.7366  0.4135  1.4364
 3385SOL     OW12596   2.044   3.533   6.048 -0.2919  0.4182  0.4679
 3385SOL    HW112597   2.018   3.560   5.960 -0.9167 -0.6616  0.2999
 3385SOL    HW212598   1.962   3.528   6.097 -0.0520  0.1041  0.8473
 3386SOL     OW12599   2.532   7.931   5.127 -0.5401  0.2610  0.2760
 3386SOL    HW112600   2.476   7.876   5.181  0.3226 -1.2461 -0.3156
 3386SOL    HW212601   2.525   8.018   5.166 -0.1897 -0.6962  2.6319
 3387SOL     OW12602   4.799   7.476   4.522 -1.0654 -0.2125  0.4815
 3387SOL    HW112603   4.706   7.493   4.538 -0.5620  1.4863  1.9463
 3387SOL    HW212604   4.844   7.543   4.572  0.9416  0.4828 -2.0493
 3388SOL     OW12605   3.722   3.009   1.052 -0.5266 -0.0308 -0.0374
 3388SOL    HW112606   3.738   3.059   0.972  0.0193  0.5520  0.4245
 3388SOL    HW212607   3.705   3.075   1.119  0.1928 -0.4557  0.5812
 3389SOL     OW12608   1.832   0.105   1.644  0.1068  0.3068 -0.2991
 3389SOL    HW112609   1.889   0.040   1.687 -1.5618 -1.2368 -0.3100
 3389SOL    HW212610   1.748   0.060   1.635 -0.5665  1.8344 -2.0590
 3390SOL     OW12611   1.432   4.015   7.980  0.6260 -0.0487  0.4521
 3390SOL    HW112612   1.399   3.975   8.061 -1.1627 -0.0979 -0.2564
 3390SOL    HW212613   1.444   4.107   8.003  0.7175 -0.1728  0.9312
 3391SOL     OW12614   8.856   9.953   6.195 -0.7786 -0.2435  0.1919
 3391SOL    HW112615   8.902  10.028   6.157 -0.3401 -0.0952  0.9861
 3391SOL    HW212616   8.825   9.903   6.120 -0.4646  0.3635 -0.3506
 3392SOL     OW12617   1.985   4.613   3.879  0.0934  0.0280 -0.1582
 3392SOL    HW112618   2.066   4.660   3.897  1.1195 -1.5939 -0.3366
 3392SOL    HW212619   1.988   4.537   3.937 -1.1927 -0.1916 -0.3546
 3393SOL     OW12620   5.537   6.543   8.759  0.1986 -0.4073  0.4042
 3393SOL    HW112621   5.509   6.631   8.782  0.7155 -0.7813  2.6825
 3393SOL    HW212622   5.523   6.537   8.664 -0.3416  1.9165  0.2863
 3394SOL     OW12623   4.333   7.626   7.710  0.4270  0.2886 -0.5988
 3394SOL    HW112624   4.372   7.609   7.625  0.2596 -0.5181 -0.5166
 3394SOL    HW212625   4.405   7.659   7.764  0.6830  0.1195 -0.8431
 3395SOL     OW12626   7.165   9.271   5.968 -0.2230 -0.3176  0.0800
 3395SOL    HW112627   7.102   9.274   6.040 -1.1806 -1.1523 -0.6977
 3395SOL    HW212628   7.166   9.360   5.933 -0.7344 -0.2220  0.3018
 3396SOL     OW12629   0.404   1.213   8.474 -0.1444 -0.2650 -0.5803
 3396SOL    HW112630   0.319   1.193   8.513 -0.0945  0.7735  0.0949
 3396SOL    HW212631   0.395   1.303   8.442  0.4805 -0.3919 -1.1312
 3397SOL     OW12632   6.060   6.463   7.994 -0.3558  0.1664  0.0244
 3397SOL    HW112633   5.987   6.420   8.038 -0.3439 -0.1353 -0.2405
 3397SOL    HW212634   6.025   6.546   7.963 -0.2926  0.4947  0.8227
 3398SOL     OW12635   9.131   7.158   3.099 -0.1185 -0.0235 -0.0446
 3398SOL    HW112636   9.090   7.146   3.013 -0.5809 -1.7706  0.3833
 3398SOL    HW212637   9.102   7.082   3.150  2.3404 -0.4961  0.7963
 3399SOL     OW12638   1.152   2.529   5.240  0.4244 -0.5986  0.0107
 3399SOL    HW112639   1.184   2.600   5.297 -1.5751  0.4669 -0.1000
 3399SOL    HW212640   1.219   2.521   5.172  1.5319 -0.0092  0.9960
 3400SOL     OW12641   9.846   6.808   4.615 -0.1687 -0.3394 -0.5311
 3400SOL    HW112642   9.763   6.762   4.628 -0.5857  0.7593  0.9556
 3400SOL    HW212643   9.827   6.900   4.634  1.7127 -0.2808  1.5381
 3401SOL     OW12644   3.397   1.924   0.740 -0.3688 -0.0906 -0.2390
 3401SOL    HW112645   3.492   1.935   0.734 -0.1867  0.0422  1.9925
 3401SOL    HW212646   3.362   2.011   0.721  0.0714  0.2636  0.5229
 3402SOL     OW12647   2.690   2.885   0.902  0.2003 -0.2214 -0.7583
 3402SOL    HW112648   2.680   2.887   0.807 -2.2350 -0.3744 -0.5554
 3402SOL    HW212649   2.710   2.976   0.926 -0.7713  0.1536 -1.3035
 3403SOL     OW12650   0.099   3.103   7.970 -0.8046 -0.1907 -0.0309
 3403SOL    HW112651   0.014   3.066   7.996 -0.0517 -0.8457  1.6792
 3403SOL    HW212652   0.080   3.195   7.950 -2.4228 -1.0053 -2.7276
 3404SOL     OW12653   4.085   3.550  10.232 -0.3858  0.3514 -0.0171
 3404SOL    HW112654   4.123   3.618  10.177 -1.4163  0.1883 -0.9516
 3404SOL    HW212655   4.036   3.598  10.299 -1.5522  0.5470 -0.9894
 3405SOL     OW12656   7.461   8.409   8.393 -0.1238 -0.4231  0.3869
 3405SOL    HW112657   7.380   8.459   8.398  1.6464  2.5827  1.8178
 3405SOL    HW212658   7.490   8.421   8.303 -0.4863 -0.1794  0.2982
 3406SOL     OW12659  10.292   3.299  10.438 -0.3234  0.0764  0.0202
 3406SOL    HW112660  10.337   3.340  10.511 -1.8397 -0.5838  1.4056
 3406SOL    HW212661  10.360   3.252  10.390  0.6859  0.4452  1.0737
 3407SOL     OW12662   8.068   8.230   4.364  0.0933 -0.7122  0.1266
 3407SOL    HW112663   8.157   8.257   4.390  0.2857 -0.2377 -0.9500
 3407SOL    HW212664   8.011   8.297   4.402  0.1648 -1.1526  1.0260
 3408SOL     OW12665   6.812   1.034   6.843 -0.5533 -0.2647  0.4009
 3408SOL    HW112666   6.723   1.071   6.841  0.1718  1.5928  0.8000
 3408SOL    HW212667   6.858   1.085   6.910  0.9239 -0.9497 -0.0521
 3409SOL     OW12668   8.846   2.558   8.840 -0.2705 -0.1970 -0.1832
 3409SOL    HW112669   8.824   2.512   8.760 -0.1889  0.5374 -0.6413
 3409SOL    HW212670   8.931   2.522   8.867  0.1929  0.2609 -0.9930
 3410SOL     OW12671   8.481   6.640   6.648 -0.4230 -0.2084  0.1634
 3410SOL    HW112672   8.501   6.732   6.629  0.7545 -0.2648  1.0034
 3410SOL    HW212673   8.490   6.595   6.564 -1.9713  0.5701 -0.4662
 3411SOL     OW12674   3.075   6.052   5.027 -0.0712 -0.2248 -0.1882
 3411SOL    HW112675   3.104   6.141   5.048  0.7825 -0.8670  1.5518
 3411SOL    HW212676   3.154   6.008   4.995  0.5033 -1.3741  2.5310
 3412SOL     OW12677   0.302   6.653   8.509  0.0999 -0.0951 -0.0586
 3412SOL    HW112678   0.390   6.679   8.536  1.3241 -4.1058  0.4340
 3412SOL    HW212679   0.248   6.668   8.587  0.0841  2.8076 -0.4954
 3413SOL     OW12680   1.528   6.642   8.592  0.0234 -0.0488 -0.4896
 3413SOL    HW112681   1.556   6.696   8.666  0.7772  0.2419 -0.9753
 3413SOL    HW212682   1.480   6.569   8.633  1.6652 -0.6886  0.4262
 3414SOL     OW12683   1.302   7.195   7.627  0.1596 -0.5464  0.1657
 3414SOL    HW112684   1.272   7.182   7.537 -0.4717 -0.7178  0.3943
 3414SOL    HW212685   1.377   7.137   7.636 -0.3684 -1.2633  0.0400
 3415SOL     OW12686   0.482   1.329   7.008 -0.1721  0.1718 -0.1337
 3415SOL    HW112687   0.411   1.392   7.000 -0.5575  0.0409  1.7535
 3415SOL    HW212688   0.550   1.375   7.057  0.4583 -0.1778 -0.6633
 3416SOL     OW12689   5.680   6.824   0.370  0.7096  0.8162 -0.0202
 3416SOL    HW112690   5.734   6.876   0.310  0.7416  0.7434 -0.0555
 3416SOL    HW212691   5.693   6.734   0.340  1.2598  0.7135  0.5149
 3417SOL     OW12692  10.353   6.287   7.149  0.3918 -0.6666  0.1226
 3417SOL    HW112693  10.434   6.266   7.196 -0.4113 -1.2628  1.2845
 3417SOL    HW212694  10.295   6.214   7.167 -0.5868 -0.0154 -0.2946
 3418SOL     OW12695   1.205   6.766   3.926 -0.3644 -0.1941 -0.5755
 3418SOL    HW112696   1.271   6.796   3.989 -1.2174 -0.8735  0.6752
 3418SOL    HW212697   1.121   6.781   3.969 -1.0742  0.8610 -2.2335
 3419SOL     OW12698   4.945   8.430   0.486  0.0200  0.6309 -0.0864
 3419SOL    HW112699   5.002   8.495   0.527 -1.2098  0.9041  1.2739
 3419SOL    HW212700   4.966   8.348   0.530  0.4172  0.4137 -0.6634
 3420SOL     OW12701   8.337   6.182  10.456  0.1821 -0.1695  0.3087
 3420SOL    HW112702   8.315   6.231  10.535 -0.7732  0.8872 -0.5673
 3420SOL    HW212703   8.300   6.095  10.470 -0.8130  0.2953  0.6417
 3421SOL     OW12704   9.532   9.529   7.845  0.3710  0.4213  1.2377
 3421SOL    HW112705   9.613   9.557   7.888  0.8146  1.0695  0.0425
 3421SOL    HW212706   9.553   9.444   7.807  0.0825  0.0034  1.9940
 3422SOL     OW12707   4.163   5.325   4.646  0.3346  0.2827  0.2447
 3422SOL    HW112708   4.123   5.326   4.560 -1.5573  1.3633  1.0732
 3422SOL    HW212709   4.157   5.233   4.675 -0.3687  0.1881 -0.1891
 3423SOL     OW12710   6.085   0.707   7.763 -0.6617  0.4355  0.1357
 3423SOL    HW112711   6.039   0.726   7.845 -0.9675  3.3435 -0.5775
 3423SOL    HW212712   6.144   0.782   7.751  0.8433 -0.8929 -1.3340
 3424SOL     OW12713   0.103   1.522   4.505 -0.4441  0.3994  0.6799
 3424SOL    HW112714   0.144   1.603   4.476 -0.0843 -0.7676 -2.5148
 3424SOL    HW212715   0.171   1.477   4.556 -0.3824  1.6893  1.7781
 3425SOL     OW12716   4.474   9.517   7.592  0.3110  0.5136  0.5342
 3425SOL    HW112717   4.432   9.531   7.677  1.4455 -1.1799  1.4209
 3425SOL    HW212718   4.444   9.430   7.565  1.4286  0.2544  0.0940
 3426SOL     OW12719   3.828   7.104   5.123  0.7233 -0.2605 -0.4579
 3426SOL    HW112720   3.804   7.022   5.081  0.8970  0.3588 -1.8260
 3426SOL    HW212721   3.812   7.089   5.216  1.3676 -2.0553 -0.5949
 3427SOL     OW12722   1.634   7.727   7.530  0.7940 -0.5571  0.4376
 3427SOL    HW112723   1.649   7.634   7.514 -0.2226 -0.7391  0.5043
 3427SOL    HW212724   1.602   7.732   7.620 -1.0810 -0.3834 -0.1897
 3428SOL     OW12725   8.501   5.347   6.658 -0.0167  0.2123  0.2358
 3428SOL    HW112726   8.438   5.376   6.593 -0.7434 -1.5420  0.1320
 3428SOL    HW212727   8.575   5.314   6.607 -0.0582 -0.0027  0.3141
 3429SOL     OW12728   1.995   1.828   5.113 -0.0299 -0.5505 -0.3797
 3429SOL    HW112729   2.015   1.745   5.069 -0.4112 -0.2659 -1.1175
 3429SOL    HW212730   2.022   1.895   5.049 -0.8596 -0.1300 -0.2949
 3430SOL     OW12731   4.160   2.721   3.572 -0.1986 -0.0933  0.1676
 3430SOL    HW112732   4.142   2.802   3.618  0.8065  1.3712 -1.8583
 3430SOL    HW212733   4.226   2.677   3.626  0.7568  1.4262  0.2835
 3431SOL     OW12734   4.111   0.809   7.080 -0.5066 -0.5414  0.3821
 3431SOL    HW112735   4.033   0.841   7.124 -0.0687  1.2867 -0.0783
 3431SOL    HW212736   4.183   0.831   7.139 -0.1806 -0.7197  0.0600
 3432SOL     OW12737   4.522  10.472   6.623  0.8012 -0.2297 -0.3197
 3432SOL    HW112738   4.432  10.443   6.612  0.2083  1.3475  0.0902
 3432SOL    HW212739   4.545  10.444   6.712  0.2307  0.5099  0.0777
 3433SOL     OW12740   5.186   0.091   9.157  0.2368 -0.6210 -1.0752
 3433SOL    HW112741   5.183   0.011   9.103 -0.9186  0.0408 -2.0424
 3433SOL    HW212742   5.101   0.132   9.143 -0.0079 -0.2904  1.1095
 3434SOL     OW12743   9.047   6.964   3.266  0.6654  0.2921  0.2151
 3434SOL    HW112744   9.139   6.976   3.288  0.7922  2.0830 -1.0512
 3434SOL    HW212745   9.013   6.907   3.334  2.5190  0.2609  1.1692
 3435SOL     OW12746   0.231   2.216   8.976  0.1757 -0.4501 -0.1752
 3435SOL    HW112747   0.300   2.151   8.958  0.0231 -1.1187  1.5036
 3435SOL    HW212748   0.152   2.177   8.940 -0.2578 -2.0966  2.3124
 3436SOL     OW12749   9.015   1.089   8.422  0.2035 -0.4589  0.6333
 3436SOL    HW112750   9.064   1.128   8.495 -0.2004 -1.1581  1.2948
 3436SOL    HW212751   8.925   1.086   8.453  0.1153 -1.2658  0.3230
 3437SOL     OW12752   9.646   5.735   8.914 -0.7589  0.9100  0.6808
 3437SOL    HW112753   9.738   5.734   8.889 -0.9024 -1.2043  0.0357
 3437SOL    HW212754   9.614   5.820   8.885  0.9022  1.5482  0.6164
 3438SOL     OW12755   4.815   1.005   2.026  0.2168 -0.1462 -0.1628
 3438SOL    HW112756   4.749   0.996   2.093  1.5072 -0.1880  1.1586
 3438SOL    HW212757   4.768   1.040   1.950 -1.0613  1.1729  1.1681
 3439SOL     OW12758   0.669   1.572   9.691  0.3559  0.7118 -0.0164
 3439SOL    HW112759   0.621   1.577   9.774 -1.0027  1.5118 -0.7990
 3439SOL    HW212760   0.625   1.502   9.643  0.4327  0.9640 -0.4598
 3440SOL     OW12761  10.324   2.654   8.066  0.0699  0.4647  0.2347
 3440SOL    HW112762  10.264   2.728   8.057 -1.0943 -0.4591  0.1803
 3440SOL    HW212763  10.380   2.676   8.140 -0.0214  1.5506 -0.0083
 3441SOL     OW12764   3.489   4.124   7.686  0.0010 -0.1527  0.4509
 3441SOL    HW112765   3.584   4.113   7.677  0.0010 -1.5941  1.7382
 3441SOL    HW212766   3.469   4.202   7.635  2.0479  0.8096  0.9878
 3442SOL     OW12767   7.986   9.929   9.303 -0.5134  0.4190  0.2844
 3442SOL    HW112768   7.927   9.972   9.241 -1.0052  0.3494  0.6967
 3442SOL    HW212769   8.012   9.998   9.363 -0.1335  0.4597  0.0767
 3443SOL     OW12770   3.224   4.337   0.771 -0.4184  0.1480  0.2572
 3443SOL    HW112771   3.310   4.295   0.763  0.4332  1.8515  0.0839
 3443SOL    HW212772   3.243   4.431   0.769 -1.9061  0.6723  3.6594
 3444SOL     OW12773   0.781   8.031   6.713  0.2164 -0.1972  0.3319
 3444SOL    HW112774   0.785   8.122   6.742  0.7016  0.4136 -1.4913
 3444SOL    HW212775   0.708   8.029   6.650  0.1217 -1.1034  0.4540
 3445SOL     OW12776   5.887   6.165   2.755 -0.3112 -0.1699 -0.3132
 3445SOL    HW112777   5.907   6.140   2.845 -0.6431  2.5965  0.5927
 3445SOL    HW212778   5.795   6.142   2.744 -0.1266 -1.0302 -0.1710
 3446SOL     OW12779   8.084   3.590   4.914 -0.0992  0.0526 -0.4417
 3446SOL    HW112780   8.077   3.545   4.999 -0.7286 -0.7119 -0.8886
 3446SOL    HW212781   8.151   3.541   4.867 -0.3197 -0.0175 -0.6837
 3447SOL     OW12782   1.718  10.022   6.732 -0.4335  0.3391 -0.4925
 3447SOL    HW112783   1.692  10.035   6.641 -2.7671  0.5181  0.1491
 3447SOL    HW212784   1.659   9.955   6.765  0.4101  0.2415  0.8865
 3448SOL     OW12785   7.860   1.972   1.518  0.4000 -0.5408 -0.2855
 3448SOL    HW112786   7.865   1.987   1.613  0.2487 -1.4616 -0.1230
 3448SOL    HW212787   7.949   1.989   1.487  0.3513  0.1914 -0.0486
 3449SOL     OW12788   7.643   4.945   6.238  0.1344 -0.1023 -0.7532
 3449SOL    HW112789   7.677   4.984   6.318  0.1347 -0.0949 -0.7567
 3449SOL    HW212790   7.628   5.020   6.180 -2.0603  0.1357  0.0429
 3450SOL     OW12791   6.962   2.858   8.100  0.0858 -0.2240  0.2965
 3450SOL    HW112792   7.003   2.939   8.130  0.2362 -0.0900 -0.2479
 3450SOL    HW212793   6.884   2.887   8.052  1.6239 -0.1908 -2.3555
 3451SOL     OW12794   5.050   1.942   0.998  0.1986 -0.3985 -0.0126
 3451SOL    HW112795   5.000   2.016   1.034  0.1844  0.4066 -1.5745
 3451SOL    HW212796   5.117   1.924   1.063  1.1072  1.9674 -0.1668
 3452SOL     OW12797   1.587   4.420   1.326 -0.1762  0.2678 -0.0343
 3452SOL    HW112798   1.572   4.428   1.232 -1.8248 -1.2396  0.0518
 3452SOL    HW212799   1.541   4.494   1.364 -0.8485  0.0003 -0.3170
 3453SOL     OW12800   1.730   0.965   7.551 -0.4433 -0.6773  0.4147
 3453SOL    HW112801   1.786   1.020   7.495 -0.9047 -1.6614 -1.0660
 3453SOL    HW212802   1.641   0.983   7.522 -0.6652 -1.5037  0.5550
 3454SOL     OW12803   5.390   3.630   8.416 -0.2628 -0.0354 -0.0818
 3454SOL    HW112804   5.314   3.650   8.470 -0.6966 -0.1026 -0.6542
 3454SOL    HW212805   5.355   3.580   8.342  0.0901  1.2375 -1.1636
 3455SOL     OW12806   1.221   3.415   1.191 -0.1183 -0.1970 -0.3926
 3455SOL    HW112807   1.239   3.480   1.124 -0.4779  0.9133  0.5635
 3455SOL    HW212808   1.287   3.431   1.258 -0.7872 -0.1989  0.2773
 3456SOL     OW12809   7.521   2.219   5.999  0.1626 -0.9075  0.3994
 3456SOL    HW112810   7.529   2.153   6.068 -2.5224 -2.1570 -0.3614
 3456SOL    HW212811   7.530   2.169   5.917  2.9139  0.4877 -0.2956
 3457SOL     OW12812   5.060   4.681   4.518  0.1333  0.5861  0.6079
 3457SOL    HW112813   5.056   4.776   4.503  0.8079  0.5683  0.2701
 3457SOL    HW212814   5.023   4.669   4.605 -2.1360  0.9006 -0.2512
 3458SOL     OW12815   4.683   0.480   2.705 -0.0767  1.2301  0.2798
 3458SOL    HW112816   4.594   0.486   2.670  0.3495  1.6515 -0.8075
 3458SOL    HW212817   4.700   0.387   2.712 -1.8362  1.0319  3.9337
 3459SOL     OW12818   9.384   2.897   4.356 -0.2991  0.3682 -0.0040
 3459SOL    HW112819   9.299   2.869   4.323 -0.9472 -0.3139  2.0858
 3459SOL    HW212820   9.388   2.990   4.334  0.1274 -0.3180 -3.4343
 3460SOL     OW12821   0.697   7.565   3.601  0.2002 -0.5173 -0.4547
 3460SOL    HW112822   0.776   7.541   3.648 -1.4338 -0.8006  2.3691
 3460SOL    HW212823   0.703   7.660   3.590 -0.1719 -0.1354  2.1014
 3461SOL     OW12824  10.000   6.139   9.209  0.3456 -0.0707 -0.8963
 3461SOL    HW112825  10.042   6.211   9.162 -1.6334  0.7722 -1.4694
 3461SOL    HW212826   9.919   6.123   9.161  0.3967 -2.2508 -0.3768
 3462SOL     OW12827   2.497   2.444   0.561  0.4602 -0.2469  0.3611
 3462SOL    HW112828   2.433   2.386   0.602 -1.8011  1.6724 -0.1948
 3462SOL    HW212829   2.550   2.387   0.505 -1.4290 -1.8268  0.0924
 3463SOL     OW12830   5.360   6.353   1.913  0.2020  0.6661  0.1750
 3463SOL    HW112831   5.437   6.408   1.925  0.3768  0.4912 -0.1429
 3463SOL    HW212832   5.349   6.347   1.818 -0.5251  1.1399  0.2179
 3464SOL     OW12833   6.919   4.651   4.844 -0.3291  0.0810  0.6537
 3464SOL    HW112834   6.851   4.610   4.790  0.2913  0.6871 -0.6171
 3464SOL    HW212835   6.969   4.577   4.879 -0.2019 -0.2981 -0.3132
 3465SOL     OW12836   7.640   1.886   5.382 -0.2490  0.9206  0.1454
 3465SOL    HW112837   7.553   1.894   5.342 -0.2540  0.0536 -0.0343
 3465SOL    HW212838   7.688   1.829   5.322  1.3063  3.4049 -1.1589
 3466SOL     OW12839   3.221   3.384   8.111  0.5040  0.5864 -0.0545
 3466SOL    HW112840   3.311   3.358   8.091  0.2292  0.8644 -1.7821
 3466SOL    HW212841   3.231   3.458   8.171  1.4251  0.4070  0.0258
 3467SOL     OW12842   9.529   8.996   1.347 -0.3180  0.3662 -0.2339
 3467SOL    HW112843   9.613   8.976   1.389  0.3606  0.5005 -1.4786
 3467SOL    HW212844   9.539   9.086   1.316 -0.5258  0.0301 -1.3073
 3468SOL     OW12845   4.197   4.672   5.229  0.2021 -0.1606  0.1530
 3468SOL    HW112846   4.122   4.629   5.270  0.6043 -1.3733 -0.3457
 3468SOL    HW212847   4.183   4.660   5.135  1.2547 -0.8479  0.0636
 3469SOL     OW12848   2.622   9.653   3.034  0.4638 -0.4246 -0.7621
 3469SOL    HW112849   2.595   9.666   2.944  0.9274 -0.2065 -0.8753
 3469SOL    HW212850   2.651   9.739   3.063  0.7014 -0.5780 -0.5406
 3470SOL     OW12851   5.758   8.666   4.526  0.1827 -0.5916 -0.2280
 3470SOL    HW112852   5.744   8.721   4.602  0.7738  0.1195 -0.6143
 3470SOL    HW212853   5.697   8.594   4.536  1.7380 -1.7050  2.0410
 3471SOL     OW12854   6.114   3.152   0.524 -0.7864 -0.5390  0.1084
 3471SOL    HW112855   6.123   3.143   0.619  0.6741  1.0074  0.1589
 3471SOL    HW212856   6.161   3.233   0.503 -2.1593 -0.1725 -1.7801
 3472SOL     OW12857   0.955   6.851   4.038  0.2363  0.3331  0.5631
 3472SOL    HW112858   0.871   6.879   4.002  1.1908  1.1799 -1.1425
 3472SOL    HW212859   0.937   6.766   4.078 -1.4302  0.5187  0.2529
 3473SOL     OW12860   5.199   8.400   6.683 -0.0916 -0.3561 -0.4312
 3473SOL    HW112861   5.262   8.374   6.616  2.3947  0.0166  1.5775
 3473SOL    HW212862   5.194   8.324   6.741 -0.2934  0.1671  0.2450
 3474SOL     OW12863   6.682  10.210   9.489  0.0042 -0.0841  0.4924
 3474SOL    HW112864   6.721  10.292   9.458  1.0917 -0.1475  1.6021
 3474SOL    HW212865   6.598  10.205   9.444  0.3398  1.1533 -0.3373
 3475SOL     OW12866   4.609   6.172   3.732 -0.2184 -0.8737 -0.0502
 3475SOL    HW112867   4.605   6.109   3.661 -0.0604  0.2631 -1.1025
 3475SOL    HW212868   4.616   6.257   3.689 -0.5276 -0.1139  1.3162
 3476SOL     OW12869   4.528   9.262   2.078  0.6484  0.7185 -0.4910
 3476SOL    HW112870   4.506   9.187   2.024 -0.6089 -0.0613  1.0250
 3476SOL    HW212871   4.443   9.294   2.110  1.3562  0.8198  1.3979
 3477SOL     OW12872   9.958   3.645   8.457 -0.1308  0.0437  0.0842
 3477SOL    HW112873   9.940   3.726   8.505  2.4721 -0.3019  1.8166
 3477SOL    HW212874   9.880   3.591   8.472 -1.1349  1.5147  0.4187
 3478SOL     OW12875  10.396   9.003   9.948  0.9600  0.6810 -0.7685
 3478SOL    HW112876  10.345   8.941   9.895  0.2754  1.1151 -0.6368
 3478SOL    HW212877  10.428   9.068   9.886  1.6857  0.2006 -0.9081
 3479SOL     OW12878  10.030   6.999   2.715  0.3606 -0.2205 -0.0066
 3479SOL    HW112879   9.969   7.017   2.643 -0.6604 -2.6462  0.1836
 3479SOL    HW212880  10.109   6.966   2.672  0.1655 -0.5928 -0.0845
 3480SOL     OW12881   7.748   3.903  10.130 -0.1791  0.3048  0.0989
 3480SOL    HW112882   7.838   3.874  10.138  0.0905  1.3174  0.8999
 3480SOL    HW212883   7.697   3.822  10.121  0.8284 -0.2491 -0.8267
 3481SOL     OW12884   9.691   0.965   5.799 -0.2775  0.1492 -0.0143
 3481SOL    HW112885   9.634   0.893   5.824 -0.6405  0.8669  1.3749
 3481SOL    HW212886   9.633   1.032   5.765 -0.1072  0.3113  0.0074
 3482SOL     OW12887   1.840   6.197   0.537  0.0320  0.1174  0.5818
 3482SOL    HW112888   1.851   6.124   0.476 -1.5704  1.2744 -1.1887
 3482SOL    HW212889   1.791   6.159   0.610 -0.7917 -0.6210 -0.3167
 3483SOL     OW12890   0.423   2.680   2.752  0.1300  0.1345  0.3418
 3483SOL    HW112891   0.339   2.714   2.721  0.0844 -0.7388 -0.5560
 3483SOL    HW212892   0.479   2.680   2.673  0.6200 -0.3266  0.6794
 3484SOL     OW12893   4.485   9.335  10.141 -0.3576  0.7562 -0.0345
 3484SOL    HW112894   4.431   9.394  10.089 -0.3831  0.0297 -0.8521
 3484SOL    HW212895   4.443   9.334  10.227  0.7756  3.4893  0.6669
 3485SOL     OW12896   9.024   5.637   5.149  0.6516  0.5940  0.0630
 3485SOL    HW112897   9.103   5.593   5.116  0.9591 -0.7754  2.4254
 3485SOL    HW212898   8.952   5.592   5.105  1.1073  1.7650 -2.0155
 3486SOL     OW12899   8.503   7.367   2.871 -0.5114  0.2647  0.3605
 3486SOL    HW112900   8.524   7.302   2.804 -1.3209 -0.1349  0.4816
 3486SOL    HW212901   8.499   7.317   2.953 -0.3181  0.6115  0.5860
 3487SOL     OW12902   6.720  10.448   3.222  0.2519 -0.1710  0.9123
 3487SOL    HW112903   6.640  10.440   3.274  0.8344 -1.0542  1.7182
 3487SOL    HW212904   6.770  10.517   3.265 -0.5991  1.2931 -0.3503
 3488SOL     OW12905   9.820   2.584   1.864  0.2362 -0.2492  0.5283
 3488SOL    HW112906   9.864   2.662   1.829 -1.1011  0.1798 -0.2396
 3488SOL    HW212907   9.892   2.521   1.879  0.9725 -0.2636 -2.4711
 3489SOL     OW12908  10.056   3.504   7.471  0.7394  0.2397  0.0775
 3489SOL    HW112909  10.000   3.580   7.455  0.8535  0.0065 -1.7039
 3489SOL    HW212910   9.999   3.441   7.515 -0.1489  0.3736 -0.8304
 3490SOL     OW12911   7.528   9.805   9.261  0.2934 -0.1662 -0.0863
 3490SOL    HW112912   7.505   9.719   9.225 -0.2753 -0.6162  1.2725
 3490SOL    HW212913   7.611   9.790   9.307  0.5037  0.1611 -0.3540
 3491SOL     OW12914   8.872   8.051   2.535  0.3928  0.2606  0.4349
 3491SOL    HW112915   8.891   8.121   2.473 -1.7842  0.9604  0.4812
 3491SOL    HW212916   8.858   7.974   2.480  0.8915  0.2949  0.2521
 3492SOL     OW12917   6.376   1.611   8.863  0.3792 -0.0832 -0.0112
 3492SOL    HW112918   6.401   1.595   8.954  2.6620 -1.8814 -0.8507
 3492SOL    HW212919   6.429   1.687   8.837 -0.3513  0.4961  0.1818
 3493SOL     OW12920   7.254   5.421   4.350  0.2253  0.1001  0.1080
 3493SOL    HW112921   7.183   5.370   4.312  0.3465 -0.8286  1.0416
 3493SOL    HW212922   7.328   5.360   4.352 -0.1402 -0.4118  2.9964
 3494SOL     OW12923   6.308   3.316   0.698  0.0268 -0.2729  0.6888
 3494SOL    HW112924   6.397   3.288   0.720  0.6030 -0.3425 -1.4849
 3494SOL    HW212925   6.260   3.312   0.781  1.5116 -2.2713  1.5401
 3495SOL     OW12926   4.293   2.867   5.858  0.3727  0.0946 -0.0300
 3495SOL    HW112927   4.208   2.836   5.889 -0.2269  1.4360 -0.2685
 3495SOL    HW212928   4.354   2.797   5.881 -0.8667 -1.1141 -0.2959
 3496SOL     OW12929   5.777   5.077   3.613  0.6612  0.1351 -0.2341
 3496SOL    HW112930   5.716   5.141   3.575 -2.0627 -1.6393  0.8051
 3496SOL    HW212931   5.808   5.119   3.694 -0.7861  0.3506  0.2455
 3497SOL     OW12932   2.078   4.801   9.217 -0.1160 -0.2139 -0.9789
 3497SOL    HW112933   1.989   4.825   9.243  0.0758 -0.7609  0.2742
 3497SOL    HW212934   2.084   4.824   9.124 -1.0311  1.3379 -0.6779
 3498SOL     OW12935   6.432   6.707   4.062  0.2623 -0.6005 -0.2525
 3498SOL    HW112936   6.499   6.675   4.122  0.8190  1.4327  0.2758
 3498SOL    HW212937   6.409   6.793   4.095  0.3754  0.4868 -2.7543
 3499SOL     OW12938   6.316   5.633   9.660  0.3242  0.7993 -0.2084
 3499SOL    HW112939   6.245   5.673   9.610  0.4370  1.2396 -0.0226
 3499SOL    HW212940   6.355   5.570   9.600  0.8728  1.7820 -0.9053
 3500SOL     OW12941   1.741   8.428   3.696  0.0832  0.3822 -0.0284
 3500SOL    HW112942   1.694   8.395   3.619 -1.7368  0.1924  1.1070
 3500SOL    HW212943   1.796   8.498   3.662  2.6397 -2.4309 -2.2109
 3501SOL     OW12944   5.791   0.634   5.264 -0.0510  0.1933 -0.1269
 3501SOL    HW112945   5.769   0.585   5.185 -0.1740  0.8264 -0.4947
 3501SOL    HW212946   5.827   0.717   5.231 -1.0070  0.8684  0.4613
 3502SOL     OW12947   6.632   7.184   0.422  0.4827 -0.0806  0.1204
 3502SOL    HW112948   6.715   7.181   0.471  0.6273  2.1453  0.1268
 3502SOL    HW212949   6.636   7.109   0.364  2.0627 -0.6001  0.8361
 3503SOL     OW12950   2.359   8.050   3.383 -0.2541 -0.1580 -0.0494
 3503SOL    HW112951   2.333   8.039   3.475 -0.2293 -0.9010 -0.1243
 3503SOL    HW212952   2.314   8.130   3.355 -1.6078 -0.8112  0.1364
 3504SOL     OW12953   1.817   2.577   4.887  0.0664 -0.1933 -0.0056
 3504SOL    HW112954   1.834   2.488   4.854 -1.2591 -0.4149 -0.1264
 3504SOL    HW212955   1.868   2.634   4.829  1.5307 -0.9077  0.5293
 3505SOL     OW12956   0.496   4.494   5.465  0.0326  0.2290 -0.4429
 3505SOL    HW112957   0.451   4.495   5.549  1.0278 -2.0849  0.2085
 3505SOL    HW212958   0.437   4.449   5.406  0.8238 -1.5856  0.0661
 3506SOL     OW12959   1.509   7.736  10.335 -0.2211  0.0568  0.3257
 3506SOL    HW112960   1.512   7.683  10.415 -1.4488 -0.4842  0.0408
 3506SOL    HW212961   1.445   7.692  10.279  1.3639 -0.1864 -1.4154
 3507SOL     OW12962   6.475   9.205   0.807 -0.3947  0.5439 -0.2008
 3507SOL    HW112963   6.453   9.275   0.868  0.1317  1.3284 -0.8853
 3507SOL    HW212964   6.392   9.161   0.790 -0.4659 -0.0629  1.4925
 3508SOL     OW12965   6.828   4.173   5.977  0.8144 -0.5437 -0.4674
 3508SOL    HW112966   6.757   4.234   5.956  2.5062  1.9582  0.6854
 3508SOL    HW212967   6.891   4.184   5.905  2.0598  0.6668  0.7526
 3509SOL     OW12968   7.484   3.540   1.843  0.0827  0.1295  0.2833
 3509SOL    HW112969   7.539   3.604   1.799  0.7832  0.4579  1.5578
 3509SOL    HW212970   7.406   3.588   1.869 -0.1985  0.0088 -0.3363
 3510SOL     OW12971   5.057   4.205   3.585  0.3691  0.5437  0.0068
 3510SOL    HW112972   5.066   4.300   3.588  0.3827  0.5330  0.3637
 3510SOL    HW212973   4.977   4.189   3.535 -0.0811  0.7674  0.6450
 3511SOL     OW12974   3.396   6.818   1.575  0.2204  0.1042  0.2527
 3511SOL    HW112975   3.430   6.905   1.598  0.1765  0.2946 -0.3816
 3511SOL    HW212976   3.392   6.818   1.479 -0.5396 -0.3091  0.2727
 3512SOL     OW12977   9.155   3.120   4.780  0.5258 -0.1048  0.8644
 3512SOL    HW112978   9.075   3.072   4.801 -0.8241  0.6168 -2.1933
 3512SOL    HW212979   9.199   3.067   4.714  1.0292  0.9448  0.3352
 3513SOL     OW12980   2.648   7.215   2.508  0.4544 -0.6356 -0.6863
 3513SOL    HW112981   2.622   7.130   2.542 -0.5471  0.1714  0.6681
 3513SOL    HW212982   2.727   7.198   2.457 -0.3977 -2.5371 -1.4410
 3514SOL     OW12983   9.335   3.583   0.620  0.2102  0.1801  0.4276
 3514SOL    HW112984   9.335   3.650   0.552 -1.9767 -1.4125 -1.2686
 3514SOL    HW212985   9.284   3.622   0.691  0.9006  1.1361  0.4262
 3515SOL     OW12986   2.055   9.541   9.877 -0.6344 -0.2468 -0.3418
 3515SOL    HW112987   1.974   9.522   9.830 -1.2320  0.5451  0.3536
 3515SOL    HW212988   2.029   9.545   9.969  0.2794 -0.4379 -0.0689
 3516SOL     OW12989   8.435   5.515   7.029 -0.3817  0.5085 -0.2230
 3516SOL    HW112990   8.498   5.533   7.098  0.2580 -1.8256 -0.1053
 3516SOL    HW212991   8.474   5.552   6.950  1.2638 -1.0078 -0.1729
 3517SOL     OW12992   3.868   4.178   5.500 -0.3331  0.0585  0.6461
 3517SOL    HW112993   3.848   4.271   5.494 -3.9024 -0.5559  0.8774
 3517SOL    HW212994   3.844   4.143   5.414  2.8503 -0.4796 -0.1551
 3518SOL     OW12995   6.853   3.665  10.327 -0.0424  0.0906 -0.1945
 3518SOL    HW112996   6.923   3.627  10.380 -1.4354 -0.1032  1.5839
 3518SOL    HW212997   6.831   3.747  10.372 -0.4627  0.5141 -1.1519
 3519SOL     OW12998   8.131   9.496   3.729 -0.6429 -0.6322 -0.5615
 3519SOL    HW112999   8.069   9.558   3.769  0.1314 -0.2916  0.1344
 3519SOL    HW213000   8.213   9.511   3.775  0.0530 -0.8516 -1.7039
 3520SOL     OW13001   3.533   7.513   4.467  0.4036  0.1040 -0.0675
 3520SOL    HW113002   3.464   7.547   4.410  0.9806  0.9564 -0.2790
 3520SOL    HW213003   3.510   7.422   4.481 -0.2337  0.1199 -0.9381
 3521SOL     OW13004  10.097   9.081   5.440  0.0058 -0.5032 -0.2882
 3521SOL    HW113005  10.085   8.991   5.409 -0.7601 -0.3566 -0.4331
 3521SOL    HW213006  10.145   9.071   5.522  1.0500 -0.9605 -0.9311
 3522SOL     OW13007   2.624   2.363   2.101  0.0417 -0.0125  0.1559
 3522SOL    HW113008   2.640   2.446   2.056 -1.2224 -0.1250 -0.5353
 3522SOL    HW213009   2.709   2.341   2.140 -0.1439  2.8374  2.4930
 3523SOL     OW13010   3.502   5.672   3.437 -0.6671  0.3755  0.2183
 3523SOL    HW113011   3.592   5.675   3.406 -0.4117 -0.6961  0.8088
 3523SOL    HW213012   3.475   5.763   3.441  0.7891  0.7917  1.1648
 3524SOL     OW13013  10.141   2.851   4.603  0.2612  0.0298  0.2517
 3524SOL    HW113014  10.064   2.795   4.612 -0.6881  0.9404 -1.7506
 3524SOL    HW213015  10.202   2.801   4.549  0.9665 -0.5161  1.4900
 3525SOL     OW13016   9.098   2.815   1.520 -0.0148  0.1205  0.6674
 3525SOL    HW113017   9.124   2.759   1.593  0.7987 -0.8992 -0.3637
 3525SOL    HW213018   9.036   2.761   1.470 -0.5155  0.7772  0.5746
 3526SOL     OW13019   9.093   2.335   1.208  0.0637 -0.7345 -0.1286
 3526SOL    HW113020   9.161   2.353   1.273 -1.0592  0.6186  0.7374
 3526SOL    HW213021   9.028   2.284   1.256 -0.5452 -0.1441 -0.3147
 3527SOL     OW13022   6.247   2.077   2.497  0.4861 -0.0964 -0.1745
 3527SOL    HW113023   6.341   2.080   2.513  0.4674  1.3384 -0.2080
 3527SOL    HW213024   6.214   2.014   2.561  1.4426 -0.4728 -0.0377
 3528SOL     OW13025   7.154   5.268   3.088 -0.2189 -0.2943 -0.1522
 3528SOL    HW113026   7.095   5.254   3.162 -2.4158  0.5419 -1.6550
 3528SOL    HW213027   7.198   5.351   3.108 -0.3043 -0.3985  0.4987
 3529SOL     OW13028   2.179   8.380   4.109  0.0824  0.5063  0.0108
 3529SOL    HW113029   2.206   8.432   4.033 -0.7684  2.1799  0.8158
 3529SOL    HW213030   2.173   8.443   4.180  1.0043 -1.0500  1.5371
 3530SOL     OW13031   7.899   1.092   7.576 -0.1267 -0.1938 -0.1029
 3530SOL    HW113032   7.920   1.083   7.669  0.3182 -0.9498 -0.2633
 3530SOL    HW213033   7.970   1.045   7.531  0.5209  1.4852 -0.9113
 3531SOL     OW13034   9.062   0.166   6.412 -0.1128  0.4043 -0.7498
 3531SOL    HW113035   9.015   0.209   6.340  0.0550  0.5448 -0.7767
 3531SOL    HW213036   9.020   0.081   6.420 -0.9171  0.8371 -0.2316
 3532SOL     OW13037   0.864   2.291   4.154 -0.1732 -0.1013 -0.5669
 3532SOL    HW113038   0.855   2.324   4.243 -1.1087 -1.6920 -0.0151
 3532SOL    HW213039   0.883   2.368   4.101  4.0064  0.4877  1.4454
 3533SOL     OW13040   2.270   0.637   4.351  0.2264  0.2824 -0.6309
 3533SOL    HW113041   2.348   0.605   4.305  1.4145  2.2816 -0.1696
 3533SOL    HW213042   2.253   0.723   4.313  0.8788  1.7587  2.0884
 3534SOL     OW13043   0.270   2.194   3.136  0.3298 -0.3964 -0.0702
 3534SOL    HW113044   0.332   2.129   3.102  0.3004 -0.2323 -0.4412
 3534SOL    HW213045   0.225   2.149   3.208  0.2265 -0.8282 -0.4024
 3535SOL     OW13046   6.010   7.409   9.574 -0.3760 -0.0316  0.4361
 3535SOL    HW113047   6.074   7.358   9.623  1.1649  2.9649  1.8063
 3535SOL    HW213048   6.047   7.419   9.487  0.8797  1.3016  1.0893
 3536SOL     OW13049   3.257   5.517   6.760 -0.0771 -0.1236  0.3848
 3536SOL    HW113050   3.163   5.507   6.746 -0.4640  2.8806  0.3767
 3536SOL    HW213051   3.276   5.455   6.831 -1.4917 -2.6044 -1.2345
 3537SOL     OW13052   8.619   5.919   1.624  0.3733  0.2442  0.0189
 3537SOL    HW113053   8.628   5.882   1.536 -0.4360  1.5626 -0.6476
 3537SOL    HW213054   8.663   6.004   1.620 -1.9668  1.5343  0.0603
 3538SOL     OW13055   3.273   1.122   5.110 -0.6824 -0.1659 -0.5523
 3538SOL    HW113056   3.298   1.055   5.174 -1.5358 -1.2382 -1.3083
 3538SOL    HW213057   3.328   1.198   5.132  0.0214 -0.9707  0.5707
 3539SOL     OW13058   6.552   8.773  10.003  0.3562 -0.2026 -0.1702
 3539SOL    HW113059   6.598   8.742  10.081  1.1859  2.1652  0.3771
 3539SOL    HW213060   6.622   8.794   9.941 -0.0094  1.6419 -0.0352
 3540SOL     OW13061   2.779   9.112   1.272 -0.2429  0.0585  0.3922
 3540SOL    HW113062   2.738   9.128   1.187 -0.6060 -0.4226  0.4703
 3540SOL    HW213063   2.846   9.046   1.253  1.5418  1.8865 -0.0124
 3541SOL     OW13064   7.064   6.679   4.622  0.8583  0.2159 -0.1697
 3541SOL    HW113065   7.062   6.606   4.684  1.0624 -0.2123 -0.6647
 3541SOL    HW213066   6.980   6.724   4.637  0.7784 -0.0497  0.2134
 3542SOL     OW13067   3.878   1.341   0.612  0.7146 -0.2435 -0.0993
 3542SOL    HW113068   3.884   1.246   0.612 -1.0092 -0.3918  0.1645
 3542SOL    HW213069   3.784   1.359   0.600  0.7498  1.3948  1.6469
 3543SOL     OW13070   5.928   8.197   4.725 -0.2915  0.1563 -0.6280
 3543SOL    HW113071   5.837   8.196   4.755  0.0521  0.1057  0.4717
 3543SOL    HW213072   5.950   8.289   4.717 -0.2648  0.1783 -0.3145
 3544SOL     OW13073   0.841   3.987   9.915 -0.5214  0.4691  0.1537
 3544SOL    HW113074   0.847   3.901   9.958 -0.2512  0.8653  0.9305
 3544SOL    HW213075   0.920   3.992   9.861 -1.2674 -0.3763 -1.0766
 3545SOL     OW13076   6.728  10.384   3.585 -0.3887  0.0837  0.1280
 3545SOL    HW113077   6.741  10.290   3.592 -3.5855 -0.4387  0.6434
 3545SOL    HW213078   6.641  10.393   3.545 -0.2456  2.8057  0.2579
 3546SOL     OW13079   0.765   3.977   5.033 -0.0259 -0.0297 -0.3441
 3546SOL    HW113080   0.733   4.045   5.091  1.9053  0.6385  0.0116
 3546SOL    HW213081   0.697   3.968   4.966 -1.4944  0.3917  1.0382
 3547SOL     OW13082   5.696   2.231   2.913 -0.4316 -0.1035  0.2648
 3547SOL    HW113083   5.616   2.229   2.862 -0.7230  0.3235  0.6873
 3547SOL    HW213084   5.678   2.175   2.989 -0.2080 -0.2815  0.1862
 3548SOL     OW13085   7.826  10.095   2.698 -0.4907 -0.0686  0.6091
 3548SOL    HW113086   7.823  10.020   2.638  0.0011  0.7297 -0.4296
 3548SOL    HW213087   7.734  10.113   2.718 -0.7008  0.0838 -0.4529
 3549SOL     OW13088   3.665   8.713   4.841  0.1357 -0.2876  0.3538
 3549SOL    HW113089   3.626   8.676   4.920 -0.2673 -1.4611 -0.3618
 3549SOL    HW213090   3.617   8.795   4.827 -1.0358 -0.9481  0.3442
 3550SOL     OW13091   8.133   9.197   7.739  0.3208  1.1402  0.2079
 3550SOL    HW113092   8.167   9.145   7.812 -0.5189  0.0343 -0.1726
 3550SOL    HW213093   8.039   9.182   7.740  0.2550  1.3984 -0.8753
 3551SOL     OW13094   8.427   6.840   2.523 -0.4577  0.3082  0.0656
 3551SOL    HW113095   8.339   6.805   2.512  0.3247 -1.3440 -1.2231
 3551SOL    HW213096   8.469   6.782   2.586 -0.0844  0.7261  0.2145
 3552SOL     OW13097   8.420   9.157   9.513  0.0968  0.7258  0.0987
 3552SOL    HW113098   8.429   9.240   9.561  0.1250  1.7644 -1.6273
 3552SOL    HW213099   8.439   9.179   9.422  0.1138 -1.1974 -0.4130
 3553SOL     OW13100   1.036   6.704   7.349 -0.5578 -0.0597  0.5378
 3553SOL    HW113101   1.063   6.696   7.257  2.3409 -1.1881  1.3627
 3553SOL    HW213102   0.951   6.747   7.345 -0.3490  0.3382 -2.6493
 3554SOL     OW13103   5.227   7.511   1.192  0.4133  0.3301  0.0060
 3554SOL    HW113104   5.306   7.460   1.208  0.5285  0.6581  0.5096
 3554SOL    HW213105   5.214   7.505   1.098  0.2396 -0.8889  0.0945
 3555SOL     OW13106   1.061   4.332   9.365 -0.2567 -0.4950  0.1078
 3555SOL    HW113107   1.074   4.418   9.324 -2.6999  0.2929  0.7500
 3555SOL    HW213108   1.002   4.286   9.305 -0.4644 -0.9632  0.6618
 3556SOL     OW13109   3.033  10.054   9.105 -0.8083 -0.0077 -0.0058
 3556SOL    HW113110   3.122  10.069   9.137 -0.3276  1.6651 -1.9427
 3556SOL    HW213111   3.026   9.959   9.096  0.0505 -0.3225  2.0187
 3557SOL     OW13112   4.758   8.888   8.347  0.6680 -0.1224 -0.8867
 3557SOL    HW113113   4.707   8.865   8.269  0.2403  0.7863 -0.8940
 3557SOL    HW213114   4.839   8.838   8.339 -0.2781 -1.7561 -0.7886
 3558SOL     OW13115   8.987   5.520   0.185 -0.1107  0.4099  0.2171
 3558SOL    HW113116   9.060   5.460   0.171  0.3521  1.0773 -0.2877
 3558SOL    HW213117   8.955   5.541   0.097 -0.9246  0.1124  0.4303
 3559SOL     OW13118   2.641   9.643   1.974  0.0193 -0.4167 -0.1188
 3559SOL    HW113119   2.643   9.581   2.046  1.2018  0.0297  0.2482
 3559SOL    HW213120   2.724   9.690   1.980 -0.2265  0.2014 -1.2662
 3560SOL     OW13121   3.195   6.678   9.291  0.1294  0.0874  0.0796
 3560SOL    HW113122   3.161   6.740   9.355 -0.0861 -1.5106  1.5773
 3560SOL    HW213123   3.214   6.598   9.341  1.2881 -0.7722 -1.5976
 3561SOL     OW13124  10.258   4.912   5.388 -0.0144 -0.1425 -0.1736
 3561SOL    HW113125  10.298   4.853   5.324  1.2125 -2.1369  2.2680
 3561SOL    HW213126  10.166   4.914   5.364  0.1919 -1.8387 -1.2955
 3562SOL     OW13127   7.983   3.788   7.408  0.2539  0.0396  0.4411
 3562SOL    HW113128   7.932   3.708   7.418 -0.9103  0.8381  1.0929
 3562SOL    HW213129   8.033   3.775   7.327  0.1979 -1.3866  0.6179
 3563SOL     OW13130   8.992   6.641   4.655  0.9429 -0.1181 -0.5565
 3563SOL    HW113131   8.904   6.681   4.654  1.7642  1.8077 -1.4846
 3563SOL    HW213132   9.051   6.713   4.632  2.7596 -1.4411 -0.2463
 3564SOL     OW13133   9.260   8.890   5.028 -0.6812 -0.8014  0.0921
 3564SOL    HW113134   9.182   8.864   5.077 -1.3041 -0.2584 -0.5951
 3564SOL    HW213135   9.228   8.950   4.962  0.2293 -1.1004 -0.6418
 3565SOL     OW13136   4.539   8.208   7.653  0.2788  0.4305 -0.3810
 3565SOL    HW113137   4.480   8.251   7.714  0.5790  1.2317 -0.6354
 3565SOL    HW213138   4.500   8.122   7.637 -0.1690  0.4885  0.3795
 3566SOL     OW13139   6.311   0.787   6.183  0.0947  0.0902 -0.0583
 3566SOL    HW113140   6.231   0.833   6.211 -0.2178  1.0540 -2.3153
 3566SOL    HW213141   6.346   0.749   6.263 -3.4953 -1.7844  0.8432
 3567SOL     OW13142   6.601   6.403   5.507 -0.0911 -0.0388 -0.2799
 3567SOL    HW113143   6.623   6.344   5.579 -2.7104 -1.5887 -0.6345
 3567SOL    HW213144   6.528   6.456   5.540 -0.5163  0.0846 -1.3652
 3568SOL     OW13145   0.694   8.417   8.633 -0.2234 -0.3559  0.4601
 3568SOL    HW113146   0.674   8.391   8.543  2.1127 -0.5856 -0.0440
 3568SOL    HW213147   0.710   8.335   8.679  0.3495 -0.1535  0.6269
 3569SOL     OW13148   8.672   0.763   8.878  0.0162 -0.3372 -0.0784
 3569SOL    HW113149   8.594   0.762   8.822 -0.2085 -1.8079  0.2236
 3569SOL    HW213150   8.683   0.855   8.901 -0.9877  0.0439 -1.0087
 3570SOL     OW13151   4.523   5.648   5.595 -0.1436 -0.2778 -0.1448
 3570SOL    HW113152   4.576   5.573   5.566  0.3794  0.1041 -0.1992
 3570SOL    HW213153   4.583   5.722   5.590 -0.5149  0.0628  0.3848
 3571SOL     OW13154   3.946   7.465   4.594  0.1121 -0.3282  0.1340
 3571SOL    HW113155   4.002   7.537   4.566 -1.4216  0.4820 -1.0008
 3571SOL    HW213156   4.007   7.394   4.616  1.6822  1.3334  1.4867
 3572SOL     OW13157  10.256   8.351   3.262  0.2411 -0.6351 -0.4811
 3572SOL    HW113158  10.227   8.422   3.206  0.1623  0.1296  0.5051
 3572SOL    HW213159  10.338   8.382   3.301 -0.4420 -0.5194  0.9514
 3573SOL     OW13160   3.623   2.914  10.250  0.3547 -0.3577  0.0806
 3573SOL    HW113161   3.650   2.822  10.259  0.7886 -0.3160 -0.7201
 3573SOL    HW213162   3.540   2.911  10.203  0.1984 -0.3538  0.3531
 3574SOL     OW13163   7.401   8.246  10.082  0.2095  0.7225  0.1027
 3574SOL    HW113164   7.359   8.213  10.003  1.1887 -0.1548 -0.0625
 3574SOL    HW213165   7.493   8.224  10.072  0.1795 -0.4594  2.0185
 3575SOL     OW13166   5.032   0.914   4.088 -0.1605  0.6316 -0.4586
 3575SOL    HW113167   5.054   0.881   4.175  2.7758  1.2270 -0.8673
 3575SOL    HW213168   4.990   0.840   4.045 -1.3339  0.2114  1.3142
 3576SOL     OW13169   4.074   0.696   7.796  0.0314 -0.2795  0.3930
 3576SOL    HW113170   4.046   0.768   7.740 -0.4110 -0.2179  0.6810
 3576SOL    HW213171   3.993   0.667   7.839  0.1434 -1.1825  0.0103
 3577SOL     OW13172   3.863   3.422   9.835 -0.4548  0.1536 -0.9496
 3577SOL    HW113173   3.787   3.479   9.835  0.6714  1.7642  0.2561
 3577SOL    HW213174   3.899   3.428   9.747  0.4253  2.5104 -0.5046
 3578SOL     OW13175   2.654   9.545   5.526 -0.3895  0.1114 -0.7579
 3578SOL    HW113176   2.650   9.598   5.606  0.4022 -0.6536 -0.1973
 3578SOL    HW213177   2.743   9.557   5.494 -0.0283 -1.2931 -0.3218
 3579SOL     OW13178   4.304   7.851  10.430  0.6416  0.2773  0.2037
 3579SOL    HW113179   4.252   7.890  10.359  1.6506  1.2545 -0.0202
 3579SOL    HW213180   4.241   7.795  10.477  0.2203 -1.4465 -2.1989
 3580SOL     OW13181   8.585   6.593   3.847 -0.2840 -0.3371 -0.3683
 3580SOL    HW113182   8.508   6.550   3.812 -1.6531  0.6501  1.2914
 3580SOL    HW213183   8.626   6.527   3.903 -0.6939 -0.4346 -0.1810
 3581SOL     OW13184   5.807   4.783   1.303 -0.2273  0.5878  0.3092
 3581SOL    HW113185   5.764   4.718   1.359 -0.3044 -0.6467 -1.0968
 3581SOL    HW213186   5.898   4.783   1.331 -0.1341 -0.4800  0.0417
 3582SOL     OW13187   7.548   0.061   2.728  0.2139 -0.3510 -0.7009
 3582SOL    HW113188   7.560   0.044   2.635  0.1843  1.1612 -1.0063
 3582SOL    HW213189   7.624   0.112   2.754 -2.5422  4.9118 -1.4981
 3583SOL     OW13190   1.691  10.255   9.339  0.8293  0.0461 -0.0913
 3583SOL    HW113191   1.650  10.181   9.383  1.5001  0.1334  0.7254
 3583SOL    HW213192   1.620  10.300   9.294  0.6079 -1.8860 -1.8222
 3584SOL     OW13193   4.941   5.921   4.022 -0.0313  0.1515 -0.4986
 3584SOL    HW113194   4.885   5.983   3.976  0.4436  0.8312 -0.1696
 3584SOL    HW213195   4.939   5.842   3.967  0.7533  1.0388 -1.8565
 3585SOL     OW13196   0.497   0.185   2.895 -0.0497 -0.8235  0.1186
 3585SOL    HW113197   0.416   0.174   2.944  0.0031  2.0313  1.0602
 3585SOL    HW213198   0.492   0.274   2.861  1.7940 -1.3020 -1.5767
 3586SOL     OW13199   4.895   0.978   9.379 -0.2800 -0.3493  0.4436
 3586SOL    HW113200   4.948   0.899   9.365 -3.5987 -2.8046  0.4933
 3586SOL    HW213201   4.897   1.024   9.296  0.2709 -1.4778 -0.1891
 3587SOL     OW13202   0.653   8.768   2.599  0.4471  0.0633 -0.4070
 3587SOL    HW113203   0.635   8.825   2.674  2.2177 -3.2059  2.8731
 3587SOL    HW213204   0.744   8.784   2.578  1.3116 -2.0328  1.2890
 3588SOL     OW13205   6.497   9.902   6.676  0.0114  0.1678  0.0632
 3588SOL    HW113206   6.433   9.939   6.616 -0.6070  0.0257  0.6129
 3588SOL    HW213207   6.520   9.818   6.637 -0.1361  0.2231 -0.1457
 3589SOL     OW13208   1.445   6.979   7.092  0.0764  0.2257 -0.3424
 3589SOL    HW113209   1.429   6.890   7.122 -1.8480  0.4463 -0.5708
 3589SOL    HW213210   1.369   7.000   7.037  0.9280  1.6891 -1.0299
 3590SOL     OW13211   2.965   1.570   3.031 -0.1652  0.0875  0.7447
 3590SOL    HW113212   2.972   1.530   2.945  0.1109  1.8322 -0.0806
 3590SOL    HW213213   3.032   1.525   3.083 -0.4069 -1.0542  0.1111
 3591SOL     OW13214   0.662   3.445   3.026 -0.2760  0.3141  0.0329
 3591SOL    HW113215   0.742   3.483   2.990  0.0516  0.7167  1.1505
 3591SOL    HW213216   0.684   3.353   3.041 -0.2126  0.2889 -0.2159
 3592SOL     OW13217   0.565   1.481   5.351 -0.7676  0.3823  0.1238
 3592SOL    HW113218   0.503   1.542   5.310  0.4369  0.5265 -1.5522
 3592SOL    HW213219   0.559   1.401   5.299 -0.5228 -0.0856  0.7963
 3593SOL     OW13220   6.029   2.378   5.372 -0.2267 -0.0267 -0.1084
 3593SOL    HW113221   6.032   2.310   5.305 -2.3000  0.7186 -1.0337
 3593SOL    HW213222   6.112   2.425   5.363 -0.1506 -0.4100 -1.6461
 3594SOL     OW13223   0.400   7.375   1.242  0.3784  0.0595  0.2989
 3594SOL    HW113224   0.448   7.439   1.190 -0.3257  1.1866  0.9812
 3594SOL    HW213225   0.374   7.307   1.180  1.8383  0.0091 -0.2907
 3595SOL     OW13226   7.196   3.647   6.649 -0.3125 -0.3339 -1.0526
 3595SOL    HW113227   7.134   3.706   6.607  0.0397  1.0100  0.2451
 3595SOL    HW213228   7.279   3.694   6.649  1.0718 -2.4702 -3.6125
 3596SOL     OW13229   4.310  10.404   7.104  0.2240  0.1347 -0.5113
 3596SOL    HW113230   4.276  10.326   7.148  0.2223  0.2958 -0.2264
 3596SOL    HW213231   4.271  10.401   7.017  1.9795 -1.4055 -1.3193
 3597SOL     OW13232   3.234   2.636   1.358  0.1252 -0.2669  0.1585
 3597SOL    HW113233   3.277   2.551   1.361 -2.1936 -1.5928 -1.0243
 3597SOL    HW213234   3.288   2.688   1.298  0.5340 -1.5909 -0.6734
 3598SOL     OW13235   6.467   0.278   3.309  0.0526  0.4102  0.1738
 3598SOL    HW113236   6.524   0.243   3.378  1.9599  0.5073 -1.2597
 3598SOL    HW213237   6.474   0.214   3.238 -1.3287  0.6458 -0.1926
 3599SOL     OW13238   5.568   6.141   8.265 -0.1120 -0.0215 -0.6883
 3599SOL    HW113239   5.625   6.070   8.235  2.0976  1.5381 -0.3429
 3599SOL    HW213240   5.497   6.142   8.200  0.1543 -2.0522 -1.0983
 3600SOL     OW13241   9.055   9.609   2.398  0.0025  0.2646  0.0786
 3600SOL    HW113242   9.001   9.679   2.361  1.8280  0.2205 -3.0153
 3600SOL    HW213243   9.004   9.529   2.382 -0.6706  0.5648  0.6760
 3601SOL     OW13244   9.407   5.507   6.290 -0.5449 -0.1432  0.2936
 3601SOL    HW113245   9.443   5.595   6.279  0.6642 -0.6688 -0.1381
 3601SOL    HW213246   9.383   5.501   6.382  1.5435 -0.1316  0.8839
 3602SOL     OW13247   0.932   9.350   6.423  0.0039 -0.1192  0.5489
 3602SOL    HW113248   0.856   9.313   6.378  0.2405 -0.2066  0.2217
 3602SOL    HW213249   0.938   9.299   6.504  1.6202 -2.3432 -0.8645
 3603SOL     OW13250   1.507   9.838   2.831 -0.3933 -0.0235 -0.6124
 3603SOL    HW113251   1.553   9.764   2.791  1.1528  0.0758  0.8678
 3603SOL    HW213252   1.417   9.809   2.840  0.2126 -1.8183  0.0927
 3604SOL     OW13253   0.009   2.110   3.437 -0.1226 -0.7013  0.4364
 3604SOL    HW113254   0.041   2.044   3.499 -0.0569 -0.2073  0.9393
 3604SOL    HW213255  -0.032   2.176   3.492 -0.8876 -0.7074 -0.1230
 3605SOL     OW13256   1.947   2.258   5.028  0.4189  0.5047  0.4635
 3605SOL    HW113257   1.911   2.271   4.940 -3.1538 -0.9426  1.5585
 3605SOL    HW213258   1.995   2.175   5.022  0.9999  0.8781 -0.2936
 3606SOL     OW13259   8.880   5.395   7.543  0.8587  0.2546  0.2343
 3606SOL    HW113260   8.880   5.299   7.536 -3.5944  0.1826 -1.8963
 3606SOL    HW213261   8.919   5.425   7.461 -1.6549  0.0690 -1.1239
 3607SOL     OW13262   3.830   6.252   2.524 -0.5534 -0.1348  0.2580
 3607SOL    HW113263   3.803   6.202   2.600 -0.5538  1.4237  1.3336
 3607SOL    HW213264   3.749   6.269   2.476 -0.9391  0.9809  1.2561
 3608SOL     OW13265   8.195   7.547   0.593 -0.0510  0.5253 -0.4513
 3608SOL    HW113266   8.151   7.557   0.509 -1.4447  0.8134  0.2967
 3608SOL    HW213267   8.204   7.452   0.604 -0.4113  0.4678 -0.6505
 3609SOL     OW13268   4.447   5.498   8.198  0.2822  0.1541 -0.5045
 3609SOL    HW113269   4.492   5.437   8.139 -0.9191 -1.9101  0.6107
 3609SOL    HW213270   4.406   5.562   8.139  1.9625  0.2230 -1.6894
 3610SOL     OW13271   8.676   5.224   2.298 -0.9267  0.8428 -0.2395
 3610SOL    HW113272   8.727   5.280   2.357 -0.0463  0.4344 -0.5888
 3610SOL    HW213273   8.707   5.135   2.317 -1.1580  0.6376 -0.8017
 3611SOL     OW13274   7.566   2.539   8.799 -0.4353  0.0899  0.8630
 3611SOL    HW113275   7.592   2.477   8.732  2.5602 -0.4352  2.3652
 3611SOL    HW213276   7.524   2.610   8.750 -2.3017 -2.1598 -1.0695
 3612SOL     OW13277   9.845   0.654   4.380 -0.0712  0.2740  0.3021
 3612SOL    HW113278   9.817   0.647   4.288  0.5185 -0.6052  0.1699
 3612SOL    HW213279   9.921   0.713   4.378 -0.9223  1.3977  0.4389
 3613SOL     OW13280   2.833   8.533   1.565 -0.2680 -0.0372  0.3586
 3613SOL    HW113281   2.890   8.596   1.519 -1.6759  0.6878 -0.4666
 3613SOL    HW213282   2.876   8.449   1.553  0.3393  0.4060 -0.7533
 3614SOL     OW13283   3.568   8.177   5.322  0.3095 -0.1880  0.3050
 3614SOL    HW113284   3.570   8.199   5.415  0.2021 -1.4986  0.6362
 3614SOL    HW213285   3.504   8.105   5.315  1.0252 -0.7659 -0.6161
 3615SOL     OW13286   6.649   6.512  10.281  0.0005  0.3313 -0.3046
 3615SOL    HW113287   6.569   6.551  10.245 -0.3067 -1.3903 -1.6403
 3615SOL    HW213288   6.685   6.580  10.338 -1.8542  1.5453 -0.4740
 3616SOL     OW13289   9.860   4.746   3.539 -0.0264 -0.3944 -0.3673
 3616SOL    HW113290   9.813   4.693   3.473  1.2937 -0.2537 -1.4519
 3616SOL    HW213291   9.878   4.684   3.609  0.7463 -1.2071 -1.2487
 3617SOL     OW13292   4.577   9.339   4.173 -0.3184  0.1107  0.0874
 3617SOL    HW113293   4.540   9.282   4.105 -0.6241  1.9445 -1.3804
 3617SOL    HW213294   4.601   9.419   4.126 -0.7720  1.5692  2.1994
 3618SOL     OW13295   9.043   8.617   5.573 -0.0268 -0.3310  0.2581
 3618SOL    HW113296   8.965   8.588   5.621 -0.6542  0.4796 -0.2450
 3618SOL    HW213297   9.085   8.680   5.631 -0.2077 -0.1359  0.1761
 3619SOL     OW13298   8.636   9.195   5.838  0.1707  0.3825 -0.3783
 3619SOL    HW113299   8.628   9.106   5.805  0.4613 -0.2452  1.1432
 3619SOL    HW213300   8.698   9.188   5.911 -1.1184  1.4952  0.8868
 3620SOL     OW13301   1.831   7.282   2.176 -0.2649  0.0806 -0.1391
 3620SOL    HW113302   1.748   7.234   2.172 -0.0360 -0.3399  0.1444
 3620SOL    HW213303   1.898   7.214   2.173  0.0616  0.3017  1.3921
 3621SOL     OW13304   2.216   9.575   3.139  0.1500 -0.6450 -0.2244
 3621SOL    HW113305   2.216   9.580   3.044  0.2246  1.1152 -0.1559
 3621SOL    HW213306   2.128   9.602   3.165  0.0960 -1.2189  0.2098
 3622SOL     OW13307   8.572   9.620   3.336 -1.0042  0.3313 -0.2332
 3622SOL    HW113308   8.549   9.614   3.429 -0.9077 -0.8320 -0.2763
 3622SOL    HW213309   8.646   9.681   3.334  0.0120 -0.8212  0.6580
 3623SOL     OW13310   1.465   8.431   9.700  0.0512  0.1854 -0.0870
 3623SOL    HW113311   1.528   8.391   9.640  1.2836  1.9110 -0.0212
 3623SOL    HW213312   1.509   8.430   9.785 -0.3753  0.6062  0.1467
 3624SOL     OW13313   9.132   2.804   2.562  0.7194  0.3126  0.3802
 3624SOL    HW113314   9.069   2.733   2.575  0.1629  0.9430  1.1759
 3624SOL    HW213315   9.111   2.839   2.475  1.4024 -0.8644 -0.2994
 3625SOL     OW13316   5.164   6.550   1.441 -0.4712  0.1526 -0.0680
 3625SOL    HW113317   5.142   6.598   1.520  1.4856  1.7304 -0.4083
 3625SOL    HW213318   5.093   6.569   1.380 -0.0331  2.2273  0.0045
 3626SOL     OW13319   5.510   1.250   8.258  0.0834 -0.0051 -0.2423
 3626SOL    HW113320   5.461   1.224   8.180  0.5204 -0.1649 -0.4688
 3626SOL    HW213321   5.443   1.277   8.320 -0.2331  1.2697 -1.0877
 3627SOL     OW13322   1.528   0.027   6.422  0.0677  0.0545  0.1282
 3627SOL    HW113323   1.574   0.111   6.422  0.0872  0.0451 -0.8025
 3627SOL    HW213324   1.445   0.045   6.378 -0.1365 -0.3044  0.3605
 3628SOL     OW13325   9.718  10.423   0.920 -0.2862 -0.4370 -0.2574
 3628SOL    HW113326   9.769  10.357   0.875  0.3523 -1.2486  1.5768
 3628SOL    HW213327   9.637  10.431   0.868 -0.0627 -2.1160 -0.9031
 3629SOL     OW13328   8.637   7.595   2.877  0.8123 -0.2174  0.2286
 3629SOL    HW113329   8.589   7.514   2.858  0.6318  0.6922 -4.5835
 3629SOL    HW213330   8.569   7.662   2.885  1.0627  0.0178  0.4181
 3630SOL     OW13331   6.956   6.369   5.164 -0.1166  0.2870 -0.1581
 3630SOL    HW113332   6.896   6.393   5.234  0.4163  2.2524 -0.3371
 3630SOL    HW213333   7.043   6.379   5.202  0.1714  1.1474 -1.0166
 3631SOL     OW13334   5.364   7.601  10.317 -0.9137  0.2119 -0.4092
 3631SOL    HW113335   5.433   7.666  10.329  0.2709 -1.3406  1.6824
 3631SOL    HW213336   5.369   7.577  10.224  0.4137  1.1456 -0.5931
 3632SOL     OW13337   4.884   4.602   3.891  0.5902  0.2014 -0.1179
 3632SOL    HW113338   4.888   4.521   3.941 -1.6922 -1.2188 -2.0821
 3632SOL    HW213339   4.813   4.652   3.931  0.0669 -0.0641 -0.7118
 3633SOL     OW13340   9.758   6.952   3.552 -0.0024  0.0476  0.3485
 3633SOL    HW113341   9.705   6.999   3.616 -1.0881 -0.1593 -0.3695
 3633SOL    HW213342   9.716   6.867   3.544  0.4197 -0.1077 -0.2573
 3634SOL     OW13343   7.527   9.573   6.451  0.1949  0.2580  0.4525
 3634SOL    HW113344   7.514   9.491   6.404 -0.0862  0.6282 -0.1216
 3634SOL    HW213345   7.621   9.591   6.440  0.2383  0.0700  0.4977
 3635SOL     OW13346   4.058   0.979   1.189  0.1842  0.4209 -0.1803
 3635SOL    HW113347   4.056   0.966   1.094 -1.9272 -3.1141  0.1675
 3635SOL    HW213348   3.983   1.035   1.207 -0.0190  0.2495 -0.4909
 3636SOL     OW13349   5.127   3.936   5.890 -0.0468  0.9580 -0.7461
 3636SOL    HW113350   5.055   3.884   5.924  1.9643 -1.1434  0.6052
 3636SOL    HW213351   5.138   3.906   5.800 -0.0467  0.3307 -0.5415
 3637SOL     OW13352   2.458   2.585   3.954 -0.3412 -0.2454 -0.2278
 3637SOL    HW113353   2.532   2.642   3.973 -1.9958  2.3765 -1.0380
 3637SOL    HW213354   2.438   2.541   4.036  1.3086 -0.0471  0.2999
 3638SOL     OW13355   1.778   6.007   4.976 -0.2713  0.1788 -0.2164
 3638SOL    HW113356   1.758   5.932   5.032 -0.1527  0.2351 -0.0972
 3638SOL    HW213357   1.873   6.004   4.965 -0.3443 -0.1429 -0.8551
 3639SOL     OW13358   8.232   9.929   7.093 -0.1641 -0.6821  0.1511
 3639SOL    HW113359   8.276   9.933   7.178  1.1652  0.4916 -0.5450
 3639SOL    HW213360   8.154   9.983   7.103  1.7273  2.3557 -0.2698
 3640SOL     OW13361   4.268   9.118   8.611 -0.0816  0.0223  0.0324
 3640SOL    HW113362   4.354   9.090   8.578 -0.3094  0.3737 -0.8896
 3640SOL    HW213363   4.228   9.038   8.645 -0.3067 -0.6107 -1.6308
 3641SOL     OW13364   2.114   1.517   9.189  0.1250  0.2765  0.1521
 3641SOL    HW113365   2.180   1.560   9.134 -0.1028 -0.1934 -0.5042
 3641SOL    HW213366   2.122   1.424   9.169 -1.1341  0.2592 -0.3961
 3642SOL     OW13367   8.907   9.138   4.699  0.4063 -0.6129 -0.1757
 3642SOL    HW113368   8.994   9.135   4.660  0.4947 -1.2079  0.0591
 3642SOL    HW213369   8.873   9.225   4.676  2.0828  0.7113  1.9156
 3643SOL     OW13370   7.588   1.211   4.626 -0.4687  0.1973  0.4476
 3643SOL    HW113371   7.653   1.274   4.594 -1.1243  0.3430 -0.6413
 3643SOL    HW213372   7.589   1.141   4.560 -0.1011 -0.7143  1.3883
 3644SOL     OW13373   9.366  10.014   1.804  0.0218  0.6883 -0.1583
 3644SOL    HW113374   9.446   9.991   1.851  0.3013 -1.6718 -1.6219
 3644SOL    HW213375   9.326   9.930   1.783 -1.6231  1.7494 -1.5288
 3645SOL     OW13376   3.709   5.794   3.861  0.3164 -0.7412 -0.2588
 3645SOL    HW113377   3.764   5.870   3.879 -0.6230 -0.1795  0.3296
 3645SOL    HW213378   3.669   5.813   3.776 -1.4083  0.3618  0.7479
 3646SOL     OW13379   2.918   3.230   2.002  0.1306  0.4624 -0.4952
 3646SOL    HW113380   2.967   3.271   1.931 -1.3838 -0.0426 -1.8864
 3646SOL    HW213381   2.973   3.156   2.029  0.7482  0.6841 -1.1043
 3647SOL     OW13382   8.515   5.801   8.366  0.7090 -0.2644 -0.3064
 3647SOL    HW113383   8.486   5.854   8.292  0.6666 -1.7490 -1.4122
 3647SOL    HW213384   8.441   5.743   8.385  0.2311  0.9293  1.7828
 3648SOL     OW13385   5.348   8.816   1.575 -0.1619 -0.4113  0.2414
 3648SOL    HW113386   5.339   8.734   1.625  1.0249 -0.3475  0.5914
 3648SOL    HW213387   5.417   8.863   1.620  0.2345  0.1052 -0.8872
 3649SOL     OW13388   8.614   2.071   4.803 -0.0675 -0.0767  0.2322
 3649SOL    HW113389   8.629   2.150   4.752  0.1952  0.4225  1.0624
 3649SOL    HW213390   8.632   1.999   4.742  0.1251  0.5038 -0.4036
 3650SOL     OW13391   5.935   1.878   5.898  0.2482  0.2395 -0.0441
 3650SOL    HW113392   5.894   1.792   5.898 -0.2646  0.4750 -0.6277
 3650SOL    HW213393   6.025   1.861   5.926  0.1042 -0.4598  0.0238
 3651SOL     OW13394   7.348   6.711   9.063  0.4716 -0.2558 -0.4201
 3651SOL    HW113395   7.393   6.792   9.086  1.4512 -0.8015 -0.3512
 3651SOL    HW213396   7.399   6.642   9.106  0.0308 -0.9555 -0.9990
 3652SOL     OW13397   4.288   1.238   2.277  0.4828  1.3686 -0.4641
 3652SOL    HW113398   4.288   1.291   2.197  1.0028  0.8926 -0.7868
 3652SOL    HW213399   4.374   1.196   2.278 -0.0424  0.2495 -0.4074
 3653SOL     OW13400   2.492   8.649   7.168 -0.0493 -0.1798  0.0828
 3653SOL    HW113401   2.454   8.696   7.094  1.4350 -0.5216 -0.9479
 3653SOL    HW213402   2.420   8.598   7.205 -0.4098 -1.6765 -2.4551
 3654SOL     OW13403   1.682   2.272   6.023 -0.0074 -0.5954 -0.1597
 3654SOL    HW113404   1.662   2.254   5.931 -2.3958 -0.7624  0.3322
 3654SOL    HW213405   1.716   2.189   6.056 -1.1504 -1.1925 -0.4174
 3655SOL     OW13406   5.853   0.813   3.067  0.1967 -0.0516 -0.1616
 3655SOL    HW113407   5.887   0.773   2.987 -1.6600 -1.0739 -0.4992
 3655SOL    HW213408   5.836   0.904   3.043  0.3440 -0.1727 -0.7266
 3656SOL     OW13409   2.396  10.387   1.105 -0.1043 -0.0313  0.1334
 3656SOL    HW113410   2.331  10.325   1.072  1.1342 -1.5391  0.4112
 3656SOL    HW213411   2.477  10.336   1.112  0.6060  1.2111  1.8097
 3657SOL     OW13412  10.016   3.860   9.053 -0.4846  0.0043  0.4764
 3657SOL    HW113413  10.042   3.861   8.961  3.2789 -1.5125  1.3454
 3657SOL    HW213414   9.944   3.798   9.057 -1.4450  0.9021 -1.5296
 3658SOL     OW13415   9.193   5.227   7.538 -0.6373 -0.5845  0.2892
 3658SOL    HW113416   9.220   5.241   7.447  0.9299 -1.6486  0.5674
 3658SOL    HW213417   9.269   5.189   7.580 -1.3066 -0.0096  2.1019
 3659SOL     OW13418   5.929   7.215   9.843 -0.6517 -0.0993 -0.4719
 3659SOL    HW113419   5.920   7.310   9.832  0.2798  0.0286 -0.2553
 3659SOL    HW213420   5.853   7.178   9.799 -1.2835  0.7711 -0.1462
 3660SOL     OW13421   5.587   1.032   8.641  0.1920 -0.5307 -0.3738
 3660SOL    HW113422   5.499   1.025   8.676  0.8662  0.0742  1.5924
 3660SOL    HW213423   5.621   0.943   8.642  0.0498 -0.5807  0.1223
 3661SOL     OW13424   2.933   9.974   4.078  0.4602  0.6344 -0.2883
 3661SOL    HW113425   2.923   9.880   4.065 -1.2757  1.0734 -2.8248
 3661SOL    HW213426   2.850  10.002   4.117  0.8452  1.1917  0.1570
 3662SOL     OW13427   9.887   7.616   6.258 -0.4525 -0.4449 -0.2527
 3662SOL    HW113428   9.913   7.610   6.167 -2.5708 -3.5495 -0.7996
 3662SOL    HW213429   9.809   7.671   6.257 -0.0669  0.1054 -0.1971
 3663SOL     OW13430   3.787   5.896   5.323 -0.3448 -0.4335  0.4644
 3663SOL    HW113431   3.738   5.813   5.324  1.2521 -1.4358 -0.1156
 3663SOL    HW213432   3.879   5.869   5.329  0.1429  1.4492  3.4586
 3664SOL     OW13433   7.848   9.154   7.740  0.1752 -0.4554 -0.1454
 3664SOL    HW113434   7.879   9.086   7.680 -2.1306 -0.1872 -1.7591
 3664SOL    HW213435   7.765   9.120   7.772 -1.2756  1.7549 -1.3679
 3665SOL     OW13436  10.138   8.773   5.895 -0.0722  0.0973  0.6663
 3665SOL    HW113437  10.223   8.749   5.860 -0.6418 -3.1786  1.1873
 3665SOL    HW213438  10.157   8.826   5.973  1.4208  0.1740  0.2624
 3666SOL     OW13439   9.588   9.280   4.704 -0.3113  0.3794  0.5281
 3666SOL    HW113440   9.642   9.323   4.770  1.2546 -0.3854 -0.2038
 3666SOL    HW213441   9.633   9.198   4.686 -0.0949  1.0095 -2.2338
 3667SOL     OW13442   3.480   0.795   5.485  0.6639  0.3291  0.2519
 3667SOL    HW113443   3.482   0.820   5.577  1.6554 -1.0782  0.6521
 3667SOL    HW213444   3.561   0.744   5.472 -0.4593 -1.2799 -0.8616
 3668SOL     OW13445   0.233   3.027   3.037  0.4173 -0.1385 -0.1472
 3668SOL    HW113446   0.237   3.104   3.094  2.1552 -0.7833  0.6600
 3668SOL    HW213447   0.154   3.041   2.984  0.7053  2.2317 -0.0787
 3669SOL     OW13448   8.041   2.819   7.039 -0.5239 -0.1182  0.8307
 3669SOL    HW113449   7.976   2.788   6.977 -1.5729  0.4635  1.6122
 3669SOL    HW213450   7.991   2.864   7.107  0.6634  0.0885  1.6124
 3670SOL     OW13451   5.043   2.844   1.701 -0.6082 -0.4259  0.4132
 3670SOL    HW113452   5.051   2.939   1.707  1.5273 -0.4450 -1.0824
 3670SOL    HW213453   4.948   2.828   1.700 -1.0150  1.6871  0.3503
 3671SOL     OW13454   6.669   5.051  10.182  0.3097 -0.1170  0.2495
 3671SOL    HW113455   6.743   5.054  10.243 -0.7521  0.9783  1.5391
 3671SOL    HW213456   6.594   5.081  10.233 -0.9969 -0.9644 -1.0933
 3672SOL     OW13457   5.111   4.582   3.178  0.1928  0.1306  0.0697
 3672SOL    HW113458   5.114   4.490   3.152  2.1138  0.1864 -0.0679
 3672SOL    HW213459   5.173   4.626   3.119  1.1730  1.0625  1.6998
 3673SOL     OW13460   9.995   1.527   6.330  0.1246  0.0227  0.6051
 3673SOL    HW113461   9.951   1.612   6.332 -1.2916 -0.6921  0.4784
 3673SOL    HW213462   9.925   1.463   6.339  1.1434 -1.1555  0.3967
 3674SOL     OW13463   5.743   2.663   5.856 -0.3965 -0.3190  0.1289
 3674SOL    HW113464   5.665   2.717   5.856 -0.1562  0.1025  2.3879
 3674SOL    HW213465   5.792   2.689   5.934  0.9141 -2.1207 -0.0005
 3675SOL     OW13466   6.288   6.605   8.175 -0.2353  0.0317 -0.3268
 3675SOL    HW113467   6.383   6.600   8.166 -0.0305 -1.9790  1.9070
 3675SOL    HW213468   6.256   6.616   8.085  1.9832 -2.1752 -1.5219
 3676SOL     OW13469   7.789   8.907   8.083  0.2043  0.6077 -0.4937
 3676SOL    HW113470   7.824   8.841   8.023 -0.3811  1.7952 -2.2228
 3676SOL    HW213471   7.823   8.881   8.169  0.5662 -1.5147 -1.2048
 3677SOL     OW13472   9.091   0.624   1.465 -0.6451  0.2227 -0.0307
 3677SOL    HW113473   9.155   0.569   1.419 -1.8269 -0.0300 -1.4756
 3677SOL    HW213474   9.113   0.614   1.557  1.9809  0.9131 -0.4996
 3678SOL     OW13475   9.038   0.489   0.527  0.3982 -0.5035 -1.0219
 3678SOL    HW113476   9.033   0.577   0.490 -0.8024 -0.3151 -0.4702
 3678SOL    HW213477   8.977   0.437   0.475 -0.1295 -0.6111 -0.3092
 3679SOL     OW13478   0.632   3.479   9.001 -0.2118 -0.1170  0.4268
 3679SOL    HW113479   0.583   3.529   9.066  1.6396  0.4047  1.4907
 3679SOL    HW213480   0.724   3.497   9.021  0.5016  1.7855 -3.6623
 3680SOL     OW13481   1.107   3.520   5.106 -0.0114  0.0804  0.0842
 3680SOL    HW113482   1.069   3.432   5.100  1.9907 -1.0310  2.1604
 3680SOL    HW213483   1.200   3.504   5.122  0.2448  2.5707  1.4532
 3681SOL     OW13484  10.448   9.874   9.521 -0.8421  0.4707 -0.1699
 3681SOL    HW113485  10.490   9.789   9.507  0.4843  1.3112 -1.6788
 3681SOL    HW213486  10.363   9.866   9.479 -0.7003 -0.1039 -0.3478
 3682SOL     OW13487   3.972   2.339   6.841 -0.2487 -0.5327  0.7270
 3682SOL    HW113488   3.984   2.429   6.810  2.0331 -1.2623 -0.7095
 3682SOL    HW213489   3.909   2.301   6.781  2.6051 -1.3196 -2.0156
 3683SOL     OW13490   4.361   9.054   3.328 -0.1364  0.0212  0.2601
 3683SOL    HW113491   4.441   9.039   3.379 -0.1777  2.4914  1.2235
 3683SOL    HW213492   4.370   9.144   3.296 -2.2532  0.1439 -0.1431
 3684SOL     OW13493   6.185   9.721   9.457  0.1446 -0.2394 -0.9526
 3684SOL    HW113494   6.121   9.782   9.494  0.5793  0.3315 -1.1296
 3684SOL    HW213495   6.270   9.765   9.469  0.4316 -0.6727 -1.3580
 3685SOL     OW13496   9.090   7.035   5.783 -0.1005  0.3812  0.1308
 3685SOL    HW113497   9.047   7.005   5.863 -1.2278  0.8974 -0.2641
 3685SOL    HW213498   9.157   6.969   5.766 -2.2910 -1.8252 -0.5527
 3686SOL     OW13499   8.021   6.428   4.343  0.5158  0.2907  0.1948
 3686SOL    HW113500   8.037   6.477   4.424  0.4003 -2.4209  1.9886
 3686SOL    HW213501   7.935   6.457   4.314 -0.4871 -0.2869  2.3781
 3687SOL     OW13502   5.312   1.870   4.311  0.0610  0.1506  0.0460
 3687SOL    HW113503   5.301   1.788   4.264  0.4696 -0.1020  0.3852
 3687SOL    HW213504   5.407   1.886   4.308  0.2120 -0.3498  1.5858
 3688SOL     OW13505  10.010   6.958   7.449  0.0997 -0.0300 -0.2919
 3688SOL    HW113506   9.989   6.972   7.357 -1.1782  0.5077  0.0526
 3688SOL    HW213507   9.925   6.943   7.491  0.7354 -1.1843  0.6569
 3689SOL     OW13508   9.267   2.645   9.590  0.2109 -0.0891  0.3465
 3689SOL    HW113509   9.318   2.587   9.646 -2.5299 -0.1484  3.0422
 3689SOL    HW213510   9.315   2.728   9.591  1.7857 -0.9785  0.2454
 3690SOL     OW13511   0.219   3.532   6.767 -0.2214  0.0913 -0.1459
 3690SOL    HW113512   0.160   3.520   6.693 -0.1854  0.5698 -0.2564
 3690SOL    HW213513   0.249   3.623   6.759 -0.8124  0.3939  0.8918
 3691SOL     OW13514   3.331   8.482   2.433 -0.1980  0.0179  0.0767
 3691SOL    HW113515   3.416   8.527   2.435 -0.3364  0.5160 -2.2289
 3691SOL    HW213516   3.271   8.544   2.475  0.0744  0.9338 -0.8310
 3692SOL     OW13517   6.560   2.105   6.174 -0.2453  0.0494  0.2796
 3692SOL    HW113518   6.529   2.107   6.265 -1.8957  0.0374 -0.2407
 3692SOL    HW213519   6.542   2.193   6.141  2.3159  0.7475  0.5198
 3693SOL     OW13520  10.410   9.309   4.094 -0.3196  0.2740  0.0357
 3693SOL    HW113521  10.321   9.337   4.070 -0.6101 -0.3762  0.3334
 3693SOL    HW213522  10.415   9.325   4.188  0.0292  0.6969 -0.0520
 3694SOL     OW13523  10.269   4.130   3.986 -0.3653 -0.1232  0.6736
 3694SOL    HW113524  10.293   4.151   3.896 -1.1107  2.0199  0.9272
 3694SOL    HW213525  10.194   4.071   3.978 -1.0969  0.8852 -0.1375
 3695SOL     OW13526   0.748   2.640   2.821  0.0718  0.5356 -0.1149
 3695SOL    HW113527   0.668   2.630   2.769 -1.8129  1.6061  2.3996
 3695SOL    HW213528   0.771   2.550   2.845 -0.4405  0.2147 -0.7745
 3696SOL     OW13529   0.857   3.882   4.499  0.0685 -0.1762  0.3941
 3696SOL    HW113530   0.878   3.930   4.579 -0.7751  1.7204 -0.4659
 3696SOL    HW213531   0.812   3.803   4.530 -0.3905  0.6042  1.7895
 3697SOL     OW13532   6.924   9.862   5.771 -0.3609 -0.1903 -0.4167
 3697SOL    HW113533   6.924   9.935   5.709  0.7570 -1.4416 -1.9985
 3697SOL    HW213534   6.983   9.890   5.841  1.4548 -0.1631 -1.8615
 3698SOL     OW13535   3.963   4.898   8.416 -0.5273  0.0812  0.3225
 3698SOL    HW113536   3.953   4.816   8.368 -0.2884  0.0329  0.3520
 3698SOL    HW213537   4.046   4.887   8.464 -0.4176  0.3973  0.2065
 3699SOL     OW13538   5.749   7.166   4.733 -0.1469  0.5691  0.2002
 3699SOL    HW113539   5.723   7.137   4.821 -1.6436  0.7382 -0.1460
 3699SOL    HW213540   5.760   7.261   4.741 -0.3328  0.5910  0.2018
 3700SOL     OW13541   2.146   0.667   9.035  0.4100 -0.3043  0.6864
 3700SOL    HW113542   2.225   0.621   9.007 -0.4839 -1.6202  0.1982
 3700SOL    HW213543   2.074   0.621   8.990 -0.4977  2.2072 -0.6365
 3701SOL     OW13544  10.326   1.020   7.478  0.8131  0.1121  0.4992
 3701SOL    HW113545  10.344   0.946   7.419  0.8747  0.1918  0.4173
 3701SOL    HW213546  10.353   1.097   7.428  2.1864  0.0862  1.1624
 3702SOL     OW13547   2.447   1.163   7.377  0.0139 -0.3795 -0.0747
 3702SOL    HW113548   2.514   1.189   7.440 -0.0123 -2.2128  0.7831
 3702SOL    HW213549   2.374   1.135   7.431 -1.1375  0.7364 -0.9942
 3703SOL     OW13550   5.771  10.183   2.426 -0.0448  0.6626 -0.0746
 3703SOL    HW113551   5.817  10.125   2.488 -0.5893 -0.7058 -0.8965
 3703SOL    HW213552   5.765  10.266   2.472  0.5594  0.0158  1.2660
 3704SOL     OW13553   5.349   1.154   3.513  0.6588  0.8545 -0.4073
 3704SOL    HW113554   5.388   1.089   3.454 -1.0606 -0.4761 -0.1585
 3704SOL    HW213555   5.259   1.163   3.482  0.7761  2.9734 -0.2643
 3705SOL     OW13556   7.227   3.234   7.277 -0.2788 -0.4397 -0.2545
 3705SOL    HW113557   7.256   3.284   7.353  0.5087 -0.8038 -0.3008
 3705SOL    HW213558   7.282   3.156   7.278  0.3146 -0.0660 -1.6609
 3706SOL     OW13559   3.073   3.520   2.357 -0.3464 -0.1863 -0.1957
 3706SOL    HW113560   3.164   3.524   2.386  0.1357  0.0305 -1.6445
 3706SOL    HW213561   3.074   3.457   2.284 -1.6295 -1.2743  0.6743
 3707SOL     OW13562   4.910   4.954   9.209  0.5977  0.5178 -0.2748
 3707SOL    HW113563   4.935   5.043   9.234 -0.1745 -0.0821  3.1778
 3707SOL    HW213564   4.840   4.966   9.145  1.2347  2.3352 -0.6954
 3708SOL     OW13565   2.896   2.140   3.786 -0.2440 -0.2439 -0.1462
 3708SOL    HW113566   2.876   2.213   3.728 -0.0600 -0.4504 -0.4734
 3708SOL    HW213567   2.811   2.111   3.820 -0.1727  1.5431  1.7512
 3709SOL     OW13568   4.065   7.962   5.482  0.6164 -0.2507  0.6677
 3709SOL    HW113569   4.142   8.018   5.475  0.4993 -0.2502 -1.8328
 3709SOL    HW213570   4.055   7.925   5.394 -0.8722 -2.1036  1.5369
 3710SOL     OW13571   1.216   3.608   4.134  0.2706 -0.2223 -0.8543
 3710SOL    HW113572   1.124   3.598   4.160  0.2993  3.2530  1.1661
 3710SOL    HW213573   1.212   3.644   4.045 -0.5456  2.4464  0.1760
 3711SOL     OW13574   3.616   4.375   2.633 -0.0228 -0.0789  0.0165
 3711SOL    HW113575   3.596   4.281   2.637  2.5003 -0.7092 -0.4934
 3711SOL    HW213576   3.667   4.391   2.712  0.1349  0.7086 -0.2419
 3712SOL     OW13577   7.860   5.655   1.064 -0.1953  0.0991  0.5870
 3712SOL    HW113578   7.945   5.693   1.087  0.1909 -0.1683 -0.3755
 3712SOL    HW213579   7.837   5.696   0.981 -1.2438  0.5254  1.0711
 3713SOL     OW13580   6.316   4.876   9.706 -0.2122 -0.4874  0.7061
 3713SOL    HW113581   6.322   4.785   9.679 -2.4794 -0.1353 -1.3390
 3713SOL    HW213582   6.224   4.899   9.692  0.4055  2.2627  0.6088
 3714SOL     OW13583   3.375   4.405   1.859  0.5937 -0.2507 -0.0607
 3714SOL    HW113584   3.384   4.500   1.848 -0.5019 -0.0263  0.7522
 3714SOL    HW213585   3.380   4.391   1.954  1.8123 -1.1519 -0.2290
 3715SOL     OW13586   9.331   6.552   8.299 -0.2564 -0.0465  0.0114
 3715SOL    HW113587   9.263   6.538   8.365 -0.3829 -0.9890 -0.2981
 3715SOL    HW213588   9.405   6.499   8.329 -0.5956 -1.1455 -0.9934
 3716SOL     OW13589   3.256   2.725   4.967  0.3575 -0.0341  0.0923
 3716SOL    HW113590   3.255   2.820   4.952 -1.1857 -0.1715 -0.9117
 3716SOL    HW213591   3.328   2.711   5.028 -0.7063  2.0254  1.9284
 3717SOL     OW13592   6.776   9.684   3.727  0.1634  0.2201 -0.6371
 3717SOL    HW113593   6.804   9.747   3.793 -1.0240 -0.2886  0.3910
 3717SOL    HW213594   6.780   9.599   3.772  0.7314 -0.3294 -1.6738
 3718SOL     OW13595   3.291   8.092   0.361 -0.2399 -0.4905 -0.0038
 3718SOL    HW113596   3.208   8.049   0.338 -0.3390 -0.0794 -0.4335
 3718SOL    HW213597   3.315   8.053   0.446 -1.7254  0.5617  0.9580
 3719SOL     OW13598   1.272   4.095   4.607  0.7380  0.2905  0.1362
 3719SOL    HW113599   1.198   4.153   4.625  0.7612  0.3071  0.1769
 3719SOL    HW213600   1.296   4.114   4.516  0.4791  0.0491  0.0167
 3720SOL     OW13601   4.065   2.101   1.385 -0.1905  0.2247  0.1715
 3720SOL    HW113602   4.097   2.097   1.295  0.3161  0.3946  0.3452
 3720SOL    HW213603   4.065   2.009   1.414 -2.7335 -0.1911 -0.8124
 3721SOL     OW13604   4.476   6.037   9.361 -0.0518 -0.8028 -0.3344
 3721SOL    HW113605   4.496   6.088   9.440  0.0446  0.8319 -1.3781
 3721SOL    HW213606   4.552   5.980   9.350  0.3667 -0.3723  0.2286
 3722SOL     OW13607   2.626   7.831   5.725  0.6162  0.1810  0.5907
 3722SOL    HW113608   2.627   7.820   5.630  0.8963 -0.8004  0.6933
 3722SOL    HW213609   2.546   7.787   5.754 -0.3697  1.9328  0.6742
 3723SOL     OW13610   4.135   2.790   8.274  0.8657  0.3596 -0.0568
 3723SOL    HW113611   4.121   2.814   8.366  0.7390  0.0363  0.0090
 3723SOL    HW213612   4.191   2.860   8.240  1.8251 -0.0966  0.5506
 3724SOL     OW13613   5.807   0.678   0.834  0.2738 -0.0746  0.2741
 3724SOL    HW113614   5.778   0.766   0.811  0.3714  0.1166  0.8818
 3724SOL    HW213615   5.897   0.688   0.862  0.0015 -0.2207  1.2361
 3725SOL     OW13616   7.923   9.971   1.453 -0.4732  0.2745 -0.4301
 3725SOL    HW113617   7.865  10.046   1.468  0.4064  0.6041  1.6342
 3725SOL    HW213618   7.874   9.896   1.486  0.8696  0.8000  3.1632
 3726SOL     OW13619   6.511   3.202   2.413  0.3298  0.1002  0.1847
 3726SOL    HW113620   6.448   3.134   2.389 -0.2940  0.4239  0.9052
 3726SOL    HW213621   6.494   3.220   2.505  0.5328  1.2043  0.0153
 3727SOL     OW13622   3.724   9.854   2.464  0.0800  0.0191  0.7287
 3727SOL    HW113623   3.680   9.770   2.455 -1.3428  0.3793  3.2761
 3727SOL    HW213624   3.810   9.832   2.500  0.8787 -0.4622 -1.3087
 3728SOL     OW13625   7.223   3.519   1.369  0.3396 -0.0241  0.5892
 3728SOL    HW113626   7.145   3.551   1.324 -0.7888 -2.2208  0.8657
 3728SOL    HW213627   7.270   3.468   1.302  0.2316 -0.7623  1.0619
 3729SOL     OW13628   2.043   8.126   6.396 -0.3105  0.0860  0.5378
 3729SOL    HW113629   2.045   8.190   6.326  0.1141  0.2083  0.6603
 3729SOL    HW213630   2.110   8.061   6.372  0.9457  0.9352  1.5811
 3730SOL     OW13631   2.523   8.336   4.262 -0.4395 -0.3137 -0.0139
 3730SOL    HW113632   2.580   8.305   4.333  0.5653  1.6339  0.1047
 3730SOL    HW213633   2.570   8.313   4.182 -0.1887 -0.0223  0.0462
 3731SOL     OW13634   9.714   8.525   2.225  0.1180  0.4313  0.2896
 3731SOL    HW113635   9.792   8.573   2.252 -0.9482  2.3135  0.2162
 3731SOL    HW213636   9.666   8.587   2.170 -0.6207 -1.2599 -1.0738
 3732SOL     OW13637   9.605   0.442   2.505  0.1898 -0.4625 -0.3740
 3732SOL    HW113638   9.533   0.504   2.516 -0.6188 -1.6143  1.3439
 3732SOL    HW213639   9.672   0.471   2.567  0.7291 -0.0669 -1.1305
 3733SOL     OW13640   3.279   1.026   5.745 -0.3652  0.1943 -0.5356
 3733SOL    HW113641   3.288   1.077   5.664 -0.1342 -0.0631 -0.6718
 3733SOL    HW213642   3.234   1.085   5.805 -1.7202 -0.0459 -1.2664
 3734SOL     OW13643   1.562   9.333  10.431 -0.2086  0.5811  0.1698
 3734SOL    HW113644   1.630   9.364  10.491  0.6588  0.6491 -0.8249
 3734SOL    HW213645   1.515   9.266  10.482 -1.2034  2.4528  1.8475
 3735SOL     OW13646   7.769   6.923   7.845 -0.0215 -0.1870  0.1654
 3735SOL    HW113647   7.727   6.890   7.925 -1.9528 -0.3293 -0.8311
 3735SOL    HW213648   7.759   7.018   7.850  0.0680 -0.1794  0.2020
 3736SOL     OW13649   1.176   9.786   2.397  0.3340  0.3755  0.5254
 3736SOL    HW113650   1.118   9.855   2.431 -0.0753 -0.6404  2.0210
 3736SOL    HW213651   1.118   9.710   2.388  1.2260 -0.3979  1.1464
 3737SOL     OW13652   7.948   5.928   6.179  1.0497 -0.5772  0.1884
 3737SOL    HW113653   7.951   5.832   6.174 -2.7078 -0.7657 -0.7951
 3737SOL    HW213654   7.886   5.947   6.249  2.5694  1.2599  1.1469
 3738SOL     OW13655   0.983   2.051   1.953  1.0934  0.4174  0.4572
 3738SOL    HW113656   0.991   1.965   1.913 -0.3281  0.7199 -0.5481
 3738SOL    HW213657   0.904   2.089   1.913 -0.8384  0.5181  3.9296
 3739SOL     OW13658   9.715   6.961   3.244  0.1171  0.6192 -0.6146
 3739SOL    HW113659   9.626   6.987   3.218  0.0104  1.2018  0.2768
 3739SOL    HW213660   9.757   7.044   3.268  0.6320  0.2490 -0.2334
 3740SOL     OW13661   0.492   0.462   1.732  0.0621  0.5220 -0.4863
 3740SOL    HW113662   0.567   0.412   1.699 -0.1571  0.8174 -1.4749
 3740SOL    HW213663   0.448   0.494   1.653 -2.1257 -1.0998 -0.0101
 3741SOL     OW13664   9.771   9.807   9.399  0.6421  0.4484 -0.4987
 3741SOL    HW113665   9.775   9.713   9.417 -0.7593  0.4294 -0.1568
 3741SOL    HW213666   9.829   9.820   9.324  1.2122 -0.6045 -0.2556
 3742SOL     OW13667   2.250   0.660   4.006  0.2969 -0.3835 -0.0968
 3742SOL    HW113668   2.236   0.610   3.926  1.0557 -1.0760  0.1800
 3742SOL    HW213669   2.314   0.608   4.055  1.0128  0.7916  0.2619
 3743SOL     OW13670   3.149   6.772   3.962  0.1734  0.5820 -0.0388
 3743SOL    HW113671   3.077   6.763   4.025 -1.1694  3.2126 -1.0277
 3743SOL    HW213672   3.136   6.700   3.900 -0.5742  0.0173  0.7514
 3744SOL     OW13673   0.001   4.551   1.936  0.2784  0.1712 -0.8224
 3744SOL    HW113674  -0.079   4.515   1.898 -0.0980 -0.2893  0.3729
 3744SOL    HW213675   0.066   4.543   1.866  0.0401 -2.2229 -0.8594
 3745SOL     OW13676   3.973   3.464   7.506 -0.3890 -0.1521 -0.3632
 3745SOL    HW113677   4.040   3.396   7.492 -0.0539  0.4877 -2.1281
 3745SOL    HW213678   3.894   3.428   7.465 -0.3819  0.2320 -0.7231
 3746SOL     OW13679   7.852   1.409  10.242  0.3946 -0.2667  0.4735
 3746SOL    HW113680   7.937   1.404  10.286 -0.1414  0.0183  1.5580
 3746SOL    HW213681   7.789   1.418  10.313 -0.2913  3.1417 -0.4118
 3747SOL     OW13682   9.170   7.618   0.033  0.0696  0.4080 -0.2414
 3747SOL    HW113683   9.249   7.593   0.081  0.8213 -0.0944 -1.6944
 3747SOL    HW213684   9.200   7.637  -0.056 -1.7253 -2.2738 -1.5705
 3748SOL     OW13685   7.925   8.358   5.097 -0.7239 -0.2850 -0.4365
 3748SOL    HW113686   7.950   8.283   5.152 -1.2784  0.0768  0.3350
 3748SOL    HW213687   7.869   8.411   5.154  0.8213  1.4812 -0.4903
 3749SOL     OW13688   3.539   2.223   2.235  0.5402 -0.1353  0.1323
 3749SOL    HW113689   3.561   2.257   2.148  1.7201  0.3544  0.6054
 3749SOL    HW213690   3.587   2.140   2.241  0.3262 -0.2519  0.2593
 3750SOL     OW13691   0.769   6.710   0.438  0.6040  0.6370 -0.0399
 3750SOL    HW113692   0.680   6.675   0.441  1.1786 -0.9062  1.5849
 3750SOL    HW213693   0.764   6.792   0.486 -0.6331  2.6462 -3.2947
 3751SOL     OW13694   7.950   0.663   6.467  0.0705 -0.2922  0.1486
 3751SOL    HW113695   8.026   0.715   6.439 -1.8217  2.1857 -0.7098
 3751SOL    HW213696   7.904   0.644   6.385 -1.9237  1.1087  0.8744
 3752SOL     OW13697   7.637   7.267   0.760  0.1723 -0.1276 -0.1818
 3752SOL    HW113698   7.690   7.326   0.706 -1.2013 -0.0049 -1.4482
 3752SOL    HW213699   7.634   7.310   0.845 -0.0367  1.1765 -0.8237
 3753SOL     OW13700   3.260   9.264   0.175 -0.6033  0.5186  0.3477
 3753SOL    HW113701   3.290   9.213   0.100  0.8868 -1.3464  2.0584
 3753SOL    HW213702   3.326   9.332   0.186  0.1769 -0.3027  0.9524
 3754SOL     OW13703   8.694   9.835   1.345 -0.6250  0.3798  0.1252
 3754SOL    HW113704   8.673   9.782   1.423 -1.0482 -2.5703 -1.8238
 3754SOL    HW213705   8.609   9.866   1.315 -0.3862  2.2159  1.1965
 3755SOL     OW13706   9.463  10.232   7.248 -0.4516  0.1588  0.3967
 3755SOL    HW113707   9.500  10.153   7.208  0.4171  0.1386  1.2112
 3755SOL    HW213708   9.460  10.213   7.341 -0.3978  1.0220  0.5870
 3756SOL     OW13709   7.826   8.484   6.336 -0.3111 -0.5763 -0.3827
 3756SOL    HW113710   7.843   8.498   6.429  1.7084 -3.1423 -0.2611
 3756SOL    HW213711   7.730   8.491   6.328 -0.5276 -0.2656  1.8650
 3757SOL     OW13712   7.618   9.760   1.028  0.0144  0.1530  0.4579
 3757SOL    HW113713   7.573   9.836   1.066  1.2705  0.4697  1.4090
 3757SOL    HW213714   7.585   9.686   1.078 -0.9623  0.0919 -0.2440
 3758SOL     OW13715   9.918   1.475   8.577 -0.3268  0.4814 -0.1040
 3758SOL    HW113716   9.975   1.399   8.586 -1.9306 -0.7508  0.0227
 3758SOL    HW213717   9.977   1.545   8.547  1.3681 -0.5228  0.7046
 3759SOL     OW13718   7.141   8.870   2.204  0.2896  0.5296  0.1173
 3759SOL    HW113719   7.102   8.815   2.137  0.4203  0.5996 -0.0155
 3759SOL    HW213720   7.154   8.811   2.279  1.7851  0.0166 -0.5136
 3760SOL     OW13721   2.507   9.998   8.363 -0.2400 -0.3602 -0.0890
 3760SOL    HW113722   2.425   9.970   8.322 -0.3493  0.8879 -0.7524
 3760SOL    HW213723   2.494   9.981   8.457 -0.9467 -0.9105 -0.2799
 3761SOL     OW13724   3.256   7.146   9.589 -0.6478 -0.3842  0.3191
 3761SOL    HW113725   3.258   7.199   9.509  0.4223 -1.4629 -0.3974
 3761SOL    HW213726   3.347   7.138   9.615 -0.8883 -1.0187  0.9861
 3762SOL     OW13727   7.237   9.363   9.225  0.0194  0.4477  0.6003
 3762SOL    HW113728   7.230   9.423   9.150  0.5315  1.6759  1.5017
 3762SOL    HW213729   7.152   9.319   9.228  0.2149 -0.1293 -1.0906
 3763SOL     OW13730  10.339   2.054   4.448 -0.0147  0.1311 -0.1550
 3763SOL    HW113731  10.289   1.994   4.503  1.2720 -1.3396 -0.5119
 3763SOL    HW213732  10.275   2.089   4.386 -1.2811  1.0756  1.6225
 3764SOL     OW13733   9.235   8.505   2.785  0.0881  0.1300  0.2322
 3764SOL    HW113734   9.257   8.559   2.709  1.7664 -0.0849  0.5262
 3764SOL    HW213735   9.164   8.553   2.829 -0.7684  0.3477 -1.3386
 3765SOL     OW13736   8.131  10.392   1.871  0.0209  0.1302  0.5282
 3765SOL    HW113737   8.053  10.419   1.822 -0.1113 -0.7157  0.2649
 3765SOL    HW213738   8.177  10.474   1.889  1.0876  0.3656 -2.6612
 3766SOL     OW13739   0.971   2.762   3.154  0.4241 -0.1498 -0.1305
 3766SOL    HW113740   0.953   2.672   3.180  0.0380 -0.3979 -1.2483
 3766SOL    HW213741   0.888   2.794   3.119 -0.2454  1.5386  2.6470
 3767SOL     OW13742   1.707   1.755   3.981 -0.2119  0.8859  0.2513
 3767SOL    HW113743   1.741   1.724   3.896 -3.3186 -1.2364 -0.3901
 3767SOL    HW213744   1.672   1.842   3.963 -0.8488  0.4512 -0.6870
 3768SOL     OW13745   6.126   9.471   0.126  0.1154 -0.1193 -0.1529
 3768SOL    HW113746   6.034   9.452   0.109  0.0515  1.2610 -1.5986
 3768SOL    HW213747   6.148   9.417   0.202 -1.6317 -1.1434 -0.3156
 3769SOL     OW13748   6.213   9.376   0.759 -0.6080 -0.0196 -0.3849
 3769SOL    HW113749   6.142   9.316   0.777 -1.8219  0.7719 -2.1851
 3769SOL    HW213750   6.195   9.453   0.813  1.4369 -1.4812  2.6089
 3770SOL     OW13751   3.807   0.221   0.179 -0.0837  0.2590  0.4948
 3770SOL    HW113752   3.733   0.217   0.118 -0.1606 -0.4591  0.6199
 3770SOL    HW213753   3.820   0.314   0.195 -0.0126  0.4748 -0.6837
 3771SOL     OW13754   1.486   8.501   7.242  0.2241 -0.5997  0.1332
 3771SOL    HW113755   1.456   8.410   7.245  0.0013 -0.6499 -2.0212
 3771SOL    HW213756   1.572   8.499   7.283 -0.2862 -1.5473  1.2135
 3772SOL     OW13757   1.787   5.851   8.930  0.0876  0.3676  0.7911
 3772SOL    HW113758   1.837   5.882   9.005 -1.6920  1.2898  1.6666
 3772SOL    HW213759   1.852   5.812   8.872  1.4209 -1.5518  3.3611
 3773SOL     OW13760   3.764   1.574   2.605 -0.0563  0.4695 -0.3606
 3773SOL    HW113761   3.839   1.632   2.618 -0.0221  0.1381  1.0367
 3773SOL    HW213762   3.772   1.508   2.674 -1.5070  0.2889 -0.3449
 3774SOL     OW13763   3.779   0.619   8.842 -0.0440 -0.8426 -0.4889
 3774SOL    HW113764   3.721   0.543   8.845 -0.7544 -0.2856  0.5956
 3774SOL    HW213765   3.859   0.587   8.801  0.7379 -2.9155  2.4193
 3775SOL     OW13766   6.676  10.124   2.934  0.3026  0.2100 -0.3222
 3775SOL    HW113767   6.724  10.051   2.972 -1.4992 -0.1984  1.3397
 3775SOL    HW213768   6.728  10.201   2.957  0.0523 -0.1738  1.7582
 3776SOL     OW13769   0.699   9.011  10.385 -0.3558  0.1419 -0.1451
 3776SOL    HW113770   0.649   9.003  10.466  0.1761 -1.0603  0.0897
 3776SOL    HW213771   0.787   8.980  10.409  0.0150  0.5416 -0.9805
 3777SOL     OW13772   6.079   5.374   6.566 -0.3353 -0.6541 -0.3612
 3777SOL    HW113773   6.159   5.322   6.554  0.3484  0.3505 -0.2917
 3777SOL    HW213774   6.008   5.315   6.539  0.4154 -1.5822 -0.3832
 3778SOL     OW13775   9.525  10.330   2.752 -0.1440 -0.3884  0.0906
 3778SOL    HW113776   9.432  10.349   2.737 -0.0511  2.9206  2.6109
 3778SOL    HW213777   9.536  10.339   2.847  2.8310 -0.4863 -0.1596
 3779SOL     OW13778   9.237   2.774   8.120 -1.0308  0.9765 -0.3219
 3779SOL    HW113779   9.254   2.802   8.030 -1.2700 -0.0993 -0.7155
 3779SOL    HW213780   9.322   2.749   8.155 -0.9947  1.0137 -0.3833
 3780SOL     OW13781   1.666   4.724   0.421 -0.6428  0.2036  0.2457
 3780SOL    HW113782   1.614   4.800   0.446 -0.0450  1.3586 -1.7451
 3780SOL    HW213783   1.633   4.700   0.334  0.2275 -0.8170  0.1750
 3781SOL     OW13784   8.721   6.318   6.879  0.1114 -0.6068  0.4046
 3781SOL    HW113785   8.744   6.309   6.971 -2.6592 -2.6508  1.0178
 3781SOL    HW213786   8.645   6.376   6.878  1.3857  1.2057 -0.9318
 3782SOL     OW13787   6.709   8.016   9.728 -0.1155 -0.0976 -0.0596
 3782SOL    HW113788   6.714   7.920   9.729 -0.5446 -0.1295  1.6110
 3782SOL    HW213789   6.797   8.044   9.753 -0.2445 -0.0827  0.3854
 3783SOL     OW13790   5.922   9.327   8.149 -0.0696 -0.5000 -0.7975
 3783SOL    HW113791   5.956   9.346   8.236 -3.1726  2.6654 -0.0263
 3783SOL    HW213792   5.872   9.246   8.159  0.3702 -0.6665  0.0949
 3784SOL     OW13793   2.536   5.450   3.309 -0.6216  0.5909  0.3549
 3784SOL    HW113794   2.510   5.461   3.401 -0.6304  2.1523  0.1973
 3784SOL    HW213795   2.457   5.469   3.259 -0.4226  0.4910  0.0011
 3785SOL     OW13796   3.311   8.097   3.722  0.8942 -0.4490 -0.3461
 3785SOL    HW113797   3.270   8.100   3.636  1.2264  1.7142 -0.4644
 3785SOL    HW213798   3.395   8.054   3.706  1.2814  0.5929 -1.2746
 3786SOL     OW13799   1.552   1.718   7.465  0.2226  0.6697 -0.1373
 3786SOL    HW113800   1.578   1.804   7.498  1.1989  0.3665 -0.0988
 3786SOL    HW213801   1.491   1.685   7.531  0.8588  0.7811  0.5211
 3787SOL     OW13802   1.112   2.240   2.664  0.5947 -0.0789 -0.2665
 3787SOL    HW113803   1.073   2.230   2.577 -1.6662  2.9271  0.2412
 3787SOL    HW213804   1.160   2.323   2.659  0.2537  0.2491  1.3665
 3788SOL     OW13805   7.997   5.202   4.000 -0.2951  0.3467  0.2184
 3788SOL    HW113806   8.081   5.188   3.957 -0.5756 -0.5986 -0.0407
 3788SOL    HW213807   8.012   5.276   4.059  1.1293 -0.7185  1.2551
 3789SOL     OW13808  10.297   9.475   1.965 -0.2878 -0.2667 -0.5098
 3789SOL    HW113809  10.355   9.400   1.968 -0.4189 -0.3920 -0.9315
 3789SOL    HW213810  10.337   9.539   2.023 -0.7497 -1.0531  0.6958
 3790SOL     OW13811   9.179   3.102  10.271  0.1134 -0.3128 -0.1655
 3790SOL    HW113812   9.199   3.190  10.240  2.1713 -0.1641  1.3483
 3790SOL    HW213813   9.217   3.044  10.205 -1.8892 -0.1641 -1.5544
 3791SOL     OW13814   5.630   9.444   0.061  0.6218  0.8207 -0.2636
 3791SOL    HW113815   5.688   9.520   0.059  1.4044  0.2271 -1.9119
 3791SOL    HW213816   5.545   9.478   0.033  0.8626  1.1760 -0.5702
 3792SOL     OW13817   7.791   5.567   4.801 -0.1832 -0.2516  0.2769
 3792SOL    HW113818   7.847   5.583   4.876  0.4046  1.2543 -0.4417
 3792SOL    HW213819   7.849   5.533   4.733 -0.4448 -0.2557  0.0502
 3793SOL     OW13820   2.540   9.244   2.291  0.2093 -0.0386  0.2076
 3793SOL    HW113821   2.494   9.173   2.247  0.7019 -0.0015 -0.3782
 3793SOL    HW213822   2.631   9.214   2.296  1.0037  1.5822 -2.3867
 3794SOL     OW13823   9.638   1.674  10.036 -0.0508 -0.4331  0.3286
 3794SOL    HW113824   9.710   1.667  10.098  1.1661  2.7170 -0.5282
 3794SOL    HW213825   9.681   1.686   9.951 -1.5969  0.0561 -0.4195
 3795SOL     OW13826   0.616   5.425   7.493  0.0367  0.1578 -0.1633
 3795SOL    HW113827   0.667   5.352   7.529  3.8843  1.0209 -3.2638
 3795SOL    HW213828   0.547   5.440   7.559  2.3515 -2.6326  3.3032
 3796SOL     OW13829   9.524   2.777   6.052 -0.1339  0.4167 -0.2948
 3796SOL    HW113830   9.530   2.794   6.146 -1.4896 -0.4302 -0.0322
 3796SOL    HW213831   9.613   2.756   6.026  0.4128  1.4545  0.6284
 3797SOL     OW13832   6.941   3.649   0.568 -0.3861 -0.0365 -0.1499
 3797SOL    HW113833   6.942   3.661   0.473 -1.1225  1.7192  0.0140
 3797SOL    HW213834   7.005   3.713   0.601  0.1015 -0.8443  0.5428
 3798SOL     OW13835   3.681   2.458   0.345 -0.0309  0.1956 -0.4721
 3798SOL    HW113836   3.751   2.523   0.346  1.6104 -1.4500  1.8229
 3798SOL    HW213837   3.713   2.388   0.289  0.0569 -0.4264  0.3351
 3799SOL     OW13838   4.883   7.786   9.685 -0.3381  0.3777  0.5087
 3799SOL    HW113839   4.845   7.771   9.598  0.6239  0.9435 -0.0222
 3799SOL    HW213840   4.954   7.723   9.691  0.1527  0.9258  0.5224
 3800SOL     OW13841   7.416   8.281   3.421 -0.0252  0.0375  0.5220
 3800SOL    HW113842   7.369   8.351   3.376  0.4199  1.4250  2.0885
 3800SOL    HW213843   7.489   8.259   3.363 -1.1654 -0.4005 -0.7945
 3801SOL     OW13844   8.183   3.312   6.158 -0.1475 -0.1147 -0.2801
 3801SOL    HW113845   8.139   3.376   6.215  1.4987  2.2211 -1.4762
 3801SOL    HW213846   8.158   3.337   6.069  3.2368  1.1842 -1.0037
 3802SOL     OW13847   6.632   4.364   8.562  0.4701  0.3008  0.0920
 3802SOL    HW113848   6.705   4.304   8.576 -0.4710 -0.7994  0.4032
 3802SOL    HW213849   6.657   4.415   8.484  1.1089 -0.7769 -0.4215
 3803SOL     OW13850   6.693   7.623   9.795 -0.3493  0.1488  0.2066
 3803SOL    HW113851   6.706   7.618   9.701 -1.1825 -0.9806  0.1209
 3803SOL    HW213852   6.661   7.536   9.819  0.6129  0.1543  1.6568
 3804SOL     OW13853   9.688   7.607   9.832 -0.1591  0.0090 -0.3672
 3804SOL    HW113854   9.746   7.588   9.905  0.8665  1.8599 -0.6105
 3804SOL    HW213855   9.601   7.614   9.871  0.2535  0.2145  0.5449
 3805SOL     OW13856   4.445   0.125   9.625  0.0405  0.1409  0.1218
 3805SOL    HW113857   4.369   0.120   9.683  0.9206 -1.1994  1.2144
 3805SOL    HW213858   4.520   0.134   9.684  0.8562  0.0524 -0.8689
 3806SOL     OW13859   6.062   0.082   0.159  0.2304 -0.6747  0.1476
 3806SOL    HW113860   6.068  -0.014   0.157  3.6950 -0.6306  1.2439
 3806SOL    HW213861   6.104   0.109   0.077  0.1803 -0.0979  0.3103
 3807SOL     OW13862   2.460   0.889   7.556 -0.6936 -0.1264 -0.2558
 3807SOL    HW113863   2.416   0.838   7.488 -0.7900  0.7051 -0.8197
 3807SOL    HW213864   2.550   0.900   7.524 -0.4774 -0.5307  0.1937
 3808SOL     OW13865   2.575   4.999   4.239 -0.3913 -0.1996  0.0158
 3808SOL    HW113866   2.588   4.988   4.334  1.8562 -3.0158 -0.4915
 3808SOL    HW213867   2.482   4.984   4.226 -0.6665 -0.2143  1.7348
 3809SOL     OW13868   1.438   3.237   7.236 -0.2469 -0.0387  0.1602
 3809SOL    HW113869   1.414   3.326   7.211  0.4490  0.0128 -0.3407
 3809SOL    HW213870   1.413   3.183   7.161 -0.1288 -0.1862  0.2261
 3810SOL     OW13871   8.003   6.480   8.088 -1.0719  0.1378  0.1688
 3810SOL    HW113872   8.024   6.470   7.995 -0.5335 -0.0868  0.3069
 3810SOL    HW213873   7.989   6.574   8.099 -0.0709  0.3152  0.0619
 3811SOL     OW13874   6.848   4.131   9.795 -0.3862  0.2359 -0.0551
 3811SOL    HW113875   6.845   4.207   9.736 -0.1770  0.1619 -0.1597
 3811SOL    HW213876   6.924   4.082   9.767 -0.0558  0.4052  0.5371
 3812SOL     OW13877   9.981   2.860   9.400 -0.5084  0.3006  0.0011
 3812SOL    HW113878   9.962   2.953   9.409  0.4492  0.9744 -3.3907
 3812SOL    HW213879   9.922   2.830   9.331 -0.8744 -1.6761  1.1071
 3813SOL     OW13880   5.919   7.024   1.498  0.0602  0.1262 -0.2702
 3813SOL    HW113881   5.860   6.988   1.564 -0.9392 -0.4341 -1.4374
 3813SOL    HW213882   5.997   7.049   1.547 -1.3154  1.3798  1.4102
 3814SOL     OW13883   7.611   7.290   3.769  0.0080  0.6117  0.3374
 3814SOL    HW113884   7.596   7.225   3.700 -0.3772  0.4989  0.5250
 3814SOL    HW213885   7.677   7.349   3.732 -1.8505  1.9366 -1.0739
 3815SOL     OW13886   0.463   9.424   4.727 -0.4278 -0.1454 -0.0190
 3815SOL    HW113887   0.384   9.388   4.689 -0.6412 -0.4983  0.7421
 3815SOL    HW213888   0.437   9.453   4.815  0.7256 -2.1975  1.0723
 3816SOL     OW13889   6.584   8.901   2.537  0.0034 -0.2015 -0.1766
 3816SOL    HW113890   6.607   8.842   2.610  1.2787  0.0790 -0.3289
 3816SOL    HW213891   6.665   8.909   2.487 -0.3556  1.1287 -0.5608
 3817SOL     OW13892   1.527   2.627   9.520 -0.6295 -0.2610  0.1528
 3817SOL    HW113893   1.619   2.651   9.510 -1.0559  1.2003 -0.5228
 3817SOL    HW213894   1.516   2.613   9.615 -0.3300  2.3996  0.6579
 3818SOL     OW13895   9.751   8.153   5.857 -0.4095 -0.3946  0.7964
 3818SOL    HW113896   9.717   8.116   5.775 -0.7736 -2.1011  1.6870
 3818SOL    HW213897   9.832   8.106   5.874  0.0597  0.4808  1.0434
 3819SOL     OW13898   3.273  10.015   1.109  0.2520 -0.0395  0.3491
 3819SOL    HW113899   3.298  10.017   1.202  0.1471  1.3531  0.3789
 3819SOL    HW213900   3.332   9.952   1.069 -0.2661 -1.3077  1.5083
 3820SOL     OW13901   6.059   8.095   9.112  0.2379 -0.0322 -0.2762
 3820SOL    HW113902   6.045   8.017   9.166 -0.0583  0.2773  0.0978
 3820SOL    HW213903   6.111   8.153   9.167 -1.7414  1.1212  0.4689
 3821SOL     OW13904   8.072   7.783   4.516  1.0504  0.1046 -0.2322
 3821SOL    HW113905   7.976   7.791   4.515  0.9477 -0.7938 -2.2658
 3821SOL    HW213906   8.089   7.708   4.574  0.3496 -1.0040 -1.3966
 3822SOL     OW13907   8.701   4.117   7.719 -0.0853  0.1082 -0.0887
 3822SOL    HW113908   8.754   4.038   7.708  0.2030  0.2800  0.0538
 3822SOL    HW213909   8.740   4.180   7.658  0.3980  0.4989  0.6152
 3823SOL     OW13910   3.494   6.587   6.005  0.1297 -0.4708  0.0042
 3823SOL    HW113911   3.424   6.612   5.944  0.4058 -1.6054 -0.8136
 3823SOL    HW213912   3.573   6.625   5.966 -0.0595  1.1667  1.1476
 3824SOL     OW13913   1.318   4.871   5.547 -0.3984  0.3108 -0.6728
 3824SOL    HW113914   1.412   4.868   5.532 -0.4886 -0.3929 -1.1409
 3824SOL    HW213915   1.281   4.903   5.464 -0.6764 -0.8314 -1.0097
 3825SOL     OW13916   9.610   1.575   0.967 -0.1559 -0.1840  0.2859
 3825SOL    HW113917   9.586   1.486   0.992 -1.3766 -0.2852 -1.0776
 3825SOL    HW213918   9.528   1.613   0.935  0.2558  1.5678  1.2157
 3826SOL     OW13919   2.162   4.680   6.351 -0.6202 -0.6216 -0.0179
 3826SOL    HW113920   2.220   4.738   6.302 -0.0100 -0.7496  0.5450
 3826SOL    HW213921   2.095   4.654   6.288  0.4484 -1.2032 -0.9444
 3827SOL     OW13922   4.869   5.458   3.760 -0.6099 -0.5944 -0.1853
 3827SOL    HW113923   4.851   5.462   3.666  0.8122 -0.3767 -0.4781
 3827SOL    HW213924   4.930   5.384   3.769  1.2166  0.8815  0.1887
 3828SOL     OW13925   6.180   6.014   7.324  0.1195  0.0625  0.8055
 3828SOL    HW113926   6.231   6.095   7.330  1.8238 -0.9859  1.2750
 3828SOL    HW213927   6.139   6.006   7.411  0.2067  0.2529  0.8658
 3829SOL     OW13928   5.899   7.060   3.583  0.0898 -0.5341  0.3016
 3829SOL    HW113929   5.938   7.040   3.498  0.8206 -1.8487  0.9205
 3829SOL    HW213930   5.906   7.155   3.591  0.1688 -0.4089 -1.0252
 3830SOL     OW13931   7.107   4.724   6.879  0.1809 -0.3718  0.3032
 3830SOL    HW113932   7.163   4.795   6.909  1.4269 -0.5252 -1.5026
 3830SOL    HW213933   7.046   4.765   6.818 -1.3018 -0.3316  1.7267
 3831SOL     OW13934   9.174  10.257   6.233  0.2697 -0.0995  0.2817
 3831SOL    HW113935   9.217  10.181   6.273  1.6762 -0.1067 -1.1782
 3831SOL    HW213936   9.108  10.283   6.298  1.7388 -0.7384  2.1257
 3832SOL     OW13937   3.142   7.369   4.710 -0.6837 -0.0287 -0.0620
 3832SOL    HW113938   3.141   7.424   4.631  0.3322 -0.0741 -0.1216
 3832SOL    HW213939   3.117   7.282   4.678 -1.0867  0.1325 -0.1874
 3833SOL     OW13940   7.824   4.102   8.164 -0.1103 -0.1153 -0.1096
 3833SOL    HW113941   7.753   4.167   8.161  0.9032  1.1255  1.2904
 3833SOL    HW213942   7.785   4.025   8.205 -0.6402  0.5683  0.6938
 3834SOL     OW13943   2.187   8.708   1.214  0.2538  0.2398  0.0482
 3834SOL    HW113944   2.100   8.676   1.188  0.6001  1.0731 -2.3202
 3834SOL    HW213945   2.170   8.758   1.294 -1.3544 -0.1459 -0.0096
 3835SOL     OW13946   2.718   2.951   8.131 -0.5017 -0.4337  0.0328
 3835SOL    HW113947   2.747   3.008   8.059  0.8265  2.0813  2.3486
 3835SOL    HW213948   2.799   2.910   8.163 -0.6014  0.5017  1.6153
 3836SOL     OW13949   3.129   0.844   1.517  0.2506 -0.7002 -0.3508
 3836SOL    HW113950   3.137   0.767   1.572 -0.1475  0.0555  0.8070
 3836SOL    HW213951   3.211   0.892   1.530  0.5383 -0.9627 -1.1401
 3837SOL     OW13952   7.932   7.866   7.412  0.0002 -0.2548 -0.0444
 3837SOL    HW113953   7.889   7.887   7.330  0.2026  0.3841  0.0037
 3837SOL    HW213954   7.868   7.815   7.461 -1.2883  1.8284  0.5988
 3838SOL     OW13955   9.271   7.689   6.238  0.0785  0.0953  0.1340
 3838SOL    HW113956   9.248   7.596   6.227 -1.0855  0.5589 -1.7360
 3838SOL    HW213957   9.257   7.705   6.331 -1.7557 -1.1259  0.1433
 3839SOL     OW13958   7.110   4.479   4.936  0.4387 -0.1040 -0.5675
 3839SOL    HW113959   7.069   4.444   5.014 -0.2139 -0.1926 -0.9463
 3839SOL    HW213960   7.168   4.409   4.906  2.9450  0.9416  1.4253
 3840SOL     OW13961   4.605   3.557   6.880 -0.2158  0.2150 -0.1973
 3840SOL    HW113962   4.641   3.556   6.969  1.4706  0.4708 -0.8366
 3840SOL    HW213963   4.621   3.469   6.847 -1.3187 -0.0394 -0.0935
 3841SOL     OW13964   2.094   7.093   1.390 -0.0213  0.1203 -0.1840
 3841SOL    HW113965   2.015   7.070   1.340  0.1681  2.5384 -1.7774
 3841SOL    HW213966   2.161   7.034   1.357 -0.2396  0.7427 -1.8418
 3842SOL     OW13967   8.009   1.388   3.702  0.3965 -0.0428  0.5895
 3842SOL    HW113968   8.065   1.351   3.770 -2.2122 -3.9034  0.9628
 3842SOL    HW213969   8.049   1.360   3.620  0.6815 -0.0160  0.7174
 3843SOL     OW13970   3.702   9.555   9.598  0.0272  0.3567 -0.2957
 3843SOL    HW113971   3.700   9.585   9.507  2.6806  0.0180 -0.5711
 3843SOL    HW213972   3.751   9.623   9.644  1.0475 -0.7419  0.2840
 3844SOL     OW13973   7.467   2.224   2.887 -0.2792  0.5232  0.0428
 3844SOL    HW113974   7.459   2.165   2.812 -1.9061  2.1190 -1.1309
 3844SOL    HW213975   7.522   2.295   2.855 -0.2953  0.8079  0.6369
 3845SOL     OW13976   0.104   2.242   5.599 -0.0229 -0.1930  0.3991
 3845SOL    HW113977   0.180   2.232   5.541 -0.5351  1.0339 -0.5350
 3845SOL    HW213978   0.122   2.322   5.649  0.0929 -0.8632  1.4541
 3846SOL     OW13979   9.816   5.666   4.488 -0.2799 -0.7003 -0.3489
 3846SOL    HW113980   9.807   5.602   4.417 -1.1144 -1.0204  0.0462
 3846SOL    HW213981   9.747   5.730   4.472 -1.2092 -1.3922  0.8258
 3847SOL     OW13982   2.268   6.720   2.187  0.4005 -0.3287 -0.5246
 3847SOL    HW113983   2.240   6.792   2.244  0.5308  0.6874 -1.6960
 3847SOL    HW213984   2.359   6.704   2.211  0.3536 -0.1444 -0.2178
 3848SOL     OW13985   5.336   3.504   3.050  0.0984  0.1481 -0.5461
 3848SOL    HW113986   5.306   3.439   3.114  0.2760  1.5179  0.9893
 3848SOL    HW213987   5.313   3.466   2.966 -2.7409 -0.5065  0.4079
 3849SOL     OW13988   4.877   2.329   3.088 -0.2562 -0.0521  0.1282
 3849SOL    HW113989   4.824   2.316   3.009 -1.4240  1.4312  0.6135
 3849SOL    HW213990   4.896   2.423   3.089 -1.4576  0.2297  2.3042
 3850SOL     OW13991   3.278   2.247   8.144 -0.6507 -0.1131 -0.3257
 3850SOL    HW113992   3.318   2.197   8.216 -2.6823 -1.8173 -0.2707
 3850SOL    HW213993   3.352   2.282   8.095  0.8213  0.2593  1.9824
 3851SOL     OW13994   4.899   4.230   6.687 -0.5639  0.4358  0.3897
 3851SOL    HW113995   4.912   4.324   6.695 -2.7900  0.9152 -0.8280
 3851SOL    HW213996   4.982   4.191   6.715  0.1334  2.7077  1.6681
 3852SOL     OW13997   7.292   7.368   2.627 -0.3790  0.6269  0.4983
 3852SOL    HW113998   7.269   7.286   2.670  1.4727  0.5949  1.5264
 3852SOL    HW213999   7.277   7.352   2.534 -1.3758 -0.3831  0.8141
 3853SOL     OW14000   3.330  10.430   0.628 -0.1410  0.3360 -0.0024
 3853SOL    HW114001   3.338  10.525   0.636  0.3403  0.1803  1.7811
 3853SOL    HW214002   3.373  10.396   0.706  0.0460 -1.3810 -0.8124
 3854SOL     OW14003   3.503   1.476   6.137  0.5139 -0.2237  0.8937
 3854SOL    HW114004   3.547   1.444   6.215 -0.0832 -1.7351  0.6405
 3854SOL    HW214005   3.572   1.514   6.084  1.2879 -1.2297  1.1544
 3855SOL     OW14006   1.004   3.465   8.121 -0.3008  0.3705 -0.0133
 3855SOL    HW114007   1.054   3.386   8.141  0.9931  1.2886  0.5679
 3855SOL    HW214008   1.070   3.534   8.113 -1.3022  1.2198 -1.5508
 3856SOL     OW14009   7.095   9.199   8.197  0.0102  0.2142  0.6141
 3856SOL    HW114010   7.150   9.229   8.270  0.3196 -2.0123  1.3588
 3856SOL    HW214011   7.149   9.134   8.152 -0.6310  0.7141 -0.9207
 3857SOL     OW14012   8.211   5.259   0.230 -0.1232  0.7406  0.3990
 3857SOL    HW114013   8.272   5.326   0.199  1.1743 -0.5993 -0.0411
 3857SOL    HW214014   8.166   5.229   0.151 -0.0660  0.4826  0.4628
 3858SOL     OW14015   8.158   4.264   2.248 -0.0765  0.1851 -0.3226
 3858SOL    HW114016   8.092   4.248   2.180  0.5354  1.3639 -1.2306
 3858SOL    HW214017   8.192   4.177   2.268 -1.4995 -0.3850 -0.2308
 3859SOL     OW14018   4.797  10.261   5.156  0.1212 -0.0170 -0.2186
 3859SOL    HW114019   4.733  10.331   5.140 -1.0566 -0.6557  1.4236
 3859SOL    HW214020   4.802  10.254   5.251  0.9038 -1.5579 -0.3381
 3860SOL     OW14021   5.119   3.823   6.171 -0.2717  0.5817 -0.3004
 3860SOL    HW114022   5.037   3.861   6.141  0.7072  1.4919 -1.9933
 3860SOL    HW214023   5.143   3.760   6.103  1.0699  1.3029 -0.5341
 3861SOL     OW14024   1.666   3.724   6.474 -0.2065 -0.1767  0.0392
 3861SOL    HW114025   1.650   3.635   6.443 -1.6480 -0.0051  0.2000
 3861SOL    HW214026   1.631   3.726   6.563 -1.7529  0.9658 -0.5415
 3862SOL     OW14027   4.566   8.403   7.098 -0.2802  0.1520 -0.1892
 3862SOL    HW114028   4.647   8.450   7.116  0.2459 -0.6553 -0.3944
 3862SOL    HW214029   4.498   8.457   7.138 -0.1669  2.9674 -3.3501
 3863SOL     OW14030   6.514   2.274   8.431  0.5485  0.0429  0.3926
 3863SOL    HW114031   6.571   2.338   8.390  3.2634 -1.5252  1.4478
 3863SOL    HW214032   6.565   2.239   8.505 -1.9398 -1.2171  1.6692
 3864SOL     OW14033   9.710   2.343   3.863  0.3090  0.1148 -0.1766
 3864SOL    HW114034   9.707   2.253   3.897  1.7997  0.1329  0.0619
 3864SOL    HW214035   9.704   2.333   3.768  2.4486 -0.4239 -0.3085
 3865SOL     OW14036  10.089  10.455   5.396 -0.5936 -0.0403  0.2985
 3865SOL    HW114037  10.114  10.543   5.425  1.4294 -0.5260  0.1373
 3865SOL    HW214038  10.144  10.438   5.319 -0.7149 -1.5788  0.5188
 3866SOL     OW14039   1.176   5.042   2.842  0.2539 -0.2210 -0.1767
 3866SOL    HW114040   1.117   5.065   2.770  2.0010  0.4726 -1.4394
 3866SOL    HW214041   1.158   4.950   2.860 -0.2209 -0.4029 -1.4985
 3867SOL     OW14042   1.835   6.321   7.125  0.2844  0.4427  0.4358
 3867SOL    HW114043   1.831   6.299   7.032 -2.0908  1.0823  0.3085
 3867SOL    HW214044   1.862   6.240   7.168 -1.4766 -0.7608 -0.5873
 3868SOL     OW14045   3.760   8.400   5.685 -0.1916 -0.4393 -0.1089
 3868SOL    HW114046   3.789   8.341   5.615  1.8957  1.1909 -0.7363
 3868SOL    HW214047   3.702   8.462   5.641 -0.2412 -0.4288 -0.0286
 3869SOL     OW14048   9.314   6.121   3.225 -0.1148  0.8665 -0.4667
 3869SOL    HW114049   9.396   6.108   3.176 -0.2283  2.7170 -1.2360
 3869SOL    HW214050   9.342   6.136   3.315  0.1794 -1.2872 -0.1488
 3870SOL     OW14051   5.062   3.648   1.721 -0.2208  0.0730 -0.0887
 3870SOL    HW114052   5.059   3.570   1.666  2.6905  0.3374 -0.7887
 3870SOL    HW214053   5.132   3.702   1.683 -0.8415  2.1511  1.5055
 3871SOL     OW14054   3.890   2.707   9.310  0.0655  0.7551  0.4116
 3871SOL    HW114055   3.852   2.688   9.396  2.2249  0.1888  1.3072
 3871SOL    HW214056   3.862   2.797   9.292 -0.8933  0.6887  1.4474
 3872SOL     OW14057   6.348   4.107  10.222 -0.2451 -0.1591 -0.7475
 3872SOL    HW114058   6.371   4.183  10.168 -0.3029  1.8896  1.9373
 3872SOL    HW214059   6.264   4.078  10.187 -0.2123  0.9837 -1.8646
 3873SOL     OW14060   9.902   9.390  10.286 -0.6680 -0.4852  0.2024
 3873SOL    HW114061   9.977   9.333  10.300  0.4460  0.7691 -0.4338
 3873SOL    HW214062   9.853   9.349  10.214  0.1206 -0.6282 -0.2543
 3874SOL     OW14063   8.042   6.846   7.693  0.3432  0.5738  0.2270
 3874SOL    HW114064   7.956   6.851   7.652 -1.2100 -2.1264  2.7220
 3874SOL    HW214065   8.037   6.909   7.765  0.8399  1.1068 -0.2012
 3875SOL     OW14066   4.387   3.448   7.376  0.0045  0.1925  0.3954
 3875SOL    HW114067   4.349   3.531   7.404  0.0880 -0.1346  1.5358
 3875SOL    HW214068   4.480   3.456   7.396 -0.1246 -0.4964  1.3952
 3876SOL     OW14069   9.254  10.473   6.415 -0.2508 -0.0003  0.6736
 3876SOL    HW114070   9.332  10.507   6.460 -0.8373  0.0245  1.7009
 3876SOL    HW214071   9.191  10.545   6.419 -0.7230 -0.4193  0.8708
 3877SOL     OW14072   8.674   3.271   7.808 -0.1324 -0.1878  0.0000
 3877SOL    HW114073   8.688   3.339   7.874  0.2797  0.5322 -0.7992
 3877SOL    HW214074   8.685   3.189   7.855 -0.1878  0.3035  0.8936
 3878SOL     OW14075   7.890   8.269   7.103  0.6101  0.3229 -0.7254
 3878SOL    HW114076   7.956   8.201   7.088  0.7023 -0.0421  1.0694
 3878SOL    HW214077   7.806   8.222   7.096  0.6962 -0.3409  1.7685
 3879SOL     OW14078   4.050   2.586   8.901  0.0268 -0.0746 -0.0248
 3879SOL    HW114079   4.071   2.566   8.993  2.0980  0.0663 -0.4234
 3879SOL    HW214080   4.008   2.506   8.869 -0.7209 -0.1292  1.0292
 3880SOL     OW14081   7.692   6.168   1.509 -0.2967  0.4628 -0.1601
 3880SOL    HW114082   7.671   6.195   1.599  0.6232  1.6086 -0.2560
 3880SOL    HW214083   7.669   6.076   1.505 -2.6178  0.9493  0.5386
 3881SOL     OW14084   5.634   4.213   7.437 -0.0318  0.3291  0.0168
 3881SOL    HW114085   5.569   4.254   7.494 -1.6995  2.7560 -3.3053
 3881SOL    HW214086   5.585   4.181   7.362  2.3885  0.9220 -1.9682
 3882SOL     OW14087   7.911   4.829   8.812  0.2049  0.0613 -0.7414
 3882SOL    HW114088   7.932   4.741   8.844  1.2523  0.4993 -0.1680
 3882SOL    HW214089   7.842   4.860   8.871 -0.3785 -0.4756 -1.1297
 3883SOL     OW14090   7.348   9.004   7.757  0.4021  0.0454  0.0412
 3883SOL    HW114091   7.387   8.920   7.733  0.8302  0.8350 -2.2738
 3883SOL    HW214092   7.302   9.032   7.678 -0.4813  1.6004  1.0590
 3884SOL     OW14093   6.582   6.675   1.501  0.3813  0.3425 -0.3400
 3884SOL    HW114094   6.552   6.746   1.445  1.2791  0.0076 -1.2889
 3884SOL    HW214095   6.635   6.718   1.568 -1.8858  0.9106  1.2101
 3885SOL     OW14096   6.955   8.206   9.204  0.7385 -0.2775 -0.2017
 3885SOL    HW114097   6.884   8.151   9.169  1.0600 -0.2074 -0.9949
 3885SOL    HW214098   6.910   8.283   9.239  0.4539  0.1774 -1.4858
 3886SOL     OW14099   7.969   4.626   2.528  0.2884  0.2209  0.3584
 3886SOL    HW114100   7.914   4.665   2.461  0.6615 -0.2890 -0.2563
 3886SOL    HW214101   7.945   4.533   2.527 -0.3087  0.3485  1.5209
 3887SOL     OW14102   8.725  10.432   3.297 -0.6003 -0.2937 -0.3132
 3887SOL    HW114103   8.659  10.393   3.355 -0.9030  0.0574 -0.4141
 3887SOL    HW214104   8.739  10.519   3.334 -0.1151 -0.4054 -0.2362
 3888SOL     OW14105   4.769   4.291   4.384 -0.1008  0.5175  0.1277
 3888SOL    HW114106   4.846   4.267   4.434  0.5103  3.4770  0.8092
 3888SOL    HW214107   4.696   4.251   4.431  0.7473  0.4344  1.4095
 3889SOL     OW14108   6.752   7.077   7.601 -0.1035 -0.1170 -0.0122
 3889SOL    HW114109   6.770   7.073   7.695  1.9845  2.7041 -0.1509
 3889SOL    HW214110   6.667   7.119   7.594 -1.0103 -1.7636  0.5601
 3890SOL     OW14111   2.467   0.929   7.228 -0.1274  0.0208  0.1152
 3890SOL    HW114112   2.392   0.884   7.267 -0.2993  0.5056  0.3490
 3890SOL    HW214113   2.461   1.018   7.261 -1.8525  1.2688 -3.0875
 3891SOL     OW14114  10.092   2.048   8.652 -0.1105 -0.6828  0.3895
 3891SOL    HW114115  10.027   1.979   8.663 -0.1433 -0.6558  0.3650
 3891SOL    HW214116  10.067   2.091   8.570 -0.4699 -0.2342  0.7301
 3892SOL     OW14117   8.835   4.502   8.386 -0.1460 -0.4388 -0.3317
 3892SOL    HW114118   8.898   4.463   8.445 -1.1772 -1.5373  0.0800
 3892SOL    HW214119   8.774   4.550   8.443 -0.4650 -0.5139 -0.6026
 3893SOL     OW14120   7.217   9.718   9.863  0.0480 -0.6484  0.1350
 3893SOL    HW114121   7.248   9.661   9.933  2.0869  1.5831  1.2228
 3893SOL    HW214122   7.178   9.659   9.798  2.7887 -3.3310  0.7159
 3894SOL     OW14123   5.034   8.616   0.707 -0.6324  0.2410  0.1793
 3894SOL    HW114124   5.085   8.694   0.728 -0.6752  0.1336  0.6997
 3894SOL    HW214125   4.943   8.642   0.720 -0.6382  0.0608  0.5082
 3895SOL     OW14126   1.430   7.574   5.504 -0.1187 -0.2590 -0.2089
 3895SOL    HW114127   1.491   7.607   5.570  1.2177  0.8404 -1.8701
 3895SOL    HW214128   1.477   7.585   5.421 -1.9156 -1.0605 -1.4058
 3896SOL     OW14129   6.846   6.926  10.043 -0.0079  0.4749  0.6084
 3896SOL    HW114130   6.874   6.837  10.064  1.4539  0.9114  0.6580
 3896SOL    HW214131   6.901   6.950   9.968 -2.2040  0.4282 -1.1264
 3897SOL     OW14132  10.221   9.828   8.270  0.6346 -0.1317  0.0237
 3897SOL    HW114133  10.279   9.847   8.344 -2.6910 -1.2887  3.2813
 3897SOL    HW214134  10.162   9.903   8.267  0.5063 -0.2710 -1.2578
 3898SOL     OW14135   3.544   0.488   1.421 -0.0760  0.0187 -0.1803
 3898SOL    HW114136   3.519   0.573   1.458  0.0816 -0.5523  1.3004
 3898SOL    HW214137   3.492   0.480   1.341  0.3412  1.7562 -0.6695
 3899SOL     OW14138   3.553   9.586   1.812  0.1145  0.6557 -0.1459
 3899SOL    HW114139   3.567   9.501   1.854 -0.3309 -0.8371 -2.8169
 3899SOL    HW214140   3.638   9.631   1.820  0.7380 -0.5471  0.2142
 3900SOL     OW14141   9.458   8.586   8.832  0.0465  0.4744 -0.3340
 3900SOL    HW114142   9.379   8.532   8.827  1.7954 -2.2841 -0.1128
 3900SOL    HW214143   9.500   8.576   8.746  1.0353  0.4360  0.1338
 3901SOL     OW14144   3.900   4.278   4.272  0.6552  0.0195 -0.0539
 3901SOL    HW114145   3.991   4.262   4.295  1.0702  1.0258 -0.8812
 3901SOL    HW214146   3.868   4.194   4.239  1.1597 -0.4414  0.6227
 3902SOL     OW14147   1.787   1.058   4.553 -0.1773  0.1173 -0.6260
 3902SOL    HW114148   1.832   1.003   4.488 -1.3771 -1.4806 -0.1747
 3902SOL    HW214149   1.847   1.131   4.567  0.9490 -0.4402 -2.1614
 3903SOL     OW14150  10.128   4.451  10.042  0.3876  0.0138 -0.0089
 3903SOL    HW114151  10.189   4.511  10.085  1.8592 -0.5449 -1.2425
 3903SOL    HW214152  10.152   4.364  10.076  1.8675 -0.4936 -2.1597
 3904SOL     OW14153   2.951   1.523   3.442 -0.1133 -0.2871  0.0800
 3904SOL    HW114154   2.874   1.524   3.386  0.8438 -3.2475 -1.5128
 3904SOL    HW214155   3.006   1.595   3.410 -1.5460  0.9703  0.3428
 3905SOL     OW14156   0.747   5.644   4.436  0.2643  0.5423  0.2333
 3905SOL    HW114157   0.668   5.665   4.387  0.9590  3.7040  0.2426
 3905SOL    HW214158   0.811   5.617   4.370  0.8745  3.7534 -0.6787
 3906SOL     OW14159   3.768  10.044   2.234 -0.5471  0.3590 -0.9324
 3906SOL    HW114160   3.700  10.104   2.205 -0.9530  1.2676  1.6157
 3906SOL    HW214161   3.728   9.994   2.304  1.3591  0.9500  0.6859
 3907SOL     OW14162   2.755   6.170   6.703  0.6725 -0.4318 -0.2563
 3907SOL    HW114163   2.808   6.146   6.627  0.6078  0.7638 -0.7035
 3907SOL    HW214164   2.665   6.172   6.670  0.7341  0.9890 -0.4164
 3908SOL     OW14165   6.993   9.801   3.926 -0.0767 -0.1168  0.6095
 3908SOL    HW114166   7.004   9.866   3.995  2.6321  1.0449 -0.8017
 3908SOL    HW214167   7.048   9.831   3.854 -3.9104 -0.4177 -2.7983
 3909SOL     OW14168   8.548   5.547   8.127  0.4542 -0.2879  0.2122
 3909SOL    HW114169   8.490   5.617   8.099  2.4413  0.2287 -3.1903
 3909SOL    HW214170   8.582   5.576   8.211 -0.3894  1.8022 -0.1098
 3910SOL     OW14171   9.128   8.822   4.100 -0.2783  0.7078  0.5724
 3910SOL    HW114172   9.047   8.815   4.051 -0.6042  0.5864  1.1209
 3910SOL    HW214173   9.101   8.831   4.191  0.2788 -2.8828  1.2596
 3911SOL     OW14174   1.186   5.996   2.729 -0.5272 -0.4552 -0.6244
 3911SOL    HW114175   1.249   5.930   2.760  0.3646  0.1894 -1.0272
 3911SOL    HW214176   1.168   6.050   2.806  0.9305  0.5416 -0.9351
 3912SOL     OW14177   1.748   0.349   4.920  0.4234 -0.5674  0.3272
 3912SOL    HW114178   1.667   0.300   4.904 -0.1357  0.8609 -1.4860
 3912SOL    HW214179   1.755   0.351   5.016 -2.2356  0.1238  0.5922
 3913SOL     OW14180   5.702  10.045   6.515 -0.2754  0.0619  0.4285
 3913SOL    HW114181   5.666  10.120   6.468 -1.0667  0.5786  1.7996
 3913SOL    HW214182   5.664   9.969   6.472 -0.9732  0.5137  0.2339
 3914SOL     OW14183   6.578   6.703   4.324  0.9848 -0.0736 -0.6144
 3914SOL    HW114184   6.499   6.659   4.356  0.8692  0.9087  0.5331
 3914SOL    HW214185   6.650   6.661   4.371  1.0953 -0.5952 -1.2467
 3915SOL     OW14186   4.536   2.064   2.112  0.1937 -0.3228 -0.3691
 3915SOL    HW114187   4.460   2.049   2.057  0.6162  0.2393 -1.1207
 3915SOL    HW214188   4.536   1.990   2.174 -1.0111 -0.2682 -0.2816
 3916SOL     OW14189   5.618   7.721   8.968 -0.5340  0.0021 -0.1462
 3916SOL    HW114190   5.658   7.685   8.889 -1.2922 -0.4747 -0.3322
 3916SOL    HW214191   5.606   7.645   9.025  1.0723  0.5162  0.9291
 3917SOL     OW14192   3.321   6.392   4.179 -0.0157 -0.2032  0.2503
 3917SOL    HW114193   3.276   6.356   4.102  0.4216 -0.5303  0.1383
 3917SOL    HW214194   3.293   6.483   4.183  1.6077  0.4432 -1.5878
 3918SOL     OW14195   1.423   8.223   1.631 -0.2669 -0.0992  0.3270
 3918SOL    HW114196   1.431   8.129   1.614  0.2445 -0.2240  1.2345
 3918SOL    HW214197   1.509   8.259   1.610 -0.6082  0.2632 -0.5207
 3919SOL     OW14198   3.671   4.882   0.806 -0.1146 -0.1824  1.0347
 3919SOL    HW114199   3.686   4.788   0.795  1.0023  0.1258 -0.5785
 3919SOL    HW214200   3.596   4.900   0.749 -0.4512 -0.1275  1.4962
 3920SOL     OW14201   8.646  10.343   1.016 -0.5087 -0.1853 -0.1651
 3920SOL    HW114202   8.556  10.333   0.986  0.0510 -1.0331 -1.6603
 3920SOL    HW214203   8.688  10.260   0.995  0.5767  0.1072  0.7281
 3921SOL     OW14204   0.393   8.282   1.336 -0.3392 -0.1789 -0.2353
 3921SOL    HW114205   0.336   8.351   1.369  0.9041  0.7035  0.1084
 3921SOL    HW214206   0.428   8.240   1.414  0.7021  0.3131 -0.4285
 3922SOL     OW14207   1.515   5.310   6.314  0.1592 -0.0820 -0.5324
 3922SOL    HW114208   1.445   5.254   6.281 -0.8330 -0.1466  1.5713
 3922SOL    HW214209   1.584   5.303   6.247 -1.6340 -0.3379 -2.4545
 3923SOL     OW14210   9.843   5.019   3.573  0.1548 -0.0951 -0.1172
 3923SOL    HW114211   9.852   5.066   3.490 -1.4415  0.5835  0.0616
 3923SOL    HW214212   9.816   4.931   3.547 -2.2747  0.6435 -0.3119
 3924SOL     OW14213   0.733   6.617   8.966 -0.2340 -0.5853  0.0279
 3924SOL    HW114214   0.758   6.544   9.022 -1.5601 -0.7107  0.5001
 3924SOL    HW214215   0.647   6.644   8.999  0.1881  1.1467 -0.1651
 3925SOL     OW14216   9.619   3.727   5.309  0.4384  0.1976 -0.1480
 3925SOL    HW114217   9.532   3.688   5.319  0.3587  0.5488  0.5557
 3925SOL    HW214218   9.604   3.821   5.307  0.8700  0.2946  0.7721
 3926SOL     OW14219   2.284   0.018   3.353  0.6040 -0.5950 -0.5167
 3926SOL    HW114220   2.355  -0.045   3.337  0.1484 -2.3253  3.2978
 3926SOL    HW214221   2.204  -0.032   3.339  0.1607  0.1431 -0.6823
 3927SOL     OW14222   1.530   4.977   6.493  0.0003 -0.4611  0.0795
 3927SOL    HW114223   1.625   4.971   6.483 -0.0542 -1.9434  0.2331
 3927SOL    HW214224   1.517   5.054   6.549  1.1499 -0.5617  0.5186
 3928SOL     OW14225   0.454   7.293   5.552 -0.6737 -0.1397 -0.4238
 3928SOL    HW114226   0.543   7.275   5.582 -0.4093 -0.1862 -1.1966
 3928SOL    HW214227   0.419   7.207   5.528 -0.9360 -0.1249 -0.0928
 3929SOL     OW14228   6.566   5.249  10.368 -0.3090 -0.0815  0.7598
 3929SOL    HW114229   6.526   5.283  10.287 -1.0377 -1.8563  0.3304
 3929SOL    HW214230   6.641   5.306  10.382 -0.1838  0.3172 -1.1576
 3930SOL     OW14231   5.792   8.457   2.924 -0.0669  0.7549 -0.1390
 3930SOL    HW114232   5.869   8.504   2.958  0.7908  0.9139 -2.1610
 3930SOL    HW214233   5.796   8.371   2.966  0.6073  1.1269  0.5925
 3931SOL     OW14234   4.185   7.203   1.519  0.0905 -0.6921  0.4436
 3931SOL    HW114235   4.150   7.146   1.587 -1.2052 -0.9448 -0.4021
 3931SOL    HW214236   4.226   7.275   1.567 -1.8097 -0.2522  1.5236
 3932SOL     OW14237   0.058   1.608   5.142  0.1287 -0.9214  0.4160
 3932SOL    HW114238   0.023   1.526   5.174 -0.7561 -0.6787  0.1083
 3932SOL    HW214239   0.083   1.656   5.221 -2.2953 -0.2049  0.8349
 3933SOL     OW14240   5.064   0.583   1.056 -0.1163  0.1460  0.3722
 3933SOL    HW114241   5.151   0.548   1.039  0.1826  1.0048  0.0821
 3933SOL    HW214242   5.080   0.671   1.091 -0.8679  0.3387  0.2485
 3934SOL     OW14243   5.131   2.180   9.060  0.2793  0.0760 -0.2738
 3934SOL    HW114244   5.060   2.187   9.124 -0.9474  1.4605 -1.6839
 3934SOL    HW214245   5.211   2.185   9.111 -0.6545  0.6108  1.1864
 3935SOL     OW14246   7.164   9.139   9.469 -0.1453 -0.0950  0.5703
 3935SOL    HW114247   7.128   9.227   9.472 -1.2246 -0.5355  1.1282
 3935SOL    HW214248   7.092   9.082   9.495  0.7528 -1.0778  1.0214
 3936SOL     OW14249   6.692   6.321   4.310 -0.5177  0.2680 -0.0330
 3936SOL    HW114250   6.685   6.263   4.385 -0.8078  1.0770  0.5853
 3936SOL    HW214251   6.625   6.290   4.249 -0.9584  0.2125  0.4713
 3937SOL     OW14252   9.795   3.697   2.482 -0.0089 -0.0687  0.1109
 3937SOL    HW114253   9.881   3.692   2.442 -0.7381 -1.6969 -1.3579
 3937SOL    HW214254   9.797   3.631   2.552  0.1535  0.4038  0.5606
 3938SOL     OW14255   4.108   6.668   5.740 -0.0361  0.2695  0.0886
 3938SOL    HW114256   4.191   6.636   5.705 -0.0964  1.2438 -1.0113
 3938SOL    HW214257   4.063   6.707   5.665 -1.2054  0.3442  0.7962
 3939SOL     OW14258   1.950   3.547  10.197 -0.1585 -0.6352  0.1907
 3939SOL    HW114259   1.920   3.552  10.107 -0.7840  0.4021  0.4404
 3939SOL    HW214260   1.888   3.488  10.240 -0.5556 -0.1995  0.2130
 3940SOL     OW14261   5.195   1.109   3.745 -0.4258 -0.0834 -0.4955
 3940SOL    HW114262   5.231   1.057   3.817  0.1071  1.6506  0.5466
 3940SOL    HW214263   5.267   1.113   3.682 -0.0280  0.4221 -0.0164
 3941SOL     OW14264   2.051   9.949   3.680 -0.1676 -0.0420  0.2234
 3941SOL    HW114265   2.051   9.990   3.767  0.9537  0.3096  0.0692
 3941SOL    HW214266   2.054   9.855   3.698  2.4313  0.0414  0.6093
 3942SOL     OW14267   0.844   8.901   7.150  0.6010 -0.3908 -0.1165
 3942SOL    HW114268   0.751   8.884   7.168  0.8546  1.0632  3.1478
 3942SOL    HW214269   0.846   8.992   7.120  1.0422 -0.1277  0.6995
 3943SOL     OW14270   8.061   5.271   4.369 -0.3450 -0.3110 -0.3530
 3943SOL    HW114271   8.097   5.183   4.365 -0.6171 -0.3871 -1.1498
 3943SOL    HW214272   8.013   5.273   4.452  2.5238  0.2037  1.4440
 3944SOL     OW14273   6.628   8.166   7.479 -0.0063  0.2045  0.4087
 3944SOL    HW114274   6.532   8.172   7.480 -0.0133  0.3220 -0.3007
 3944SOL    HW214275   6.646   8.078   7.447  0.1110  0.8667 -1.4392
 3945SOL     OW14276   5.232   6.489   9.715  0.1649 -0.4313 -0.6192
 3945SOL    HW114277   5.222   6.401   9.679 -0.6759 -0.5128 -0.2187
 3945SOL    HW214278   5.259   6.542   9.641 -1.3427 -0.6323 -1.3490
 3946SOL     OW14279   5.517   3.265   4.491  0.1064 -0.7839 -0.1435
 3946SOL    HW114280   5.572   3.186   4.497  0.2697 -0.7962 -1.4692
 3946SOL    HW214281   5.540   3.303   4.407 -0.6379  0.2004  0.0886
 3947SOL     OW14282   1.327   2.976   2.767  0.3341  0.1772  0.3828
 3947SOL    HW114283   1.352   2.890   2.734 -1.7354  0.0528 -1.0416
 3947SOL    HW214284   1.274   2.958   2.845 -0.1498  0.1571  0.0495
 3948SOL     OW14285   3.652   8.057   2.930  0.3285  0.2540 -0.0408
 3948SOL    HW114286   3.663   7.979   2.984 -1.1811 -0.5907 -0.8873
 3948SOL    HW214287   3.707   8.041   2.853 -0.0453 -0.0231 -0.2529
 3949SOL     OW14288   0.340   9.249   7.081  0.4407  0.2757  0.3689
 3949SOL    HW114289   0.268   9.279   7.025  1.3671 -0.1546 -1.1138
 3949SOL    HW214290   0.310   9.267   7.170 -0.5496  2.2115 -0.2951
 3950SOL     OW14291   1.664   1.921   6.828  0.1849  0.1629 -0.3392
 3950SOL    HW114292   1.584   1.894   6.871  0.4841  0.2026  0.2463
 3950SOL    HW214293   1.722   1.950   6.899  0.9162 -0.3753 -0.7018
 3951SOL     OW14294   8.227   4.679   9.956  0.3462 -0.1796  0.5175
 3951SOL    HW114295   8.293   4.708  10.019  0.3786 -0.1915  0.4892
 3951SOL    HW214296   8.177   4.612  10.002  2.7712 -3.0311 -0.6942
 3952SOL     OW14297   0.776   3.936   3.666 -0.6009  0.2300 -0.1715
 3952SOL    HW114298   0.749   3.848   3.693 -0.0968  0.3185  0.6463
 3952SOL    HW214299   0.871   3.935   3.669 -0.5954  1.4024  1.9142
 3953SOL     OW14300   5.883   7.509   1.474 -0.4216  0.1826 -0.1554
 3953SOL    HW114301   5.957   7.545   1.522 -0.5590 -1.0086  1.0173
 3953SOL    HW214302   5.922   7.470   1.395  0.3307 -0.9874  0.7480
 3954SOL     OW14303   3.737   3.747  10.117 -0.1541 -0.3996  0.4590
 3954SOL    HW114304   3.819   3.698  10.122 -0.0910 -0.1729  1.9708
 3954SOL    HW214305   3.695   3.715  10.037  0.8204 -1.4209  0.3320
 3955SOL     OW14306   7.645   1.819  10.105 -0.0549 -0.7649 -0.1832
 3955SOL    HW114307   7.684   1.845  10.189 -3.0291  0.3113  0.9873
 3955SOL    HW214308   7.557   1.790  10.128 -0.9717 -0.4248 -2.9581
 3956SOL     OW14309   6.849   2.041   0.385 -0.6203 -0.0320  0.4605
 3956SOL    HW114310   6.829   1.948   0.395  0.2459 -0.2043  0.7240
 3956SOL    HW214311   6.945   2.045   0.390 -0.1980  0.3231 -3.9056
 3957SOL     OW14312   7.266   6.321   8.674  0.0606  0.1645 -0.1276
 3957SOL    HW114313   7.187   6.346   8.724  0.2743 -1.3124  0.9970
 3957SOL    HW214314   7.337   6.370   8.717  0.1428 -0.5814  0.6075
 3958SOL     OW14315   7.598   1.898   0.309 -0.3097  0.0212 -0.2001
 3958SOL    HW114316   7.582   1.841   0.234 -0.9130 -0.1303  0.0368
 3958SOL    HW214317   7.635   1.840   0.375 -0.2004  0.0627 -0.2246
 3959SOL     OW14318   5.228   1.717   5.583 -0.4111 -0.2559 -0.3604
 3959SOL    HW114319   5.285   1.641   5.594 -0.4076 -0.1669  0.2169
 3959SOL    HW214320   5.282   1.781   5.537  0.5699  0.5302  1.8093
 3960SOL     OW14321   4.660   9.906   5.641  0.1416 -0.5086 -0.1628
 3960SOL    HW114322   4.722   9.873   5.576  0.9848 -1.7796  1.2078
 3960SOL    HW214323   4.664   9.842   5.712 -0.3417  1.0872  1.3731
 3961SOL     OW14324   9.225  10.292   1.335 -0.3718  0.1850  0.3124
 3961SOL    HW114325   9.284  10.273   1.262 -2.3614 -2.5939 -0.7973
 3961SOL    HW214326   9.144  10.247   1.311 -1.6219  0.4418  3.5952
 3962SOL     OW14327   5.173   2.679   3.101 -0.1903  0.4734 -0.1492
 3962SOL    HW114328   5.185   2.756   3.045 -0.4967  0.3870 -0.3370
 3962SOL    HW214329   5.261   2.645   3.116 -0.0757  0.7264 -0.2576
 3963SOL     OW14330   2.434   6.008   1.507 -0.1030 -0.1929 -0.8635
 3963SOL    HW114331   2.520   5.969   1.520 -1.0076 -2.8962 -2.2222
 3963SOL    HW214332   2.449   6.078   1.442  0.9362 -1.3945 -1.9726
 3964SOL     OW14333  10.051   5.096   9.238 -0.0911  0.3141  0.0694
 3964SOL    HW114334  10.020   5.149   9.311  1.4332 -0.9891  1.7475
 3964SOL    HW214335   9.971   5.062   9.198 -0.9542  0.5870  1.4899
 3965SOL     OW14336   3.091   1.157   4.558 -0.5962  0.1196  0.7603
 3965SOL    HW114337   3.176   1.122   4.531  0.3949  1.6964  1.6840
 3965SOL    HW214338   3.080   1.127   4.648 -0.7593  0.3449  0.8171
 3966SOL     OW14339   0.320   3.292   4.023 -0.9216  0.2317  0.1975
 3966SOL    HW114340   0.382   3.356   4.059 -0.2976 -1.0159  1.4074
 3966SOL    HW214341   0.234   3.330   4.041 -0.5579  1.2999 -0.2065
 3967SOL     OW14342   1.859   9.277   7.978  0.2173 -0.2093 -0.1315
 3967SOL    HW114343   1.793   9.311   7.917  0.0720 -1.0498 -0.4543
 3967SOL    HW214344   1.809   9.230   8.044  0.3319  1.1270  0.9677
 3968SOL     OW14345  10.196   6.162   7.816  0.3597  0.4456 -0.9368
 3968SOL    HW114346  10.204   6.257   7.827  0.1679  0.3693 -0.0112
 3968SOL    HW214347  10.105   6.143   7.840  0.8208 -0.1531  0.4308
 3969SOL     OW14348   7.601   6.698   4.435 -0.1728  0.1200 -0.1904
 3969SOL    HW114349   7.624   6.759   4.365 -0.7306 -1.7920 -2.1753
 3969SOL    HW214350   7.547   6.748   4.495  2.2313  2.4877  0.1982
 3970SOL     OW14351   6.177   6.089   1.724 -0.6396  0.1567 -0.3112
 3970SOL    HW114352   6.271   6.072   1.734 -0.4432  1.6463  0.5778
 3970SOL    HW214353   6.165   6.179   1.753 -1.8837  1.0326 -3.1463
 3971SOL     OW14354   7.698   2.751   4.517 -0.4610 -0.3573  0.2646
 3971SOL    HW114355   7.625   2.812   4.517 -0.4500 -0.3398  0.6715
 3971SOL    HW214356   7.687   2.700   4.437 -0.5417  0.0920 -0.0131
 3972SOL     OW14357   2.511   7.815   1.571 -0.0577  0.1912  0.9000
 3972SOL    HW114358   2.489   7.744   1.511  1.5305  0.3986  0.0452
 3972SOL    HW214359   2.504   7.775   1.658  1.4749 -1.2401  0.4072
 3973SOL     OW14360   6.621   3.353   7.225 -0.1690  0.4544  0.4572
 3973SOL    HW114361   6.632   3.405   7.145  1.2709  1.5644  1.3482
 3973SOL    HW214362   6.546   3.392   7.269  0.7541  1.6733  1.0000
 3974SOL     OW14363   7.221   2.775   8.264 -0.0033 -0.0330 -0.0460
 3974SOL    HW114364   7.209   2.852   8.319 -0.8750  0.7996 -1.3276
 3974SOL    HW214365   7.291   2.799   8.203  0.3088 -0.5835  0.0872
 3975SOL     OW14366   1.579   3.434  10.263 -0.1712  0.2288  0.4714
 3975SOL    HW114367   1.485   3.448  10.273  0.0235  0.4367  2.3919
 3975SOL    HW214368   1.585   3.360  10.202 -1.4395  2.1109 -2.1746
 3976SOL     OW14369   7.726  10.258   9.847 -0.0930 -0.4730 -0.6963
 3976SOL    HW114370   7.695  10.344   9.818  1.2892  0.0705 -0.6593
 3976SOL    HW214371   7.716  10.202   9.771 -2.9980 -0.8851 -0.1232
 3977SOL     OW14372   6.912   0.799   8.465 -0.0418  0.0514 -0.0147
 3977SOL    HW114373   6.834   0.771   8.512  0.4715  0.1900  0.9441
 3977SOL    HW214374   6.884   0.875   8.415 -0.7317 -0.4299 -0.3753
 3978SOL     OW14375  10.002   6.015   0.404 -0.2500 -0.1926  0.2880
 3978SOL    HW114376   9.972   5.973   0.485  1.3519 -1.3977  0.3061
 3978SOL    HW214377  10.003   6.108   0.425 -1.9469 -0.2687  0.9215
 3979SOL     OW14378   3.214   0.235   4.010 -0.0697 -0.1036  0.3828
 3979SOL    HW114379   3.186   0.182   4.084  0.4419  0.0486  0.6870
 3979SOL    HW214380   3.138   0.291   3.991  0.0953  0.4601  1.3421
 3980SOL     OW14381   8.923   9.976   2.954  0.6902  0.1823  0.4086
 3980SOL    HW114382   8.966   9.970   2.868 -0.0344  0.5680  0.0106
 3980SOL    HW214383   8.916   9.885   2.983 -0.4670 -0.1055 -0.6630
 3981SOL     OW14384   5.468   2.274   4.735 -0.3001  0.2302  0.7808
 3981SOL    HW114385   5.413   2.333   4.683  0.0642 -0.2685 -0.1871
 3981SOL    HW214386   5.556   2.311   4.730  0.0162 -0.6237 -0.2023
 3982SOL     OW14387   1.029   4.664   7.262 -0.4291 -0.0675 -0.7210
 3982SOL    HW114388   1.119   4.662   7.230  0.5715  1.0391  1.7289
 3982SOL    HW214389   1.001   4.572   7.262  0.8234 -0.4678 -1.1795
 3983SOL     OW14390   2.402   9.717   5.502  0.7795  0.7216 -0.2394
 3983SOL    HW114391   2.474   9.669   5.543 -0.3716 -0.0415  0.9650
 3983SOL    HW214392   2.374   9.661   5.430 -0.2463 -0.2433  0.8685
 3984SOL     OW14393   5.084   9.731   6.806 -0.4966 -0.5287  0.1136
 3984SOL    HW114394   5.120   9.781   6.878 -1.9088  0.0682  0.4518
 3984SOL    HW214395   5.115   9.642   6.819  0.2062 -0.1889  0.7885
 3985SOL     OW14396   5.335   7.480   4.150 -0.4645 -0.0825 -0.4583
 3985SOL    HW114397   5.360   7.434   4.071  0.9809  0.9381 -0.6384
 3985SOL    HW214398   5.330   7.572   4.124 -0.7675  0.1790  0.4552
 3986SOL     OW14399   4.001   7.832   4.099 -0.2042 -0.0532  0.5732
 3986SOL    HW114400   4.055   7.777   4.156 -1.7632  0.3892  2.5732
 3986SOL    HW214401   3.923   7.851   4.150 -0.9441  1.7789 -1.0965
 3987SOL     OW14402   4.237   8.029   9.335  0.1175  0.3016 -0.0574
 3987SOL    HW114403   4.195   8.114   9.335 -0.3807  0.1278  2.5598
 3987SOL    HW214404   4.165   7.966   9.343  0.3303 -0.5927 -3.3608
 3988SOL     OW14405   2.619   1.788   3.511 -0.3909 -0.4381 -0.0453
 3988SOL    HW114406   2.693   1.825   3.558 -1.2953  1.5723 -0.1332
 3988SOL    HW214407   2.562   1.752   3.580  0.1102 -0.9615  0.1002
 3989SOL     OW14408   2.747   7.941   0.212 -0.4820 -0.8587 -0.0504
 3989SOL    HW114409   2.757   7.915   0.120 -0.1372 -2.5076  0.4270
 3989SOL    HW214410   2.661   7.983   0.216 -0.8483 -1.5011 -0.9683
 3990SOL     OW14411   6.056  10.095   9.419  0.3268  0.1116 -0.5492
 3990SOL    HW114412   6.057  10.007   9.382 -1.2067  0.8510 -2.5656
 3990SOL    HW214413   5.978  10.098   9.474  0.6944  0.0536 -0.0165
 3991SOL     OW14414   4.871   4.173   9.560 -0.3534  0.6942 -0.3154
 3991SOL    HW114415   4.951   4.140   9.602 -0.6937  0.4319  0.1263
 3991SOL    HW214416   4.903   4.215   9.480  0.5188  2.7657  1.0309
 3992SOL     OW14417   6.950   0.857   5.506  0.4207 -0.4705  0.3712
 3992SOL    HW114418   7.022   0.908   5.469  0.7910  0.1265  1.8474
 3992SOL    HW214419   6.974   0.766   5.489  0.9144 -0.2366 -0.2188
 3993SOL     OW14420   9.865   0.184   0.911  0.7104 -0.2376 -0.4255
 3993SOL    HW114421   9.915   0.122   0.859  0.5558 -0.1542 -0.6755
 3993SOL    HW214422   9.809   0.129   0.966 -1.2053 -0.3415 -2.3649
 3994SOL     OW14423   4.476   2.577   0.371  0.0199 -0.5341  0.1039
 3994SOL    HW114424   4.481   2.618   0.457 -2.3459 -1.2202  0.6338
 3994SOL    HW214425   4.437   2.643   0.314 -2.3723 -1.4134  0.6074
 3995SOL     OW14426   9.301   7.883   7.808  0.1669  0.3449  0.3932
 3995SOL    HW114427   9.220   7.864   7.761 -0.1797  0.0624  1.0932
 3995SOL    HW214428   9.364   7.819   7.774 -0.5307 -0.9742  1.4952
 3996SOL     OW14429   6.041   4.197   3.045 -0.7470 -0.4640  0.1146
 3996SOL    HW114430   5.967   4.249   3.076  0.3962  0.7768  0.9415
 3996SOL    HW214431   6.025   4.185   2.952 -1.2901  1.0310 -0.0198
 3997SOL     OW14432   0.667   7.062   5.352  0.2793  0.1700  0.2077
 3997SOL    HW114433   0.640   7.151   5.330 -1.2090 -0.1398  0.6208
 3997SOL    HW214434   0.736   7.072   5.417  1.8191  1.0296 -1.4731
 3998SOL     OW14435   5.389   2.081   2.312 -0.1283  0.5810  0.1434
 3998SOL    HW114436   5.397   1.999   2.360  1.8129  1.1610  0.8839
 3998SOL    HW214437   5.411   2.058   2.222  0.9643  0.3576  0.4486
 3999SOL     OW14438   5.306   8.782   7.046 -0.4765  0.6971  0.1337
 3999SOL    HW114439   5.365   8.823   6.983 -1.2063 -1.3026 -1.9951
 3999SOL    HW214440   5.363   8.753   7.117  0.4760  2.3659  0.0956
 4000SOL     OW14441   0.199   4.088   7.928  0.1202 -0.2248  0.4759
 4000SOL    HW114442   0.115   4.072   7.972 -0.1374  0.0426  0.0843
 4000SOL    HW214443   0.182   4.162   7.870  0.2665 -0.9950 -0.5703
 4001SOL     OW14444   8.143   0.301   6.488 -0.3508  0.2207 -0.6670
 4001SOL    HW114445   8.047   0.299   6.489 -0.3380 -0.6513 -0.1266
 4001SOL    HW214446   8.166   0.364   6.557 -0.5266 -0.6931  0.2446
 4002SOL     OW14447   0.123   6.012  10.029  0.3025  0.5533 -0.5524
 4002SOL    HW114448   0.183   5.959   9.975  0.4692  0.6895 -0.5016
 4002SOL    HW214449   0.130   5.974  10.116 -1.4407 -0.9381 -1.0024
 4003SOL     OW14450   9.775   3.972   7.096 -0.5223 -0.0937  0.2537
 4003SOL    HW114451   9.827   4.002   7.170  2.0958 -1.1846 -1.0190
 4003SOL    HW214452   9.820   4.006   7.019 -2.3648 -0.1519 -0.9183
 4004SOL     OW14453   2.351   0.061   7.570  0.1555  0.1355  0.0371
 4004SOL    HW114454   2.373   0.106   7.488  0.6237 -2.6751 -1.5044
 4004SOL    HW214455   2.274   0.008   7.547 -0.0447 -0.2856  1.6051
 4005SOL     OW14456   0.175   5.434   1.915  0.1439 -0.2955  0.1815
 4005SOL    HW114457   0.104   5.370   1.921 -0.0609 -0.0695  0.2151
 4005SOL    HW214458   0.140   5.512   1.959  1.3435 -1.0031  2.5800
 4006SOL     OW14459   6.393   6.205   6.458 -0.3694 -0.1091 -0.5122
 4006SOL    HW114460   6.298   6.200   6.448 -0.3559  0.4007 -0.8973
 4006SOL    HW214461   6.405   6.247   6.544 -0.4779 -1.7190  0.3349
 4007SOL     OW14462   6.102   9.705   4.140 -0.3743 -0.2400 -0.2462
 4007SOL    HW114463   6.154   9.629   4.168 -3.1032 -1.9615  0.5312
 4007SOL    HW214464   6.078   9.685   4.050  0.9980  1.0199 -0.9381
 4008SOL     OW14465   0.519   6.634   6.477 -0.6093 -0.0151  0.0662
 4008SOL    HW114466   0.437   6.683   6.464 -0.9226 -1.0431 -2.1503
 4008SOL    HW214467   0.583   6.681   6.424  0.0364  0.1905  1.0001
 4009SOL     OW14468   7.047   9.225   7.167 -0.0194 -0.6293  0.2463
 4009SOL    HW114469   7.035   9.316   7.194  1.8822 -0.5552  1.0176
 4009SOL    HW214470   6.972   9.179   7.204 -0.8937  0.5757  0.0239
 4010SOL     OW14471   0.312   5.800   9.249  0.1694 -0.1239  0.5646
 4010SOL    HW114472   0.289   5.711   9.276 -0.8468  0.1522  0.6459
 4010SOL    HW214473   0.393   5.819   9.297 -0.2817 -0.5483  1.5379
 4011SOL     OW14474   1.446   5.808   5.824 -0.0682  0.1031  0.0472
 4011SOL    HW114475   1.361   5.808   5.779  0.4373 -1.8095 -1.0311
 4011SOL    HW214476   1.446   5.727   5.875  1.1500  0.0269 -0.0553
 4012SOL     OW14477   2.911   1.170   8.920 -0.3183 -0.2867  0.3861
 4012SOL    HW114478   2.848   1.146   8.852  0.6827 -1.0892 -0.2898
 4012SOL    HW214479   2.959   1.090   8.938 -0.5315 -0.0810  2.0474
 4013SOL     OW14480   3.482   3.609   7.007  0.3707 -1.2187 -0.2225
 4013SOL    HW114481   3.406   3.556   6.987  0.4035 -1.9016  1.3163
 4013SOL    HW214482   3.556   3.563   6.967 -0.1329  0.2881 -3.1389
 4014SOL     OW14483   2.101   7.520   4.809  0.1962 -0.6606 -0.4295
 4014SOL    HW114484   2.015   7.479   4.822 -0.3068  0.4764 -0.0254
 4014SOL    HW214485   2.145   7.463   4.746  1.4360 -4.6002  3.4753
 4015SOL     OW14486   2.001   6.660   2.155  0.2087  0.1375 -0.1616
 4015SOL    HW114487   1.996   6.591   2.089 -0.6436 -2.4831  2.4623
 4015SOL    HW214488   2.095   6.677   2.165  0.3709  0.2874 -1.6743
 4016SOL     OW14489   9.355   1.159   7.231 -0.6719 -0.0897 -0.0754
 4016SOL    HW114490   9.359   1.088   7.167  0.1129 -0.4483  0.3476
 4016SOL    HW214491   9.446   1.188   7.240 -0.4757 -1.1605  2.0642
 4017SOL     OW14492   9.174   7.780   7.001  0.4610 -0.6336  0.1430
 4017SOL    HW114493   9.153   7.698   7.046  0.6355  0.6772  2.7786
 4017SOL    HW214494   9.191   7.843   7.071  1.5887  1.3708 -1.7957
 4018SOL     OW14495   1.292   2.738   5.342  0.1733 -0.4300  0.8185
 4018SOL    HW114496   1.369   2.718   5.396 -0.3102  0.2841  1.8002
 4018SOL    HW214497   1.307   2.827   5.311 -0.9087  0.2955  2.2430
 4019SOL     OW14498   5.534   7.646   0.088  0.2217  0.0935 -0.5613
 4019SOL    HW114499   5.586   7.686   0.019  0.7910  0.9492  0.3395
 4019SOL    HW214500   5.577   7.562   0.105 -0.9493 -0.9569 -2.4212
 4020SOL     OW14501   1.062   2.463   2.367  0.4804 -0.4708 -0.3506
 4020SOL    HW114502   0.986   2.418   2.330 -1.1555  0.2168  1.9592
 4020SOL    HW214503   1.027   2.545   2.402  2.7250  0.9157 -1.1376
 4021SOL     OW14504   4.789   4.750   2.647  0.3240 -0.1526  0.5241
 4021SOL    HW114505   4.741   4.824   2.685 -0.0325  0.3245 -0.7980
 4021SOL    HW214506   4.823   4.784   2.564  0.0063 -1.5187 -0.1984
 4022SOL     OW14507   8.220   0.012   5.614 -0.4648  0.2477 -0.5161
 4022SOL    HW114508   8.134   0.050   5.599  0.0047  1.2655 -0.7364
 4022SOL    HW214509   8.267   0.079   5.663 -0.6398 -1.3527  1.9981
 4023SOL     OW14510   5.088   8.391   0.121 -0.3185  0.0696  0.0980
 4023SOL    HW114511   5.050   8.342   0.048 -1.1769  2.0323 -0.8359
 4023SOL    HW214512   5.066   8.339   0.198 -2.6277 -0.2315 -0.6736
 4024SOL     OW14513   2.171   7.627   0.406  0.0814  0.2058  0.2683
 4024SOL    HW114514   2.113   7.607   0.480 -0.3823 -0.3396 -0.2323
 4024SOL    HW214515   2.259   7.628   0.444 -0.1939  0.3999  0.9121
 4025SOL     OW14516   9.177   9.092   1.981 -0.7282  0.1279  0.0627
 4025SOL    HW114517   9.211   9.002   1.977  0.7259  0.5914  1.2372
 4025SOL    HW214518   9.176   9.121   1.890 -0.0664 -0.6671 -0.2151
 4026SOL     OW14519   3.493   9.784   2.115  0.0590  0.0668  0.2033
 4026SOL    HW114520   3.456   9.840   2.182 -2.0982 -1.4871  0.4021
 4026SOL    HW214521   3.495   9.838   2.036  0.4351  1.1846  0.9639
 4027SOL     OW14522   3.682   6.228   1.067  0.2707  0.2514  0.4203
 4027SOL    HW114523   3.749   6.162   1.050 -0.0977 -0.2345  0.8277
 4027SOL    HW214524   3.727   6.312   1.054  0.3900 -0.0656 -1.4301
 4028SOL     OW14525   5.004   7.762   6.190  0.2673 -0.0364 -0.2083
 4028SOL    HW114526   4.944   7.808   6.131  2.6725  3.7461 -0.0505
 4028SOL    HW214527   5.009   7.818   6.268  1.4058 -2.0049  1.2225
 4029SOL     OW14528   3.377   2.509   3.356 -0.1354  0.5722 -0.0964
 4029SOL    HW114529   3.458   2.561   3.361 -0.4189  0.9616  0.5939
 4029SOL    HW214530   3.307   2.572   3.372 -0.4090 -0.2685  2.5005
 4030SOL     OW14531   0.354   4.011   9.126 -0.0353 -0.3131  0.4716
 4030SOL    HW114532   0.363   4.090   9.073 -0.8625  0.0632  0.8793
 4030SOL    HW214533   0.264   4.014   9.158 -0.0516 -1.3921  0.5442
 4031SOL     OW14534   6.082   2.442   0.666 -0.2914  0.0063 -0.3489
 4031SOL    HW114535   6.034   2.514   0.707 -0.2963 -0.3115  0.2101
 4031SOL    HW214536   6.115   2.478   0.584  1.7926  1.4260  1.0112
 4032SOL     OW14537   6.708   7.873   7.476 -0.6702 -0.3178  0.1285
 4032SOL    HW114538   6.726   7.789   7.519  1.4684 -0.2595 -0.5163
 4032SOL    HW214539   6.753   7.866   7.392  2.3431  2.5438  1.2565
 4033SOL     OW14540   2.193   0.947   4.817 -0.0209 -0.3377  0.3414
 4033SOL    HW114541   2.195   0.852   4.811 -0.1129 -0.2932 -0.5169
 4033SOL    HW214542   2.145   0.965   4.897 -2.2814 -1.0057 -0.7750
 4034SOL     OW14543   8.172   6.284   9.608 -0.1018 -0.1016  0.1833
 4034SOL    HW114544   8.123   6.344   9.664 -0.3581 -0.1410  0.0058
 4034SOL    HW214545   8.185   6.206   9.662 -0.5391 -0.2248  0.1211
 4035SOL     OW14546   1.521   8.793  10.295 -0.3487 -0.0914 -0.0985
 4035SOL    HW114547   1.555   8.818  10.209  0.3268  0.9191  0.4436
 4035SOL    HW214548   1.536   8.698  10.300  0.3109 -0.0354 -0.7874
 4036SOL     OW14549   6.655   6.239   2.734  0.2202  0.0043  0.4899
 4036SOL    HW114550   6.599   6.184   2.789  1.0809 -1.4917 -0.0693
 4036SOL    HW214551   6.726   6.265   2.792  1.0061 -1.3841  0.2052
 4037SOL     OW14552   7.509   8.986   8.118 -0.6312 -0.7705  0.3537
 4037SOL    HW114553   7.596   8.947   8.129 -0.4773 -0.4526  0.2732
 4037SOL    HW214554   7.462   8.961   8.197 -0.6185 -1.3373  0.1896
 4038SOL     OW14555   9.704   1.015   4.494 -0.0040  0.6395 -0.3846
 4038SOL    HW114556   9.762   1.086   4.466  0.0479  0.5612 -0.4749
 4038SOL    HW214557   9.716   0.946   4.429  1.6874 -0.3886  0.9383
 4039SOL     OW14558   3.446   5.337   1.552  0.0458 -0.8870 -0.2055
 4039SOL    HW114559   3.528   5.299   1.519  1.3050  0.1431  1.5999
 4039SOL    HW214560   3.394   5.261   1.578  1.0426 -1.5123  0.0343
 4040SOL     OW14561   7.898   5.117   9.939 -0.4995  0.1419 -0.0834
 4040SOL    HW114562   7.935   5.102   9.852 -1.8323  0.7415 -0.7783
 4040SOL    HW214563   7.942   5.052   9.995  0.9289  0.2500 -1.0207
 4041SOL     OW14564  10.340   6.431   9.429  0.0709 -0.3902  0.3771
 4041SOL    HW114565  10.359   6.437   9.335 -0.5311 -0.3959  0.2461
 4041SOL    HW214566  10.404   6.488   9.470  0.1717 -0.1799 -0.0628
 4042SOL     OW14567   1.545   4.135   5.861  0.1130 -0.0946  0.4957
 4042SOL    HW114568   1.601   4.185   5.801  0.6988  1.7406  2.4351
 4042SOL    HW214569   1.601   4.065   5.894  1.0515  1.1519  1.6839
 4043SOL     OW14570   0.096   2.007   4.848 -0.5162  0.1160 -0.5664
 4043SOL    HW114571   0.060   1.921   4.869  1.3051 -0.6914 -0.6034
 4043SOL    HW214572   0.176   1.989   4.799 -0.8960  1.8725 -1.9507
 4044SOL     OW14573   9.123   1.703  10.256  0.0586 -0.3034  0.1899
 4044SOL    HW114574   9.121   1.744  10.342  0.1826  1.4207 -0.6025
 4044SOL    HW214575   9.211   1.719  10.223 -0.5636  0.7496 -1.0389
 4045SOL     OW14576   4.217   5.978   4.113 -0.2564 -0.0007 -0.0750
 4045SOL    HW114577   4.246   5.976   4.022  0.0284  0.1275  0.0131
 4045SOL    HW214578   4.297   5.991   4.163 -0.0964 -2.1558  0.3474
 4046SOL     OW14579   1.932   9.998   6.425  0.3917  0.4441  0.2046
 4046SOL    HW114580   1.885  10.033   6.349  0.1974 -0.5564 -0.1654
 4046SOL    HW214581   1.866   9.947   6.472  1.2125 -1.6037 -0.7221
 4047SOL     OW14582   7.612   3.834   5.357 -0.5965 -0.2519  0.0965
 4047SOL    HW114583   7.550   3.891   5.403 -0.6773 -0.1713 -0.1109
 4047SOL    HW214584   7.639   3.885   5.281 -0.3384 -0.3211  0.1422
 4048SOL     OW14585   4.209   8.947   7.333  0.2310  0.4755 -0.2409
 4048SOL    HW114586   4.179   8.884   7.268  2.2541 -0.6680 -0.1496
 4048SOL    HW214587   4.151   8.933   7.408 -1.2276  0.8292 -1.2488
 4049SOL     OW14588   2.034   4.184   1.227  0.0997  0.1884  0.1771
 4049SOL    HW114589   2.041   4.206   1.134  1.1564  1.3809  0.5121
 4049SOL    HW214590   1.952   4.225   1.254  0.5539  1.1657  0.1060
 4050SOL     OW14591  10.474   3.138   3.499  0.2604  0.1372 -0.2395
 4050SOL    HW114592  10.409   3.143   3.569 -0.3602  1.6155 -0.8741
 4050SOL    HW214593  10.460   3.218   3.448 -0.1231 -1.4471 -2.7797
 4051SOL     OW14594   2.256   5.305   9.270  0.6037  0.1700  0.5352
 4051SOL    HW114595   2.173   5.257   9.275 -0.0933  1.0534 -1.4898
 4051SOL    HW214596   2.322   5.238   9.254 -0.1971 -0.2828 -1.0812
 4052SOL     OW14597   1.759   4.772   3.348  0.2408 -0.3866 -1.1033
 4052SOL    HW114598   1.752   4.683   3.315 -1.5004 -0.7876  0.2098
 4052SOL    HW214599   1.771   4.762   3.443 -0.6934  0.7681 -0.8396
 4053SOL     OW14600   7.543   1.917   8.101 -0.7566 -0.0932  0.3862
 4053SOL    HW114601   7.634   1.932   8.075 -1.0061 -0.1052 -0.5015
 4053SOL    HW214602   7.498   1.999   8.079 -0.8721  0.0886  1.2646
 4054SOL     OW14603   4.728   3.063   9.927 -0.3009 -0.0578 -0.3559
 4054SOL    HW114604   4.718   2.969   9.913 -0.5141  0.1417 -1.7044
 4054SOL    HW214605   4.822   3.079   9.919  0.0148 -0.4324  1.9878
 4055SOL     OW14606  10.406   0.012   6.325  0.3656 -0.5244 -0.4974
 4055SOL    HW114607  10.497  -0.016   6.312  0.3560 -0.5946 -0.4112
 4055SOL    HW214608  10.389   0.071   6.251  0.2358 -1.1134 -0.9397
 4056SOL     OW14609   4.660   0.018   8.256 -0.3318  0.6198  0.2516
 4056SOL    HW114610   4.646   0.064   8.173  0.5115  1.7269  0.6881
 4056SOL    HW214611   4.624   0.077   8.322 -1.0602 -0.2819  0.6769
 4057SOL     OW14612   5.003   5.222   8.270 -0.4530 -0.6454  0.1337
 4057SOL    HW114613   4.926   5.165   8.265 -1.5164  0.7064  0.3953
 4057SOL    HW214614   5.001   5.256   8.359  1.0235 -1.3154  0.4546
 4058SOL     OW14615   1.513   8.502   6.347  0.4038 -0.2469  0.1557
 4058SOL    HW114616   1.586   8.461   6.301  1.0366  0.6627  0.3096
 4058SOL    HW214617   1.548   8.522   6.434  0.9925  2.8317 -0.6648
 4059SOL     OW14618   2.017   9.802   0.977  0.3038 -0.1961 -0.4450
 4059SOL    HW114619   1.937   9.854   0.972 -0.5865 -1.6290 -2.4352
 4059SOL    HW214620   2.087   9.862   0.951 -0.1142  0.9994  1.0652
 4060SOL     OW14621   7.812   4.653   2.775  0.1878 -0.5450 -0.3984
 4060SOL    HW114622   7.873   4.586   2.806  0.5187 -0.1037 -0.0762
 4060SOL    HW214623   7.843   4.675   2.687  0.8227  0.0467 -0.0410
 4061SOL     OW14624   5.063   6.317   7.800  0.4618  0.1766 -0.5086
 4061SOL    HW114625   4.969   6.321   7.818  0.7143  1.7086  0.6363
 4061SOL    HW214626   5.081   6.224   7.786 -1.0158 -0.2695  0.3708
 4062SOL     OW14627   9.453   2.065   1.624  0.6489  0.0182  0.5287
 4062SOL    HW114628   9.387   2.049   1.557  0.1613 -2.3582  1.4854
 4062SOL    HW214629   9.515   2.125   1.582 -0.0590 -0.7312 -1.7568
 4063SOL     OW14630   6.289   4.751   6.472  0.1734  0.7295  0.7843
 4063SOL    HW114631   6.354   4.684   6.452  1.6083  2.0935  0.7316
 4063SOL    HW214632   6.288   4.756   6.568 -0.8493 -0.1868  0.8510
 4064SOL     OW14633   9.886   5.390   5.836  0.1541 -0.0617  0.4379
 4064SOL    HW114634   9.870   5.344   5.754  0.4926  0.2856  0.1741
 4064SOL    HW214635   9.834   5.470   5.830  1.5197  0.8130 -0.1964
 4065SOL     OW14636   8.942   4.539   6.677  0.1152  0.3483 -0.0201
 4065SOL    HW114637   8.948   4.485   6.755  0.3251 -0.9837 -0.9322
 4065SOL    HW214638   8.933   4.477   6.605  1.6257  1.4808 -1.2462
 4066SOL     OW14639   6.287   4.300   4.065  0.0866  0.1472  0.1607
 4066SOL    HW114640   6.337   4.314   4.145 -0.7332 -0.6796  0.8338
 4066SOL    HW214641   6.272   4.388   4.030  0.1985  0.5317  1.0635
 4067SOL     OW14642   1.716   8.257   5.471  0.5859  0.4818 -0.5985
 4067SOL    HW114643   1.806   8.226   5.474  0.0157 -1.2810  2.3363
 4067SOL    HW214644   1.724   8.353   5.479  2.2339  0.2503  1.6215
 4068SOL     OW14645   3.917   8.496   4.681 -0.1705 -0.0803  0.4627
 4068SOL    HW114646   3.897   8.462   4.769  1.2400  0.7057  1.1354
 4068SOL    HW214647   3.863   8.444   4.622 -3.0539  1.0010  1.9480
 4069SOL     OW14648   4.022   2.075   4.458 -0.4407  0.0774 -0.1910
 4069SOL    HW114649   3.994   2.073   4.550 -0.8167 -0.6830 -0.3231
 4069SOL    HW214650   4.109   2.116   4.462 -0.1153 -0.6560  0.5930
 4070SOL     OW14651   5.559   0.113   0.248  0.6811 -0.3356 -0.4078
 4070SOL    HW114652   5.592   0.102   0.159 -0.9409  0.4988 -1.1492
 4070SOL    HW214653   5.605   0.191   0.280  3.1638 -2.0234  0.4888
 4071SOL     OW14654   6.649   3.227   9.496 -0.4757 -0.4961  0.3813
 4071SOL    HW114655   6.593   3.175   9.553  0.5812 -1.3052  0.7065
 4071SOL    HW214656   6.597   3.304   9.475 -0.7099  0.0974  2.8477
 4072SOL     OW14657   9.496  10.475   7.849 -0.3632  0.0883 -0.3374
 4072SOL    HW114658   9.423  10.436   7.896  1.1068 -1.6388  0.6084
 4072SOL    HW214659   9.566  10.482   7.913  0.3362  1.7360 -1.2061
 4073SOL     OW14660   6.649   9.991   9.918  0.0087  0.5281  0.5094
 4073SOL    HW114661   6.696   9.956   9.994  0.6231 -2.1976 -1.0177
 4073SOL    HW214662   6.717  10.014   9.856 -0.5472  1.0832  0.0933
 4074SOL     OW14663   7.191   7.050   4.460 -0.0478 -0.1464  0.2905
 4074SOL    HW114664   7.129   7.083   4.394  0.8919  0.0397 -0.5289
 4074SOL    HW214665   7.188   6.955   4.450 -0.0665 -0.1303  0.1248
 4075SOL     OW14666   2.679   6.447   8.038 -0.3543 -0.0005 -0.2027
 4075SOL    HW114667   2.672   6.520   8.100 -0.5415 -0.7614  0.6892
 4075SOL    HW214668   2.680   6.369   8.093  3.7106 -0.5927 -0.8042
 4076SOL     OW14669   2.459   1.862   5.752  0.1970  0.0509  0.2922
 4076SOL    HW114670   2.454   1.950   5.715 -0.4196 -0.5221 -1.0622
 4076SOL    HW214671   2.376   1.822   5.728 -0.3388 -0.3027  2.5432
 4077SOL     OW14672   6.353   7.117   7.151 -0.2690  0.6067 -0.8371
 4077SOL    HW114673   6.418   7.184   7.131  0.5133 -0.2653 -1.3031
 4077SOL    HW214674   6.346   7.065   7.071 -1.0923  0.3171 -0.5903
 4078SOL     OW14675   5.517   4.900   8.508  0.6765 -0.6052  0.2865
 4078SOL    HW114676   5.482   4.831   8.563  0.7207  1.3366  2.9790
 4078SOL    HW214677   5.581   4.945   8.565  0.3774  1.8315 -1.1755
 4079SOL     OW14678   3.475  10.116   9.165 -0.8379 -0.0235 -0.2798
 4079SOL    HW114679   3.497  10.209   9.157 -0.5466  0.0273  0.9377
 4079SOL    HW214680   3.464  10.087   9.074  1.1334  0.7089 -0.8208
 4080SOL     OW14681   0.467   4.544   9.894 -0.4063 -0.7319  0.5463
 4080SOL    HW114682   0.476   4.622   9.840 -1.3291  0.6684  2.2907
 4080SOL    HW214683   0.541   4.489   9.870  0.8426  1.1139 -0.0783
 4081SOL     OW14684   1.026   3.141   4.306 -0.5144 -0.1475 -0.0150
 4081SOL    HW114685   0.961   3.141   4.237  0.3942 -2.3348 -0.9620
 4081SOL    HW214686   1.087   3.072   4.282 -0.2204 -1.1134  3.0399
 4082SOL     OW14687   7.852   4.641   0.153 -0.5070 -0.4071  0.3296
 4082SOL    HW114688   7.846   4.579   0.080 -0.3879 -1.7610  1.4351
 4082SOL    HW214689   7.772   4.694   0.145 -1.0517 -1.2681 -0.1548
 4083SOL     OW14690   4.294   1.320   7.936  0.3160 -0.0613  0.0197
 4083SOL    HW114691   4.228   1.310   7.867  0.5279 -1.0695 -0.0630
 4083SOL    HW214692   4.351   1.391   7.906  0.0968 -0.1382 -0.5898
 4084SOL     OW14693   3.042   7.548   5.394  0.6497 -0.0734  0.3085
 4084SOL    HW114694   3.114   7.546   5.331  0.6696  0.4406  0.3102
 4084SOL    HW214695   3.065   7.484   5.460  0.2921 -1.1573 -0.5772
 4085SOL     OW14696   9.781   0.393  10.179  0.3502 -0.5504  0.1006
 4085SOL    HW114697   9.780   0.430  10.091  0.7839  0.0191  0.3339
 4085SOL    HW214698   9.695   0.416  10.215  0.1949 -0.7336 -0.1430
 4086SOL     OW14699   3.802   5.042   1.237  0.5272  0.3883  0.1358
 4086SOL    HW114700   3.879   5.064   1.289  0.0097 -0.6559  1.4005
 4086SOL    HW214701   3.799   4.946   1.239  0.1436  0.3599 -1.3230
 4087SOL     OW14702   4.477   1.558   6.699  0.1852 -0.3980  0.0103
 4087SOL    HW114703   4.443   1.471   6.678  0.7355 -0.5919 -0.0941
 4087SOL    HW214704   4.497   1.597   6.614  1.7150 -0.9024  0.0964
 4088SOL     OW14705   4.816   1.419   4.614  0.3062  0.1101 -0.8173
 4088SOL    HW114706   4.855   1.374   4.689 -0.0291 -0.0006 -0.7076
 4088SOL    HW214707   4.760   1.486   4.653  0.5828  0.4373 -0.9768
 4089SOL     OW14708   3.393   9.251   5.911  0.3868  0.0828 -0.2390
 4089SOL    HW114709   3.371   9.330   5.861  0.7845 -0.1281 -0.7512
 4089SOL    HW214710   3.419   9.284   5.997 -0.5274  0.4311 -0.0881
 4090SOL     OW14711   4.137   6.486   5.505 -0.5618  0.7149  0.6032
 4090SOL    HW114712   4.054   6.442   5.487 -1.1464  2.4295 -1.2795
 4090SOL    HW214713   4.171   6.509   5.418  2.1715 -0.3370  1.2674
 4091SOL     OW14714   1.678   0.920   6.725  0.3120 -0.0034  0.0835
 4091SOL    HW114715   1.665   1.014   6.716 -0.0471  0.0363  0.8864
 4091SOL    HW214716   1.626   0.896   6.802  0.8043 -0.7631  0.1951
 4092SOL     OW14717   5.585   4.804   3.969  0.1706 -0.0664 -0.4141
 4092SOL    HW114718   5.630   4.859   4.032 -0.7765  1.0520 -0.6924
 4092SOL    HW214719   5.584   4.717   4.009  3.2193 -0.3460 -0.7362
 4093SOL     OW14720   8.789   8.317   7.061 -0.1340 -0.1709 -0.5323
 4093SOL    HW114721   8.718   8.314   7.125  0.7431 -0.0616  0.4691
 4093SOL    HW214722   8.811   8.410   7.053 -0.3250 -0.1705 -1.0938
 4094SOL     OW14723   1.239   7.473   8.200 -0.0166 -0.4253  0.3749
 4094SOL    HW114724   1.251   7.476   8.105 -0.5942 -1.3648  0.2620
 4094SOL    HW214725   1.262   7.561   8.230 -2.3236  0.7056 -0.9320
 4095SOL     OW14726   9.769   3.470   4.222 -0.3994 -0.4921  0.1710
 4095SOL    HW114727   9.839   3.412   4.250  0.7148  1.9354  2.9784
 4095SOL    HW214728   9.780   3.478   4.127  2.5243 -0.9352  0.3886
 4096SOL     OW14729   3.710  10.023   8.769  0.5555 -0.5020 -0.7844
 4096SOL    HW114730   3.774   9.963   8.730  0.7195  0.3044 -1.7976
 4096SOL    HW214731   3.641   9.966   8.803  1.4404 -1.3456 -0.3418
 4097SOL     OW14732   0.787   7.297   1.017  0.0102 -0.4384 -0.5269
 4097SOL    HW114733   0.740   7.214   1.026 -0.9716 -0.0652 -1.8337
 4097SOL    HW214734   0.808   7.303   0.924  1.2330  0.1843 -0.2411
 4098SOL     OW14735  10.481   8.547   6.022  0.5355  0.2964  0.7079
 4098SOL    HW114736  10.523   8.465   5.996 -0.3591 -0.2295  0.8947
 4098SOL    HW214737  10.438   8.528   6.105  0.7502  1.1071  1.0207
 4099SOL     OW14738   2.472   2.170   4.489 -0.0581  0.4271  0.0549
 4099SOL    HW114739   2.458   2.169   4.584 -0.6505  0.1292 -0.0316
 4099SOL    HW214740   2.398   2.218   4.454  0.8277  1.6814 -0.1723
 4100SOL     OW14741   0.601   1.045   2.859 -0.4621  0.1283  0.4776
 4100SOL    HW114742   0.678   1.092   2.828 -1.4529  0.9602 -0.8033
 4100SOL    HW214743   0.613   0.955   2.827 -0.1581  0.3160  0.0537
 4101SOL     OW14744   3.012   6.284   2.637 -0.7391  0.1945  0.8010
 4101SOL    HW114745   2.928   6.276   2.684 -1.2846  0.3910 -0.1134
 4101SOL    HW214746   3.044   6.194   2.630 -0.9637  0.0979  0.9910
 4102SOL     OW14747   4.797   0.599   6.693 -0.0496 -0.3348  0.1799
 4102SOL    HW114748   4.879   0.635   6.726 -1.2630  2.9513 -0.0758
 4102SOL    HW214749   4.823   0.524   6.640  2.7765  0.6265  0.0827
 4103SOL     OW14750   3.076   5.964   9.169 -0.4047  0.1295 -0.4690
 4103SOL    HW114751   3.035   5.880   9.188 -0.4622  0.1960 -0.2950
 4103SOL    HW214752   3.119   5.952   9.085  1.4018 -0.7410  0.5305
 4104SOL     OW14753   7.620   1.506  10.402  0.0881 -0.0584 -0.3740
 4104SOL    HW114754   7.692   1.558  10.437  0.2678 -0.2689 -0.4332
 4104SOL    HW214755   7.542   1.541  10.445  0.1967  0.3260 -0.4879
 4105SOL     OW14756   3.768   3.942   3.574 -0.2584  0.2287  0.0964
 4105SOL    HW114757   3.844   3.979   3.619  0.1510 -0.6426  0.1415
 4105SOL    HW214758   3.799   3.922   3.486 -0.2372 -0.7133  0.3027
 4106SOL     OW14759   0.993   2.929   1.962 -0.3576 -0.1563  0.3071
 4106SOL    HW114760   0.963   2.945   2.052 -0.5511 -1.6319  0.5212
 4106SOL    HW214761   1.087   2.913   1.971 -0.0426  1.3436  0.0146
 4107SOL     OW14762   6.388   5.003  10.296 -0.4887 -0.2535 -0.0100
 4107SOL    HW114763   6.361   5.094  10.282  0.9491  0.0327 -1.1730
 4107SOL    HW214764   6.324   4.951  10.248  0.4134  0.3503 -1.9702
 4108SOL     OW14765   4.053   3.484   1.048 -0.1137 -0.2740  0.3272
 4108SOL    HW114766   4.081   3.456   1.135  1.0724  1.3838  0.5421
 4108SOL    HW214767   4.087   3.417   0.988 -2.4216 -2.3696  1.1958
 4109SOL     OW14768   3.466   4.972   3.036 -0.3580  0.3499  0.4109
 4109SOL    HW114769   3.482   4.918   3.114  0.0626  1.6292  1.2565
 4109SOL    HW214770   3.546   5.024   3.027 -1.0925  1.4607  0.1606
 4110SOL     OW14771   4.931   8.993  10.469 -0.0503  0.4202  1.0187
 4110SOL    HW114772   4.911   9.086  10.454 -1.7005 -0.0092  0.3001
 4110SOL    HW214773   4.857   8.947  10.431  1.7169 -1.3069 -0.5205
 4111SOL     OW14774   2.173   3.055   4.621 -0.3001  0.3302  0.7937
 4111SOL    HW114775   2.086   3.060   4.581  0.2272 -2.3577 -0.9420
 4111SOL    HW214776   2.234   3.061   4.548  0.9203  0.4777  1.7859
 4112SOL     OW14777   3.309   0.415   1.979 -0.0089 -0.0926  0.0807
 4112SOL    HW114778   3.318   0.426   2.073  1.7663 -0.0128 -0.0631
 4112SOL    HW214779   3.243   0.346   1.969 -1.1062  0.7418  1.3172
 4113SOL     OW14780   2.566   5.280   7.997 -0.0259 -0.3584 -0.1530
 4113SOL    HW114781   2.627   5.213   7.966 -2.0887 -1.8050 -1.3360
 4113SOL    HW214782   2.495   5.231   8.040 -0.6305  1.2092  0.7250
 4114SOL     OW14783   1.400   5.378   6.963  0.0869 -0.2695 -0.7926
 4114SOL    HW114784   1.495   5.370   6.971  0.0268  0.0371  0.5269
 4114SOL    HW214785   1.378   5.455   7.016 -1.2254 -2.2224  1.7359
 4115SOL     OW14786   2.027   2.670   3.334  0.3105 -0.1305  0.0732
 4115SOL    HW114787   2.111   2.625   3.347  0.5057  0.2026 -0.0028
 4115SOL    HW214788   2.016   2.722   3.413  0.6037  0.4907 -0.2826
 4116SOL     OW14789   3.307   9.711   2.753  0.5015  0.2203 -0.6615
 4116SOL    HW114790   3.214   9.695   2.739  0.3342  1.7998 -1.5878
 4116SOL    HW214791   3.311   9.765   2.832  0.7466 -0.8048  0.0508
 4117SOL     OW14792   1.276   0.670   2.914  0.0485 -0.1206 -0.1130
 4117SOL    HW114793   1.325   0.590   2.938 -0.7249 -1.3208 -2.2822
 4117SOL    HW214794   1.331   0.713   2.849  0.3277  1.0127  0.8455
 4118SOL     OW14795   7.894   7.414   7.497 -0.0446  0.6216 -0.0753
 4118SOL    HW114796   7.975   7.364   7.502 -0.5228 -0.0396  1.4486
 4118SOL    HW214797   7.918   7.492   7.446  1.5232  0.4018  0.2611
 4119SOL     OW14798   8.365   6.504   9.319  0.8562  0.1348 -0.4046
 4119SOL    HW114799   8.405   6.560   9.386  2.0780 -0.0517 -0.9386
 4119SOL    HW214800   8.372   6.415   9.355  0.0844  0.1885 -0.1110
 4120SOL     OW14801   9.519   9.155   3.594 -0.1220  0.2426  0.0059
 4120SOL    HW114802   9.482   9.104   3.666 -0.1718  0.3450  0.0533
 4120SOL    HW214803   9.605   9.116   3.578  0.7410  1.4272  1.4392
 4121SOL     OW14804   4.080  10.465   1.738  0.3331 -0.3461  0.7743
 4121SOL    HW114805   4.065  10.402   1.809  0.1099  0.2772  1.2884
 4121SOL    HW214806   3.994  10.504   1.722  0.4615 -0.2001  0.4244
 4122SOL     OW14807   7.698   9.578   7.407  0.2064 -0.6977 -0.1148
 4122SOL    HW114808   7.623   9.638   7.404  0.7576 -0.0045 -0.4607
 4122SOL    HW214809   7.710   9.559   7.500 -0.0167 -0.3155 -0.0031
 4123SOL     OW14810   6.117   5.883   1.264  0.2229 -0.2007  0.2931
 4123SOL    HW114811   6.025   5.909   1.272  0.3887  0.2776  0.7071
 4123SOL    HW214812   6.118   5.790   1.285  0.2312  0.3931  3.2610
 4124SOL     OW14813   7.476   7.880   5.122  0.1352 -0.2811  0.4010
 4124SOL    HW114814   7.436   7.881   5.209 -0.8661  0.4674 -0.0447
 4124SOL    HW214815   7.417   7.828   5.068  0.6522 -0.5885  0.1215
 4125SOL     OW14816   6.213   5.419   2.618  0.4327 -0.5873 -0.2054
 4125SOL    HW114817   6.188   5.331   2.649 -0.4867  0.1171  1.1508
 4125SOL    HW214818   6.266   5.454   2.690 -0.6206  0.5881  0.0350
 4126SOL     OW14819   6.163   8.146   1.686  0.3637  0.3369 -0.5829
 4126SOL    HW114820   6.211   8.221   1.652  0.4315  0.0399 -1.1524
 4126SOL    HW214821   6.225   8.073   1.679 -0.1127 -0.0185 -1.1893
 4127SOL     OW14822   6.695   5.126   0.540  0.4390  0.1323  0.5814
 4127SOL    HW114823   6.719   5.119   0.447  1.6979  1.9323  0.7051
 4127SOL    HW214824   6.756   5.067   0.584  0.7513  0.2843  0.3624
 4128SOL     OW14825   8.384   5.179   3.652 -0.3164 -0.5424  0.1529
 4128SOL    HW114826   8.333   5.099   3.637 -1.8046  0.2809  0.6381
 4128SOL    HW214827   8.455   5.175   3.587 -2.1605 -0.7483 -1.9575
 4129SOL     OW14828   4.352   0.822   2.961 -0.2508 -0.1453  0.3105
 4129SOL    HW114829   4.404   0.816   3.041  0.8874  0.4462 -0.3598
 4129SOL    HW214830   4.275   0.873   2.986  0.7451  1.1891  0.7243
 4130SOL     OW14831   7.897   3.558   2.458 -0.3716  0.5933  0.1450
 4130SOL    HW114832   7.927   3.648   2.447  0.3315  0.3042 -0.4272
 4130SOL    HW214833   7.967   3.516   2.507  0.6886 -0.3272 -1.9961
 4131SOL     OW14834   3.877   1.499   5.735 -0.1461 -0.3247  0.1941
 4131SOL    HW114835   3.952   1.484   5.792 -1.1970 -1.5429  1.3059
 4131SOL    HW214836   3.889   1.438   5.662  1.0672  1.0607 -0.8353
 4132SOL     OW14837   3.077   4.997   0.158  0.9068  0.2947 -0.3221
 4132SOL    HW114838   3.005   4.984   0.096 -1.0609 -2.8622  2.3037
 4132SOL    HW214839   3.140   4.929   0.135 -0.1652 -1.3821  1.3704
 4133SOL     OW14840   1.217   1.860   0.477  0.1331  0.7187 -0.3399
 4133SOL    HW114841   1.136   1.896   0.512 -0.3397 -0.3177 -0.3282
 4133SOL    HW214842   1.277   1.934   0.474 -1.1574  1.7714 -1.4396
 4134SOL     OW14843   4.549   7.633   2.605  0.2588 -0.3882 -0.0853
 4134SOL    HW114844   4.617   7.599   2.547  0.4083 -2.1538  1.0535
 4134SOL    HW214845   4.469   7.588   2.578  0.0666 -0.2678  0.2775
 4135SOL     OW14846  10.383   2.228   2.471  0.4565  0.1042  0.4174
 4135SOL    HW114847  10.314   2.254   2.410  0.9826  0.0748 -0.2004
 4135SOL    HW214848  10.457   2.205   2.416  0.8564 -0.1958  1.0598
 4136SOL     OW14849   3.092   1.265   0.071 -0.0325  0.6155 -0.0907
 4136SOL    HW114850   3.102   1.294   0.161 -0.4162 -0.1703  0.2191
 4136SOL    HW214851   3.000   1.285   0.050 -1.1946 -2.7667  1.0780
 4137SOL     OW14852   4.394  10.451   4.291 -0.7183  0.5625 -0.1770
 4137SOL    HW114853   4.418  10.364   4.259 -0.1050 -0.1045  1.9277
 4137SOL    HW214854   4.380  10.502   4.212  0.0085 -1.1410 -1.4855
 4138SOL     OW14855   9.024   1.548   2.348 -0.0501 -0.0258  0.0750
 4138SOL    HW114856   9.118   1.564   2.353  0.1399 -0.9526 -0.4309
 4138SOL    HW214857   8.991   1.571   2.435  0.2951  2.3769 -0.3634
 4139SOL     OW14858  10.269   4.782   0.475  0.0873  0.1173  0.7907
 4139SOL    HW114859  10.320   4.755   0.551  0.5694  0.7504  0.7033
 4139SOL    HW214860  10.334   4.795   0.406 -0.2276  0.6147  0.5820
 4140SOL     OW14861  10.284   0.596   9.663 -0.4715 -0.3923 -0.2595
 4140SOL    HW114862  10.227   0.670   9.641 -0.1628 -0.7147 -2.3230
 4140SOL    HW214863  10.242   0.520   9.623  0.2465 -1.0099  0.1228
 4141SOL     OW14864   4.124   2.931   6.935 -0.1091 -0.4788  0.1708
 4141SOL    HW114865   4.060   2.922   6.864 -0.2700 -1.5764  0.4241
 4141SOL    HW214866   4.104   3.015   6.975  0.1803  0.3017 -1.2660
 4142SOL     OW14867   4.422   9.310   8.810  0.1648 -0.3315 -0.7030
 4142SOL    HW114868   4.451   9.233   8.859 -1.6457 -0.6648 -0.0896
 4142SOL    HW214869   4.500   9.338   8.762  1.2646 -1.6295  0.2382
 4143SOL     OW14870   1.649   8.580   0.344 -0.0830 -0.3544  0.0144
 4143SOL    HW114871   1.667   8.526   0.267  2.8117 -0.7680  0.8760
 4143SOL    HW214872   1.631   8.516   0.414 -1.3467 -0.0178  0.0243
 4144SOL     OW14873   1.925   6.887   2.639 -0.3931  0.7094 -0.2820
 4144SOL    HW114874   1.854   6.837   2.679 -0.3229  1.5572  0.9671
 4144SOL    HW214875   1.998   6.825   2.633 -1.2560 -0.2059 -1.6970
 4145SOL     OW14876  10.407   8.342   6.204  0.1163 -0.3230 -0.3419
 4145SOL    HW114877  10.453   8.284   6.264 -0.6395 -0.4477  0.1267
 4145SOL    HW214878  10.319   8.306   6.198  0.2855 -0.5735 -1.8738
 4146SOL     OW14879   4.577   6.504   5.894  0.2177  0.2724 -0.3401
 4146SOL    HW114880   4.626   6.573   5.850  0.0672 -0.3770 -1.5639
 4146SOL    HW214881   4.623   6.491   5.977  1.7812  0.0914 -1.1989
 4147SOL     OW14882   8.225   0.834   9.346  0.3581 -0.1248  0.3580
 4147SOL    HW114883   8.308   0.831   9.298  0.0462  0.5792 -0.2469
 4147SOL    HW214884   8.215   0.746   9.382  0.6620 -0.6302 -0.7520
 4148SOL     OW14885   2.141   8.504   2.551  0.0532 -0.2831 -0.3329
 4148SOL    HW114886   2.081   8.460   2.491 -0.0960 -4.5145  2.5007
 4148SOL    HW214887   2.226   8.464   2.535  0.2601 -0.5921  1.3599
 4149SOL     OW14888   5.180   0.209   5.092  0.7248 -0.4137 -0.2291
 4149SOL    HW114889   5.258   0.163   5.061  2.2440  1.3834  0.6976
 4149SOL    HW214890   5.214   0.273   5.154 -1.5104  0.4812  0.1469
 4150SOL     OW14891   1.044   3.430   9.746 -0.6495  0.2229 -0.2561
 4150SOL    HW114892   1.067   3.490   9.818  0.4303  1.5826 -1.6575
 4150SOL    HW214893   0.951   3.447   9.730 -1.3064 -1.1493  1.7056
 4151SOL     OW14894   3.228   1.851   5.093  0.1089 -0.1678 -0.1462
 4151SOL    HW114895   3.230   1.946   5.080  0.7020 -0.1773 -0.1619
 4151SOL    HW214896   3.313   1.831   5.132  0.3642 -0.8035 -0.9989
 4152SOL     OW14897   0.861   6.730   5.379  0.0606 -0.0826  0.0431
 4152SOL    HW114898   0.780   6.764   5.340  0.1803 -2.3420 -2.5363
 4152SOL    HW214899   0.831   6.666   5.444 -0.2132 -0.0833 -0.0806
 4153SOL     OW14900   7.384   3.730   2.282  0.8079 -0.6240 -0.1343
 4153SOL    HW114901   7.332   3.736   2.202  0.3916 -2.3093 -0.0337
 4153SOL    HW214902   7.422   3.817   2.293  0.5982 -0.2653 -1.9708
 4154SOL     OW14903   6.732   5.782   1.153  0.0499 -0.4150  0.1711
 4154SOL    HW114904   6.765   5.715   1.212  0.8107 -0.4863 -0.3176
 4154SOL    HW214905   6.637   5.769   1.153 -0.1128  0.3689  2.3036
 4155SOL     OW14906  10.304   2.907   1.803  0.7586 -0.3673  0.3273
 4155SOL    HW114907  10.389   2.873   1.777  0.3951  0.1569 -1.7565
 4155SOL    HW214908  10.254   2.912   1.721 -0.2869  2.0781  1.0137
 4156SOL     OW14909   9.253   9.918   2.575 -1.1181 -0.1878  0.1069
 4156SOL    HW114910   9.325   9.970   2.612  0.5902 -3.0311  1.1142
 4156SOL    HW214911   9.283   9.895   2.487 -0.6503 -1.5372  0.5954
 4157SOL     OW14912   3.556   1.564   1.282 -0.1369 -0.2763 -0.2393
 4157SOL    HW114913   3.461   1.575   1.273 -0.4003 -0.4406  1.8444
 4157SOL    HW214914   3.566   1.508   1.359  1.6890  1.7068  1.0784
 4158SOL     OW14915   9.425   2.663   3.451 -0.1969 -0.0866  0.3787
 4158SOL    HW114916   9.482   2.733   3.481 -1.9007  0.4045  2.7417
 4158SOL    HW214917   9.475   2.583   3.465  0.9313  0.4869 -0.2415
 4159SOL     OW14918  10.013   7.945   5.039 -0.3824  0.0028 -0.4733
 4159SOL    HW114919   9.924   7.962   5.007  0.4244  0.3279 -2.7186
 4159SOL    HW214920  10.060   7.912   4.962  1.7686  1.0104  0.3441
 4160SOL     OW14921   5.769   8.077   7.121 -0.3276 -0.3571  0.2834
 4160SOL    HW114922   5.808   8.127   7.050  0.5511  0.1394  1.0952
 4160SOL    HW214923   5.679   8.061   7.093  0.0783 -0.4133 -1.0534
 4161SOL     OW14924   2.115   0.108   3.050  0.0468 -0.6242 -0.4094
 4161SOL    HW114925   2.059   0.034   3.026 -0.3405  0.2135 -2.2203
 4161SOL    HW214926   2.203   0.082   3.023  0.1044 -0.8802  0.0185
 4162SOL     OW14927   3.879   1.615   1.377 -0.7462 -0.1500 -0.0849
 4162SOL    HW114928   3.852   1.552   1.310  0.0402  0.0402 -0.5934
 4162SOL    HW214929   3.935   1.564   1.436 -1.8333 -0.4378  0.7198
 4163SOL     OW14930   1.418   1.215   4.991 -0.3828 -0.1598  0.4061
 4163SOL    HW114931   1.439   1.285   4.928  1.1026  0.7539  1.8316
 4163SOL    HW214932   1.454   1.136   4.951 -0.5967  0.1665 -0.4702
 4164SOL     OW14933   8.688   5.011   7.645  0.4742  0.0328 -0.3557
 4164SOL    HW114934   8.639   5.005   7.727 -1.5150  0.1876 -1.4912
 4164SOL    HW214935   8.729   4.925   7.635  0.6673 -0.0188  0.7247
 4165SOL     OW14936   8.487   0.336   3.564 -0.2048  0.2146 -0.4095
 4165SOL    HW114937   8.395   0.339   3.537 -1.0182  3.6899  2.1214
 4165SOL    HW214938   8.530   0.401   3.509 -0.1451  1.3433  0.9109
 4166SOL     OW14939   1.346   4.190   6.675  0.1293 -0.1112  0.5304
 4166SOL    HW114940   1.307   4.107   6.703  0.3828  0.0233  1.3096
 4166SOL    HW214941   1.414   4.166   6.613  0.6005 -0.5375  1.1989
 4167SOL     OW14942   4.631   2.750   3.785 -0.4151  0.1809 -0.0653
 4167SOL    HW114943   4.616   2.834   3.740 -1.3343  0.0570  0.0011
 4167SOL    HW214944   4.723   2.731   3.768 -0.1553  1.2634  0.0097
 4168SOL     OW14945   5.169   0.805   0.352 -0.2587  0.1771  0.2028
 4168SOL    HW114946   5.176   0.899   0.337 -1.0688  0.2428  0.1978
 4168SOL    HW214947   5.245   0.783   0.406 -0.7826  1.0714  1.3463
 4169SOL     OW14948   7.530   1.773   0.064  0.2864 -0.3523 -0.4650
 4169SOL    HW114949   7.529   1.835  -0.010  0.1365  0.4097  0.1643
 4169SOL    HW214950   7.493   1.693   0.028  0.6275 -0.1321 -1.3432
 4170SOL     OW14951   4.052   6.615   0.839  0.1976  0.2531  0.1668
 4170SOL    HW114952   4.047   6.615   0.935  1.7240  1.2064  0.2738
 4170SOL    HW214953   4.097   6.533   0.818 -1.3079 -0.6045  0.1538
 4171SOL     OW14954   2.530   9.706   2.808 -0.4507 -0.3680  0.3203
 4171SOL    HW114955   2.551   9.798   2.790  0.6852 -0.7643 -0.5058
 4171SOL    HW214956   2.466   9.683   2.741 -0.8223 -0.1504  0.5981
 4172SOL     OW14957   4.491   6.798   0.327 -0.0948  0.3475  0.0289
 4172SOL    HW114958   4.544   6.877   0.337  0.9734 -0.1368 -1.4278
 4172SOL    HW214959   4.490   6.782   0.233  0.3456 -1.7888  0.3395
 4173SOL     OW14960  10.358   0.665   1.880 -0.1880  0.3452  0.6543
 4173SOL    HW114961  10.366   0.574   1.854  0.3987  0.3214  0.9182
 4173SOL    HW214962  10.440   0.686   1.925 -0.9939  0.5008  2.1361
 4174SOL     OW14963   2.650   5.155   5.438  0.2915  0.5635 -0.0891
 4174SOL    HW114964   2.577   5.092   5.435  0.9461 -0.2203  0.0209
 4174SOL    HW214965   2.627   5.214   5.510 -0.0884  0.1325  0.1562
 4175SOL     OW14966   1.209   1.741   7.407  0.2762 -0.3056  0.0363
 4175SOL    HW114967   1.221   1.812   7.344 -0.3486  0.9603  1.2940
 4175SOL    HW214968   1.115   1.726   7.409  0.4192 -1.3639 -0.3862
 4176SOL     OW14969   9.940   5.098   1.482 -0.1773  0.0682  0.1056
 4176SOL    HW114970   9.986   5.136   1.407 -0.1337  0.6457  0.4146
 4176SOL    HW214971  10.000   5.112   1.555  0.3710 -1.6759  0.0339
 4177SOL     OW14972   4.675   0.938   1.073 -0.1615 -0.0410 -0.1399
 4177SOL    HW114973   4.646   0.847   1.066  0.3535 -0.1118 -1.5727
 4177SOL    HW214974   4.711   0.945   1.162 -2.4453 -0.5384  0.9004
 4178SOL     OW14975   7.035   2.294  10.338 -0.0976  0.3002 -0.4230
 4178SOL    HW114976   6.957   2.349  10.332 -0.8247 -0.2260  2.6277
 4178SOL    HW214977   7.032   2.258  10.427  2.4284 -1.5616 -0.9917
 4179SOL     OW14978   5.073   6.764   6.746  0.5016 -0.4739 -0.6692
 4179SOL    HW114979   5.066   6.722   6.660  0.7991 -2.0754  0.0472
 4179SOL    HW214980   5.123   6.702   6.800  1.2985  0.9880  0.3688
 4180SOL     OW14981   4.816   6.196   4.569 -0.2379 -0.2677 -0.2174
 4180SOL    HW114982   4.885   6.247   4.526 -1.0053 -0.1736 -1.3763
 4180SOL    HW214983   4.814   6.230   4.659  0.2317  0.7511 -0.5751
 4181SOL     OW14984   1.322   3.028   0.554 -0.0334  0.2429  0.2544
 4181SOL    HW114985   1.321   2.943   0.509 -0.5455  0.6997 -0.6186
 4181SOL    HW214986   1.407   3.066   0.530  0.3732 -0.1936  0.9840
 4182SOL     OW14987   0.913   6.219   9.803  0.2510  0.1827 -0.4073
 4182SOL    HW114988   0.864   6.296   9.773  2.3508  2.7869  2.2126
 4182SOL    HW214989   0.875   6.200   9.890  0.2331 -1.3549 -0.7280
 4183SOL     OW14990   3.510   7.963   1.254 -0.3298  0.2613  0.7786
 4183SOL    HW114991   3.482   7.874   1.234 -0.0155 -0.1087  1.8720
 4183SOL    HW214992   3.431   8.016   1.247  0.0441  0.5496 -3.1246
 4184SOL     OW14993   3.935   0.718   4.528  0.1217 -0.0600  0.4329
 4184SOL    HW114994   3.852   0.689   4.565  0.3888 -1.3347  0.0933
 4184SOL    HW214995   3.946   0.665   4.449  0.7252  0.8890 -0.1433
 4185SOL     OW14996   9.420   1.689   5.622 -0.0600 -0.4817  0.1834
 4185SOL    HW114997   9.333   1.669   5.657 -0.1170 -0.0341  0.2985
 4185SOL    HW214998   9.444   1.772   5.663 -0.1251  0.0548 -0.8293
 4186SOL     OW14999   0.252   9.818   5.578  0.2667 -0.0976 -0.6000
 4186SOL    HW115000   0.168   9.840   5.618  0.0685 -1.3531 -0.2510
 4186SOL    HW215001   0.229   9.775   5.496  0.5389 -0.8154 -0.3105
 4187SOL     OW15002   4.913   8.243   8.151  0.3350 -0.2645 -0.2480
 4187SOL    HW115003   4.897   8.306   8.080 -0.6978  0.1841  0.3568
 4187SOL    HW215004   4.999   8.266   8.184  0.7282 -0.3270 -1.2067
 4188SOL     OW15005   5.245   2.260   7.251  0.0466  0.1199 -0.1014
 4188SOL    HW115006   5.199   2.176   7.255  3.1948 -1.7065  1.6963
 4188SOL    HW215007   5.234   2.298   7.338 -0.7891  1.3128 -0.6988
 4189SOL     OW15008   8.529   3.613   4.138 -0.3728 -0.0614  0.0231
 4189SOL    HW115009   8.589   3.589   4.067 -0.4335  0.3405 -0.1654
 4189SOL    HW215010   8.491   3.696   4.110 -1.0290 -0.3142  0.1296
 4190SOL     OW15011   8.104   7.282   5.309 -0.1739 -0.0256 -0.4961
 4190SOL    HW115012   8.062   7.217   5.365 -0.1922  0.3372 -0.0806
 4190SOL    HW215013   8.137   7.232   5.235 -0.0356 -0.5373 -0.0996
 4191SOL     OW15014   4.077   1.036   8.197 -0.1308 -0.2463 -0.2816
 4191SOL    HW115015   4.058   0.976   8.270 -0.6909 -0.9789 -1.0138
 4191SOL    HW215016   4.016   1.108   8.211  0.9479  0.4743  0.9380
 4192SOL     OW15017   9.292   7.441   4.795  0.3880  0.1000 -0.1057
 4192SOL    HW115018   9.306   7.521   4.745 -0.7522  1.0188  0.9774
 4192SOL    HW215019   9.367   7.386   4.774  0.1937  0.6390 -2.3920
 4193SOL     OW15020   1.337   1.803   1.506  0.2918 -0.5791  0.5857
 4193SOL    HW115021   1.331   1.877   1.445  2.8315  0.3067  1.2801
 4193SOL    HW215022   1.330   1.725   1.450  1.2471  0.2051 -0.7025
 4194SOL     OW15023   3.533   0.891   6.080  0.5043 -0.3199  0.6730
 4194SOL    HW115024   3.604   0.933   6.129  1.6020  0.9896 -1.8478
 4194SOL    HW215025   3.456   0.944   6.100  1.4843  1.8784 -0.9553
 4195SOL     OW15026   6.021   6.315   0.648 -0.2920 -0.1439 -0.0276
 4195SOL    HW115027   5.958   6.329   0.577 -1.7266 -0.9088  1.0389
 4195SOL    HW215028   6.069   6.398   0.654 -0.7399  0.2420 -1.2828
 4196SOL     OW15029   1.532   6.173   8.071 -0.0066  0.6245  0.1436
 4196SOL    HW115030   1.475   6.151   8.145  0.2330 -0.6748 -0.0418
 4196SOL    HW215031   1.521   6.267   8.060 -1.3623  0.5654  0.7479
 4197SOL     OW15032   4.387   8.935   1.211 -0.4081  0.3074 -0.6273
 4197SOL    HW115033   4.421   9.004   1.268  0.1334 -0.8718  0.5387
 4197SOL    HW215034   4.294   8.954   1.203 -0.8270 -0.2455  1.8833
 4198SOL     OW15035   4.198   7.400   6.698 -0.4166  0.3386 -0.4011
 4198SOL    HW115036   4.132   7.461   6.662 -0.8233  0.0982 -0.0734
 4198SOL    HW215037   4.156   7.364   6.776  0.6879  1.2966  0.6624
 4199SOL     OW15038   1.722   7.281   5.978 -0.8219 -0.3329  0.1480
 4199SOL    HW115039   1.787   7.313   5.915 -0.2725 -1.5679  0.0618
 4199SOL    HW215040   1.686   7.203   5.937 -1.6336 -0.2346  0.6646
 4200SOL     OW15041   2.266   8.997   4.219  0.6460 -0.1539  0.0226
 4200SOL    HW115042   2.173   9.019   4.217  0.7267  0.3460  1.1609
 4200SOL    HW215043   2.310   9.078   4.196  0.8565  0.1597  1.4888
 4201SOL     OW15044   1.178   3.722   5.560  0.1908  0.2399 -0.2102
 4201SOL    HW115045   1.098   3.772   5.574  0.3816 -0.0882  2.5522
 4201SOL    HW215046   1.235   3.746   5.633  0.5189 -3.4653  0.9691
 4202SOL     OW15047   8.283   7.556   8.994  0.0709 -0.1169  0.6675
 4202SOL    HW115048   8.223   7.631   8.999 -0.0360 -0.0782 -0.7641
 4202SOL    HW215049   8.368   7.591   9.017  0.5337  1.1203 -2.4385
 4203SOL     OW15050   3.509   0.645   3.776  0.2794 -0.0658  0.0969
 4203SOL    HW115051   3.555   0.712   3.725  1.7725 -0.5019  0.8184
 4203SOL    HW215052   3.571   0.621   3.846 -0.5897 -1.5253  0.4066
 4204SOL     OW15053   1.117   6.288   8.040  0.3069  0.2491 -0.3258
 4204SOL    HW115054   1.150   6.345   7.970  1.2700 -0.1265 -0.1837
 4204SOL    HW215055   1.168   6.313   8.117  1.4604 -1.4568 -0.4808
 4205SOL     OW15056   5.702   3.371   5.253  0.0857 -0.0193 -0.1502
 4205SOL    HW115057   5.713   3.291   5.201  0.6021 -0.7356  0.9946
 4205SOL    HW215058   5.629   3.350   5.312  1.1868 -0.2547  1.1892
 4206SOL     OW15059   1.234   6.409   0.721  0.3924  0.1784 -0.1559
 4206SOL    HW115060   1.217   6.321   0.754  1.9790 -0.0369  0.1959
 4206SOL    HW215061   1.325   6.406   0.691  0.2595  1.5148 -0.7663
 4207SOL     OW15062   1.933   8.295   4.037  0.8988 -0.5481 -0.0658
 4207SOL    HW115063   2.022   8.291   4.071  0.7076 -2.8138  0.3145
 4207SOL    HW215064   1.877   8.294   4.115  0.5200  0.2808 -0.3153
 4208SOL     OW15065   7.278   0.688   3.425  0.7032 -0.8667  0.0871
 4208SOL    HW115066   7.251   0.693   3.517  1.0593 -2.4823  0.3063
 4208SOL    HW215067   7.196   0.684   3.376  0.5111  0.0297  0.3102
 4209SOL     OW15068   7.155   0.403   5.356  0.1718 -0.2839 -0.1326
 4209SOL    HW115069   7.230   0.400   5.296  1.0520  1.2048  0.8382
 4209SOL    HW215070   7.093   0.341   5.319  0.9249  0.1463 -2.2486
 4210SOL     OW15071   1.501   2.214   0.998  0.4307  0.3517  0.2931
 4210SOL    HW115072   1.453   2.217   0.916  1.8468 -0.6510 -0.6209
 4210SOL    HW215073   1.557   2.292   0.995 -0.0815  0.7428  0.6917
 4211SOL     OW15074   2.144   4.984   9.490  0.1442 -0.0880 -0.4993
 4211SOL    HW115075   2.117   5.033   9.413  1.0701 -0.7576 -1.2659
 4211SOL    HW215076   2.225   4.940   9.464 -0.9468 -2.5321 -0.0446
 4212SOL     OW15077   2.028   0.228   6.843  0.2491  0.2888 -0.2962
 4212SOL    HW115078   1.988   0.141   6.845 -1.5803  1.0485  2.0145
 4212SOL    HW215079   1.989   0.271   6.767 -0.2649 -0.3335 -0.3917
 4213SOL     OW15080   5.878   4.870   4.591 -0.2785 -0.0609 -0.0795
 4213SOL    HW115081   5.865   4.899   4.501  1.0317 -1.1252 -0.6431
 4213SOL    HW215082   5.969   4.891   4.610  0.4673 -2.8669 -0.2075
 4214SOL     OW15083   8.152   4.878   6.876  0.2583 -0.0572 -0.2326
 4214SOL    HW115084   8.221   4.943   6.860  0.2293  0.3539  1.1353
 4214SOL    HW215085   8.200   4.799   6.902  0.2796  0.7439  2.5489
 4215SOL     OW15086  10.177   5.438   1.239 -0.8938  0.4755 -0.0063
 4215SOL    HW115087  10.236   5.478   1.304  0.0347 -0.5381 -0.1965
 4215SOL    HW215088  10.217   5.460   1.155 -0.8362 -0.1317 -0.1388
 4216SOL     OW15089   3.208   4.142   7.538 -0.7267 -0.2137 -0.4173
 4216SOL    HW115090   3.158   4.120   7.459 -1.1758 -0.7830  0.0149
 4216SOL    HW215091   3.252   4.060   7.562  0.0384  0.1648 -0.5259
 4217SOL     OW15092   3.173   5.779   7.314  0.2524  0.0267 -0.3531
 4217SOL    HW115093   3.145   5.866   7.341 -0.8151 -0.6575  0.8799
 4217SOL    HW215094   3.268   5.786   7.306  0.1928  1.2844 -0.2218
 4218SOL     OW15095   6.351   8.893   0.136  0.0470 -0.0857 -0.2685
 4218SOL    HW115096   6.322   8.839   0.063 -0.0482 -0.1276 -0.1995
 4218SOL    HW215097   6.361   8.832   0.209 -1.0278  0.1372  0.0862
 4219SOL     OW15098   2.905   9.248   5.300 -0.1944 -0.3870  0.2423
 4219SOL    HW115099   2.816   9.258   5.268 -1.1372 -1.1761  2.3904
 4219SOL    HW215100   2.945   9.334   5.285 -1.4114  0.0889 -0.4533
 4220SOL     OW15101   9.027   0.110   0.177  0.0219 -0.0867 -0.3155
 4220SOL    HW115102   9.043   0.100   0.270 -1.1420  0.6391 -0.0146
 4220SOL    HW215103   9.004   0.023   0.146  1.1072 -0.4700 -0.0873
 4221SOL     OW15104   6.810   1.910   6.044 -0.0955 -0.0172  0.1376
 4221SOL    HW115105   6.794   2.004   6.040 -1.5087 -0.2358  0.1056
 4221SOL    HW215106   6.872   1.899   6.116 -0.0931  0.9150  0.2898
 4222SOL     OW15107   3.064   5.518   1.847  0.2040  0.2874 -0.1090
 4222SOL    HW115108   2.977   5.519   1.887 -0.1940 -1.4576 -0.8056
 4222SOL    HW215109   3.119   5.470   1.910  0.3906  0.4283 -0.1629
 4223SOL     OW15110   7.527   7.765   8.965 -0.7499 -0.1445 -0.0530
 4223SOL    HW115111   7.517   7.807   8.880  1.1273 -0.5336 -0.5020
 4223SOL    HW215112   7.527   7.837   9.028 -2.0012  0.1569 -0.3604
 4224SOL     OW15113   8.951   9.850  10.062  0.0594  0.2927  0.1635
 4224SOL    HW115114   8.862   9.871  10.091  0.3999  2.9391 -0.4801
 4224SOL    HW215115   8.985   9.791  10.130 -1.2912  1.3247  1.8129
 4225SOL     OW15116   5.455   9.529   8.935 -0.1421  0.1947  0.0831
 4225SOL    HW115117   5.447   9.493   9.023  0.4316  0.6476  0.3304
 4225SOL    HW215118   5.437   9.623   8.946 -2.6918 -0.1360 -0.7157
 4226SOL     OW15119   9.911   9.553   3.767  0.0255 -0.0865  0.7452
 4226SOL    HW115120   9.979   9.599   3.817  0.7146  0.2573 -0.4681
 4226SOL    HW215121   9.932   9.572   3.676 -2.2287  0.7595  0.3441
 4227SOL     OW15122   9.240   5.267   2.753 -0.7515  0.6389 -0.2538
 4227SOL    HW115123   9.166   5.308   2.798 -0.3592  2.0644 -0.8410
 4227SOL    HW215124   9.209   5.180   2.727 -2.2849  1.2988 -0.6859
 4228SOL     OW15125   0.597   2.855   7.661 -0.2913  0.2280  0.1925
 4228SOL    HW115126   0.547   2.827   7.584 -0.2327  1.8829 -0.4820
 4228SOL    HW215127   0.656   2.922   7.628  1.0097 -0.2858  1.3642
 4229SOL     OW15128   3.299   3.717   0.695  0.2626 -0.0489  0.1771
 4229SOL    HW115129   3.342   3.702   0.610  0.4814  3.1102 -0.4050
 4229SOL    HW215130   3.361   3.771   0.744 -0.6734 -0.2445  1.6342
 4230SOL     OW15131   2.979   2.359   4.299  0.0738 -0.2954  0.2984
 4230SOL    HW115132   3.022   2.345   4.383 -1.0926 -1.4458  0.7361
 4230SOL    HW215133   2.926   2.438   4.313 -0.6244 -0.8527  0.8688
 4231SOL     OW15134   8.985   4.768   6.828  0.8550  0.2047  0.2475
 4231SOL    HW115135   8.898   4.807   6.832  0.7659  0.1438 -0.7322
 4231SOL    HW215136   8.968   4.674   6.821  1.0216  0.1429  0.6178
 4232SOL     OW15137   2.232   6.513   1.026  0.2228  0.0743  0.1757
 4232SOL    HW115138   2.216   6.607   1.033  4.4885  1.1425 -1.5461
 4232SOL    HW215139   2.198   6.490   0.939 -0.2899  0.1653  0.3514
 4233SOL     OW15140   6.206   7.441   0.973  0.3352 -0.4200 -0.2688
 4233SOL    HW115141   6.158   7.523   0.962 -0.6954 -1.0062 -0.2669
 4233SOL    HW215142   6.269   7.439   0.900  0.4455  0.4166 -0.1990
 4234SOL     OW15143  10.039   5.039   5.942 -0.5718  0.1827 -0.0637
 4234SOL    HW115144   9.954   5.042   5.898  0.2520  2.3869 -1.6647
 4234SOL    HW215145  10.100   5.004   5.876 -0.0402 -0.5329  0.7716
 4235SOL     OW15146   4.322   9.873   0.371  0.7379 -0.3872 -0.5488
 4235SOL    HW115147   4.265   9.837   0.439  3.1897 -2.5954  0.5072
 4235SOL    HW215148   4.338   9.963   0.398  1.7137 -1.2197  1.9616
 4236SOL     OW15149   5.606   8.901   3.165 -0.2220 -0.0021 -0.2521
 4236SOL    HW115150   5.534   8.963   3.171  0.1370  0.5275 -1.2298
 4236SOL    HW215151   5.603   8.852   3.248 -1.0806  0.6780  0.1283
 4237SOL     OW15152   0.270   4.656   4.996 -0.2761 -0.5693  0.0472
 4237SOL    HW115153   0.350   4.606   4.985  2.5414  3.1549  1.5734
 4237SOL    HW215154   0.261   4.668   5.090 -1.7003  0.4751 -0.1742
 4238SOL     OW15155   5.887   1.196   6.877 -0.4662 -0.0732 -0.3288
 4238SOL    HW115156   5.925   1.167   6.794  0.6382 -1.9132  0.7368
 4238SOL    HW215157   5.795   1.216   6.856 -0.1743 -0.3514 -2.0073
 4239SOL     OW15158   9.280   2.896   0.654  0.4968 -0.5526  0.6968
 4239SOL    HW115159   9.265   2.990   0.666 -0.3089 -0.6859  0.7491
 4239SOL    HW215160   9.213   2.869   0.592  0.7507 -1.0945  0.6537
 4240SOL     OW15161   7.046   3.495   7.558 -0.0365  0.1731  0.2388
 4240SOL    HW115162   7.043   3.582   7.598 -0.2628  0.7254 -0.9373
 4240SOL    HW215163   6.989   3.503   7.481  0.4039 -0.8473 -0.1990
 4241SOL     OW15164   8.055   2.032   1.160  0.3053 -0.1843 -0.2336
 4241SOL    HW115165   7.993   2.052   1.230  0.3121 -1.4762  0.1722
 4241SOL    HW215166   8.033   1.943   1.134  0.5050  0.1644 -1.6806
 4242SOL     OW15167   4.101   0.499   2.171 -0.6716  0.0229  0.0715
 4242SOL    HW115168   4.128   0.417   2.212 -1.1892 -0.1291  0.1187
 4242SOL    HW215169   4.158   0.565   2.210  0.1043 -0.3831 -0.3608
 4243SOL     OW15170   6.937   8.651   8.957 -0.0466  0.1754  0.0783
 4243SOL    HW115171   7.025   8.620   8.977 -0.0278  0.9105  1.3229
 4243SOL    HW215172   6.881   8.574   8.964  0.2105  0.0911  1.5171
 4244SOL     OW15173   2.898   0.818   3.955  0.2189 -0.8618  0.1612
 4244SOL    HW115174   2.961   0.857   3.894  0.2488 -1.1249  0.0199
 4244SOL    HW215175   2.852   0.892   3.994 -0.6845 -0.7214 -1.1191
 4245SOL     OW15176   8.225   2.960   5.739 -0.8758  0.2514 -0.5799
 4245SOL    HW115177   8.244   2.970   5.832 -0.9351 -1.9653 -0.2697
 4245SOL    HW215178   8.136   2.995   5.729 -0.5421  1.3014 -0.0034
 4246SOL     OW15179   0.292   7.580   6.161 -0.0707 -1.0132 -0.0766
 4246SOL    HW115180   0.220   7.534   6.204 -0.4151  0.3057  0.8167
 4246SOL    HW215181   0.285   7.555   6.069 -0.4445 -2.4478  0.3145
 4247SOL     OW15182   8.310   6.349   1.000 -0.4864 -0.2640  0.2172
 4247SOL    HW115183   8.373   6.277   1.009 -0.0506  0.1201  0.2691
 4247SOL    HW215184   8.241   6.314   0.944 -0.0339 -0.5607 -0.1554
 4248SOL     OW15185   8.358   8.287   5.112  0.1393  0.1173 -0.6583
 4248SOL    HW115186   8.319   8.302   5.198  1.1424 -1.1443  0.0753
 4248SOL    HW215187   8.291   8.313   5.050 -0.8236  0.5531  0.5142
 4249SOL     OW15188   4.930   1.444   7.128  0.5681 -0.7776 -0.4607
 4249SOL    HW115189   4.846   1.421   7.090  0.5917  0.3334 -1.2614
 4249SOL    HW215190   4.990   1.376   7.097  0.3184 -0.5991 -1.3700
 4250SOL     OW15191  10.302   2.796   5.945  0.0045 -0.1834  0.2424
 4250SOL    HW115192  10.215   2.761   5.925 -0.1735  0.4872 -0.1717
 4250SOL    HW215193  10.292   2.836   6.032 -0.3235  0.6329 -0.1659
 4251SOL     OW15194   9.913   9.314   8.881  0.1093 -0.6883 -0.1653
 4251SOL    HW115195   9.885   9.245   8.940 -1.4074  0.5234  0.6207
 4251SOL    HW215196   9.833   9.365   8.865  0.9403  0.2286 -1.5994
 4252SOL     OW15197   1.877   4.398   9.597  0.0864 -0.3930  0.2025
 4252SOL    HW115198   1.881   4.304   9.612  2.6834 -0.3332  0.3386
 4252SOL    HW215199   1.903   4.409   9.506  0.8460  0.2402  0.4857
 4253SOL     OW15200   6.690   1.433   7.534  0.0296 -0.0563 -0.6130
 4253SOL    HW115201   6.713   1.517   7.494  2.8714 -1.3496 -2.0299
 4253SOL    HW215202   6.631   1.392   7.472 -0.5741  0.4732 -0.3973
 4254SOL     OW15203   0.864  10.009   9.981 -0.8393 -0.4847  0.2595
 4254SOL    HW115204   0.954  10.042   9.970 -0.8834 -0.7448 -1.1042
 4254SOL    HW215205   0.813  10.086  10.008 -0.6117  0.1985 -1.1628
 4255SOL     OW15206   7.223   9.542  10.440 -0.5441 -0.1456  0.0742
 4255SOL    HW115207   7.245   9.578  10.526  2.4934 -0.2897 -0.5319
 4255SOL    HW215208   7.271   9.459  10.436 -1.5542 -0.6957 -1.3396
 4256SOL     OW15209   7.023   7.124   5.782  0.6048 -0.2526  0.0929
 4256SOL    HW115210   7.025   7.072   5.863 -3.2134 -1.0224 -0.1261
 4256SOL    HW215211   7.005   7.213   5.811  0.8700 -0.2203  0.1612
 4257SOL     OW15212   0.095   0.452   6.498  0.0397  0.0820  0.1090
 4257SOL    HW115213   0.107   0.385   6.430 -3.7034 -1.2378  0.5601
 4257SOL    HW215214   0.147   0.420   6.572 -1.2401 -2.1659  0.1409
 4258SOL     OW15215   1.383   9.371   1.891  0.3537  0.2777 -0.1112
 4258SOL    HW115216   1.373   9.341   1.982  0.3409 -1.3223 -0.6121
 4258SOL    HW215217   1.470   9.411   1.889  0.5895 -0.1905  0.4694
 4259SOL     OW15218   6.514   1.677   6.546 -0.4194 -0.4925 -0.2742
 4259SOL    HW115219   6.520   1.581   6.546  3.0912 -0.4210  0.2886
 4259SOL    HW215220   6.518   1.701   6.454  0.0843 -0.8789 -0.3607
 4260SOL     OW15221   8.782   9.565  10.399  0.1814  0.3723 -0.2543
 4260SOL    HW115222   8.791   9.471  10.385 -2.6576  0.1380 -1.1800
 4260SOL    HW215223   8.750   9.599  10.315 -0.9670  1.7885  0.7026
 4261SOL     OW15224   4.663   1.800   3.261 -0.4059 -0.0950  0.9985
 4261SOL    HW115225   4.600   1.862   3.297 -1.8879 -1.1838  0.3974
 4261SOL    HW215226   4.720   1.777   3.334  1.1500  3.0176  0.9215
 4262SOL     OW15227   4.444   3.266   4.141  0.1488 -0.3161  0.9260
 4262SOL    HW115228   4.459   3.227   4.227 -0.3897 -1.8858  0.3381
 4262SOL    HW215229   4.377   3.332   4.155  1.0208  0.3952  1.9295
 4263SOL     OW15230   3.469   6.778   7.070 -0.3670  0.0283 -0.4714
 4263SOL    HW115231   3.548   6.780   7.016  0.9974 -1.2219  1.3537
 4263SOL    HW215232   3.476   6.855   7.126 -0.5830  0.0663 -0.4968
 4264SOL     OW15233   1.003   0.472   6.964  0.1399  0.1536 -0.1365
 4264SOL    HW115234   1.050   0.439   7.040 -0.5375  3.0883  1.7059
 4264SOL    HW215235   1.039   0.559   6.949 -0.5804  0.1157 -2.4865
 4265SOL     OW15236   3.531  10.453   6.003  0.5262  0.0654 -0.1249
 4265SOL    HW115237   3.517  10.365   6.037  2.2116 -0.2756 -0.1803
 4265SOL    HW215238   3.625  10.467   6.014  0.6549  1.0362 -1.9967
 4266SOL     OW15239   5.180   2.981   6.841  0.2031 -0.0075  0.4560
 4266SOL    HW115240   5.094   2.959   6.805  0.1799 -2.2736  1.7195
 4266SOL    HW215241   5.180   3.077   6.846 -2.8867  0.0446  1.8873
 4267SOL     OW15242   2.275   3.735   6.690 -0.0066  0.1509 -0.1773
 4267SOL    HW115243   2.206   3.675   6.719 -1.1260  2.3490  2.0664
 4267SOL    HW215244   2.356   3.690   6.713 -0.6962 -1.5421 -0.8583
 4268SOL     OW15245   3.316   2.174   8.918 -0.4463 -0.3431 -0.1678
 4268SOL    HW115246   3.347   2.263   8.897  0.5752 -0.3832  1.0500
 4268SOL    HW215247   3.236   2.164   8.866 -0.4794  1.2188 -0.4814
 4269SOL     OW15248   5.897   1.682   6.927 -0.4918 -0.1122 -0.1581
 4269SOL    HW115249   5.978   1.670   6.977  0.9131  1.0673 -2.0409
 4269SOL    HW215250   5.908   1.628   6.849 -1.7020 -0.2310 -0.2659
 4270SOL     OW15251   2.561   0.353   1.660 -0.4947  0.3693  0.0584
 4270SOL    HW115252   2.569   0.391   1.573 -0.4765 -0.3558 -0.2644
 4270SOL    HW215253   2.651   0.355   1.695 -0.4371  0.3212 -0.0861
 4271SOL     OW15254   9.868   5.297   4.329  0.0327  0.4712 -0.4257
 4271SOL    HW115255   9.854   5.202   4.329  0.4416  0.4066 -0.8692
 4271SOL    HW215256   9.905   5.316   4.416 -0.0546  0.2242 -0.3344
 4272SOL     OW15257   8.991   8.494   6.726  0.0486  0.1842 -0.6297
 4272SOL    HW115258   8.957   8.407   6.750  1.0825 -0.0814 -0.0985
 4272SOL    HW215259   8.954   8.552   6.792  0.9413 -0.1727  0.2028
 4273SOL     OW15260  10.361   9.414   0.813  0.5223 -0.2276 -0.0073
 4273SOL    HW115261  10.448   9.442   0.783  0.7482 -1.4415 -0.5501
 4273SOL    HW215262  10.368   9.319   0.819 -1.6902 -0.7074 -3.0921
 4274SOL     OW15263   1.317   6.826   2.931 -0.5141  0.5143 -0.2491
 4274SOL    HW115264   1.375   6.879   2.876 -0.5956  1.6151  0.6784
 4274SOL    HW215265   1.362   6.741   2.938  0.4945  1.0174 -0.3730
 4275SOL     OW15266   4.799   0.477   4.608  0.3957 -0.0711 -0.2288
 4275SOL    HW115267   4.889   0.503   4.592  0.2025 -0.2096 -1.7196
 4275SOL    HW215268   4.757   0.556   4.642  0.6583  0.5563 -1.3006
 4276SOL     OW15269   0.801   1.097   3.852  0.3830 -0.4226 -0.2011
 4276SOL    HW115270   0.792   1.047   3.934 -0.2250  1.0950  0.7118
 4276SOL    HW215271   0.746   1.051   3.790 -0.5262 -0.6494  0.7394
 4277SOL     OW15272   4.256   9.768   2.089 -0.2475 -0.2584  0.1477
 4277SOL    HW115273   4.273   9.692   2.143 -0.0401 -0.5984 -0.3882
 4277SOL    HW215274   4.331   9.826   2.103  0.5333 -0.9879 -0.8817
 4278SOL     OW15275   8.085   5.947   3.516 -0.2154  0.2202  0.2737
 4278SOL    HW115276   8.004   5.965   3.564 -1.3980  0.4242 -1.6709
 4278SOL    HW215277   8.145   6.017   3.542 -1.0024  0.6431  0.9797
 4279SOL     OW15278   7.027  10.215   0.040  0.5966 -1.2054  0.1819
 4279SOL    HW115279   6.986  10.163   0.110 -2.3982  0.5524 -0.0858
 4279SOL    HW215280   7.004  10.169  -0.040 -1.1131 -0.1666  0.0237
 4280SOL     OW15281   3.063   8.567   6.258 -0.0486 -0.0536 -0.3019
 4280SOL    HW115282   3.003   8.585   6.185 -0.4534 -0.4451 -0.0750
 4280SOL    HW215283   3.150   8.571   6.220  0.0113  3.2396 -0.1269
 4281SOL     OW15284   3.331   0.294   0.185  0.3365  0.3263 -0.2386
 4281SOL    HW115285   3.280   0.267   0.108  0.1854 -0.4023  0.1169
 4281SOL    HW215286   3.307   0.231   0.253  1.3814  0.2411  0.0556
 4282SOL     OW15287   9.680   5.942   2.981 -0.0724  0.2089 -0.2031
 4282SOL    HW115288   9.693   5.850   2.958  0.8072  0.2412  0.1110
 4282SOL    HW215289   9.594   5.964   2.947 -0.2751 -0.7248 -0.3118
 4283SOL     OW15290   3.462  10.027   0.269  0.0143 -0.3955 -0.0933
 4283SOL    HW115291   3.380   9.981   0.252 -0.4944  1.3422 -3.0562
 4283SOL    HW215292   3.435  10.108   0.313  0.1516 -0.0560 -0.6176
 4284SOL     OW15293   5.054   2.359   2.685 -0.6943  0.4604  0.1528
 4284SOL    HW115294   5.081   2.442   2.648  0.3683  0.2515  0.4232
 4284SOL    HW215295   5.126   2.299   2.665 -1.6025 -0.4917 -0.3638
 4285SOL     OW15296   6.393   8.200   0.563  0.4629  0.1733 -0.1789
 4285SOL    HW115297   6.386   8.253   0.642  0.2269 -1.7738  1.1953
 4285SOL    HW215298   6.336   8.244   0.499  0.5024  1.6840  0.7806
 4286SOL     OW15299   0.945   9.518   9.470  0.1229 -0.5364 -0.3848
 4286SOL    HW115300   0.976   9.576   9.400  1.2050  0.9226  1.2476
 4286SOL    HW215301   1.018   9.456   9.484  0.4994  0.0686  0.3930
 4287SOL     OW15302   0.775   2.463   8.451 -0.5096  0.4458  0.3184
 4287SOL    HW115303   0.844   2.422   8.503 -0.6094 -0.0947  0.0331
 4287SOL    HW215304   0.770   2.553   8.484  1.1859  0.8781 -0.4956
 4288SOL     OW15305   1.614   1.561   8.095  0.1430  0.0967 -0.3223
 4288SOL    HW115306   1.589   1.473   8.068  1.2778  0.1497 -1.6787
 4288SOL    HW215307   1.701   1.551   8.133  0.8223  0.7681 -1.6252
 4289SOL     OW15308   5.053   4.887   0.756  0.1406  0.3148 -0.2653
 4289SOL    HW115309   5.128   4.931   0.797 -0.7386  2.1191 -0.4936
 4289SOL    HW215310   5.064   4.905   0.663  1.1273 -2.1859 -0.6964
 4290SOL     OW15311   6.263   7.023   0.697 -0.1548  0.3707 -0.0855
 4290SOL    HW115312   6.336   7.067   0.653 -0.2917 -1.4624 -2.3378
 4290SOL    HW215313   6.187   7.076   0.673 -0.6886 -2.0160 -4.7790
 4291SOL     OW15314   9.685   1.039   3.687 -0.4127 -0.2888  0.2527
 4291SOL    HW115315   9.731   0.958   3.670  0.1516 -0.0297  0.5151
 4291SOL    HW215316   9.752   1.107   3.679 -0.6488  0.0545  1.0491
 4292SOL     OW15317   1.324   1.818   4.341 -0.2671 -0.4114  0.5751
 4292SOL    HW115318   1.295   1.827   4.250  1.7222  1.3775  0.0416
 4292SOL    HW215319   1.385   1.745   4.340 -1.1803 -1.2069  0.7786
 4293SOL     OW15320  10.422   1.615   6.493 -0.3136  0.2227  0.2287
 4293SOL    HW115321  10.472   1.658   6.424 -0.4512 -0.7528 -0.4793
 4293SOL    HW215322  10.370   1.686   6.532  1.5264  1.2470  0.9362
 4294SOL     OW15323   0.353   7.579   5.709 -0.4990  0.0265  0.6804
 4294SOL    HW115324   0.365   7.491   5.674 -0.0384  0.2155  0.3453
 4294SOL    HW215325   0.300   7.567   5.788  0.5494 -0.6832  1.3122
 4295SOL     OW15326   6.358   9.924   4.601 -0.3479  0.2392 -0.1507
 4295SOL    HW115327   6.366  10.010   4.643  1.2928  0.1609 -0.2349
 4295SOL    HW215328   6.429   9.872   4.638 -0.1430 -0.4847 -1.4842
 4296SOL     OW15329   6.430   5.950  10.359 -0.5580  0.3650 -0.2436
 4296SOL    HW115330   6.473   5.888  10.300  2.2383  1.1587  0.7652
 4296SOL    HW215331   6.424   6.031  10.309  0.7691  0.7150  0.0995
 4297SOL     OW15332  10.369   3.044   9.308  0.2100  0.1797  0.5146
 4297SOL    HW115333  10.319   3.011   9.384  0.1000 -0.3841  0.2026
 4297SOL    HW215334  10.308   3.036   9.235 -0.3296  2.4097  0.6440
 4298SOL     OW15335   8.447   4.414   1.556 -0.0594 -0.1291 -0.5155
 4298SOL    HW115336   8.407   4.441   1.639 -0.4012  0.5930 -0.9022
 4298SOL    HW215337   8.513   4.481   1.539 -0.4692  0.1231 -1.1646
 4299SOL     OW15338   1.240   1.726   2.301  0.4939 -0.1486  0.3171
 4299SOL    HW115339   1.333   1.740   2.282  0.1049 -0.1506 -1.8495
 4299SOL    HW215340   1.199   1.811   2.282 -0.4229 -1.1230 -2.5280
 4300SOL     OW15341   2.333   9.410   6.961  0.3858  0.6580  0.1079
 4300SOL    HW115342   2.426   9.396   6.945  0.1171  0.4818 -1.4433
 4300SOL    HW215343   2.299   9.442   6.878 -0.9648  0.6589  0.6354
 4301SOL     OW15344   4.116   2.329   5.131 -0.7793 -0.0437 -0.6738
 4301SOL    HW115345   4.061   2.255   5.157 -1.7505  0.9619  0.2522
 4301SOL    HW215346   4.175   2.341   5.206  0.8606 -1.2010 -1.7146
 4302SOL     OW15347   0.780   0.109   3.012 -0.8743  0.2652  0.1934
 4302SOL    HW115348   0.811   0.042   2.951 -0.1822 -0.2884  1.1265
 4302SOL    HW215349   0.685   0.101   3.012 -0.8636  0.0913 -0.5997
 4303SOL     OW15350   2.921   9.741   2.290 -0.3290 -0.0556  0.0753
 4303SOL    HW115351   3.016   9.745   2.282 -0.4451  1.2334 -0.9376
 4303SOL    HW215352   2.906   9.698   2.374  1.1419 -0.5610  0.1028
 4304SOL     OW15353   0.967   8.722   0.829  0.2859  0.5509  0.0797
 4304SOL    HW115354   0.917   8.704   0.909 -0.0679 -0.6099 -0.3929
 4304SOL    HW215355   1.048   8.672   0.841  0.0598  0.0473 -0.4579
 4305SOL     OW15356   1.997   3.848   7.642  0.6052 -0.3631  0.5188
 4305SOL    HW115357   1.927   3.819   7.700 -0.6169  0.2513 -0.5919
 4305SOL    HW215358   2.008   3.941   7.662  0.1289 -0.1312 -0.2570
 4306SOL     OW15359   1.675   7.471   1.525  0.4334  0.4365 -0.0350
 4306SOL    HW115360   1.646   7.409   1.593  0.3490 -1.1408 -1.4466
 4306SOL    HW215361   1.603   7.472   1.462  0.6648  1.6035 -0.2997
 4307SOL     OW15362   3.941   3.409   6.491  0.0977  0.6551 -0.4718
 4307SOL    HW115363   3.985   3.460   6.423 -0.8038  1.4502 -0.4851
 4307SOL    HW215364   3.848   3.415   6.470 -0.1506  0.3746  0.4598
 4308SOL     OW15365   9.346   4.970   0.556 -0.0548 -0.5175 -0.2211
 4308SOL    HW115366   9.309   4.906   0.617 -1.9348  0.5805 -0.1118
 4308SOL    HW215367   9.419   4.924   0.515 -0.9405 -2.5275  0.2850
 4309SOL     OW15368   1.152   0.925   6.138 -0.4187  0.3846 -0.0781
 4309SOL    HW115369   1.058   0.929   6.120 -0.2936 -1.3618 -1.3570
 4309SOL    HW215370   1.184   1.013   6.118 -1.3322  0.2033 -2.6963
 4310SOL     OW15371   7.255   6.641   3.986 -0.3350  0.0410 -0.2748
 4310SOL    HW115372   7.176   6.586   3.984 -0.8475  0.6545  1.4292
 4310SOL    HW215373   7.230   6.720   3.937 -0.7027  0.1201  0.0335
 4311SOL     OW15374   0.268   3.531   2.753 -0.0107 -0.0119  0.4634
 4311SOL    HW115375   0.310   3.617   2.747 -1.2539  0.5720 -0.0774
 4311SOL    HW215376   0.321   3.476   2.695 -0.0089  0.7231 -0.2613
 4312SOL     OW15377   6.810   0.865   2.877 -0.3923  0.4366  0.2096
 4312SOL    HW115378   6.759   0.789   2.905 -0.2250  0.4641  0.6059
 4312SOL    HW215379   6.802   0.927   2.950 -0.9368  1.0034 -0.3244
 4313SOL     OW15380   3.543   3.574   1.027 -0.2577 -0.1693 -0.1651
 4313SOL    HW115381   3.581   3.502   1.078  0.5680 -0.3345 -0.9844
 4313SOL    HW215382   3.604   3.586   0.954  0.7581  2.7257  1.0148
 4314SOL     OW15383   4.280   7.142   6.536  0.3306  0.2216 -0.4026
 4314SOL    HW115384   4.298   7.109   6.448  1.2740  0.3235 -0.2570
 4314SOL    HW215385   4.312   7.074   6.595 -1.3462 -0.3757 -0.1178
 4315SOL     OW15386   1.849   1.272   5.420  0.4480  0.5754  0.5209
 4315SOL    HW115387   1.758   1.291   5.442  1.0539  0.9757  2.8926
 4315SOL    HW215388   1.879   1.351   5.374  0.1602  1.3278  1.5817
 4316SOL     OW15389   7.693  10.472   3.424  0.6474 -0.0581 -0.0689
 4316SOL    HW115390   7.658  10.498   3.509 -0.6724  0.0923 -0.6364
 4316SOL    HW215391   7.686  10.376   3.424  0.5547 -0.0514 -0.0402
 4317SOL     OW15392   2.699   1.318   6.017  0.6851 -0.3005  0.3566
 4317SOL    HW115393   2.611   1.301   6.050  0.2329 -1.5979 -1.3223
 4317SOL    HW215394   2.687   1.331   5.923  2.1137  1.1807  0.3322
 4318SOL     OW15395   9.250   7.856   5.539 -0.8790  0.1442  0.3315
 4318SOL    HW115396   9.314   7.911   5.584  0.8410  0.0581 -1.8405
 4318SOL    HW215397   9.188   7.918   5.501  0.1040  0.5344 -0.7037
 4319SOL     OW15398   2.849   7.403   1.644 -0.0619  0.1954 -0.0035
 4319SOL    HW115399   2.849   7.359   1.729  0.5590 -1.5695 -0.8713
 4319SOL    HW215400   2.757   7.426   1.629 -0.2632 -0.0060  0.8596
 4320SOL     OW15401   2.052   3.773   3.860 -0.1683  0.4549  0.7528
 4320SOL    HW115402   2.142   3.802   3.871  0.0910 -0.7449  2.0313
 4320SOL    HW215403   2.010   3.843   3.809  1.7114  0.5697 -0.7530
 4321SOL     OW15404   3.051   3.657   6.392 -0.2555  0.0193 -1.0176
 4321SOL    HW115405   3.139   3.692   6.399 -0.3690  0.4227 -1.6204
 4321SOL    HW215406   2.996   3.722   6.436 -0.1706 -0.5978  0.0414
 4322SOL     OW15407   3.853   2.695   2.581 -0.3164  0.2959 -0.0883
 4322SOL    HW115408   3.870   2.615   2.631  0.9703 -0.7375 -2.0682
 4322SOL    HW215409   3.877   2.766   2.641 -0.4375 -0.8020  1.3296
 4323SOL     OW15410   3.341   8.858   4.837 -0.0129  0.1513  0.5929
 4323SOL    HW115411   3.357   8.952   4.834  0.5519  0.0562  0.4748
 4323SOL    HW215412   3.272   8.847   4.903  1.2065  0.4833  1.9645
 4324SOL     OW15413   6.993   7.931   5.432 -0.6442  0.3959 -0.0471
 4324SOL    HW115414   6.934   7.948   5.358 -0.0999  0.5698 -0.4554
 4324SOL    HW215415   7.072   7.895   5.391 -0.7168 -0.4596  0.5506
 4325SOL     OW15416   0.977   1.978   0.509 -0.3080 -0.1095  0.5199
 4325SOL    HW115417   0.935   2.063   0.493 -0.1835  0.1532  1.5227
 4325SOL    HW215418   0.949   1.924   0.435  0.6245  1.1558 -0.8069
 4326SOL     OW15419   8.952   3.857   3.304  0.0298 -0.5468  0.9537
 4326SOL    HW115420   9.039   3.869   3.342  0.5575  2.7419 -0.9624
 4326SOL    HW215421   8.895   3.841   3.380  2.0558 -1.5299  2.3574
 4327SOL     OW15422   9.182   5.938   0.151  0.4517  0.3085 -0.6786
 4327SOL    HW115423   9.208   5.852   0.119 -1.4413 -1.2056  1.5208
 4327SOL    HW215424   9.247   5.958   0.219  0.6352  0.4237 -0.8860
 4328SOL     OW15425   5.492   5.087   2.017 -0.3695  0.1982  0.6444
 4328SOL    HW115426   5.452   5.163   1.975 -1.2151 -0.1879  0.7383
 4328SOL    HW215427   5.567   5.066   1.960 -0.2140  1.0030  0.5392
 4329SOL     OW15428   7.345   9.990   7.968 -0.2006 -0.3822  0.0869
 4329SOL    HW115429   7.434  10.012   7.940 -0.6473  0.5071 -0.7225
 4329SOL    HW215430   7.311  10.071   8.005 -1.5780  0.1525 -2.1187
 4330SOL     OW15431   6.586   5.362   6.819 -0.4804  0.2358 -0.6618
 4330SOL    HW115432   6.676   5.364   6.789 -0.6649  0.5485 -1.2179
 4330SOL    HW215433   6.538   5.416   6.755 -0.8305  1.1972  0.3716
 4331SOL     OW15434   7.233   3.548   9.187 -0.1289 -0.3475 -0.1720
 4331SOL    HW115435   7.279   3.490   9.126  0.6087  0.4378 -0.3865
 4331SOL    HW215436   7.179   3.604   9.131  2.4309  2.0985 -0.4504
 4332SOL     OW15437   0.946   8.163   2.412  0.8583 -0.2131 -0.4058
 4332SOL    HW115438   0.975   8.250   2.388  0.0445 -0.1510 -1.2638
 4332SOL    HW215439   0.929   8.120   2.328 -1.4700 -0.2272 -0.0091
 4333SOL     OW15440   4.892  10.207   6.361  0.2373  0.5227 -0.5324
 4333SOL    HW115441   4.971  10.156   6.381  0.0237  1.1919  2.4909
 4333SOL    HW215442   4.912  10.251   6.278  2.3150 -0.7202 -0.7487
 4334SOL     OW15443   9.920   3.783   9.455 -0.1410 -0.7481 -0.0456
 4334SOL    HW115444   9.911   3.810   9.546 -1.5286  1.5587 -0.7736
 4334SOL    HW215445  10.013   3.761   9.445 -0.2988 -2.9940  2.3357
 4335SOL     OW15446   0.012   3.918   6.238  0.4448  0.7283  0.9543
 4335SOL    HW115447  -0.036   3.945   6.160  1.4185 -1.4993 -0.4847
 4335SOL    HW215448   0.098   3.958   6.229  0.3836  0.9181  1.1877
 4336SOL     OW15449   3.911   8.706   4.440 -0.2806  0.8422  0.0442
 4336SOL    HW115450   3.821   8.683   4.467 -0.8453  2.6733 -0.1419
 4336SOL    HW215451   3.945   8.626   4.401 -2.1610  0.3402 -0.6889
 4337SOL     OW15452   0.977   8.054   2.958 -0.1241  0.8642  0.5699
 4337SOL    HW115453   1.023   8.109   2.895 -0.6457  0.9942  0.2964
 4337SOL    HW215454   1.041   7.988   2.984 -0.0224  0.5761 -0.3897
 4338SOL     OW15455   3.843   5.321   1.588  0.2827 -0.3464 -0.2002
 4338SOL    HW115456   3.819   5.413   1.583 -0.1670 -0.4852 -0.7105
 4338SOL    HW215457   3.888   5.312   1.672  0.4559  0.3624 -0.2108
 4339SOL     OW15458   1.110   7.364   4.639  0.3335 -0.5085 -0.4588
 4339SOL    HW115459   1.119   7.421   4.716 -0.8903  0.0790 -0.7244
 4339SOL    HW215460   1.193   7.374   4.592 -0.6262  2.9676 -1.7478
 4340SOL     OW15461   1.241   9.320   4.457  0.3648  0.6427 -0.5035
 4340SOL    HW115462   1.216   9.277   4.538  0.1086 -0.2139 -1.0217
 4340SOL    HW215463   1.168   9.380   4.437  0.4184  0.8356 -0.1245
 4341SOL     OW15464  10.090   6.190   0.029  0.3041  0.0112  0.0779
 4341SOL    HW115465  10.065   6.105  -0.006 -0.3217 -0.0997  0.7602
 4341SOL    HW215466  10.021   6.249  -0.002 -0.2103 -0.0729  1.0264
 4342SOL     OW15467   5.096   5.244   6.461 -0.0775  0.1453 -0.3370
 4342SOL    HW115468   5.089   5.228   6.555  0.3381  1.0052 -0.1489
 4342SOL    HW215469   5.035   5.315   6.444 -0.2908 -0.1333 -0.7575
 4343SOL     OW15470   5.658   1.798   3.048  0.2665 -0.0924  0.4441
 4343SOL    HW115471   5.638   1.779   2.956  1.8536 -1.8865  0.4124
 4343SOL    HW215472   5.572   1.811   3.089 -0.5084 -0.0683 -1.1075
 4344SOL     OW15473   0.864   8.474   4.343  0.2116  0.5228 -0.1544
 4344SOL    HW115474   0.912   8.467   4.426 -0.5322  0.5990  0.2890
 4344SOL    HW215475   0.783   8.519   4.366  0.1973  0.9496 -1.0091
 4345SOL     OW15476   8.275   8.537   9.506  0.7897  0.6194 -0.4125
 4345SOL    HW115477   8.270   8.616   9.560  0.8925 -0.1542  0.7464
 4345SOL    HW215478   8.304   8.569   9.420 -1.2520  2.1500 -0.6367
 4346SOL     OW15479   9.091   2.547   5.930 -0.3155 -0.7285 -0.1167
 4346SOL    HW115480   9.147   2.572   6.004 -0.2489 -0.8371 -0.1300
 4346SOL    HW215481   9.152   2.509   5.867 -0.2887 -0.0785 -0.4827
 4347SOL     OW15482   9.683   2.688   4.786 -0.5276 -0.1378  0.1004
 4347SOL    HW115483   9.652   2.776   4.807 -0.2992  0.0884 -0.4740
 4347SOL    HW215484   9.638   2.631   4.848 -1.3207  0.2914 -0.0568
 4348SOL     OW15485   3.651   9.517   0.114 -0.0039  0.2876  0.3234
 4348SOL    HW115486   3.590   9.581   0.076  0.2504  0.8882  0.9207
 4348SOL    HW215487   3.737   9.544   0.083  0.0201 -0.3109 -0.1648
 4349SOL     OW15488   8.706   2.819   2.398  0.6364  0.0848  0.2910
 4349SOL    HW115489   8.780   2.854   2.350  0.1570 -1.7190 -1.9539
 4349SOL    HW215490   8.644   2.792   2.330 -1.7968  0.8473  2.0427
 4350SOL     OW15491   8.932   5.116   2.407  0.1337 -0.2994  0.1735
 4350SOL    HW115492   8.948   5.119   2.501  2.2906 -0.1804 -0.1578
 4350SOL    HW215493   8.988   5.184   2.370 -0.6896 -0.3336 -1.2119
 4351SOL     OW15494   7.188   0.536   6.433  0.2557 -0.0005  0.3186
 4351SOL    HW115495   7.210   0.494   6.516  1.8855 -1.3664 -0.7418
 4351SOL    HW215496   7.255   0.603   6.421  0.0252  0.1940  0.1169
 4352SOL     OW15497   1.884   0.213   2.789 -0.5605 -0.3802  0.1325
 4352SOL    HW115498   1.878   0.121   2.815  0.6471  0.0511  2.1709
 4352SOL    HW215499   1.839   0.261   2.859  0.2126  0.6786 -0.0611
 4353SOL     OW15500   9.656   6.034   2.180 -0.3854 -0.4269 -0.1572
 4353SOL    HW115501   9.602   5.965   2.218  0.1079 -0.6677  0.1098
 4353SOL    HW215502   9.596   6.108   2.169 -0.4969 -0.2787  1.2800
 4354SOL     OW15503   7.083   7.745   2.036  0.2665  0.1192  0.1455
 4354SOL    HW115504   7.006   7.799   2.054  0.5507  0.1004  1.4981
 4354SOL    HW215505   7.153   7.808   2.016 -0.4051  0.1177 -2.6733
 4355SOL     OW15506   3.862   3.492  10.100 -0.2455 -0.4406 -0.0226
 4355SOL    HW115507   3.947   3.498  10.143 -0.7569  1.5718  0.8506
 4355SOL    HW215508   3.881   3.456  10.013  1.9038  2.0763 -0.7442
 4356SOL     OW15509   6.688   8.612  10.214 -0.0114 -0.1729 -0.0750
 4356SOL    HW115510   6.631   8.536  10.203 -1.4761  0.9199 -0.4117
 4356SOL    HW215511   6.658   8.653  10.295 -0.5269  1.0586 -0.8536
 4357SOL     OW15512  10.158   8.963   0.936  0.1262 -0.5295 -0.1497
 4357SOL    HW115513  10.070   8.956   0.898  0.1271 -1.0300 -0.0638
 4357SOL    HW215514  10.146   8.943   1.029  0.0908  0.8902  0.1839
 4358SOL     OW15515   8.134   2.535   9.749  0.2789  0.9015  0.2838
 4358SOL    HW115516   8.147   2.447   9.715  1.3658  0.3164  2.0892
 4358SOL    HW215517   8.039   2.549   9.743 -0.0461 -0.7907  0.8536
 4359SOL     OW15518   9.707   9.794   5.984  0.5275 -0.1838  0.6730
 4359SOL    HW115519   9.660   9.859   5.932  2.0211 -1.2114 -2.1762
 4359SOL    HW215520   9.642   9.761   6.046 -0.5475  3.1948  1.5472
 4360SOL     OW15521   1.585   3.347   3.630  0.0813  0.2379  0.4000
 4360SOL    HW115522   1.573   3.357   3.536  0.9640  0.2750  0.2832
 4360SOL    HW215523   1.510   3.296   3.659 -0.6794  0.9921 -0.1742
 4361SOL     OW15524   0.182   9.659   2.890  0.2099 -0.2363 -0.1390
 4361SOL    HW115525   0.262   9.608   2.875  0.0089 -0.4216 -0.6079
 4361SOL    HW215526   0.125   9.599   2.939 -0.0280 -0.4695 -0.6940
 4362SOL     OW15527   8.472   4.943   9.651  0.1202  0.2915 -0.3095
 4362SOL    HW115528   8.404   5.009   9.661  2.6227  3.1971 -1.2401
 4362SOL    HW215529   8.490   4.940   9.557  0.5234 -1.2669 -0.2108
 4363SOL     OW15530   9.860   6.801  10.017  0.2985  0.3848  0.0368
 4363SOL    HW115531   9.782   6.813  10.072 -0.0833  1.4107 -0.7161
 4363SOL    HW215532   9.868   6.706  10.009  0.2926  0.1992  1.7603
 4364SOL     OW15533   5.339   7.188   2.230 -0.2522  0.0043  0.0331
 4364SOL    HW115534   5.359   7.245   2.304 -0.2214 -0.4636  0.3927
 4364SOL    HW215535   5.258   7.143   2.256 -1.2370  1.1224 -0.9629
 4365SOL     OW15536   2.318   3.508   5.827  0.5414  0.5395 -0.7446
 4365SOL    HW115537   2.311   3.582   5.888  0.5840 -0.7132  0.8485
 4365SOL    HW215538   2.403   3.519   5.785  2.1926 -0.4274  2.0714
 4366SOL     OW15539   8.258   7.063   8.932 -0.1904 -0.6270 -0.0764
 4366SOL    HW115540   8.295   7.036   8.848 -2.3258  0.5127 -1.4769
 4366SOL    HW215541   8.326   7.117   8.971  1.4162 -2.3510 -0.3512
 4367SOL     OW15542   4.308   7.263   5.528 -0.1868 -0.1101  0.0489
 4367SOL    HW115543   4.219   7.297   5.541 -0.0802  0.2495 -0.1280
 4367SOL    HW215544   4.341   7.313   5.453 -0.7626 -2.0316 -1.5883
 4368SOL     OW15545   0.669   2.954   2.452  0.4275  0.4727 -0.3246
 4368SOL    HW115546   0.604   3.020   2.427 -1.3061 -0.6146  1.0577
 4368SOL    HW215547   0.731   3.002   2.507 -1.8205  0.7062  2.2170
 4369SOL     OW15548   0.479   9.925   1.429 -0.5235 -0.3623 -0.3240
 4369SOL    HW115549   0.427   9.988   1.478 -1.1557 -0.3752 -0.9670
 4369SOL    HW215550   0.483   9.961   1.340  1.3761  0.1408 -0.0954
 4370SOL     OW15551   5.042   0.671   5.367  0.1620 -0.3554 -0.8769
 4370SOL    HW115552   4.958   0.626   5.367 -1.3896  2.2408  1.3600
 4370SOL    HW215553   5.090   0.630   5.440 -0.3744  0.1193 -0.2454
 4371SOL     OW15554   0.348   6.450   6.343  0.4212  0.3415  0.2456
 4371SOL    HW115555   0.434   6.485   6.363  0.3014  0.0221  1.3901
 4371SOL    HW215556   0.289   6.495   6.403 -0.1911  0.4664 -0.4392
 4372SOL     OW15557   4.137   3.518   6.673  0.0378 -0.3860  0.4411
 4372SOL    HW115558   4.109   3.509   6.764 -0.6489  0.9777  0.3868
 4372SOL    HW215559   4.085   3.454   6.625 -1.1836  0.3850  0.7094
 4373SOL     OW15560   7.297   4.743   5.562  0.0449  0.6491  0.2827
 4373SOL    HW115561   7.259   4.660   5.592  2.3272  0.5209  3.1863
 4373SOL    HW215562   7.308   4.731   5.467 -3.1621 -0.8174 -0.0415
 4374SOL     OW15563   9.638   3.389   3.368 -0.2399 -0.0848  0.4433
 4374SOL    HW115564   9.696   3.366   3.441 -0.3147  1.3212  0.9772
 4374SOL    HW215565   9.691   3.373   3.290 -0.1097 -1.4747  0.7910
 4375SOL     OW15566   5.375   4.429   5.153 -0.0943 -0.5646  0.2366
 4375SOL    HW115567   5.371   4.417   5.248  0.1631 -1.8634  0.0897
 4375SOL    HW215568   5.321   4.359   5.117  1.1194 -1.0967 -0.6331
 4376SOL     OW15569   1.776   3.006   1.435  0.4723  0.1624 -0.2265
 4376SOL    HW115570   1.812   3.002   1.524  0.2581  2.1226 -0.0239
 4376SOL    HW215571   1.843   3.051   1.384  0.1083  0.0390 -0.8184
 4377SOL     OW15572   9.291   6.109   1.708 -0.0633  0.1275  0.2165
 4377SOL    HW115573   9.349   6.104   1.632 -0.5242  0.0143 -0.1299
 4377SOL    HW215574   9.213   6.153   1.676 -0.6002 -0.6575  0.4151
 4378SOL     OW15575   7.355   0.538   4.271  0.2658 -0.2056 -0.4213
 4378SOL    HW115576   7.320   0.624   4.295  0.7376 -0.0102 -0.4029
 4378SOL    HW215577   7.428   0.559   4.212  0.5033 -0.5864 -0.2641
 4379SOL     OW15578   0.094   2.446   9.836 -0.3169  0.1040  0.2125
 4379SOL    HW115579   0.008   2.452   9.795  0.0474 -0.2002 -0.6140
 4379SOL    HW215580   0.100   2.355   9.865 -0.8118  0.4594  1.5115
 4380SOL     OW15581   9.212   1.463   6.854 -0.0979  0.1379 -0.2841
 4380SOL    HW115582   9.241   1.503   6.937 -0.0252  1.7425 -1.0441
 4380SOL    HW215583   9.292   1.427   6.816 -0.1508 -0.7153  0.3793
 4381SOL     OW15584  10.394   8.153   6.441 -0.5343  0.5864 -0.0498
 4381SOL    HW115585  10.374   8.072   6.395 -1.8991  0.9207 -0.1003
 4381SOL    HW215586  10.342   8.149   6.521  1.5717  0.1543  1.3615
 4382SOL     OW15587   1.496   0.444   4.115 -0.1041  0.5048 -0.3490
 4382SOL    HW115588   1.501   0.353   4.088 -0.1894  0.0420  1.0825
 4382SOL    HW215589   1.443   0.487   4.047  0.7806 -0.2751 -1.5624
 4383SOL     OW15590   3.936   1.200   4.502  0.5710  0.2544 -0.5702
 4383SOL    HW115591   3.899   1.149   4.574 -1.5405  2.6062  0.1929
 4383SOL    HW215592   3.947   1.137   4.431 -1.4227 -1.3604  0.4370
 4384SOL     OW15593   1.138   7.696   6.867  0.3949  0.2118  0.2649
 4384SOL    HW115594   1.107   7.690   6.777  1.2581 -1.2230  0.0477
 4384SOL    HW215595   1.081   7.637   6.916 -0.3793  1.3400  0.7765
 4385SOL     OW15596   0.773  10.226   3.802  0.4932 -0.1594 -0.1279
 4385SOL    HW115597   0.813  10.147   3.839 -1.3808 -1.3810 -0.5628
 4385SOL    HW215598   0.771  10.210   3.708 -1.3063 -0.3504 -0.1039
 4386SOL     OW15599   0.438   0.382   3.862 -0.4638  0.3358 -0.3978
 4386SOL    HW115600   0.439   0.450   3.930 -2.0428  0.5255 -0.5240
 4386SOL    HW215601   0.491   0.419   3.792 -1.1158  1.3636 -0.3767
 4387SOL     OW15602   7.979   8.136   3.012  0.2282 -0.0478  0.1157
 4387SOL    HW115603   7.954   8.159   3.102  0.2900  0.9781 -0.1103
 4387SOL    HW215604   8.071   8.163   3.006  0.9538 -2.2454  0.4295
 4388SOL     OW15605   3.885   8.231  10.031 -0.5729 -0.3252  0.0894
 4388SOL    HW115606   3.966   8.251  10.079  0.0666 -0.2801 -0.9945
 4388SOL    HW215607   3.884   8.293   9.958 -1.7064 -0.1789  0.2032
 4389SOL     OW15608   5.170   3.160   5.387 -0.1751 -0.5776 -0.4649
 4389SOL    HW115609   5.169   3.144   5.293  1.0431 -2.6101 -0.2056
 4389SOL    HW215610   5.081   3.137   5.416 -0.3369 -0.6717 -1.0304
 4390SOL     OW15611   9.058   3.601   7.429  0.5986 -0.2663 -0.3210
 4390SOL    HW115612   9.116   3.633   7.360 -0.2355 -0.7063 -1.2604
 4390SOL    HW215613   9.116   3.569   7.497  1.4458  0.8061 -0.5155
 4391SOL     OW15614   3.064   9.889   6.559  0.0747  0.8965  0.2226
 4391SOL    HW115615   3.116   9.965   6.535  0.0276  1.3114  1.3482
 4391SOL    HW215616   2.975   9.922   6.568 -0.3537  0.2576 -1.3652
 4392SOL     OW15617  10.082   4.153   0.506 -0.5937 -0.2320  0.2737
 4392SOL    HW115618  10.120   4.209   0.574  0.9204 -0.5422 -0.2741
 4392SOL    HW215619  10.037   4.084   0.555  0.0030 -0.1381  0.9737
 4393SOL     OW15620   4.921   2.028   3.284 -0.2820 -0.1656 -0.6434
 4393SOL    HW115621   4.938   1.976   3.205  0.6773 -3.5095  1.5280
 4393SOL    HW215622   4.827   2.045   3.282 -0.3854 -0.7644 -2.1837
 4394SOL     OW15623   5.697   4.611   3.646  0.4514 -0.0975  0.0451
 4394SOL    HW115624   5.676   4.687   3.591 -0.4157 -0.2622  0.1246
 4394SOL    HW215625   5.617   4.558   3.643  0.8709 -0.7537  0.4041
 4395SOL     OW15626   4.937   0.455   0.582  0.1906 -0.1242 -0.0619
 4395SOL    HW115627   5.021   0.474   0.540  0.0860 -1.3029 -0.8675
 4395SOL    HW215628   4.960   0.409   0.662  0.3712  1.6172  0.9265
 4396SOL     OW15629   5.771   6.877   3.896 -0.0189  0.0092 -0.0129
 4396SOL    HW115630   5.678   6.880   3.918  0.2773  0.0501  1.2920
 4396SOL    HW215631   5.816   6.905   3.976  1.0302  2.9685 -1.5128
 4397SOL     OW15632   1.397   1.735   4.874 -0.0550  0.3624  0.2411
 4397SOL    HW115633   1.469   1.719   4.934 -0.2495 -0.9718  0.1648
 4397SOL    HW215634   1.439   1.769   4.795  0.6570 -1.4392 -0.2063
 4398SOL     OW15635   0.012   9.991  10.218 -0.1596  0.6370 -0.0408
 4398SOL    HW115636   0.003   9.897  10.228  1.4964  0.3768 -0.6266
 4398SOL    HW215637  -0.038  10.012  10.139  0.8451 -0.0457 -0.8813
 4399SOL     OW15638   8.594   3.940   5.256 -0.5091 -0.5705 -0.5803
 4399SOL    HW115639   8.514   3.906   5.298 -0.7995 -0.6645 -1.2019
 4399SOL    HW215640   8.570   3.950   5.164  1.0011 -3.3177 -1.4000
 4400SOL     OW15641   3.333   7.603   4.660  0.2073 -0.1641  0.1036
 4400SOL    HW115642   3.421   7.584   4.628  1.2457  1.0690  2.0237
 4400SOL    HW215643   3.315   7.534   4.724 -0.6317 -0.9182 -0.9052
 4401SOL     OW15644   6.475   3.421   3.951 -0.1245  0.2890 -0.0879
 4401SOL    HW115645   6.441   3.332   3.953 -0.2418  0.2450  3.8378
 4401SOL    HW215646   6.570   3.410   3.946 -0.1850 -0.0032 -0.6422
 4402SOL     OW15647   6.600   9.470   6.874 -0.6125  0.1213 -0.2642
 4402SOL    HW115648   6.670   9.411   6.901 -2.4642 -1.2170  2.0319
 4402SOL    HW215649   6.625   9.555   6.909  0.1904 -0.1915 -0.0688
 4403SOL     OW15650   8.702   7.573   6.819  0.0163  0.4318  0.1791
 4403SOL    HW115651   8.623   7.582   6.766 -0.5231 -0.8315  0.7344
 4403SOL    HW215652   8.767   7.627   6.774 -1.0967  1.3372 -0.3914
 4404SOL     OW15653   6.396   1.558  10.109 -0.3214 -0.9703  0.5394
 4404SOL    HW115654   6.452   1.631  10.082  0.3305 -1.2474  1.1186
 4404SOL    HW215655   6.325   1.559  10.045  1.5625 -2.0976 -1.7713
 4405SOL     OW15656   6.646   0.743   6.548  0.2259  0.0175  0.3940
 4405SOL    HW115657   6.642   0.698   6.632 -0.9143 -0.6797 -0.0118
 4405SOL    HW215658   6.691   0.825   6.567  2.0240 -1.1116  1.2237
 4406SOL     OW15659   9.328   9.063   8.920  0.2231  0.5952 -0.1926
 4406SOL    HW115660   9.284   9.064   8.835  0.4517 -0.3880 -0.3359
 4406SOL    HW215661   9.374   8.979   8.922 -1.3216 -0.2771  1.6791
 4407SOL     OW15662   6.126   5.906  10.186  0.5005  0.1205 -0.2659
 4407SOL    HW115663   6.150   5.888  10.277  0.1558  0.5964 -0.0792
 4407SOL    HW215664   6.039   5.865  10.176  0.7163 -0.2901 -0.5042
 4408SOL     OW15665   2.518   0.571   3.850 -0.6151 -0.1740 -0.1145
 4408SOL    HW115666   2.610   0.569   3.879 -0.1931 -0.2903 -1.4078
 4408SOL    HW215667   2.512   0.647   3.793 -1.1909 -0.4679 -0.4538
 4409SOL     OW15668   4.835   2.013   9.685 -0.2278 -0.0927  0.2584
 4409SOL    HW115669   4.919   2.051   9.711 -0.5777  0.3786  0.7038
 4409SOL    HW215670   4.841   2.005   9.590  0.2190  0.1899  0.2605
 4410SOL     OW15671   1.265   7.172   1.032 -0.6341  0.4750  0.4891
 4410SOL    HW115672   1.229   7.160   0.944  0.0974  0.3653  0.1921
 4410SOL    HW215673   1.189   7.187   1.088 -1.2189 -0.8360  0.0754
 4411SOL     OW15674  10.129   9.938   7.969  0.6192 -0.1383  0.0519
 4411SOL    HW115675  10.102   9.952   8.060 -0.5395 -0.7728 -0.1728
 4411SOL    HW215676  10.213   9.983   7.962  0.6578  0.0489  1.3949
 4412SOL     OW15677   2.537   1.770   0.406 -0.0489  0.3794 -0.3109
 4412SOL    HW115678   2.546   1.675   0.405  0.5355  0.4273 -0.1108
 4412SOL    HW215679   2.446   1.786   0.431 -0.6907 -0.1435 -2.1451
 4413SOL     OW15680   9.028   9.575   4.825  0.0030  0.1362  0.1191
 4413SOL    HW115681   8.992   9.531   4.748 -0.8120  1.0329 -0.0234
 4413SOL    HW215682   9.088   9.640   4.789  1.5600 -1.1012  0.3436
 4414SOL     OW15683   4.975   8.883   9.700 -0.3657 -0.2471  0.0894
 4414SOL    HW115684   4.923   8.909   9.776  1.0279 -2.5991  1.9984
 4414SOL    HW215685   4.968   8.787   9.699  1.3391 -0.4016 -1.4900
 4415SOL     OW15686   0.612   6.082   0.836  0.0773  0.1291 -0.0615
 4415SOL    HW115687   0.626   5.989   0.855 -0.2172 -0.2201 -1.4303
 4415SOL    HW215688   0.610   6.086   0.740 -2.2943  1.1697 -0.0416
 4416SOL     OW15689   5.411   3.932   4.091  0.3119  0.2517  0.4976
 4416SOL    HW115690   5.340   3.915   4.153 -2.0211 -1.1976 -2.3339
 4416SOL    HW215691   5.392   3.875   4.017  3.4874  1.1722 -1.2003
 4417SOL     OW15692   9.940   2.280   1.309  0.0827  0.1630 -0.7714
 4417SOL    HW115693   9.875   2.350   1.309  0.6548  0.8021  1.4423
 4417SOL    HW215694  10.024   2.325   1.314  0.4360 -0.6032  1.5251
 4418SOL     OW15695   6.604   2.967   4.543 -0.5712  0.7729 -0.0920
 4418SOL    HW115696   6.680   3.000   4.496 -0.2258  0.1067 -0.0174
 4418SOL    HW215697   6.580   2.887   4.496 -0.4010  0.2523  0.6789
 4419SOL     OW15698   4.233   2.490   6.194 -0.3204  0.4226  0.0526
 4419SOL    HW115699   4.186   2.571   6.213  0.7380  1.0949 -0.1138
 4419SOL    HW215700   4.166   2.422   6.196 -0.7813  0.7596  3.6397
 4420SOL     OW15701   3.617   8.807  10.283 -0.3587 -0.0537  0.1718
 4420SOL    HW115702   3.587   8.861  10.355  0.4821 -0.9411  1.2375
 4420SOL    HW215703   3.559   8.730  10.284 -1.5897  0.7963 -1.3697
 4421SOL     OW15704   7.375   3.675   0.631 -0.2356 -0.2897  0.8610
 4421SOL    HW115705   7.444   3.735   0.662 -0.6979  0.1223  1.1005
 4421SOL    HW215706   7.320   3.730   0.575 -1.7652  0.0257  2.5900
 4422SOL     OW15707   6.911   0.886  10.397 -0.6257 -0.4180  0.4328
 4422SOL    HW115708   6.834   0.901  10.452 -0.4994 -0.0651  0.5139
 4422SOL    HW215709   6.878   0.833  10.324 -1.3064  1.0942 -0.3965
 4423SOL     OW15710   6.433   7.547   1.531  0.1938  0.0014  0.1254
 4423SOL    HW115711   6.363   7.562   1.467 -0.3862 -0.6919  0.5720
 4423SOL    HW215712   6.474   7.632   1.543 -0.5089  0.3987 -0.2294
 4424SOL     OW15713   0.578   9.615   9.282 -0.0213 -0.4892 -0.3390
 4424SOL    HW115714   0.625   9.631   9.364 -0.0305  1.2226 -0.6222
 4424SOL    HW215715   0.639   9.642   9.214 -0.9455  0.6022 -0.7611
 4425SOL     OW15716   7.158   6.881   8.944  0.2101 -0.3679  0.2258
 4425SOL    HW115717   7.199   6.968   8.950 -0.1697 -0.2139  0.7755
 4425SOL    HW215718   7.226   6.820   8.971  0.4955 -0.2448 -0.2119
 4426SOL     OW15719   4.760   6.655   0.221 -0.3043  0.2379  0.6511
 4426SOL    HW115720   4.697   6.639   0.150  1.0126  0.2196 -0.5625
 4426SOL    HW215721   4.717   6.622   0.300 -1.5588 -0.3343 -0.2406
 4427SOL     OW15722   1.977   2.773   4.759  0.4349 -0.3884 -0.1058
 4427SOL    HW115723   1.915   2.839   4.789  0.9431  0.4152 -0.7909
 4427SOL    HW215724   2.062   2.804   4.787  0.4643 -2.4378  2.5489
 4428SOL     OW15725  10.236   2.562   0.348  0.5352 -0.3624 -0.4178
 4428SOL    HW115726  10.166   2.597   0.292  0.6001  0.6873  0.1393
 4428SOL    HW215727  10.316   2.603   0.314  0.4240  1.3461  1.2450
 4429SOL     OW15728   9.653   9.643   4.702 -0.1738  0.7932 -0.4620
 4429SOL    HW115729   9.666   9.576   4.635 -0.0370  0.2485  0.0986
 4429SOL    HW215730   9.739   9.651   4.744 -0.3388  0.9053 -0.1471
 4430SOL     OW15731   4.805   5.979   1.337 -0.3378 -0.0232  0.3315
 4430SOL    HW115732   4.847   6.051   1.384 -0.7885  0.0771  0.5917
 4430SOL    HW215733   4.834   5.988   1.247 -0.0890  0.2566  0.4376
 4431SOL     OW15734   6.746   8.142   6.882 -0.4347  0.4806  0.0637
 4431SOL    HW115735   6.683   8.170   6.949  1.4148  1.1154  1.6240
 4431SOL    HW215736   6.831   8.148   6.925  0.6888 -0.7009 -1.8582
 4432SOL     OW15737   7.306   1.995   1.618  0.2091  0.4112 -0.0094
 4432SOL    HW115738   7.294   2.030   1.530  1.6344 -1.9865 -1.2552
 4432SOL    HW215739   7.398   1.969   1.621  0.1135  0.1609  2.1048
 4433SOL     OW15740   8.906   0.449   2.757 -0.6603  0.1943  0.4489
 4433SOL    HW115741   8.874   0.441   2.667  0.0056 -1.5840  0.3240
 4433SOL    HW215742   8.985   0.503   2.749 -0.7607  0.2843  0.0081
 4434SOL     OW15743   2.982   9.159   7.444 -0.4238 -0.4946 -0.0098
 4434SOL    HW115744   2.923   9.232   7.466  1.7203  1.3462 -0.0279
 4434SOL    HW215745   2.972   9.147   7.350  0.9501  1.5137 -0.4777
 4435SOL     OW15746   0.569   4.807   6.390  0.8989 -0.3902 -0.2097
 4435SOL    HW115747   0.640   4.870   6.390  0.9574 -0.4353 -1.2570
 4435SOL    HW215748   0.611   4.722   6.405  1.1753 -0.5018 -1.4800
 4436SOL     OW15749   5.467  10.398   3.681  0.4100 -0.0481 -0.5923
 4436SOL    HW115750   5.396  10.449   3.719  2.2598  2.0053  0.3234
 4436SOL    HW215751   5.424  10.339   3.618 -2.0000  1.5108 -0.5143
 4437SOL     OW15752   0.394   3.935   8.066  0.2086 -0.4715  0.0955
 4437SOL    HW115753   0.374   3.866   8.129  1.1706 -0.2534  0.6645
 4437SOL    HW215754   0.309   3.974   8.045  0.0221  1.2112  3.2896
 4438SOL     OW15755   8.942   0.397   3.765 -0.1337  0.3394 -0.0372
 4438SOL    HW115756   8.935   0.488   3.735 -1.2503 -0.0248 -0.9406
 4438SOL    HW215757   8.939   0.345   3.685  1.6288 -0.4841  0.3778
 4439SOL     OW15758   8.980   4.725   5.789 -0.0841 -0.7201  0.0372
 4439SOL    HW115759   9.025   4.730   5.873  1.7107 -2.8517 -0.7128
 4439SOL    HW215760   9.031   4.781   5.731  0.7043 -1.8769 -0.4175
 4440SOL     OW15761  10.221   8.441   8.353 -0.6107 -0.2790  0.6027
 4440SOL    HW115762  10.236   8.430   8.259 -1.5565  0.9227  0.2864
 4440SOL    HW215763  10.126   8.428   8.363 -0.6907  0.7041  1.2122
 4441SOL     OW15764  10.389   2.143   9.295 -0.5386 -0.1501 -0.0840
 4441SOL    HW115765  10.448   2.178   9.361 -1.4343  2.0138 -0.3383
 4441SOL    HW215766  10.414   2.051   9.285  1.5021  0.2332  1.1496
 4442SOL     OW15767   7.096   3.406   5.450 -0.1374  0.2625  0.7259
 4442SOL    HW115768   7.170   3.452   5.490 -0.0591  0.1589  0.6986
 4442SOL    HW215769   7.094   3.437   5.360  0.0991 -0.0131  0.6244
 4443SOL     OW15770   6.283   7.054   9.383  0.0165 -0.1327 -0.3395
 4443SOL    HW115771   6.326   7.132   9.349  1.8178 -1.3413 -0.9457
 4443SOL    HW215772   6.309   6.983   9.323  0.0860 -1.5852  1.3314
 4444SOL     OW15773   7.563   8.835   2.289  0.3187  0.3263 -0.2480
 4444SOL    HW115774   7.539   8.846   2.197 -2.4835  0.1545  0.3798
 4444SOL    HW215775   7.593   8.744   2.296  0.7210  0.3989 -1.0122
 4445SOL     OW15776   0.265   2.001   1.438  0.2289  0.1750 -0.2148
 4445SOL    HW115777   0.225   1.999   1.525 -1.9321 -1.4970 -1.1344
 4445SOL    HW215778   0.301   1.914   1.426  2.2230  0.9702 -0.3195
 4446SOL     OW15779   2.628   3.577   4.551 -0.1538 -0.0915  0.2363
 4446SOL    HW115780   2.562   3.516   4.518 -0.0042  0.2353 -0.6708
 4446SOL    HW215781   2.699   3.520   4.580  0.3041 -0.3474 -1.2971
 4447SOL     OW15782   3.740   3.624   8.175  0.1327  0.6630  0.0931
 4447SOL    HW115783   3.763   3.628   8.083 -0.8223  0.8007 -0.1512
 4447SOL    HW215784   3.805   3.678   8.219 -0.2390  1.7622 -0.6771
 4448SOL     OW15785   8.650   1.420   4.762  0.0966 -0.3256  0.0852
 4448SOL    HW115786   8.624   1.477   4.834 -2.0481 -1.1449  0.0301
 4448SOL    HW215787   8.609   1.459   4.684 -1.6350 -2.0045  0.0838
 4449SOL     OW15788   3.865   7.683   5.181  0.4656 -0.6401 -0.2808
 4449SOL    HW115789   3.891   7.625   5.109  0.2309 -2.9205  1.3538
 4449SOL    HW215790   3.770   7.689   5.174  0.3271 -1.7247  0.3907
 4450SOL     OW15791   7.891   4.184  10.192  0.2663  0.5199 -0.1867
 4450SOL    HW115792   7.813   4.135  10.214 -0.1111 -0.0027 -2.4240
 4450SOL    HW215793   7.956   4.158  10.258 -0.4968 -1.4913 -0.1607
 4451SOL     OW15794   1.138   0.604   7.812 -0.2027 -0.1081  0.1570
 4451SOL    HW115795   1.183   0.587   7.729  0.4289  1.5936  0.1078
 4451SOL    HW215796   1.135   0.518   7.856  0.4911 -0.8096 -1.1096
 4452SOL     OW15797   4.662   6.514   1.309 -0.1377  0.2368 -0.2069
 4452SOL    HW115798   4.591   6.451   1.321 -0.7805  0.7505 -1.1999
 4452SOL    HW215799   4.690   6.501   1.218  0.1888  0.9011 -0.2067
 4453SOL     OW15800   0.908   4.796   8.475 -0.3739 -0.3360  0.7888
 4453SOL    HW115801   0.830   4.831   8.517 -1.5308 -1.1415 -0.6158
 4453SOL    HW215802   0.877   4.757   8.394  1.5482 -0.3363 -0.0076
 4454SOL     OW15803   1.937   7.538   2.075  0.2462 -0.1971  0.2068
 4454SOL    HW115804   1.991   7.582   2.140 -0.3341  0.8783 -0.0139
 4454SOL    HW215805   1.887   7.473   2.124  1.0059 -0.5193  0.5620
 4455SOL     OW15806   4.657   0.234   5.603  0.4449  0.0294 -0.2659
 4455SOL    HW115807   4.715   0.188   5.543 -0.0192 -0.3899 -0.4006
 4455SOL    HW215808   4.579   0.179   5.609 -0.8165  1.5315 -1.6877
 4456SOL     OW15809   7.964   5.543   6.974  0.1470  0.2698  0.0314
 4456SOL    HW115810   8.046   5.589   6.960  0.6111 -0.3479  0.6774
 4456SOL    HW215811   7.943   5.560   7.066  0.1655 -0.5600  0.1885
 4457SOL     OW15812   7.497   5.330   2.937 -0.4382  0.4504  0.4886
 4457SOL    HW115813   7.431   5.305   2.872  0.7709 -1.3595 -0.1346
 4457SOL    HW215814   7.485   5.424   2.949 -2.0948  0.4376 -0.7524
 4458SOL     OW15815   0.325   1.904   0.896 -0.4578  0.5491  0.0416
 4458SOL    HW115816   0.364   1.850   0.965  0.1182 -2.5971 -2.5114
 4458SOL    HW215817   0.396   1.915   0.832 -1.7299  0.9459 -1.3478
 4459SOL     OW15818   8.880   9.405   7.054  0.3067 -0.3302 -0.9766
 4459SOL    HW115819   8.955   9.354   7.085  0.4137 -0.2504 -1.0947
 4459SOL    HW215820   8.820   9.340   7.017  0.0233 -0.4564 -0.2928
 4460SOL     OW15821   0.487   9.704   2.165  0.2960  0.2066  0.1081
 4460SOL    HW115822   0.404   9.726   2.122  0.7482 -0.0098 -0.9008
 4460SOL    HW215823   0.541   9.782   2.151  0.4890  0.0815  0.1714
 4461SOL     OW15824   2.030   5.373   8.538  0.3958  0.2940 -0.7240
 4461SOL    HW115825   1.989   5.457   8.559  0.2238 -0.1890  1.0310
 4461SOL    HW215826   2.057   5.338   8.622  0.8901 -1.2078 -1.4748
 4462SOL     OW15827   0.916   9.846   2.110  0.1054 -0.1477  0.2593
 4462SOL    HW115828   0.984   9.909   2.133 -0.6856  0.8917 -0.1673
 4462SOL    HW215829   0.925   9.776   2.175  1.6096 -0.0723  0.1659
 4463SOL     OW15830   2.365   3.854   7.737  0.7733  0.0697  0.0483
 4463SOL    HW115831   2.279   3.862   7.694  0.6415  1.0682  0.4754
 4463SOL    HW215832   2.354   3.784   7.801 -0.4242  1.6791  1.6931
 4464SOL     OW15833   1.361   1.372   6.631  0.0686 -0.0458  0.6814
 4464SOL    HW115834   1.317   1.375   6.546 -1.4221  0.3662  1.4431
 4464SOL    HW215835   1.387   1.280   6.641  0.3041 -0.0872 -0.2276
 4465SOL     OW15836   5.734   0.583   3.646  0.9289 -0.1131 -0.2619
 4465SOL    HW115837   5.818   0.537   3.648  0.6432 -0.6469 -0.4223
 4465SOL    HW215838   5.728   0.624   3.733  0.8768 -0.9469  0.1370
 4466SOL     OW15839   9.806   0.137   8.201 -0.3874  0.5195 -0.4253
 4466SOL    HW115840   9.741   0.149   8.270 -0.3452  1.1049 -0.4876
 4466SOL    HW215841   9.765   0.173   8.122  0.1247  1.1703 -0.4009
 4467SOL     OW15842   7.550   1.366   1.337  0.3041 -0.3989  0.3552
 4467SOL    HW115843   7.463   1.331   1.317  0.2869 -0.4357  0.4887
 4467SOL    HW215844   7.533   1.445   1.388  0.3553 -1.4442  2.0775
 4468SOL     OW15845   9.565   7.206   8.270 -0.2439  0.6390 -0.4163
 4468SOL    HW115846   9.617   7.187   8.192  0.3804 -2.4505  0.5924
 4468SOL    HW215847   9.478   7.171   8.250 -0.1315 -0.0014  0.1595
 4469SOL     OW15848   0.654   5.290   1.735 -0.2318 -0.2425 -0.5057
 4469SOL    HW115849   0.629   5.198   1.727 -1.9275  0.2672 -1.5476
 4469SOL    HW215850   0.580   5.331   1.778 -0.0251  0.8432 -1.1452
 4470SOL     OW15851   8.172   2.680   0.694  0.4298 -0.4331  0.5682
 4470SOL    HW115852   8.184   2.704   0.603  2.1848  1.6227  1.2438
 4470SOL    HW215853   8.078   2.675   0.706  0.0053  2.4516 -0.6771
 4471SOL     OW15854   9.110   2.737   9.941  0.5440 -0.8432  0.1270
 4471SOL    HW115855   9.169   2.793   9.891  1.4373 -1.8262  0.0521
 4471SOL    HW215856   9.109   2.777  10.028 -0.9791  0.8422 -0.6105
 4472SOL     OW15857   6.818   0.814   2.273  0.0969  0.3826  0.4110
 4472SOL    HW115858   6.890   0.877   2.287  0.8665  0.2828 -2.3614
 4472SOL    HW215859   6.858   0.745   2.219 -1.8534 -0.1343 -0.4415
 4473SOL     OW15860   5.052   8.775   9.377 -0.2961 -0.2141 -0.0085
 4473SOL    HW115861   5.069   8.700   9.319  1.4345  0.5126 -0.5195
 4473SOL    HW215862   5.031   8.736   9.461  0.3272 -1.2976 -0.3279
 4474SOL     OW15863   2.702   3.823   6.296  0.0527  0.1295 -0.9048
 4474SOL    HW115864   2.773   3.828   6.360  1.7645  1.2279 -2.7724
 4474SOL    HW215865   2.731   3.758   6.232 -0.5038  0.7529 -1.8224
 4475SOL     OW15866   0.001   3.212   7.155 -0.6410  0.4160  0.0052
 4475SOL    HW115867  -0.002   3.275   7.227 -2.3884 -0.3634  0.6682
 4475SOL    HW215868  -0.017   3.264   7.077 -1.3652  0.8762  0.4617
 4476SOL     OW15869   5.400   2.823   4.244  0.2302  0.5749  0.4853
 4476SOL    HW115870   5.412   2.849   4.152 -0.1052 -0.9087  0.0044
 4476SOL    HW215871   5.449   2.741   4.252 -1.3258 -0.3296  1.1123
 4477SOL     OW15872   3.999   2.063   8.388 -0.8686 -0.5021  0.1870
 4477SOL    HW115873   3.976   1.971   8.393 -2.4485 -0.4365 -2.9829
 4477SOL    HW215874   3.918   2.106   8.361  0.1214  1.6563  0.4501
 4478SOL     OW15875   6.892   4.610   6.307 -0.6104 -0.2351 -0.0432
 4478SOL    HW115876   6.954   4.568   6.367  0.4771  0.1127 -0.9016
 4478SOL    HW215877   6.812   4.558   6.317  0.3520 -1.8338 -0.2301
 4479SOL     OW15878   7.381   2.141   7.163  0.2663 -0.3608  0.6787
 4479SOL    HW115879   7.415   2.226   7.135 -0.4145 -0.2910  0.0616
 4479SOL    HW215880   7.418   2.078   7.100 -0.8410 -0.2672 -0.0860
 4480SOL     OW15881   1.834   0.574   4.537 -0.2251 -0.4069  0.2816
 4480SOL    HW115882   1.910   0.535   4.493  0.0680  0.4054  0.0588
 4480SOL    HW215883   1.852   0.563   4.630 -0.2421 -0.9719  0.2271
 4481SOL     OW15884   7.990   1.629   1.566 -0.9875  0.4770 -0.1139
 4481SOL    HW115885   8.030   1.714   1.547 -1.0258  0.2786 -1.1224
 4481SOL    HW215886   7.927   1.616   1.496 -0.3730 -0.7776 -0.4620
 4482SOL     OW15887   1.678   6.597   6.257  0.3585 -0.0797  0.2394
 4482SOL    HW115888   1.703   6.559   6.172  1.2615  0.8825  0.0574
 4482SOL    HW215889   1.643   6.523   6.306  0.4075 -0.7832 -0.7513
 4483SOL     OW15890   8.772   1.261   2.919 -0.6577  0.2430  0.4164
 4483SOL    HW115891   8.736   1.310   2.845 -0.0256  0.4837  0.2647
 4483SOL    HW215892   8.789   1.174   2.884 -0.1527  0.4200  0.2138
 4484SOL     OW15893   6.674   9.129   2.005  0.5236 -0.5091  0.3834
 4484SOL    HW115894   6.680   9.129   2.100  0.7148  2.9465  0.4855
 4484SOL    HW215895   6.765   9.130   1.975  0.5004 -2.7593  0.0242
 4485SOL     OW15896   7.814   5.819   8.852 -0.0923 -0.2696  0.1261
 4485SOL    HW115897   7.742   5.758   8.861 -0.4276 -0.2022 -1.7436
 4485SOL    HW215898   7.822   5.834   8.758  0.8630  1.5125  0.4385
 4486SOL     OW15899   8.957  10.090   6.484  0.3288 -0.1213  0.6931
 4486SOL    HW115900   8.863  10.088   6.501  0.7007 -0.0360  3.0853
 4486SOL    HW215901   8.991  10.158   6.543  1.8102  0.3616 -0.6580
 4487SOL     OW15902   5.800   7.283   4.302 -0.1722  0.0169 -0.3853
 4487SOL    HW115903   5.889   7.248   4.294 -0.8347 -2.0314  0.4032
 4487SOL    HW215904   5.812   7.376   4.320  1.8557 -0.4330  0.9340
 4488SOL     OW15905   5.001   8.148   0.565 -0.6236  0.0220 -0.4957
 4488SOL    HW115906   4.914   8.121   0.594 -0.6421 -0.5442 -1.0489
 4488SOL    HW215907   5.056   8.071   0.579 -0.2848  0.2667 -0.4690
 4489SOL     OW15908   6.065   3.047   4.222  0.0473 -0.1100  0.0884
 4489SOL    HW115909   6.078   3.142   4.219  0.9979 -0.2500 -0.9845
 4489SOL    HW215910   6.080   3.018   4.132  0.2227 -1.3242  0.4916
 4490SOL     OW15911  10.488   6.209   8.147 -0.0238  0.3886 -0.4662
 4490SOL    HW115912  10.519   6.137   8.200 -2.9602 -0.0192  0.9167
 4490SOL    HW215913  10.559   6.273   8.148  1.6241 -1.3861  0.4375
 4491SOL     OW15914   8.174   6.746   4.609 -0.3176 -0.0128  0.5881
 4491SOL    HW115915   8.147   6.765   4.519 -0.2922  1.5004  0.8653
 4491SOL    HW215916   8.211   6.658   4.605  0.4393  0.3299 -1.0489
 4492SOL     OW15917   9.636   4.058   7.817 -0.1616 -0.6432  0.0675
 4492SOL    HW115918   9.707   4.070   7.754 -0.2009 -1.8023 -0.2178
 4492SOL    HW215919   9.667   4.104   7.896  0.7173 -0.7823 -0.1841
 4493SOL     OW15920   3.196   0.677   9.225  0.0984  0.3789 -0.3818
 4493SOL    HW115921   3.139   0.646   9.295  1.1528 -0.9322 -0.0783
 4493SOL    HW215922   3.145   0.664   9.145  0.5477 -2.3641 -0.2957
 4494SOL     OW15923   7.906   6.902   2.550  0.0788  0.3683  0.0013
 4494SOL    HW115924   7.835   6.850   2.587  1.0340 -0.5770  0.6040
 4494SOL    HW215925   7.878   6.993   2.560  0.5535  0.2686  3.8619
 4495SOL     OW15926   1.470  10.290   6.697 -0.1630  0.1704 -0.4968
 4495SOL    HW115927   1.463  10.360   6.632  0.5203 -0.0586 -0.8171
 4495SOL    HW215928   1.555  10.250   6.681 -0.4853 -0.6452 -0.2201
 4496SOL     OW15929   5.891  10.074   2.931  0.9374 -0.3210  0.1059
 4496SOL    HW115930   5.909  10.055   3.024  0.9366  1.0271  0.4006
 4496SOL    HW215931   5.884   9.988   2.890 -0.0592 -0.9715  1.5512
 4497SOL     OW15932  10.217  10.291   7.248  0.1778  0.3265 -0.1750
 4497SOL    HW115933  10.194  10.217   7.305  0.5126  0.9826  0.8454
 4497SOL    HW215934  10.235  10.363   7.309  2.5572  0.5217 -0.9984
 4498SOL     OW15935   1.801   9.613   0.607  0.4943  0.3887  0.0234
 4498SOL    HW115936   1.739   9.583   0.541  0.6179 -1.4378  0.6738
 4498SOL    HW215937   1.758   9.595   0.690  1.3256  0.4062  0.4706
 4499SOL     OW15938   9.535   9.788   5.585  0.5225  0.3253  0.1055
 4499SOL    HW115939   9.452   9.804   5.539 -0.8383 -0.2312  2.2257
 4499SOL    HW215940   9.516   9.715   5.644  2.5177  0.2263  0.6923
 4500SOL     OW15941   7.474   8.733   3.340  0.6437 -0.0148 -0.3489
 4500SOL    HW115942   7.386   8.734   3.303 -0.6532 -1.4707  2.3554
 4500SOL    HW215943   7.532   8.730   3.265 -1.6717 -0.3856 -2.2351
 4501SOL     OW15944   6.454   9.276   6.706 -0.1396 -0.8215 -0.4961
 4501SOL    HW115945   6.491   9.327   6.778  0.8904 -0.0978 -1.4968
 4501SOL    HW215946   6.367   9.314   6.691  0.8785  1.2461 -1.7041
 4502SOL     OW15947   0.849   4.696   8.212  0.2135  0.5854 -0.0307
 4502SOL    HW115948   0.908   4.771   8.218 -0.5554  1.1752  0.3383
 4502SOL    HW215949   0.847   4.674   8.119  3.0665 -1.1427  0.2029
 4503SOL     OW15950   5.283   4.097   2.837  0.0971 -0.2701  0.7467
 4503SOL    HW115951   5.312   4.074   2.925  0.2526 -1.6442  0.3708
 4503SOL    HW215952   5.345   4.053   2.779 -0.1882  0.3562 -0.0548
 4504SOL     OW15953   0.104   6.665   9.317 -0.1894 -0.2508 -0.0220
 4504SOL    HW115954   0.037   6.730   9.294 -1.8085 -1.8716 -0.0899
 4504SOL    HW215955   0.155   6.654   9.237  0.2125  1.0254  0.0388
 4505SOL     OW15956   8.573   9.211   7.301  0.2830 -0.0830  0.0908
 4505SOL    HW115957   8.585   9.142   7.236  1.3761  0.7879 -0.6806
 4505SOL    HW215958   8.550   9.289   7.249  0.7553  0.5343  0.7849
 4506SOL     OW15959   6.627   9.064   6.631  0.7784 -0.0120 -0.3367
 4506SOL    HW115960   6.627   9.003   6.705  0.4830 -0.3055 -0.5771
 4506SOL    HW215961   6.582   9.142   6.666  2.0641  0.4752  0.2857
 4507SOL     OW15962   0.420   0.928   8.447  0.0391  0.4308 -0.1618
 4507SOL    HW115963   0.343   0.906   8.500  0.4991  2.3368  1.3589
 4507SOL    HW215964   0.428   1.023   8.453  2.7178  0.2558 -0.0181
 4508SOL     OW15965   7.069   5.976   5.467  0.2675 -0.0200 -0.0232
 4508SOL    HW115966   7.150   5.998   5.421  0.6513  0.2720  0.7895
 4508SOL    HW215967   7.050   5.886   5.440 -0.0431  0.4641 -1.5119
 4509SOL     OW15968   5.157   5.869  10.336  0.4383 -0.0472  0.2843
 4509SOL    HW115969   5.234   5.872  10.279  0.5903  0.3559  0.5088
 4509SOL    HW215970   5.182   5.921  10.412  0.3439 -0.8203  0.8564
 4510SOL     OW15971   2.759   4.584   0.973 -0.2933  0.6800  0.1686
 4510SOL    HW115972   2.750   4.670   1.013  2.6204  1.3927 -0.4602
 4510SOL    HW215973   2.826   4.540   1.025 -0.7111 -0.6681 -0.3796
 4511SOL     OW15974   6.673   7.602   9.161  0.4289 -0.2411 -0.0488
 4511SOL    HW115975   6.674   7.662   9.086  0.8341 -0.1679  0.0151
 4511SOL    HW215976   6.602   7.635   9.216  0.0911 -0.3272 -0.4236
 4512SOL     OW15977   8.291   0.765   4.302 -0.6087 -0.1556  0.8465
 4512SOL    HW115978   8.296   0.859   4.318  1.7599  0.4305 -2.2860
 4512SOL    HW215979   8.198   0.745   4.311 -1.7574  3.1972 -1.2705
 4513SOL     OW15980  10.130   8.080   4.348 -0.2559  0.5532 -0.3093
 4513SOL    HW115981  10.075   8.101   4.423 -0.4989  1.1122 -0.6369
 4513SOL    HW215982  10.146   7.986   4.355 -1.2315  0.3880 -0.1888
 4514SOL     OW15983   3.305   9.460   1.741  0.3700 -0.3680  0.6750
 4514SOL    HW115984   3.270   9.402   1.674  1.3075 -0.6890  0.4534
 4514SOL    HW215985   3.253   9.440   1.819  0.0566 -0.8321  0.3551
 4515SOL     OW15986   9.261   3.968   2.703 -0.3836  0.0803 -0.3195
 4515SOL    HW115987   9.218   3.954   2.619 -0.2719 -1.6283 -0.1291
 4515SOL    HW215988   9.235   3.892   2.756 -0.3719  1.0576  1.1666
 4516SOL     OW15989   3.728  10.083   9.883 -0.7377  0.2951 -0.2566
 4516SOL    HW115990   3.803  10.051   9.934 -1.0150 -0.3371 -0.2342
 4516SOL    HW215991   3.761  10.160   9.836 -0.1934  0.2642  0.0734
 4517SOL     OW15992   7.957   0.168   9.873  0.1978  0.0367 -0.1275
 4517SOL    HW115993   8.007   0.209   9.802  0.9256  1.3254  1.0925
 4517SOL    HW215994   8.000   0.083   9.886  1.1674  0.5150 -0.0824
 4518SOL     OW15995   6.088   9.840   2.827 -0.1254 -0.2883 -0.5367
 4518SOL    HW115996   6.115   9.930   2.812  0.9796 -0.5146  0.0236
 4518SOL    HW215997   6.121   9.792   2.751 -1.9957 -0.0155 -1.5996
 4519SOL     OW15998   1.601   1.256   2.641 -0.5933 -0.7025  0.2054
 4519SOL    HW115999   1.667   1.212   2.694 -1.3449 -2.2297 -0.0702
 4519SOL    HW216000   1.651   1.320   2.590  0.8277 -2.2552 -0.4886
 4520SOL     OW16001   9.046   8.901   8.913 -0.0465  0.2474  0.2060
 4520SOL    HW116002   9.057   8.992   8.885 -1.2688 -0.0040 -1.1963
 4520SOL    HW216003   9.012   8.907   9.002  0.0291  1.1553  0.1808
 4521SOL     OW16004   0.940   4.788   4.378 -0.2584  0.5548 -0.7694
 4521SOL    HW116005   0.906   4.872   4.410 -0.5887 -0.4455  1.7741
 4521SOL    HW216006   1.026   4.780   4.419  0.3199  0.2015 -2.0212
 4522SOL     OW16007   0.455   1.694   5.232  0.0484  0.2752 -0.3516
 4522SOL    HW116008   0.384   1.675   5.171  0.8714 -0.8565 -0.9787
 4522SOL    HW216009   0.528   1.722   5.177  0.4285  0.3996  0.2041
 4523SOL     OW16010   1.280   2.213   6.469  0.0168  0.2232 -0.0393
 4523SOL    HW116011   1.266   2.305   6.446  0.7530 -0.0790 -1.9362
 4523SOL    HW216012   1.205   2.167   6.432 -0.3143  0.0367  0.8418
 4524SOL     OW16013   0.600   9.727   2.437 -0.1384  0.0795  0.3756
 4524SOL    HW116014   0.599   9.667   2.362 -0.4347  1.2433 -0.5920
 4524SOL    HW216015   0.648   9.680   2.505  1.6587 -0.3688 -1.1110
 4525SOL     OW16016   0.832   7.957   9.245  0.3556 -0.7517  0.4008
 4525SOL    HW116017   0.872   8.042   9.229  0.2887 -0.8107 -0.1024
 4525SOL    HW216018   0.813   7.956   9.339  0.3426 -0.2068  0.4049
 4526SOL     OW16019   8.073   6.506   0.017  0.3046 -0.2007  0.2215
 4526SOL    HW116020   8.113   6.531  -0.066 -0.3626 -0.8706 -0.3219
 4526SOL    HW216021   8.031   6.586   0.049  2.1813  0.5635  0.9001
 4527SOL     OW16022   1.037   7.983   4.403  0.2101  0.4828  0.3001
 4527SOL    HW116023   1.106   7.929   4.365  0.0296  1.4362 -1.4561
 4527SOL    HW216024   1.045   8.068   4.359  0.3500  1.8837  2.8030
 4528SOL     OW16025   8.397   9.469   8.361  0.1168 -0.6257  0.0873
 4528SOL    HW116026   8.317   9.416   8.360  0.0631 -0.5641  0.8614
 4528SOL    HW216027   8.395   9.515   8.277 -2.1852  1.6055  1.2404
 4529SOL     OW16028   6.558   7.710   0.723 -0.1555  0.6846 -0.2133
 4529SOL    HW116029   6.634   7.710   0.781 -1.0081 -0.1508  0.9457
 4529SOL    HW216030   6.535   7.803   0.715  0.2434  0.8488  0.4426
 4530SOL     OW16031   8.416   9.945   6.897 -0.4480  0.7515  0.2593
 4530SOL    HW116032   8.345   9.951   6.961 -0.5413  1.2247  0.1158
 4530SOL    HW216033   8.380   9.893   6.826  0.0313 -0.7654  1.0789
 4531SOL     OW16034   3.832   1.007   5.813 -0.0483 -0.2227  0.6591
 4531SOL    HW116035   3.917   1.043   5.789  0.7347 -1.9796  0.7156
 4531SOL    HW216036   3.806   1.059   5.889  0.6818  0.7148  0.2986
 4532SOL     OW16037   7.476   6.411   4.471  0.1546 -0.4018  0.7291
 4532SOL    HW116038   7.480   6.467   4.548 -0.3816 -0.4347  0.7875
 4532SOL    HW216039   7.395   6.437   4.426  1.1917  0.6547 -0.6399
 4533SOL     OW16040   3.881   5.425   3.988  0.1826 -0.0868  0.2943
 4533SOL    HW116041   3.810   5.466   3.940  1.1325  0.6227 -0.5416
 4533SOL    HW216042   3.923   5.496   4.035  1.0020 -0.3061 -0.0823
 4534SOL     OW16043   3.854   3.312   5.559  0.3100 -0.2985  0.0889
 4534SOL    HW116044   3.921   3.356   5.612 -0.7767  0.5842  0.7568
 4534SOL    HW216045   3.813   3.382   5.508 -3.4515  0.1685  3.2954
 4535SOL     OW16046   7.661   5.228   9.876 -0.1252  0.2576  0.2113
 4535SOL    HW116047   7.730   5.168   9.904  0.4660  0.0045 -1.7129
 4535SOL    HW216048   7.582   5.173   9.874 -0.4903  0.5902  2.5901
 4536SOL     OW16049  10.210   3.822   0.587  0.1234 -0.5782 -0.0352
 4536SOL    HW116050  10.228   3.742   0.538  0.4572  0.1354 -1.1063
 4536SOL    HW216051  10.231   3.892   0.527  2.0982  0.3829  1.6230
 4537SOL     OW16052   9.890   8.749   5.781 -0.1877 -0.2231 -0.2719
 4537SOL    HW116053   9.846   8.665   5.794 -1.2220 -0.0175 -2.0699
 4537SOL    HW216054   9.968   8.745   5.837 -1.5184 -1.3411  1.6099
 4538SOL     OW16055   3.665   3.061   7.171 -0.4794  0.5050 -0.1649
 4538SOL    HW116056   3.609   3.131   7.137 -1.0966 -0.2518 -0.7633
 4538SOL    HW216057   3.612   3.020   7.240 -0.3973  0.2125 -0.2740
 4539SOL     OW16058   7.606   4.299   4.794 -0.1797  0.7185  0.1585
 4539SOL    HW116059   7.548   4.340   4.858 -0.2609 -0.3971  0.8158
 4539SOL    HW216060   7.634   4.217   4.835 -0.5096 -0.1949 -1.3491
 4540SOL     OW16061   5.569   0.750   6.961  0.1580  0.1674 -0.1408
 4540SOL    HW116062   5.623   0.753   7.040  0.9675  0.1381 -0.6801
 4540SOL    HW216063   5.490   0.704   6.988 -0.3489  1.6964  1.0976
 4541SOL     OW16064   4.869   1.511   2.228  0.3239  0.1854  0.0853
 4541SOL    HW116065   4.953   1.503   2.182 -0.6362  0.2006 -1.7707
 4541SOL    HW216066   4.843   1.420   2.244 -0.3019  0.0963 -1.3081
 4542SOL     OW16067   4.336   1.111   7.432  0.3179 -0.2638  0.2253
 4542SOL    HW116068   4.340   1.054   7.355  0.6022 -0.6769  0.5404
 4542SOL    HW216069   4.307   1.195   7.398  0.8977 -0.3111 -0.4140
 4543SOL     OW16070   2.322   3.304   7.669  0.1552 -0.0940 -0.3474
 4543SOL    HW116071   2.284   3.391   7.666 -1.1222 -0.4523  2.2965
 4543SOL    HW216072   2.254   3.250   7.710  2.5134 -1.2943  2.3669
 4544SOL     OW16073   8.770   5.560   1.369 -0.8036  0.2853  0.0057
 4544SOL    HW116074   8.762   5.513   1.286 -1.3779  0.3623  0.0148
 4544SOL    HW216075   8.864   5.555   1.390 -0.7481 -0.2534 -0.3410
 4545SOL     OW16076   3.132   6.022   2.612  0.2792 -0.6475  0.2735
 4545SOL    HW116077   3.214   5.986   2.577  0.9278  1.1967 -0.2167
 4545SOL    HW216078   3.140   6.013   2.707  1.2422 -0.1526  0.2548
 4546SOL     OW16079   7.561   0.301   6.252  0.1871  0.2099 -0.3994
 4546SOL    HW116080   7.473   0.300   6.213  0.1962 -1.9017 -0.5214
 4546SOL    HW216081   7.545   0.302   6.346 -0.0152 -0.9139 -0.4086
 4547SOL     OW16082  10.052   6.711   8.435 -0.3749 -0.0943  0.2569
 4547SOL    HW116083  10.147   6.702   8.430  0.0152  2.6738  0.7336
 4547SOL    HW216084  10.029   6.682   8.523  0.1703 -0.0220  0.4283
 4548SOL     OW16085   2.010   8.669   6.991 -0.1013  0.0307 -0.1438
 4548SOL    HW116086   2.038   8.640   7.078 -2.1065 -0.0206  0.5539
 4548SOL    HW216087   2.011   8.765   6.997 -2.6956  0.0837  0.9084
 4549SOL     OW16088   8.996   9.613   4.516 -0.0816 -0.1157 -0.3557
 4549SOL    HW116089   8.904   9.614   4.490 -0.0517  0.7707 -0.4800
 4549SOL    HW216090   9.026   9.703   4.500  0.7672 -0.3621 -0.1896
 4550SOL     OW16091   2.544   7.409   0.354  0.2315  0.2560 -0.1306
 4550SOL    HW116092   2.510   7.374   0.271  0.3742 -1.1666  0.3891
 4550SOL    HW216093   2.593   7.487   0.328 -0.4215  0.3092 -1.2951
 4551SOL     OW16094   5.214   2.094   0.704  0.4341 -0.1980  0.1946
 4551SOL    HW116095   5.148   2.162   0.717 -0.3752 -0.6840 -1.0745
 4551SOL    HW216096   5.233   2.060   0.791 -1.4828 -0.4657  0.5438
 4552SOL     OW16097   3.165   0.054   1.025 -0.7530  0.0875  0.7011
 4552SOL    HW116098   3.155   0.129   1.084 -0.9940 -0.6994  1.6815
 4552SOL    HW216099   3.170  -0.022   1.083  3.0855 -0.4020 -0.0082
 4553SOL     OW16100   3.732   7.821   3.733  0.6231 -0.7777 -0.6786
 4553SOL    HW116101   3.703   7.858   3.816  0.8047  0.2900 -1.0764
 4553SOL    HW216102   3.827   7.822   3.738  0.6630  0.2863 -1.3017
 4554SOL     OW16103   1.241   2.607   3.461  0.2275  0.1347  0.2205
 4554SOL    HW116104   1.192   2.676   3.418 -0.5389 -0.7482 -0.3617
 4554SOL    HW216105   1.174   2.551   3.501  0.8428 -0.1044  0.9437
 4555SOL     OW16106   5.001   7.026   9.760  0.3736 -0.1071 -0.2000
 4555SOL    HW116107   4.912   7.003   9.734  1.0220 -3.2324 -0.0740
 4555SOL    HW216108   4.991   7.104   9.814 -2.2067 -0.0075 -0.6962
 4556SOL     OW16109  10.347   7.815   2.897  0.0174 -0.0108 -0.0027
 4556SOL    HW116110  10.425   7.869   2.912 -0.5540  0.4823  1.4390
 4556SOL    HW216111  10.302   7.857   2.823 -0.0970  1.1644  0.6976
 4557SOL     OW16112   8.241   5.035   8.255 -0.1331 -0.0388  0.1209
 4557SOL    HW116113   8.308   5.039   8.323  2.0203 -0.1532 -1.8588
 4557SOL    HW216114   8.172   4.981   8.293  0.3468  1.0242  2.6854
 4558SOL     OW16115   6.313   5.281   1.369 -0.0631  0.3106  0.4156
 4558SOL    HW116116   6.240   5.315   1.319 -0.3465  0.7235  1.0953
 4558SOL    HW216117   6.367   5.358   1.388 -1.1340  0.5742  2.6739
 4559SOL     OW16118   1.121   1.071   8.389  0.0477  0.4120  0.2196
 4559SOL    HW116119   1.201   1.025   8.415 -0.4358  0.4664  1.9026
 4559SOL    HW216120   1.053   1.004   8.389  0.2199  0.1302 -2.2776
 4560SOL     OW16121   8.767   0.867   0.735 -0.2383 -0.6062 -0.4811
 4560SOL    HW116122   8.820   0.918   0.673 -2.9497 -0.3217 -2.7585
 4560SOL    HW216123   8.702   0.824   0.680 -1.5551 -1.9825  2.0253
 4561SOL     OW16124   6.191  10.099   6.953  0.8900 -0.1896 -0.0033
 4561SOL    HW116125   6.227  10.039   7.018 -0.0479  0.7819  1.4750
 4561SOL    HW216126   6.215  10.060   6.869  1.6443 -1.7930  0.8984
 4562SOL     OW16127   8.739   0.803   7.579  0.8731 -0.2810  0.1148
 4562SOL    HW116128   8.662   0.850   7.549  0.3595 -0.2429  1.4177
 4562SOL    HW216129   8.806   0.822   7.513 -0.4117 -0.9628 -1.4559
 4563SOL     OW16130  10.390   9.559   0.469  0.1276  0.2007  0.2493
 4563SOL    HW116131  10.453   9.602   0.527  1.7697 -0.0602 -1.2473
 4563SOL    HW216132  10.351   9.630   0.419 -1.7701  0.4964  2.0246
 4564SOL     OW16133   5.423  10.490   4.335  0.2370 -0.1181  0.1791
 4564SOL    HW116134   5.478  10.557   4.295  0.7825 -0.7325 -0.1199
 4564SOL    HW216135   5.462  10.475   4.421  0.4112 -0.3909  0.0558
 4565SOL     OW16136  10.400   1.442   4.343 -0.3352  0.4745  0.1640
 4565SOL    HW116137  10.476   1.470   4.395 -0.7187 -0.0666  1.0402
 4565SOL    HW216138  10.328   1.494   4.378 -0.7980 -0.6282  0.9036
 4566SOL     OW16139   2.636   1.817   6.359 -0.2072 -0.5364  0.1118
 4566SOL    HW116140   2.660   1.888   6.420 -0.0909 -0.6277  0.1707
 4566SOL    HW216141   2.546   1.838   6.334 -0.2386 -0.4718  0.2781
 4567SOL     OW16142   0.312   4.230   5.665 -0.1779  0.2133  0.0210
 4567SOL    HW116143   0.245   4.217   5.598 -2.3821  0.6225  2.0349
 4567SOL    HW216144   0.332   4.324   5.660 -1.1267  0.4574  0.6122
 4568SOL     OW16145  10.056   0.633   0.465 -0.1684 -0.1384 -0.4213
 4568SOL    HW116146  10.082   0.721   0.494  0.7378 -0.3171 -0.6730
 4568SOL    HW216147  10.060   0.638   0.369  0.6962 -0.6875 -0.4229
 4569SOL     OW16148   0.233   6.607   9.075  0.0700  0.4986 -0.3117
 4569SOL    HW116149   0.318   6.623   9.035 -0.4261 -0.1100 -1.6912
 4569SOL    HW216150   0.171   6.608   9.001 -1.0682  0.5685  0.6057
 4570SOL     OW16151   8.303   8.827   7.414 -0.1927  0.0306  0.3056
 4570SOL    HW116152   8.252   8.762   7.463  0.4782  0.9886  2.4031
 4570SOL    HW216153   8.252   8.908   7.423  0.0702  0.2817 -0.4050
 4571SOL     OW16154   7.520   1.613   1.459 -0.0628 -0.5954  0.1067
 4571SOL    HW116155   7.582   1.598   1.530 -0.2006 -0.0501  0.3530
 4571SOL    HW216156   7.498   1.706   1.466 -1.1706 -0.8582  0.2475
 4572SOL     OW16157   3.830   8.481   9.872  0.1823  0.2329 -0.4540
 4572SOL    HW116158   3.754   8.540   9.871 -0.2165 -0.2785 -1.0308
 4572SOL    HW216159   3.886   8.515   9.941 -0.4675  0.7537 -0.1758
 4573SOL     OW16160   9.533   7.028   2.051 -0.0129 -0.2618 -0.4255
 4573SOL    HW116161   9.588   6.960   2.012  2.1404  0.2981  1.3961
 4573SOL    HW216162   9.479   6.982   2.115 -0.6102 -0.6181 -1.1769
 4574SOL     OW16163   0.538   6.614   5.589  0.1296  0.2393 -0.0813
 4574SOL    HW116164   0.497   6.692   5.627 -0.0966  0.5240 -0.8879
 4574SOL    HW216165   0.540   6.631   5.495  0.3640 -0.5958 -0.2398
 4575SOL     OW16166   1.701   0.171   2.241 -0.2526  0.2284  1.1410
 4575SOL    HW116167   1.625   0.221   2.270 -0.4422  1.3386 -1.0730
 4575SOL    HW216168   1.776   0.220   2.275 -0.4713  0.8639  0.7108
 4576SOL     OW16169   8.111   8.983   1.518 -0.5374 -0.7344 -0.0067
 4576SOL    HW116170   8.113   8.890   1.540 -0.3796 -0.3326  1.8567
 4576SOL    HW216171   8.082   9.026   1.599 -0.1418  0.8832 -0.6851
 4577SOL     OW16172   3.015   4.026   7.806  0.0182  0.3386  0.2651
 4577SOL    HW116173   3.108   4.048   7.797  0.1068 -0.4940 -1.1812
 4577SOL    HW216174   2.988   4.069   7.887  2.0093 -0.5972  1.5081
 4578SOL     OW16175   6.567   5.375   2.233 -0.1873 -0.1279 -0.6900
 4578SOL    HW116176   6.659   5.356   2.215 -0.0298  0.1087 -0.1630
 4578SOL    HW216177   6.537   5.426   2.157 -0.0605 -0.7339 -1.1541
 4579SOL     OW16178   0.938   3.558   4.150 -0.4138 -0.2319 -0.0259
 4579SOL    HW116179   0.900   3.637   4.189  0.1492 -0.6711  1.5020
 4579SOL    HW216180   0.874   3.489   4.168 -0.3913 -0.3391 -0.3534
 4580SOL     OW16181   3.464   5.553   6.213  1.0132  0.3456 -0.1465
 4580SOL    HW116182   3.411   5.523   6.139 -1.3229  1.0430  1.1099
 4580SOL    HW216183   3.504   5.474   6.248  0.6371 -0.2610 -1.0565
 4581SOL     OW16184   6.422   2.611   8.316  0.2789 -0.4813 -0.0113
 4581SOL    HW116185   6.461   2.654   8.393  0.8780 -0.6515 -0.2179
 4581SOL    HW216186   6.367   2.543   8.353  2.1746 -1.9613  0.2536
 4582SOL     OW16187   6.399  10.412  10.319 -0.5225  0.4950  0.1453
 4582SOL    HW116188   6.487  10.448  10.325  0.2425 -1.3662  0.9629
 4582SOL    HW216189   6.378  10.384  10.408 -1.7526  0.4951 -0.1215
 4583SOL     OW16190   7.778   0.175   4.908  0.1882  0.4376 -0.2030
 4583SOL    HW116191   7.787   0.098   4.964 -1.1260  0.7179  0.4416
 4583SOL    HW216192   7.833   0.156   4.831  1.4669 -0.2554  0.8405
 4584SOL     OW16193   4.161   9.540   8.988  0.8332  0.0274 -0.3862
 4584SOL    HW116194   4.217   9.473   9.028 -0.1624 -1.1604 -0.9300
 4584SOL    HW216195   4.170   9.526   8.894 -0.3270 -0.1382 -0.4784
 4585SOL     OW16196   9.522   6.254   0.167  0.4411 -0.2868  0.7811
 4585SOL    HW116197   9.494   6.264   0.258  0.7450  0.7929  0.7751
 4585SOL    HW216198   9.617   6.243   0.173  0.3489 -1.2698  0.6439
 4586SOL     OW16199   7.831   5.590   0.547  0.2108 -0.4697 -0.3088
 4586SOL    HW116200   7.737   5.611   0.545  0.8524  3.2531  0.2447
 4586SOL    HW216201   7.849   5.551   0.462 -1.7431 -0.8798 -0.5876
 4587SOL     OW16202   7.761   5.180   9.570  0.2378 -0.0739  0.4019
 4587SOL    HW116203   7.776   5.086   9.568  1.8002  0.1400  0.9420
 4587SOL    HW216204   7.836   5.216   9.618  0.2814  1.5669 -0.8050
 4588SOL     OW16205   9.708   2.381   0.512  0.2669  0.2882  0.4737
 4588SOL    HW116206   9.766   2.337   0.450 -0.2652 -1.0130  0.8802
 4588SOL    HW216207   9.655   2.440   0.457  1.4177  0.9140  0.0096
 4589SOL     OW16208   0.946   5.402   8.039  0.0409 -0.1159  0.8884
 4589SOL    HW116209   0.973   5.315   8.011  0.2740 -0.1926  1.3436
 4589SOL    HW216210   1.025   5.456   8.030 -0.3542  0.2828 -0.3340
 4590SOL     OW16211   4.456   0.309  10.469  0.1686 -0.1651 -0.0996
 4590SOL    HW116212   4.534   0.362  10.455 -0.3793  0.6293 -0.2184
 4590SOL    HW216213   4.486   0.219  10.458  1.2619  0.0664  0.7548
 4591SOL     OW16214   5.518   7.590   3.583 -0.7326 -0.0825  0.3296
 4591SOL    HW116215   5.479   7.675   3.600 -2.1276 -0.8593  1.2300
 4591SOL    HW216216   5.453   7.545   3.528 -0.2988 -0.7774  0.3720
 4592SOL     OW16217   5.457   5.817   4.374 -0.1761 -0.5409 -0.4435
 4592SOL    HW116218   5.514   5.892   4.389  1.5353 -1.6299 -1.2386
 4592SOL    HW216219   5.432   5.787   4.462 -1.4362  1.3135 -0.1224
 4593SOL     OW16220   6.621   0.214   7.593  0.2004 -0.6266 -0.4162
 4593SOL    HW116221   6.594   0.298   7.631  0.0956  0.0906 -1.9974
 4593SOL    HW216222   6.682   0.237   7.523  2.1527 -2.0398  0.7277
 4594SOL     OW16223   5.460  10.121   9.217  0.8986 -0.5679 -0.3487
 4594SOL    HW116224   5.375  10.110   9.261  0.5380 -0.4621 -1.0023
 4594SOL    HW216225   5.447  10.195   9.158  1.3130 -0.8236 -0.7681
 4595SOL     OW16226   5.987   0.756   0.293  0.1311 -0.3435 -0.1125
 4595SOL    HW116227   5.926   0.705   0.240  0.9730 -1.7769  0.2392
 4595SOL    HW216228   6.061   0.773   0.234  0.2466 -0.3168  0.0386
 4596SOL     OW16229   5.342   7.270   6.601 -0.4295  0.3322 -0.1928
 4596SOL    HW116230   5.399   7.194   6.611 -0.6599  0.4373  2.4121
 4596SOL    HW216231   5.400   7.339   6.568  0.5227 -0.0668  0.6147
 4597SOL     OW16232   1.769   5.543   0.604 -0.5157 -0.2283 -0.3591
 4597SOL    HW116233   1.856   5.578   0.592 -0.2490 -0.5005  0.6569
 4597SOL    HW216234   1.711   5.602   0.556  0.2289 -0.0692 -1.0577
 4598SOL     OW16235   2.294   1.301  10.380  0.2296  0.1361 -0.4690
 4598SOL    HW116236   2.339   1.230  10.334 -0.0011  0.7099 -1.6257
 4598SOL    HW216237   2.333   1.381  10.344 -0.2934  0.6024 -0.0116
 4599SOL     OW16238   8.309   6.887   3.972 -0.1799  1.1582 -0.3599
 4599SOL    HW116239   8.281   6.806   4.014 -0.1448  2.0247  1.4538
 4599SOL    HW216240   8.393   6.867   3.933 -1.1399 -0.2259 -1.8002
 4600SOL     OW16241   6.373   1.089   1.661 -0.0695  0.9383 -0.3659
 4600SOL    HW116242   6.315   1.015   1.676 -0.6186  1.3153 -0.6049
 4600SOL    HW216243   6.460   1.057   1.685 -0.4152  0.4558  0.2550
 4601SOL     OW16244   5.601   0.470   9.362  0.3358 -0.4589 -0.5314
 4601SOL    HW116245   5.591   0.536   9.431 -1.0503 -1.2162  0.0180
 4601SOL    HW216246   5.627   0.390   9.408  0.7815 -0.6256 -1.0565
 4602SOL     OW16247   7.883   5.783   0.767  0.0621  0.1948  0.5007
 4602SOL    HW116248   7.818   5.851   0.751 -2.9205 -2.3128  1.1461
 4602SOL    HW216249   7.880   5.728   0.689  0.5400 -0.6198  1.0400
 4603SOL     OW16250   9.856   0.049   4.213 -0.0763 -0.2697  0.3809
 4603SOL    HW116251   9.901  -0.007   4.277 -0.2315 -1.1243 -0.2419
 4603SOL    HW216252   9.763   0.033   4.228 -0.1070 -1.5984 -1.0005
 4604SOL     OW16253   1.206   3.790   8.157  0.4435 -0.0532 -0.0618
 4604SOL    HW116254   1.268   3.725   8.124 -0.1808 -0.4789 -0.4055
 4604SOL    HW216255   1.169   3.752   8.236 -1.2668 -0.9559 -1.2253
 4605SOL     OW16256   7.061   5.945   5.774 -0.2551 -0.5269  0.3379
 4605SOL    HW116257   7.113   5.865   5.769 -0.5509 -0.7138  0.1405
 4605SOL    HW216258   7.040   5.965   5.683  0.6194  0.3166  0.3226
 4606SOL     OW16259   7.169   2.631   6.672  0.4517 -0.0782  0.3193
 4606SOL    HW116260   7.170   2.706   6.731  0.8425  1.8537 -2.0079
 4606SOL    HW216261   7.076   2.608   6.665  0.3699 -0.1342  1.3926
 4607SOL     OW16262   8.626   7.901   0.280 -0.2394 -0.1517  0.5799
 4607SOL    HW116263   8.541   7.884   0.239  0.7598 -1.7369 -0.9804
 4607SOL    HW216264   8.683   7.832   0.246  1.8659  1.2800  1.0275
 4608SOL     OW16265   3.787   9.393   1.730  0.1028  0.0467 -0.1301
 4608SOL    HW116266   3.760   9.417   1.819  0.4942 -1.8495  0.5554
 4608SOL    HW216267   3.727   9.441   1.673 -0.5690  0.8250  1.1755
 4609SOL     OW16268   1.091   4.051   1.100 -0.3515 -0.3347 -0.0333
 4609SOL    HW116269   1.104   3.971   1.049 -1.2810  0.0819 -0.9661
 4609SOL    HW216270   0.996   4.064   1.099 -0.3461 -0.0430  1.4144
 4610SOL     OW16271   8.639   3.522   7.172 -0.0077 -0.0878  0.2456
 4610SOL    HW116272   8.603   3.495   7.257 -0.3049  0.6222  0.3482
 4610SOL    HW216273   8.562   3.540   7.119  0.1891  0.2128  0.0653
 4611SOL     OW16274   1.470   7.463   1.340  0.2790  0.1680 -0.3248
 4611SOL    HW116275   1.528   7.457   1.264  1.1829  0.5568  0.3057
 4611SOL    HW216276   1.382   7.461   1.304  0.6874  1.6331 -1.5147
 4612SOL     OW16277   3.947   8.941   6.468  0.1433  0.1287  0.5922
 4612SOL    HW116278   4.003   8.871   6.501  0.5944  0.1540 -0.1072
 4612SOL    HW216279   3.909   8.906   6.387  0.7875  0.8697 -0.0523
 4613SOL     OW16280  10.383   6.507   6.739 -0.0740  0.4395 -0.2331
 4613SOL    HW116281  10.404   6.512   6.832  0.8392  2.5047 -0.4819
 4613SOL    HW216282  10.298   6.548   6.731 -0.9563 -1.2819 -0.1446
 4614SOL     OW16283   4.907   0.014   6.446 -0.3876 -0.2400  0.2439
 4614SOL    HW116284   4.863   0.026   6.530 -0.9548  0.3080 -0.1222
 4614SOL    HW216285   4.902  -0.080   6.429 -0.9193 -0.2525  0.4724
 4615SOL     OW16286   3.542   4.062  10.295  0.3094  0.1819 -0.0106
 4615SOL    HW116287   3.481   3.995  10.264 -0.2108 -0.0636  1.4585
 4615SOL    HW216288   3.512   4.143  10.254  0.9617 -0.4653 -1.8241
 4616SOL     OW16289   5.293   0.287   7.754  0.1082  0.0983  0.0444
 4616SOL    HW116290   5.342   0.368   7.742 -0.0913 -0.0031 -1.5597
 4616SOL    HW216291   5.325   0.253   7.838  0.8689  1.3512  0.2901
 4617SOL     OW16292   4.231   5.055   4.751 -0.2584  0.1141 -0.6375
 4617SOL    HW116293   4.209   4.983   4.693 -2.5884  1.4570 -1.5704
 4617SOL    HW216294   4.227   5.017   4.839  0.6849 -1.3326 -1.1839
 4618SOL     OW16295   7.224   3.450   2.012 -0.3508 -0.5172  0.3185
 4618SOL    HW116296   7.171   3.373   1.995 -1.1013 -0.4870  2.2788
 4618SOL    HW216297   7.171   3.523   1.978  0.1246 -0.7643 -1.0468
 4619SOL     OW16298   7.001   3.231   0.897 -0.2453  0.1296  0.8298
 4619SOL    HW116299   7.052   3.181   0.961 -0.5298 -0.2114  0.7905
 4619SOL    HW216300   6.912   3.232   0.932 -0.1423  1.0481  1.0878
 4620SOL     OW16301   9.292   8.135   9.951  0.0091  0.2991  0.0861
 4620SOL    HW116302   9.321   8.101   9.866  3.1531 -1.9156  1.8171
 4620SOL    HW216303   9.369   8.180   9.986 -1.3825  1.6270  1.5803
 4621SOL     OW16304   6.727   9.792   7.840 -0.5969  0.0620  0.0215
 4621SOL    HW116305   6.727   9.709   7.793 -1.5688 -0.4814  0.9610
 4621SOL    HW216306   6.793   9.845   7.794 -0.5492 -0.9229 -1.0933
 4622SOL     OW16307   5.576   8.896   1.682  0.2283  0.2997 -0.2234
 4622SOL    HW116308   5.592   8.854   1.767 -0.1991 -1.6855 -1.0709
 4622SOL    HW216309   5.640   8.967   1.678 -1.2790  2.0208  2.7452
 4623SOL     OW16310   5.473   4.240   1.142  0.3397 -0.2948 -0.0424
 4623SOL    HW116311   5.489   4.152   1.177 -1.1659 -0.9136 -0.8040
 4623SOL    HW216312   5.381   4.257   1.163 -0.4685 -0.4455 -3.0293
 4624SOL     OW16313   5.038   8.828   2.163 -0.1597 -0.2856 -0.0272
 4624SOL    HW116314   5.022   8.900   2.102 -0.5472 -0.6226 -0.3253
 4624SOL    HW216315   5.120   8.852   2.208  0.3273 -0.2079 -0.9352
 4625SOL     OW16316   2.963   5.973   6.267 -0.1374  0.1346  0.6881
 4625SOL    HW116317   2.885   5.946   6.219 -0.0227  1.8777 -0.5780
 4625SOL    HW216318   3.021   5.897   6.264 -1.3146 -0.8039  0.6938
 4626SOL     OW16319   7.047   3.754   4.730  0.0862  0.6336 -0.0259
 4626SOL    HW116320   6.962   3.710   4.732 -0.1783  1.0220 -1.5508
 4626SOL    HW216321   7.060   3.785   4.820 -0.4019 -1.2146  0.7224
 4627SOL     OW16322   1.591   7.756   5.936  0.3256  0.4953 -0.2010
 4627SOL    HW116323   1.657   7.784   6.000 -0.8958  2.5375  0.2478
 4627SOL    HW216324   1.572   7.665   5.961  0.5057  0.9536  1.8210
 4628SOL     OW16325  10.312   3.227   0.731 -0.2193 -0.7557  0.2561
 4628SOL    HW116326  10.308   3.323   0.729 -0.5673 -0.7646  0.5295
 4628SOL    HW216327  10.221   3.199   0.730 -0.1571 -1.0565  1.4814
 4629SOL     OW16328   4.862   0.232   4.505  0.1676  0.8306  0.0549
 4629SOL    HW116329   4.948   0.269   4.483 -0.4362  1.5061 -1.2811
 4629SOL    HW216330   4.816   0.304   4.549 -0.2183  0.9557 -0.5418
 4630SOL     OW16331   1.786   1.576  10.212 -0.0198 -0.0450  0.1628
 4630SOL    HW116332   1.826   1.508  10.266 -0.9263 -1.2570 -0.6291
 4630SOL    HW216333   1.821   1.561  10.125 -1.0939 -0.2617 -0.2565
 4631SOL     OW16334   4.461   1.702   0.083  0.5270 -0.1180 -1.0416
 4631SOL    HW116335   4.546   1.737   0.057 -0.0615  0.1745 -2.7365
 4631SOL    HW216336   4.438   1.642   0.011  0.2053 -1.7809  0.3780
 4632SOL     OW16337   4.634   9.309   9.783  0.2654 -0.6910 -0.0911
 4632SOL    HW116338   4.716   9.358   9.793  1.0889 -2.0974  0.2478
 4632SOL    HW216339   4.578   9.366   9.730  1.1739  0.6208  0.3237
 4633SOL     OW16340   5.584   9.154   3.492  0.7099  0.0125 -0.7052
 4633SOL    HW116341   5.496   9.120   3.473  0.3073  0.9310 -0.5296
 4633SOL    HW216342   5.630   9.079   3.530 -0.6751  0.0586  1.2191
 4634SOL     OW16343   4.802   3.423   9.633  0.3486  0.1575 -0.3127
 4634SOL    HW116344   4.794   3.332   9.659  0.7200 -0.2423 -1.5268
 4634SOL    HW216345   4.893   3.432   9.604  0.7946  1.3427  1.2975
 4635SOL     OW16346   6.141   2.471   7.207  0.0394 -0.3636 -0.2644
 4635SOL    HW116347   6.152   2.501   7.117 -1.5695 -1.2142 -0.7789
 4635SOL    HW216348   6.200   2.526   7.258  0.3840  0.6822 -1.7337
 4636SOL     OW16349   6.854   5.373   7.532  0.1683  0.7823  0.7366
 4636SOL    HW116350   6.784   5.382   7.467  1.3300 -0.2469 -0.7235
 4636SOL    HW216351   6.931   5.413   7.491  1.5095 -1.8653  0.4451
 4637SOL     OW16352   6.152   6.058   9.596  0.3340  0.1114 -0.0031
 4637SOL    HW116353   6.140   6.147   9.562 -0.2545 -0.4525 -1.3424
 4637SOL    HW216354   6.245   6.053   9.616  0.6586  0.6100 -1.2494
 4638SOL     OW16355   9.437   6.677   1.208 -0.2804  0.1161  0.4471
 4638SOL    HW116356   9.431   6.600   1.264  0.8975  2.4819  4.2525
 4638SOL    HW216357   9.361   6.730   1.232 -1.6993 -0.1882 -2.9090
 4639SOL     OW16358   0.252   6.967   9.581  0.4214  0.1457 -0.6743
 4639SOL    HW116359   0.325   6.912   9.610 -0.3279  0.4810  2.0908
 4639SOL    HW216360   0.176   6.908   9.581  0.2500  0.3541 -1.2716
 4640SOL     OW16361   1.139   6.183   7.508  0.2902  0.4049 -0.0118
 4640SOL    HW116362   1.059   6.192   7.559 -0.3858  0.6833 -1.1027
 4640SOL    HW216363   1.145   6.264   7.458  0.3305 -0.3295 -1.2259
 4641SOL     OW16364   2.039   9.787   2.613 -0.4057 -0.3000  0.6401
 4641SOL    HW116365   2.059   9.713   2.556 -0.5353 -0.7111  1.1214
 4641SOL    HW216366   2.012   9.747   2.696  0.3857  0.2792  1.2016
 4642SOL     OW16367   1.522   6.062   0.041  0.1112  0.2351 -0.0160
 4642SOL    HW116368   1.521   6.157   0.048  1.7297  0.2872 -0.0699
 4642SOL    HW216369   1.615   6.039   0.040 -0.2139 -1.2104 -1.7481
 4643SOL     OW16370   1.696   7.950   3.805  0.3380 -0.0579 -0.2562
 4643SOL    HW116371   1.624   7.956   3.868 -0.7638  3.4746 -1.6425
 4643SOL    HW216372   1.751   8.026   3.823  2.8424 -1.7081 -0.4027
 4644SOL     OW16373   1.152   2.354   9.058  0.0805 -0.2653 -0.0373
 4644SOL    HW116374   1.142   2.281   8.998 -0.1716 -1.2871  1.2046
 4644SOL    HW216375   1.113   2.324   9.140  0.5016  1.0409  0.6810
 4645SOL     OW16376   6.457   4.509   1.893  0.0554  0.2385  0.5024
 4645SOL    HW116377   6.429   4.517   1.985 -1.8191 -1.0086  0.0854
 4645SOL    HW216378   6.545   4.473   1.899  1.0361  2.6181  1.8333
 4646SOL     OW16379   6.722   7.594   9.518  0.2664 -0.2892 -0.5164
 4646SOL    HW116380   6.633   7.575   9.487  0.2412 -2.0044  0.4218
 4646SOL    HW216381   6.772   7.515   9.496  1.0331 -0.1941  0.7573
 4647SOL     OW16382  10.120   6.478   4.189  0.3422 -0.2536 -0.3296
 4647SOL    HW116383  10.186   6.489   4.258  0.8003  0.2016 -0.8310
 4647SOL    HW216384  10.104   6.566   4.156 -2.9987  0.1970  2.0053
 4648SOL     OW16385   8.388   1.459   9.377  0.2631  0.0256 -0.0652
 4648SOL    HW116386   8.415   1.408   9.300  1.4419  1.3792 -0.6011
 4648SOL    HW216387   8.368   1.393   9.443 -0.6094 -1.1771 -1.4552
 4649SOL     OW16388   1.625   7.162   2.778  0.0279 -0.4861  0.0345
 4649SOL    HW116389   1.684   7.162   2.702 -0.5754 -1.5242 -0.4577
 4649SOL    HW216390   1.545   7.121   2.746 -0.8208  0.5060  0.8147
 4650SOL     OW16391   6.456   2.076   5.784  0.0008  0.3302  0.5707
 4650SOL    HW116392   6.423   2.165   5.796  1.7919  1.0608  0.3719
 4650SOL    HW216393   6.444   2.059   5.691  1.0444  0.9816  0.2982
 4651SOL     OW16394   6.907   0.638   1.692  0.4854 -0.0828  0.2667
 4651SOL    HW116395   6.825   0.594   1.669 -0.9281  2.4473  0.0740
 4651SOL    HW216396   6.899   0.656   1.786  0.9151 -0.0108  0.2913
 4652SOL     OW16397   6.115   9.344   5.121 -0.1335 -0.0792  0.1351
 4652SOL    HW116398   6.168   9.265   5.131 -0.0069  0.0874  0.8193
 4652SOL    HW216399   6.178   9.412   5.096 -0.1687 -0.0906  0.0173
 4653SOL     OW16400   8.479   7.397   5.773  0.0946  0.3568  0.1476
 4653SOL    HW116401   8.390   7.404   5.738 -2.0644  1.2463  4.9624
 4653SOL    HW216402   8.515   7.319   5.732 -1.6804  1.4951 -4.0995
 4654SOL     OW16403  10.375   8.193   8.195  0.0617 -1.0640  0.4924
 4654SOL    HW116404  10.350   8.284   8.182 -0.2639 -1.3181 -0.7362
 4654SOL    HW216405  10.406   8.163   8.110  1.9067 -1.5881  1.2879
 4655SOL     OW16406   1.185   5.653   6.541 -0.2345 -0.1503 -0.1951
 4655SOL    HW116407   1.247   5.624   6.608 -1.2984 -2.0390  0.0447
 4655SOL    HW216408   1.103   5.669   6.589  0.0226  2.3697 -0.4935
 4656SOL     OW16409   0.812   8.608   7.708  0.4164 -0.0921  0.2806
 4656SOL    HW116410   0.811   8.689   7.657  0.8962 -0.1729  0.1452
 4656SOL    HW216411   0.825   8.637   7.798  0.8419 -0.0370  0.2006
 4657SOL     OW16412   8.590   8.069   5.729 -0.0044 -0.4947  0.2026
 4657SOL    HW116413   8.631   8.066   5.643 -1.2473 -2.4870 -0.3824
 4657SOL    HW216414   8.550   7.983   5.740 -1.1097  0.1982  2.1719
 4658SOL     OW16415   8.420   9.414   0.481 -0.0590  0.5384  0.3338
 4658SOL    HW116416   8.431   9.476   0.553  1.8924  0.3374  0.2539
 4658SOL    HW216417   8.481   9.342   0.501 -0.0471  0.1070 -1.1095
 4659SOL     OW16418   3.930   1.123   5.190 -0.0545 -0.1684 -0.3638
 4659SOL    HW116419   3.891   1.035   5.185  0.7877 -0.5850  0.2370
 4659SOL    HW216420   3.964   1.129   5.279 -1.3058  1.3009  0.0556
 4660SOL     OW16421   0.306   3.161   6.027  0.1614 -0.1614 -0.3868
 4660SOL    HW116422   0.282   3.090   6.086  0.0028 -1.0936 -1.5228
 4660SOL    HW216423   0.239   3.227   6.040  1.0743  0.4231  1.6892
 4661SOL     OW16424   1.462   2.094   9.684 -0.5772  0.0154  0.2355
 4661SOL    HW116425   1.432   2.111   9.595 -1.0610 -0.0115  0.3935
 4661SOL    HW216426   1.431   2.005   9.703  0.5501 -0.4558  0.0025
 4662SOL     OW16427   1.459   4.017   4.105 -0.3663 -0.4481 -0.0726
 4662SOL    HW116428   1.431   4.079   4.037  1.2190  0.4710  0.0666
 4662SOL    HW216429   1.434   3.931   4.070  1.3361 -0.1253 -2.3863
 4663SOL     OW16430   5.843   9.139   0.233  0.0335 -0.4873 -0.2169
 4663SOL    HW116431   5.756   9.112   0.204 -0.1897 -1.7445  1.4509
 4663SOL    HW216432   5.842   9.124   0.328  1.7051  0.5252  0.0015
 4664SOL     OW16433   2.348   0.229   8.805 -0.7340 -0.4347 -0.0048
 4664SOL    HW116434   2.266   0.205   8.848 -0.6747 -0.7307 -0.0502
 4664SOL    HW216435   2.410   0.161   8.832 -0.8071 -0.8725 -0.8903
 4665SOL     OW16436   6.325   5.217   2.180 -0.4157 -0.3578 -0.3188
 4665SOL    HW116437   6.408   5.244   2.220  0.0168 -0.4524 -1.1466
 4665SOL    HW216438   6.350   5.165   2.104 -1.2352 -1.4185  0.1100
 4666SOL     OW16439   5.261   0.511   8.420  0.3252  0.0023  0.6963
 4666SOL    HW116440   5.240   0.497   8.513  0.3691 -2.0913  0.4555
 4666SOL    HW216441   5.179   0.495   8.374  0.4906  0.2389  0.3164
 4667SOL     OW16442   7.330   3.504   5.574  0.2893 -0.5040 -0.1705
 4667SOL    HW116443   7.372   3.463   5.649 -1.7534  0.6192  1.7163
 4667SOL    HW216444   7.402   3.538   5.521  1.9044 -3.7303 -0.2531
 4668SOL     OW16445   6.990   0.815   5.893  0.3066  0.1159 -0.4247
 4668SOL    HW116446   6.946   0.747   5.945  2.8099 -0.7284  0.7532
 4668SOL    HW216447   6.993   0.780   5.804 -0.8090 -0.0772 -0.3959
 4669SOL     OW16448   8.020   2.473   9.401  0.0858  0.0603  0.5263
 4669SOL    HW116449   8.096   2.477   9.460 -0.3771 -0.1808  1.1506
 4669SOL    HW216450   7.992   2.382   9.403 -0.1924  0.1348  0.2567
 4670SOL     OW16451   3.884   0.911   7.216  0.1405 -0.2767  0.1706
 4670SOL    HW116452   3.816   0.976   7.201 -0.8418 -0.2438  3.7738
 4670SOL    HW216453   3.903   0.917   7.310  3.9862 -1.4521 -0.3265
 4671SOL     OW16454   5.399   5.377   8.917 -0.0066 -0.1757 -0.0657
 4671SOL    HW116455   5.444   5.418   8.843  1.0861 -0.2157  0.5453
 4671SOL    HW216456   5.310   5.410   8.913  0.3440  0.7267 -0.7331
 4672SOL     OW16457   5.796   7.068   6.720  0.6339 -0.0526  0.3723
 4672SOL    HW116458   5.830   7.144   6.673  0.1971  0.0816  0.2685
 4672SOL    HW216459   5.855   6.996   6.695 -0.7353 -0.4439 -1.9941
 4673SOL     OW16460   4.438   4.074   3.669  0.0518  0.5265  0.7031
 4673SOL    HW116461   4.525   4.043   3.642  0.3040 -0.7571  2.7567
 4673SOL    HW216462   4.455   4.157   3.713  0.1936  0.5205  0.6601
 4674SOL     OW16463   1.337   5.761   6.316  0.1535 -0.0848  0.0810
 4674SOL    HW116464   1.277   5.748   6.389 -0.5558  1.5708 -0.1826
 4674SOL    HW216465   1.376   5.847   6.331  1.6334 -0.6399 -0.3601
 4675SOL     OW16466   8.136   4.945   9.980  0.0291  1.0202  0.5468
 4675SOL    HW116467   8.162   4.858   9.951  0.4289  0.8336  1.4407
 4675SOL    HW216468   8.187   5.005   9.925 -0.9695  0.7218 -0.7447
 4676SOL     OW16469   7.249   9.043   8.027 -0.5120 -0.0099 -0.6189
 4676SOL    HW116470   7.261   9.015   7.936  0.2049 -1.2627 -0.1663
 4676SOL    HW216471   7.331   9.020   8.070 -0.7830  0.7256  0.3116
 4677SOL     OW16472   8.970   4.770   3.578  0.1567 -0.1482  0.0748
 4677SOL    HW116473   8.945   4.680   3.596  0.6771  0.1179  2.4750
 4677SOL    HW216474   9.066   4.769   3.574  0.2124  0.4271  1.0348
 4678SOL     OW16475   5.969   5.656   2.696 -0.3146 -0.0790 -0.1536
 4678SOL    HW116476   6.058   5.690   2.692 -0.8421  1.3024 -0.4665
 4678SOL    HW216477   5.980   5.564   2.721  1.3670 -0.7636 -2.9859
 4679SOL     OW16478   8.756   3.172   3.383 -0.4500  0.0443  0.6140
 4679SOL    HW116479   8.827   3.232   3.361 -0.9260  0.1634 -0.6840
 4679SOL    HW216480   8.798   3.104   3.436  0.2872  0.9784  1.2828
 4680SOL     OW16481  10.245   9.673   3.093  0.1562 -0.3983  0.4167
 4680SOL    HW116482  10.338   9.670   3.114  0.3646 -1.0628 -0.5058
 4680SOL    HW216483  10.233   9.603   3.028 -0.6936  0.6262 -0.5743
 4681SOL     OW16484  10.347   7.651   7.689  0.0042 -0.6566  0.0192
 4681SOL    HW116485  10.333   7.586   7.620 -3.0653 -0.1816  0.0425
 4681SOL    HW216486  10.389   7.725   7.644 -1.1221 -0.7009 -1.1679
 4682SOL     OW16487   4.574   5.574   6.626  0.6959  0.0793  0.1564
 4682SOL    HW116488   4.622   5.629   6.564 -0.2935  0.3723 -0.3754
 4682SOL    HW216489   4.488   5.617   6.634  0.0607 -1.1462  0.0799
 4683SOL     OW16490   4.271   1.394   0.851 -0.1174  0.0913 -0.3358
 4683SOL    HW116491   4.344   1.450   0.877  0.7777 -1.0515 -0.2986
 4683SOL    HW216492   4.308   1.332   0.788 -0.2343 -2.4579  1.9000
 4684SOL     OW16493   4.541   1.476   8.500 -0.6674 -0.0493 -0.7271
 4684SOL    HW116494   4.452   1.444   8.483 -0.2293 -1.4104 -0.6348
 4684SOL    HW216495   4.582   1.406   8.552 -0.3915  1.7842  1.6633
 4685SOL     OW16496   4.012   6.673   1.704 -0.4623  0.3587  0.1402
 4685SOL    HW116497   4.090   6.653   1.755 -0.9966  0.0038  0.8446
 4685SOL    HW216498   3.940   6.666   1.767 -1.1395 -0.0509 -0.6556
 4686SOL     OW16499   3.197   5.337  10.289 -0.1698  0.0641 -0.0853
 4686SOL    HW116500   3.192   5.275  10.361  0.2536  0.4131  0.2485
 4686SOL    HW216501   3.289   5.335  10.262 -0.4904 -0.7028 -1.1819
 4687SOL     OW16502   1.565   2.142   6.307  0.9689  0.4640  0.2705
 4687SOL    HW116503   1.482   2.153   6.353  1.3992  0.9787  0.9461
 4687SOL    HW216504   1.631   2.170   6.370  1.6474  0.2074 -0.3120
 4688SOL     OW16505   5.988   2.994   4.807  0.1370 -0.4045 -0.7568
 4688SOL    HW116506   5.911   2.938   4.815  0.2651 -0.4551  0.2568
 4688SOL    HW216507   5.967   3.054   4.736 -0.7738 -0.5308 -0.6048
 4689SOL     OW16508   4.862   2.361   7.035 -0.5765  0.3921  0.5290
 4689SOL    HW116509   4.856   2.294   6.967 -0.5090 -0.7926  1.6495
 4689SOL    HW216510   4.841   2.314   7.116 -1.6305  1.9753  1.2135
 4690SOL     OW16511   4.181   9.584   5.754 -0.2371 -0.3672 -0.3775
 4690SOL    HW116512   4.095   9.600   5.793  0.7751 -0.9935  2.4326
 4690SOL    HW216513   4.192   9.489   5.761  0.5168 -0.3381 -1.0748
 4691SOL     OW16514   8.760   6.637   3.627 -0.4257  0.6733 -0.2599
 4691SOL    HW116515   8.681   6.654   3.679  0.3237  3.1992  0.2194
 4691SOL    HW216516   8.727   6.608   3.542 -1.8636  1.2431  0.0643
 4692SOL     OW16517   1.184   1.682   3.395 -0.2689  0.2061 -0.1651
 4692SOL    HW116518   1.138   1.614   3.445  0.1117  1.4507  1.9809
 4692SOL    HW216519   1.114   1.725   3.344 -0.6524 -1.1502 -0.8242
 4693SOL     OW16520   8.170   5.501   7.741 -0.7154  0.1889 -0.0404
 4693SOL    HW116521   8.254   5.544   7.726 -1.0697  0.2858 -2.0333
 4693SOL    HW216522   8.157   5.506   7.835  1.7942 -0.3771  0.4135
 4694SOL     OW16523   1.629   2.012  10.234  0.0190 -0.0539  0.0744
 4694SOL    HW116524   1.644   1.953  10.160  0.3819  0.7826 -0.5317
 4694SOL    HW216525   1.710   2.062  10.242  0.0188 -0.1941  1.1105
 4695SOL     OW16526   0.532   5.714   9.397  0.4360  0.3820  0.1765
 4695SOL    HW116527   0.513   5.638   9.452  1.7344  0.1151  0.2845
 4695SOL    HW216528   0.586   5.771   9.452  0.6257  0.7332 -0.3632
 4696SOL     OW16529   7.700   1.415   6.111  0.5931 -0.1599  0.0068
 4696SOL    HW116530   7.766   1.355   6.148  0.7447  0.4266  0.7143
 4696SOL    HW216531   7.683   1.477   6.182 -0.4101 -0.0481 -0.3273
 4697SOL     OW16532   8.239   0.931   0.133 -0.3280  0.1925 -0.1158
 4697SOL    HW116533   8.242   0.954   0.040  1.1218  0.1544 -0.0896
 4697SOL    HW216534   8.148   0.947   0.158 -0.5431  1.0129 -1.3335
 4698SOL     OW16535   3.728   8.783   0.761 -0.2289 -0.5727 -0.0980
 4698SOL    HW116536   3.774   8.809   0.841  1.6443 -3.0192 -0.2986
 4698SOL    HW216537   3.638   8.769   0.790 -0.2646  1.3362  0.9338
 4699SOL     OW16538   8.619   8.588   8.034 -0.3527  0.0519 -0.0636
 4699SOL    HW116539   8.581   8.675   8.044 -1.9883 -0.7212  0.6843
 4699SOL    HW216540   8.544   8.529   8.031  0.6231 -1.2211 -2.2445
 4700SOL     OW16541   4.417   2.290   2.530  0.5861 -0.2859  0.0021
 4700SOL    HW116542   4.493   2.280   2.586  0.7490 -0.9298 -0.3186
 4700SOL    HW216543   4.418   2.382   2.504  1.3726 -0.3353 -0.1622
 4701SOL     OW16544   9.150   5.065   5.219 -0.1171  0.0769 -0.3776
 4701SOL    HW116545   9.126   4.998   5.283  0.9802  0.9706  1.0310
 4701SOL    HW216546   9.179   5.015   5.143 -0.9403 -1.0204 -0.0089
 4702SOL     OW16547   9.757   7.119   6.748  0.0070 -0.1147  0.6385
 4702SOL    HW116548   9.788   7.053   6.686  1.9250  0.3329  1.0861
 4702SOL    HW216549   9.739   7.196   6.694 -1.5249 -0.7273  0.2195
 4703SOL     OW16550   0.157   9.211   6.667  0.2085 -0.1559 -0.1837
 4703SOL    HW116551   0.094   9.166   6.611 -0.6809 -0.8074  1.2516
 4703SOL    HW216552   0.234   9.223   6.613 -0.5603 -0.8658 -1.4860
 4704SOL     OW16553   9.060   5.845   4.603  0.1348 -0.2886 -0.0739
 4704SOL    HW116554   9.111   5.911   4.651  0.2969 -1.2310  1.0888
 4704SOL    HW216555   8.976   5.888   4.585 -0.4968 -0.3840  2.3690
 4705SOL     OW16556   5.396   1.889   5.472  0.4118  0.5251  0.1965
 4705SOL    HW116557   5.438   1.967   5.435 -2.6762  2.4113  0.3617
 4705SOL    HW216558   5.426   1.887   5.562 -1.8896  3.6456  1.2357
 4706SOL     OW16559   6.419   1.553   7.209  0.3273  0.2754 -0.0989
 4706SOL    HW116560   6.494   1.582   7.157  0.6260 -0.2923  0.0015
 4706SOL    HW216561   6.390   1.631   7.256 -0.2563  0.9141 -1.4790
 4707SOL     OW16562   6.785   1.458   5.662 -0.1813 -0.0526 -0.0213
 4707SOL    HW116563   6.715   1.431   5.721 -1.3008  1.0877 -0.7761
 4707SOL    HW216564   6.745   1.524   5.606  1.2663 -0.0159 -1.0687
 4708SOL     OW16565   3.822   8.054   8.358 -0.4888 -0.0466  0.1046
 4708SOL    HW116566   3.814   8.144   8.390 -1.2598 -0.3010  0.6694
 4708SOL    HW216567   3.735   8.015   8.374 -0.5653 -0.5109 -1.3078
 4709SOL     OW16568   1.481   8.007   6.407 -0.0046  0.2838  1.0897
 4709SOL    HW116569   1.456   7.946   6.338  0.4693  0.4172  0.7954
 4709SOL    HW216570   1.439   7.973   6.486 -0.7923  0.2926  0.6848
 4710SOL     OW16571   5.157   2.369   7.993  0.2900 -0.4074 -0.3109
 4710SOL    HW116572   5.087   2.303   7.993  1.0933 -1.3144 -1.8084
 4710SOL    HW216573   5.234   2.321   8.023  0.5352  0.3053  0.2195
 4711SOL     OW16574   0.789   5.393   4.134  0.6605 -0.3114  0.7546
 4711SOL    HW116575   0.699   5.394   4.100  0.6977  1.6109  0.6154
 4711SOL    HW216576   0.844   5.378   4.057  0.5132 -0.7012  0.7212
 4712SOL     OW16577  10.313   6.308   9.950  0.5044  0.0294  0.1105
 4712SOL    HW116578  10.293   6.261   9.869 -2.0245  1.5647 -0.2701
 4712SOL    HW216579  10.352   6.390   9.920 -0.0485  0.4244  0.4627
 4713SOL     OW16580   6.329   1.757   0.877  0.0644  1.0915  0.0336
 4713SOL    HW116581   6.357   1.757   0.968  3.4048  0.3230 -0.8653
 4713SOL    HW216582   6.375   1.832   0.838  0.5476  0.0336 -1.4900
 4714SOL     OW16583   9.316   6.731   5.468 -0.7039 -0.3492  0.1669
 4714SOL    HW116584   9.342   6.755   5.379 -1.5185  1.0361  0.2742
 4714SOL    HW216585   9.232   6.687   5.457 -1.2125  0.5569  0.2882
 4715SOL     OW16586   0.839   3.159   5.114 -0.0848 -0.0983 -0.7027
 4715SOL    HW116587   0.842   3.066   5.138  0.0310 -0.0822 -0.6551
 4715SOL    HW216588   0.881   3.204   5.187  0.5515 -0.0787 -1.0722
 4716SOL     OW16589   6.545   9.387   8.534  0.1264 -0.3349 -0.5308
 4716SOL    HW116590   6.550   9.467   8.587 -0.2116 -0.9116  0.3994
 4716SOL    HW216591   6.627   9.342   8.552 -0.2768 -0.8544  0.0419
 4717SOL     OW16592   8.856   7.008   2.620 -0.3965 -0.3815 -0.2192
 4717SOL    HW116593   8.820   6.925   2.589  0.5019 -0.4317 -1.1767
 4717SOL    HW216594   8.902   7.044   2.544  3.1873 -1.2025  1.3297
 4718SOL     OW16595   1.895   8.899   3.249 -0.2071  0.5169  0.1739
 4718SOL    HW116596   1.968   8.931   3.196 -1.2099  0.6029 -1.1899
 4718SOL    HW216597   1.915   8.930   3.338  1.3879  0.5536 -0.1726
 4719SOL     OW16598   8.413   3.683   2.030  0.1438 -0.4784 -0.2485
 4719SOL    HW116599   8.485   3.629   1.998 -2.2744 -3.7272 -0.7145
 4719SOL    HW216600   8.355   3.693   1.954 -0.7131  0.6495  0.5103
 4720SOL     OW16601   6.443   3.683   1.871 -0.0246  0.4009 -0.1349
 4720SOL    HW116602   6.426   3.592   1.845  3.7151 -0.2259 -0.8485
 4720SOL    HW216603   6.487   3.721   1.795 -1.4660  2.9026  0.1719
 4721SOL     OW16604   2.196  10.132   1.289 -0.1211  0.1688  0.6851
 4721SOL    HW116605   2.278  10.085   1.275 -0.3921 -0.3593  0.8329
 4721SOL    HW216606   2.212  10.187   1.366  0.0428 -0.0591  0.8157
 4722SOL     OW16607   1.991   9.107   2.188 -0.1118  0.4105  0.5949
 4722SOL    HW116608   1.958   9.020   2.167  0.5386  0.4742 -0.7350
 4722SOL    HW216609   2.072   9.116   2.138 -0.5337  2.0520  0.1449
 4723SOL     OW16610   5.326   4.030   1.806  0.1251  0.4255 -0.2466
 4723SOL    HW116611   5.289   4.106   1.762  1.6690  0.6075 -1.3231
 4723SOL    HW216612   5.403   4.064   1.852  0.6065 -0.3912 -0.4189
 4724SOL     OW16613   4.274   9.504  10.052 -0.1396  0.0442  0.7651
 4724SOL    HW116614   4.210   9.486  10.120  0.5537 -0.1216  1.3917
 4724SOL    HW216615   4.234   9.472   9.972 -2.0639  2.4805  0.6183
 4725SOL     OW16616   3.744   6.221   9.974  0.4001  0.0372 -0.1579
 4725SOL    HW116617   3.739   6.136   9.930  0.7347  0.7646 -1.6682
 4725SOL    HW216618   3.835   6.228  10.002 -0.0725 -0.9496  1.8413
 4726SOL     OW16619   7.502   4.336   6.871 -0.0537  0.4860  0.1141
 4726SOL    HW116620   7.563   4.402   6.901 -0.7513  0.3131  2.0784
 4726SOL    HW216621   7.432   4.385   6.828  0.2572  0.8707  0.0414
 4727SOL     OW16622   4.790   9.805   3.402 -0.1913  0.3565 -0.3877
 4727SOL    HW116623   4.742   9.853   3.469 -0.1006 -0.8726  0.5986
 4727SOL    HW216624   4.819   9.725   3.446  0.8289  0.0294 -1.5885
 4728SOL     OW16625   7.485   2.811   1.166  0.2403 -0.0182 -0.2864
 4728SOL    HW116626   7.527   2.786   1.084  0.4611 -2.6985  0.5460
 4728SOL    HW216627   7.393   2.788   1.154  0.3465 -0.8255  0.3082
 4729SOL     OW16628   1.459   8.759   9.711 -0.0352 -0.0253  0.1581
 4729SOL    HW116629   1.418   8.801   9.787 -0.8461 -0.4708 -0.0175
 4729SOL    HW216630   1.421   8.671   9.709  2.5222 -1.2805  1.2453
 4730SOL     OW16631  10.230  10.230   9.440  0.0916 -0.0159  0.1779
 4730SOL    HW116632  10.198  10.229   9.350 -0.1945  0.2233  0.2755
 4730SOL    HW216633  10.311  10.179   9.437  0.7877  1.0882 -0.4699
 4731SOL     OW16634   7.810   1.835   6.246 -0.2958 -0.8142 -0.1822
 4731SOL    HW116635   7.753   1.762   6.271 -0.1848 -0.3312  1.6702
 4731SOL    HW216636   7.895   1.813   6.285 -0.2630  0.2712  0.4078
 4732SOL     OW16637   2.793   6.006   4.379  0.0105 -0.3346 -0.0853
 4732SOL    HW116638   2.715   6.042   4.337  0.3416  0.6364  0.1218
 4732SOL    HW216639   2.759   5.938   4.437 -0.7085  0.2321  0.1777
 4733SOL     OW16640   6.998   3.105   5.879  0.3486  0.2448  0.2147
 4733SOL    HW116641   6.947   3.059   5.945 -0.8730  0.5623 -0.4906
 4733SOL    HW216642   7.059   3.039   5.845 -0.0124 -0.2991  0.6172
 4734SOL     OW16643   4.535   8.449  10.359  0.4380 -0.5209 -0.4164
 4734SOL    HW116644   4.571   8.485  10.440  0.4133  0.4963 -0.8421
 4734SOL    HW216645   4.502   8.362  10.383  1.1187 -0.5363  0.4831
 4735SOL     OW16646   1.456   4.208   6.322  0.0600  0.2071  0.2438
 4735SOL    HW116647   1.536   4.261   6.325  0.3616 -0.2696  1.9747
 4735SOL    HW216648   1.469   4.142   6.390 -1.3221 -0.6067 -0.2519
 4736SOL     OW16649   1.416   0.206   8.248 -0.3827  0.0262 -0.0108
 4736SOL    HW116650   1.488   0.151   8.279  1.0393  0.8175 -1.7055
 4736SOL    HW216651   1.339   0.149   8.249  0.0264 -0.6080  2.6642
 4737SOL     OW16652   1.243   0.893   7.642  0.2281 -0.3707  0.1524
 4737SOL    HW116653   1.162   0.939   7.620  0.1069 -0.1241  1.0652
 4737SOL    HW216654   1.251   0.824   7.576 -0.0203  0.4397 -0.7354
 4738SOL     OW16655   8.390   9.455   7.512 -1.0020 -0.0391  0.0400
 4738SOL    HW116656   8.370   9.485   7.424 -1.1681  2.0123  0.7206
 4738SOL    HW216657   8.482   9.430   7.510 -0.7713  0.8566 -0.4935
 4739SOL     OW16658   5.040   5.611   5.500 -0.4830 -0.0186  0.2345
 4739SOL    HW116659   5.013   5.644   5.415  1.3495  0.1266 -0.3467
 4739SOL    HW216660   5.037   5.516   5.491 -0.2196 -0.0040 -0.0317
 4740SOL     OW16661   1.591   1.804   5.949 -0.3642 -0.6123 -0.4506
 4740SOL    HW116662   1.507   1.810   5.903 -0.8795  2.1800  0.6120
 4740SOL    HW216663   1.656   1.819   5.881 -0.9803  0.9788 -0.7374
 4741SOL     OW16664   2.764   4.672   4.885 -0.0174 -0.5094 -0.4499
 4741SOL    HW116665   2.833   4.620   4.928  1.6951  1.1990 -0.9748
 4741SOL    HW216666   2.736   4.735   4.951  1.4522  1.0482 -1.2297
 4742SOL     OW16667   8.955  10.170   6.078  0.0117  0.0561 -0.0378
 4742SOL    HW116668   9.031  10.213   6.117  0.2061  0.6735 -1.0653
 4742SOL    HW216669   8.993  10.103   6.021 -0.2902 -1.9944  2.0151
 4743SOL     OW16670   6.138  10.098   6.671 -0.2330 -0.0390  0.4200
 4743SOL    HW116671   6.189  10.178   6.661 -2.2251  1.4055  1.2536
 4743SOL    HW216672   6.049  10.128   6.685 -1.0662 -2.4266  0.6513
 4744SOL     OW16673   3.345   1.615   5.572 -0.3549 -0.2130  0.3940
 4744SOL    HW116674   3.364   1.671   5.647 -1.0184  0.8119 -0.1750
 4744SOL    HW216675   3.417   1.553   5.569  0.0195  0.1607  1.4828
 4745SOL     OW16676   5.862   1.528   6.693  0.5057  0.1077  0.0799
 4745SOL    HW116677   5.907   1.445   6.677 -1.2572 -1.2608  1.7727
 4745SOL    HW216678   5.839   1.559   6.605  1.3316 -1.0953 -0.6074
 4746SOL     OW16679   1.965   6.782  10.249 -0.3303 -0.5485 -0.2778
 4746SOL    HW116680   2.029   6.744  10.190  1.7975  1.3730  0.6445
 4746SOL    HW216681   1.991   6.752  10.336  1.7535  3.0778  0.5589
 4747SOL     OW16682   3.089   5.307   2.329 -0.1773 -0.1795  0.4342
 4747SOL    HW116683   3.076   5.272   2.418  2.5329 -1.4344  0.4484
 4747SOL    HW216684   3.087   5.402   2.340 -0.8635 -0.3164  1.6607
 4748SOL     OW16685   0.025   9.908   8.214 -0.5987  0.2296  0.2576
 4748SOL    HW116686  -0.018   9.928   8.297 -1.3080 -2.1160  0.5467
 4748SOL    HW216687   0.118   9.900   8.236 -0.6403  0.6957  0.6112
 4749SOL     OW16688   3.275   6.575   0.002 -0.6330 -0.1340 -0.6620
 4749SOL    HW116689   3.203   6.534   0.049 -0.8369  3.5738  2.8045
 4749SOL    HW216690   3.240   6.660  -0.026  2.4225  2.2965  2.0847
 4750SOL     OW16691  10.357   9.298   0.433  0.7214  0.1851 -0.0681
 4750SOL    HW116692  10.392   9.250   0.508  1.3165  0.2871 -0.2793
 4750SOL    HW216693  10.344   9.387   0.466  0.5832  0.1276  0.0336
 4751SOL     OW16694   3.203   2.996   4.105 -0.2054  0.4430 -0.3867
 4751SOL    HW116695   3.260   3.062   4.143  0.7035  0.2758 -1.3988
 4751SOL    HW216696   3.115   3.019   4.135  0.2667  1.3119  0.3641
 4752SOL     OW16697   0.076   7.331   9.020  0.6752  0.1737 -0.3699
 4752SOL    HW116698   0.030   7.389   9.081 -0.5035 -2.5413  1.5101
 4752SOL    HW216699   0.012   7.264   8.997  2.0468 -0.5882 -2.2133
 4753SOL     OW16700   1.288   6.645   5.064  0.0833  0.3703  0.4413
 4753SOL    HW116701   1.200   6.672   5.093 -0.7650 -1.5597 -0.1748
 4753SOL    HW216702   1.347   6.693   5.121 -1.4231  0.5574  1.9361
 4754SOL     OW16703   0.923   3.175   8.384 -0.6685 -0.3507 -0.1392
 4754SOL    HW116704   1.013   3.207   8.375 -0.7312  0.5048  1.7304
 4754SOL    HW216705   0.930   3.081   8.367  0.3126 -0.0930 -1.3703
 4755SOL     OW16706   8.727   9.404   2.033  0.5969 -0.2917  0.0867
 4755SOL    HW116707   8.788   9.433   1.966  0.9066  0.4671  0.6829
 4755SOL    HW216708   8.715   9.310   2.017  2.1341 -0.5086  0.1351
 4756SOL     OW16709   1.320   2.420   7.644 -0.0815 -0.6453 -0.2819
 4756SOL    HW116710   1.309   2.494   7.584 -1.5528  0.2494  0.9885
 4756SOL    HW216711   1.334   2.461   7.730 -0.5071 -1.8341  0.3842
 4757SOL     OW16712   2.365   0.264   2.085  0.0052  0.5111  0.0912
 4757SOL    HW116713   2.416   0.334   2.043  1.4856 -0.6539 -0.1550
 4757SOL    HW216714   2.374   0.189   2.026  1.5257 -0.9688  2.0505
 4758SOL     OW16715   8.861   3.341   2.438 -0.3431  0.2640  0.6435
 4758SOL    HW116716   8.768   3.365   2.429  0.0700  1.2418 -1.7704
 4758SOL    HW216717   8.900   3.416   2.483 -0.5402  0.3704  0.6396
 4759SOL     OW16718   4.503   9.121   1.376 -0.6688 -0.3792 -0.2659
 4759SOL    HW116719   4.586   9.168   1.374 -0.5779 -0.5403 -2.3104
 4759SOL    HW216720   4.440   9.184   1.412 -0.1350  0.5934 -0.9928
 4760SOL     OW16721   9.166   0.781  10.318  0.3741  0.0187  0.3619
 4760SOL    HW116722   9.169   0.862  10.266 -0.6202 -1.1018 -1.5632
 4760SOL    HW216723   9.235   0.726  10.282 -1.8288 -1.7024 -1.5816
 4761SOL     OW16724   9.418   0.950   8.348  0.7097  0.6687  0.5568
 4761SOL    HW116725   9.441   0.972   8.258  1.0800  0.9805  0.7258
 4761SOL    HW216726   9.324   0.932   8.345  0.9446 -0.5047 -0.1103
 4762SOL     OW16727   2.411   5.178   0.304 -0.1194  0.1851  0.1066
 4762SOL    HW116728   2.463   5.188   0.224 -2.4019  0.4085 -1.4485
 4762SOL    HW216729   2.339   5.121   0.278 -2.0564  1.8935  1.3999
 4763SOL     OW16730   6.103   5.791   0.305  0.1001  0.3092  0.5922
 4763SOL    HW116731   6.193   5.773   0.279 -0.5321 -0.4516 -1.1984
 4763SOL    HW216732   6.093   5.748   0.390  1.0854 -0.5796  0.2741
 4764SOL     OW16733   1.849   4.021   5.565  0.2458 -0.0108  0.4742
 4764SOL    HW116734   1.772   3.969   5.541  0.6127 -0.2245 -0.2820
 4764SOL    HW216735   1.859   4.007   5.659 -0.9730  0.4715  0.6972
 4765SOL     OW16736   0.206   9.314   3.648  0.2759  0.3353  0.3172
 4765SOL    HW116737   0.158   9.397   3.656 -0.6128 -0.1555  0.2371
 4765SOL    HW216738   0.296   9.336   3.669 -0.1242  1.1424  1.2614
 4766SOL     OW16739   5.347   0.603   7.444 -0.2977  0.0370  0.2647
 4766SOL    HW116740   5.333   0.530   7.504  0.1855  1.2718  1.9284
 4766SOL    HW216741   5.261   0.620   7.407 -0.6389 -0.6366  0.7298
 4767SOL     OW16742  10.197   3.523   2.611 -0.2238 -0.7602  0.1644
 4767SOL    HW116743  10.215   3.617   2.615 -0.6974 -0.4291 -2.7230
 4767SOL    HW216744  10.280   3.483   2.583 -0.1840 -1.1213  0.7888
 4768SOL     OW16745   9.738   6.717   8.931  0.1483  0.3222  0.2133
 4768SOL    HW116746   9.797   6.660   8.979 -0.1295  0.2478  0.4692
 4768SOL    HW216747   9.698   6.660   8.865  0.2341  0.3323  0.1531
 4769SOL     OW16748   2.297   1.127   8.316 -0.3197  0.4876 -0.0553
 4769SOL    HW116749   2.268   1.217   8.332 -1.1164 -0.0273  1.7737
 4769SOL    HW216750   2.229   1.074   8.358  0.8611 -0.9167  0.1200
 4770SOL     OW16751   8.370   1.210   6.168 -0.4398 -0.1467 -0.7201
 4770SOL    HW116752   8.392   1.155   6.093 -1.5683 -0.1270 -1.0800
 4770SOL    HW216753   8.290   1.255   6.142 -1.1177 -0.4989  0.6760
 4771SOL     OW16754   2.838   6.805   8.960  0.1779 -0.3536 -0.3939
 4771SOL    HW116755   2.796   6.885   8.993 -0.1817 -0.1995 -1.1787
 4771SOL    HW216756   2.929   6.812   8.989  0.9233  1.8113 -2.8238
 4772SOL     OW16757   1.121   9.537   2.765  0.5911  0.1883  0.0061
 4772SOL    HW116758   1.063   9.609   2.739  0.5866  0.4617  0.7497
 4772SOL    HW216759   1.106   9.470   2.699 -1.9532 -0.4865  1.1572
 4773SOL     OW16760   7.004   7.141   3.387 -0.3053 -0.2277  0.0797
 4773SOL    HW116761   7.043   7.118   3.302 -1.1708  0.6499 -0.5815
 4773SOL    HW216762   6.994   7.236   3.383 -3.1563 -0.4470 -0.1041
 4774SOL     OW16763   3.850   0.222   2.533  0.2069 -0.2875 -0.3578
 4774SOL    HW116764   3.835   0.266   2.617  0.9152 -1.0764  0.2001
 4774SOL    HW216765   3.839   0.291   2.468 -2.5468 -0.0989  0.1911
 4775SOL     OW16766   2.917   3.149   0.253  0.8938  0.3588  0.0834
 4775SOL    HW116767   2.933   3.114   0.341  0.1294 -1.1012 -0.3219
 4775SOL    HW216768   2.900   3.242   0.266  0.5627  0.1169  1.5156
 4776SOL     OW16769   5.945   7.325   3.641 -0.1179  0.2747  0.4372
 4776SOL    HW116770   6.040   7.317   3.633 -0.3054 -0.9058 -0.9932
 4776SOL    HW216771   5.926   7.416   3.615  0.3651 -0.3918 -2.5981
 4777SOL     OW16772   2.063   8.501   3.267  0.1927  0.3233 -0.0219
 4777SOL    HW116773   2.071   8.568   3.199  0.0891  0.8408  0.4581
 4777SOL    HW216774   1.969   8.484   3.272  0.2212  0.1325 -0.1571
 4778SOL     OW16775   6.096   5.373   1.269  0.4151 -0.1359  0.2479
 4778SOL    HW116776   6.063   5.430   1.338  0.7221  1.2393 -0.7015
 4778SOL    HW216777   6.022   5.362   1.208  0.3441 -0.8093  0.4405
 4779SOL     OW16778   4.074   7.918  10.246  0.0678 -0.1030  0.2624
 4779SOL    HW116779   4.074   7.853  10.176 -0.1420 -0.0471  0.2119
 4779SOL    HW216780   3.984   7.920  10.277 -0.0942  0.7188 -0.2474
 4780SOL     OW16781   8.303   6.952  10.143  0.1347  0.2455  0.0043
 4780SOL    HW116782   8.219   6.951  10.190 -1.5305  2.1030 -2.6169
 4780SOL    HW216783   8.368   6.931  10.209 -1.9943  2.4657  3.0953
 4781SOL     OW16784   6.554   4.142   2.608 -0.1311  0.2686 -0.0306
 4781SOL    HW116785   6.508   4.169   2.529 -0.1604 -1.9384 -0.8405
 4781SOL    HW216786   6.539   4.048   2.614  1.5238  0.0390  1.5154
 4782SOL     OW16787   3.130   3.981   3.157  0.2057 -0.2533  0.1959
 4782SOL    HW116788   3.218   3.947   3.173 -0.2797 -2.4429 -1.3546
 4782SOL    HW216789   3.124   4.058   3.213  2.6007 -0.8348  1.3973
 4783SOL     OW16790   0.778   2.256   7.671  0.1438 -0.1618  0.2294
 4783SOL    HW116791   0.790   2.217   7.757 -1.5528 -0.4049  0.3867
 4783SOL    HW216792   0.788   2.183   7.610  2.2190  0.1589  0.0998
 4784SOL     OW16793   0.216   8.973   8.934 -0.5153 -0.1362  0.0493
 4784SOL    HW116794   0.155   8.978   9.008  0.5712  0.3206  0.9415
 4784SOL    HW216795   0.301   8.993   8.972  0.3950 -1.8726 -0.9313
 4785SOL     OW16796   1.921  10.348   4.038 -0.2161  0.5119  0.2236
 4785SOL    HW116797   1.876  10.329   4.121  0.1092  1.2483  0.5787
 4785SOL    HW216798   2.013  10.358   4.063 -0.1470  0.9221 -0.1988
 4786SOL     OW16799   0.643   0.899   3.667  0.1382 -0.0389  0.2337
 4786SOL    HW116800   0.581   0.922   3.597  0.1632 -2.1891 -0.5716
 4786SOL    HW216801   0.590   0.855   3.733  0.4979 -0.1549  0.4478
 4787SOL     OW16802   5.266   3.981   3.762  0.0701  0.4812 -0.2107
 4787SOL    HW116803   5.347   4.030   3.776 -0.5512  1.6462 -0.5663
 4787SOL    HW216804   5.203   4.047   3.734 -0.4055 -0.7772 -2.2623
 4788SOL     OW16805   2.728   1.945   7.187  0.3560 -0.8521  0.4306
 4788SOL    HW116806   2.775   1.998   7.122  0.8682  0.1567  1.5689
 4788SOL    HW216807   2.657   1.904   7.138 -0.4561  1.3973 -0.4388
 4789SOL     OW16808   8.773   9.730   3.941  0.1949  0.1173  0.3820
 4789SOL    HW116809   8.696   9.714   3.887  1.1295  0.6904 -1.1730
 4789SOL    HW216810   8.781   9.825   3.946  1.5916  0.0882 -0.6943
 4790SOL     OW16811   9.217   3.187   3.801 -0.0069 -0.0452 -0.0397
 4790SOL    HW116812   9.188   3.248   3.869  0.7298  0.8806 -0.5294
 4790SOL    HW216813   9.139   3.136   3.780 -0.7984  1.1044  0.0075
 4791SOL     OW16814   8.611   3.060   9.604 -0.4313 -0.8423 -0.0049
 4791SOL    HW116815   8.545   3.056   9.673 -2.6126  0.6477 -1.8680
 4791SOL    HW216816   8.618   3.153   9.582  1.1515 -1.1325 -0.9560
 4792SOL     OW16817   0.873   0.872   0.255  0.0554 -0.5986  0.0639
 4792SOL    HW116818   0.850   0.824   0.334 -2.2029  0.7324  0.2903
 4792SOL    HW216819   0.865   0.807   0.185  0.0984 -1.3006  0.6922
 4793SOL     OW16820   5.926   7.813   7.705  0.3618  0.5464  0.1952
 4793SOL    HW116821   5.886   7.814   7.618 -0.2384 -0.0657  0.4568
 4793SOL    HW216822   5.949   7.905   7.721 -1.2664  1.0054  0.1673
 4794SOL     OW16823   8.867   5.928   4.209 -0.0295 -0.1795  0.3210
 4794SOL    HW116824   8.912   5.898   4.130  3.9135  2.1073  1.3783
 4794SOL    HW216825   8.805   5.994   4.178  1.9989  1.2574 -0.9892
 4795SOL     OW16826   3.716   7.337   0.257 -0.0649 -0.0430  0.2206
 4795SOL    HW116827   3.806   7.337   0.292 -0.6384  1.2528  1.8128
 4795SOL    HW216828   3.664   7.293   0.325 -1.0091  1.3620  0.4376
 4796SOL     OW16829   8.006   8.405   7.644 -0.0039 -0.1009 -0.4671
 4796SOL    HW116830   8.100   8.390   7.653 -0.0208 -0.5943 -1.0383
 4796SOL    HW216831   7.985   8.374   7.556 -0.2886  2.0967 -1.2389
 4797SOL     OW16832   0.724   3.032   5.853 -0.1234  0.2368 -0.7739
 4797SOL    HW116833   0.691   3.121   5.848 -2.8852 -0.6411 -0.0126
 4797SOL    HW216834   0.690   2.998   5.935  1.2453 -1.4059 -0.8243
 4798SOL     OW16835   5.793   9.144   4.762  0.3359  0.1850 -0.4908
 4798SOL    HW116836   5.787   9.055   4.727  2.0670  0.5195 -1.7602
 4798SOL    HW216837   5.713   9.155   4.813 -0.4230 -1.7162 -1.1820
 4799SOL     OW16838   1.932   2.720   3.881  0.4141 -0.4569 -0.1080
 4799SOL    HW116839   2.002   2.762   3.930  0.5749 -2.2728  1.3594
 4799SOL    HW216840   1.955   2.732   3.789  1.3924  0.9948  0.3030
 4800SOL     OW16841   3.225   2.205   9.318  0.2626 -0.1184 -0.3887
 4800SOL    HW116842   3.134   2.193   9.293 -0.2466  1.1114  0.7416
 4800SOL    HW216843   3.274   2.143   9.264 -1.3256 -1.4242 -0.3888
 4801SOL     OW16844   8.676   5.194   7.417 -0.3540 -0.0481  0.1128
 4801SOL    HW116845   8.748   5.138   7.445 -0.0635  0.6286  0.7497
 4801SOL    HW216846   8.624   5.139   7.359  0.7974 -0.4896 -0.5431
 4802SOL     OW16847   3.877   6.159   9.629 -0.3930 -0.4306 -0.0339
 4802SOL    HW116848   3.962   6.193   9.601 -0.4892 -0.7600 -0.7636
 4802SOL    HW216849   3.844   6.225   9.689  1.4852 -1.5087  2.3515
 4803SOL     OW16850   0.970   3.845   7.242  0.0665  0.2714 -0.0295
 4803SOL    HW116851   0.937   3.765   7.283 -0.9045  0.6383 -0.0615
 4803SOL    HW216852   0.964   3.912   7.311  0.0368  0.5094 -0.2610
 4804SOL     OW16853   1.507   8.929   3.408 -0.5753  0.1502  0.2501
 4804SOL    HW116854   1.458   8.858   3.449 -1.0129  0.9113  1.0819
 4804SOL    HW216855   1.556   8.886   3.338 -1.4366 -0.8391  0.2167
 4805SOL     OW16856   3.807   3.465   5.316  0.4103 -0.4010 -0.1809
 4805SOL    HW116857   3.848   3.548   5.291 -0.1297 -0.3394 -0.8865
 4805SOL    HW216858   3.876   3.400   5.307  0.2684 -0.3681 -1.7657
 4806SOL     OW16859   0.677   4.345   5.769 -0.4937  0.1876 -0.0027
 4806SOL    HW116860   0.609   4.389   5.719 -0.1187 -1.6369 -2.2663
 4806SOL    HW216861   0.760   4.377   5.733 -0.1837 -0.2078  0.3337
 4807SOL     OW16862   3.452   7.208   2.580 -0.9611 -0.3640 -0.4812
 4807SOL    HW116863   3.521   7.176   2.638 -0.7211  0.3944 -0.3438
 4807SOL    HW216864   3.471   7.166   2.496 -0.5370 -0.4285 -0.3572
 4808SOL     OW16865   9.880   4.865   7.175 -0.0832 -0.0656  0.4527
 4808SOL    HW116866   9.850   4.898   7.260  0.7128 -0.3376  0.8450
 4808SOL    HW216867   9.826   4.787   7.159  0.7044 -0.8253  1.3772
 4809SOL     OW16868   6.796   6.013   3.450 -0.7280 -0.1614  0.2899
 4809SOL    HW116869   6.888   5.990   3.466  0.3943  3.1643 -0.5314
 4809SOL    HW216870   6.771   5.959   3.376  1.0066 -0.2312 -0.3021
 4810SOL     OW16871   8.256   9.587   1.853 -0.4338 -0.3040 -0.0775
 4810SOL    HW116872   8.266   9.569   1.759  0.1238 -0.0063 -0.0789
 4810SOL    HW216873   8.322   9.533   1.895  0.2595  0.6116  0.0302
 4811SOL     OW16874   9.581   1.261   8.210  0.3480  0.1589  0.1611
 4811SOL    HW116875   9.621   1.234   8.128 -0.7337  0.8989 -0.6533
 4811SOL    HW216876   9.649   1.310   8.256  0.6409  0.6698 -0.7973
 4812SOL     OW16877   6.924   5.097   7.924 -0.4941 -0.7707 -0.0391
 4812SOL    HW116878   6.864   5.151   7.872 -0.6954  0.1921  1.1669
 4812SOL    HW216879   7.011   5.125   7.897 -0.5765 -1.1911 -0.7811
 4813SOL     OW16880   6.358   7.950   1.752  0.4161  0.4063 -0.3437
 4813SOL    HW116881   6.329   7.909   1.833  0.1842 -0.6172 -0.9398
 4813SOL    HW216882   6.452   7.933   1.749  0.0917 -1.4707 -1.3375
 4814SOL     OW16883   0.768   7.030   0.948  0.5795 -0.0902 -0.4065
 4814SOL    HW116884   0.849   7.013   0.899 -0.0938 -0.3960 -1.4555
 4814SOL    HW216885   0.743   6.944   0.981  0.6645 -0.0011 -0.1126
 4815SOL     OW16886  10.182   8.832   1.432 -0.4599 -0.0108  0.3034
 4815SOL    HW116887  10.135   8.811   1.513 -0.8125 -0.5153 -0.0277
 4815SOL    HW216888  10.206   8.747   1.396 -2.4652  0.0704 -1.3858
 4816SOL     OW16889   4.491   4.261   7.589 -0.1061 -0.2466  0.1564
 4816SOL    HW116890   4.492   4.324   7.661 -2.3874  1.5215 -1.2374
 4816SOL    HW216891   4.414   4.207   7.605 -0.7358  0.2802 -1.0142
 4817SOL     OW16892   1.854   4.906   3.000  0.2085  0.4532  0.6144
 4817SOL    HW116893   1.858   4.819   2.961 -0.0124  1.3054 -1.4070
 4817SOL    HW216894   1.823   4.890   3.089 -1.1477 -1.4248 -0.1202
 4818SOL     OW16895   1.222   8.311   2.119  0.9633  0.2736 -0.1956
 4818SOL    HW116896   1.218   8.299   2.025  2.5606  0.9231 -0.3852
 4818SOL    HW216897   1.135   8.289   2.151 -0.1010  1.6415 -2.0073
 4819SOL     OW16898   1.182   5.436  10.072 -0.1892  0.0518 -0.3315
 4819SOL    HW116899   1.230   5.502  10.021  0.6748 -0.2388  0.0833
 4819SOL    HW216900   1.239   5.418  10.147 -1.5798  0.6986  0.9249
 4820SOL     OW16901   0.481   6.603   5.932 -0.3786  0.1038 -0.3525
 4820SOL    HW116902   0.456   6.650   6.011 -1.4440  0.1636 -0.7040
 4820SOL    HW216903   0.444   6.516   5.943  0.4194 -0.2348 -0.3017
 4821SOL     OW16904   4.529   8.553   5.815 -0.0494 -0.1755 -0.5918
 4821SOL    HW116905   4.541   8.521   5.904 -0.4989  1.3006  0.0250
 4821SOL    HW216906   4.618   8.574   5.785  0.1096 -0.7443 -0.5268
 4822SOL     OW16907   4.922   2.279   6.326 -0.5031  0.0408 -0.1459
 4822SOL    HW116908   4.938   2.372   6.312 -0.3370 -0.0041 -0.2585
 4822SOL    HW216909   4.923   2.241   6.238 -0.8722 -0.0193 -0.1265
 4823SOL     OW16910   6.025   0.812   9.530  0.0167  0.3411  0.3479
 4823SOL    HW116911   6.073   0.868   9.591  1.5831 -1.1803  0.5929
 4823SOL    HW216912   5.993   0.741   9.584  1.6826 -1.1934 -0.5687
 4824SOL     OW16913   0.775   1.218   4.183 -0.2214 -0.1104 -0.0370
 4824SOL    HW116914   0.713   1.153   4.149  0.6547 -1.5215  0.9500
 4824SOL    HW216915   0.861   1.185   4.157  0.2144  1.0351 -0.0961
 4825SOL     OW16916   5.461   4.503   9.224 -0.4867  0.0847  0.5930
 4825SOL    HW116917   5.373   4.518   9.189 -0.0734 -1.3106 -1.1852
 4825SOL    HW216918   5.518   4.504   9.147  0.8635 -0.4630  1.5476
 4826SOL     OW16919   3.042   4.926   8.039 -0.3720 -0.5977 -0.2761
 4826SOL    HW116920   3.134   4.900   8.043  0.1985  1.1330 -1.0991
 4826SOL    HW216921   3.001   4.862   7.981  1.0108  0.3395 -2.3866
 4827SOL     OW16922   4.184  10.380   4.565 -0.1818  0.1178 -0.5658
 4827SOL    HW116923   4.272  10.357   4.535 -0.4879  0.5203 -1.8139
 4827SOL    HW216924   4.167  10.466   4.526 -1.5772 -0.4631 -1.2883
 4828SOL     OW16925   9.492   0.441   7.932  0.3480  0.0198  0.1539
 4828SOL    HW116926   9.445   0.379   7.987 -0.4747  1.5961  1.3154
 4828SOL    HW216927   9.435   0.455   7.857 -0.2502  0.5576  0.6853
 4829SOL     OW16928   5.034  10.416   5.598 -0.7370  0.0862 -0.3377
 4829SOL    HW116929   5.017  10.499   5.642  2.1629 -1.0545  3.4399
 4829SOL    HW216930   5.063  10.441   5.510 -0.9069  2.9821  0.3351
 4830SOL     OW16931   7.626   5.612   8.679  0.8342  0.0978  0.3778
 4830SOL    HW116932   7.562   5.682   8.663  0.1270 -0.9207 -1.5792
 4830SOL    HW216933   7.578   5.548   8.731  0.4017 -0.4024 -0.6070
 4831SOL     OW16934   4.742   8.004   5.565 -0.3751  0.1651  0.7330
 4831SOL    HW116935   4.784   8.089   5.579 -0.3510 -0.0829  2.3111
 4831SOL    HW216936   4.704   8.011   5.478  0.6612  1.3519  0.3386
 4832SOL     OW16937  10.095   1.941   2.467 -0.3670  0.7217  0.3225
 4832SOL    HW116938  10.079   1.989   2.385 -0.6755  1.6416  0.9072
 4832SOL    HW216939  10.104   1.850   2.440  2.2664  1.3051 -1.0916
 4833SOL     OW16940   2.896   7.088   5.932  0.0343  0.4805 -0.6339
 4833SOL    HW116941   2.922   6.996   5.936 -1.8831 -0.0989 -0.3871
 4833SOL    HW216942   2.930   7.119   5.848  1.4489 -0.1822 -0.3364
 4834SOL     OW16943  10.324   2.802   3.590  0.1985  0.0926  0.4797
 4834SOL    HW116944  10.335   2.850   3.672 -0.6977 -0.0313  0.6847
 4834SOL    HW216945  10.409   2.809   3.546  0.9165 -0.4598  1.7447
 4835SOL     OW16946   3.938   3.254   1.904  0.3550 -0.0932 -0.1572
 4835SOL    HW116947   3.920   3.338   1.947  1.1238 -0.3124  0.6007
 4835SOL    HW216948   4.019   3.223   1.944  1.2436 -0.1867 -1.9424
 4836SOL     OW16949   0.869   4.842   7.158 -0.1379  0.4448 -0.2164
 4836SOL    HW116950   0.913   4.783   7.219 -2.4441 -0.6658  0.4782
 4836SOL    HW216951   0.828   4.908   7.215 -1.7842 -0.2417 -0.5474
 4837SOL     OW16952   1.583   3.609   4.950  0.2838 -0.3414 -0.0141
 4837SOL    HW116953   1.644   3.681   4.939 -1.3661  0.7693 -3.6023
 4837SOL    HW216954   1.504   3.649   4.987 -0.8513  0.0053 -2.5678
 4838SOL     OW16955   5.019   0.762   9.223  0.0494  0.3246  0.3340
 4838SOL    HW116956   5.114   0.766   9.219  0.0752 -0.6694 -0.6183
 4838SOL    HW216957   5.000   0.704   9.297  0.2544 -1.0450 -0.6539
 4839SOL     OW16958   8.723   5.423   5.237  0.4442  0.7919  0.4624
 4839SOL    HW116959   8.777   5.369   5.180 -0.5187  1.4345 -1.1456
 4839SOL    HW216960   8.634   5.389   5.225  0.0113  1.8864  0.3884
 4840SOL     OW16961   4.965   0.447   8.846  0.2818 -0.2494 -0.1155
 4840SOL    HW116962   5.059   0.458   8.832  0.3283  0.1180  0.4397
 4840SOL    HW216963   4.924   0.509   8.786  0.3301 -1.5077 -1.4863
 4841SOL     OW16964   2.650   0.419   6.112 -0.1859 -0.0696  0.5490
 4841SOL    HW116965   2.712   0.351   6.139  0.0460 -0.5363 -1.0656
 4841SOL    HW216966   2.706   0.489   6.077 -0.5164 -0.3249 -0.5467
 4842SOL     OW16967   8.613   4.596   1.227  0.6555 -0.0089 -0.2255
 4842SOL    HW116968   8.684   4.558   1.278  0.4014  1.5075  1.3361
 4842SOL    HW216969   8.652   4.670   1.181  0.4885 -0.3279 -0.9084
 4843SOL     OW16970   7.597   5.627   8.974  0.0370 -0.4743  0.4990
 4843SOL    HW116971   7.505   5.603   8.965 -0.2303 -1.3325  4.1258
 4843SOL    HW216972   7.595   5.716   9.010  0.7984  0.7610 -2.2572
 4844SOL     OW16973   8.445   2.832   4.081  0.3604  0.3064 -0.9059
 4844SOL    HW116974   8.461   2.898   4.148  1.5295 -2.4477  1.7890
 4844SOL    HW216975   8.367   2.785   4.112  0.7065 -0.7993 -1.6691
 4845SOL     OW16976   1.240   3.999   1.362 -0.3149  0.3465 -0.1429
 4845SOL    HW116977   1.179   3.984   1.434 -0.4091  0.9715 -0.0838
 4845SOL    HW216978   1.327   3.990   1.401 -0.3658  0.5780  0.0281
 4846SOL     OW16979   0.285  10.348   1.873  0.8894  0.1066  0.1722
 4846SOL    HW116980   0.284  10.401   1.953  1.1940 -1.2009  1.0682
 4846SOL    HW216981   0.340  10.397   1.813  0.1889  1.4075  0.5400
 4847SOL     OW16982   5.306   0.794   8.559 -0.0815  0.1332  0.1427
 4847SOL    HW116983   5.310   0.712   8.608  0.9929  0.3391  0.4450
 4847SOL    HW216984   5.231   0.841   8.595  0.7743  0.3427  1.7275
 4848SOL     OW16985   1.115   2.956   6.762  0.5883 -0.7394  0.4295
 4848SOL    HW116986   1.028   2.953   6.802  1.7481 -1.2194  3.0634
 4848SOL    HW216987   1.150   2.868   6.773  1.5669 -0.4571 -0.2675
 4849SOL     OW16988  10.460   6.128   8.949  0.3731 -0.4759 -0.1309
 4849SOL    HW116989  10.443   6.080   9.030  1.8273 -0.8173 -0.0094
 4849SOL    HW216990  10.523   6.195   8.973 -0.3139  0.3977 -0.6831
 4850SOL     OW16991   7.245   6.458   5.274 -0.2825 -0.6083  0.3523
 4850SOL    HW116992   7.336   6.445   5.250 -0.5138 -2.2848  0.2040
 4850SOL    HW216993   7.244   6.455   5.369 -0.2408 -1.2996  0.3409
 4851SOL     OW16994   9.837  10.232   3.014 -0.5302 -0.0136  0.3177
 4851SOL    HW116995   9.885  10.309   2.983  0.0344 -0.9772 -1.3217
 4851SOL    HW216996   9.745  10.251   2.994 -0.4251  0.3240  0.1512
 4852SOL     OW16997   0.652   6.018   3.785  0.1211 -0.0677  0.3045
 4852SOL    HW116998   0.670   6.078   3.857 -0.9385  0.6769 -0.0151
 4852SOL    HW216999   0.649   6.075   3.707  0.0596 -0.6764 -0.1466
 4853SOL     OW17000   5.819   2.389   1.996 -0.2299 -0.3386 -0.0418
 4853SOL    HW117001   5.862   2.305   1.981  0.7033 -0.1022  1.1655
 4853SOL    HW217002   5.738   2.366   2.042  0.0979 -0.5719  0.4282
 4854SOL     OW17003   0.948   0.622   2.680  0.6125 -0.1066  0.5610
 4854SOL    HW117004   0.964   0.684   2.751 -0.1314 -0.5062  1.0940
 4854SOL    HW217005   0.928   0.539   2.725 -0.0774 -0.3131 -0.1000
 4855SOL     OW17006  10.217   3.701   1.759 -0.1758  0.0611 -0.6396
 4855SOL    HW117007  10.121   3.693   1.765 -0.2063  0.6018 -0.3035
 4855SOL    HW217008  10.248   3.665   1.842 -0.1593  0.9506 -0.2553
 4856SOL     OW17009   4.858   4.141   3.818  0.0921 -0.2859  0.5958
 4856SOL    HW117010   4.945   4.175   3.799  1.0638 -1.7870  2.0833
 4856SOL    HW217011   4.865   4.105   3.906 -2.0402 -0.4720  0.7393
 4857SOL     OW17012   1.248   9.589   7.868  0.9544  0.1560  0.4049
 4857SOL    HW117013   1.291   9.632   7.942 -0.7674 -0.8419  2.0584
 4857SOL    HW217014   1.189   9.525   7.908 -0.6674  0.1560 -1.8135
 4858SOL     OW17015   8.492  10.465  10.443  0.5049  0.8198  0.6478
 4858SOL    HW117016   8.562  10.400  10.453 -0.2973 -0.1070  0.3178
 4858SOL    HW217017   8.452  10.444  10.358  0.6141  2.1201  0.2536
 4859SOL     OW17018   4.726   8.032   6.634  0.0965 -0.1142 -0.0178
 4859SOL    HW117019   4.805   8.078   6.605  1.9303 -2.0612  1.4892
 4859SOL    HW217020   4.729   8.039   6.730 -0.6761 -1.5570  0.1402
 4860SOL     OW17021   3.477   9.998   9.905 -0.3193 -0.3935  0.6510
 4860SOL    HW117022   3.555  10.031   9.860 -0.9795 -0.3843 -0.5045
 4860SOL    HW217023   3.509   9.974   9.992  0.7225  0.7644  0.6228
 4861SOL     OW17024   1.849   6.095   5.298 -0.0128  0.5724 -0.0063
 4861SOL    HW117025   1.775   6.132   5.251 -0.5366 -0.1649  0.2210
 4861SOL    HW217026   1.828   6.109   5.391  0.4157  0.8987  0.0427
 4862SOL     OW17027   6.096   3.249   8.176 -0.2085  0.6361  0.2487
 4862SOL    HW117028   6.136   3.168   8.207  0.9501  0.1895 -2.1715
 4862SOL    HW217029   6.158   3.318   8.200  1.7651  0.0576 -2.6259
 4863SOL     OW17030   6.703   1.676   6.009  0.6600 -0.4890  0.1588
 4863SOL    HW117031   6.764   1.749   6.022  0.5899 -0.9111  3.8639
 4863SOL    HW217032   6.635   1.712   5.952  0.8080  2.2594  1.5592
 4864SOL     OW17033   7.457   5.892   3.633  0.2138  0.3579 -0.4512
 4864SOL    HW117034   7.361   5.891   3.626  0.1953 -0.0219 -0.1513
 4864SOL    HW217035   7.474   5.922   3.723  0.3616 -0.4130 -0.2187
 4865SOL     OW17036   8.325   9.323   5.218  0.4873  0.6255  0.6606
 4865SOL    HW117037   8.418   9.343   5.211  1.1877 -2.6165 -2.0422
 4865SOL    HW217038   8.321   9.247   5.276 -0.3312  0.1414 -0.0081
 4866SOL     OW17039  10.188   3.488   8.447 -0.1766  0.2118 -0.3338
 4866SOL    HW117040  10.114   3.544   8.471 -0.6309 -0.5624  0.1307
 4866SOL    HW217041  10.236   3.476   8.529 -1.4495 -2.0288  0.1678
 4867SOL     OW17042   3.904   9.899   0.105 -0.3753 -0.0329  0.0833
 4867SOL    HW117043   3.899   9.807   0.130 -2.4796  0.1398  0.4578
 4867SOL    HW217044   3.951   9.899   0.022  0.3013 -1.3648  0.4445
 4868SOL     OW17045   0.479   1.091   2.349  0.2345  0.0593  0.3665
 4868SOL    HW117046   0.523   1.018   2.393 -0.0608 -0.3164  0.0482
 4868SOL    HW217047   0.392   1.095   2.389 -0.3423 -0.8263 -0.7397
 4869SOL     OW17048   4.525   0.574   0.835  0.5024 -0.1710  0.3730
 4869SOL    HW117049   4.573   0.494   0.813 -0.0706 -0.7257  1.1134
 4869SOL    HW217050   4.476   0.552   0.914 -0.0241  0.7699  0.3217
 4870SOL     OW17051   8.249   5.573   8.669  0.3473  0.3761 -0.2471
 4870SOL    HW117052   8.201   5.495   8.695 -0.1230  0.4609 -0.8456
 4870SOL    HW217053   8.274   5.615   8.752  0.0442 -0.0640  0.0687
 4871SOL     OW17054   0.928   0.297   3.427 -0.7386 -0.1935 -0.1917
 4871SOL    HW117055   0.970   0.251   3.355 -1.9742  0.3477 -1.2859
 4871SOL    HW217056   0.938   0.390   3.406  1.3067  0.1394  1.7538
 4872SOL     OW17057   9.919  10.334   7.369 -0.3401  0.4166 -0.7105
 4872SOL    HW117058   9.961  10.335   7.455 -1.7749  0.2470  0.0285
 4872SOL    HW217059   9.959  10.407   7.322  2.4464 -1.1131 -0.9451
 4873SOL     OW17060   5.879   7.489   5.845  0.2924  0.2584  0.5818
 4873SOL    HW117061   5.963   7.493   5.890  0.9126  0.2711 -0.5451
 4873SOL    HW217062   5.882   7.406   5.796  1.2490  1.9045 -2.4219
 4874SOL     OW17063   3.723   8.402   6.364 -0.4521  0.2199 -0.9713
 4874SOL    HW117064   3.669   8.324   6.374 -1.4255  0.8389 -1.2561
 4874SOL    HW217065   3.756   8.421   6.451 -0.7640 -0.1157 -0.7808
 4875SOL     OW17066   6.687   6.945   0.259  0.5733  0.3955  0.2732
 4875SOL    HW117067   6.614   6.884   0.269  1.0342 -0.4070 -1.1102
 4875SOL    HW217068   6.762   6.900   0.299  0.4154  1.1040  1.4421
 4876SOL     OW17069   1.351   9.137   5.199 -0.3948  0.8117 -0.5019
 4876SOL    HW117070   1.269   9.103   5.163 -1.2859  1.0314  1.2381
 4876SOL    HW217071   1.416   9.071   5.176 -1.4578 -0.3907 -0.1541
 4877SOL     OW17072   6.544   8.190   9.902  0.0877  0.1739 -0.6023
 4877SOL    HW117073   6.620   8.144   9.937  0.4746  1.0338 -0.3190
 4877SOL    HW217074   6.560   8.195   9.807 -0.9678 -2.1616 -0.9882
 4878SOL     OW17075   7.797   9.944   4.991  0.3754 -0.1746  0.6307
 4878SOL    HW117076   7.888   9.919   5.002  0.8422  1.6556  1.2942
 4878SOL    HW217077   7.755   9.920   5.074  0.4537 -0.1703  0.6709
 4879SOL     OW17078   8.566   6.075   4.253  0.5491 -0.1893 -0.7038
 4879SOL    HW117079   8.550   6.062   4.346 -0.5946 -0.2712 -0.9052
 4879SOL    HW217080   8.590   6.168   4.246  1.3968 -0.3632 -0.2383
 4880SOL     OW17081   7.517   5.874  10.425  0.4638 -0.4993  0.1317
 4880SOL    HW117082   7.552   5.902  10.340 -0.1142  1.6671  0.5264
 4880SOL    HW217083   7.575   5.803  10.453  1.4135 -0.4215 -1.5107
 4881SOL     OW17084   6.506   3.612   6.737 -0.1411 -0.0182 -0.1447
 4881SOL    HW117085   6.489   3.596   6.644  2.4711 -1.5891 -0.4589
 4881SOL    HW217086   6.601   3.602   6.746 -0.3207  0.0422  2.7057
 4882SOL     OW17087   3.431   6.539   4.565  0.6304  0.3937 -0.5995
 4882SOL    HW117088   3.379   6.593   4.505 -0.0289  0.5347  0.0806
 4882SOL    HW217089   3.423   6.450   4.531 -0.8610  0.2618  0.0206
 4883SOL     OW17090   2.014  10.272   5.692  0.9280  0.0202 -0.2234
 4883SOL    HW117091   1.997  10.240   5.603  1.0823 -1.6486  0.3141
 4883SOL    HW217092   2.040  10.194   5.741 -1.1559  0.4803  1.8031
 4884SOL     OW17093   6.265   1.893   6.748  0.0242 -0.2107 -0.0117
 4884SOL    HW117094   6.183   1.939   6.769 -0.1494  0.1947 -1.4595
 4884SOL    HW217095   6.265   1.887   6.653  1.4253 -0.7087  0.0002
 4885SOL     OW17096   8.221   2.535   5.513  0.3411 -0.1369 -0.1596
 4885SOL    HW117097   8.204   2.629   5.506 -2.0431 -0.3760  1.5287
 4885SOL    HW217098   8.240   2.521   5.606 -0.4847 -1.4723 -0.1759
 4886SOL     OW17099   9.139   3.465   1.546 -0.6998 -0.2549  0.4045
 4886SOL    HW117100   9.134   3.459   1.450  0.6907 -0.2961  0.3162
 4886SOL    HW217101   9.112   3.378   1.577  0.0006 -0.6221 -0.0040
 4887SOL     OW17102   2.617   4.771   2.200 -0.1486 -0.0873  0.3722
 4887SOL    HW117103   2.686   4.801   2.260  0.0187  0.8285 -0.2566
 4887SOL    HW217104   2.536   4.782   2.250  0.0013  0.5371  0.4917
 4888SOL     OW17105   3.952   3.165   7.695  0.3696  0.1311 -0.5736
 4888SOL    HW117106   4.026   3.194   7.641  0.7909 -0.2846 -0.2326
 4888SOL    HW217107   3.946   3.071   7.680  0.2585  0.0717 -0.1787
 4889SOL     OW17108   7.246   3.743   0.941  0.2259  0.3725 -0.1308
 4889SOL    HW117109   7.181   3.773   1.004 -0.7296 -0.2960 -0.7790
 4889SOL    HW217110   7.205   3.668   0.897  1.3966 -0.0155 -0.6059
 4890SOL     OW17111   8.177   6.250   1.590 -0.3628 -0.2278 -0.1770
 4890SOL    HW117112   8.103   6.234   1.530 -0.9155 -0.1068  0.4648
 4890SOL    HW217113   8.227   6.169   1.586 -1.1470 -0.7501  0.2379
 4891SOL     OW17114   6.149   0.805   4.117 -0.0500  0.6243  0.4495
 4891SOL    HW117115   6.235   0.846   4.106  0.2343 -0.1237 -0.2824
 4891SOL    HW217116   6.135   0.801   4.211  1.9855 -1.7429  0.7630
 4892SOL     OW17117   3.080   5.982   7.439  0.4626  0.0040 -0.5775
 4892SOL    HW117118   3.133   6.061   7.431  2.1222 -0.7312  1.8173
 4892SOL    HW217119   3.054   5.980   7.531 -0.1861 -1.8275 -0.7597
 4893SOL     OW17120   2.738   0.633   7.867  0.3536  0.0161  0.6244
 4893SOL    HW117121   2.702   0.716   7.837 -1.0527 -0.9667 -0.6051
 4893SOL    HW217122   2.787   0.599   7.792  0.9494 -0.2486  1.1236
 4894SOL     OW17123   3.488   4.259   3.167 -0.9585  0.4717  0.0265
 4894SOL    HW117124   3.505   4.352   3.181 -0.1799  0.3715 -0.2040
 4894SOL    HW217125   3.512   4.244   3.076 -2.0119  0.2459 -0.2204
 4895SOL     OW17126   0.587   5.046   9.156  0.5755  0.2606 -0.2379
 4895SOL    HW117127   0.578   5.106   9.082  0.5625  0.0467 -0.4085
 4895SOL    HW217128   0.547   5.092   9.229  1.5800  0.9506 -0.0984
 4896SOL     OW17129   9.142  10.153   1.898  0.1656 -0.1879  0.5070
 4896SOL    HW117130   9.080  10.085   1.925 -0.9066  0.9355  0.9773
 4896SOL    HW217131   9.228  10.113   1.909 -0.4591 -1.8304 -0.2779
 4897SOL     OW17132   6.150   1.704   1.225  0.2002 -0.2933 -0.1474
 4897SOL    HW117133   6.113   1.694   1.313 -0.1244 -0.4710 -0.3021
 4897SOL    HW217134   6.188   1.792   1.224 -0.2528 -0.0953  0.0031
 4898SOL     OW17135   0.640   4.697   4.914 -0.1642  0.3427 -0.3833
 4898SOL    HW117136   0.727   4.691   4.953  0.2429 -1.4731 -1.4331
 4898SOL    HW217137   0.609   4.606   4.909 -1.8610  0.8821 -0.6207
 4899SOL     OW17138   0.526   6.835   2.286 -0.3339 -0.0144 -0.3037
 4899SOL    HW117139   0.618   6.857   2.278 -0.6127  1.1157 -0.5032
 4899SOL    HW217140   0.525   6.741   2.306  0.8872  0.1956  0.8329
 4900SOL     OW17141   0.761   1.141   5.476  0.3088 -0.1211  0.2129
 4900SOL    HW117142   0.698   1.130   5.547  0.3250  1.8882  0.5908
 4900SOL    HW217143   0.708   1.164   5.400  0.2250 -2.9292 -0.6850
 4901SOL     OW17144   6.396   5.544   0.143 -0.2552 -0.7610 -0.3604
 4901SOL    HW117145   6.393   5.585   0.230 -1.7959 -0.6506 -0.4501
 4901SOL    HW217146   6.362   5.456   0.157 -1.5660 -0.3846 -1.0219
 4902SOL     OW17147   6.085   3.996   1.044  0.0282 -0.1280 -0.3507
 4902SOL    HW117148   6.060   3.921   0.990  2.6056 -1.5381  0.2602
 4902SOL    HW217149   6.110   4.064   0.980  0.4856 -0.8429 -0.9508
 4903SOL     OW17150   7.659   8.580   2.249  0.0596  0.4237  0.3098
 4903SOL    HW117151   7.573   8.573   2.207  0.3593  2.5129 -0.7573
 4903SOL    HW217152   7.703   8.498   2.226 -1.2314 -0.1860 -0.0953
 4904SOL     OW17153   9.582   0.978   4.995 -0.0395  0.2449  0.4456
 4904SOL    HW117154   9.567   1.049   4.933 -2.2886  0.2687  0.9303
 4904SOL    HW217155   9.652   1.010   5.053 -1.1512  2.1842  0.7870
 4905SOL     OW17156  10.488   9.213   5.958  0.0372 -0.0249  0.6359
 4905SOL    HW117157  10.466   9.306   5.951 -0.0509 -0.0316  0.8147
 4905SOL    HW217158  10.541   9.207   6.037  1.2149  0.0901 -0.1294
 4906SOL     OW17159   5.852   0.775   2.744  0.0513 -0.4006 -0.3138
 4906SOL    HW117160   5.826   0.866   2.732  1.0638  0.0825  0.9293
 4906SOL    HW217161   5.770   0.727   2.753 -0.4737  0.6521  0.6718
 4907SOL     OW17162   7.884   3.129   4.300  0.4449  0.2019  0.5096
 4907SOL    HW117163   7.917   3.099   4.385  2.6315 -0.4588 -0.5080
 4907SOL    HW217164   7.940   3.203   4.278 -0.1292  0.3885 -0.3671
 4908SOL     OW17165   4.557   6.320   6.331  0.7414  0.3808 -0.0653
 4908SOL    HW117166   4.522   6.240   6.370 -1.4071  0.4326 -1.6799
 4908SOL    HW217167   4.534   6.390   6.393  1.2679 -0.0457  0.6214
 4909SOL     OW17168   1.863   3.044   0.403  0.0161 -0.3439 -0.1187
 4909SOL    HW117169   1.941   2.999   0.436  0.2323 -0.9204 -1.3880
 4909SOL    HW217170   1.898   3.118   0.353 -0.2887 -0.1101  0.0102
 4910SOL     OW17171   1.675   6.612  10.132 -0.4585  0.0571  0.0868
 4910SOL    HW117172   1.681   6.523  10.097 -0.3720  0.2401 -0.3690
 4910SOL    HW217173   1.601   6.651  10.086 -0.4440  0.2500  0.2262
 4911SOL     OW17174   3.570   3.215  10.000 -0.3146  0.4159  0.3496
 4911SOL    HW117175   3.660   3.190  10.020 -0.0799  1.6971  0.9653
 4911SOL    HW217176   3.577   3.302   9.961 -1.2361  0.2360 -0.2447
 4912SOL     OW17177   7.166   1.615   5.068 -0.4730  0.2245 -0.2305
 4912SOL    HW117178   7.106   1.628   5.142 -0.8796 -2.4897 -0.0131
 4912SOL    HW217179   7.248   1.655   5.097 -1.6297  2.5153  0.1357
 4913SOL     OW17180  10.064   9.607   8.220  0.9048  0.3456  0.2694
 4913SOL    HW117181  10.129   9.677   8.227  0.6049  0.5929  0.6213
 4913SOL    HW217182   9.985   9.644   8.259  1.5315 -1.1784  3.2871
 4914SOL     OW17183   2.169   2.291   6.143  0.0340 -0.0697 -0.2780
 4914SOL    HW117184   2.173   2.386   6.151 -0.8961 -0.1028  0.8167
 4914SOL    HW217185   2.130   2.262   6.225 -1.1189 -1.2769 -1.2098
 4915SOL     OW17186   4.203   6.059   0.362  0.3824 -0.4574  0.6566
 4915SOL    HW117187   4.118   6.098   0.341  1.6337  1.5398 -1.0169
 4915SOL    HW217188   4.211   5.985   0.302  0.7484  0.7385 -0.8314
 4916SOL     OW17189   8.553   1.354   1.848  0.0597  0.2336 -0.5387
 4916SOL    HW117190   8.597   1.438   1.833  2.8318 -0.7324  1.4178
 4916SOL    HW217191   8.616   1.288   1.821 -0.6663 -1.2508  1.1911
 4917SOL     OW17192  10.040   5.448  10.404 -0.0954 -0.3055  0.1499
 4917SOL    HW117193  10.101   5.500  10.457 -1.6081  1.7262  0.0198
 4917SOL    HW217194   9.972   5.422  10.466  1.0989 -3.1302  0.4454
 4918SOL     OW17195   4.609   3.590   9.283  0.1629 -0.2351 -0.2274
 4918SOL    HW117196   4.593   3.517   9.223 -0.5872  0.4412 -0.8771
 4918SOL    HW217197   4.593   3.668   9.230 -2.5628  0.3901  1.3296
 4919SOL     OW17198   3.918   4.427   3.422  0.3010 -0.7274  0.2321
 4919SOL    HW117199   3.938   4.518   3.446 -0.0001 -0.8983  1.1857
 4919SOL    HW217200   4.003   4.384   3.418  0.3413 -0.8303  1.6452
 4920SOL     OW17201   3.397   6.299   4.444 -0.4804  0.6861  0.3425
 4920SOL    HW117202   3.416   6.206   4.433  0.6740  0.9903 -0.4131
 4920SOL    HW217203   3.338   6.320   4.371  1.5109  1.1394 -1.1994
 4921SOL     OW17204   6.991   6.227   2.557 -0.2178 -0.2730 -0.2070
 4921SOL    HW117205   7.030   6.173   2.626  0.7068 -2.0661 -2.0186
 4921SOL    HW217206   7.066   6.267   2.513 -0.8824  2.8375  1.2135
 4922SOL     OW17207   2.388   1.975   3.984 -0.0466 -0.3534 -0.1928
 4922SOL    HW117208   2.448   2.012   4.049  0.7582 -1.5866 -0.2089
 4922SOL    HW217209   2.401   1.881   3.990 -1.3407 -0.5963 -0.8390
 4923SOL     OW17210   2.408   0.891   2.531 -0.1498  0.5564 -0.3432
 4923SOL    HW117211   2.365   0.943   2.599  2.3558  0.0638  1.7928
 4923SOL    HW217212   2.431   0.955   2.463 -1.9885  1.2036 -0.3967
 4924SOL     OW17213   1.491   6.794   4.193 -0.4207 -0.0966  0.9766
 4924SOL    HW117214   1.425   6.863   4.188  0.1893  0.3989 -1.8047
 4924SOL    HW217215   1.535   6.809   4.277 -1.7701  1.5024  1.4473
 4925SOL     OW17216   7.041   1.892   0.560  0.1429  0.1377  0.1350
 4925SOL    HW117217   7.134   1.917   0.560  0.6896 -1.6894 -0.3152
 4925SOL    HW217218   7.026   1.856   0.473 -0.5737 -0.9419  0.6757
 4926SOL     OW17219   7.029  10.370   8.455 -0.0336  0.2939 -0.3241
 4926SOL    HW117220   7.108  10.324   8.481  0.2720  0.2618 -1.2759
 4926SOL    HW217221   7.060  10.452   8.417 -0.5016  0.6527  0.0577
 4927SOL     OW17222   2.091   5.756   6.391 -0.4906  0.6370  0.1019
 4927SOL    HW117223   2.151   5.830   6.378 -1.3649  1.3289 -0.1274
 4927SOL    HW217224   2.041   5.752   6.309 -0.6688 -0.0088  0.2411
 4928SOL     OW17225   2.972   3.892   2.601 -0.6790  0.0465 -0.4717
 4928SOL    HW117226   2.968   3.936   2.516  1.2100  1.3238  0.0414
 4928SOL    HW217227   2.937   3.956   2.662 -0.2436 -0.1323 -0.0333
 4929SOL     OW17228   5.227   6.037   6.850 -0.2493  0.1101  0.1184
 4929SOL    HW117229   5.224   5.967   6.916 -0.0471  2.0440  2.3118
 4929SOL    HW217230   5.286   6.003   6.783  2.3719 -0.7029  2.5905
 4930SOL     OW17231   0.843   1.150   0.186 -0.2703 -0.5431 -0.5434
 4930SOL    HW117232   0.854   1.065   0.228  0.5219 -0.0554  0.2893
 4930SOL    HW217233   0.802   1.205   0.253  2.0692  0.5734  0.0896
 4931SOL     OW17234   9.974   9.169   4.806  0.6719 -0.1758 -0.2718
 4931SOL    HW117235  10.004   9.161   4.897 -0.9246  0.3006  0.3325
 4931SOL    HW217236   9.883   9.197   4.814  0.3874 -0.5308 -2.0324
 4932SOL     OW17237   4.397   9.458   1.767  0.5873  0.1795  0.6656
 4932SOL    HW117238   4.390   9.549   1.796  5.0623  0.1636  2.5948
 4932SOL    HW217239   4.339   9.409   1.825 -1.6066  1.6189 -0.1673
 4933SOL     OW17240   6.719   7.166   3.512  0.2186 -0.2447  0.1355
 4933SOL    HW117241   6.780   7.238   3.528  1.4344 -1.4882  1.4060
 4933SOL    HW217242   6.751   7.124   3.432 -0.2787  0.3927 -0.4054
 4934SOL     OW17243   7.825   8.310   9.415 -0.0643  0.1652 -0.4802
 4934SOL    HW117244   7.882   8.363   9.470 -0.1214 -0.4648  0.2023
 4934SOL    HW217245   7.778   8.253   9.477  0.1735 -0.8510 -1.2136
 4935SOL     OW17246   9.115   1.782   1.153  0.0864  0.6765  0.8673
 4935SOL    HW117247   9.188   1.785   1.092  1.2235  0.6245  2.1861
 4935SOL    HW217248   9.113   1.870   1.192 -0.9466  0.8695  0.4230
 4936SOL     OW17249   9.580   9.799   3.867 -0.2503 -0.1845  0.3495
 4936SOL    HW117250   9.602   9.892   3.862  0.1455 -0.3089 -0.5898
 4936SOL    HW217251   9.485   9.796   3.853 -0.3481  0.1122  0.9252
 4937SOL     OW17252   3.476   4.929   6.691 -0.0017  0.0401  0.7388
 4937SOL    HW117253   3.465   5.008   6.743 -1.3208 -0.8266  1.8588
 4937SOL    HW217254   3.396   4.923   6.639 -0.6428 -1.3306  1.8092
 4938SOL     OW17255  10.443   9.310   4.370 -0.7266  0.0177 -0.5833
 4938SOL    HW117256  10.364   9.274   4.410 -1.5177  1.7721 -0.5021
 4938SOL    HW217257  10.507   9.312   4.441 -1.6100  1.5388  0.2231
 4939SOL     OW17258   9.387   8.574   2.424  0.0335  0.1458 -0.3421
 4939SOL    HW117259   9.452   8.504   2.422 -0.7599 -0.7904  2.3099
 4939SOL    HW217260   9.432   8.647   2.466  0.0415  0.2888 -0.5974
 4940SOL     OW17261   8.985   3.405   7.750  0.0210  0.1073 -0.2810
 4940SOL    HW117262   8.927   3.481   7.760 -1.0658 -0.6954 -0.3267
 4940SOL    HW217263   9.011   3.382   7.839 -0.2860  0.0583 -0.2024
 4941SOL     OW17264   1.389  10.064   5.530  0.5912  0.2071  0.9052
 4941SOL    HW117265   1.480  10.037   5.514  0.3226  0.0070 -0.3916
 4941SOL    HW217266   1.350  10.067   5.443 -0.0779  2.3944  1.2296
 4942SOL     OW17267   1.417   3.261   9.027  0.4762 -0.2352  0.2205
 4942SOL    HW117268   1.342   3.313   9.056  0.1021 -1.5180  1.7191
 4942SOL    HW217269   1.380   3.197   8.966  0.5951 -0.0739 -0.0275
 4943SOL     OW17270   5.282   7.284   5.303 -0.3256 -0.4958 -0.0158
 4943SOL    HW117271   5.261   7.232   5.380 -1.2460  0.1970  0.2246
 4943SOL    HW217272   5.204   7.276   5.247  0.3053 -0.9496 -0.8553
 4944SOL     OW17273   1.447   6.699   6.126  0.3221  0.0061 -0.3198
 4944SOL    HW117274   1.445   6.795   6.133  0.7510  0.1624 -1.8706
 4944SOL    HW217275   1.530   6.674   6.167  0.7983  0.4393 -0.9864
 4945SOL     OW17276   3.754   7.860   6.107 -0.9118 -0.3343 -0.0588
 4945SOL    HW117277   3.845   7.845   6.082 -0.5007 -0.1617  1.2620
 4945SOL    HW217278   3.703   7.805   6.048  0.1847 -2.2202  0.6707
 4946SOL     OW17279   4.595   1.772   6.028 -0.3688 -0.7402  0.5357
 4946SOL    HW117280   4.575   1.680   6.040 -1.2588 -1.1645 -3.1134
 4946SOL    HW217281   4.662   1.774   5.960 -1.2103  1.3045 -0.3249
 4947SOL     OW17282   8.108   4.209   8.133  0.4435  0.2717 -0.3612
 4947SOL    HW117283   8.151   4.167   8.207 -0.6504  0.5852  0.4922
 4947SOL    HW217284   8.072   4.290   8.170 -1.8430 -0.5042 -0.7050
 4948SOL     OW17285   1.380   3.297   2.582 -0.5746 -0.3091 -0.1059
 4948SOL    HW117286   1.298   3.307   2.534 -0.3680 -0.0746 -0.4115
 4948SOL    HW217287   1.376   3.208   2.618 -1.2426 -0.0761  0.4103
 4949SOL     OW17288   4.439   5.328   3.378 -0.4789 -0.5047  0.4028
 4949SOL    HW117289   4.440   5.232   3.386 -1.7154 -0.6295 -0.5781
 4949SOL    HW217290   4.372   5.345   3.311  0.5356  0.9952 -0.2643
 4950SOL     OW17291   3.482   7.352   0.079  0.1258  0.0422  0.2670
 4950SOL    HW117292   3.412   7.352   0.143 -1.0022  0.3994 -0.9206
 4950SOL    HW217293   3.562   7.363   0.130 -0.7310  0.1972  1.6043
 4951SOL     OW17294   6.836   8.719  10.010 -0.6894  0.5152 -0.2934
 4951SOL    HW117295   6.802   8.680  10.090  1.0526 -0.4857  0.0074
 4951SOL    HW217296   6.920   8.757  10.035  0.6461 -1.1595 -1.8887
 4952SOL     OW17297   7.266   9.862   2.038  0.2483  0.3576 -0.0214
 4952SOL    HW117298   7.256   9.791   2.102 -2.8630  1.3551  0.8139
 4952SOL    HW217299   7.332   9.919   2.076  1.5823 -1.2059  0.1202
 4953SOL     OW17300   6.000   2.066   8.380  0.2493 -0.2859  0.4010
 4953SOL    HW117301   6.014   2.160   8.372  2.2007 -0.5531  0.0559
 4953SOL    HW217302   5.946   2.043   8.305 -0.0593  0.5268  0.3684
 4954SOL     OW17303   7.989  10.412   1.623 -0.3240  0.2238 -0.2310
 4954SOL    HW117304   7.900  10.444   1.606 -0.7950 -0.6514  0.4722
 4954SOL    HW217305   7.979  10.317   1.631  1.1795 -0.3038 -3.2325
 4955SOL     OW17306   7.764   2.072   6.391  0.2893 -0.0627 -0.3002
 4955SOL    HW117307   7.769   1.984   6.356 -0.5603 -0.3721  0.3155
 4955SOL    HW217308   7.787   2.063   6.484 -3.3683 -0.3341  0.7503
 4956SOL     OW17309   2.881   3.974   5.320  0.7406  0.6047  0.0323
 4956SOL    HW117310   2.932   4.033   5.265  0.5349  1.0596  0.3320
 4956SOL    HW217311   2.946   3.921   5.366  0.9635  1.5199  0.7943
 4957SOL     OW17312   7.934   9.894   6.091 -0.1488 -0.0207  0.0908
 4957SOL    HW117313   7.932   9.815   6.144 -2.6294  0.7696  1.3184
 4957SOL    HW217314   7.921   9.966   6.153  1.5816  1.3662 -1.0422
 4958SOL     OW17315   4.985   3.823   7.435 -0.0279 -0.3579 -0.0315
 4958SOL    HW117316   4.987   3.783   7.348  1.8114 -0.9003  0.2092
 4958SOL    HW217317   5.037   3.764   7.490 -0.0916  0.6272  1.1357
 4959SOL     OW17318   0.283   2.576   1.874 -0.3350 -0.2148  0.0187
 4959SOL    HW117319   0.325   2.651   1.832 -0.6679  0.1017  0.2576
 4959SOL    HW217320   0.242   2.611   1.953 -3.5805  0.0774 -1.6537
 4960SOL     OW17321  10.386   8.177   4.447  0.1412 -0.2096  0.0798
 4960SOL    HW117322  10.350   8.178   4.536 -0.0893 -1.9896  0.0371
 4960SOL    HW217323  10.310   8.193   4.390  0.0533 -0.3978  0.1442
 4961SOL     OW17324   2.190   3.917   2.892 -0.1315  0.0247  0.2818
 4961SOL    HW117325   2.218   3.996   2.846 -1.2686 -0.0364 -0.5556
 4961SOL    HW217326   2.115   3.885   2.842  0.4614 -1.7465  0.4437
 4962SOL     OW17327   6.462   6.980   3.417 -0.1667 -0.1764 -0.4284
 4962SOL    HW117328   6.475   7.067   3.456  2.1355 -1.4171  1.9254
 4962SOL    HW217329   6.387   6.944   3.464  0.0256 -0.1142 -0.0626
 4963SOL     OW17330   2.904   4.708   6.457  0.3408 -0.4043 -0.2345
 4963SOL    HW117331   2.882   4.739   6.370  0.6026 -0.5038 -0.3373
 4963SOL    HW217332   2.920   4.788   6.508 -0.7664 -0.3070 -0.0140
 4964SOL     OW17333   0.390  10.352  10.364  0.0946 -0.0124 -0.0514
 4964SOL    HW117334   0.351  10.341  10.451  0.3812  0.6838  0.1736
 4964SOL    HW217335   0.318  10.334  10.303 -0.4821  0.8688  0.3545
 4965SOL     OW17336   7.254   6.331   3.276 -0.2792  0.5883  0.5808
 4965SOL    HW117337   7.267   6.413   3.228 -0.3128 -0.0439 -0.5624
 4965SOL    HW217338   7.336   6.283   3.263 -0.4041  0.2799  0.9192
 4966SOL     OW17339   8.074   3.538   5.681 -0.1205 -0.0861  0.0385
 4966SOL    HW117340   8.135   3.598   5.638 -1.2433  0.5989 -0.6670
 4966SOL    HW217341   8.066   3.464   5.621 -2.5452  1.3755 -1.5938
 4967SOL     OW17342   8.909   3.988   7.177 -0.0523  0.7942 -0.6237
 4967SOL    HW117343   8.908   3.893   7.193  2.3479  0.6539 -0.9523
 4967SOL    HW217344   8.949   4.025   7.255  1.4370  1.2321 -1.5527
 4968SOL     OW17345   5.705   5.448   3.965 -0.9415  0.4383 -0.8089
 4968SOL    HW117346   5.704   5.527   3.911 -2.5443  0.6221 -0.5604
 4968SOL    HW217347   5.648   5.469   4.039  1.7382  0.4729  1.4153
 4969SOL     OW17348   7.393   3.277   3.028 -0.1421 -0.3201 -0.4387
 4969SOL    HW117349   7.355   3.215   2.965  0.1257  0.0711 -0.9988
 4969SOL    HW217350   7.474   3.306   2.986  0.3820 -0.5514  0.3927
 4970SOL     OW17351   7.777   8.163   8.270  0.2842 -0.3182  0.2362
 4970SOL    HW117352   7.713   8.135   8.204 -1.8074 -1.7707  2.7047
 4970SOL    HW217353   7.861   8.133   8.235 -0.4459  0.4869 -2.5092
 4971SOL     OW17354   3.608   4.680   3.920 -0.0244 -0.1498 -0.5308
 4971SOL    HW117355   3.637   4.589   3.925  0.8031  0.1344 -0.0684
 4971SOL    HW217356   3.688   4.732   3.930 -0.4573  0.6321 -0.9846
 4972SOL     OW17357   9.699   2.055   8.959  0.1711 -0.4050  0.2342
 4972SOL    HW117358   9.673   1.968   8.930  0.6580  0.2744 -2.5598
 4972SOL    HW217359   9.795   2.054   8.956  0.1702  0.5993 -1.2618
 4973SOL     OW17360   6.710   3.485   7.542 -0.1690  0.1079 -0.0698
 4973SOL    HW117361   6.627   3.455   7.505 -0.7328 -0.5895  1.6737
 4973SOL    HW217362   6.773   3.478   7.470 -1.0842 -1.7505 -0.7376
 4974SOL     OW17363   6.654   2.106   0.032 -0.2658 -0.5284  0.0017
 4974SOL    HW117364   6.670   2.182   0.087 -1.7475 -0.1141 -0.1105
 4974SOL    HW217365   6.722   2.043   0.058  1.0837  0.8520 -0.0100
 4975SOL     OW17366   5.258   0.406   6.478  0.0060  0.6072 -0.1347
 4975SOL    HW117367   5.295   0.340   6.536 -1.7953  0.1172  0.5094
 4975SOL    HW217368   5.222   0.356   6.404 -1.5221  0.7888  0.4394
 4976SOL     OW17369   6.696   9.749   8.673  0.4666 -0.1708 -0.7060
 4976SOL    HW117370   6.604   9.737   8.651 -0.1009  3.4450 -0.9587
 4976SOL    HW217371   6.741   9.741   8.589  0.5766 -2.7681 -0.4614
 4977SOL     OW17372   9.924   3.645  10.307 -0.1236  0.0245  0.1561
 4977SOL    HW117373   9.932   3.704  10.382  0.3794 -0.6419  0.6330
 4977SOL    HW217374  10.008   3.653  10.262 -0.7352  1.0910 -0.8566
 4978SOL     OW17375   6.615   8.199   5.752 -0.6558  0.1338 -0.2974
 4978SOL    HW117376   6.664   8.158   5.682  1.8297  0.4461  1.1451
 4978SOL    HW217377   6.640   8.292   5.748 -2.6500  0.7001 -0.6910
 4979SOL     OW17378   9.772   3.777   6.901 -0.0722 -0.1716 -0.2165
 4979SOL    HW117379   9.834   3.739   6.838  0.4232 -0.2963  0.3269
 4979SOL    HW217380   9.763   3.868   6.874  2.2090  0.5298  1.0163
 4980SOL     OW17381   6.685   7.983   3.060 -0.6759  0.2077  0.1610
 4980SOL    HW117382   6.777   7.972   3.082 -0.8003 -0.7612  0.2377
 4980SOL    HW217383   6.639   7.919   3.114 -1.4335  0.8841  0.3496
 4981SOL     OW17384   1.884   5.422   8.145 -0.4287  0.0225  0.0475
 4981SOL    HW117385   1.902   5.421   8.051 -1.1790  0.0353 -0.1038
 4981SOL    HW217386   1.923   5.342   8.178 -0.3014 -0.0649 -0.3078
 4982SOL     OW17387   8.913   6.234   5.750 -0.9230 -0.2535 -0.3040
 4982SOL    HW117388   8.962   6.187   5.818 -0.2314  0.5413 -0.2463
 4982SOL    HW217389   8.867   6.303   5.798 -1.3145 -0.3705 -0.5036
 4983SOL     OW17390   1.552  10.204   4.765 -0.1186  0.5912 -0.0999
 4983SOL    HW117391   1.543  10.215   4.671  1.2652  1.8507 -0.1134
 4983SOL    HW217392   1.592  10.118   4.775 -0.7500  0.2265 -0.6180
 4984SOL     OW17393   9.799   4.952   5.258  0.3391 -0.5411 -0.6444
 4984SOL    HW117394   9.836   5.038   5.276  0.2337 -1.3242  5.5264
 4984SOL    HW217395   9.711   4.969   5.225  0.0598  1.8760  1.0907
 4985SOL     OW17396   1.760   8.424   8.202 -0.2861 -0.0771  0.3568
 4985SOL    HW117397   1.677   8.429   8.250 -0.7012 -0.4209 -0.3105
 4985SOL    HW217398   1.775   8.514   8.172  0.7978  0.4988  2.4444
 4986SOL     OW17399   0.382   5.676   2.458  0.1198 -0.2672 -0.1252
 4986SOL    HW117400   0.473   5.702   2.447  0.1591 -0.5140 -0.3808
 4986SOL    HW217401   0.350   5.732   2.528 -0.3957  1.9574 -2.0364
 4987SOL     OW17402   4.548   6.708   1.637  0.5741  0.3631  0.2839
 4987SOL    HW117403   4.465   6.755   1.645  0.4445 -0.1116  2.1790
 4987SOL    HW217404   4.610   6.774   1.606  0.1503  1.5565  1.8139
 4988SOL     OW17405   0.165   2.888   8.148  0.5866  0.3528 -0.0363
 4988SOL    HW117406   0.149   2.954   8.215 -0.5850  1.1740 -1.0827
 4988SOL    HW217407   0.120   2.921   8.070  1.3845 -0.8732 -1.0612
 4989SOL     OW17408   4.304   4.762   5.623 -0.0546  0.2645 -0.1223
 4989SOL    HW117409   4.265   4.800   5.544  0.0782 -1.2374 -0.9560
 4989SOL    HW217410   4.395   4.790   5.621  0.4254 -1.2359 -1.5397
 4990SOL     OW17411   6.851   0.586   8.680 -0.1589  0.1584  0.0962
 4990SOL    HW117412   6.920   0.641   8.642 -1.2284  0.6355 -1.2225
 4990SOL    HW217413   6.897   0.532   8.744  1.4554  0.4390 -0.7599
 4991SOL     OW17414   9.668   8.259   3.410  0.3240 -0.2654 -0.0014
 4991SOL    HW117415   9.583   8.225   3.437  1.0023 -1.0503  1.2390
 4991SOL    HW217416   9.648   8.323   3.342 -1.3427  0.2974  0.9702
 4992SOL     OW17417   1.595   6.380   0.535  0.2883  0.0758  0.1996
 4992SOL    HW117418   1.672   6.371   0.591  0.5271  1.6391  0.1794
 4992SOL    HW217419   1.555   6.293   0.535  0.7944 -0.2136  2.0446
 4993SOL     OW17420   8.537   7.421   2.074 -0.1110  0.1837  0.0738
 4993SOL    HW117421   8.445   7.411   2.052 -0.3758  1.5885  0.4560
 4993SOL    HW217422   8.547   7.373   2.156 -0.1915 -1.0487 -0.6136
 4994SOL     OW17423   4.413   4.969   7.800 -0.4489 -0.2353  0.6913
 4994SOL    HW117424   4.457   4.992   7.718 -1.1357 -2.3086 -0.3357
 4994SOL    HW217425   4.461   4.892   7.832 -1.5206 -0.7662  1.0724
 4995SOL     OW17426   4.468   5.690   4.330  0.3723 -0.2350 -0.3334
 4995SOL    HW117427   4.464   5.603   4.369 -1.5587 -1.4753 -2.9730
 4995SOL    HW217428   4.381   5.726   4.341  0.9140  1.0362 -0.0411
 4996SOL     OW17429   1.033   2.019   9.134  0.1061  0.0951 -0.2676
 4996SOL    HW117430   1.085   1.950   9.093 -0.0855  0.8014 -1.7606
 4996SOL    HW217431   1.092   2.059   9.197  1.2434  0.5830 -1.6094
 4997SOL     OW17432   7.431   8.443   1.885  0.4917  0.5565 -0.6963
 4997SOL    HW117433   7.396   8.477   1.967  0.0563  0.1771 -0.7208
 4997SOL    HW217434   7.525   8.459   1.890  0.5702 -0.1455  0.1984
 4998SOL     OW17435   4.524   3.491   2.448 -0.2543  0.2226 -0.2969
 4998SOL    HW117436   4.564   3.574   2.422 -1.8390  1.6977  1.5911
 4998SOL    HW217437   4.497   3.450   2.366 -1.1388  2.5186 -1.2466
 4999SOL     OW17438   1.053   8.753   5.452 -0.3525 -0.1808  1.0118
 4999SOL    HW117439   1.076   8.700   5.375 -0.8956  0.8367  0.1287
 4999SOL    HW217440   1.019   8.690   5.515 -1.4265 -0.8491 -0.1955
 5000SOL     OW17441   9.372   6.728  10.177  0.0082 -0.4582 -0.1607
 5000SOL    HW117442   9.287   6.744  10.134  0.2065  0.1884 -0.3236
 5000SOL    HW217443   9.349   6.681  10.257 -0.7721  1.8304  1.0492
 5001SOL     OW17444   6.495   3.888   6.262  1.0713 -0.2871 -0.0913
 5001SOL    HW117445   6.528   3.897   6.172  1.0641  1.9903  0.0698
 5001SOL    HW217446   6.400   3.876   6.251  0.9952  0.5144 -0.3952
 5002SOL     OW17447   1.491   9.604   8.748  0.3408 -0.3404 -0.4186
 5002SOL    HW117448   1.517   9.516   8.776 -1.3030 -0.4495  1.0225
 5002SOL    HW217449   1.400   9.593   8.720 -0.3941  1.1014  1.1917
 5003SOL     OW17450   5.259   0.627   5.931  0.2513  0.2234 -0.0575
 5003SOL    HW117451   5.323   0.556   5.921 -0.1035 -0.1031 -0.0627
 5003SOL    HW217452   5.182   0.584   5.968  0.5718  0.8918  1.4724
 5004SOL     OW17453   3.602   5.338   5.541  0.4307 -0.3065 -0.3938
 5004SOL    HW117454   3.689   5.370   5.520 -0.2121  1.7066 -0.2697
 5004SOL    HW217455   3.600   5.334   5.637  0.3562 -0.2024 -0.3899
 5005SOL     OW17456   3.193   5.565   0.291  0.0770  0.1392 -0.5270
 5005SOL    HW117457   3.144   5.625   0.348 -0.5945 -0.8681 -0.0118
 5005SOL    HW217458   3.271   5.542   0.341 -1.1808 -1.8454  0.6695
 5006SOL     OW17459   0.368   5.901   7.926 -1.0016  0.5336 -0.2579
 5006SOL    HW117460   0.356   5.837   7.997 -0.4757  0.4617 -0.2264
 5006SOL    HW217461   0.455   5.881   7.891 -0.2738  2.0482  0.5830
 5007SOL     OW17462   6.464   6.238   4.156 -0.0238  0.5641  0.1524
 5007SOL    HW117463   6.514   6.279   4.085  0.5703 -0.5751 -0.1063
 5007SOL    HW217464   6.418   6.165   4.113  1.3712 -0.9766  1.1316
 5008SOL     OW17465   8.373   0.129   7.821 -0.3497  0.3268 -0.1846
 5008SOL    HW117466   8.405   0.046   7.857 -2.4180 -0.4424 -0.0203
 5008SOL    HW217467   8.428   0.196   7.863  2.9858 -0.9998 -2.0806
 5009SOL     OW17468   2.011   1.867   1.000 -0.6783 -0.2264 -0.2614
 5009SOL    HW117469   2.027   1.961   1.006 -0.0704 -0.3879  0.9730
 5009SOL    HW217470   2.064   1.829   1.070 -1.7009 -1.3952 -0.0883
 5010SOL     OW17471   7.368   4.661   2.836 -0.0980  0.3516 -0.1026
 5010SOL    HW117472   7.360   4.737   2.893 -0.0996  1.0886 -1.0568
 5010SOL    HW217473   7.444   4.681   2.781  0.1187 -0.4993 -0.1200
 5011SOL     OW17474   0.365   3.000   4.518  0.5483 -0.3333  0.0847
 5011SOL    HW117475   0.395   3.090   4.512  0.2674 -0.2615 -0.3178
 5011SOL    HW217476   0.308   2.999   4.596 -1.0723  0.3343 -1.0370
 5012SOL     OW17477   8.883   8.097   1.344  0.4081 -0.2634  0.3339
 5012SOL    HW117478   8.956   8.155   1.368 -0.3636  1.3157 -0.9640
 5012SOL    HW217479   8.827   8.096   1.421  1.1140 -0.4074  0.8575
 5013SOL     OW17480   2.460   7.999   8.247  0.6089  0.0861 -0.0801
 5013SOL    HW117481   2.421   7.933   8.189 -3.0291  0.9287  1.1274
 5013SOL    HW217482   2.499   7.949   8.318  0.9291 -0.8297 -0.8831
 5014SOL     OW17483   6.486   5.679   4.732 -0.6064  0.1530 -0.2790
 5014SOL    HW117484   6.557   5.743   4.740  0.0523 -0.6658  0.7414
 5014SOL    HW217485   6.440   5.683   4.816 -1.4519  0.2925 -0.7367
 5015SOL     OW17486   6.475   5.556   1.370 -0.1771 -0.2126 -0.0782
 5015SOL    HW117487   6.532   5.621   1.329 -0.7504 -0.1350 -0.7763
 5015SOL    HW217488   6.387   5.583   1.346 -0.5310 -0.2116  1.1666
 5016SOL     OW17489   5.010   9.980   5.307 -0.0672 -0.0150 -0.0894
 5016SOL    HW117490   5.098   9.948   5.324  0.2275  0.4615 -0.6714
 5016SOL    HW217491   5.005   9.988   5.211 -2.0333 -3.7154 -0.5026
 5017SOL     OW17492   9.139  10.367   4.483 -0.6410 -0.5720  0.4758
 5017SOL    HW117493   9.082  10.349   4.557  1.2045  1.4579  2.5245
 5017SOL    HW217494   9.217  10.314   4.500  0.0090  0.3060  0.2836
 5018SOL     OW17495   7.518   1.941   7.039  0.1261 -0.1682  0.5655
 5018SOL    HW117496   7.592   1.985   7.081 -0.0866 -0.5423  1.3573
 5018SOL    HW217497   7.478   1.889   7.109 -0.6691 -0.2537  0.0653
 5019SOL     OW17498   0.364   5.500   7.599  0.6770 -0.6958  0.5318
 5019SOL    HW117499   0.318   5.440   7.540 -1.4844 -0.0914  1.4968
 5019SOL    HW217500   0.334   5.587   7.573  1.6393 -0.2438  0.9140
 5020SOL     OW17501   7.334   1.115  10.029  0.3955 -0.4583 -0.8644
 5020SOL    HW117502   7.403   1.159  10.078 -0.5816  0.7944 -0.5674
 5020SOL    HW217503   7.306   1.044  10.086 -0.7635  1.0116  0.4886
 5021SOL     OW17504   7.929  10.109   3.422  0.1331 -0.4603  0.4045
 5021SOL    HW117505   7.990  10.113   3.348 -0.9285  1.5298 -0.4409
 5021SOL    HW217506   7.932  10.017   3.451  4.0821 -0.3307  0.9445
 5022SOL     OW17507   7.616   2.281   6.469  0.3508 -0.7152 -0.3657
 5022SOL    HW117508   7.666   2.202   6.448  1.4395  0.1286 -1.0512
 5022SOL    HW217509   7.666   2.352   6.430 -0.5713  0.3322  0.3009
 5023SOL     OW17510   1.615   8.222   5.723  0.0105 -0.1636  0.1666
 5023SOL    HW117511   1.659   8.194   5.643  0.9472 -0.2116  0.6840
 5023SOL    HW217512   1.566   8.145   5.752 -2.0815  0.4462 -1.4636
 5024SOL     OW17513   2.785   3.502   0.850 -0.0778  0.7576  0.8492
 5024SOL    HW117514   2.790   3.546   0.935  0.1287  0.5998  0.9214
 5024SOL    HW217515   2.713   3.440   0.859 -1.0033  1.7347  0.4328
 5025SOL     OW17516   1.919   4.096   6.327 -0.0425 -0.5888 -0.0466
 5025SOL    HW117517   1.877   4.040   6.392 -1.9478  1.5490  0.6983
 5025SOL    HW217518   1.868   4.083   6.247 -0.7396  0.3184  0.2349
 5026SOL     OW17519   7.332   2.277   8.436 -0.4921 -0.0788 -0.6920
 5026SOL    HW117520   7.279   2.200   8.414 -0.4334  0.2491 -2.0327
 5026SOL    HW217521   7.352   2.317   8.352  2.3452 -0.4859 -0.2926
 5027SOL     OW17522   1.561   1.958   8.419 -0.2016 -0.0726  0.0774
 5027SOL    HW117523   1.546   1.901   8.343  0.0028 -0.6032  0.4241
 5027SOL    HW217524   1.561   2.047   8.383 -2.8764 -0.0768 -0.1593
 5028SOL     OW17525   0.357   4.261   7.590 -0.2658  0.3717 -0.3304
 5028SOL    HW117526   0.399   4.176   7.580  0.6002  0.5219  1.5864
 5028SOL    HW217527   0.423   4.324   7.559  0.9761  0.5893  2.4396
 5029SOL     OW17528   3.642   4.615   5.185 -0.0731 -0.6551 -0.9652
 5029SOL    HW117529   3.572   4.625   5.121  1.1946  3.1367 -1.9993
 5029SOL    HW217530   3.705   4.557   5.143  0.1698  0.7978 -2.7121
 5030SOL     OW17531   7.227   9.128   4.313 -0.1637 -0.0748  0.1441
 5030SOL    HW117532   7.296   9.063   4.328  2.1119  1.4568 -2.6073
 5030SOL    HW217533   7.234   9.188   4.387  1.8545  0.2864 -0.2810
 5031SOL     OW17534   7.218   1.262   3.209  1.2035 -0.0486  0.2315
 5031SOL    HW117535   7.220   1.167   3.199  0.6141  0.0898 -1.5236
 5031SOL    HW217536   7.310   1.289   3.200  1.2653 -0.3866 -0.1721
 5032SOL     OW17537   8.046   4.463   0.592 -0.1158  0.5046 -0.1162
 5032SOL    HW117538   8.038   4.546   0.638  2.7576  1.6036 -1.3886
 5032SOL    HW217539   8.092   4.406   0.653 -0.7746  0.2945  0.1975
 5033SOL     OW17540   0.884   5.691   1.774  0.7556 -0.2570  0.4253
 5033SOL    HW117541   0.818   5.629   1.743  1.5095 -0.8242 -0.1014
 5033SOL    HW217542   0.871   5.769   1.720  1.8152 -1.1069 -1.1371
 5034SOL     OW17543   9.792   0.537   8.968  0.4392 -0.5102  0.2258
 5034SOL    HW117544   9.812   0.578   8.884  1.2194  0.0500  0.6714
 5034SOL    HW217545   9.814   0.445   8.957  0.5100 -0.4436 -0.1859
 5035SOL     OW17546   6.355   0.450   1.096  0.1743 -0.1953 -0.0863
 5035SOL    HW117547   6.378   0.494   1.015 -0.1645  0.6891  0.2823
 5035SOL    HW217548   6.287   0.504   1.135  1.4071  0.2791  1.5543
 5036SOL     OW17549   4.179   1.925   7.130  0.1447  0.5853  0.2321
 5036SOL    HW117550   4.218   2.001   7.088 -1.1916  1.3944  0.3876
 5036SOL    HW217551   4.105   1.902   7.073  0.1830 -0.2287  0.5054
 5037SOL     OW17552   8.546   8.655   8.804 -1.0839 -0.2279 -0.0802
 5037SOL    HW117553   8.626   8.688   8.763 -0.6093 -1.2877 -0.0295
 5037SOL    HW217554   8.510   8.730   8.851 -0.5165  0.4518 -0.7124
 5038SOL     OW17555   7.781   8.740   9.428  0.1841 -0.0907  0.0575
 5038SOL    HW117556   7.835   8.773   9.500  1.2951 -0.2591 -0.6770
 5038SOL    HW217557   7.816   8.782   9.350 -0.3358 -0.6949 -0.5185
 5039SOL     OW17558   3.377   4.326   5.241 -0.4379 -0.5604 -0.3640
 5039SOL    HW117559   3.338   4.328   5.154  1.2592 -0.0701 -1.1582
 5039SOL    HW217560   3.359   4.238   5.273 -0.1425 -1.1376 -1.6921
 5040SOL     OW17561   4.908   6.770   8.763 -0.1321 -0.2532 -0.2859
 5040SOL    HW117562   4.817   6.770   8.732 -0.3827 -0.5502  0.4353
 5040SOL    HW217563   4.904   6.731   8.850  0.7157 -0.4242 -0.3150
 5041SOL     OW17564  10.059  10.346   1.613  0.4657  0.4219  0.2264
 5041SOL    HW117565  10.092  10.374   1.698  1.6130 -0.5328  0.1124
 5041SOL    HW217566  10.032  10.427   1.570  0.7315  1.0044  1.1337
 5042SOL     OW17567   4.583   2.631   9.949  0.1593  0.0386  0.0539
 5042SOL    HW117568   4.656   2.652   9.891  0.7677 -0.7797  0.5012
 5042SOL    HW217569   4.550   2.547   9.917 -0.1898  0.1004  0.2419
 5043SOL     OW17570   9.144   8.346   1.105  0.3147 -0.3873  0.6876
 5043SOL    HW117571   9.205   8.329   1.033 -0.8472 -0.2498 -0.3699
 5043SOL    HW217572   9.192   8.405   1.163  0.1096  2.5736 -1.8420
 5044SOL     OW17573   8.040   3.565   8.229  0.0099  0.4671 -0.3031
 5044SOL    HW117574   8.116   3.540   8.281 -0.1609 -0.8489 -0.6392
 5044SOL    HW217575   7.999   3.482   8.205 -0.9353  1.1133 -1.0203
 5045SOL     OW17576   2.758   7.542   0.109  0.4122  0.2392 -0.1626
 5045SOL    HW117577   2.736   7.454   0.080 -0.1565 -0.2127  1.5555
 5045SOL    HW217578   2.680   7.594   0.090  0.1734  0.0296  0.2558
 5046SOL     OW17579   9.383   2.754   4.021  0.5476  0.3972  0.2766
 5046SOL    HW117580   9.312   2.720   3.967  1.5044  2.9776 -2.9540
 5046SOL    HW217581   9.384   2.698   4.098 -2.2722 -2.3129 -1.4334
 5047SOL     OW17582   1.569   5.915   8.778 -0.3748 -0.0690  0.6291
 5047SOL    HW117583   1.621   5.980   8.731 -0.8845 -0.4128 -0.4643
 5047SOL    HW217584   1.626   5.883   8.848  0.1852  0.9166  0.6413
 5048SOL     OW17585   3.375   4.751   7.401  0.1548  0.1062 -0.1813
 5048SOL    HW117586   3.345   4.674   7.353  0.4257  0.8400 -1.5864
 5048SOL    HW217587   3.295   4.799   7.420 -0.0027 -0.4392  0.5878
 5049SOL     OW17588   6.418   8.166   5.454  0.1367 -0.0645 -0.0282
 5049SOL    HW117589   6.457   8.081   5.472  0.8741  0.2572 -0.0723
 5049SOL    HW217590   6.328   8.158   5.486  0.8144 -0.1596  2.0016
 5050SOL     OW17591   4.267   1.747   0.263 -0.9887  0.2719 -0.3679
 5050SOL    HW117592   4.228   1.820   0.216 -1.8559 -0.6893 -1.1989
 5050SOL    HW217593   4.341   1.721   0.209 -1.0814  0.1206 -0.4238
 5051SOL     OW17594   2.559   1.587   5.218  0.2745  0.6301 -0.6660
 5051SOL    HW117595   2.471   1.623   5.224  0.5060  1.3251 -1.2004
 5051SOL    HW217596   2.601   1.614   5.300 -0.4083 -0.8782  0.2091
 5052SOL     OW17597   6.908   5.281   5.299  0.5588  0.2039  0.1834
 5052SOL    HW117598   6.899   5.350   5.234  0.1847 -0.3615 -0.3769
 5052SOL    HW217599   7.000   5.284   5.325  0.9155 -0.1242 -1.0157
 5053SOL     OW17600   4.068   3.722   4.235  0.7272 -0.3369  0.2281
 5053SOL    HW117601   4.106   3.746   4.320 -1.7649 -0.6793  1.5170
 5053SOL    HW217602   4.090   3.629   4.225  0.6625 -0.4100  0.7207
 5054SOL     OW17603   8.474   5.993   4.512 -0.0287  0.0073 -0.2376
 5054SOL    HW117604   8.526   5.912   4.515 -0.2244 -0.1060  0.1433
 5054SOL    HW217605   8.439   6.002   4.601 -1.2265 -0.2868 -0.6638
 5055SOL     OW17606  10.018   5.925   3.020 -0.1267  0.2670  0.2086
 5055SOL    HW117607   9.941   5.871   3.001  0.4521 -0.5595  0.1821
 5055SOL    HW217608   9.998   6.008   2.977 -0.4226 -0.3857 -0.9800
 5056SOL     OW17609   7.677   8.295   9.791  0.9137  0.7161  0.6399
 5056SOL    HW117610   7.768   8.293   9.761  0.6988 -0.8014 -0.0211
 5056SOL    HW217611   7.681   8.270   9.883  1.0960 -0.8280  0.2551
 5057SOL     OW17612   4.977   9.977   9.023 -0.0147  0.0075 -0.3291
 5057SOL    HW117613   5.027   9.907   9.065 -1.3018 -0.6460  0.1925
 5057SOL    HW217614   4.991  10.053   9.080 -0.8632 -0.5898  0.7343
 5058SOL     OW17615   9.943   4.504   6.728  0.2628  0.5180  0.2683
 5058SOL    HW117616   9.894   4.467   6.801 -0.3864  1.4131  0.3127
 5058SOL    HW217617   9.900   4.588   6.711 -0.6777 -0.3817 -2.2360
 5059SOL     OW17618  10.415   7.348   8.529  0.7641  0.2288 -0.1825
 5059SOL    HW117619  10.380   7.437   8.530 -1.4455 -0.5728 -0.0451
 5059SOL    HW217620  10.434   7.331   8.436  1.1441  0.7922 -0.2170
 5060SOL     OW17621   5.611  10.151   3.847 -0.4771  0.5996  0.2696
 5060SOL    HW117622   5.648  10.185   3.928  0.5703  1.3649 -0.5090
 5060SOL    HW217623   5.659  10.196   3.777 -1.3751 -0.0143 -0.7824
 5061SOL     OW17624   6.656  10.463   8.552 -0.3341  0.2820 -0.2844
 5061SOL    HW117625   6.574  10.418   8.533  0.6080 -1.4714 -0.3550
 5061SOL    HW217626   6.674  10.442   8.643  1.1106 -1.1698 -0.8742
 5062SOL     OW17627   3.168   9.966   6.850 -0.0553 -0.1102  0.1635
 5062SOL    HW117628   3.203   9.910   6.919  0.0604 -1.6971 -1.1230
 5062SOL    HW217629   3.167   9.911   6.772  1.3424  2.0622 -1.5358
 5063SOL     OW17630   6.335  10.411   8.692  0.9643 -0.5492 -0.0598
 5063SOL    HW117631   6.357  10.341   8.754  1.0013 -1.4040 -1.0127
 5063SOL    HW217632   6.370  10.490   8.733 -0.0625 -0.8881  1.5734
 5064SOL     OW17633   6.659   1.366   3.777  0.3658  0.5257  0.3694
 5064SOL    HW117634   6.666   1.459   3.799 -0.4992  0.3507  1.4329
 5064SOL    HW217635   6.628   1.324   3.857  0.4061 -0.6412 -0.2009
 5065SOL     OW17636   0.013   4.766   0.647  0.6726 -0.3332  0.1073
 5065SOL    HW117637   0.037   4.859   0.641  0.0505 -0.0821  1.1684
 5065SOL    HW217638   0.096   4.719   0.641  0.9142  0.2306 -1.3699
 5066SOL     OW17639   1.481   9.139   9.781  0.6851 -0.3457  0.1797
 5066SOL    HW117640   1.426   9.066   9.752  0.9234  0.0879 -1.4927
 5066SOL    HW217641   1.446   9.163   9.867 -0.0974 -1.7057  0.2687
 5067SOL     OW17642   1.791   7.489   1.219 -0.1354 -0.5545 -0.3804
 5067SOL    HW117643   1.763   7.407   1.259  0.4905 -1.4023 -1.6132
 5067SOL    HW217644   1.800   7.469   1.126  0.7412  0.7158 -0.5991
 5068SOL     OW17645   8.865   2.093  10.073 -0.5603 -0.3505 -0.6635
 5068SOL    HW117646   8.939   2.052  10.118 -2.4939 -1.5093  1.6899
 5068SOL    HW217647   8.837   2.028  10.008 -1.4445 -1.3562  0.6673
 5069SOL     OW17648   9.699   9.528   1.854  0.0193 -0.4273 -0.2473
 5069SOL    HW117649   9.692   9.588   1.780  0.5100 -0.4016 -0.2789
 5069SOL    HW217650   9.793   9.510   1.861 -0.0815 -0.8800  0.0096
 5070SOL     OW17651   5.207   9.547   2.292 -0.2316 -0.2897 -0.3798
 5070SOL    HW117652   5.261   9.476   2.327 -1.1339 -1.3874 -1.1429
 5070SOL    HW217653   5.120   9.533   2.330 -0.3763  0.5478 -0.3713
 5071SOL     OW17654   5.240   7.140   0.249  0.1704  0.0268  0.0397
 5071SOL    HW117655   5.198   7.072   0.301 -0.4035  0.5121  0.2135
 5071SOL    HW217656   5.174   7.166   0.185  0.5034  0.1846 -0.2420
 5072SOL     OW17657   1.346   1.867   2.755 -0.3004 -0.7918  0.0793
 5072SOL    HW117658   1.386   1.802   2.815 -0.9789 -2.2222 -0.9659
 5072SOL    HW217659   1.393   1.854   2.673 -1.0786 -0.5938 -0.3956
 5073SOL     OW17660   3.456   1.946   5.637 -0.2381 -0.2098 -0.1117
 5073SOL    HW117661   3.406   1.896   5.702 -1.3616  0.0358 -0.7522
 5073SOL    HW217662   3.494   2.019   5.686 -0.5431 -0.3907  0.3961
 5074SOL     OW17663   5.254   4.033   7.460  0.0695 -0.2201 -0.0751
 5074SOL    HW117664   5.202   4.113   7.445  0.0457 -0.2932 -0.4021
 5074SOL    HW217665   5.276   4.036   7.552  2.2464  1.4886 -0.5744
 5075SOL     OW17666  10.006   1.243   8.979  0.2464 -0.0118  0.4475
 5075SOL    HW117667  10.071   1.299   9.021  1.2424  0.3945 -1.5413
 5075SOL    HW217668  10.018   1.157   9.020 -0.1655  0.7737  2.3317
 5076SOL     OW17669   1.855   1.490   9.119 -0.4441 -0.4171  0.1432
 5076SOL    HW117670   1.943   1.526   9.125 -0.6064  0.2665 -1.1760
 5076SOL    HW217671   1.852   1.423   9.187  0.6460  0.4530  1.0942
 5077SOL     OW17672   4.546   3.881   9.766 -0.4280  0.4428  0.1038
 5077SOL    HW117673   4.549   3.920   9.853 -2.4230 -0.1410  0.5035
 5077SOL    HW217674   4.614   3.813   9.767  0.1669  1.0382  0.8889
 5078SOL     OW17675   0.905   1.145   9.277 -0.5249 -0.2649 -0.3166
 5078SOL    HW117676   0.811   1.162   9.277 -0.3208  0.9819 -0.0081
 5078SOL    HW217677   0.921   1.095   9.357 -0.8898 -0.3362 -0.2877
 5079SOL     OW17678   9.302   0.223   5.695  0.1517 -0.0545  0.1521
 5079SOL    HW117679   9.325   0.295   5.753 -0.3967 -0.4759  0.9009
 5079SOL    HW217680   9.384   0.201   5.651  1.0736 -1.0848  2.2634
 5080SOL     OW17681   6.011   5.094   7.259  0.3396  0.3747 -0.5731
 5080SOL    HW117682   6.040   5.155   7.327 -0.8341 -0.1366  0.4103
 5080SOL    HW217683   6.033   5.008   7.293 -0.5086  0.0999 -0.6972
 5081SOL     OW17684   3.472   7.259   5.547  0.5952 -0.2114  0.5195
 5081SOL    HW117685   3.420   7.255   5.467  2.3095  0.5437 -0.6883
 5081SOL    HW217686   3.526   7.180   5.545  1.9339  0.6943 -0.0218
 5082SOL     OW17687   5.416   0.421   0.375 -0.3283  0.0887 -0.3580
 5082SOL    HW117688   5.395   0.375   0.294 -1.9530 -1.7546  1.0230
 5082SOL    HW217689   5.485   0.368   0.416  0.8747  1.3071 -0.7385
 5083SOL     OW17690   8.927   9.626   3.043 -0.4325  0.8255  0.0186
 5083SOL    HW117691   8.883   9.660   2.965 -0.4812  0.8137  0.0411
 5083SOL    HW217692   8.905   9.533   3.045 -1.0749  0.9819  0.4763
 5084SOL     OW17693   1.541   6.611   1.701  0.0298  0.4721  0.1586
 5084SOL    HW117694   1.554   6.517   1.685  0.5426  0.6369 -0.4299
 5084SOL    HW217695   1.629   6.649   1.694 -0.2229  1.0475  0.0369
 5085SOL     OW17696   6.002   8.551   8.242  1.0634  0.0025 -0.2881
 5085SOL    HW117697   5.914   8.533   8.276  1.8501 -0.0399  1.9037
 5085SOL    HW217698   5.996   8.535   8.148 -0.5984 -2.6149  0.1816
 5086SOL     OW17699   9.409   8.208   7.331 -0.1788 -0.4798  0.1725
 5086SOL    HW117700   9.461   8.173   7.258 -1.7571 -0.1888 -1.1415
 5086SOL    HW217701   9.399   8.301   7.311  0.1937 -0.1784  1.2983
 5087SOL     OW17702   0.245   1.181   4.106 -0.4079  0.0095 -0.3384
 5087SOL    HW117703   0.226   1.258   4.160 -0.5796 -0.2093 -0.0833
 5087SOL    HW217704   0.296   1.123   4.163  1.7627  0.9190 -1.2657
 5088SOL     OW17705   9.861   5.954   3.848 -0.5291  0.1244 -0.1798
 5088SOL    HW117706   9.848   5.988   3.936 -2.4203  1.5078 -0.9199
 5088SOL    HW217707   9.849   6.030   3.791 -2.6741 -1.2840 -1.7831
 5089SOL     OW17708   1.731   1.656   6.828 -0.4577  0.3617 -0.6469
 5089SOL    HW117709   1.795   1.656   6.899 -0.7166 -1.2160 -0.3710
 5089SOL    HW217710   1.710   1.749   6.815  2.9369  1.0883 -1.7878
 5090SOL     OW17711   6.441   8.658   7.928  0.2734 -0.0901  0.5224
 5090SOL    HW117712   6.365   8.704   7.892  0.2177  1.0745  2.0156
 5090SOL    HW217713   6.404   8.586   7.979  0.2173 -0.0231  0.5753
 5091SOL     OW17714   3.054   0.099   0.575  0.3251  0.7163  0.0862
 5091SOL    HW117715   2.984   0.074   0.514  0.8703 -0.7966  0.0364
 5091SOL    HW217716   3.014   0.095   0.661  0.2086  0.4211  0.0178
 5092SOL     OW17717   6.052   4.924   1.842 -0.4106 -0.3410  0.0014
 5092SOL    HW117718   6.027   4.922   1.934  0.4628  0.1322  0.2616
 5092SOL    HW217719   6.022   5.010   1.811 -1.6071 -0.8923 -0.4378
 5093SOL     OW17720   9.494   9.981   5.044  0.6128  0.5217  0.4201
 5093SOL    HW117721   9.502  10.053   4.982  0.6099  1.0939  1.0742
 5093SOL    HW217722   9.558   9.916   5.014  1.9185  1.5619  0.8619
 5094SOL     OW17723  10.020   2.948   3.667  0.1527  0.0344  0.1503
 5094SOL    HW117724   9.976   2.865   3.650 -0.0528 -0.1175  1.3361
 5094SOL    HW217725  10.111   2.933   3.640 -0.2660  0.0280 -1.3612
 5095SOL     OW17726   1.165   0.138   1.154 -0.4131 -0.5463 -0.4491
 5095SOL    HW117727   1.212   0.064   1.192 -0.6884 -0.5308 -0.0632
 5095SOL    HW217728   1.099   0.161   1.220 -1.5321 -1.1155 -1.3264
 5096SOL     OW17729   0.557   2.712   2.498  0.4936 -0.3626 -0.4480
 5096SOL    HW117730   0.595   2.800   2.509  0.8760 -0.5078 -0.6050
 5096SOL    HW217731   0.557   2.698   2.404  0.9451 -0.7584 -0.3885
 5097SOL     OW17732   8.492   7.463   3.596 -0.3756  0.4072 -0.0806
 5097SOL    HW117733   8.503   7.558   3.601 -2.0462  0.5949  1.0528
 5097SOL    HW217734   8.579   7.429   3.577  0.4926  2.1035  0.6753
 5098SOL     OW17735   2.418   5.279   1.156 -0.3207 -0.4177 -0.0853
 5098SOL    HW117736   2.370   5.198   1.142  0.4271 -0.6500 -1.6131
 5098SOL    HW217737   2.413   5.325   1.072  0.5666  0.3963  0.2767
 5099SOL     OW17738   3.460   3.990   5.024  0.3079 -0.4647 -0.5164
 5099SOL    HW117739   3.495   3.949   5.104  0.3479 -1.2335 -0.9201
 5099SOL    HW217740   3.369   3.962   5.022  0.1696 -0.0153 -0.4673
 5100SOL     OW17741   9.708   6.303   9.858 -0.1428  0.1961  0.4681
 5100SOL    HW117742   9.733   6.239   9.925 -0.2059 -0.7238 -0.3778
 5100SOL    HW217743   9.766   6.286   9.785 -2.6891 -1.5945 -1.3179
 5101SOL     OW17744   7.250   0.460   3.144 -0.2745 -0.4943 -0.5194
 5101SOL    HW117745   7.232   0.411   3.225  0.3381 -0.6581 -0.4808
 5101SOL    HW217746   7.345   0.466   3.140 -0.2842 -0.9146 -1.4914
 5102SOL     OW17747   6.424   0.879   4.939 -0.3893  0.7851  0.3937
 5102SOL    HW117748   6.490   0.848   5.001 -1.0323  0.9911  1.2079
 5102SOL    HW217749   6.377   0.948   4.987 -3.1532 -1.3304  0.9799
 5103SOL     OW17750  10.355   6.512   8.060 -0.0181  0.3573 -0.0049
 5103SOL    HW117751  10.380   6.602   8.039  1.7126  0.0598  0.6836
 5103SOL    HW217752  10.401   6.492   8.141 -0.0356 -1.2963 -0.3730
 5104SOL     OW17753   2.728   3.197   8.390  0.7409 -0.1711 -0.1395
 5104SOL    HW117754   2.719   3.272   8.449 -0.0407  0.3220 -0.8538
 5104SOL    HW217755   2.803   3.218   8.335  1.5583 -0.6959  0.7468
 5105SOL     OW17756   7.137   4.681   7.258  0.2587  0.3147  0.4273
 5105SOL    HW117757   7.085   4.611   7.218  1.8446 -0.7717  0.1698
 5105SOL    HW217758   7.155   4.651   7.347 -0.2405  1.0610  0.7867
 5106SOL     OW17759   5.587   6.221   9.670  0.4845 -0.0617  0.2001
 5106SOL    HW117760   5.554   6.131   9.669 -0.2121  0.1763  1.1731
 5106SOL    HW217761   5.638   6.227   9.751 -0.2536  0.6865  0.6288
 5107SOL     OW17762   4.021   5.901   2.597  0.0777  0.4666 -0.0308
 5107SOL    HW117763   4.078   5.897   2.674  2.0928 -0.5674 -1.5028
 5107SOL    HW217764   3.966   5.823   2.603  0.4603  0.2141  0.1839
 5108SOL     OW17765   1.394   3.502   1.573 -0.0252  0.0362  0.2935
 5108SOL    HW117766   1.431   3.492   1.485 -1.1609  0.6077 -0.2831
 5108SOL    HW217767   1.423   3.589   1.602 -0.1564  0.1049  0.2210
 5109SOL     OW17768   6.592   4.403   0.064  0.1805  0.1507  0.1334
 5109SOL    HW117769   6.513   4.411   0.118  0.3596  1.8905  0.1992
 5109SOL    HW217770   6.630   4.491   0.065  0.4600  0.1316 -2.4276
 5110SOL     OW17771   3.951   8.818   3.402 -0.2871 -0.0770 -0.3308
 5110SOL    HW117772   3.897   8.853   3.331 -0.7661  0.7755  0.4203
 5110SOL    HW217773   4.024   8.880   3.409 -0.2407 -0.1597 -0.0831
 5111SOL     OW17774   5.649  10.224   0.638 -0.1679  0.0519 -0.3939
 5111SOL    HW117775   5.589  10.298   0.643 -0.9246 -0.6133  2.0658
 5111SOL    HW217776   5.594  10.147   0.654  0.9848 -0.7970 -0.3611
 5112SOL     OW17777   0.578   4.066   0.457  0.2743 -0.4067  0.5152
 5112SOL    HW117778   0.650   4.089   0.398 -0.1694  3.0999  1.1541
 5112SOL    HW217779   0.565   4.143   0.511 -2.4009 -1.8075  2.0956
 5113SOL     OW17780   0.622   2.932   7.021  0.2302 -0.2145 -0.1859
 5113SOL    HW117781   0.603   3.022   6.997 -1.4457 -0.8399 -1.3612
 5113SOL    HW217782   0.705   2.912   6.976  0.2588  0.5186 -0.4663
 5114SOL     OW17783   6.164   4.927   3.801 -0.3812 -0.0154 -0.2131
 5114SOL    HW117784   6.071   4.919   3.820  0.0272 -0.7518  1.7200
 5114SOL    HW217785   6.186   5.017   3.823 -0.4724 -0.0873  0.1795
 5115SOL     OW17786   0.457   0.931   4.809  0.3618  0.0732 -0.4542
 5115SOL    HW117787   0.502   1.000   4.760 -0.6903  0.8708 -0.3374
 5115SOL    HW217788   0.369   0.966   4.824 -0.3458 -1.4674 -0.7687
 5116SOL     OW17789   5.286   6.188  10.321 -0.2522 -0.4005 -0.0922
 5116SOL    HW117790   5.346   6.214  10.391 -0.4359 -0.4422  0.0816
 5116SOL    HW217791   5.331   6.117  10.276 -0.2602 -0.5673  0.1642
 5117SOL     OW17792   4.820   1.061   0.449  0.0304  0.2001  0.2933
 5117SOL    HW117793   4.887   1.068   0.517  1.4738  2.7162 -1.2652
 5117SOL    HW217794   4.828   0.971   0.417  1.3396 -0.1263  1.4531
 5118SOL     OW17795   3.318   6.845   0.354  0.1985  0.4264 -0.3182
 5118SOL    HW117796   3.306   6.786   0.429  1.3839  1.3400  0.6334
 5118SOL    HW217797   3.254   6.915   0.368 -0.3630  0.0118 -0.7846
 5119SOL     OW17798   3.568   6.577   0.711 -0.2471 -0.1428  0.2772
 5119SOL    HW117799   3.653   6.618   0.692 -0.7881  0.1924 -1.6755
 5119SOL    HW217800   3.541   6.615   0.795  1.2743  0.1500  0.6697
 5120SOL     OW17801   1.417   2.193   2.510  0.0842 -0.3448 -0.2123
 5120SOL    HW117802   1.378   2.264   2.561  0.7623 -0.4470  0.4722
 5120SOL    HW217803   1.368   2.192   2.428 -0.2989  0.5455 -0.0034
 5121SOL     OW17804   5.288   8.901   1.105  0.8474 -0.0707 -0.1049
 5121SOL    HW117805   5.271   8.816   1.147 -1.3588 -0.1435 -1.0282
 5121SOL    HW217806   5.226   8.960   1.146  0.8043  0.5800 -1.0924
 5122SOL     OW17807   7.100   4.974   6.122 -0.1931 -0.0350 -0.2749
 5122SOL    HW117808   7.136   5.054   6.161  0.8457  0.1400 -1.5403
 5122SOL    HW217809   7.043   5.005   6.052 -0.8111 -0.3779  0.0744
 5123SOL     OW17810   9.674   4.987   6.515  0.1316 -0.0848 -0.3564
 5123SOL    HW117811   9.626   5.061   6.478 -0.8073 -0.8801 -0.7888
 5123SOL    HW217812   9.607   4.934   6.558  0.3871 -1.8445 -1.9902
 5124SOL     OW17813   8.876   1.776   3.982 -0.4181  0.3238  0.3446
 5124SOL    HW117814   8.905   1.705   4.039  0.1670 -1.6695 -2.2181
 5124SOL    HW217815   8.945   1.842   3.987  0.9437 -1.0315 -0.0554
 5125SOL     OW17816   5.426  10.148   7.705 -0.0049 -0.2915 -0.4654
 5125SOL    HW117817   5.333  10.168   7.711  0.0392 -0.4688  1.3147
 5125SOL    HW217818   5.433  10.086   7.633 -1.3582 -0.7886 -0.1834
 5126SOL     OW17819   2.257   4.132   9.515 -0.0779 -0.0660 -0.5829
 5126SOL    HW117820   2.243   4.205   9.575 -1.6719  0.0360 -1.0443
 5126SOL    HW217821   2.332   4.159   9.462  0.2181  0.6199  0.1609
 5127SOL     OW17822   7.504   8.235   8.611  0.1736 -0.5763 -0.2620
 5127SOL    HW117823   7.424   8.217   8.661  0.1632 -0.7676 -0.3462
 5127SOL    HW217824   7.481   8.306   8.552 -0.1544 -1.1338 -0.8157
 5128SOL     OW17825   2.170   3.077  10.293 -0.1239 -0.1102 -0.2930
 5128SOL    HW117826   2.216   3.044  10.370  0.4906 -1.0204 -1.0380
 5128SOL    HW217827   2.191   3.171  10.291 -0.5261  0.0232  0.8894
 5129SOL     OW17828   4.698   6.420   4.051  0.2592  0.5539  0.2600
 5129SOL    HW117829   4.604   6.438   4.058  0.7017  4.0159 -0.7933
 5129SOL    HW217830   4.729   6.417   4.141 -0.7055  0.3501  0.5960
 5130SOL     OW17831   5.286   2.454   1.379  0.3588 -0.2448  0.2251
 5130SOL    HW117832   5.344   2.453   1.303  0.1843 -0.7669  0.0949
 5130SOL    HW217833   5.336   2.412   1.448  0.3383 -0.2064  0.2634
 5131SOL     OW17834   2.342   5.459   1.728  0.0696 -0.9769 -0.2178
 5131SOL    HW117835   2.339   5.554   1.728  0.5048 -0.9612  0.2286
 5131SOL    HW217836   2.359   5.435   1.819  0.7171 -1.4514 -0.4567
 5132SOL     OW17837   5.887   6.457   4.410 -0.2559  0.2097  0.1337
 5132SOL    HW117838   5.845   6.538   4.380 -0.8431 -0.2164 -0.2060
 5132SOL    HW217839   5.838   6.432   4.488 -1.7349 -1.1553 -1.1547
 5133SOL     OW17840   9.764   8.907   9.497  0.0624 -0.4868 -0.3764
 5133SOL    HW117841   9.751   9.001   9.509  0.4430 -0.3559 -0.9237
 5133SOL    HW217842   9.676   8.869   9.502  0.1249 -0.5108  2.8746
 5134SOL     OW17843   8.281   7.229   1.186  0.0626  0.7116  0.1381
 5134SOL    HW117844   8.371   7.242   1.156  0.3571  0.7498  1.0170
 5134SOL    HW217845   8.237   7.185   1.113  0.9324  0.2073 -0.0899
 5135SOL     OW17846   1.802   9.819   4.314 -0.1857  0.1195 -0.0528
 5135SOL    HW117847   1.709   9.830   4.295 -0.7988 -0.8773  1.9906
 5135SOL    HW217848   1.827   9.901   4.357 -0.5193 -0.1507  0.6775
 5136SOL     OW17849   6.940   7.665   9.911  0.4169  0.4619 -0.7930
 5136SOL    HW117850   6.862   7.642   9.860 -0.1814  0.3913  0.1310
 5136SOL    HW217851   6.906   7.707   9.990  1.2939  0.0531 -0.1759
 5137SOL     OW17852   3.614   5.156   8.692  0.0375 -0.3047  0.0991
 5137SOL    HW117853   3.596   5.153   8.598  0.3539 -0.0916  0.0316
 5137SOL    HW217854   3.709   5.160   8.698 -0.0105  0.5990  0.4012
 5138SOL     OW17855   1.944   3.429   0.874  0.3014 -0.0021 -0.0384
 5138SOL    HW117856   1.921   3.423   0.966  0.5868  1.3930  0.1437
 5138SOL    HW217857   1.879   3.375   0.829  0.6334 -1.3471  1.0323
 5139SOL     OW17858   5.510   5.715   9.250  0.2802  0.0400 -0.2347
 5139SOL    HW117859   5.555   5.790   9.210  2.2676 -1.0262 -0.1281
 5139SOL    HW217860   5.496   5.742   9.341 -2.4680  1.6977 -1.0388
 5140SOL     OW17861   5.199   9.830   5.812 -0.3275 -0.0638 -0.3038
 5140SOL    HW117862   5.109   9.817   5.783 -0.2013 -0.0324 -0.7143
 5140SOL    HW217863   5.243   9.747   5.793  0.1476  0.4800 -1.7008
 5141SOL     OW17864   8.856   9.441   5.678 -0.3828  0.3811  0.2765
 5141SOL    HW117865   8.901   9.360   5.701  0.4155  1.0312  1.0462
 5141SOL    HW217866   8.764   9.423   5.697 -0.5496 -1.0304 -1.5283
 5142SOL     OW17867   7.050   0.332   3.554  0.0992 -0.6873  0.4115
 5142SOL    HW117868   6.988   0.389   3.600 -3.5810 -2.4367 -1.8497
 5142SOL    HW217869   7.019   0.244   3.572  1.6137 -1.6360 -1.2970
 5143SOL     OW17870   4.170   0.706   0.667 -0.0235 -0.1874 -0.1111
 5143SOL    HW117871   4.181   0.683   0.575 -1.2480  1.1703 -0.6347
 5143SOL    HW217872   4.252   0.748   0.692  0.2446 -0.3900 -0.6365
 5144SOL     OW17873   0.441   3.477  10.142 -0.0555  0.3402  0.3031
 5144SOL    HW117874   0.457   3.383  10.151  0.5616  0.4858  0.7730
 5144SOL    HW217875   0.491   3.503  10.065  0.6413  0.4733  0.7866
 5145SOL     OW17876  10.401   1.103   8.160 -0.1167 -0.7093  0.1534
 5145SOL    HW117877  10.493   1.084   8.176  0.0969 -0.1672 -0.4198
 5145SOL    HW217878  10.374   1.154   8.237  0.0454 -0.8969  0.3380
 5146SOL     OW17879   0.429   4.116   8.679  0.9104 -0.3793 -0.6625
 5146SOL    HW117880   0.493   4.184   8.701 -0.8722  1.1555 -0.0156
 5146SOL    HW217881   0.446   4.047   8.743  0.9450  0.6610  0.5050
 5147SOL     OW17882   4.556   7.485   6.239 -0.1538  0.1904  0.0573
 5147SOL    HW117883   4.592   7.554   6.294 -1.9784  0.7267  0.6563
 5147SOL    HW217884   4.502   7.433   6.299 -1.0565 -0.0479 -0.9298
 5148SOL     OW17885   2.408   0.347   7.038 -0.4671  0.4106 -0.2874
 5148SOL    HW117886   2.476   0.289   7.073 -1.5101 -0.3356  0.5717
 5148SOL    HW217887   2.443   0.378   6.955  1.2795  0.7161  0.5089
 5149SOL     OW17888   4.857   3.270   5.619 -0.0698  0.1107  0.4019
 5149SOL    HW117889   4.884   3.192   5.668 -1.4221 -0.0169  0.9936
 5149SOL    HW217890   4.786   3.307   5.671 -0.3080  1.0172 -0.5398
 5150SOL     OW17891   3.125   1.072   6.664  0.5765  0.1112  0.2193
 5150SOL    HW117892   3.139   0.982   6.635  0.5456  0.3384 -0.5258
 5150SOL    HW217893   3.055   1.105   6.608 -0.5463  0.1047  1.5568
 5151SOL     OW17894   7.396   3.151   3.975  0.5759 -0.0795 -0.6237
 5151SOL    HW117895   7.310   3.191   3.981  0.0478 -1.2545  0.1213
 5151SOL    HW217896   7.447   3.210   3.919 -0.5948  0.8116 -0.7820
 5152SOL     OW17897   7.421   8.983   3.732  0.0229 -0.2316 -0.3499
 5152SOL    HW117898   7.371   8.929   3.794 -1.8375  0.1258 -1.4646
 5152SOL    HW217899   7.467   8.919   3.678 -0.5851 -0.6491 -0.3895
 5153SOL     OW17900   5.831   2.432   3.069 -0.3006  0.1795  0.5421
 5153SOL    HW117901   5.790   2.365   3.016  0.7993 -0.0107 -0.1096
 5153SOL    HW217902   5.786   2.427   3.154 -2.6043  1.0075 -0.5607
 5154SOL     OW17903   4.710   9.290   7.826 -0.2118  0.6008  0.0243
 5154SOL    HW117904   4.664   9.218   7.783 -0.0299  1.3597 -1.5078
 5154SOL    HW217905   4.774   9.247   7.882  0.7682 -0.4635 -1.8276
 5155SOL     OW17906   6.323   9.723   6.426  0.0900 -0.3408 -0.4076
 5155SOL    HW117907   6.323   9.723   6.331  1.0197 -1.3725 -0.4295
 5155SOL    HW217908   6.321   9.815   6.451  0.8022 -0.0403 -1.4297
 5156SOL     OW17909   8.402   9.501   8.989 -0.1058 -0.0423  0.0867
 5156SOL    HW117910   8.489   9.474   8.961 -0.1141 -0.3817  0.3692
 5156SOL    HW217911   8.342   9.461   8.926 -0.1067 -0.5405  0.3951
 5157SOL     OW17912   5.361   9.771   8.860 -0.5752  0.0884  0.0655
 5157SOL    HW117913   5.424   9.825   8.811 -0.6206 -0.3533 -0.4965
 5157SOL    HW217914   5.276   9.792   8.821 -0.8330  0.9671  1.0824
 5158SOL     OW17915   3.174   7.071   5.822  0.4834  0.2861  0.1399
 5158SOL    HW117916   3.153   7.120   5.902 -0.3440 -3.1161  2.1740
 5158SOL    HW217917   3.090   7.058   5.778  0.6239  0.2613 -0.1242
 5159SOL     OW17918   3.171   6.341   9.258  0.0883  0.4104  0.1574
 5159SOL    HW117919   3.246   6.368   9.309  0.4297  0.6930 -0.4857
 5159SOL    HW217920   3.208   6.297   9.181 -0.3599  1.3008 -0.5945
 5160SOL     OW17921   6.521   0.489   2.093  0.1953  0.0745  0.0050
 5160SOL    HW117922   6.542   0.563   2.152 -0.8693  0.1383  0.3246
 5160SOL    HW217923   6.441   0.452   2.130 -1.3437  1.0102 -2.2170
 5161SOL     OW17924   4.017   5.790   8.572  0.2225  0.2178  0.3805
 5161SOL    HW117925   3.944   5.801   8.512  0.0092 -1.2976  0.3321
 5161SOL    HW217926   4.053   5.703   8.552  1.8610  0.8086  0.5914
 5162SOL     OW17927   4.841   9.536   6.722  0.2643 -0.0113 -0.0116
 5162SOL    HW117928   4.914   9.598   6.730  0.4700 -0.0322 -1.5287
 5162SOL    HW217929   4.852   9.496   6.636 -0.4383 -1.4485  0.5329
 5163SOL     OW17930   2.340   6.755   0.368 -0.0087 -0.3644  0.4779
 5163SOL    HW117931   2.382   6.820   0.424  1.1775 -0.9454  0.3047
 5163SOL    HW217932   2.360   6.671   0.409  0.0871 -0.7344 -0.3042
 5164SOL     OW17933   7.801   3.521   5.626  0.1078  0.0726  0.2940
 5164SOL    HW117934   7.777   3.614   5.622 -0.4080  0.0084  1.5543
 5164SOL    HW217935   7.896   3.521   5.642  0.2829  0.3582 -0.6708
 5165SOL     OW17936   8.817   6.605   2.312  0.4687  0.3797 -0.8383
 5165SOL    HW117937   8.745   6.654   2.274 -2.7162 -1.8510  1.7044
 5165SOL    HW217938   8.818   6.522   2.264 -1.0575 -0.9306  1.2194
 5166SOL     OW17939   2.768   0.021   3.743  0.0807  0.0634 -0.4887
 5166SOL    HW117940   2.807  -0.058   3.779 -2.0187 -0.3990  0.9975
 5166SOL    HW217941   2.786   0.017   3.649  3.2117 -0.2189  0.0186
 5167SOL     OW17942   4.442   1.693   6.465 -0.0613  0.0610  0.1169
 5167SOL    HW117943   4.401   1.718   6.383  1.0676 -0.6497 -0.6972
 5167SOL    HW217944   4.536   1.692   6.446  0.5712  3.1057  2.2935
 5168SOL     OW17945   9.115   2.288   9.546  0.1845  0.2324 -0.4173
 5168SOL    HW117946   9.032   2.241   9.560  0.3386  0.1800  0.3934
 5168SOL    HW217947   9.094   2.379   9.568  1.1182 -0.2698  3.3231
 5169SOL     OW17948   0.483   9.824   5.023  0.0249  0.4388 -0.0439
 5169SOL    HW117949   0.444   9.855   5.105 -0.5490 -0.7839  0.1790
 5169SOL    HW217950   0.560   9.774   5.050  0.5243  1.0323 -0.3441
 5170SOL     OW17951   6.498   9.313   9.282 -0.7966 -0.0326  0.1771
 5170SOL    HW117952   6.526   9.340   9.369  0.1471  2.8094 -0.8677
 5170SOL    HW217953   6.552   9.237   9.262 -0.0823  0.0800  1.5581
 5171SOL     OW17954   4.385   4.318   0.981  0.0070  0.2113  0.1650
 5171SOL    HW117955   4.435   4.238   0.962 -0.4984 -0.1245  0.2165
 5171SOL    HW217956   4.310   4.287   1.032  0.7072  0.9402  1.6819
 5172SOL     OW17957   0.947   7.841   2.397 -0.0801 -0.2903  0.6977
 5172SOL    HW117958   0.941   7.889   2.479  2.9135 -0.5669  1.1745
 5172SOL    HW217959   1.020   7.880   2.350 -0.8617 -1.0259 -1.2622
 5173SOL     OW17960   0.736   4.835  10.310  0.0197 -0.0844 -0.1715
 5173SOL    HW117961   0.649   4.873  10.295  0.0667  0.4762  0.8491
 5173SOL    HW217962   0.797   4.907  10.289  0.2586 -0.5751 -1.1961
 5174SOL     OW17963   3.693   5.781   7.117 -0.1688 -0.3402  0.1407
 5174SOL    HW117964   3.682   5.702   7.063  1.2814 -0.0727 -0.6051
 5174SOL    HW217965   3.771   5.764   7.169  0.2502  0.6428 -0.1359
 5175SOL     OW17966   0.596   6.066   7.700  0.6485  0.1615 -0.3601
 5175SOL    HW117967   0.559   6.038   7.616 -0.2992  0.7641 -0.1615
 5175SOL    HW217968   0.572   5.996   7.761  0.9545 -0.0632 -0.4946
 5176SOL     OW17969   4.591  10.337   1.042 -0.3803  0.5007 -0.0584
 5176SOL    HW117970   4.595  10.378   1.128  0.3182  0.0437  0.1347
 5176SOL    HW217971   4.504  10.359   1.009 -0.1324  1.8858  0.1580
 5177SOL     OW17972   0.673   1.591   4.127  0.5070  0.5766  0.2260
 5177SOL    HW117973   0.649   1.667   4.073  0.4825  0.5763  0.2367
 5177SOL    HW217974   0.592   1.568   4.172  0.3026  0.0270 -0.4102
 5178SOL     OW17975   3.115   3.528   5.331 -0.0487  0.5749  0.0913
 5178SOL    HW117976   3.179   3.547   5.262 -0.5501  2.1549  0.0037
 5178SOL    HW217977   3.168   3.501   5.406  0.4906 -1.6055 -0.9847
 5179SOL     OW17978   7.615   7.592   4.923  0.4003  0.0022 -0.2020
 5179SOL    HW117979   7.616   7.513   4.978  0.5724  1.6442  2.2990
 5179SOL    HW217980   7.522   7.603   4.899  0.0254  0.1921  1.2495
 5180SOL     OW17981   6.687   3.159   0.155  0.2951 -0.0558 -0.1688
 5180SOL    HW117982   6.648   3.192   0.236  2.0942 -0.9351  1.1169
 5180SOL    HW217983   6.686   3.064   0.164 -0.1914 -0.2041 -1.5506
 5181SOL     OW17984   5.758  10.283   4.044 -0.0806  0.4511  0.0824
 5181SOL    HW117985   5.829  10.322   3.992 -0.2314  1.2875  0.4869
 5181SOL    HW217986   5.779  10.305   4.134 -1.5653  1.9788  0.1236
 5182SOL     OW17987  10.034   9.299   7.720  0.5348  0.6197 -0.1140
 5182SOL    HW117988   9.990   9.327   7.800 -1.2186  2.0033 -1.4748
 5182SOL    HW217989  10.056   9.207   7.735  1.2832  1.1349  2.3396
 5183SOL     OW17990   5.412   8.855   5.518  0.9248  0.2958  0.7026
 5183SOL    HW117991   5.445   8.849   5.428  0.4325  0.6261  0.4964
 5183SOL    HW217992   5.353   8.780   5.526  2.0523 -0.5640  1.2203
 5184SOL     OW17993   7.234   8.789   1.425  0.6650 -0.0553 -0.7215
 5184SOL    HW117994   7.156   8.773   1.372 -0.1148  1.1615 -0.0204
 5184SOL    HW217995   7.199   8.800   1.514  1.5122  1.3888 -0.5355
 5185SOL     OW17996   7.840   5.161   5.205  0.1292  0.4316  0.6638
 5185SOL    HW117997   7.785   5.152   5.127 -1.1447  1.8607  1.3390
 5185SOL    HW217998   7.783   5.203   5.270  1.4851  0.2974  2.0099
 5186SOL     OW17999   8.378   2.064   4.938 -0.0628  0.4468 -0.3201
 5186SOL    HW118000   8.468   2.059   4.907 -0.1861  0.1618 -0.6365
 5186SOL    HW218001   8.335   2.122   4.876  0.3315  2.0764  0.8738
 5187SOL     OW18002   1.754   6.275   0.249 -0.9140 -0.1782 -0.1926
 5187SOL    HW118003   1.680   6.306   0.302  0.4616 -0.5267  2.0655
 5187SOL    HW218004   1.736   6.181   0.237 -1.5770  0.0355 -1.0145
 5188SOL     OW18005   0.157   3.495   5.622  0.3153  0.1478  0.3604
 5188SOL    HW118006   0.119   3.579   5.647 -0.8560  0.2912 -1.7325
 5188SOL    HW218007   0.113   3.431   5.679 -0.0564  0.7614  0.7708
 5189SOL     OW18008   8.732   2.092   1.822  0.1588 -0.2339  0.0921
 5189SOL    HW118009   8.776   2.035   1.885 -0.5781 -0.8478  0.0678
 5189SOL    HW218010   8.771   2.178   1.836  0.3055 -0.4507  1.0977
 5190SOL     OW18011   2.129   7.367   1.327 -0.2660 -0.5279 -0.1140
 5190SOL    HW118012   2.080   7.306   1.382 -0.3765 -1.1375 -0.8801
 5190SOL    HW218013   2.088   7.359   1.240  0.6384 -0.4148 -0.5578
 5191SOL     OW18014   5.533   5.550   0.496  0.6212 -0.3161 -0.2535
 5191SOL    HW118015   5.527   5.542   0.591 -1.3643 -1.4879 -0.4239
 5191SOL    HW218016   5.480   5.478   0.462  1.9351 -0.4299 -2.2827
 5192SOL     OW18017   6.472   1.948   4.002 -0.3486  0.6403 -0.2250
 5192SOL    HW118018   6.484   2.008   4.075  0.3071  0.8610 -0.5087
 5192SOL    HW218019   6.389   1.975   3.963  0.4546  2.1033 -1.0139
 5193SOL     OW18020   9.223   2.283   8.456  0.2706 -0.0388 -0.1895
 5193SOL    HW118021   9.146   2.255   8.505  0.3733 -2.1500 -1.1367
 5193SOL    HW218022   9.261   2.353   8.510 -2.3208  1.1502  0.2285
 5194SOL     OW18023   2.155   4.170   6.210 -0.5059 -0.0413  0.2271
 5194SOL    HW118024   2.084   4.126   6.256 -0.5565 -1.1977 -0.8836
 5194SOL    HW218025   2.140   4.149   6.118  1.0275  0.0523 -0.0729
 5195SOL     OW18026   1.685   2.662   3.996 -0.7551 -0.0652  0.1909
 5195SOL    HW118027   1.765   2.684   3.948  1.0636 -0.4002  2.8343
 5195SOL    HW218028   1.672   2.736   4.056 -3.4567  0.7764 -1.2951
 5196SOL     OW18029   8.374   2.842   4.556 -0.0158 -0.6461  0.2324
 5196SOL    HW118030   8.447   2.891   4.519 -1.3561  0.9048 -0.4841
 5196SOL    HW218031   8.399   2.750   4.546  1.1610 -0.1930 -1.4067
 5197SOL     OW18032   7.158   8.967   9.256  0.6826  0.4536 -0.1184
 5197SOL    HW118033   7.086   8.924   9.302 -0.6564  0.3752 -2.1917
 5197SOL    HW218034   7.187   9.036   9.317 -1.6685  0.9977  0.4874
 5198SOL     OW18035   4.535   3.093   8.476 -0.4624  0.8135  0.1670
 5198SOL    HW118036   4.513   3.011   8.521  1.3087  1.2729  1.9963
 5198SOL    HW218037   4.623   3.078   8.441 -0.6981  1.4594 -0.7294
 5199SOL     OW18038  10.370   5.480   9.201 -0.0648  0.4708  0.3770
 5199SOL    HW118039  10.403   5.417   9.264  1.5666 -1.5861 -2.2871
 5199SOL    HW218040  10.314   5.429   9.143 -0.5140  1.9742 -0.5855
 5200SOL     OW18041   5.717   9.851   2.818 -0.2019 -0.4138  0.1690
 5200SOL    HW118042   5.757   9.808   2.742  0.4562 -0.2670  0.4276
 5200SOL    HW218043   5.628   9.871   2.789  0.3801  0.6777 -0.9879
 5201SOL     OW18044   3.222  10.142   6.458 -0.4895 -0.3489 -0.3419
 5201SOL    HW118045   3.237  10.192   6.538  0.3459 -1.0827 -0.0255
 5201SOL    HW218046   3.304  10.146   6.410 -0.5718 -0.9730 -0.5562
 5202SOL     OW18047   9.479   4.274   6.446 -0.3664  0.5544  0.2689
 5202SOL    HW118048   9.400   4.301   6.494 -1.5633  0.7251 -1.7091
 5202SOL    HW218049   9.507   4.353   6.400 -0.6978 -0.1842 -1.2416
 5203SOL     OW18050   6.735   8.364   9.294 -0.1075  0.4564  0.1349
 5203SOL    HW118051   6.670   8.433   9.304  0.2168  0.5729  1.6436
 5203SOL    HW218052   6.687   8.282   9.306 -0.1792  0.4919  0.0878
 5204SOL     OW18053   9.530   4.044   6.004 -0.7342  0.0506 -0.1393
 5204SOL    HW118054   9.594   4.087   5.947 -1.4160 -0.3492 -1.2387
 5204SOL    HW218055   9.503   4.112   6.066 -0.7694  0.8219 -0.9749
 5205SOL     OW18056   8.174   8.728   9.965  0.7027  0.0434 -0.8032
 5205SOL    HW118057   8.089   8.705  10.001  2.1542 -3.6145  0.6998
 5205SOL    HW218058   8.197   8.811  10.008 -0.7899 -0.4538  1.0520
 5206SOL     OW18059   4.693   0.352   4.278  0.3791  0.2179  0.2109
 5206SOL    HW118060   4.751   0.296   4.329  0.4366  0.4764  0.4358
 5206SOL    HW218061   4.625   0.379   4.339  0.8296  1.0819  0.3480
 5207SOL     OW18062   3.265   0.159   8.199  0.1485  0.0249 -0.4813
 5207SOL    HW118063   3.260   0.066   8.222 -2.2316  0.3139  0.5108
 5207SOL    HW218064   3.306   0.200   8.275  0.7594 -0.1526 -0.7138
 5208SOL     OW18065   0.455   4.444   4.955  0.1224  0.3469  0.0481
 5208SOL    HW118066   0.443   4.433   5.049  2.9244  0.1003  0.4528
 5208SOL    HW218067   0.464   4.355   4.921 -0.3670  0.4606 -0.3978
 5209SOL     OW18068   6.119   7.398   2.606 -0.1468 -0.2518  0.0991
 5209SOL    HW118069   6.034   7.426   2.638 -0.7045  0.7335 -2.0317
 5209SOL    HW218070   6.181   7.422   2.674 -1.0942  2.7770  0.0034
 5210SOL     OW18071   8.873   8.579   7.011  0.9876 -0.6564  0.8459
 5210SOL    HW118072   8.964   8.608   7.014  0.5666  1.1021 -0.9577
 5210SOL    HW218073   8.825   8.647   7.060  0.2498  0.6093 -1.4978
 5211SOL     OW18074  10.196   1.745   3.114 -0.3571 -0.8214 -0.2734
 5211SOL    HW118075  10.192   1.683   3.042  2.0642 -0.9308 -0.3965
 5211SOL    HW218076  10.186   1.692   3.193  0.4641 -1.2308 -0.4289
 5212SOL     OW18077   0.247   6.204   7.494 -0.5164  0.4346 -0.1942
 5212SOL    HW118078   0.336   6.206   7.459 -0.1274 -0.3304  0.6932
 5212SOL    HW218079   0.254   6.248   7.579 -1.3094  1.6942 -0.7410
 5213SOL     OW18080   9.197   7.767   4.906 -0.1536  0.1632 -0.0337
 5213SOL    HW118081   9.277   7.754   4.856 -0.3391 -1.9918  0.1255
 5213SOL    HW218082   9.128   7.732   4.851 -0.5551 -0.8427  1.0728
 5214SOL     OW18083   8.075   2.806   5.535  0.1753  0.5944  0.1601
 5214SOL    HW118084   8.118   2.853   5.606 -0.1461  1.1798 -0.0306
 5214SOL    HW218085   8.048   2.874   5.473  0.5588  0.0825 -0.5895
 5215SOL     OW18086   2.092  10.204   7.625 -0.3082 -0.4492  0.2458
 5215SOL    HW118087   2.171  10.154   7.607  0.0168  0.1212  0.0553
 5215SOL    HW218088   2.064  10.176   7.712 -0.1494 -0.9770  0.1274
 5216SOL     OW18089   7.298   3.926   7.291  0.3277 -0.5402 -0.0752
 5216SOL    HW118090   7.221   3.870   7.292  0.4355 -0.7089 -0.6569
 5216SOL    HW218091   7.326   3.928   7.199  0.7366 -0.0996  0.0475
 5217SOL     OW18092  10.254   2.625   1.526 -0.3887 -0.0340 -0.0203
 5217SOL    HW118093  10.255   2.718   1.548  0.1418  0.0783 -0.4842
 5217SOL    HW218094  10.189   2.617   1.456 -0.3171  0.0181 -0.0933
 5218SOL     OW18095   3.262   5.727   1.066 -0.4197  0.2742 -0.2206
 5218SOL    HW118096   3.229   5.638   1.054 -0.6494  0.3068  0.1489
 5218SOL    HW218097   3.220   5.758   1.147  0.7106  0.2204  0.4098
 5219SOL     OW18098   5.975   4.053   1.613 -0.1448  0.5219 -0.0200
 5219SOL    HW118099   5.945   4.125   1.558 -0.3539  1.2229  0.9711
 5219SOL    HW218100   5.970   3.975   1.557 -3.2696  0.6720 -0.1222
 5220SOL     OW18101   7.238   0.098   8.906  0.1370  0.1991  0.5832
 5220SOL    HW118102   7.274   0.132   8.824  0.4745  0.1147  0.6949
 5220SOL    HW218103   7.153   0.062   8.881  0.7643 -0.9629  0.0216
 5221SOL     OW18104   7.689   2.251   2.486 -0.3874 -0.3582 -0.4044
 5221SOL    HW118105   7.717   2.343   2.477  2.4377 -1.1118 -0.2604
 5221SOL    HW218106   7.621   2.254   2.553 -0.6138  1.6692 -0.6383
 5222SOL     OW18107   2.501   2.276  10.088  0.4700 -0.2766  0.0161
 5222SOL    HW118108   2.594   2.293  10.077  0.4744 -0.1120  0.2893
 5222SOL    HW218109   2.463   2.363  10.104  0.1396 -0.2261 -0.9683
 5223SOL     OW18110   2.599   9.687   4.936 -0.2884  0.3146 -0.2856
 5223SOL    HW118111   2.543   9.610   4.922  1.0642 -0.8108  0.2252
 5223SOL    HW218112   2.600   9.699   5.030 -0.3176  0.8243 -0.3504
 5224SOL     OW18113   3.305   3.016   5.114 -0.4074  0.3524 -0.4137
 5224SOL    HW118114   3.323   3.080   5.182 -2.9990 -0.6324  1.3313
 5224SOL    HW218115   3.218   3.039   5.082 -1.0625 -1.8111 -0.2898
 5225SOL     OW18116   8.640   1.533   8.870  0.4058 -1.0729 -0.0283
 5225SOL    HW118117   8.621   1.619   8.907  1.0838 -0.7086 -0.4996
 5225SOL    HW218118   8.610   1.471   8.937  1.0650 -0.4458  0.8680
 5226SOL     OW18119   3.425   4.609   6.952  0.1220 -0.5240  0.3622
 5226SOL    HW118120   3.416   4.668   7.027 -0.2818  0.1536 -0.2054
 5226SOL    HW218121   3.390   4.525   6.983  1.3933 -0.7060  1.4165
 5227SOL     OW18122   5.799   8.212   9.174  0.3333  0.3990 -0.0322
 5227SOL    HW118123   5.749   8.144   9.129  0.5009 -0.1571  0.6040
 5227SOL    HW218124   5.889   8.180   9.172  0.3666  0.4511  0.5485
 5228SOL     OW18125   2.627   2.215   6.680  0.0295 -0.2355  0.4859
 5228SOL    HW118126   2.626   2.308   6.703 -1.1042 -0.2285  0.4624
 5228SOL    HW218127   2.566   2.207   6.607 -0.0924 -1.0437  0.6658
 5229SOL     OW18128   0.318   5.835   1.647 -0.3426  0.4002  0.3737
 5229SOL    HW118129   0.290   5.925   1.632 -3.4033 -0.3436  0.8856
 5229SOL    HW218130   0.331   5.829   1.742  0.1886  0.3738  0.3026
 5230SOL     OW18131   8.582   7.008   0.421 -0.2692 -0.6502 -0.0234
 5230SOL    HW118132   8.666   6.965   0.406 -0.5442 -1.0422 -0.4840
 5230SOL    HW218133   8.524   6.938   0.449 -0.3766 -0.3339  0.5495
 5231SOL     OW18134   9.385   6.050   7.383  0.6307 -0.0958  0.3825
 5231SOL    HW118135   9.460   5.998   7.354 -0.2598 -2.2654  1.7340
 5231SOL    HW218136   9.417   6.140   7.383  3.0914 -0.8966  0.4582
 5232SOL     OW18137   7.830   0.808   8.417  0.2989  0.1630  0.0901
 5232SOL    HW118138   7.917   0.769   8.422 -0.1847 -0.9607  0.0121
 5232SOL    HW218139   7.836   0.888   8.469  0.7673 -1.0587  1.9931
 5233SOL     OW18140   5.388   3.997   9.882  0.3659 -0.5309  0.6037
 5233SOL    HW118141   5.381   3.971   9.974 -0.0164 -1.3445  0.3487
 5233SOL    HW218142   5.342   4.082   9.878 -0.7297 -1.0834  0.9306
 5234SOL     OW18143   2.052   6.943   4.631  0.2248  0.1428  0.0420
 5234SOL    HW118144   2.055   6.961   4.725  0.2204 -0.4530  0.1607
 5234SOL    HW218145   1.965   6.969   4.603 -0.1035 -0.5536  0.3934
 5235SOL     OW18146   2.198   0.384   9.348 -0.9353  0.2004  0.2703
 5235SOL    HW118147   2.199   0.479   9.339 -1.0176  0.0994 -0.9677
 5235SOL    HW218148   2.105   0.360   9.344 -1.3902  0.3467  4.6468
 5236SOL     OW18149   0.727   4.119   8.304 -0.6140 -0.1075  0.2280
 5236SOL    HW118150   0.693   4.040   8.348 -0.4822 -1.3753 -1.8111
 5236SOL    HW218151   0.672   4.128   8.226  1.7809 -0.4976 -1.6157
 5237SOL     OW18152   9.948   4.952  10.159 -0.1551 -0.0508 -0.0805
 5237SOL    HW118153   9.882   4.902  10.111 -0.7612  0.2049  0.4757
 5237SOL    HW218154   9.975   4.894  10.231 -0.9908  0.4603  0.6746
 5238SOL     OW18155   7.203   8.788   3.779  0.2341 -0.3305  0.2103
 5238SOL    HW118156   7.123   8.800   3.729  0.4053  1.5599  0.2975
 5238SOL    HW218157   7.183   8.825   3.865  1.8374  2.4480 -0.4740
 5239SOL     OW18158   0.545   8.722   3.969 -0.3738 -0.4743  0.1486
 5239SOL    HW118159   0.487   8.795   3.990  0.3140  0.5974 -1.4962
 5239SOL    HW218160   0.628   8.745   4.010 -0.1177 -0.2743 -0.4830
 5240SOL     OW18161   0.476   6.183   4.353 -0.1160  0.5977 -0.1409
 5240SOL    HW118162   0.510   6.093   4.350 -2.2612 -0.3437  1.2662
 5240SOL    HW218163   0.431   6.194   4.269  0.2560  0.4037 -0.3692
 5241SOL     OW18164   2.620   0.240   2.972 -0.3721  0.3230 -0.0699
 5241SOL    HW118165   2.696   0.235   2.913  0.1909  1.6982  0.4954
 5241SOL    HW218166   2.658   0.237   3.060 -1.1314 -0.7055  0.2409
 5242SOL     OW18167   6.276   1.502   1.732 -0.0319 -0.1548 -0.4939
 5242SOL    HW118168   6.188   1.485   1.700 -0.2862 -1.5835  0.8568
 5242SOL    HW218169   6.332   1.442   1.684 -0.2963 -1.6711  0.9976
 5243SOL     OW18170   9.377   9.678   3.382  0.1607  0.0185  0.1651
 5243SOL    HW118171   9.456   9.698   3.331 -0.2088 -0.5006 -0.6246
 5243SOL    HW218172   9.325   9.758   3.379 -0.2804 -0.3028 -1.0624
 5244SOL     OW18173   2.851   5.192   6.554  0.3711  0.3379 -0.0008
 5244SOL    HW118174   2.853   5.204   6.459  2.3275  0.7878  0.0528
 5244SOL    HW218175   2.770   5.234   6.582  0.7051  1.9379 -1.2798
 5245SOL     OW18176   9.723   0.674   4.605 -0.0618 -0.2758  0.0846
 5245SOL    HW118177   9.782   0.673   4.530 -0.2422 -1.6141 -0.0754
 5245SOL    HW218178   9.663   0.601   4.589 -1.6835  0.9347  0.3118
 5246SOL     OW18179   1.127   3.639   2.607  0.1638 -0.6211 -0.4783
 5246SOL    HW118180   1.062   3.595   2.553 -1.2492  0.7374  0.0345
 5246SOL    HW218181   1.116   3.601   2.694  1.2969 -1.6175 -0.7329
 5247SOL     OW18182   8.708   0.027   3.968 -0.1159 -0.2262 -0.6894
 5247SOL    HW118183   8.770   0.095   3.944  0.1702 -0.9054 -1.9426
 5247SOL    HW218184   8.622   0.070   3.966  0.2735  0.7586  1.2326
 5248SOL     OW18185   5.556   5.535   8.323  0.1622  0.1166  0.6100
 5248SOL    HW118186   5.523   5.565   8.239  0.4663  2.0284  1.1195
 5248SOL    HW218187   5.482   5.491   8.364 -0.1406 -0.3524 -0.4096
 5249SOL     OW18188   4.522   7.909  10.088  0.1435  0.1561 -0.0957
 5249SOL    HW118189   4.436   7.930  10.124  0.5977 -0.1493  1.2159
 5249SOL    HW218190   4.557   7.993  10.057 -0.6604  0.2613 -0.7417
 5250SOL     OW18191   5.652   3.466   6.638  0.2621 -0.4075  0.6830
 5250SOL    HW118192   5.594   3.525   6.686 -0.8554 -2.8469  2.5810
 5250SOL    HW218193   5.737   3.510   6.639 -0.2385  0.6712  3.0233
 5251SOL     OW18194   1.782   5.782   4.097 -0.1582 -0.8515 -0.2119
 5251SOL    HW118195   1.843   5.855   4.084  0.9174 -1.3604  1.5153
 5251SOL    HW218196   1.711   5.820   4.149  0.3998 -0.9756  0.6847
 5252SOL     OW18197   1.461   9.915   8.921  0.0059 -0.2311 -0.1817
 5252SOL    HW118198   1.453   9.987   8.859 -1.1868  0.6626  0.9503
 5252SOL    HW218199   1.531   9.860   8.886 -0.4561  0.3714 -2.1534
 5253SOL     OW18200   8.102   0.033   4.844  0.4254 -0.4097 -0.3036
 5253SOL    HW118201   8.169  -0.036   4.840  1.1368  0.2320  0.1707
 5253SOL    HW218202   8.070   0.030   4.934 -0.3116 -0.8100 -0.5673
 5254SOL     OW18203   0.624   6.449   3.957 -0.2512  0.0028 -0.4041
 5254SOL    HW118204   0.560   6.485   4.019 -0.5013  0.6825 -1.0332
 5254SOL    HW218205   0.617   6.354   3.968 -0.3233  0.1043  0.5674
 5255SOL     OW18206   0.176   1.388   2.151 -0.1335 -0.7792 -0.5279
 5255SOL    HW118207   0.180   1.336   2.071 -1.5216 -0.8380 -0.5879
 5255SOL    HW218208   0.229   1.465   2.132  0.5456 -1.3641 -1.0583
 5256SOL     OW18209   8.166   5.066   2.411  0.4603  0.1722 -0.0630
 5256SOL    HW118210   8.243   5.086   2.464 -0.7153  1.5282  1.2309
 5256SOL    HW218211   8.121   4.996   2.458  0.2303  0.2775 -0.1244
 5257SOL     OW18212   6.958   3.245   1.982 -0.3004 -0.2399 -0.3969
 5257SOL    HW118213   6.893   3.313   2.000 -0.3921 -0.8011  1.5816
 5257SOL    HW218214   6.908   3.164   1.983 -0.0041 -0.4624 -1.6718
 5258SOL     OW18215   6.741   6.242   0.371  0.0551 -0.0432  0.8508
 5258SOL    HW118216   6.679   6.315   0.363 -0.2096 -0.3208  0.3675
 5258SOL    HW218217   6.732   6.214   0.463 -0.5022 -0.0466  0.8023
 5259SOL     OW18218   6.092   8.520   9.123  0.4628 -0.2957 -0.0923
 5259SOL    HW118219   6.114   8.601   9.077  0.6049 -0.2980 -0.0292
 5259SOL    HW218220   6.177   8.484   9.150  0.4014 -0.4759 -0.1389
 5260SOL     OW18221   5.827   1.282   9.443  0.3307  0.0191 -0.5910
 5260SOL    HW118222   5.845   1.283   9.537 -2.4629 -1.3538  0.0411
 5260SOL    HW218223   5.887   1.216   9.408  0.5835 -0.2927  0.4026
 5261SOL     OW18224   1.017   8.687   3.170  0.8056  0.7017  0.4001
 5261SOL    HW118225   1.038   8.596   3.148  1.2544  1.1912 -1.4135
 5261SOL    HW218226   1.003   8.687   3.264  1.3692 -1.1363  0.5176
 5262SOL     OW18227   2.358   8.647   1.611  0.1236  0.0162  0.2441
 5262SOL    HW118228   2.303   8.569   1.602 -0.6107  0.4068  1.2448
 5262SOL    HW218229   2.431   8.631   1.550 -0.2133 -1.2659  0.1382
 5263SOL     OW18230   7.393   1.008   0.375  0.0259  0.7509 -0.3525
 5263SOL    HW118231   7.446   0.963   0.441 -1.9164 -0.1552  0.6723
 5263SOL    HW218232   7.349   1.078   0.423 -0.1671  1.1144 -1.0443
 5264SOL     OW18233   9.819   1.987   7.085  0.2676  0.8119  0.3484
 5264SOL    HW118234   9.769   2.066   7.063  1.0177  0.9450 -0.9859
 5264SOL    HW218235   9.790   1.921   7.023 -1.4576 -0.4895  2.4070
 5265SOL     OW18236   8.521  10.049   3.537 -0.3379  0.0923 -0.6209
 5265SOL    HW118237   8.470  10.010   3.466  2.3027 -0.6612 -2.2855
 5265SOL    HW218238   8.611  10.019   3.521  0.4651  0.1496  2.9250
 5266SOL     OW18239   1.721   6.107   2.318 -0.1669  0.0965  0.1470
 5266SOL    HW118240   1.684   6.187   2.355 -1.8436 -0.0048 -1.2122
 5266SOL    HW218241   1.645   6.054   2.295  0.8378 -0.6967 -1.5145
 5267SOL     OW18242   4.618   7.874   2.292 -0.3911 -0.3429 -0.6753
 5267SOL    HW118243   4.526   7.898   2.279 -0.0695  0.4874 -1.5170
 5267SOL    HW218244   4.651   7.936   2.356 -0.5456 -0.9755  0.0271
 5268SOL     OW18245   9.646   9.242   9.495 -0.0883  0.3603 -0.1133
 5268SOL    HW118246   9.609   9.202   9.574  0.6592 -2.0685 -0.9339
 5268SOL    HW218247   9.576   9.234   9.430  0.4120 -0.4926 -0.5466
 5269SOL     OW18248   8.117   1.773   6.728  0.2487  0.7699  0.3569
 5269SOL    HW118249   8.084   1.844   6.784  0.6151  1.2390 -0.0078
 5269SOL    HW218250   8.167   1.818   6.659  2.3300  0.0846  1.3206
 5270SOL     OW18251   3.547   7.044   5.151  0.1982 -0.1264 -0.2392
 5270SOL    HW118252   3.509   7.024   5.066 -1.5995  1.2296  0.1932
 5270SOL    HW218253   3.616   7.107   5.132  0.4340 -0.5331 -0.7689
 5271SOL     OW18254   7.193   8.956   2.795  0.8435  0.2615 -0.6844
 5271SOL    HW118255   7.205   8.863   2.772 -0.0454  0.2085 -0.9633
 5271SOL    HW218256   7.192   8.957   2.891  2.2569  0.1790 -0.6431
 5272SOL     OW18257   4.184   6.364   4.743 -0.0628  0.1398 -0.4355
 5272SOL    HW118258   4.221   6.419   4.813  0.2463 -0.3431 -0.2140
 5272SOL    HW218259   4.169   6.280   4.785 -2.8232  0.7098 -0.1108
 5273SOL     OW18260   2.251   3.210   0.071 -0.4809 -0.1242  0.0324
 5273SOL    HW118261   2.298   3.272   0.016  0.9946 -2.0459 -1.0101
 5273SOL    HW218262   2.224   3.261   0.148 -0.2862  1.9981 -1.2369
 5274SOL     OW18263   6.208   3.357   1.840  0.3489 -0.1807  0.0117
 5274SOL    HW118264   6.255   3.280   1.809  0.7538  0.2546 -0.4826
 5274SOL    HW218265   6.195   3.410   1.761 -1.7803 -0.6953 -0.0389
 5275SOL     OW18266   6.619   5.754   6.296  0.6076 -0.5528  0.0748
 5275SOL    HW118267   6.593   5.705   6.374  0.3818  0.0574  0.3885
 5275SOL    HW218268   6.576   5.838   6.305  2.1297  0.2359  0.2598
 5276SOL     OW18269   4.439   0.583  10.443  0.1624  0.3793 -0.2562
 5276SOL    HW118270   4.452   0.568  10.537 -0.4619  1.1195 -0.0410
 5276SOL    HW218271   4.422   0.496  10.407  0.8329  0.0316  0.2405
 5277SOL     OW18272   4.187   6.830   8.887 -0.3788  0.0293 -0.3866
 5277SOL    HW118273   4.235   6.767   8.834 -0.8560 -0.6261 -0.0429
 5277SOL    HW218274   4.110   6.783   8.918 -1.2029  1.0264 -0.8310
 5278SOL     OW18275   2.631   7.943   2.797 -0.2306  0.7030  0.2853
 5278SOL    HW118276   2.613   7.951   2.703 -1.7814  1.2517  0.6034
 5278SOL    HW218277   2.716   7.986   2.808 -1.1261  2.8635 -0.5367
 5279SOL     OW18278   0.379   7.439   2.539  0.2087 -0.0413 -0.0780
 5279SOL    HW118279   0.322   7.394   2.477  1.1595 -0.3418 -0.7612
 5279SOL    HW218280   0.355   7.531   2.532 -2.3910 -0.4555  1.9939
 5280SOL     OW18281   0.938   1.499   0.905 -0.4600  0.2321 -0.3042
 5280SOL    HW118282   0.986   1.574   0.938 -0.3666 -0.3830  1.0306
 5280SOL    HW218283   0.993   1.463   0.836  0.2816  0.4280  0.1764
 5281SOL     OW18284   9.035   2.470   1.559  0.0342 -0.4710  1.0171
 5281SOL    HW118285   9.080   2.522   1.626 -0.3633 -1.3196  1.9868
 5281SOL    HW218286   8.966   2.527   1.525 -1.3571 -0.7838  3.1104
 5282SOL     OW18287   8.548   4.117   6.704  0.6725 -0.7558  0.3448
 5282SOL    HW118288   8.580   4.090   6.790  0.4048 -0.5751  0.5047
 5282SOL    HW218289   8.534   4.211   6.713  1.6646 -0.5452 -0.2243
 5283SOL     OW18290   2.516   0.741   1.685  0.1243  0.0005  0.1052
 5283SOL    HW118291   2.539   0.764   1.775  1.4697  1.2014 -0.4961
 5283SOL    HW218292   2.601   0.734   1.640 -0.4849 -1.3619 -0.9016
 5284SOL     OW18293   2.854   7.388   1.147  0.1983 -0.5492 -0.1535
 5284SOL    HW118294   2.925   7.394   1.211  1.3301 -1.8090 -1.2391
 5284SOL    HW218295   2.829   7.295   1.148 -0.6413 -0.3334 -0.6095
 5285SOL     OW18296   3.914   3.520   2.783  0.0077 -0.0745  0.1919
 5285SOL    HW118297   3.914   3.553   2.693  0.4985 -1.0227 -0.1711
 5285SOL    HW218298   3.824   3.495   2.800 -0.3705  1.3651  0.4608
 5286SOL     OW18299   2.496   4.396   7.872  0.1506 -0.5646 -0.6316
 5286SOL    HW118300   2.499   4.356   7.960 -1.9739  0.2105 -0.1533
 5286SOL    HW218301   2.425   4.350   7.828  1.2147 -0.9498 -1.9941
 5287SOL     OW18302   0.671   0.865   8.199  0.1845 -0.3469  0.0804
 5287SOL    HW118303   0.715   0.784   8.226  0.6729  0.6076  2.4232
 5287SOL    HW218304   0.578   0.843   8.200  0.3440 -1.0260  0.1972
 5288SOL     OW18305   4.581   5.977   0.279 -0.4562  0.6011 -0.4026
 5288SOL    HW118306   4.545   6.063   0.300 -0.6741  0.0326  1.7101
 5288SOL    HW218307   4.546   5.919   0.345  2.1726 -0.5120  0.1352
 5289SOL     OW18308   3.748   5.433   1.168 -0.0109  0.4424 -0.2520
 5289SOL    HW118309   3.762   5.503   1.232 -2.2344  0.8135 -0.0682
 5289SOL    HW218310   3.729   5.480   1.086 -2.1747  0.1429  0.0216
 5290SOL     OW18311   3.585   6.899   2.868  0.2650 -0.1211  0.1037
 5290SOL    HW118312   3.605   6.952   2.791 -0.3579  0.9904  0.6874
 5290SOL    HW218313   3.596   6.959   2.942 -0.9789 -0.6369  0.7399
 5291SOL     OW18314   0.646   9.762   8.738 -0.8738  0.0935  0.1936
 5291SOL    HW118315   0.741   9.769   8.744 -0.7918  0.4528 -1.2510
 5291SOL    HW218316   0.620   9.715   8.818  0.5363 -0.3129  0.4314
 5292SOL     OW18317   3.489   2.867   5.279  0.0103  0.1340 -0.5893
 5292SOL    HW118318   3.509   2.781   5.244  1.6476  0.9806 -1.8623
 5292SOL    HW218319   3.445   2.913   5.207 -1.0314  0.3156  0.1381
 5293SOL     OW18320   5.280   2.217  10.103  0.0978  0.2163  0.5924
 5293SOL    HW118321   5.367   2.178  10.096 -0.1405 -0.3326  0.6216
 5293SOL    HW218322   5.281   2.291  10.043  0.9677  0.9296  1.4615
 5294SOL     OW18323   7.004   0.590   5.491 -0.1337  0.2065 -0.5220
 5294SOL    HW118324   6.914   0.568   5.517 -0.8465 -0.0719 -2.9597
 5294SOL    HW218325   7.037   0.511   5.448  1.5034  0.1325  0.7748
 5295SOL     OW18326  10.268   8.848   9.758 -0.0196 -0.6626  0.6722
 5295SOL    HW118327  10.285   8.877   9.669  0.4541 -2.4994  0.1194
 5295SOL    HW218328  10.182   8.885   9.779  0.2094  0.4400 -0.2295
 5296SOL     OW18329   5.477   4.113   3.156 -0.0356 -0.3696 -0.1362
 5296SOL    HW118330   5.420   4.038   3.173  0.0463 -0.0090  2.1177
 5296SOL    HW218331   5.493   4.150   3.243  0.6415  1.7346 -1.0999
 5297SOL     OW18332   6.973   2.859   5.537 -0.6080  0.1295  0.6302
 5297SOL    HW118333   7.006   2.948   5.528 -0.4509 -0.0414 -0.5884
 5297SOL    HW218334   6.904   2.852   5.471  0.5691 -1.1828 -0.5219
 5298SOL     OW18335   6.998   8.285   7.439  0.1246  0.4257  0.1793
 5298SOL    HW118336   7.084   8.280   7.482  0.3371 -3.2873 -0.3708
 5298SOL    HW218337   6.935   8.289   7.512  0.6521  1.8887  0.6004
 5299SOL     OW18338   5.469   3.834  10.462 -0.4135 -0.5383  0.2435
 5299SOL    HW118339   5.428   3.920  10.448  0.3327 -0.0225  1.0701
 5299SOL    HW218340   5.520   3.846  10.543 -1.0473 -2.0338  0.8998
 5300SOL     OW18341   6.258   3.106   8.347 -0.4462  0.1247  1.0070
 5300SOL    HW118342   6.313   3.051   8.403  0.9169  1.0316  0.6022
 5300SOL    HW218343   6.312   3.126   8.271 -2.5526 -1.8390 -1.1820
 5301SOL     OW18344   5.761   2.662   7.941  0.6781  0.7674  0.3315
 5301SOL    HW118345   5.714   2.582   7.963  1.4656 -0.1771 -1.2734
 5301SOL    HW218346   5.836   2.633   7.889  0.5607  2.5853 -0.9680
 5302SOL     OW18347   5.205   2.974   2.982 -0.3769 -0.3272  0.0534
 5302SOL    HW118348   5.118   2.995   2.947  0.3572  2.7384 -0.2150
 5302SOL    HW218349   5.265   2.999   2.912  0.7770 -3.0251 -0.0289
 5303SOL     OW18350   8.650   9.668   2.496  0.1216  0.0039 -0.2130
 5303SOL    HW118351   8.696   9.697   2.574 -0.0663 -0.3704  0.0405
 5303SOL    HW218352   8.716   9.672   2.426  0.0176  1.3278 -0.2597
 5304SOL     OW18353   4.630   4.697   4.009 -0.3197 -0.3167  0.3374
 5304SOL    HW118354   4.697   4.739   4.063 -0.5345  1.0242 -0.3899
 5304SOL    HW218355   4.554   4.690   4.067 -0.3351  0.4818  0.4247
 5305SOL     OW18356   4.997   6.173   7.221 -0.0665  0.4069  0.1313
 5305SOL    HW118357   5.002   6.139   7.310 -2.9438  0.1220  0.3027
 5305SOL    HW218358   5.038   6.106   7.166  0.2294 -0.1963  1.0786
 5306SOL     OW18359   6.300   0.149   5.896 -0.1391  0.0169 -0.1355
 5306SOL    HW118360   6.218   0.189   5.868  0.4890  1.7675  0.4047
 5306SOL    HW218361   6.296   0.150   5.992 -0.4061 -1.9273 -0.0842
 5307SOL     OW18362   3.904   5.221   4.192 -0.1262 -0.1622  0.2124
 5307SOL    HW118363   3.932   5.241   4.103  0.9507 -2.6044 -0.0811
 5307SOL    HW218364   3.809   5.205   4.184  0.3981 -3.4697 -1.2716
 5308SOL     OW18365   4.234   2.456   2.110 -0.1352  0.1065  0.2077
 5308SOL    HW118366   4.146   2.432   2.139  0.4575 -1.2164  1.0208
 5308SOL    HW218367   4.259   2.386   2.049  0.8400 -0.2697  1.0071
 5309SOL     OW18368   9.044   0.048   8.822  0.1686 -0.2054  0.2912
 5309SOL    HW118369   9.020   0.090   8.904  0.0229  2.5477 -1.0587
 5309SOL    HW218370   9.139   0.033   8.829  0.1343 -0.1004  1.0075
 5310SOL     OW18371   9.550  10.284   2.431 -0.0889  0.2674 -0.8415
 5310SOL    HW118372   9.591  10.198   2.443  1.4423  1.2423  1.7580
 5310SOL    HW218373   9.624  10.343   2.414 -0.9391  1.3433 -0.8827
 5311SOL     OW18374   1.691   7.618   6.252  0.4331  0.5858 -0.0031
 5311SOL    HW118375   1.675   7.566   6.174 -1.4697  1.3440 -0.1585
 5311SOL    HW218376   1.675   7.708   6.225  1.2938  1.0280  0.8822
 5312SOL     OW18377   8.214   9.763   8.010  0.0983 -0.5343  0.1537
 5312SOL    HW118378   8.196   9.820   7.935 -1.4251 -0.3139  0.6433
 5312SOL    HW218379   8.215   9.675   7.972  1.0170 -0.3030 -0.3782
 5313SOL     OW18380   3.862   6.781   1.501  0.5107  0.3599  0.8025
 5313SOL    HW118381   3.923   6.724   1.548  0.9668 -0.8562 -1.1196
 5313SOL    HW218382   3.775   6.751   1.527  0.7395  0.4431  1.6791
 5314SOL     OW18383   8.724   2.032  10.473  0.3693  0.8447  0.3994
 5314SOL    HW118384   8.741   2.117  10.433 -3.0329  0.1678 -3.1141
 5314SOL    HW218385   8.636   2.041  10.510 -0.2316 -1.2133 -0.4239
 5315SOL     OW18386   7.197   2.768   9.591  0.9255  0.1831  0.1989
 5315SOL    HW118387   7.209   2.710   9.516  2.4807 -0.2640  0.7573
 5315SOL    HW218388   7.107   2.798   9.583  1.2132  0.6162 -2.1603
 5316SOL     OW18389   8.588   0.991   3.617  0.1452 -0.3963 -0.1007
 5316SOL    HW118390   8.616   0.917   3.563 -0.3566  0.9706 -2.3932
 5316SOL    HW218391   8.517   0.957   3.670  0.3447 -1.7148 -0.6442
 5317SOL     OW18392   8.526   6.196   5.598 -0.1500 -0.0955 -0.2650
 5317SOL    HW118393   8.510   6.104   5.579 -1.4908 -0.2454  1.3112
 5317SOL    HW218394   8.619   6.208   5.581  0.5436 -2.2929  1.4638
 5318SOL     OW18395   8.688   8.079  10.080  0.1651 -0.5899  0.4814
 5318SOL    HW118396   8.637   8.145  10.127  0.5593  0.1835 -0.1427
 5318SOL    HW218397   8.762   8.128  10.044  0.4944 -1.3913  0.0457
 5319SOL     OW18398   7.702  10.324   3.799  0.3112 -0.0043  0.0420
 5319SOL    HW118399   7.768  10.377   3.755  0.3713  0.1857  0.3560
 5319SOL    HW218400   7.747  10.289   3.876  0.7726 -1.8669 -1.0158
 5320SOL     OW18401   5.496   6.060   1.382 -0.2134 -0.3759 -0.3054
 5320SOL    HW118402   5.404   6.033   1.383 -0.2886 -0.1559  1.8152
 5320SOL    HW218403   5.532   6.026   1.463  1.0900  1.2113 -0.1795
 5321SOL     OW18404   3.307   2.026   3.890 -0.7624 -0.0281 -0.4529
 5321SOL    HW118405   3.278   1.979   3.812 -0.6462 -1.1314  0.1514
 5321SOL    HW218406   3.236   2.012   3.953 -0.3556 -0.0612 -0.0041
 5322SOL     OW18407   7.663   8.970   2.628 -0.2097 -0.0338 -0.0637
 5322SOL    HW118408   7.571   8.998   2.626 -0.8743 -2.0668 -0.7326
 5322SOL    HW218409   7.704   9.026   2.695 -1.5526  1.9255 -0.7792
 5323SOL     OW18410   4.558   1.916   5.585  0.3219  0.4794 -0.4178
 5323SOL    HW118411   4.522   1.836   5.624  0.2844 -0.4081 -2.1993
 5323SOL    HW218412   4.641   1.888   5.546  2.0825  2.0728  1.8992
 5324SOL     OW18413   2.257   6.735  10.379 -0.2531 -0.4935 -0.2323
 5324SOL    HW118414   2.329   6.734  10.316 -0.6716  1.3791 -0.7941
 5324SOL    HW218415   2.233   6.643  10.389  0.7439 -0.9559 -1.7242
 5325SOL     OW18416   4.269   3.401   4.615  0.1878  0.2648 -0.6491
 5325SOL    HW118417   4.243   3.493   4.628 -0.4091  0.2030 -1.3947
 5325SOL    HW218418   4.346   3.391   4.671  0.6809  1.4216 -1.0810
 5326SOL     OW18419   1.886   6.041   6.113  0.2569 -0.1697 -0.0026
 5326SOL    HW118420   1.903   6.064   6.022 -0.1424 -0.1061 -0.0656
 5326SOL    HW218421   1.811   5.981   6.109  0.1161 -0.0176  0.2941
 5327SOL     OW18422   9.530   9.487   6.981 -0.1116  0.1913 -0.1598
 5327SOL    HW118423   9.452   9.510   7.032  0.1425 -0.1749  0.4136
 5327SOL    HW218424   9.497   9.441   6.904 -0.5641  1.6078 -0.8356
 5328SOL     OW18425   7.210   2.359   0.897 -0.4046 -0.0562 -0.3098
 5328SOL    HW118426   7.141   2.364   0.963 -0.3519 -2.8460  0.0821
 5328SOL    HW218427   7.170   2.314   0.823  0.8758 -1.5726 -0.1394
 5329SOL     OW18428   8.926   8.340   5.013 -0.2452  0.7199  0.0037
 5329SOL    HW118429   8.856   8.349   5.077 -0.3566 -0.6805  0.1162
 5329SOL    HW218430   8.907   8.406   4.946 -2.2705 -0.2749 -0.4949
 5330SOL     OW18431   6.207   6.958   5.119 -0.4132 -0.1356  0.2382
 5330SOL    HW118432   6.116   6.956   5.150 -0.5337  0.0691 -0.0981
 5330SOL    HW218433   6.228   7.051   5.112  0.2217 -0.1661  1.4385
 5331SOL     OW18434   0.518   2.498   3.624 -0.0064  0.0119 -0.1392
 5331SOL    HW118435   0.506   2.434   3.554 -0.7309 -0.8206  0.7234
 5331SOL    HW218436   0.515   2.447   3.704 -1.7592  1.2652  0.6436
 5332SOL     OW18437   0.920   9.195  10.316 -0.4132 -0.0012 -0.2056
 5332SOL    HW118438   0.854   9.159  10.257 -0.9193  0.4148  0.0976
 5332SOL    HW218439   0.978   9.121  10.335  0.7666  0.2419 -2.5332
 5333SOL     OW18440   9.422   4.875   4.494  0.4504  0.4497  0.0912
 5333SOL    HW118441   9.431   4.797   4.550  0.4616  0.3512 -0.0487
 5333SOL    HW218442   9.507   4.919   4.502  0.9931 -0.3480 -1.0217
 5334SOL     OW18443   9.187   7.012  10.207 -0.2905 -0.3305 -0.1979
 5334SOL    HW118444   9.211   7.006  10.299 -2.0228  1.5911  0.4717
 5334SOL    HW218445   9.131   6.936  10.191  0.3303 -0.8795  0.2142
 5335SOL     OW18446   7.709   4.492   4.569  0.5599 -0.5973  0.4763
 5335SOL    HW118447   7.714   4.396   4.570 -0.0025 -0.6447 -0.4399
 5335SOL    HW218448   7.666   4.514   4.651 -0.7165 -1.2331  0.0049
 5336SOL     OW18449   9.642   7.250   0.194 -0.2128  0.5410 -0.0656
 5336SOL    HW118450   9.702   7.197   0.248  2.5249  3.0903 -0.3338
 5336SOL    HW218451   9.615   7.321   0.253  0.6439  1.8505 -1.1969
 5337SOL     OW18452   7.009   6.325   8.761 -0.4979  0.6923  0.1440
 5337SOL    HW118453   6.964   6.256   8.809 -0.7726 -0.1184 -1.2392
 5337SOL    HW218454   6.983   6.312   8.670  0.3337  1.9366 -0.2973
 5338SOL     OW18455   4.106   7.052   1.744  0.5764 -0.0505  0.1019
 5338SOL    HW118456   4.119   7.107   1.821 -0.5011 -0.1379  0.3558
 5338SOL    HW218457   4.064   6.973   1.778  1.4665 -0.7489 -0.3589
 5339SOL     OW18458   8.305   8.404   7.634  0.2793  0.4986 -0.3379
 5339SOL    HW118459   8.395   8.434   7.627  0.3605 -0.0247 -1.8130
 5339SOL    HW218460   8.307   8.313   7.604 -1.0124  1.0051 -2.1023
 5340SOL     OW18461   0.779   9.339   3.092  0.4911 -0.0191  0.3720
 5340SOL    HW118462   0.791   9.290   3.174  0.5449 -4.0798 -1.7798
 5340SOL    HW218463   0.868   9.359   3.063  0.5711 -0.2263  0.4675
 5341SOL     OW18464   1.383   1.795   6.427 -0.3182  0.2794 -0.1324
 5341SOL    HW118465   1.411   1.885   6.442  2.2290 -0.3642 -0.5379
 5341SOL    HW218466   1.352   1.764   6.512  1.0594  0.8136  0.5800
 5342SOL     OW18467   1.268   4.255   3.353  0.2134  0.4131 -0.2878
 5342SOL    HW118468   1.185   4.261   3.305  1.2206 -0.2597 -2.1763
 5342SOL    HW218469   1.242   4.259   3.445 -1.8686  0.7394 -0.8397
 5343SOL     OW18470   7.946   6.799   5.117 -0.5634 -0.1643  0.5186
 5343SOL    HW118471   7.884   6.747   5.065 -1.6651  1.1809  0.4274
 5343SOL    HW218472   8.031   6.781   5.078 -1.1035 -0.7977 -0.4095
 5344SOL     OW18473   8.348   3.034   0.156  0.1830  0.1534 -0.7376
 5344SOL    HW118474   8.283   3.057   0.222 -1.2384 -0.4214 -1.8866
 5344SOL    HW218475   8.329   2.942   0.135  0.0415  0.5593 -2.5362
 5345SOL     OW18476   6.934   8.473   2.418 -0.1142  0.7712 -0.1627
 5345SOL    HW118477   6.880   8.419   2.360  0.4248 -0.2860  0.2832
 5345SOL    HW218478   6.974   8.410   2.478  1.5426  1.5395 -0.4225
 5346SOL     OW18479   6.602   7.669   5.668 -0.2374  0.1721  0.0973
 5346SOL    HW118480   6.693   7.698   5.676  0.3719 -1.2730 -1.0832
 5346SOL    HW218481   6.590   7.653   5.575 -1.0865 -1.4471  0.4423
 5347SOL     OW18482   5.357   3.608   3.406  0.4753 -1.0419  0.1327
 5347SOL    HW118483   5.313   3.613   3.491  2.6851 -0.5082  1.3374
 5347SOL    HW218484   5.287   3.598   3.343 -1.3385 -0.3040  1.9199
 5348SOL     OW18485   8.002   4.796   3.899  0.5462 -0.1602 -0.3629
 5348SOL    HW118486   8.096   4.784   3.885  0.7821 -0.4361  1.1799
 5348SOL    HW218487   7.970   4.838   3.820  2.1498  0.7729 -0.5447
 5349SOL     OW18488   1.639   4.750   4.592 -0.1285 -0.1480  0.6678
 5349SOL    HW118489   1.696   4.782   4.661 -1.3631 -0.0525  1.6709
 5349SOL    HW218490   1.689   4.679   4.551  0.4835 -0.4263  1.8677
 5350SOL     OW18491   2.160  10.325   2.827  0.0417  0.0485  0.6672
 5350SOL    HW118492   2.150  10.258   2.896 -1.0898  0.7496  1.2265
 5350SOL    HW218493   2.208  10.396   2.870  0.9024 -0.2389  0.1897
 5351SOL     OW18494   6.710   6.084   1.639 -0.0950 -0.6878  0.5508
 5351SOL    HW118495   6.765   6.162   1.639 -0.2255 -0.5352  2.5216
 5351SOL    HW218496   6.771   6.011   1.634  0.2421 -0.4886  1.4528
 5352SOL     OW18497   4.162   2.250   1.596 -0.1678  1.4713 -0.0154
 5352SOL    HW118498   4.130   2.183   1.536  1.3205  2.8131 -2.4742
 5352SOL    HW218499   4.120   2.331   1.565 -0.1898  2.0466  1.4574
 5353SOL     OW18500   4.604   0.488   1.757  0.1007 -0.5277  0.2135
 5353SOL    HW118501   4.610   0.523   1.846 -0.3994  0.0903  0.0087
 5353SOL    HW218502   4.549   0.550   1.710 -1.1787 -1.8121 -0.0519
 5354SOL     OW18503   2.074   3.062   8.539  0.0699 -0.0018  0.0218
 5354SOL    HW118504   2.017   2.990   8.567 -1.8093  0.7893 -1.5500
 5354SOL    HW218505   2.087   3.047   8.445 -1.0519  2.1054 -0.5240
 5355SOL     OW18506   0.761   3.474   7.113  0.1047  0.0004 -0.0702
 5355SOL    HW118507   0.855   3.486   7.101  0.1301 -0.2719 -0.1565
 5355SOL    HW218508   0.721   3.541   7.058  0.2493  0.2392  0.1121
 5356SOL     OW18509   8.586   5.152   8.751  0.1200  0.2308 -0.8128
 5356SOL    HW118510   8.647   5.134   8.822 -0.9156  1.8838  0.5733
 5356SOL    HW218511   8.631   5.215   8.696  0.2552  0.2850 -0.6411
 5357SOL     OW18512   3.808   3.342   1.561  0.4017 -0.0303 -0.2016
 5357SOL    HW118513   3.768   3.256   1.576 -0.6403  0.5345  0.3017
 5357SOL    HW218514   3.813   3.349   1.465 -0.2408 -0.3161 -0.2630
 5358SOL     OW18515   3.267   0.562   5.112 -0.5035 -1.0181 -0.5213
 5358SOL    HW118516   3.278   0.480   5.161 -0.8992 -1.9659 -1.9566
 5358SOL    HW218517   3.204   0.612   5.165  1.1566 -0.7654  1.3599
 5359SOL     OW18518   9.711   3.460   5.385  0.4021  0.5506 -0.1045
 5359SOL    HW118519   9.636   3.407   5.359  1.0613 -0.0472 -0.8299
 5359SOL    HW218520   9.681   3.550   5.378 -0.3422  0.3060 -0.0847
 5360SOL     OW18521   3.130   1.159   1.910 -0.1421  0.1276 -0.2116
 5360SOL    HW118522   3.175   1.241   1.890 -0.3233 -0.4190 -3.1995
 5360SOL    HW218523   3.144   1.147   2.004  1.7010  2.4695 -0.0940
 5361SOL     OW18524   8.201   2.052   2.458  0.0400  0.0306  0.3395
 5361SOL    HW118525   8.228   2.093   2.540  0.7602 -0.2135  0.2318
 5361SOL    HW218526   8.180   1.962   2.482 -1.4968  0.4291  0.5679
 5362SOL     OW18527   9.927   1.485   5.445 -0.1479 -0.1889  0.6269
 5362SOL    HW118528   9.878   1.486   5.363  1.7443 -0.1364 -0.5558
 5362SOL    HW218529   9.898   1.564   5.491  0.1236  0.8254 -0.8678
 5363SOL     OW18530  10.264   9.073   1.553 -0.4403  0.0940 -0.5836
 5363SOL    HW118531  10.285   8.979   1.552 -0.6615  0.0434 -0.5864
 5363SOL    HW218532  10.174   9.077   1.584 -2.3126 -0.0660 -5.2111
 5364SOL     OW18533   8.081   5.381   5.500  0.5057  0.3909 -0.6914
 5364SOL    HW118534   8.173   5.359   5.484  1.0037  1.2211  0.7959
 5364SOL    HW218535   8.078   5.476   5.493 -0.2813  0.3575 -0.8759
 5365SOL     OW18536   6.040   0.689   5.859 -0.6297 -0.2554  0.1687
 5365SOL    HW118537   6.021   0.597   5.879 -0.6441 -0.2520  0.1706
 5365SOL    HW218538   5.956   0.733   5.870 -0.6444 -0.2588  0.0680
 5366SOL     OW18539   4.701   6.993   5.259  0.2585 -0.3101  1.1398
 5366SOL    HW118540   4.614   6.978   5.221  0.7371 -1.1724  0.3397
 5366SOL    HW218541   4.756   6.926   5.219  1.8158  1.6054 -0.1664
 5367SOL     OW18542   3.006   3.596   2.959 -0.2951 -0.1352  0.3796
 5367SOL    HW118543   3.083   3.542   2.978  0.5058  1.2301  1.1738
 5367SOL    HW218544   3.039   3.663   2.900 -1.1981 -0.2746 -0.3056
 5368SOL     OW18545   8.244   3.182   2.691  0.2699 -0.0605 -0.0025
 5368SOL    HW118546   8.310   3.247   2.717  1.1555 -1.5308  1.6726
 5368SOL    HW218547   8.290   3.123   2.632 -0.1879  0.1567 -0.5786
 5369SOL     OW18548   7.302   5.866   6.887  0.1859 -0.1809 -0.1164
 5369SOL    HW118549   7.275   5.863   6.979 -3.1314  0.7243 -0.9390
 5369SOL    HW218550   7.344   5.952   6.878 -2.1653  1.0476 -0.0116
 5370SOL     OW18551   9.729   8.267   8.433 -0.1676  0.2452 -0.6711
 5370SOL    HW118552   9.645   8.244   8.393 -0.8732  3.0902 -1.0353
 5370SOL    HW218553   9.708   8.336   8.495  1.8218  0.4100 -0.1114
 5371SOL     OW18554   7.805   2.307   5.972 -0.0013  0.1991  0.7425
 5371SOL    HW118555   7.747   2.247   5.925  0.3987 -0.2673  0.8365
 5371SOL    HW218556   7.772   2.394   5.951  1.9359  0.2483 -2.9123
 5372SOL     OW18557   6.225   9.421   5.404 -0.3043  0.2277  0.1206
 5372SOL    HW118558   6.161   9.479   5.362  0.1411  0.4738 -0.2396
 5372SOL    HW218559   6.175   9.344   5.431 -1.0530  1.0802  1.2519
 5373SOL     OW18560   6.902   1.966   6.677 -0.2419 -0.1191 -0.4781
 5373SOL    HW118561   6.948   1.883   6.663 -0.8753 -0.3668 -1.1648
 5373SOL    HW218562   6.970   2.033   6.671  0.1318 -0.5240 -0.7956
 5374SOL     OW18563   4.808   8.281   2.186 -0.7278  0.0487 -0.4397
 5374SOL    HW118564   4.868   8.336   2.235  0.4744  1.0972 -2.9036
 5374SOL    HW218565   4.858   8.252   2.110 -2.3525 -1.7959 -0.9139
 5375SOL     OW18566   1.849   0.246   5.908  0.9137 -0.9373  0.2037
 5375SOL    HW118567   1.943   0.230   5.912  0.9649 -2.4793 -3.1556
 5375SOL    HW218568   1.815   0.175   5.853 -2.1986 -0.3132  1.1196
 5376SOL     OW18569   2.562   3.732   5.403 -0.3084  0.3919 -0.2630
 5376SOL    HW118570   2.578   3.790   5.329 -1.6841  1.4242  0.2168
 5376SOL    HW218571   2.550   3.646   5.363 -4.1875  1.4036 -1.6781
 5377SOL     OW18572   3.741   5.619   1.340 -0.3226 -0.4250 -0.5042
 5377SOL    HW118573   3.767   5.630   1.432  0.1318 -1.3121 -0.5155
 5377SOL    HW218574   3.653   5.654   1.336 -0.9086 -1.6808  0.6020
 5378SOL     OW18575   6.970   6.388   5.701 -0.6695 -0.3603  0.7846
 5378SOL    HW118576   7.042   6.333   5.733  0.1806  0.4000  0.2207
 5378SOL    HW218577   7.010   6.444   5.634 -1.7026  0.3385  0.7268
 5379SOL     OW18578   4.500   4.123   8.642  0.0383 -0.1601  0.2036
 5379SOL    HW118579   4.484   4.067   8.718  0.7064  0.6518  0.9650
 5379SOL    HW218580   4.439   4.091   8.575 -1.6927  0.1023  1.5730
 5380SOL     OW18581   2.852   0.353   9.521  0.0540 -0.0798  0.3360
 5380SOL    HW118582   2.938   0.346   9.562 -0.4581  1.7253  1.8834
 5380SOL    HW218583   2.869   0.387   9.433  1.0165 -1.7065 -0.1438
 5381SOL     OW18584   5.845   4.527   0.679  0.0454 -0.2682  0.0261
 5381SOL    HW118585   5.843   4.557   0.588 -0.3453  0.4375  0.2604
 5381SOL    HW218586   5.762   4.557   0.716  0.9425  1.0390  1.0928
 5382SOL     OW18587   6.804   7.331  10.144 -0.2164 -0.2728  0.6314
 5382SOL    HW118588   6.755   7.253  10.169  0.3179 -0.0050  2.7826
 5382SOL    HW218589   6.889   7.298  10.115 -0.7848 -0.5909 -0.7316
 5383SOL     OW18590   7.376   6.275   0.419 -0.4926 -0.1979  0.2047
 5383SOL    HW118591   7.418   6.327   0.351  0.7887 -0.8008  0.4980
 5383SOL    HW218592   7.290   6.253   0.383  0.3605 -0.9887 -1.4828
 5384SOL     OW18593   4.416   7.544   3.613  0.6131  0.4520  0.0881
 5384SOL    HW118594   4.434   7.577   3.701 -0.0091 -1.5127  1.0008
 5384SOL    HW218595   4.340   7.595   3.584 -0.1182  0.1165  1.3215
 5385SOL     OW18596   3.586   6.623   1.241  0.1599  0.3032 -0.7992
 5385SOL    HW118597   3.609   6.651   1.152  1.0647 -0.7416 -0.9284
 5385SOL    HW218598   3.656   6.561   1.265  0.5204  1.3595  1.0536
 5386SOL     OW18599   8.778   8.361   4.074 -0.1065  0.1441 -0.0462
 5386SOL    HW118600   8.867   8.361   4.039 -0.6117 -0.9879 -1.4414
 5386SOL    HW218601   8.739   8.442   4.041 -0.1476 -0.2543 -1.0201
 5387SOL     OW18602  10.207   8.401   9.298  0.0893  0.1519 -0.0216
 5387SOL    HW118603  10.183   8.309   9.290  0.3738  0.0850 -0.1129
 5387SOL    HW218604  10.241   8.424   9.211 -0.7923  0.5775 -0.2772
 5388SOL     OW18605   0.575   1.985   9.559 -0.3143  0.0422 -0.1770
 5388SOL    HW118606   0.490   1.976   9.516  0.5724  0.5025 -2.1384
 5388SOL    HW218607   0.634   2.014   9.490  1.3298  0.3231  1.2697
 5389SOL     OW18608   2.653   0.201   3.305 -0.0966  0.2288  1.0847
 5389SOL    HW118609   2.733   0.246   3.332  0.5699  0.1787 -0.6795
 5389SOL    HW218610   2.662   0.112   3.340  1.8490 -0.5403 -1.1413
 5390SOL     OW18611   9.093   1.024   5.692  0.7891  0.3701 -0.1478
 5390SOL    HW118612   9.134   1.096   5.739  2.1557 -0.6319  0.2607
 5390SOL    HW218613   9.160   0.955   5.690 -0.5034 -0.9305 -0.4255
 5391SOL     OW18614   2.571   7.131   1.037  0.3027 -0.4235 -0.0042
 5391SOL    HW118615   2.512   7.169   1.102  1.1375 -0.6119  0.8704
 5391SOL    HW218616   2.521   7.058   1.000 -0.5164  0.2337 -0.2376
 5392SOL     OW18617   7.122   7.011   0.297 -0.0257 -0.2854 -0.3038
 5392SOL    HW118618   7.169   6.944   0.248  0.7188 -0.9353  1.2151
 5392SOL    HW218619   7.165   7.012   0.382 -2.8492 -1.0563  1.2857
 5393SOL     OW18620   4.714   9.467   8.409  0.1928  0.0491 -0.5044
 5393SOL    HW118621   4.734   9.548   8.362  2.0112 -0.4633 -0.7071
 5393SOL    HW218622   4.669   9.496   8.488  1.6617  1.3585 -0.0920
 5394SOL     OW18623   8.480   9.769   6.091  0.4099 -0.1656  0.7442
 5394SOL    HW118624   8.421   9.844   6.080  0.2999 -0.1979  1.0860
 5394SOL    HW218625   8.426   9.692   6.076  0.7229 -0.1597 -0.4718
 5395SOL     OW18626   1.947   1.040   5.714 -0.0144 -0.6447 -0.2625
 5395SOL    HW118627   1.969   1.001   5.630 -0.2861  0.8448 -1.0648
 5395SOL    HW218628   1.913   0.967   5.766  2.7155 -2.1572 -0.4307
 5396SOL     OW18629   1.084   7.183   6.078 -0.2085  0.2313  0.6975
 5396SOL    HW118630   1.093   7.210   6.169 -1.2447  1.8753  0.3626
 5396SOL    HW218631   0.990   7.165   6.068 -0.1250  0.1889 -0.0715
 5397SOL     OW18632   9.684   4.455   9.283 -0.0991  0.2952 -0.1475
 5397SOL    HW118633   9.698   4.483   9.374  2.2744 -1.0461 -0.0280
 5397SOL    HW218634   9.771   4.433   9.251 -1.0856 -0.8231 -2.2429
 5398SOL     OW18635   8.336  10.286   1.695 -0.6584 -0.0649 -0.2061
 5398SOL    HW118636   8.361  10.356   1.634 -0.8376 -0.4764 -0.7658
 5398SOL    HW218637   8.285  10.330   1.763  0.5210  0.5879  0.2878
 5399SOL     OW18638   1.443   3.517   7.172 -0.3263 -0.0950 -0.1856
 5399SOL    HW118639   1.400   3.584   7.226 -0.1205  0.5697 -0.8249
 5399SOL    HW218640   1.536   3.539   7.178 -0.2928 -0.0737 -0.7189
 5400SOL     OW18641   8.689   0.708   2.205 -0.0113  0.1632  0.2770
 5400SOL    HW118642   8.766   0.705   2.261  0.1313  2.1116  0.2604
 5400SOL    HW218643   8.724   0.710   2.116 -0.0200  1.5622  0.2824
 5401SOL     OW18644   9.288  10.485   4.136 -0.2262  0.4185 -0.1099
 5401SOL    HW118645   9.292  10.475   4.231 -0.5442  1.2067 -0.0063
 5401SOL    HW218646   9.375  10.458   4.106  0.1327  0.8843  0.4806
 5402SOL     OW18647   9.301   2.577   2.165 -0.2890 -0.0426  0.2985
 5402SOL    HW118648   9.352   2.633   2.107 -1.7886  0.6794 -0.3675
 5402SOL    HW218649   9.303   2.622   2.249 -1.9476  1.3569 -0.3685
 5403SOL     OW18650   0.613   4.803   0.462  0.4486  0.0955 -0.2383
 5403SOL    HW118651   0.701   4.829   0.433 -0.4764  0.4021 -3.1018
 5403SOL    HW218652   0.555   4.830   0.390 -1.9924 -0.2450  1.4683
 5404SOL     OW18653   1.299   1.419   7.934  0.1609 -0.2061 -0.3841
 5404SOL    HW118654   1.390   1.390   7.941  0.2482  0.0666 -0.3532
 5404SOL    HW218655   1.263   1.407   8.022  0.0289 -0.7529 -0.5077
 5405SOL     OW18656   0.561   0.701   1.450 -0.1511  0.0834  0.3048
 5405SOL    HW118657   0.509   0.621   1.453 -0.9160  0.5202 -0.7021
 5405SOL    HW218658   0.537   0.748   1.529 -0.2736 -0.3357  0.5214
 5406SOL     OW18659   4.488   9.180   5.791  0.2801 -0.7085 -0.1340
 5406SOL    HW118660   4.570   9.230   5.788 -0.0382 -0.1288  0.6707
 5406SOL    HW218661   4.489   9.137   5.876 -0.2139 -0.7725 -0.1592
 5407SOL     OW18662   7.834   1.093   4.734 -0.6256  0.0003  0.3564
 5407SOL    HW118663   7.856   1.174   4.687 -1.3770 -0.9719 -1.8341
 5407SOL    HW218664   7.819   1.029   4.664 -1.5041 -1.6560  1.9878
 5408SOL     OW18665   6.197   4.215   1.549 -0.0767  0.0947  0.3784
 5408SOL    HW118666   6.271   4.218   1.609  0.3918 -1.0025 -0.1266
 5408SOL    HW218667   6.161   4.127   1.560  0.5586 -0.4512 -1.5720
 5409SOL     OW18668   6.043   6.533   3.886 -0.0577 -0.4667  0.2958
 5409SOL    HW118669   5.974   6.597   3.903  0.2100 -0.0811 -0.0613
 5409SOL    HW218670   6.014   6.486   3.809 -0.3241 -0.8784  0.6433
 5410SOL     OW18671   7.352   3.129   4.561  0.2490  0.7012  0.8575
 5410SOL    HW118672   7.442   3.111   4.533  0.2728 -0.0768  1.3932
 5410SOL    HW218673   7.358   3.140   4.656 -0.4363 -1.0710  1.1558
 5411SOL     OW18674   3.950   9.695   9.466  0.2220  0.0075 -0.0640
 5411SOL    HW118675   3.891   9.770   9.461  2.8389  2.1503 -1.3546
 5411SOL    HW218676   4.029   9.729   9.507  0.9694 -2.4943  0.7688
 5412SOL     OW18677   2.189   8.854   4.436 -0.3237 -0.6370  0.0828
 5412SOL    HW118678   2.235   8.860   4.519  0.9158 -1.0855 -0.5470
 5412SOL    HW218679   2.245   8.900   4.373  1.0170 -3.8831 -1.3760
 5413SOL     OW18680   7.955   7.153   3.419  0.1933  0.1294 -0.0923
 5413SOL    HW118681   7.989   7.242   3.427 -0.2261  0.2175  0.8721
 5413SOL    HW218682   8.013   7.099   3.473  0.6908 -0.2642 -0.9986
 5414SOL     OW18683   6.059  10.265   5.734  0.4684  0.3376 -0.0865
 5414SOL    HW118684   6.057  10.338   5.796 -0.2248  1.0657 -0.9352
 5414SOL    HW218685   6.103  10.194   5.781  0.3266  1.0057  1.0803
 5415SOL     OW18686   1.593   1.197   1.425 -0.0124  0.1902 -0.1740
 5415SOL    HW118687   1.625   1.266   1.483 -1.0108  0.5624 -0.0395
 5415SOL    HW218688   1.500   1.219   1.411  0.2094  0.1379 -1.9539
 5416SOL     OW18689   2.934   3.344   2.723 -0.1233 -0.1192 -0.0658
 5416SOL    HW118690   2.945   3.286   2.648 -0.6375  0.5178 -0.6588
 5416SOL    HW218691   2.961   3.430   2.691 -0.1529  0.1235  0.5427
 5417SOL     OW18692   1.515   3.007   4.896  0.1251 -0.4158  0.0775
 5417SOL    HW118693   1.472   2.983   4.814 -0.1346 -1.9676  0.6327
 5417SOL    HW218694   1.487   3.097   4.913 -0.4191 -0.3411 -1.1383
 5418SOL     OW18695   6.848   0.282   1.441 -0.4662  0.2771 -0.2578
 5418SOL    HW118696   6.859   0.377   1.450 -1.0025  0.1903  1.6159
 5418SOL    HW218697   6.796   0.256   1.516  0.4827 -1.6621 -0.1954
 5419SOL     OW18698  10.257   4.389   3.782  0.4910  0.2798  0.3673
 5419SOL    HW118699  10.336   4.378   3.835 -0.6068  1.2502  2.3119
 5419SOL    HW218700  10.240   4.483   3.784 -2.1627 -0.0979  2.3618
 5420SOL     OW18701   2.300   7.469   5.482 -0.4432  0.5336  0.6258
 5420SOL    HW118702   2.273   7.483   5.391 -0.3756  1.4096  0.7355
 5420SOL    HW218703   2.351   7.387   5.480  1.3348  1.6073 -0.5052
 5421SOL     OW18704   0.526   9.202   1.224 -0.0523  0.3556  0.4109
 5421SOL    HW118705   0.461   9.178   1.291  0.9478  1.5833  1.8786
 5421SOL    HW218706   0.566   9.282   1.257  0.8146  0.7397 -1.4648
 5422SOL     OW18707   8.316   8.714   8.255 -0.4996  0.6726  0.5550
 5422SOL    HW118708   8.223   8.692   8.256 -0.3950  0.1040 -1.1078
 5422SOL    HW218709   8.320   8.797   8.207 -0.0709  0.2888 -0.0768
 5423SOL     OW18710   1.504   0.676   6.184  0.3184 -0.5084 -0.3980
 5423SOL    HW118711   1.531   0.645   6.271 -0.5686  1.6996  0.7578
 5423SOL    HW218712   1.586   0.685   6.135  1.1585  0.6641  1.1130
 5424SOL     OW18713   2.333   7.750   2.760 -0.6366  0.2256  0.1530
 5424SOL    HW118714   2.290   7.797   2.689  0.5602 -0.4237 -1.0570
 5424SOL    HW218715   2.361   7.818   2.822 -2.4229  0.7345  0.4564
 5425SOL     OW18716   3.738   8.882   6.145 -0.2095  0.3072  0.0253
 5425SOL    HW118717   3.831   8.902   6.133 -0.2821  0.2290 -0.7278
 5425SOL    HW218718   3.694   8.933   6.076 -0.5223 -1.4015 -1.0858
 5426SOL     OW18719   4.657   7.109   7.096 -0.3468 -0.6297 -0.0817
 5426SOL    HW118720   4.740   7.132   7.053 -0.0677 -0.0246  0.7562
 5426SOL    HW218721   4.615   7.049   7.034  0.2833 -0.2117 -0.9538
 5427SOL     OW18722  10.146   0.810   7.147 -0.7919 -0.1693  0.1955
 5427SOL    HW118723  10.180   0.764   7.224  0.6686  0.8065  0.1766
 5427SOL    HW218724  10.087   0.877   7.183 -0.7667 -0.2594  0.4073
 5428SOL     OW18725   0.953   2.452   1.999 -0.3368 -0.3016  0.3759
 5428SOL    HW118726   0.871   2.425   2.039 -0.3042 -2.5545 -0.8958
 5428SOL    HW218727   0.927   2.493   1.916 -0.2046 -0.7070  0.1310
 5429SOL     OW18728   4.525   2.728   5.439  0.1671  0.3575  0.0966
 5429SOL    HW118729   4.498   2.701   5.526  2.1602 -0.0622  0.6206
 5429SOL    HW218730   4.557   2.649   5.397 -1.7528  0.3199 -1.4760
 5430SOL     OW18731  10.453   0.342   4.678  0.3666 -0.5689  0.0965
 5430SOL    HW118732  10.529   0.291   4.649 -0.2564 -1.8535  0.6576
 5430SOL    HW218733  10.378   0.300   4.635  0.0302  1.3702 -1.3627
 5431SOL     OW18734   0.256   7.618   2.995 -0.0311 -0.8183 -0.0610
 5431SOL    HW118735   0.310   7.696   3.007 -1.0337 -0.0411 -0.4048
 5431SOL    HW218736   0.309   7.560   2.941  1.2266 -0.9158  1.2187
 5432SOL     OW18737   8.464   3.281   9.299 -0.8309 -0.1134 -0.1447
 5432SOL    HW118738   8.372   3.307   9.297 -0.7387  0.4489  1.3677
 5432SOL    HW218739   8.466   3.196   9.254 -2.2597 -0.5830  0.5989
 5433SOL     OW18740   9.920   4.583   1.594  0.0988 -0.2073  0.5297
 5433SOL    HW118741   9.904   4.633   1.514  0.1387  0.8664  1.1738
 5433SOL    HW218742   9.944   4.649   1.659  0.8255 -1.1366  1.2353
 5434SOL     OW18743   6.133   0.148  10.349 -0.1663  1.3437  0.4438
 5434SOL    HW118744   6.155   0.100  10.270 -0.9969 -2.2509  2.1436
 5434SOL    HW218745   6.202   0.213  10.359  2.5984 -1.2013 -0.8014
 5435SOL     OW18746   0.231   4.798   4.398  0.2119 -0.2457 -0.2440
 5435SOL    HW118747   0.297   4.795   4.329  1.4239 -0.1714  0.8942
 5435SOL    HW218748   0.264   4.861   4.462 -0.3922 -1.0603  0.9102
 5436SOL     OW18749   9.178   8.424   4.817 -0.0431 -0.1160  0.7662
 5436SOL    HW118750   9.269   8.453   4.804 -0.8478  2.5982  0.6301
 5436SOL    HW218751   9.184   8.354   4.882  2.1460 -0.0803  0.6825
 5437SOL     OW18752   2.428   2.971   9.823  0.2435  0.0338 -0.0100
 5437SOL    HW118753   2.431   2.950   9.917 -1.2984  2.7308  0.7491
 5437SOL    HW218754   2.368   2.908   9.786  0.1291 -0.4786  1.0021
 5438SOL     OW18755   2.520   4.443  10.434  0.2732  0.4019 -0.2212
 5438SOL    HW118756   2.483   4.362  10.469  1.4683  0.0295  0.2247
 5438SOL    HW218757   2.568   4.416  10.356  1.0546  0.5995  0.1814
 5439SOL     OW18758   8.274  10.358  10.275 -0.0035 -0.2396  0.2771
 5439SOL    HW118759   8.196  10.389  10.229 -0.3026  0.0857  0.9911
 5439SOL    HW218760   8.262  10.263  10.282 -1.0107 -0.0382  1.5956
 5440SOL     OW18761   9.338   3.174   4.372 -0.1318  0.0937 -0.2004
 5440SOL    HW118762   9.326   3.226   4.452 -0.1623  0.5102 -0.4699
 5440SOL    HW218763   9.425   3.201   4.340  0.2180 -0.6434  0.1019
 5441SOL     OW18764   7.790   0.047  10.084 -0.2114  0.4055 -0.5600
 5441SOL    HW118765   7.867   0.064  10.138 -0.1321  0.4855 -0.6968
 5441SOL    HW218766   7.818   0.070   9.995  0.4432 -1.9761 -1.0455
 5442SOL     OW18767   0.146   4.848   1.258 -0.4007  0.7033 -0.0250
 5442SOL    HW118768   0.108   4.912   1.318  0.1819  1.7394 -0.7269
 5442SOL    HW218769   0.238   4.843   1.282 -0.8593 -1.7020  1.5804
 5443SOL     OW18770   7.872   2.927   9.781  0.1047  0.1623 -0.5728
 5443SOL    HW118771   7.812   2.858   9.809  1.5994  0.5387  4.3426
 5443SOL    HW218772   7.815   3.001   9.759 -1.3671 -0.5443  0.7025
 5444SOL     OW18773   4.368   5.196   0.864 -0.0842 -0.0732  0.2950
 5444SOL    HW118774   4.305   5.217   0.932  1.6987  2.4332  1.3302
 5444SOL    HW218775   4.435   5.144   0.908 -0.5296 -1.2543 -0.3802
 5445SOL     OW18776   3.902   3.952   7.860 -0.1836 -0.0662  0.3652
 5445SOL    HW118777   3.979   3.971   7.912 -0.5261  0.5346  0.6588
 5445SOL    HW218778   3.896   4.024   7.797  0.4572 -0.9864 -0.7944
 5446SOL     OW18779  10.234   1.176   7.869 -0.4771 -0.1547 -0.0371
 5446SOL    HW118780  10.152   1.207   7.908  0.2481 -0.3675  1.7666
 5446SOL    HW218781  10.294   1.170   7.943  1.5947  1.3198 -1.5111
 5447SOL     OW18782   3.550   2.172   5.734 -0.5492 -0.3605  0.6800
 5447SOL    HW118783   3.603   2.241   5.693  0.5791 -1.2484  0.5917
 5447SOL    HW218784   3.463   2.212   5.745 -0.7454  0.1246 -2.0076
 5448SOL     OW18785   2.608   0.144   2.213 -0.2389  0.6324 -0.0343
 5448SOL    HW118786   2.695   0.183   2.217  0.6437 -0.6594 -3.5242
 5448SOL    HW218787   2.550   0.217   2.190  0.4628  0.9131 -0.9527
 5449SOL     OW18788   0.522   4.320   3.824  0.0944  0.9000 -0.3216
 5449SOL    HW118789   0.531   4.284   3.736 -1.0689 -0.2487  0.0001
 5449SOL    HW218790   0.540   4.246   3.882 -0.8363  1.2067  0.3831
 5450SOL     OW18791   2.846   2.974   7.870 -0.1826 -0.2206  0.3153
 5450SOL    HW118792   2.792   2.896   7.861  0.1424 -0.6356  1.7167
 5450SOL    HW218793   2.922   2.957   7.814 -0.2048 -0.8357  0.4647
 5451SOL     OW18794   7.430   3.414   8.997 -0.3508  0.0573  0.1763
 5451SOL    HW118795   7.517   3.402   8.960  0.0078 -1.1279  1.3750
 5451SOL    HW218796   7.382   3.335   8.973 -0.6974  0.1232  0.6365
 5452SOL     OW18797   4.615   3.566   3.118  0.1152 -0.4631 -0.1889
 5452SOL    HW118798   4.681   3.631   3.142 -1.7711  0.5953  2.5890
 5452SOL    HW218799   4.659   3.482   3.127  0.9653  0.1728  2.2790
 5453SOL     OW18800   4.511   6.746   4.078  0.0253  0.2536 -0.0757
 5453SOL    HW118801   4.572   6.738   4.152  1.9470 -1.4669 -1.6907
 5453SOL    HW218802   4.479   6.657   4.064 -2.1035  0.9412  0.0301
 5454SOL     OW18803   3.870   1.038   2.191  0.3919  0.1403 -0.3953
 5454SOL    HW118804   3.878   0.979   2.266  2.7192 -1.0110 -1.4592
 5454SOL    HW218805   3.801   0.999   2.137 -0.8751  0.6508  0.7861
 5455SOL     OW18806   6.404   9.639   0.049  0.0006  0.1777 -0.3581
 5455SOL    HW118807   6.445   9.582   0.114 -0.4075 -1.3906 -1.4099
 5455SOL    HW218808   6.330   9.679   0.096 -0.3456 -0.9964  0.1289
 5456SOL     OW18809   5.943   7.664   3.895 -0.3937  0.2810  0.0821
 5456SOL    HW118810   6.008   7.714   3.945  0.3898  0.5188 -1.1232
 5456SOL    HW218811   5.909   7.727   3.832 -0.7911 -0.2149 -0.1989
 5457SOL     OW18812   5.134   1.045   9.091  0.6128  0.0101  0.6602
 5457SOL    HW118813   5.202   0.978   9.099  1.1014  0.1128 -1.8476
 5457SOL    HW218814   5.052   0.996   9.087  0.5913 -0.1786  2.4074
 5458SOL     OW18815   9.158   1.312   1.073 -0.2166 -0.3872 -0.6298
 5458SOL    HW118816   9.230   1.362   1.113  0.3020 -0.3599 -1.5700
 5458SOL    HW218817   9.185   1.221   1.082 -1.4697 -0.6085  1.6851
 5459SOL     OW18818   0.858   5.449   9.721 -0.8471 -0.1596  0.1875
 5459SOL    HW118819   0.774   5.426   9.759 -0.4459 -1.6457  0.2240
 5459SOL    HW218820   0.843   5.446   9.626 -0.6474 -1.1671  0.1867
 5460SOL     OW18821   9.537   7.502  10.344  0.0533  0.1209 -0.1437
 5460SOL    HW118822   9.513   7.417  10.307  0.9335 -0.3979  0.4412
 5460SOL    HW218823   9.461   7.528  10.396 -0.6141  0.1754 -1.1081
 5461SOL     OW18824   3.595   5.998   8.943 -0.3922  0.2082  0.0492
 5461SOL    HW118825   3.648   6.019   9.019 -0.9593  1.2633  0.1714
 5461SOL    HW218826   3.650   5.940   8.890  0.2884  0.0755  0.8872
 5462SOL     OW18827   8.957   3.706   1.911 -0.2809 -0.0962  0.1639
 5462SOL    HW118828   9.012   3.772   1.869 -1.1613  1.3880  1.2575
 5462SOL    HW218829   8.990   3.622   1.878  0.8327  0.8765 -1.3062
 5463SOL     OW18830   6.121   0.117   4.201 -0.6033 -0.2931  0.2827
 5463SOL    HW118831   6.202   0.160   4.174 -0.6464  1.0769  2.1023
 5463SOL    HW218832   6.053   0.158   4.148 -0.3276  0.0266  0.1776
 5464SOL     OW18833   3.723   9.787  10.381 -0.0949 -0.1716 -0.1562
 5464SOL    HW118834   3.740   9.844  10.456  2.4090 -2.2651  1.0421
 5464SOL    HW218835   3.638   9.747  10.400 -0.4225  0.8244  0.5403
 5465SOL     OW18836   5.728   7.786   8.179 -0.6433 -0.1234  0.1625
 5465SOL    HW118837   5.775   7.710   8.213 -0.8200 -1.1490 -1.7298
 5465SOL    HW218838   5.781   7.861   8.203  0.4918 -1.0072  0.4796
 5466SOL     OW18839   0.590   4.475   2.754  0.2590  0.1405  0.1483
 5466SOL    HW118840   0.501   4.475   2.719 -0.2397  0.2914  1.3834
 5466SOL    HW218841   0.610   4.383   2.769 -0.0407  0.1584  0.7030
 5467SOL     OW18842   5.082   8.249   9.407  0.2602  0.3574 -0.6879
 5467SOL    HW118843   5.131   8.293   9.477  2.5532  0.6341 -2.3657
 5467SOL    HW218844   5.126   8.165   9.396 -1.9950 -1.0292  0.1942
 5468SOL     OW18845   3.182   6.137   3.101  0.2872 -0.5557  0.1807
 5468SOL    HW118846   3.219   6.225   3.097 -0.1668 -0.3936 -0.6992
 5468SOL    HW218847   3.220   6.099   3.180 -0.3625  0.8181  1.1982
 5469SOL     OW18848   1.798   1.231   7.866  0.6417 -0.6285 -0.1781
 5469SOL    HW118849   1.844   1.237   7.783 -2.1045 -2.3961 -2.0269
 5469SOL    HW218850   1.861   1.191   7.926  2.4968  0.1225 -1.5464
 5470SOL     OW18851   9.955   7.196   2.957 -0.3557 -0.5607  0.1294
 5470SOL    HW118852   9.936   7.245   3.037 -1.2396  0.9018 -0.9326
 5470SOL    HW218853   9.873   7.150   2.937 -0.5707  0.1510 -0.6500
 5471SOL     OW18854   0.408   1.611   0.064  0.0671 -0.1295  0.3194
 5471SOL    HW118855   0.329   1.658   0.093 -1.1769 -2.0944  0.2984
 5471SOL    HW218856   0.456   1.594   0.145  0.1956  0.6095  0.3997
 5472SOL     OW18857   0.715   1.849   7.069 -0.2175 -0.2043 -0.4744
 5472SOL    HW118858   0.764   1.885   6.995 -0.6573 -0.2825 -0.8021
 5472SOL    HW218859   0.729   1.912   7.140  0.1457 -0.0946 -0.6414
 5473SOL     OW18860   6.380   2.701   7.040  0.3258 -0.2121 -0.0812
 5473SOL    HW118861   6.302   2.651   7.019  0.3661 -0.2576 -0.1211
 5473SOL    HW218862   6.387   2.696   7.135  0.1915 -0.0768 -0.0645
 5474SOL     OW18863   1.529   1.995   1.177 -0.0342  0.0942 -0.4363
 5474SOL    HW118864   1.536   2.077   1.128 -0.8632 -0.6368 -1.8521
 5474SOL    HW218865   1.613   1.986   1.222  0.3031  1.3957 -0.7615
 5475SOL     OW18866   6.011   7.564   2.055 -0.0518  0.2298 -0.6402
 5475SOL    HW118867   6.050   7.584   1.969  1.7595  1.0266  0.3020
 5475SOL    HW218868   5.999   7.650   2.096 -1.8523 -0.0732 -0.4490
 5476SOL     OW18869   4.508   4.342   1.676  0.5810  0.0705 -0.0961
 5476SOL    HW118870   4.562   4.267   1.649  0.6786  0.9379 -2.5617
 5476SOL    HW218871   4.566   4.418   1.667 -0.5121  0.8213 -1.1112
 5477SOL     OW18872   8.405   7.223  10.393 -0.1983 -0.1959 -0.1690
 5477SOL    HW118873   8.407   7.150  10.456  1.9055  0.7954  1.0257
 5477SOL    HW218874   8.474   7.202  10.330  0.5013  0.7661  0.2510
 5478SOL     OW18875   7.726   1.101  10.124 -0.1587  0.1867  0.1400
 5478SOL    HW118876   7.810   1.117  10.168  0.3308  0.4392 -0.8722
 5478SOL    HW218877   7.709   1.181  10.075 -0.9099  0.0636  0.1922
 5479SOL     OW18878   5.200   0.365   7.195 -0.0852  0.2140  0.2625
 5479SOL    HW118879   5.159   0.438   7.242 -2.3110 -0.3302 -0.6900
 5479SOL    HW218880   5.126   0.313   7.163  1.2575  0.2398 -3.3572
 5480SOL     OW18881   5.718   5.169   5.163 -0.2019 -0.1387  0.2601
 5480SOL    HW118882   5.716   5.083   5.205 -0.5258 -0.5634 -0.5982
 5480SOL    HW218883   5.795   5.166   5.105 -1.7483 -0.8985 -1.8709
 5481SOL     OW18884   9.557   4.700   1.080 -0.6357 -0.0402 -0.6259
 5481SOL    HW118885   9.650   4.696   1.103 -0.8971 -1.5843  0.3018
 5481SOL    HW218886   9.537   4.793   1.075  1.0393  0.3155 -1.2017
 5482SOL     OW18887   4.690   4.317   8.722  0.0153  0.1006 -0.4795
 5482SOL    HW118888   4.614   4.266   8.693 -0.1776  0.2170 -0.1829
 5482SOL    HW218889   4.654   4.403   8.744 -0.1853 -0.4825  1.8250
 5483SOL     OW18890   5.348  10.269   5.635 -0.5712  0.2087 -0.6682
 5483SOL    HW118891   5.259  10.246   5.605 -0.3143  0.2540 -1.4979
 5483SOL    HW218892   5.355  10.228   5.721 -1.2537 -0.1442 -0.7661
 5484SOL     OW18893   8.968   6.277   1.439  0.2229  0.2907 -0.0325
 5484SOL    HW118894   8.936   6.273   1.349 -2.9403  0.1214  1.0097
 5484SOL    HW218895   9.037   6.343   1.437 -0.3751  0.9222 -2.3934
 5485SOL     OW18896   6.875   4.322   4.374 -0.9982  0.2656 -0.1984
 5485SOL    HW118897   6.941   4.373   4.420 -0.0596 -0.0397 -1.1716
 5485SOL    HW218898   6.916   4.299   4.291 -2.2017 -0.2407 -0.6737
 5486SOL     OW18899   7.009   7.716   1.772  0.1809  0.8059  0.4066
 5486SOL    HW118900   7.014   7.706   1.867  0.5426  0.1056  0.3196
 5486SOL    HW218901   6.991   7.628   1.739  1.9609  0.6537 -0.2958
 5487SOL     OW18902   9.268   5.651   6.614 -0.1090  0.4518  0.2251
 5487SOL    HW118903   9.225   5.696   6.542  1.3727  0.0660 -0.9660
 5487SOL    HW218904   9.276   5.560   6.584 -0.9804 -0.1255  1.6153
 5488SOL     OW18905   0.305   3.447   7.529 -0.6501  0.5216 -0.3589
 5488SOL    HW118906   0.312   3.401   7.445  1.2708  0.9647 -0.4751
 5488SOL    HW218907   0.302   3.540   7.505 -1.2280  0.6104  0.0299
 5489SOL     OW18908   0.211   4.255   0.036  0.6112 -0.3276  0.1022
 5489SOL    HW118909   0.270   4.204  -0.019 -1.2183 -2.5657  0.0450
 5489SOL    HW218910   0.265   4.283   0.110  2.3975  0.2129 -1.3477
 5490SOL     OW18911   2.485   0.327   0.134 -0.4415 -0.5014  0.2848
 5490SOL    HW118912   2.394   0.305   0.115 -0.7694  1.8939 -1.3202
 5490SOL    HW218913   2.527   0.332   0.049  0.9733 -0.5752  0.9442
 5491SOL     OW18914   6.820  10.464   5.188 -0.1161 -0.0532 -0.7132
 5491SOL    HW118915   6.822  10.478   5.093 -1.1604  0.7426 -0.6228
 5491SOL    HW218916   6.735  10.497   5.216  0.2205 -0.1946  0.5263
 5492SOL     OW18917   6.908   9.893   7.611 -0.0266  0.4471 -0.3734
 5492SOL    HW118918   6.953   9.960   7.559  1.1968 -0.5322 -0.6211
 5492SOL    HW218919   6.976   9.860   7.670 -0.9546  0.3288  0.6407
 5493SOL     OW18920   2.598   2.097   0.284 -0.3362  0.0116 -0.5362
 5493SOL    HW118921   2.624   2.100   0.192 -0.7399  0.0747 -0.6488
 5493SOL    HW218922   2.526   2.034   0.286  0.4758 -0.9183 -0.0660
 5494SOL     OW18923   4.921   2.109   9.293 -0.1511 -0.6043 -0.1277
 5494SOL    HW118924   4.867   2.172   9.341  0.0882 -0.8033  0.3988
 5494SOL    HW218925   4.898   2.024   9.330  2.3714 -0.4882  1.9165
 5495SOL     OW18926   7.103   1.114   8.786 -0.3526 -0.7778 -0.9463
 5495SOL    HW118927   7.169   1.145   8.724  0.5296 -0.8579 -0.0614
 5495SOL    HW218928   7.043   1.061   8.732  1.1518 -1.9721 -1.5268
 5496SOL     OW18929   8.918   2.989   7.021 -0.3968  0.6966  0.0955
 5496SOL    HW118930   8.910   2.920   6.955  0.8608  0.6933 -0.0806
 5496SOL    HW218931   8.909   3.071   6.972  1.0342  0.7058 -0.1862
 5497SOL     OW18932   1.478  10.191   4.493  0.0104 -0.5083  0.3235
 5497SOL    HW118933   1.521  10.147   4.419  1.0112  1.1165 -0.1208
 5497SOL    HW218934   1.415  10.250   4.452  0.5319  0.3619  0.7547
 5498SOL     OW18935   1.169   5.064   7.163 -0.2849 -0.0614  0.7313
 5498SOL    HW118936   1.179   5.053   7.069 -0.2701  0.3197  0.6853
 5498SOL    HW218937   1.099   5.129   7.172 -0.5725 -0.4037  0.9903
 5499SOL     OW18938   1.149   3.518   7.385  0.7177 -0.0087  0.6744
 5499SOL    HW118939   1.054   3.530   7.373  0.8349 -0.2567 -0.7129
 5499SOL    HW218940   1.156   3.466   7.465 -0.4565 -1.7542 -0.2859
 5500SOL     OW18941   0.378   1.745   8.805 -0.0415  0.2656  0.2535
 5500SOL    HW118942   0.450   1.689   8.835  0.1505  0.0699 -0.5442
 5500SOL    HW218943   0.338   1.696   8.733  1.2345  1.9004 -1.6502
 5501SOL     OW18944   1.511   2.328  10.451 -0.4065 -0.1125  0.6014
 5501SOL    HW118945   1.584   2.368  10.498  1.0194 -2.0143  0.1389
 5501SOL    HW218946   1.537   2.333  10.359 -0.6692 -1.1304  0.4646
 5502SOL     OW18947   6.685   0.541   1.192  0.0350 -0.0265 -0.0534
 5502SOL    HW118948   6.609   0.586   1.155 -0.0245 -0.7522 -0.8441
 5502SOL    HW218949   6.662   0.448   1.187  0.4643 -0.1915  0.8680
 5503SOL     OW18950   7.696   1.489   8.801  0.5697 -0.3240  0.1698
 5503SOL    HW118951   7.718   1.537   8.720  2.0855 -0.1376  0.6539
 5503SOL    HW218952   7.608   1.455   8.786  1.0481 -0.8005 -1.8059
 5504SOL     OW18953   8.340   7.233   3.622  0.3996  0.3184  0.1328
 5504SOL    HW118954   8.409   7.170   3.642  1.6759  0.9311 -2.1142
 5504SOL    HW218955   8.383   7.318   3.623 -0.5638  0.8309 -0.3085
 5505SOL     OW18956   1.501   3.704  10.365  0.0172  0.1359 -0.5828
 5505SOL    HW118957   1.576   3.735  10.315  0.0555  0.6729 -0.1969
 5505SOL    HW218958   1.480   3.776  10.424  0.3448 -0.7008  0.5970
 5506SOL     OW18959   5.076   8.122   7.804  0.1532  0.6034  0.1612
 5506SOL    HW118960   5.087   8.211   7.836  0.9227  0.0815  1.4229
 5506SOL    HW218961   4.982   8.114   7.787 -0.0358  1.4099  0.7717
 5507SOL     OW18962   7.673   3.096   8.947  0.1677  0.2431  0.1079
 5507SOL    HW118963   7.703   3.182   8.918  0.7422 -0.7868 -2.6346
 5507SOL    HW218964   7.602   3.115   9.008  0.8722  2.6439  0.2988
 5508SOL     OW18965   3.129   8.971   6.955 -0.0921 -0.4237 -0.2581
 5508SOL    HW118966   3.153   8.878   6.958  0.7810 -0.1893  0.4196
 5508SOL    HW218967   3.037   8.972   6.979 -0.0057 -1.0839  0.1362
 5509SOL     OW18968   4.825   6.751   5.101  0.0714  0.6137  0.1568
 5509SOL    HW118969   4.919   6.770   5.106  0.2240 -0.3119  1.3831
 5509SOL    HW218970   4.808   6.738   5.008  1.4101 -0.3868  0.0252
 5510SOL     OW18971   3.314   4.447   8.782 -0.1254 -0.0191  0.5804
 5510SOL    HW118972   3.332   4.375   8.843 -0.3466 -0.6750 -0.1145
 5510SOL    HW218973   3.219   4.452   8.778 -0.1386 -0.6185 -0.4156
 5511SOL     OW18974   0.328   9.716   1.509  0.1604  0.1477  0.2501
 5511SOL    HW118975   0.265   9.746   1.443  0.1672 -1.6275 -0.6075
 5511SOL    HW218976   0.391   9.788   1.516  1.0107 -0.1394 -2.7842
 5512SOL     OW18977   3.726   9.998   9.164  0.4554 -0.2122  0.3093
 5512SOL    HW118978   3.785  10.069   9.137  1.3703 -0.9747  0.2152
 5512SOL    HW218979   3.646  10.042   9.192  0.2627  0.7429 -1.6085
 5513SOL     OW18980   2.656   5.623   3.146  0.0420  0.0806  0.2458
 5513SOL    HW118981   2.746   5.639   3.176  0.5660 -1.2903 -0.5045
 5513SOL    HW218982   2.626   5.549   3.199  0.2250 -0.9953 -1.1009
 5514SOL     OW18983   6.254   8.096   1.046 -0.3550  0.1976 -0.3411
 5514SOL    HW118984   6.215   8.077   1.131  0.5967 -0.7216 -0.0895
 5514SOL    HW218985   6.308   8.019   1.026 -0.4129  0.4819 -1.6892
 5515SOL     OW18986   9.374   8.670   5.517 -0.2298 -0.6366 -0.0523
 5515SOL    HW118987   9.455   8.706   5.481 -0.8001  1.3556  0.4857
 5515SOL    HW218988   9.343   8.609   5.450  0.2396  0.7458 -1.6213
 5516SOL     OW18989   9.106   5.517   3.114  0.2603  0.4461  0.2937
 5516SOL    HW118990   9.024   5.536   3.158 -1.4576 -2.0117 -1.5732
 5516SOL    HW218991   9.089   5.437   3.065  3.7629 -0.0962 -0.2898
 5517SOL     OW18992   6.446   2.604   5.159  0.0110  0.0071  0.0956
 5517SOL    HW118993   6.414   2.664   5.091  0.6360 -0.0358 -0.2416
 5517SOL    HW218994   6.523   2.648   5.195  0.8198 -0.8403 -0.5456
 5518SOL     OW18995   4.924   2.522   1.648  0.5800 -0.1999 -0.1080
 5518SOL    HW118996   5.002   2.561   1.686  0.1558  0.9389 -0.3580
 5518SOL    HW218997   4.857   2.591   1.654  0.2943 -0.2309 -2.1909
 5519SOL     OW18998  10.339  10.382   6.001  0.2630 -0.5444  0.3767
 5519SOL    HW118999  10.309  10.293   6.018  1.2291 -0.5894  2.0284
 5519SOL    HW219000  10.300  10.405   5.916 -0.5896 -2.2549  0.2723
 5520SOL     OW19001   8.020   4.221   4.840 -0.5659  0.4228  0.4687
 5520SOL    HW119002   8.101   4.192   4.796 -1.8271 -2.1969 -0.3395
 5520SOL    HW219003   8.035   4.201   4.932 -0.3893 -0.3832  0.2751
 5521SOL     OW19004   0.585   1.933  10.371  0.0686 -0.3731  0.5223
 5521SOL    HW119005   0.513   1.954  10.312 -1.6546  0.3466  2.7110
 5521SOL    HW219006   0.610   1.844  10.348 -1.6488 -0.7056 -0.2445
 5522SOL     OW19007   1.744  10.234   3.815  0.2255 -0.2811 -0.0690
 5522SOL    HW119008   1.775  10.257   3.902  0.5103  0.8880 -0.4602
 5522SOL    HW219009   1.660  10.278   3.806  0.7458  0.6133 -0.8010
 5523SOL     OW19010   0.740   0.182   1.104 -0.1759 -0.0864 -0.1570
 5523SOL    HW119011   0.718   0.118   1.037 -4.3957  0.5938  0.3194
 5523SOL    HW219012   0.768   0.130   1.179  0.0677 -1.1115 -0.9375
 5524SOL     OW19013  10.053   3.986   6.040 -0.1541 -0.0694 -0.2985
 5524SOL    HW119014  10.037   4.023   5.953 -0.1996  0.0177 -0.2527
 5524SOL    HW219015   9.968   3.992   6.084  0.3859  1.9692  0.5514
 5525SOL     OW19016   5.916   5.580   8.597 -0.1946 -0.2838  0.3801
 5525SOL    HW119017   5.939   5.498   8.552  1.6114 -0.4053  1.4465
 5525SOL    HW219018   5.904   5.554   8.689 -1.8405  0.3033  0.3705
 5526SOL     OW19019   9.307   6.279   7.053  0.1444  0.0163 -0.3002
 5526SOL    HW119020   9.397   6.307   7.066 -0.0886  1.9655 -2.3993
 5526SOL    HW219021   9.314   6.191   7.015  1.1508  0.2020 -0.5543
 5527SOL     OW19022   7.937   4.110   3.604 -0.1296 -0.1007  0.1435
 5527SOL    HW119023   7.916   4.139   3.693  1.6337 -1.2452  0.9811
 5527SOL    HW219024   7.996   4.177   3.570  0.3581 -0.3891  0.4032
 5528SOL     OW19025   8.405   1.006   1.106 -0.1527  0.0660 -0.7668
 5528SOL    HW119026   8.416   1.074   1.040 -0.1962  0.9989  0.1476
 5528SOL    HW219027   8.344   1.044   1.169 -0.4104 -0.9466 -0.3830
 5529SOL     OW19028   1.514   5.581   6.415  0.3614  0.2994 -0.2229
 5529SOL    HW119029   1.491   5.492   6.388 -0.4724  0.0489  1.2167
 5529SOL    HW219030   1.446   5.636   6.378 -1.8120 -0.2446  2.6265
 5530SOL     OW19031   5.316   2.596  10.186  0.4520  0.7338 -0.6472
 5530SOL    HW119032   5.242   2.613  10.245 -0.0696  0.0521 -1.0774
 5530SOL    HW219033   5.394   2.612  10.239  0.0016 -0.6010  0.4718
 5531SOL     OW19034   1.378   6.578   8.843 -0.1986  0.1549 -0.6476
 5531SOL    HW119035   1.448   6.641   8.828  0.4759 -0.4247 -0.0428
 5531SOL    HW219036   1.306   6.629   8.879  0.9057  0.3763  1.3978
 5532SOL     OW19037   9.090   2.095   9.054 -0.0529  0.2614  0.0899
 5532SOL    HW119038   9.114   2.119   8.965 -0.9384  1.6436  0.1839
 5532SOL    HW219039   9.156   2.031   9.080 -0.4847 -1.1016 -1.9554
 5533SOL     OW19040   0.866   9.018   4.887 -0.1852  0.5759 -0.5517
 5533SOL    HW119041   0.896   8.928   4.896 -1.0262  0.2958 -0.4296
 5533SOL    HW219042   0.880   9.057   4.974  1.8040  1.0995 -1.0643
 5534SOL     OW19043   2.410  10.045   5.772 -0.0484 -0.0441  0.5851
 5534SOL    HW119044   2.377   9.956   5.771 -0.6773  0.1847 -0.7561
 5534SOL    HW219045   2.504  10.035   5.791  0.2996 -1.1672 -1.3868
 5535SOL     OW19046   8.541   2.158   7.470 -0.1858  0.2761 -0.2122
 5535SOL    HW119047   8.483   2.082   7.471  0.9213 -0.6134 -0.8292
 5535SOL    HW219048   8.616   2.130   7.418  0.4627  1.6451 -0.0613
 5536SOL     OW19049  10.153   2.062   1.662 -0.3136 -0.3515  0.2092
 5536SOL    HW119050  10.196   2.051   1.747 -0.3275 -1.4464  0.0835
 5536SOL    HW219051  10.173   2.152   1.637  0.3545 -0.2666  1.0102
 5537SOL     OW19052   7.850   3.529   7.471 -0.4013 -0.0104 -0.5174
 5537SOL    HW119053   7.763   3.491   7.459 -0.8788  0.5508  0.9901
 5537SOL    HW219054   7.862   3.533   7.565  1.0020  0.5325 -0.6918
 5538SOL     OW19055   2.228  10.433   9.672  0.5032 -0.0040 -0.0030
 5538SOL    HW119056   2.250  10.432   9.765  3.3239  0.5066 -0.5641
 5538SOL    HW219057   2.178  10.514   9.660  0.7119  0.2856  0.9566
 5539SOL     OW19058   5.655   0.825   5.668 -0.3148 -0.1454 -0.2232
 5539SOL    HW119059   5.682   0.780   5.749 -2.0171  0.4039  0.7058
 5539SOL    HW219060   5.581   0.773   5.636 -1.0396  0.8514 -0.2178
 5540SOL     OW19061   4.661   8.234   5.181 -0.4170 -0.2147 -0.1484
 5540SOL    HW119062   4.660   8.298   5.252 -0.6339 -0.3858  0.0022
 5540SOL    HW219063   4.601   8.270   5.115 -2.6912 -1.5548  1.0797
 5541SOL     OW19064   8.386   9.514   5.937  0.1591 -0.2327 -0.4944
 5541SOL    HW119065   8.302   9.558   5.924  0.4531  0.2984 -0.5998
 5541SOL    HW219066   8.365   9.439   5.993 -0.3842 -0.1040 -0.5182
 5542SOL     OW19067   2.918   2.464   5.272 -0.1043 -0.1823 -0.0155
 5542SOL    HW119068   2.956   2.379   5.250 -0.6857 -0.4783  0.1000
 5542SOL    HW219069   2.953   2.524   5.207  1.2018 -0.2778  0.5747
 5543SOL     OW19070   2.544   6.091   5.717  0.1375  0.5582  0.1509
 5543SOL    HW119071   2.507   6.124   5.635  0.0933  1.3019  0.4611
 5543SOL    HW219072   2.519   5.999   5.720 -2.5877  1.2534  0.8384
 5544SOL     OW19073  10.094   4.702   2.595 -0.1691 -0.4388  0.1831
 5544SOL    HW119074  10.023   4.642   2.616  0.8615 -1.5884  0.5401
 5544SOL    HW219075  10.155   4.650   2.542 -0.3811  1.0081 -1.5752
 5545SOL     OW19076   2.512   4.888   1.798  0.8348 -0.1499 -1.0864
 5545SOL    HW119077   2.435   4.945   1.799 -0.2317 -1.5155 -1.4894
 5545SOL    HW219078   2.585   4.945   1.820 -0.3549  1.0998 -0.2177
 5546SOL     OW19079   2.612   4.963   0.573  0.1499  0.0115 -0.5828
 5546SOL    HW119080   2.528   4.984   0.614 -0.0419 -0.3227 -0.8011
 5546SOL    HW219081   2.674   5.025   0.612  0.6182 -2.1608  2.4976
 5547SOL     OW19082   6.054   4.321   1.077  0.4428  0.2977  0.1948
 5547SOL    HW119083   6.083   4.284   0.994 -1.9115 -2.3640  0.4151
 5547SOL    HW219084   6.010   4.402   1.053  1.4192  0.5271 -0.9083
 5548SOL     OW19085   6.326   6.240   6.080 -0.5846 -0.1694 -0.5747
 5548SOL    HW119086   6.330   6.170   6.014 -0.0747 -1.0482  0.3622
 5548SOL    HW219087   6.387   6.307   6.049  0.3553 -0.9910 -0.5461
 5549SOL     OW19088   7.331   2.135   8.670 -0.0621 -0.6898 -0.5167
 5549SOL    HW119089   7.326   2.199   8.599 -4.0300 -0.5533 -0.3219
 5549SOL    HW219090   7.303   2.053   8.630 -3.1556 -0.4507  0.9185
 5550SOL     OW19091   7.656   4.097   2.497 -0.5348 -0.3640  0.4858
 5550SOL    HW119092   7.673   4.161   2.566  1.3736 -0.8875  0.5722
 5550SOL    HW219093   7.681   4.142   2.416  0.0255 -0.7024  0.4628
 5551SOL     OW19094   4.553   2.243  10.228 -0.2150  0.3301  0.0061
 5551SOL    HW119095   4.577   2.322  10.277  1.8626 -0.6575  0.6955
 5551SOL    HW219096   4.615   2.240  10.156  0.6118 -1.3277  0.7354
 5552SOL     OW19097   6.305   6.740   3.489 -0.0695  0.5176 -0.4088
 5552SOL    HW119098   6.212   6.717   3.491 -0.3044  1.3777 -0.7655
 5552SOL    HW219099   6.345   6.675   3.433 -0.7162  0.9872 -1.4414
 5553SOL     OW19100   9.439   1.453   0.538 -0.0767  0.1338 -0.3222
 5553SOL    HW119101   9.463   1.378   0.484  2.3872  1.3531 -1.0680
 5553SOL    HW219102   9.520   1.479   0.582  0.9697  5.6064 -4.3287
 5554SOL     OW19103  10.374   5.602   6.196 -0.2917 -0.0291  0.0525
 5554SOL    HW119104  10.377   5.617   6.102 -1.0860 -0.4534 -0.0510
 5554SOL    HW219105  10.286   5.632   6.222  1.0028  3.2760  1.2391
 5555SOL     OW19106   2.753   4.795   2.444 -0.3374 -0.4328 -0.4716
 5555SOL    HW119107   2.757   4.750   2.529  1.8193  0.2026 -0.1716
 5555SOL    HW219108   2.747   4.888   2.467  0.8229 -0.2197 -0.9833
 5556SOL     OW19109   9.689   1.479   8.317 -0.0427  0.2921  0.0183
 5556SOL    HW119110   9.674   1.472   8.411  0.8479  1.5045  0.2839
 5556SOL    HW219111   9.779   1.512   8.310 -0.1204  0.2759 -1.2543
 5557SOL     OW19112   7.640   3.005   8.710  0.0840  0.3283  0.9484
 5557SOL    HW119113   7.666   2.916   8.733  1.3865  0.0560 -1.3095
 5557SOL    HW219114   7.660   3.056   8.788 -1.1685 -1.4024  2.4785
 5558SOL     OW19115   3.909   9.963  10.067 -0.2233 -0.6681  0.5200
 5558SOL    HW119116   3.852   9.890  10.094 -0.4444 -0.0349  1.8538
 5558SOL    HW219117   3.994   9.922  10.052 -0.1740 -1.1347  1.9071
 5559SOL     OW19118   6.929   1.312   2.770 -0.0387 -0.0503 -0.6448
 5559SOL    HW119119   6.964   1.282   2.854 -0.8356  0.3408 -0.1519
 5559SOL    HW219120   6.886   1.235   2.733  0.5203 -0.2859 -0.8088
 5560SOL     OW19121   7.315   0.164   0.053  0.5635  0.0408  0.0771
 5560SOL    HW119122   7.248   0.101   0.080  1.2639 -0.4804  0.6717
 5560SOL    HW219123   7.319   0.157  -0.042  2.3960 -2.7346  0.2619
 5561SOL     OW19124   0.347   9.481   1.166 -0.4929  0.0813 -0.0198
 5561SOL    HW119125   0.278   9.530   1.122 -0.1564 -0.2846 -0.9889
 5561SOL    HW219126   0.372   9.536   1.240 -0.3803  1.2022 -0.8609
 5562SOL     OW19127   8.981   1.793   5.677 -0.0193 -0.0686 -0.2872
 5562SOL    HW119128   8.922   1.787   5.602 -0.5556 -0.8290  0.1747
 5562SOL    HW219129   9.012   1.884   5.676 -0.0079 -0.0653 -1.4198
 5563SOL     OW19130   7.683   3.666   3.091  0.1355  0.4787 -0.2374
 5563SOL    HW119131   7.607   3.725   3.095 -0.3001 -0.1024  0.1834
 5563SOL    HW219132   7.693   3.648   2.997  0.5373  1.5468 -0.4188
 5564SOL     OW19133   0.051   8.366   1.678 -0.0130  0.2503 -0.0210
 5564SOL    HW119134   0.009   8.448   1.650 -1.5749 -0.7224 -0.6521
 5564SOL    HW219135   0.040   8.364   1.773  0.6018  1.0527  0.0798
 5565SOL     OW19136   7.379   1.981   1.968  0.2885 -0.2342 -0.3774
 5565SOL    HW119137   7.439   1.966   1.896 -0.8098 -0.0941 -1.3510
 5565SOL    HW219138   7.431   2.025   2.035  1.0511  0.6207 -1.5226
 5566SOL     OW19139   9.662   3.977   3.597  0.2897  0.0682  0.1468
 5566SOL    HW119140   9.721   4.008   3.528  1.4089 -1.4356  0.3715
 5566SOL    HW219141   9.591   4.041   3.599 -0.1984 -0.2554 -2.9171
 5567SOL     OW19142   7.052  10.267   4.790 -0.1503 -0.0839 -0.0034
 5567SOL    HW119143   7.086  10.249   4.702 -0.7975 -0.9399 -0.0936
 5567SOL    HW219144   7.117  10.325   4.829  0.1823  0.2582 -1.0217
 5568SOL     OW19145   7.557   3.156   0.433  0.7769 -0.3064 -0.3277
 5568SOL    HW119146   7.647   3.190   0.426  0.7288 -0.5515 -4.7811
 5568SOL    HW219147   7.562   3.067   0.398 -1.1055 -0.5905  0.0344
 5569SOL     OW19148   9.069   5.027   4.838 -0.7190 -0.3644  0.4567
 5569SOL    HW119149   8.998   4.984   4.888 -0.0334 -0.1615  1.6474
 5569SOL    HW219150   9.149   4.998   4.882 -0.2204  2.0123  1.2149
 5570SOL     OW19151   7.449   5.127   9.187 -0.5275  0.1887  0.9608
 5570SOL    HW119152   7.355   5.143   9.194 -0.3866  0.5695  2.0980
 5570SOL    HW219153   7.458   5.032   9.194 -0.8724  0.0888  0.1683
 5571SOL     OW19154   3.624   6.802   9.986  0.2056  0.1031  0.3393
 5571SOL    HW119155   3.608   6.762   9.900  0.3637 -2.7600  1.5267
 5571SOL    HW219156   3.538   6.829  10.016  0.1610  1.2309 -0.7201
 5572SOL     OW19157   8.811   6.197   1.650 -0.2366  0.3999 -0.0932
 5572SOL    HW119158   8.858   6.199   1.567  0.3244 -1.6059  0.1118
 5572SOL    HW219159   8.737   6.257   1.638  0.3009  0.7763 -1.7333
 5573SOL     OW19160   0.994   0.583   6.272 -0.0996  0.2396 -0.3931
 5573SOL    HW119161   1.062   0.645   6.299 -0.6823  0.6816  0.0963
 5573SOL    HW219162   0.927   0.638   6.232  0.0623 -0.2496 -1.3696
 5574SOL     OW19163   8.155   1.653   0.618  0.1521  0.0811  0.6194
 5574SOL    HW119164   8.241   1.692   0.637  0.0367  1.1101 -0.7939
 5574SOL    HW219165   8.176   1.570   0.576  0.4058 -0.8625  2.4893
 5575SOL     OW19166   9.416   8.361   8.557 -0.3904 -0.3810  0.3794
 5575SOL    HW119167   9.458   8.308   8.490 -0.5673 -0.0636  0.0155
 5575SOL    HW219168   9.458   8.447   8.550  0.7609 -0.7804  1.7688
 5576SOL     OW19169   9.057   5.247   4.043 -0.3407 -0.4885 -0.1019
 5576SOL    HW119170   8.989   5.195   3.999 -0.3270 -0.1689 -0.5126
 5576SOL    HW219171   9.048   5.225   4.136 -0.6441 -0.8639 -0.2167
 5577SOL     OW19172   9.238   5.180  10.251  0.2032 -0.7643  0.2941
 5577SOL    HW119173   9.324   5.185  10.210  0.8162  0.2968  1.6331
 5577SOL    HW219174   9.176   5.179  10.177  1.3151 -0.6947 -0.6668
 5578SOL     OW19175   5.339  10.034   3.170 -0.3288 -0.9307  0.1283
 5578SOL    HW119176   5.424  10.035   3.213  0.2349  2.7574 -0.7503
 5578SOL    HW219177   5.358  10.048   3.077 -1.8523  0.5319 -0.0167
 5579SOL     OW19178   4.843   5.003   5.102  0.0540  0.2858 -0.0917
 5579SOL    HW119179   4.750   5.006   5.080  0.1249 -1.5484 -0.8351
 5579SOL    HW219180   4.852   4.924   5.155  1.1522  0.6029  0.2201
 5580SOL     OW19181   1.705   6.777   7.103 -0.2174  0.0619  0.0068
 5580SOL    HW119182   1.616   6.770   7.069  0.0566 -2.5979 -0.3846
 5580SOL    HW219183   1.711   6.709   7.171  1.4290  0.3590  0.2158
 5581SOL     OW19184   9.359   8.689   1.039 -0.2229  0.2095 -0.0051
 5581SOL    HW119185   9.395   8.702   1.126 -1.8804  0.0111  0.7441
 5581SOL    HW219186   9.278   8.739   1.038 -1.1793 -1.2556 -0.7738
 5582SOL     OW19187   1.677   6.229   5.644  0.2458  0.0845  0.2127
 5582SOL    HW119188   1.659   6.135   5.655 -1.7195  0.5910  1.7431
 5582SOL    HW219189   1.770   6.237   5.667 -0.1678 -1.1542  2.7277
 5583SOL     OW19190   3.149   0.502   9.875  0.5182 -0.1006  0.3977
 5583SOL    HW119191   3.119   0.426   9.824  0.5434 -0.3539  0.7537
 5583SOL    HW219192   3.137   0.475   9.966 -0.5452  0.7547  0.5294
 5584SOL     OW19193   1.668   1.065   0.475  0.4048  0.8613 -0.3174
 5584SOL    HW119194   1.675   1.002   0.403  1.3348 -0.1940  0.6815
 5584SOL    HW219195   1.595   1.033   0.528  1.1159  0.3823  0.3973
 5585SOL     OW19196   3.335  10.031   4.358 -0.3812 -0.0293  0.3470
 5585SOL    HW119197   3.393  10.075   4.296 -0.3962  2.4013  1.9049
 5585SOL    HW219198   3.247  10.060   4.333 -0.4596  0.2833  0.9658
 5586SOL     OW19199   4.314   2.823   5.301 -0.0052  0.1138 -0.2071
 5586SOL    HW119200   4.376   2.850   5.370 -0.0605  0.3848 -0.2603
 5586SOL    HW219201   4.249   2.770   5.347  0.4577 -0.4723 -0.2127
 5587SOL     OW19202   2.388  10.214   9.622 -0.3021  0.4491 -0.1135
 5587SOL    HW119203   2.474  10.257   9.623 -0.3604  0.6180 -1.1142
 5587SOL    HW219204   2.327  10.281   9.651 -0.2355  0.6841 -0.5070
 5588SOL     OW19205   0.958   9.451   9.138 -0.6233  0.1025  0.4043
 5588SOL    HW119206   0.984   9.484   9.052 -1.4637 -0.3019 -0.0199
 5588SOL    HW219207   0.917   9.366   9.120  0.3704 -0.6032  1.3483
 5589SOL     OW19208   9.804   0.801   3.599  0.3670  0.0087  0.4013
 5589SOL    HW119209   9.805   0.789   3.505 -0.7217 -0.6049  0.4454
 5589SOL    HW219210   9.891   0.775   3.629  0.7224  0.2375 -0.4276
 5590SOL     OW19211   9.782   7.816   8.746  0.4732 -0.0069 -0.2588
 5590SOL    HW119212   9.859   7.835   8.692  0.4444  0.5967 -0.0916
 5590SOL    HW219213   9.745   7.902   8.766  0.3710 -0.2365  0.5633
 5591SOL     OW19214   3.922   0.429   0.639 -0.3926  0.1464  0.1466
 5591SOL    HW119215   3.961   0.426   0.552 -0.6351 -2.3996  0.0448
 5591SOL    HW219216   3.841   0.478   0.628  0.7119  1.8711 -0.5248
 5592SOL     OW19217   3.639   1.421   6.935  0.0271  0.0608 -0.1966
 5592SOL    HW119218   3.625   1.390   7.024 -1.1030 -0.8138 -0.6561
 5592SOL    HW219219   3.556   1.405   6.890  0.2448  1.4299 -1.1519
 5593SOL     OW19220  10.045   0.002   4.826  0.5816  0.0319  0.3731
 5593SOL    HW119221   9.963   0.039   4.860  0.7537 -0.9621  1.9942
 5593SOL    HW219222  10.038  -0.092   4.844  1.9916 -0.0947  0.3516
 5594SOL     OW19223   7.150   6.117   0.035  0.4483 -0.0896  0.1238
 5594SOL    HW119224   7.238   6.112  -0.002  0.9845 -0.8499  1.4145
 5594SOL    HW219225   7.127   6.026   0.054  0.8031  0.2773  2.8598
 5595SOL     OW19226   5.044   5.286   5.528 -0.7433 -0.6028  0.6084
 5595SOL    HW119227   5.108   5.218   5.508 -0.7236 -0.5274  0.4073
 5595SOL    HW219228   5.002   5.304   5.444 -2.1531 -1.7872  1.0184
 5596SOL     OW19229   7.519   7.513   0.324 -0.2373  0.6862 -0.1276
 5596SOL    HW119230   7.517   7.543   0.415 -1.4783 -0.5471  0.2803
 5596SOL    HW219231   7.472   7.430   0.325 -1.7788  1.4613 -2.2015
 5597SOL     OW19232   2.300   0.641   4.846 -0.3344  0.1415  0.2232
 5597SOL    HW119233   2.335   0.654   4.758  0.4013  1.0811  0.6297
 5597SOL    HW219234   2.249   0.561   4.840  0.8330 -0.5724 -0.7181
 5598SOL     OW19235   6.192   6.294   1.210  0.2831 -0.3221 -0.2404
 5598SOL    HW119236   6.203   6.220   1.150  0.1440 -1.0890  0.6652
 5598SOL    HW219237   6.174   6.254   1.295  0.9560  0.7443  0.4279
 5599SOL     OW19238   2.549   5.255   3.019 -0.3905 -0.4373 -0.5322
 5599SOL    HW119239   2.609   5.251   3.094  0.6390 -0.8066 -1.3388
 5599SOL    HW219240   2.475   5.199   3.044 -0.7253  0.5361  0.7447
 5600SOL     OW19241   8.490   2.325   0.186  0.1274  0.1608 -0.4417
 5600SOL    HW119242   8.509   2.249   0.131 -0.1290  0.3557 -0.8077
 5600SOL    HW219243   8.426   2.293   0.250  2.7902 -0.9358  1.8492
 5601SOL     OW19244   9.852   2.922   2.306 -0.0882 -0.3869  0.2816
 5601SOL    HW119245   9.941   2.910   2.339  0.2329  0.3681 -0.2813
 5601SOL    HW219246   9.800   2.944   2.384  0.9742  3.0567  0.1850
 5602SOL     OW19247   7.362   5.151   0.237  0.0990  0.5461 -0.5657
 5602SOL    HW119248   7.379   5.237   0.200  0.1486  0.3449 -1.0242
 5602SOL    HW219249   7.276   5.127   0.205 -1.8014  2.1254  2.8353
 5603SOL     OW19250   6.856   9.244   7.659  0.1388 -0.0955 -0.3169
 5603SOL    HW119251   6.792   9.207   7.719  1.0263  0.8368  1.2913
 5603SOL    HW219252   6.845   9.339   7.667  1.2963  0.0721 -0.4363
 5604SOL     OW19253   0.983   5.344   9.107 -0.0628 -0.6793  0.2009
 5604SOL    HW119254   0.895   5.365   9.139 -0.4420 -0.9734 -0.6142
 5604SOL    HW219255   0.977   5.253   9.079 -0.6856  0.3532 -3.6028
 5605SOL     OW19256   1.446   2.000   2.132 -0.1410 -0.4399  0.6401
 5605SOL    HW119257   1.498   1.944   2.074 -0.4211  1.7745 -1.9446
 5605SOL    HW219258   1.359   2.002   2.091 -0.2946  1.3433  0.9685
 5606SOL     OW19259   0.525   6.151   4.860 -0.2976 -0.1564 -0.3344
 5606SOL    HW119260   0.447   6.205   4.845  0.2909  0.5521 -0.9457
 5606SOL    HW219261   0.532   6.096   4.783 -1.7434 -2.2522  0.9340
 5607SOL     OW19262   4.127   7.995   6.361 -0.3060  0.4877  0.5125
 5607SOL    HW119263   4.041   8.021   6.393 -0.9746 -0.2332 -0.6276
 5607SOL    HW219264   4.167   8.077   6.331 -0.6839  0.7971  0.8491
 5608SOL     OW19265   5.428   4.941   1.482 -0.0404 -0.5729  0.1185
 5608SOL    HW119266   5.369   4.955   1.555 -1.6895  2.9563 -1.6549
 5608SOL    HW219267   5.387   4.872   1.430 -0.6060 -0.7675  0.8282
 5609SOL     OW19268   6.084   2.835   0.714  0.8912 -0.0500  0.3454
 5609SOL    HW119269   6.094   2.913   0.769 -0.1775  0.6418 -0.3987
 5609SOL    HW219270   6.158   2.838   0.653  2.4793 -1.1897  2.1087
 5610SOL     OW19271   1.886   3.698   6.293 -0.1140  0.2789 -0.3326
 5610SOL    HW119272   1.806   3.720   6.342 -0.1671 -0.0304 -0.2803
 5610SOL    HW219273   1.943   3.774   6.305 -0.7261  0.8692 -1.0541
 5611SOL     OW19274   4.264   7.070   5.004  0.7655  0.1958  0.1007
 5611SOL    HW119275   4.236   7.083   4.913 -1.4311 -0.4317  0.6384
 5611SOL    HW219276   4.214   7.134   5.054  0.7842 -0.4982  1.0351
 5612SOL     OW19277   9.439   7.665   4.055  0.5474 -0.6452 -0.3742
 5612SOL    HW119278   9.469   7.703   4.138  0.0918  0.4494 -0.6996
 5612SOL    HW219279   9.514   7.674   3.996 -0.2085  1.7002 -1.0607
 5613SOL     OW19280   3.630   8.064   1.922  0.2420  1.3323  0.5222
 5613SOL    HW119281   3.619   8.159   1.927 -0.0475  1.2709  1.0444
 5613SOL    HW219282   3.693   8.043   1.991  2.3081  1.4459 -1.2102
 5614SOL     OW19283   5.157   2.643   7.513 -0.0416  0.0127 -0.5599
 5614SOL    HW119284   5.179   2.554   7.484  0.3101  0.0021 -0.2649
 5614SOL    HW219285   5.241   2.688   7.520 -0.0749 -0.1053  0.8395
 5615SOL     OW19286   2.603   0.752   3.115 -0.0232 -0.6305  0.3596
 5615SOL    HW119287   2.541   0.778   3.047  1.3088 -1.0483 -1.1058
 5615SOL    HW219288   2.581   0.661   3.134  0.7366 -1.1244 -0.9386
 5616SOL     OW19289   4.539   1.230   7.674  0.3977  0.1860 -0.0104
 5616SOL    HW119290   4.612   1.284   7.705  0.5874 -0.1136  0.0685
 5616SOL    HW219291   4.512   1.180   7.751 -1.0094  1.5235  0.4165
 5617SOL     OW19292   4.808   8.263   4.682  0.6063 -0.2489  0.3974
 5617SOL    HW119293   4.856   8.182   4.666 -0.7398 -0.8951 -0.4993
 5617SOL    HW219294   4.764   8.249   4.766  0.3984 -0.4433  0.2575
 5618SOL     OW19295   3.509   3.159   2.072  0.1331  0.3343 -0.0153
 5618SOL    HW119296   3.597   3.160   2.110 -0.2798  0.1763  0.9876
 5618SOL    HW219297   3.467   3.237   2.109  0.2246  1.1042 -1.4489
 5619SOL     OW19298   9.018   4.921   1.102  0.4791  0.3072  0.2698
 5619SOL    HW119299   9.055   4.881   1.181  0.6282  0.4728  0.2832
 5619SOL    HW219300   9.091   4.921   1.039  0.1813 -0.4449 -0.0976
 5620SOL     OW19301   2.559   1.705   8.918  0.6567 -0.1910  0.0612
 5620SOL    HW119302   2.496   1.764   8.960  0.1571 -1.4014  1.1035
 5620SOL    HW219303   2.610   1.761   8.860  0.0985  1.2209  0.8815
 5621SOL     OW19304  10.056   4.145   7.241 -0.1622  0.1129 -0.1412
 5621SOL    HW119305  10.097   4.121   7.159 -0.0595 -0.5109  0.0898
 5621SOL    HW219306  10.120   4.121   7.308  0.0724  1.3005  0.0914
 5622SOL     OW19307   3.838   6.659   9.817 -0.4601 -0.1135 -0.4963
 5622SOL    HW119308   3.801   6.733   9.768  1.2648  0.6330 -0.7675
 5622SOL    HW219309   3.781   6.649   9.893 -1.4425  0.6984 -1.1022
 5623SOL     OW19310   1.350   2.945   0.798  0.2883  0.5192 -0.1191
 5623SOL    HW119311   1.333   2.992   0.717  1.2555  0.1188 -0.5653
 5623SOL    HW219312   1.393   2.863   0.771 -0.2907 -0.0821  0.7209
 5624SOL     OW19313   3.217   2.448   6.409  0.0321  0.1844  0.1158
 5624SOL    HW119314   3.139   2.476   6.360 -0.9591 -0.3889  1.3263
 5624SOL    HW219315   3.235   2.520   6.469 -0.8412 -0.5464  1.2869
 5625SOL     OW19316   7.733   9.020   6.623 -0.1183  0.3265  0.4950
 5625SOL    HW119317   7.640   9.023   6.645  0.0291  0.2825  1.1451
 5625SOL    HW219318   7.739   8.957   6.551 -0.4399 -0.6017  1.2566
 5626SOL     OW19319   9.600   2.247   2.235 -0.0003  0.1039  0.3965
 5626SOL    HW119320   9.606   2.268   2.328  1.5433  1.4213  0.0433
 5626SOL    HW219321   9.691   2.234   2.207 -0.3515  0.5819 -1.1045
 5627SOL     OW19322   3.583   8.907   0.039  0.0574 -0.6436  0.3618
 5627SOL    HW119323   3.513   8.905   0.105 -0.7231 -0.9303 -0.4622
 5627SOL    HW219324   3.664   8.897   0.090 -0.2555  2.2717  1.6113
 5628SOL     OW19325   5.372   9.077   3.783  0.2029 -0.4198  0.1730
 5628SOL    HW119326   5.414   9.023   3.715  0.5663  1.1990 -0.9498
 5628SOL    HW219327   5.444   9.103   3.840  0.7039  1.7382 -1.3254
 5629SOL     OW19328   9.542   3.680   5.971  0.1034  0.2690 -0.0660
 5629SOL    HW119329   9.499   3.743   5.913  1.2287  0.5055 -0.6794
 5629SOL    HW219330   9.471   3.643   6.023 -0.7064  1.3385 -0.3714
 5630SOL     OW19331   4.033   5.064   4.522 -0.7080  0.3191  0.1826
 5630SOL    HW119332   4.050   5.064   4.427 -1.2725  0.9012  0.0751
 5630SOL    HW219333   4.081   4.988   4.554 -0.9120 -0.1785 -0.6474
 5631SOL     OW19334   2.661   2.742   6.417  0.0727  0.7192 -0.3198
 5631SOL    HW119335   2.609   2.760   6.495  0.7747 -1.6495  0.7652
 5631SOL    HW219336   2.622   2.663   6.380  1.3814  0.3198 -0.8786
 5632SOL     OW19337   1.161   5.369   3.363 -0.9615 -0.4995 -0.2362
 5632SOL    HW119338   1.253   5.362   3.390 -0.7363  1.4634 -0.3184
 5632SOL    HW219339   1.150   5.302   3.296  0.3694 -0.8559 -0.1284
 5633SOL     OW19340   5.575   7.515   5.607  0.4800  0.3439 -0.4226
 5633SOL    HW119341   5.498   7.548   5.655  1.1335  1.3407 -0.0243
 5633SOL    HW219342   5.640   7.585   5.615  1.1642 -0.1546 -1.4241
 5634SOL     OW19343   5.736   8.486   8.375  0.1645 -0.1440  0.2032
 5634SOL    HW119344   5.686   8.453   8.302  0.2143 -2.8674  1.2944
 5634SOL    HW219345   5.727   8.420   8.443 -1.0299  2.8439  3.2569
 5635SOL     OW19346   7.440   9.209   0.187  1.1418 -0.1278  0.0108
 5635SOL    HW119347   7.370   9.188   0.125  2.4178  0.1224 -1.5875
 5635SOL    HW219348   7.406   9.181   0.272 -0.4327 -1.0647 -0.8800
 5636SOL     OW19349   8.988   1.788   6.003 -0.2122 -0.3057  0.0309
 5636SOL    HW119350   8.959   1.709   6.049  0.3811 -0.1880  0.6065
 5636SOL    HW219351   8.945   1.782   5.918  0.8580 -1.9520 -0.4586
 5637SOL     OW19352   5.482   1.999  10.386 -0.4777 -0.0896  0.5875
 5637SOL    HW119353   5.513   1.932  10.325 -2.0230  0.7132 -1.1739
 5637SOL    HW219354   5.436   1.950  10.454 -0.2131 -0.9015  0.1966
 5638SOL     OW19355   4.874   5.909   0.865 -0.0802  0.2646 -0.0361
 5638SOL    HW119356   4.817   5.837   0.839  0.0465 -0.8264  2.4037
 5638SOL    HW219357   4.963   5.879   0.846 -0.1180  0.5009 -0.5951
 5639SOL     OW19358   6.416   3.346   6.832  0.8289 -0.1937 -0.0065
 5639SOL    HW119359   6.484   3.286   6.801  2.4302  1.0131  1.0197
 5639SOL    HW219360   6.444   3.432   6.803 -0.7059  0.2714 -0.2282
 5640SOL     OW19361   0.388   7.310   8.570 -0.4999 -0.2975  0.0629
 5640SOL    HW119362   0.308   7.328   8.620 -0.1936  0.6286  0.2418
 5640SOL    HW219363   0.386   7.374   8.499  1.0227  1.0415  1.1619
 5641SOL     OW19364   3.529   1.302   8.836  0.6217  0.0231  0.1061
 5641SOL    HW119365   3.449   1.318   8.885 -1.3198  0.0689 -2.8106
 5641SOL    HW219366   3.571   1.388   8.829 -1.6036  1.0632 -2.2258
 5642SOL     OW19367   9.775   8.406  10.135  0.1829  0.3144 -0.3364
 5642SOL    HW119368   9.799   8.356  10.213  0.4531 -0.7575 -1.0771
 5642SOL    HW219369   9.846   8.389  10.072  0.0818  1.3315 -0.7485
 5643SOL     OW19370   7.222   6.410   7.710  0.2738  0.3620  0.8544
 5643SOL    HW119371   7.221   6.317   7.685 -2.2635 -0.0373  2.1241
 5643SOL    HW219372   7.286   6.450   7.651 -0.1792 -1.7926 -1.2618
 5644SOL     OW19373   7.271   0.524   0.837  0.1575  0.1331  0.0656
 5644SOL    HW119374   7.329   0.575   0.781 -2.8328  0.5848 -2.9219
 5644SOL    HW219375   7.249   0.584   0.909  1.8363  0.5746  0.2601
 5645SOL     OW19376   2.524   7.651   0.017  0.2982  1.0045  0.2426
 5645SOL    HW119377   2.447   7.671   0.071 -1.3539 -3.8402  0.1954
 5645SOL    HW219378   2.489   7.636  -0.071  1.1448 -1.3819  0.2314
 5646SOL     OW19379   2.495   2.562   7.349  0.8700  0.1958  0.4257
 5646SOL    HW119380   2.582   2.597   7.371  0.5697  0.3930  1.3743
 5646SOL    HW219381   2.448   2.564   7.432  0.3088 -0.9459  0.1457
 5647SOL     OW19382   5.565   4.781   6.482 -0.1840  0.2484  0.6267
 5647SOL    HW119383   5.503   4.744   6.545  0.7967 -0.4881  1.1937
 5647SOL    HW219384   5.634   4.716   6.475 -0.4716  0.1001 -1.5950
 5648SOL     OW19385   0.392   0.651   8.711 -0.5291  0.1826  0.2082
 5648SOL    HW119386   0.319   0.663   8.770 -1.1833  0.2541 -0.5940
 5648SOL    HW219387   0.371   0.705   8.634 -1.9273 -3.1975 -2.0316
 5649SOL     OW19388   6.804   0.150   8.867  0.1386 -0.3604 -0.6260
 5649SOL    HW119389   6.862   0.081   8.834 -1.3218 -2.3588  0.7355
 5649SOL    HW219390   6.785   0.124   8.957 -0.9732  1.5208 -0.2687
 5650SOL     OW19391   6.518   7.429   4.500 -0.3384  0.4291  0.0326
 5650SOL    HW119392   6.437   7.379   4.492  0.9079 -1.6067 -0.8252
 5650SOL    HW219393   6.542   7.422   4.593 -1.0437  0.9362  0.2628
 5651SOL     OW19394  10.471   2.072   8.936 -0.2753 -0.1982 -0.3172
 5651SOL    HW119395  10.494   1.997   8.991 -0.8623  1.1355  1.9131
 5651SOL    HW219396  10.406   2.038   8.874 -0.3116 -1.5942  0.4465
 5652SOL     OW19397   9.728   4.291   2.736 -0.0425 -0.0109 -0.5108
 5652SOL    HW119398   9.687   4.316   2.653 -1.3523  0.2671  0.2007
 5652SOL    HW219399   9.762   4.374   2.771  0.1177 -0.0610 -0.5438
 5653SOL     OW19400   7.585  10.365   5.725  0.1487 -0.3930 -0.1689
 5653SOL    HW119401   7.601  10.271   5.728  1.0247 -0.2297  0.9048
 5653SOL    HW219402   7.671  10.404   5.710 -0.4072  0.2039 -2.1922
 5654SOL     OW19403   2.778   0.543   6.613  0.0785  0.0597 -0.3325
 5654SOL    HW119404   2.724   0.621   6.598 -0.1336  0.0907  0.5517
 5654SOL    HW219405   2.729   0.491   6.676 -0.3040 -1.3440 -1.7459
 5655SOL     OW19406   0.931   2.195   8.247  0.2097  0.2859 -0.6205
 5655SOL    HW119407   0.889   2.191   8.333  0.5175 -1.6815 -0.5133
 5655SOL    HW219408   0.983   2.276   8.249 -0.6776  0.8530  0.6002
 5656SOL     OW19409   9.971   2.831   1.736  0.2796  0.2943 -0.6020
 5656SOL    HW119410   9.962   2.924   1.712  0.0318 -0.3555 -3.4190
 5656SOL    HW219411  10.053   2.826   1.785  0.2043  2.0127 -0.2384
 5657SOL     OW19412   6.372   6.455   9.597 -0.8399 -0.9627  0.3491
 5657SOL    HW119413   6.382   6.363   9.620 -2.8921 -1.5302 -0.7271
 5657SOL    HW219414   6.411   6.462   9.510  0.4874 -0.4820  0.9608
 5658SOL     OW19415  10.447   3.705   8.351 -0.3254 -0.0929 -0.2041
 5658SOL    HW119416  10.484   3.665   8.272 -1.6480 -0.1373 -0.8247
 5658SOL    HW219417  10.470   3.644   8.421  1.1987  0.1335 -0.4530
 5659SOL     OW19418   2.216  10.482   7.898 -0.1654  0.0536 -0.3694
 5659SOL    HW119419   2.257  10.566   7.920  1.1051 -0.3353 -1.1724
 5659SOL    HW219420   2.187  10.493   7.807 -0.2477 -0.2830 -0.3854
 5660SOL     OW19421   0.484   0.517   0.415 -0.0661 -0.3785  0.0577
 5660SOL    HW119422   0.450   0.539   0.501 -1.6452 -2.6444  0.0939
 5660SOL    HW219423   0.495   0.602   0.371 -0.6465  0.7250  1.9509
 5661SOL     OW19424  10.195   4.068   8.067 -0.4957 -0.2801  0.6873
 5661SOL    HW119425  10.194   4.138   8.002  0.6503 -0.6150  0.2714
 5661SOL    HW219426  10.129   4.006   8.036  0.2837 -0.6115 -0.3861
 5662SOL     OW19427   4.957   2.913   1.255 -0.0469  0.4088 -0.5039
 5662SOL    HW119428   5.041   2.870   1.274 -0.2757 -0.2171 -0.8797
 5662SOL    HW219429   4.976   3.006   1.261  1.5990  0.4714 -4.2466
 5663SOL     OW19430   2.664   5.282   4.166  0.1691 -0.2220 -0.2101
 5663SOL    HW119431   2.644   5.189   4.172 -0.6406 -0.0246  0.3749
 5663SOL    HW219432   2.666   5.313   4.257  2.8374 -0.1221 -0.2433
 5664SOL     OW19433   0.348   8.377   4.609 -0.3071 -0.1488  0.0437
 5664SOL    HW119434   0.283   8.365   4.539  0.2006  1.2025 -0.7131
 5664SOL    HW219435   0.299   8.417   4.681 -0.8698 -1.7005  0.5577
 5665SOL     OW19436   9.156   4.439   4.012 -0.9145  0.1752  0.2614
 5665SOL    HW119437   9.177   4.438   4.105 -1.9656  1.1683  0.5333
 5665SOL    HW219438   9.238   4.415   3.969 -0.5564 -0.8745  1.4428
 5666SOL     OW19439  10.419   8.338  10.063  0.0387 -0.3924 -0.4451
 5666SOL    HW119440  10.466   8.421  10.074  0.0609 -0.6082  1.4682
 5666SOL    HW219441  10.481   8.271  10.093 -0.2037 -1.0635 -1.3710
 5667SOL     OW19442   6.564   1.080   5.741  0.1227 -0.6828  0.5413
 5667SOL    HW119443   6.637   1.056   5.684  1.2619  0.9669  1.2433
 5667SOL    HW219444   6.517   0.998   5.755  0.5021 -1.3688 -1.7611
 5668SOL     OW19445   6.460   6.524   5.722  0.2656 -0.3486 -0.0160
 5668SOL    HW119446   6.409   6.603   5.709  2.3221  1.1536  0.5309
 5668SOL    HW219447   6.451   6.505   5.816  0.1156 -0.5246 -0.0650
 5669SOL     OW19448   8.128   9.740  10.244 -0.3886 -0.0001  0.4437
 5669SOL    HW119449   8.100   9.832  10.251 -0.2911  0.2535 -1.8532
 5669SOL    HW219450   8.223   9.745  10.237 -0.4486 -0.1854 -0.6219
 5670SOL     OW19451   8.237   4.651   5.622 -0.0460  0.7491  0.3667
 5670SOL    HW119452   8.279   4.733   5.648  1.4342  0.2316 -0.3477
 5670SOL    HW219453   8.174   4.677   5.555  2.7485  1.0090 -2.3750
 5671SOL     OW19454   5.438  10.348   3.050  0.3588  0.6178 -0.0476
 5671SOL    HW119455   5.377  10.358   2.977  1.2614 -0.2926 -0.9709
 5671SOL    HW219456   5.501  10.282   3.019  0.7453  0.1910  1.5760
 5672SOL     OW19457   3.269   2.961   0.194 -0.1286  0.4689 -0.0301
 5672SOL    HW119458   3.174   2.948   0.192 -0.2255  1.1226  0.2035
 5672SOL    HW219459   3.281   3.045   0.238  0.6067 -0.0340  0.7532
 5673SOL     OW19460   1.404   2.226   5.359 -0.1975 -0.2946  0.2569
 5673SOL    HW119461   1.404   2.169   5.282  1.5745 -2.1162  1.4931
 5673SOL    HW219462   1.441   2.309   5.328 -2.9048  0.3298 -1.6076
 5674SOL     OW19463   7.283   2.534   9.755  0.0486 -0.1744 -0.5941
 5674SOL    HW119464   7.269   2.603   9.690  0.6875 -0.3483 -0.9204
 5674SOL    HW219465   7.375   2.542   9.780 -0.5615  0.9053  1.4806
 5675SOL     OW19466   9.288   3.829   9.156  0.3258  0.1982  0.4517
 5675SOL    HW119467   9.289   3.908   9.102 -1.4984 -0.6572 -0.9309
 5675SOL    HW219468   9.327   3.762   9.100  0.0615 -0.3052  0.8640
 5676SOL     OW19469   6.409   2.326   1.264  0.5589 -0.0318  0.2285
 5676SOL    HW119470   6.455   2.274   1.329 -0.9333 -1.5685  0.1412
 5676SOL    HW219471   6.318   2.325   1.293  0.0926  0.4370 -1.1189
 5677SOL     OW19472   2.398   7.420   6.910 -0.1930  0.6076  0.3177
 5677SOL    HW119473   2.478   7.473   6.902 -0.1941  0.9730  2.2394
 5677SOL    HW219474   2.329   7.484   6.931 -1.0275  0.2906 -1.2792
 5678SOL     OW19475   3.539   3.056   3.010  0.6094  0.1703 -0.7576
 5678SOL    HW119476   3.547   2.961   2.998  1.1077  0.1532 -0.3300
 5678SOL    HW219477   3.464   3.067   3.068  0.7554  0.0136 -0.5364
 5679SOL     OW19478  10.196   8.905   2.952 -0.1381 -0.2283  0.0938
 5679SOL    HW119479  10.208   8.892   3.046  0.1634 -1.3397 -0.0817
 5679SOL    HW219480  10.137   8.835   2.926 -1.8923  1.3039 -0.2103
 5680SOL     OW19481   3.966   0.697   8.378  0.1456  0.6693  0.4894
 5680SOL    HW119482   3.889   0.692   8.434 -0.1209  0.1022  0.0845
 5680SOL    HW219483   3.933   0.731   8.295  0.1187 -0.6168 -0.0413
 5681SOL     OW19484   6.270   6.173   0.740  0.2153  0.2383 -0.4251
 5681SOL    HW119485   6.335   6.235   0.709 -0.5752  0.6336 -1.3588
 5681SOL    HW219486   6.288   6.163   0.833  0.9363  1.1529 -0.4559
 5682SOL     OW19487   2.380   5.361   5.423 -0.3964  0.0930  0.3738
 5682SOL    HW119488   2.386   5.348   5.328 -0.9196  0.0075  0.3512
 5682SOL    HW219489   2.322   5.291   5.453  0.6782 -0.6053  0.9157
 5683SOL     OW19490   4.252   1.305   6.168  0.1321  0.3985 -0.8360
 5683SOL    HW119491   4.277   1.348   6.251 -0.2661 -0.3795 -0.3000
 5683SOL    HW219492   4.332   1.260   6.140  0.5307  1.3970 -1.3627
 5684SOL     OW19493   8.677   3.963   9.898  0.0626 -0.2291  0.2446
 5684SOL    HW119494   8.751   3.921   9.944  0.5914 -0.7810 -1.0682
 5684SOL    HW219495   8.634   3.891   9.852 -0.6142  0.2749  0.0801
 5685SOL     OW19496   0.622   0.724   2.158 -0.1645 -0.4886  0.1620
 5685SOL    HW119497   0.557   0.740   2.226  1.4861  1.2870  1.4449
 5685SOL    HW219498   0.636   0.629   2.160 -2.0445 -0.8093  0.4173
 5686SOL     OW19499   8.981   7.517   3.893 -0.0691 -0.3677 -0.3431
 5686SOL    HW119500   8.897   7.473   3.906  0.4941 -1.5196 -0.4674
 5686SOL    HW219501   9.046   7.450   3.914  0.8283  0.1291 -1.4715
 5687SOL     OW19502   8.074   3.089   2.434 -0.8620 -0.1081 -0.0968
 5687SOL    HW119503   8.028   3.156   2.384 -0.3632 -0.4014 -0.9718
 5687SOL    HW219504   8.117   3.137   2.505 -2.3016  0.1941  0.5847
 5688SOL     OW19505   8.274   6.234   3.187  0.2358  0.2480  0.1911
 5688SOL    HW119506   8.180   6.233   3.203  0.1882  3.2153  0.7006
 5688SOL    HW219507   8.306   6.152   3.224 -1.9700 -0.2027  1.2444
 5689SOL     OW19508   2.039   9.840   4.152 -0.1166  0.0357 -0.4411
 5689SOL    HW119509   1.968   9.866   4.210 -0.0950  1.3693 -0.9831
 5689SOL    HW219510   2.115   9.829   4.210 -0.7555 -1.5882  0.1678
 5690SOL     OW19511   4.998   4.631   1.341 -0.3201  0.2193 -0.0280
 5690SOL    HW119512   5.017   4.540   1.366 -0.5420 -0.0359 -0.7707
 5690SOL    HW219513   4.984   4.676   1.425  0.7186 -0.2123  0.3955
 5691SOL     OW19514   3.678   1.492   1.873 -0.1804 -0.5667 -0.0815
 5691SOL    HW119515   3.644   1.470   1.787 -2.2222  1.2425  0.1905
 5691SOL    HW219516   3.601   1.508   1.927  1.0227 -1.7862  2.1805
 5692SOL     OW19517   5.425   6.665   5.573  0.4933  0.6125  0.2554
 5692SOL    HW119518   5.398   6.718   5.499  0.7663  2.6297  1.5183
 5692SOL    HW219519   5.521   6.674   5.576  0.7971 -1.6559 -0.6893
 5693SOL     OW19520   9.785   7.889   5.434 -0.0961 -0.4791 -0.4998
 5693SOL    HW119521   9.778   7.906   5.340  0.7956  0.2534 -0.4396
 5693SOL    HW219522   9.879   7.884   5.451 -0.2243  0.2597  0.4991
 5694SOL     OW19523   5.287   1.067   4.695  0.4490 -0.2740 -0.6106
 5694SOL    HW119524   5.333   1.062   4.778  1.1127  0.6415 -0.8964
 5694SOL    HW219525   5.356   1.062   4.629  0.0022 -0.3222 -1.0833
 5695SOL     OW19526   4.675   1.745   6.325 -0.1489  0.4491  0.0611
 5695SOL    HW119527   4.640   1.723   6.238 -1.4544 -0.7583  0.8606
 5695SOL    HW219528   4.770   1.738   6.314 -0.2958 -0.0130 -1.1924
 5696SOL     OW19529   7.633   8.080   9.651  0.1474 -0.4915  0.3565
 5696SOL    HW119530   7.651   8.145   9.719  0.7236 -1.0499  0.7465
 5696SOL    HW219531   7.558   8.115   9.604 -0.1220  0.0180  1.1395
 5697SOL     OW19532   5.170   0.312   6.210 -0.4599 -0.2643  0.2190
 5697SOL    HW119533   5.177   0.269   6.124 -0.6879 -0.0439  0.0897
 5697SOL    HW219534   5.104   0.379   6.198  1.0848  1.2858 -0.0596
 5698SOL     OW19535   0.950  10.302   4.461 -0.3125  0.4783  0.1914
 5698SOL    HW119536   0.856  10.308   4.478 -0.3386  2.2225 -0.3597
 5698SOL    HW219537   0.974  10.213   4.487 -1.8066  0.5071  1.8479
 5699SOL     OW19538   5.633   5.754   4.154  0.0967 -0.2232  0.6740
 5699SOL    HW119539   5.586   5.686   4.105 -0.6787  1.0391 -0.3889
 5699SOL    HW219540   5.569   5.784   4.219 -0.3159  0.9137 -0.2251
 5700SOL     OW19541   3.146   3.041   9.224 -0.0723  0.3004  0.2835
 5700SOL    HW119542   3.061   3.035   9.179  0.2906  0.5175 -0.4522
 5700SOL    HW219543   3.202   3.087   9.162  0.3628  0.8944  1.1030
 5701SOL     OW19544   2.188  10.385   4.438 -0.5469 -0.1063 -0.3106
 5701SOL    HW119545   2.122  10.413   4.375  2.1299  2.9914 -2.0892
 5701SOL    HW219546   2.175  10.444   4.513 -0.4946 -0.2414 -0.1957
 5702SOL     OW19547  10.459   8.013   5.862  0.4343  0.0060  0.2827
 5702SOL    HW119548  10.425   8.103   5.860  0.5970  0.1444  1.9822
 5702SOL    HW219549  10.475   7.996   5.955  0.4017 -1.7947 -0.0111
 5703SOL     OW19550   2.296   9.881  10.225  0.0570  0.3075  0.0707
 5703SOL    HW119551   2.277   9.913  10.313 -1.8833 -0.6943  0.0710
 5703SOL    HW219552   2.242   9.802  10.216  1.9119 -0.9046 -1.2234
 5704SOL     OW19553   4.997   0.065   0.360 -0.6369 -0.1245 -0.2814
 5704SOL    HW119554   4.954   0.018   0.431 -0.5504  0.4432  0.1518
 5704SOL    HW219555   4.937   0.136   0.338  0.6892  1.5917  1.3329
 5705SOL     OW19556   4.752   8.856   9.537 -0.0958  0.2120  0.3044
 5705SOL    HW119557   4.838   8.873   9.574 -0.2782  0.8865  0.4246
 5705SOL    HW219558   4.702   8.936   9.551 -0.8451 -0.2679  0.5005
 5706SOL     OW19559   8.437   1.503   4.036 -0.4373 -0.0776 -0.1940
 5706SOL    HW119560   8.495   1.516   3.961  0.0477 -0.1466  0.1669
 5706SOL    HW219561   8.397   1.589   4.050  0.6784  0.3526  0.4633
 5707SOL     OW19562   3.964   2.354   0.217 -0.4050  0.1393  0.4778
 5707SOL    HW119563   4.016   2.279   0.189 -2.4811 -1.6755  1.2134
 5707SOL    HW219564   3.989   2.424   0.157  2.5090 -0.7134  0.5305
 5708SOL     OW19565   9.918   6.668   5.855  0.5949  0.1771  0.1142
 5708SOL    HW119566   9.913   6.578   5.824 -1.2939  0.1978  0.2476
 5708SOL    HW219567   9.888   6.664   5.946  1.3431  0.8216  0.4043
 5709SOL     OW19568   7.141   1.601   4.164  0.4797 -0.1804  0.0714
 5709SOL    HW119569   7.233   1.626   4.165  0.5929 -0.3705 -1.8586
 5709SOL    HW219570   7.114   1.609   4.072 -1.4394 -0.1185  0.5821
 5710SOL     OW19571   8.018  10.031   4.499  0.4928  0.2317 -0.3001
 5710SOL    HW119572   7.978   9.953   4.461  0.8532 -1.3951  2.4176
 5710SOL    HW219573   7.946  10.076   4.542  0.8010 -0.3783  0.8933
 5711SOL     OW19574   8.653   5.532   7.543  0.1008  0.2358 -0.0774
 5711SOL    HW119575   8.649   5.496   7.455  0.4275  2.9083 -1.2710
 5711SOL    HW219576   8.730   5.491   7.582  0.3970 -0.3973 -1.2880
 5712SOL     OW19577   7.612   9.085   7.851  0.1503  0.2474  0.5159
 5712SOL    HW119578   7.609   9.073   7.946 -1.9039  1.2105  0.6350
 5712SOL    HW219579   7.524   9.060   7.822 -1.7134  5.9992 -0.2149
 5713SOL     OW19580   2.819   0.721   6.274 -0.1710  0.0809  0.2785
 5713SOL    HW119581   2.793   0.801   6.227  1.7597  0.2856 -0.5176
 5713SOL    HW219582   2.810   0.651   6.210 -2.5617 -0.5561  1.1761
 5714SOL     OW19583   4.882   0.034   1.787  0.5051 -0.4174  0.2704
 5714SOL    HW119584   4.863   0.061   1.877 -1.5206  0.3214 -0.3263
 5714SOL    HW219585   4.894   0.116   1.739 -0.8711 -0.6928 -0.5935
 5715SOL     OW19586   5.162   6.312   5.600  0.9905 -0.2200 -0.5009
 5715SOL    HW119587   5.153   6.259   5.521  1.8351  0.9813 -1.4378
 5715SOL    HW219588   5.249   6.350   5.594  0.4006  1.2913  0.1325
 5716SOL     OW19589   2.176   3.222   4.826 -0.2765 -0.4085 -0.4746
 5716SOL    HW119590   2.148   3.308   4.794 -2.3744 -0.5429  0.8031
 5716SOL    HW219591   2.173   3.165   4.750 -0.5983  0.2620 -0.9756
 5717SOL     OW19592   5.189   6.260   9.288 -0.3092  0.3405  0.1556
 5717SOL    HW119593   5.266   6.227   9.334  1.2246  1.7461 -1.2543
 5717SOL    HW219594   5.142   6.310   9.354  0.3199 -0.0225  0.9001
 5718SOL     OW19595   3.938  10.004   4.826  0.0094  0.2190 -0.2159
 5718SOL    HW119596   3.870  10.066   4.854 -0.7716 -0.4260 -0.6560
 5718SOL    HW219597   3.920   9.988   4.734 -0.4101 -1.4355  0.1363
 5719SOL     OW19598   4.732   5.548   0.452  0.6211 -0.4149 -0.3503
 5719SOL    HW119599   4.734   5.471   0.508  1.1891 -0.3021 -0.2105
 5719SOL    HW219600   4.666   5.528   0.386  0.3225 -0.7653  0.0464
 5720SOL     OW19601   4.848   0.174   6.236 -0.1932  0.3139 -0.0288
 5720SOL    HW119602   4.793   0.240   6.278  2.1879  2.2066  0.3913
 5720SOL    HW219603   4.859   0.106   6.303 -1.4009  0.2475  0.1204
 5721SOL     OW19604   3.885   1.510   8.980  0.3168 -0.0034 -0.0649
 5721SOL    HW119605   3.886   1.556   8.897 -0.8740  1.8290  0.8673
 5721SOL    HW219606   3.970   1.528   9.019 -0.1493  1.5238  0.3038
 5722SOL     OW19607   5.814   7.575   2.551  0.3849 -0.3306  0.0640
 5722SOL    HW119608   5.869   7.509   2.593  1.1966  1.1925  1.5277
 5722SOL    HW219609   5.751   7.600   2.619  0.4816  0.8176 -0.2518
 5723SOL     OW19610   9.545   1.497   9.053  0.3646  0.0631 -0.5444
 5723SOL    HW119611   9.487   1.510   8.978  0.5391 -1.5463 -1.0006
 5723SOL    HW219612   9.487   1.503   9.129  0.5505  4.1831 -0.5040
 5724SOL     OW19613   4.019   9.141   1.950  0.0532  0.2976 -0.3582
 5724SOL    HW119614   4.011   9.167   1.858 -0.6844  0.8173 -0.1604
 5724SOL    HW219615   3.963   9.064   1.958 -0.8244  0.9437 -0.0970
 5725SOL     OW19616   9.220   5.675   0.033 -0.2637  0.0094  0.2802
 5725SOL    HW119617   9.153   5.618  -0.005 -0.5541  1.9432 -2.4519
 5725SOL    HW219618   9.289   5.616   0.061 -1.2720 -1.7926 -0.8380
 5726SOL     OW19619   3.575   3.856   6.865 -0.5374  0.2960 -0.3836
 5726SOL    HW119620   3.576   3.813   6.780  0.9725  2.0983 -1.3622
 5726SOL    HW219621   3.520   3.801   6.920 -0.7014 -1.4754 -2.2291
 5727SOL     OW19622   7.436   9.161   3.165 -0.3615  0.5854  0.6368
 5727SOL    HW119623   7.402   9.243   3.129  0.1224  1.2831  1.6864
 5727SOL    HW219624   7.491   9.125   3.095 -1.5136  0.5441 -0.2663
 5728SOL     OW19625   9.467   7.155   6.892 -0.1497  0.0388 -0.2790
 5728SOL    HW119626   9.375   7.160   6.869 -0.2044 -2.1267 -0.8033
 5728SOL    HW219627   9.489   7.062   6.881  2.2447  0.5978 -0.7573
 5729SOL     OW19628   6.718   5.384   7.062  0.8885  0.5057 -0.4295
 5729SOL    HW119629   6.802   5.355   7.028  0.8192  1.3359 -1.3599
 5729SOL    HW219630   6.654   5.350   6.998  0.5796  0.4673 -0.1029
 5730SOL     OW19631   2.435   1.443   3.039 -0.0607  0.0837  0.0136
 5730SOL    HW119632   2.371   1.514   3.034 -0.5095 -0.4166 -1.7824
 5730SOL    HW219633   2.472   1.438   2.951 -0.4514 -2.2880 -0.0708
 5731SOL     OW19634   4.854   3.256   9.332  0.1012 -0.9268  0.4116
 5731SOL    HW119635   4.850   3.347   9.360 -0.6131 -1.2110  1.2863
 5731SOL    HW219636   4.769   3.219   9.357  0.1050 -1.6502 -0.5897
 5732SOL     OW19637   2.333  10.474   4.717  0.1330 -0.0816  0.5374
 5732SOL    HW119638   2.427  10.487   4.703 -0.0952  0.7916 -0.2661
 5732SOL    HW219639   2.304  10.554   4.762 -0.5035  0.3441 -0.5984
 5733SOL     OW19640   6.360   8.432   9.159  0.1833  0.2640  0.6715
 5733SOL    HW119641   6.392   8.431   9.068 -0.1508 -0.1375  0.5565
 5733SOL    HW219642   6.323   8.344   9.172  0.8986  0.0703  1.4350
 5734SOL     OW19643   5.820   1.845   1.033 -0.5204  0.3192 -0.3230
 5734SOL    HW119644   5.904   1.854   0.988 -0.0243 -0.3636  0.4459
 5734SOL    HW219645   5.843   1.812   1.120 -1.7588 -2.6363 -1.0100
 5735SOL     OW19646   0.857   1.004   1.757 -0.2283  0.0056 -0.8218
 5735SOL    HW119647   0.942   0.990   1.714 -0.4434 -3.2451 -0.4095
 5735SOL    HW219648   0.795   1.010   1.684  0.0489 -0.1881 -1.0810
 5736SOL     OW19649   8.459   9.445   2.259 -0.0321 -0.0671 -0.2193
 5736SOL    HW119650   8.445   9.363   2.211  0.8066 -1.2928  1.5306
 5736SOL    HW219651   8.552   9.463   2.247 -0.3893  1.2005 -1.3790
 5737SOL     OW19652   8.926   7.863   3.224 -0.0739 -0.2192  0.2262
 5737SOL    HW119653   8.935   7.820   3.309  2.2349  1.6030  1.0238
 5737SOL    HW219654   9.009   7.846   3.180 -0.8950 -0.3642 -1.3267
 5738SOL     OW19655   4.211   6.353   6.515  0.3424  0.2079 -0.0922
 5738SOL    HW119656   4.159   6.433   6.518 -0.8000 -0.5073 -0.0408
 5738SOL    HW219657   4.301   6.383   6.501 -0.2030  1.4339 -1.1527
 5739SOL     OW19658   1.683   6.606   3.757  0.2671  0.1921 -0.5024
 5739SOL    HW119659   1.719   6.695   3.750 -1.1139  0.7780 -0.5837
 5739SOL    HW219660   1.639   6.605   3.841 -2.0746  0.5400 -1.6403
 5740SOL     OW19661   4.595   5.969   5.340  0.1892  0.5172  0.3562
 5740SOL    HW119662   4.522   5.987   5.400  1.9293  0.7382  2.5295
 5740SOL    HW219663   4.610   5.875   5.347  1.0793  0.7073  1.1241
 5741SOL     OW19664   2.415   8.595   2.011  0.4017  0.0059  0.4510
 5741SOL    HW119665   2.474   8.546   1.955 -0.4999 -1.4338  0.7243
 5741SOL    HW219666   2.433   8.562   2.099 -1.9251 -1.7010  0.3578
 5742SOL     OW19667   5.155   7.935   0.562  0.4402  0.1890  0.2929
 5742SOL    HW119668   5.171   7.845   0.534 -1.0424 -0.1005  0.3312
 5742SOL    HW219669   5.243   7.973   0.569  1.0255 -0.6769 -1.5682
 5743SOL     OW19670   0.182   0.974   4.831 -0.4451  0.0721  0.0085
 5743SOL    HW119671   0.170   0.910   4.761 -2.0451  0.9776 -0.6012
 5743SOL    HW219672   0.152   1.056   4.793 -0.9348  0.6705  1.6197
 5744SOL     OW19673   0.295   3.832   6.746  0.1922  0.5724 -0.1872
 5744SOL    HW119674   0.308   3.794   6.659 -0.6738  2.8264 -1.3639
 5744SOL    HW219675   0.269   3.922   6.730 -1.1115  0.7614  2.4024
 5745SOL     OW19676   6.522   1.266   5.313 -0.3843  0.1785 -0.2888
 5745SOL    HW119677   6.470   1.187   5.324  0.9021 -0.6271  0.1985
 5745SOL    HW219678   6.530   1.303   5.401  2.0288 -1.1556  0.1409
 5746SOL     OW19679   2.871   3.846   1.178  0.1422  0.4367 -0.6529
 5746SOL    HW119680   2.820   3.881   1.251  2.0720 -0.2218  1.1311
 5746SOL    HW219681   2.814   3.779   1.140 -0.1904 -0.6885  1.6257
 5747SOL     OW19682   6.250   7.410   8.553  0.0098  0.4532  0.0614
 5747SOL    HW119683   6.285   7.422   8.464  0.4695  1.2421  0.3368
 5747SOL    HW219684   6.304   7.468   8.607 -1.2223  1.1081  0.6222
 5748SOL     OW19685   7.134   6.151   1.207 -0.0984 -0.4625 -0.2700
 5748SOL    HW119686   7.133   6.236   1.164 -0.4618 -0.3285 -0.0021
 5748SOL    HW219687   7.142   6.088   1.135 -0.4636 -0.2274 -0.5216
 5749SOL     OW19688   5.228   8.816   3.103  0.9163  0.1566  0.2248
 5749SOL    HW119689   5.161   8.749   3.118  1.6198 -0.4338  0.8298
 5749SOL    HW219690   5.310   8.773   3.129  1.4675  1.0147 -0.0781
 5750SOL     OW19691   2.189   1.311   7.923  0.0907 -0.5256 -0.3518
 5750SOL    HW119692   2.109   1.275   7.885  0.1271 -0.6783 -0.2848
 5750SOL    HW219693   2.168   1.403   7.940 -1.0874 -1.1595  2.3066
 5751SOL     OW19694   0.705   4.637   2.557  0.4786  0.5186 -0.1519
 5751SOL    HW119695   0.612   4.662   2.554 -0.4632 -2.5720 -2.1045
 5751SOL    HW219696   0.715   4.592   2.641 -0.4296 -0.9000 -0.7516
 5752SOL     OW19697   6.671   5.795   1.872  0.9559  0.1872 -0.6393
 5752SOL    HW119698   6.591   5.848   1.877  2.4405  2.6200 -1.0283
 5752SOL    HW219699   6.674   5.764   1.782 -0.2554 -1.1933 -0.2432
 5753SOL     OW19700   6.775   9.192   6.409 -0.3647  0.0731  0.4166
 5753SOL    HW119701   6.709   9.189   6.340  0.1440 -0.7186 -0.0610
 5753SOL    HW219702   6.750   9.123   6.470  0.1182 -0.3790  0.1213
 5754SOL     OW19703   2.765   6.407   9.398 -0.2395 -0.5950 -0.8252
 5754SOL    HW119704   2.759   6.451   9.483  1.7392 -1.2139 -0.3067
 5754SOL    HW219705   2.719   6.324   9.412  0.2122 -0.7671 -0.2691
 5755SOL     OW19706   2.891   0.325   6.438  0.1815 -0.1165  0.1028
 5755SOL    HW119707   2.816   0.277   6.474  0.5270 -1.0619 -0.4033
 5755SOL    HW219708   2.888   0.411   6.481 -1.0055 -0.2520  0.3148
 5756SOL     OW19709   4.869   6.411   5.139  0.3866  0.1042 -0.2643
 5756SOL    HW119710   4.959   6.436   5.161  1.0491 -0.7178 -1.9118
 5756SOL    HW219711   4.865   6.418   5.044 -1.4578  0.5831 -0.1922
 5757SOL     OW19712   9.268   0.722   8.117  0.0873 -0.2348 -1.0494
 5757SOL    HW119713   9.243   0.795   8.173 -0.5090  0.2068 -1.8586
 5757SOL    HW219714   9.205   0.653   8.139  0.0910 -0.1945 -0.9110
 5758SOL     OW19715   2.943   4.348   0.640 -0.3502  0.7066 -0.2658
 5758SOL    HW119716   2.879   4.372   0.573  1.2017  0.1275 -2.0612
 5758SOL    HW219717   2.960   4.429   0.688 -1.1692  1.2471 -0.8638
 5759SOL     OW19718   6.869   6.868   1.056  0.0673 -0.2890  0.2915
 5759SOL    HW119719   6.795   6.820   1.017 -0.8569  0.3176  1.2426
 5759SOL    HW219720   6.908   6.915   0.982  0.5235 -1.8695 -0.5214
 5760SOL     OW19721   0.728   4.941   7.788 -0.1150  0.3883  0.4966
 5760SOL    HW119722   0.737   4.903   7.700  0.9973  0.3654  0.6073
 5760SOL    HW219723   0.640   4.916   7.816  0.8264 -3.0071  0.9430
 5761SOL     OW19724   5.947   7.066   3.960 -0.0859 -0.2753 -0.4969
 5761SOL    HW119725   5.945   7.161   3.949 -2.3495 -0.2978 -0.9294
 5761SOL    HW219726   5.938   7.032   3.871  1.2877 -0.9336 -0.4059
 5762SOL     OW19727   0.474   2.547   9.462 -0.1308  0.5046 -0.0495
 5762SOL    HW119728   0.525   2.622   9.491  0.8256  0.0604 -0.5563
 5762SOL    HW219729   0.401   2.543   9.525  1.0799  0.4337  1.4154
 5763SOL     OW19730   6.276   2.480   0.886  0.1832 -0.2652  0.1184
 5763SOL    HW119731   6.311   2.450   0.803 -0.2261 -2.4765  0.6839
 5763SOL    HW219732   6.183   2.499   0.868  0.0791 -0.8085  0.0891
 5764SOL     OW19733   7.521   7.963   2.576 -0.1148 -0.5181  0.1528
 5764SOL    HW119734   7.453   7.999   2.634 -0.1443 -0.3637  0.0236
 5764SOL    HW219735   7.591   7.935   2.635  0.0315  0.0130  0.2387
 5765SOL     OW19736   0.531   6.381   3.103 -0.0899 -0.1852  0.1174
 5765SOL    HW119737   0.623   6.356   3.112 -0.2648 -0.8726  0.0818
 5765SOL    HW219738   0.524   6.412   3.012  0.3095  0.8009  0.4112
 5766SOL     OW19739   2.332   9.246  10.205 -0.6725  0.1397  0.4760
 5766SOL    HW119740   2.392   9.320  10.189 -1.4578  0.8990  0.9749
 5766SOL    HW219741   2.382   9.187  10.262  0.6924 -0.7034 -1.4755
 5767SOL     OW19742   6.211   6.085   2.079 -0.5501 -0.1538 -0.4295
 5767SOL    HW119743   6.192   6.174   2.047 -2.1936 -0.8230 -1.4229
 5767SOL    HW219744   6.189   6.028   2.006  1.0769 -1.3644 -0.0180
 5768SOL     OW19745   4.877   9.364   1.079  0.3824  0.3655 -0.0121
 5768SOL    HW119746   4.817   9.411   1.020 -0.4672 -0.2421  0.3459
 5768SOL    HW219747   4.882   9.421   1.156  0.3822  0.4931 -0.1046
 5769SOL     OW19748   5.475   4.076   7.274 -0.3354 -0.1832  0.6817
 5769SOL    HW119749   5.392   4.056   7.317  0.0449 -1.3242  0.9212
 5769SOL    HW219750   5.528   3.997   7.287  0.4288  0.1465 -0.3247
 5770SOL     OW19751   3.912   0.468   1.757  0.0551  0.1220  0.1800
 5770SOL    HW119752   3.969   0.498   1.686 -0.2968  0.5868  0.0929
 5770SOL    HW219753   3.970   0.417   1.814  0.2371 -0.6701 -0.6976
 5771SOL     OW19754   2.152   1.525   9.990  0.7253  0.5544  0.2857
 5771SOL    HW119755   2.148   1.575   9.908  1.9901 -0.5952 -0.5264
 5771SOL    HW219756   2.245   1.522  10.011  0.5361 -0.2759  1.0542
 5772SOL     OW19757   7.885   8.997   0.399 -0.1789  0.7756 -0.2354
 5772SOL    HW119758   7.948   8.929   0.373 -0.8232  0.6124 -1.4344
 5772SOL    HW219759   7.805   8.974   0.352 -0.7418  1.7315  0.2407
 5773SOL     OW19760   4.131   2.056   1.024  0.0882  0.4402  0.3147
 5773SOL    HW119761   4.055   2.000   1.037 -0.9760  1.7348 -0.0184
 5773SOL    HW219762   4.096   2.145   1.030  1.4611  1.0751 -0.5432
 5774SOL     OW19763   3.442   1.453   8.319 -0.4108 -0.0894 -0.4790
 5774SOL    HW119764   3.372   1.390   8.304  1.4214 -2.6181  0.8213
 5774SOL    HW219765   3.446   1.463   8.414  1.3422 -0.4812 -0.4826
 5775SOL     OW19766   6.528   3.558   5.659  0.0260 -0.1973 -0.0904
 5775SOL    HW119767   6.505   3.565   5.751  0.0024 -0.2473 -0.0927
 5775SOL    HW219768   6.519   3.465   5.638  2.1889 -0.5876  0.4329
 5776SOL     OW19769   7.553   5.529   9.464 -0.7328  0.6369  0.1591
 5776SOL    HW119770   7.633   5.577   9.443  0.2966 -0.8640  0.4976
 5776SOL    HW219771   7.534   5.479   9.385  0.0595 -0.8316  0.8478
 5777SOL     OW19772   2.347   3.234   8.473  0.1246  0.0663 -0.3111
 5777SOL    HW119773   2.310   3.275   8.394 -1.6659  1.1451  1.0116
 5777SOL    HW219774   2.316   3.144   8.470  1.4199 -0.3907 -1.6033
 5778SOL     OW19775   6.851   7.456   9.322 -0.1855  0.3283  0.8453
 5778SOL    HW119776   6.804   7.506   9.256  0.1806 -0.7899 -0.3021
 5778SOL    HW219777   6.940   7.448   9.287  0.0690 -0.1184  1.5660
 5779SOL     OW19778   0.605   1.481   8.402  0.0365  0.0915 -0.0026
 5779SOL    HW119779   0.524   1.454   8.358  0.6206 -1.6394 -0.0772
 5779SOL    HW219780   0.591   1.458   8.494  0.6391 -0.7253 -0.1066
 5780SOL     OW19781   3.095   2.694   3.386 -0.2307  0.0018 -0.5314
 5780SOL    HW119782   3.060   2.605   3.390 -1.3397  0.4708  0.8254
 5780SOL    HW219783   3.067   2.734   3.468  0.9425  1.3603 -0.7681
 5781SOL     OW19784   9.668   7.815   6.213 -0.0228  0.2179  0.3694
 5781SOL    HW119785   9.666   7.817   6.117 -1.0658 -0.9312  0.3459
 5781SOL    HW219786   9.577   7.800   6.238  0.3432 -0.1426  1.5257
 5782SOL     OW19787   3.335   2.818   9.653  0.0281  0.4664 -0.7237
 5782SOL    HW119788   3.299   2.904   9.631  1.5950  1.2076 -0.5263
 5782SOL    HW219789   3.430   2.832   9.658  0.1970 -0.8879  0.9621
 5783SOL     OW19790   6.040   9.469   1.669 -0.5018 -0.1778 -0.3361
 5783SOL    HW119791   6.108   9.505   1.611 -1.2130  1.0716 -0.4453
 5783SOL    HW219792   6.038   9.530   1.743 -1.4014 -0.2812 -0.2698
 5784SOL     OW19793   7.174   8.352   1.605 -0.0098  0.1978 -0.3424
 5784SOL    HW119794   7.232   8.421   1.637  0.6630 -0.4742 -0.1103
 5784SOL    HW219795   7.154   8.378   1.514  1.0019  0.2087 -0.5730
 5785SOL     OW19796   1.803   1.072   8.281  0.3066 -0.0417 -0.3625
 5785SOL    HW119797   1.842   1.101   8.199  0.3918 -0.0312 -0.3181
 5785SOL    HW219798   1.769   0.985   8.262  2.6492 -1.1900  0.2809
 5786SOL     OW19799   8.381   6.847   1.131 -0.0555 -0.2378 -0.9106
 5786SOL    HW119800   8.352   6.937   1.118 -0.8618 -0.1310  1.2327
 5786SOL    HW219801   8.307   6.793   1.104 -0.6692 -0.1188  0.4473
 5787SOL     OW19802   9.791   0.167   7.091 -0.3651  0.1008  0.3146
 5787SOL    HW119803   9.735   0.099   7.130 -2.7512  2.4251  1.2271
 5787SOL    HW219804   9.771   0.162   6.997 -1.7628  0.5446  0.5636
 5788SOL     OW19805   4.287   3.210   3.837  0.7779 -0.0286 -0.5321
 5788SOL    HW119806   4.312   3.301   3.821 -0.1631  0.0286 -1.7879
 5788SOL    HW219807   4.221   3.215   3.906 -0.7564  0.4661 -1.9746
 5789SOL     OW19808   4.679   9.771   5.894 -0.1364 -1.1754 -0.1640
 5789SOL    HW119809   4.671   9.677   5.909 -1.6347 -0.6717  2.9070
 5789SOL    HW219810   4.591   9.806   5.909  0.1710  0.6934 -2.1124
 5790SOL     OW19811   7.977   7.898   2.885 -0.1995 -0.1362  0.1941
 5790SOL    HW119812   8.045   7.911   2.819 -0.3463 -1.2181 -0.1744
 5790SOL    HW219813   7.981   7.978   2.938  1.2089 -0.0767  0.0502
 5791SOL     OW19814   6.207   3.249   9.626 -0.3128  0.5245 -0.5653
 5791SOL    HW119815   6.301   3.259   9.640 -0.5240 -0.4762  2.0069
 5791SOL    HW219816   6.183   3.171   9.675 -2.5575  0.9679 -0.8440
 5792SOL     OW19817   8.674   3.614   0.296  0.4129  0.0021 -0.5879
 5792SOL    HW119818   8.608   3.572   0.242  1.4507 -0.7561 -1.2901
 5792SOL    HW219819   8.756   3.572   0.273  0.8999 -0.4552  1.6706
 5793SOL     OW19820   8.577   3.609   5.536  0.1825 -0.0716 -0.1104
 5793SOL    HW119821   8.611   3.529   5.575 -0.2902 -0.9460 -1.4250
 5793SOL    HW219822   8.620   3.680   5.584  0.1151 -1.0899  1.5045
 5794SOL     OW19823   8.297   9.386   9.986  0.4669  0.0510  0.0516
 5794SOL    HW119824   8.311   9.481   9.993  2.7302  0.1403 -3.4685
 5794SOL    HW219825   8.366   9.348  10.040  0.2089  0.3746  0.6267
 5795SOL     OW19826   9.445   7.418   4.156 -0.0908  0.1556 -0.1871
 5795SOL    HW119827   9.486   7.448   4.237 -4.0521  1.4561  1.5867
 5795SOL    HW219828   9.443   7.496   4.100 -0.7674  0.3524  0.0898
 5796SOL     OW19829   9.334   5.836   2.980 -0.2777  0.1645 -0.2956
 5796SOL    HW119830   9.257   5.796   2.940  0.0488 -0.5508 -0.2249
 5796SOL    HW219831   9.377   5.764   3.026  1.4801  0.0668 -1.9399
 5797SOL     OW19832   9.785   7.791   2.015 -0.0874  0.0333 -0.2005
 5797SOL    HW119833   9.856   7.727   2.015 -0.7801 -0.7886 -1.6103
 5797SOL    HW219834   9.715   7.750   2.067 -0.4327 -0.2415 -0.8780
 5798SOL     OW19835   8.096   7.522   5.459  0.0021 -0.0543 -0.5932
 5798SOL    HW119836   8.140   7.445   5.421 -0.7773 -0.5683 -0.4797
 5798SOL    HW219837   8.168   7.578   5.489  0.5957 -0.3414 -1.4520
 5799SOL     OW19838   6.753   9.627   2.543 -0.2554 -0.7167 -0.1577
 5799SOL    HW119839   6.715   9.662   2.463  0.3535 -1.1698 -0.6535
 5799SOL    HW219840   6.847   9.627   2.527  0.0185  0.6556  1.1528
 5800SOL     OW19841   9.305   6.326   1.163 -0.1488 -0.3998 -0.1136
 5800SOL    HW119842   9.374   6.319   1.229  0.5385 -1.3730 -0.8980
 5800SOL    HW219843   9.260   6.242   1.167 -1.3314  0.2463  0.4164
 5801SOL     OW19844  10.104   8.495   7.710  0.3741 -0.4014 -0.2747
 5801SOL    HW119845  10.158   8.571   7.734 -1.6297  1.6398 -1.7127
 5801SOL    HW219846  10.016   8.518   7.741 -0.0598 -2.8450  0.5124
 5802SOL     OW19847   3.843   6.885   3.822 -0.2918 -0.0637  0.1662
 5802SOL    HW119848   3.821   6.970   3.860  0.7251  0.1402  0.3338
 5802SOL    HW219849   3.761   6.836   3.824 -0.8490  0.8464  0.2347
 5803SOL     OW19850  10.305   0.760   5.730 -0.1119 -0.4748 -0.3279
 5803SOL    HW119851  10.337   0.840   5.774 -0.8360 -0.0636 -0.5354
 5803SOL    HW219852  10.323   0.690   5.793  1.3131 -0.2908 -0.4856
 5804SOL     OW19853   1.979   2.066   6.820  0.5384 -0.2121  0.1947
 5804SOL    HW119854   2.043   2.005   6.856  0.0100 -1.1413 -0.3903
 5804SOL    HW219855   1.913   2.074   6.889  0.6279 -0.2672  0.2881
 5805SOL     OW19856   3.566   4.631   1.691 -0.5958  0.0643 -0.5796
 5805SOL    HW119857   3.613   4.567   1.637 -0.4548  0.4943 -0.9715
 5805SOL    HW219858   3.580   4.714   1.647  2.6613  1.1042  2.0392
 5806SOL     OW19859   0.358   4.523   9.441 -0.1158  0.0290 -0.0426
 5806SOL    HW119860   0.336   4.461   9.371 -0.8902  1.5262 -1.2036
 5806SOL    HW219861   0.299   4.598   9.426  1.2801  1.3674  0.8258
 5807SOL     OW19862   6.702   7.078  10.177  0.0145 -0.0069 -0.0572
 5807SOL    HW119863   6.755   7.038  10.108 -0.1093  0.8571 -0.6663
 5807SOL    HW219864   6.714   7.020  10.253 -0.5354 -1.4427 -1.0343
 5808SOL     OW19865   9.980   4.081   1.685 -0.5436 -0.3857  0.0664
 5808SOL    HW119866  10.038   4.135   1.739  0.1034 -0.9257 -0.0665
 5808SOL    HW219867   9.892   4.107   1.710 -0.2459 -0.0267  0.7674
 5809SOL     OW19868   9.239   8.066   8.536  0.6934 -0.6122 -0.3781
 5809SOL    HW119869   9.163   8.115   8.505  0.8886 -0.0525  0.0110
 5809SOL    HW219870   9.253   7.998   8.469  1.2056  0.6694 -1.6214
 5810SOL     OW19871   4.039   2.580   6.770 -0.8740 -0.0310 -0.1888
 5810SOL    HW119872   4.008   2.654   6.822  1.7094  0.7368  0.4242
 5810SOL    HW219873   4.041   2.613   6.680 -0.3157  0.4758  0.0000
 5811SOL     OW19874   6.821   9.269   8.197 -0.0999  0.2398  0.7782
 5811SOL    HW119875   6.820   9.175   8.179 -2.1411 -0.5349  3.9200
 5811SOL    HW219876   6.910   9.288   8.224  1.4055  0.2204 -3.4480
 5812SOL     OW19877  10.142   4.129   5.116 -0.4296 -0.1854  0.0435
 5812SOL    HW119878  10.096   4.198   5.163 -1.0320 -0.3690 -0.2567
 5812SOL    HW219879  10.076   4.092   5.057  0.0466 -0.6047 -0.2407
 5813SOL     OW19880   0.808   1.842   1.137 -0.0505  0.2852 -0.4144
 5813SOL    HW119881   0.884   1.886   1.175  0.7874 -1.0560 -0.4674
 5813SOL    HW219882   0.776   1.903   1.070  0.5968  1.1286  0.0176
 5814SOL     OW19883   6.795   6.348   3.677 -0.3829  0.2102  0.5594
 5814SOL    HW119884   6.716   6.401   3.692 -0.7898 -0.0578 -0.5305
 5814SOL    HW219885   6.867   6.403   3.708 -1.0111  0.3411  1.8622
 5815SOL     OW19886   5.184   2.136   4.201  0.4338 -0.2415  0.1278
 5815SOL    HW119887   5.092   2.107   4.198  0.7261 -1.1928 -1.9695
 5815SOL    HW219888   5.229   2.067   4.250  0.2055 -0.3713  0.1566
 5816SOL     OW19889   1.089   6.707   1.170  0.7702 -0.3305  0.2912
 5816SOL    HW119890   1.096   6.665   1.084 -1.2775  1.1388 -0.6505
 5816SOL    HW219891   1.168   6.760   1.177  0.8463 -0.2831 -0.7864
 5817SOL     OW19892   2.070   7.856   4.338  0.5612  0.7509  0.8563
 5817SOL    HW119893   2.086   7.831   4.429  2.3938  0.8232  0.5877
 5817SOL    HW219894   2.111   7.787   4.286 -0.5544  0.6522  0.0678
 5818SOL     OW19895   2.265   6.182   4.749 -0.1205 -0.1021  0.6536
 5818SOL    HW119896   2.175   6.201   4.726  0.3707  1.9740  0.2876
 5818SOL    HW219897   2.278   6.091   4.722 -2.2282 -0.6283  1.2257
 5819SOL     OW19898   2.226   4.830   8.155  0.0894  0.7890 -0.0255
 5819SOL    HW119899   2.183   4.783   8.082 -1.3597  0.3988  1.0276
 5819SOL    HW219900   2.180   4.914   8.159  0.4773  0.9923  0.1505
 5820SOL     OW19901   1.765   4.656   7.326 -0.1709  0.1663  0.4875
 5820SOL    HW119902   1.802   4.729   7.276 -0.1523 -0.7552 -0.8994
 5820SOL    HW219903   1.830   4.638   7.394  1.1622 -0.3176 -0.8615
 5821SOL     OW19904   3.326   7.098   4.952  0.9179 -0.2755 -0.4092
 5821SOL    HW119905   3.251   7.154   4.972 -0.1060 -1.7213  0.0102
 5821SOL    HW219906   3.389   7.156   4.908 -0.1221  1.1462 -0.1043
 5822SOL     OW19907   7.118   1.152   4.313 -0.7125 -0.6525 -0.5391
 5822SOL    HW119908   7.214   1.158   4.307 -0.6486  0.8716  1.0531
 5822SOL    HW219909   7.087   1.241   4.294 -1.4886 -0.1514  2.4912
 5823SOL     OW19910   6.705   1.446   5.236  0.3708 -0.3458 -0.6416
 5823SOL    HW119911   6.643   1.378   5.261 -1.4630  1.0587 -1.0872
 5823SOL    HW219912   6.721   1.431   5.143 -4.0730  2.5208 -2.2507
 5824SOL     OW19913   9.840   8.121   3.186 -0.4900 -0.3578 -0.0592
 5824SOL    HW119914   9.925   8.154   3.155 -0.0904 -2.2515 -1.1371
 5824SOL    HW219915   9.776   8.175   3.141  0.1002  0.9817  0.6288
 5825SOL     OW19916   7.015   2.288   1.334  0.3720  0.0443  0.3565
 5825SOL    HW119917   6.978   2.321   1.253  0.2794  0.0504  0.4008
 5825SOL    HW219918   7.004   2.359   1.397  0.1839 -0.0651  0.4483
 5826SOL     OW19919   6.575   2.808  10.475 -0.2926  0.1300 -0.0161
 5826SOL    HW119920   6.624   2.890  10.483 -0.1229  0.1472 -1.0825
 5826SOL    HW219921   6.560   2.780  10.565  0.9277  0.5753  0.3372
 5827SOL     OW19922   4.644   8.265   0.568 -0.0835  0.3211 -0.0828
 5827SOL    HW119923   4.726   8.313   0.559 -0.6121  1.0239 -1.3132
 5827SOL    HW219924   4.671   8.176   0.591  0.9401  0.9339  1.2335
 5828SOL     OW19925  10.246   3.574   7.720  0.1099  0.7053  0.3057
 5828SOL    HW119926  10.250   3.487   7.681 -1.0584  0.7855 -0.0323
 5828SOL    HW219927  10.302   3.569   7.797  0.0954 -0.3307  0.2629
 5829SOL     OW19928   3.428   6.010   9.885 -0.2917  0.0248  0.5070
 5829SOL    HW119929   3.504   5.971   9.928 -1.3081 -1.1087  1.3584
 5829SOL    HW219930   3.384   6.059   9.954 -1.1062 -0.5333  0.3959
 5830SOL     OW19931   6.601   7.772  10.010  0.9555  0.3848 -0.1616
 5830SOL    HW119932   6.663   7.715  10.056  0.3508  0.5993  0.9473
 5830SOL    HW219933   6.588   7.728   9.925  1.8573 -0.1789 -0.0270
 5831SOL     OW19934   1.662   4.209   6.943  0.8249 -0.0116 -0.0097
 5831SOL    HW119935   1.585   4.258   6.914  0.6055  0.1804  0.8542
 5831SOL    HW219936   1.635   4.172   7.027  1.2226 -1.0491 -0.3250
 5832SOL     OW19937   0.557   0.140  10.051  0.0539 -0.0408 -0.1000
 5832SOL    HW119938   0.594   0.067  10.002 -0.0327 -0.2849  0.1911
 5832SOL    HW219939   0.476   0.104  10.088 -1.5874  1.0541 -2.4063
 5833SOL     OW19940   0.454   6.403   5.284  0.5328  0.6469 -0.5072
 5833SOL    HW119941   0.408   6.396   5.368  1.6399  1.8570  0.2472
 5833SOL    HW219942   0.493   6.316   5.271 -0.0435  0.3073 -0.0030
 5834SOL     OW19943   6.531   5.337   3.016  0.3326  0.0206  0.0380
 5834SOL    HW119944   6.580   5.348   2.934 -0.7407 -1.1769 -0.8029
 5834SOL    HW219945   6.598   5.342   3.084  1.2386  1.2017 -0.8690
 5835SOL     OW19946   1.222   2.991   3.524  0.2151 -0.2192 -0.0834
 5835SOL    HW119947   1.216   2.948   3.609  2.7065 -0.8184 -0.1412
 5835SOL    HW219948   1.177   2.931   3.464 -1.6122  0.2361  0.7517
 5836SOL     OW19949   8.559   2.447   9.617  0.3053 -0.6820  0.5206
 5836SOL    HW119950   8.525   2.535   9.602  1.3004 -0.4840 -0.8090
 5836SOL    HW219951   8.486   2.389   9.597 -0.0590 -0.1787  0.3685
 5837SOL     OW19952   1.682  10.414   4.294  0.1577  0.0859  0.1839
 5837SOL    HW119953   1.713  10.369   4.373 -0.5486  0.1198  0.4855
 5837SOL    HW219954   1.690  10.507   4.315  3.5104  0.2419 -1.1518
 5838SOL     OW19955   5.043   0.113   2.401 -0.5674 -0.2717  0.2891
 5838SOL    HW119956   4.952   0.132   2.424 -0.3420  1.1578  0.0459
 5838SOL    HW219957   5.038   0.064   2.319 -1.1304 -0.6468  0.5438
 5839SOL     OW19958   2.677   5.827   1.913 -0.2268  0.0230  0.3036
 5839SOL    HW119959   2.756   5.862   1.955 -0.3049  0.0898  0.3938
 5839SOL    HW219960   2.711   5.769   1.844 -0.0994 -0.1420  0.5039
 5840SOL     OW19961   9.535   2.357   6.301 -0.6273  0.1296 -0.5401
 5840SOL    HW119962   9.592   2.434   6.304  1.6307 -1.4622  0.0999
 5840SOL    HW219963   9.586   2.287   6.342 -2.7473 -1.6355 -0.6910
 5841SOL     OW19964   9.878   5.790   6.092  0.0060  0.0817  0.1589
 5841SOL    HW119965   9.823   5.741   6.153  1.5940 -1.1629  0.6665
 5841SOL    HW219966   9.828   5.792   6.010 -1.7458  0.9595  1.1798
 5842SOL     OW19967   9.407   4.972   5.624 -0.1715  0.2099  0.4067
 5842SOL    HW119968   9.373   5.061   5.630 -0.8674 -0.1309  2.2387
 5842SOL    HW219969   9.372   4.927   5.701  2.3809 -0.8827  1.0437
 5843SOL     OW19970  10.246  10.014   0.379 -0.4979  0.0320 -0.3275
 5843SOL    HW119971  10.302   9.977   0.448 -0.5232 -0.2109 -0.4374
 5843SOL    HW219972  10.196   9.939   0.346  1.4684 -0.4102 -2.5215
 5844SOL     OW19973   0.257   5.574   3.849 -0.2516 -0.8278  0.5320
 5844SOL    HW119974   0.287   5.491   3.812 -0.1435 -1.8777  2.8081
 5844SOL    HW219975   0.284   5.640   3.785  3.2000 -2.1500  0.4145
 5845SOL     OW19976   8.392   7.352   1.487 -0.4307 -0.1140 -0.0344
 5845SOL    HW119977   8.388   7.411   1.412  0.1570 -0.5091 -0.3948
 5845SOL    HW219978   8.302   7.326   1.503 -0.6626  0.6876 -0.0286
 5846SOL     OW19979   8.377   6.026   4.762  0.1797 -0.3349 -0.4267
 5846SOL    HW119980   8.290   6.041   4.799  0.7583 -0.3571  0.9804
 5846SOL    HW219981   8.423   5.974   4.828  1.2936 -0.2683 -1.1231
 5847SOL     OW19982   1.062  10.018  10.171 -0.0797  0.0725  0.0547
 5847SOL    HW119983   1.136  10.008  10.231  0.1016 -0.7031 -0.2742
 5847SOL    HW219984   1.002   9.947  10.195  0.0200 -0.2819 -0.6973
 5848SOL     OW19985   1.307   2.027   1.870  0.0467 -0.7084  0.1026
 5848SOL    HW119986   1.330   2.118   1.848  0.4429 -0.7860  0.1884
 5848SOL    HW219987   1.245   2.001   1.802  0.5697 -0.6466 -0.4044
 5849SOL     OW19988   6.391  10.446   2.204  0.6989 -0.8849 -0.1086
 5849SOL    HW119989   6.423  10.374   2.150  1.0680 -0.4763 -0.4443
 5849SOL    HW219990   6.458  10.514   2.196  0.6981 -0.7691  0.7699
 5850SOL     OW19991   8.490   0.640   4.178  0.0552 -0.2852 -0.3843
 5850SOL    HW119992   8.413   0.683   4.215  0.5361  0.5150 -0.2867
 5850SOL    HW219993   8.527   0.705   4.118 -0.2209 -1.2441 -1.6384
 5851SOL     OW19994   4.846   9.594   3.570  0.8245  0.3597  0.2348
 5851SOL    HW119995   4.867   9.508   3.535 -0.1784 -0.3929  1.4109
 5851SOL    HW219996   4.905   9.606   3.644 -1.3147 -0.8869  2.2730
 5852SOL     OW19997   2.496   2.791   0.207  0.2632  0.0216  0.5237
 5852SOL    HW119998   2.533   2.730   0.270  0.3092 -0.7641 -0.2422
 5852SOL    HW219999   2.554   2.787   0.132 -0.0928  0.5288  0.2107
 5853SOL     OW20000   3.330   0.756   8.910 -0.4231 -0.3216 -0.2839
 5853SOL    HW120001   3.256   0.703   8.940  0.7372 -2.6056 -1.2452
 5853SOL    HW220002   3.376   0.781   8.989 -0.3398 -1.7896  0.1550
 5854SOL     OW20003   1.970   8.419   5.255 -0.2287 -0.1883  0.0475
 5854SOL    HW120004   2.058   8.389   5.277 -0.0703  0.3614  0.1605
 5854SOL    HW220005   1.928   8.436   5.340 -0.2613  0.0770 -0.0209
 5855SOL     OW20006   3.343   3.314   6.700 -0.6500 -0.2186  0.0635
 5855SOL    HW120007   3.336   3.410   6.696 -1.4568 -0.1921  1.4946
 5855SOL    HW220008   3.253   3.283   6.688 -0.1510 -0.9432 -2.4542
 5856SOL     OW20009   2.241   7.895   4.971 -0.1211  0.2855 -0.2972
 5856SOL    HW120010   2.228   7.985   4.998  0.1532 -0.4150  2.4458
 5856SOL    HW220011   2.336   7.885   4.962  0.0863 -0.3049  1.9362
 5857SOL     OW20012   8.552  10.313   3.469 -0.0175  0.0840 -0.7234
 5857SOL    HW120013   8.583  10.333   3.557 -0.7434  2.1345 -0.8719
 5857SOL    HW220014   8.524  10.222   3.473  1.4206 -0.3443  0.7163
 5858SOL     OW20015   1.976   3.718   4.290  0.2559 -0.2730  0.4358
 5858SOL    HW120016   2.015   3.800   4.259  0.6113 -0.6038 -0.0089
 5858SOL    HW220017   1.953   3.671   4.209  2.3536 -1.7194  0.5971
 5859SOL     OW20018   8.912   4.881   5.008  0.0724 -0.2193 -0.1784
 5859SOL    HW120019   8.872   4.804   4.968  0.1509 -0.4701  0.2128
 5859SOL    HW220020   8.865   4.892   5.091  0.1677  0.0614 -0.1586
 5860SOL     OW20021   7.575   3.451   8.409 -0.4353  0.4018  0.1373
 5860SOL    HW120022   7.530   3.406   8.480  0.1430 -0.0395  0.2293
 5860SOL    HW220023   7.566   3.393   8.334  2.5578 -1.2233  0.8738
 5861SOL     OW20024   5.624   9.598   1.586  0.1717  0.0918  0.0837
 5861SOL    HW120025   5.555   9.608   1.651  1.2694  1.6674  1.0789
 5861SOL    HW220026   5.620   9.506   1.560 -2.9637  0.3570 -0.7046
 5862SOL     OW20027   0.171   5.684   9.691  0.3064  0.8429 -0.8134
 5862SOL    HW120028   0.128   5.681   9.606 -4.0976  1.2748  1.1243
 5862SOL    HW220029   0.103   5.713   9.752  2.2612 -2.2784  3.4023
 5863SOL     OW20030   5.668   6.642   4.813 -0.2532  0.5767 -0.3410
 5863SOL    HW120031   5.725   6.662   4.887  1.3011  2.1452 -1.8702
 5863SOL    HW220032   5.582   6.674   4.840  0.0656  0.2852  1.1151
 5864SOL     OW20033   4.384   0.320   2.072 -0.1962 -0.5189 -0.1361
 5864SOL    HW120034   4.316   0.307   2.138 -1.5133 -0.2756 -1.3886
 5864SOL    HW220035   4.396   0.415   2.068 -0.8804 -0.4530 -0.9486
 5865SOL     OW20036   7.040   6.184   4.986  0.6023  0.2527 -0.2910
 5865SOL    HW120037   7.128   6.199   5.021 -0.0554  1.1432  1.0347
 5865SOL    HW220038   6.985   6.248   5.031 -0.7423 -0.3249 -1.0705
 5866SOL     OW20039   0.805   8.456   1.101  0.8406 -0.1950  0.6254
 5866SOL    HW120040   0.814   8.550   1.113  0.9590 -0.4383  2.7798
 5866SOL    HW220041   0.799   8.420   1.190 -0.0344 -2.1445 -0.1455
 5867SOL     OW20042  10.265   6.933   1.816  0.0275  0.0548  0.4201
 5867SOL    HW120043  10.250   7.017   1.858 -3.3921 -0.2654  0.1058
 5867SOL    HW220044  10.260   6.951   1.723  2.1329 -0.1107  0.2348
 5868SOL     OW20045   0.215   7.559   1.342  0.3610  0.1904 -0.2475
 5868SOL    HW120046   0.265   7.485   1.307 -1.7614 -2.1294  1.3570
 5868SOL    HW220047   0.187   7.608   1.264  0.4297 -1.6308 -1.4798
 5869SOL     OW20048   8.148   5.701   0.794  0.0814 -0.6652 -0.8262
 5869SOL    HW120049   8.212   5.764   0.762 -0.6031  1.4811  1.7148
 5869SOL    HW220050   8.064   5.743   0.782 -0.4459 -1.2979  0.3802
 5870SOL     OW20051   7.120   4.463   6.738  0.2657  0.7084 -0.0158
 5870SOL    HW120052   7.120   4.538   6.798 -1.4616  1.2356 -0.6114
 5870SOL    HW220053   7.210   4.458   6.706  0.8634  1.3512  1.4447
 5871SOL     OW20054   4.274   0.654   1.429  0.5032 -0.4169  0.4682
 5871SOL    HW120055   4.274   0.695   1.343  0.7641  0.1168  0.7197
 5871SOL    HW220056   4.253   0.562   1.412 -3.5935  0.3963  0.2095
 5872SOL     OW20057   3.314   6.826   2.040 -0.1131  0.3755  0.5973
 5872SOL    HW120058   3.309   6.922   2.037  0.9392  0.4337 -1.4668
 5872SOL    HW220059   3.287   6.798   1.952  0.9811 -1.1294  0.6948
 5873SOL     OW20060   2.546   4.458   7.266  0.3417 -0.0156 -0.3030
 5873SOL    HW120061   2.512   4.401   7.198  1.5192 -0.7725 -0.2749
 5873SOL    HW220062   2.628   4.417   7.295 -1.7664 -1.8206  4.1624
 5874SOL     OW20063   7.831   7.649   8.483  0.1580  0.2339 -0.2556
 5874SOL    HW120064   7.857   7.704   8.409  0.5058  0.3099 -0.0793
 5874SOL    HW220065   7.760   7.697   8.526 -0.3972 -0.0511 -0.8389
 5875SOL     OW20066   7.706   7.125   9.029 -0.0901  0.3248  0.0617
 5875SOL    HW120067   7.690   7.143   9.121 -1.2966  1.4443 -0.3341
 5875SOL    HW220068   7.801   7.122   9.021  0.0282 -0.1513  1.3957
 5876SOL     OW20069   9.166   3.286   8.434  0.0330  0.2106  0.0370
 5876SOL    HW120070   9.077   3.319   8.441  0.1150  0.3396  0.5392
 5876SOL    HW220071   9.188   3.255   8.522 -0.0110 -1.1337 -0.4092
 5877SOL     OW20072   6.258   2.410   4.623 -0.1602  0.0962 -0.3964
 5877SOL    HW120073   6.287   2.336   4.677 -0.3972  0.4691  0.2448
 5877SOL    HW220074   6.203   2.369   4.555 -0.4410 -0.3011  0.0626
 5878SOL     OW20075   3.365   9.119  10.462 -0.9466 -0.1214  0.3747
 5878SOL    HW120076   3.294   9.057  10.477 -1.6640  0.5634 -0.0978
 5878SOL    HW220077   3.445   9.066  10.465 -1.6095 -1.2936 -1.2233
 5879SOL     OW20078   6.384   7.137   3.696  0.4345  0.4346 -0.6806
 5879SOL    HW120079   6.365   7.045   3.714  3.5177 -0.3579 -0.9059
 5879SOL    HW220080   6.396   7.176   3.782 -1.3332  0.8051 -0.5630
 5880SOL     OW20081   3.961   0.869   0.733  0.6913  0.1987  0.1780
 5880SOL    HW120082   4.038   0.821   0.704  0.5530 -0.3721  0.7297
 5880SOL    HW220083   3.947   0.839   0.823  1.2853  2.1289  0.9544
 5881SOL     OW20084   1.299   0.614   6.792  0.3568 -0.1860 -0.2678
 5881SOL    HW120085   1.321   0.522   6.777 -0.0827 -0.5061  0.8942
 5881SOL    HW220086   1.301   0.654   6.705  1.6035 -1.0514 -0.6676
 5882SOL     OW20087   5.605   6.333   5.884 -0.0782 -0.4065 -0.1100
 5882SOL    HW120088   5.680   6.379   5.847 -0.4821  0.6112  0.2729
 5882SOL    HW220089   5.622   6.240   5.868  1.0635 -0.1619 -0.3583
 5883SOL     OW20090   6.617   0.561   8.564  0.1245 -0.3214  0.3173
 5883SOL    HW120091   6.689   0.600   8.613  0.5480 -2.0663  1.1821
 5883SOL    HW220092   6.643   0.469   8.554 -1.5079 -0.7446 -0.2668
 5884SOL     OW20093   7.047   1.775   2.216 -0.4676  1.0166  0.3026
 5884SOL    HW120094   7.068   1.773   2.122 -0.8137 -0.5339  0.2388
 5884SOL    HW220095   7.031   1.868   2.234 -1.2195  1.2616 -1.3641
 5885SOL     OW20096   2.677   2.622  10.033 -0.1557 -0.0023  0.4597
 5885SOL    HW120097   2.749   2.561  10.042 -1.1009 -0.9644  1.8811
 5885SOL    HW220098   2.669   2.636   9.938  1.8332  0.1141  0.2759
 5886SOL     OW20099   1.155   6.296   2.665  0.0303 -0.1917 -0.2271
 5886SOL    HW120100   1.219   6.272   2.598  1.0834  1.0459  0.3029
 5886SOL    HW220101   1.125   6.212   2.701  1.3768 -0.7978 -0.4707
 5887SOL     OW20102  10.085  10.090   1.513 -0.4813 -0.1170  0.0612
 5887SOL    HW120103  10.158  10.044   1.555  0.0666 -0.1913 -0.9372
 5887SOL    HW220104  10.081  10.174   1.558  1.3787  0.6067 -0.9955
 5888SOL     OW20105  10.202   4.142   1.852 -0.7435 -0.0309 -0.3825
 5888SOL    HW120106  10.274   4.171   1.908 -1.3514  2.9604 -0.9834
 5888SOL    HW220107  10.163   4.069   1.899  1.6678 -0.7123  0.7174
 5889SOL     OW20108   7.739   8.135   7.602  0.1285  0.2295  0.4593
 5889SOL    HW120109   7.698   8.058   7.562  0.6011  0.3638 -0.2892
 5889SOL    HW220110   7.674   8.205   7.592 -1.5981 -0.6730  3.7322
 5890SOL     OW20111   8.901   5.576   0.689  0.0423 -0.4315  0.2406
 5890SOL    HW120112   8.957   5.613   0.758 -0.4801  1.0226 -0.0826
 5890SOL    HW220113   8.813   5.579   0.726 -0.0755 -0.8449 -0.0071
 5891SOL     OW20114   5.305   1.537   6.181  0.4883 -0.2609 -0.1804
 5891SOL    HW120115   5.376   1.474   6.170  0.5806 -0.4604  1.3547
 5891SOL    HW220116   5.303   1.555   6.275  1.1576  2.8528 -0.6548
 5892SOL     OW20117   0.111   5.998   9.254 -0.5659  0.2499  0.7437
 5892SOL    HW120118   0.095   6.048   9.334 -1.7804 -1.8031  1.9071
 5892SOL    HW220119   0.166   5.925   9.283 -0.6540 -0.2781 -0.3834
 5893SOL     OW20120   0.639   8.597  10.106 -0.1245  0.4585  0.1699
 5893SOL    HW120121   0.548   8.589  10.134 -0.7918  0.3756 -1.8971
 5893SOL    HW220122   0.657   8.691  10.109 -0.9174  0.6680 -1.2742
 5894SOL     OW20123   7.205   1.494   0.645  0.4817  0.0259  0.4021
 5894SOL    HW120124   7.180   1.495   0.737  0.7363 -0.9854  0.5043
 5894SOL    HW220125   7.301   1.489   0.647  0.4457 -0.9873  0.1099
 5895SOL     OW20126   8.755   7.522   0.430 -0.7677  0.2395  0.4527
 5895SOL    HW120127   8.753   7.614   0.457  0.7168  0.2616  0.5907
 5895SOL    HW220128   8.678   7.483   0.471  0.0043  0.8520  2.5872
 5896SOL     OW20129   5.123   0.052   0.658 -0.5026  0.3495 -0.0613
 5896SOL    HW120130   5.037   0.032   0.694 -0.4038 -1.3022 -0.6617
 5896SOL    HW220131   5.105   0.097   0.575 -0.7788  0.0673 -0.1525
 5897SOL     OW20132   0.346   1.375   2.939  0.0631  0.0577 -0.1974
 5897SOL    HW120133   0.365   1.299   2.883  0.1879  0.4744 -0.7310
 5897SOL    HW220134   0.388   1.355   3.022 -0.0193 -0.5173 -0.2903
 5898SOL     OW20135   3.597   5.436   7.406  0.0158 -0.3589  0.6918
 5898SOL    HW120136   3.597   5.366   7.470  2.8731 -1.1409 -0.0167
 5898SOL    HW220137   3.680   5.481   7.420  0.0379  0.3720 -1.4524
 5899SOL     OW20138  10.142   6.999   5.041 -0.2110 -0.3800  0.3466
 5899SOL    HW120139  10.138   7.079   4.988 -1.0832 -1.7522 -1.8090
 5899SOL    HW220140  10.108   7.025   5.126 -0.1742  1.6191 -0.1983
 5900SOL     OW20141   5.184   5.205   2.107 -0.0794 -0.5715  0.0757
 5900SOL    HW120142   5.265   5.247   2.135 -0.2803 -0.2426  0.1789
 5900SOL    HW220143   5.157   5.152   2.182  1.1824 -2.4532 -0.7269
 5901SOL     OW20144   2.855   1.737   0.028  0.3974 -0.1119 -0.0190
 5901SOL    HW120145   2.893   1.824   0.030  1.2523 -0.4819  1.4689
 5901SOL    HW220146   2.770   1.746   0.073  0.3620  0.0114 -0.1130
 5902SOL     OW20147   1.091   0.770   4.880 -0.6866  0.3382 -0.7993
 5902SOL    HW120148   1.116   0.677   4.886  0.6589  0.7318  0.1737
 5902SOL    HW220149   1.056   0.791   4.967  1.7279  1.4409 -0.0108
 5903SOL     OW20150   6.172  10.171   5.226  1.0419  0.6192  0.0565
 5903SOL    HW120151   6.140  10.082   5.211  2.2553  0.4349 -1.8322
 5903SOL    HW220152   6.224  10.165   5.306  0.9164 -0.3358  0.0809
 5904SOL     OW20153   4.917   3.470   3.570 -0.3140  0.2042 -0.4785
 5904SOL    HW120154   4.889   3.387   3.531 -0.6478 -0.1043  0.4004
 5904SOL    HW220155   4.970   3.511   3.502 -1.9906  0.3161 -1.7955
 5905SOL     OW20156   9.235   0.460   9.565 -0.2535 -0.2209  0.7115
 5905SOL    HW120157   9.173   0.503   9.624 -0.8349 -0.5315  0.3258
 5905SOL    HW220158   9.225   0.505   9.481 -0.7303 -0.9808  0.3570
 5906SOL     OW20159   6.787   1.685   7.671  0.7655  0.2848  0.4973
 5906SOL    HW120160   6.701   1.684   7.714  0.9592  1.6048  0.9466
 5906SOL    HW220161   6.768   1.701   7.579  0.3903 -1.9446  0.1208
 5907SOL     OW20162   2.729   3.599   1.101 -0.5446 -0.5365 -0.0579
 5907SOL    HW120163   2.750   3.522   1.154  1.1561 -0.9585 -1.2530
 5907SOL    HW220164   2.637   3.587   1.076 -0.2222 -2.3788 -0.4846
 5908SOL     OW20165   8.937   0.802   6.582 -0.6132 -0.8018  0.5681
 5908SOL    HW120166   8.859   0.858   6.589 -1.5305 -1.7220 -1.5154
 5908SOL    HW220167   8.912   0.734   6.521  0.8460 -2.9171  2.1860
 5909SOL     OW20168   7.013   2.317   3.719 -1.1142 -0.5787 -0.5537
 5909SOL    HW120169   7.025   2.398   3.670 -1.5757  0.4329  0.9696
 5909SOL    HW220170   6.983   2.254   3.652 -1.2159  0.6066 -1.6666
 5910SOL     OW20171   2.928   2.624   5.482 -0.4048  0.1752 -0.0856
 5910SOL    HW120172   2.951   2.707   5.440 -2.2097  1.5863  1.5550
 5910SOL    HW220173   2.926   2.560   5.410 -1.9535  2.1687 -1.9340
 5911SOL     OW20174   5.249   1.160   8.473 -0.1582 -0.2442 -0.1725
 5911SOL    HW120175   5.280   1.248   8.494 -2.0505  0.2904  0.6883
 5911SOL    HW220176   5.294   1.103   8.536  2.2849 -0.1818 -1.7618
 5912SOL     OW20177   1.408   5.173   7.142 -0.2431  0.1556 -0.3082
 5912SOL    HW120178   1.401   5.260   7.103 -1.4411 -0.3127 -1.1969
 5912SOL    HW220179   1.318   5.147   7.160  0.0464 -1.1297 -0.5893
 5913SOL     OW20180   5.954   4.611   6.192 -0.1278 -0.1841 -0.6114
 5913SOL    HW120181   6.021   4.649   6.136 -1.6582  0.8170 -1.8332
 5913SOL    HW220182   5.895   4.565   6.132 -0.5335 -1.0943  0.4341
 5914SOL     OW20183   9.414   2.195   5.176 -0.1029  0.3622 -0.2844
 5914SOL    HW120184   9.340   2.175   5.119  0.3320 -4.7753  0.4250
 5914SOL    HW220185   9.489   2.154   5.133  1.0096 -0.1824  1.9974
 5915SOL     OW20186   2.665   3.406   5.985 -0.0498  0.1662  0.1780
 5915SOL    HW120187   2.649   3.452   5.902 -0.3558  1.4541  0.9174
 5915SOL    HW220188   2.615   3.456   6.049  1.4095  0.1111  1.4081
 5916SOL     OW20189   4.961   0.023   3.528 -0.1615 -0.8110  0.6158
 5916SOL    HW120190   4.956  -0.025   3.446 -0.4618  0.4052 -0.0962
 5916SOL    HW220191   4.958  -0.045   3.596 -0.0599 -1.8126 -0.3651
 5917SOL     OW20192   4.522   1.483   1.291 -0.4125  0.1609  0.1878
 5917SOL    HW120193   4.589   1.549   1.307 -0.0606 -0.2629  0.4752
 5917SOL    HW220194   4.445   1.533   1.263 -0.1336  0.6845  0.3488
 5918SOL     OW20195   9.429   8.903   9.303  0.0538  0.5550 -0.6303
 5918SOL    HW120196   9.344   8.937   9.275  0.1166  0.9546 -0.3450
 5918SOL    HW220197   9.490   8.976   9.288  0.2268  0.5021 -0.2026
 5919SOL     OW20198   4.675   5.180   2.654  0.1770 -0.6579 -0.4793
 5919SOL    HW120199   4.627   5.261   2.670  0.6759 -0.2585 -0.9532
 5919SOL    HW220200   4.764   5.209   2.633  0.0460 -1.2450 -1.9839
 5920SOL     OW20201   9.388   2.093   8.301  0.6369 -0.2987  0.2070
 5920SOL    HW120202   9.329   2.133   8.364  1.5914 -0.3031  1.1247
 5920SOL    HW220203   9.371   1.999   8.309 -0.3782 -0.2125 -0.7140
 5921SOL     OW20204  10.334   6.506   6.471 -0.1409  0.0761 -0.1243
 5921SOL    HW120205  10.347   6.483   6.563  0.5480 -3.5605 -0.9604
 5921SOL    HW220206  10.240   6.503   6.458 -0.3424  1.9360  0.6942
 5922SOL     OW20207   8.015   3.968   9.054 -0.0546  0.0168 -0.4107
 5922SOL    HW120208   7.964   4.038   9.095  0.4050 -0.2604  0.6647
 5922SOL    HW220209   8.103   4.006   9.045  0.1609 -0.3601  0.0496
 5923SOL     OW20210   1.034   1.511   1.993  0.6813 -0.3746  0.2470
 5923SOL    HW120211   0.948   1.511   1.950  0.7719 -0.4653  0.0690
 5923SOL    HW220212   1.067   1.600   1.979  2.1660 -1.2924 -2.7458
 5924SOL     OW20213   0.792   9.164   9.189 -0.4263  0.3376  0.2731
 5924SOL    HW120214   0.816   9.082   9.146  1.1607  0.9445 -0.0565
 5924SOL    HW220215   0.796   9.143   9.283 -1.7080 -0.3876  0.1940
 5925SOL     OW20216   7.140   4.951   1.117 -0.3766  0.0951 -0.4110
 5925SOL    HW120217   7.192   4.913   1.189  3.4705  1.6723 -2.1007
 5925SOL    HW220218   7.113   5.037   1.150 -0.9859 -0.2746  0.0758
 5926SOL     OW20219   3.700   5.541   0.393  0.0985 -0.0831  0.3826
 5926SOL    HW120220   3.735   5.535   0.305  1.8895  0.5326  1.0108
 5926SOL    HW220221   3.721   5.458   0.434 -1.7525 -0.8308 -0.0685
 5927SOL     OW20222   4.108   1.516   5.906 -0.4101  0.1893  0.4810
 5927SOL    HW120223   4.152   1.601   5.902 -1.3090  0.6279 -2.2850
 5927SOL    HW220224   4.178   1.452   5.895  0.0501  0.6481  0.6814
 5928SOL     OW20225   3.449   8.550   3.092 -0.6636 -0.6549 -0.1384
 5928SOL    HW120226   3.501   8.540   3.012  0.7896 -1.0635  0.8105
 5928SOL    HW220227   3.395   8.626   3.076 -0.9926 -1.1988 -1.8163
 5929SOL     OW20228   6.963   8.197   5.808  0.2923  0.4326  0.1953
 5929SOL    HW120229   6.960   8.290   5.789 -3.3091  0.5005  0.5063
 5929SOL    HW220230   7.006   8.158   5.732 -1.0899  2.0503 -1.4893
 5930SOL     OW20231   6.217   0.766   2.305 -0.2423 -0.4686  0.3471
 5930SOL    HW120232   6.278   0.774   2.232  2.3073  1.4872  2.4884
 5930SOL    HW220233   6.182   0.677   2.298 -1.5985  0.1993 -4.2084
 5931SOL     OW20234   0.989   0.214   7.683  0.6082 -0.5371  0.3162
 5931SOL    HW120235   0.919   0.161   7.723  1.6929 -1.6648  0.7932
 5931SOL    HW220236   1.044   0.240   7.757  1.0400 -0.1686 -0.1268
 5932SOL     OW20237   7.489   4.397   8.333 -0.0326 -0.0147  0.6392
 5932SOL    HW120238   7.492   4.306   8.302  0.2017 -0.3992  1.7586
 5932SOL    HW220239   7.408   4.432   8.295 -2.1296 -1.7977  3.1036
 5933SOL     OW20240   5.291   2.536   4.216  0.1142  0.4647 -0.7040
 5933SOL    HW120241   5.211   2.571   4.176 -2.1851 -1.6648  1.5487
 5933SOL    HW220242   5.309   2.456   4.167 -2.4326 -1.8954  1.8293
 5934SOL     OW20243   1.559   2.736   5.951  0.0375 -0.2059  0.3800
 5934SOL    HW120244   1.593   2.678   6.019  2.0765 -1.2558 -1.4243
 5934SOL    HW220245   1.589   2.823   5.977  1.5636 -0.7100  0.4016
 5935SOL     OW20246   5.721   7.653   0.574 -0.0520 -0.2464  0.7792
 5935SOL    HW120247   5.673   7.633   0.493  0.4960  0.2372  0.3280
 5935SOL    HW220248   5.694   7.584   0.635 -0.3290 -0.7301  0.1246
 5936SOL     OW20249   4.599   3.097   9.380  0.1485 -0.3797 -0.3870
 5936SOL    HW120250   4.552   3.014   9.374  0.1307 -0.5195  1.3047
 5936SOL    HW220251   4.554   3.146   9.448 -0.0617  1.2041 -1.5872
 5937SOL     OW20252   1.703   4.862   5.727 -0.3619  0.2894  0.3302
 5937SOL    HW120253   1.717   4.913   5.648  1.5574  0.8581  0.9944
 5937SOL    HW220254   1.660   4.782   5.696 -0.5230  0.9112 -1.1363
 5938SOL     OW20255   4.902   7.266   4.310  0.4114 -0.5820  0.3176
 5938SOL    HW120256   4.829   7.209   4.334  0.9446 -0.9070  1.1850
 5938SOL    HW220257   4.877   7.352   4.344  0.0240 -0.4889 -0.1894
 5939SOL     OW20258   9.712   6.317   0.440  0.0954 -0.4797 -0.3093
 5939SOL    HW120259   9.757   6.270   0.370  0.5733  0.2502 -0.5098
 5939SOL    HW220260   9.631   6.267   0.455  0.2687 -0.9730 -0.9733
 5940SOL     OW20261   3.666   3.491   9.187 -0.8067 -0.2716  0.7134
 5940SOL    HW120262   3.729   3.562   9.199 -1.0525 -0.0199  0.5422
 5940SOL    HW220263   3.581   3.535   9.188 -0.9271 -0.4744 -0.1319
 5941SOL     OW20264   8.674   9.346   7.949  0.5118 -0.4937 -0.2620
 5941SOL    HW120265   8.672   9.284   8.021  0.4282 -0.3588 -0.1475
 5941SOL    HW220266   8.722   9.421   7.984 -0.2538 -0.0832 -0.0627
 5942SOL     OW20267   1.498   7.980   2.380  0.5245  0.7500  0.3473
 5942SOL    HW120268   1.569   7.999   2.440  0.5698  0.6764  0.3177
 5942SOL    HW220269   1.454   8.064   2.367  0.9072  0.8980 -0.0203
 5943SOL     OW20270   7.247   6.785   9.899  0.2487  0.7178 -0.4114
 5943SOL    HW120271   7.251   6.693   9.873  1.7023  0.5583  0.2720
 5943SOL    HW220272   7.157   6.811   9.880  0.0301 -0.6093 -1.3904
 5944SOL     OW20273   2.634   2.492   7.808 -0.8669  0.1947  0.3590
 5944SOL    HW120274   2.546   2.472   7.776 -0.7042 -1.6833  0.9616
 5944SOL    HW220275   2.673   2.406   7.826  0.9809  1.0047  0.4014
 5945SOL     OW20276   7.981   6.330   7.044 -0.1351  0.5367 -0.3815
 5945SOL    HW120277   7.933   6.273   6.984  0.5288  0.2279 -0.6289
 5945SOL    HW220278   8.018   6.270   7.109  1.9117  0.4406 -1.5406
 5946SOL     OW20279   8.394   2.888   0.799 -0.0841  0.0649  0.5062
 5946SOL    HW120280   8.471   2.938   0.826  1.3114 -0.9055 -1.4149
 5946SOL    HW220281   8.372   2.922   0.712 -1.2607 -0.3033  0.6441
 5947SOL     OW20282   2.444   4.246   3.357 -0.7719 -0.0456 -0.0188
 5947SOL    HW120283   2.506   4.173   3.351 -1.8153 -1.0681  1.0843
 5947SOL    HW220284   2.431   4.273   3.266 -0.4133 -1.3013 -0.4701
 5948SOL     OW20285   4.956   5.553   2.803 -0.0796 -0.0613  0.4475
 5948SOL    HW120286   4.949   5.474   2.751 -0.1209  0.1623  0.1088
 5948SOL    HW220287   4.867   5.567   2.837 -0.1049 -0.0836  0.3912
 5949SOL     OW20288   2.933   7.100   1.439  0.2369  0.3728 -0.2074
 5949SOL    HW120289   2.968   7.013   1.420  0.5533  0.6774 -1.0976
 5949SOL    HW220290   2.841   7.095   1.414  0.2683  0.3099 -0.3114
 5950SOL     OW20291   1.770   0.981   8.561 -0.0173  0.4447  0.4907
 5950SOL    HW120292   1.737   0.911   8.504 -1.1105  0.9320  0.5003
 5950SOL    HW220293   1.762   1.061   8.508 -0.1921  0.7694  1.0028
 5951SOL     OW20294   7.397   7.186   6.187 -0.0991 -0.4588  0.1474
 5951SOL    HW120295   7.489   7.206   6.175 -0.0723 -0.0259  0.9969
 5951SOL    HW220296   7.358   7.201   6.100  0.3219  1.0710  0.1960
 5952SOL     OW20297   8.576   9.544   4.751 -0.1616 -0.2037 -0.4455
 5952SOL    HW120298   8.509   9.507   4.809  0.8428 -0.6886  0.4453
 5952SOL    HW220299   8.529   9.607   4.698 -1.0165  0.7504  1.3434
 5953SOL     OW20300   7.689   9.157   9.207 -0.0016  0.5095 -0.3835
 5953SOL    HW120301   7.593   9.153   9.206 -0.0329  1.0052 -1.5251
 5953SOL    HW220302   7.713   9.152   9.299 -0.9244 -3.6025 -0.1809
 5954SOL     OW20303   1.729   3.461   5.810 -0.3760 -0.4166  0.5084
 5954SOL    HW120304   1.795   3.403   5.847 -1.6580 -1.2239  1.6492
 5954SOL    HW220305   1.695   3.413   5.734 -0.7581 -0.7320  0.8745
 5955SOL     OW20306   1.061   1.325   7.195 -0.1519  0.3199  0.1723
 5955SOL    HW120307   1.058   1.418   7.215  3.7712  0.6324 -0.0135
 5955SOL    HW220308   1.071   1.282   7.280  2.8286  0.5797  0.0678
 5956SOL     OW20309   7.030   5.100   7.441  0.7587 -0.2750  0.2526
 5956SOL    HW120310   6.987   5.058   7.515  0.9175 -0.0192  0.4915
 5956SOL    HW220311   7.087   5.032   7.404 -1.6931 -1.4809 -1.6513
 5957SOL     OW20312   3.409   3.671   1.833 -0.1450 -0.2223  0.0079
 5957SOL    HW120313   3.431   3.758   1.798 -0.3756  0.4519  1.4776
 5957SOL    HW220314   3.402   3.616   1.755  1.3422  0.7590 -0.8689
 5958SOL     OW20315  10.257   4.452   5.234 -0.7484  0.2339 -0.2524
 5958SOL    HW120316  10.169   4.423   5.258 -0.6283  0.7999  0.9678
 5958SOL    HW220317  10.245   4.504   5.155 -1.4603 -0.0115 -0.3112
 5959SOL     OW20318  10.069   2.457   6.015 -0.5239  0.9469 -0.3029
 5959SOL    HW120319  10.069   2.385   5.952  1.2198  0.3922  0.2649
 5959SOL    HW220320  10.095   2.417   6.098 -1.3800  1.9157  0.4672
 5960SOL     OW20321   6.125   0.754   3.850 -0.6921 -0.1522  0.0355
 5960SOL    HW120322   6.041   0.771   3.807 -1.2354  0.0915  1.1519
 5960SOL    HW220323   6.109   0.776   3.942  0.9823  1.2213  0.0452
 5961SOL     OW20324   9.447   6.384   2.945  0.2359 -0.0396 -0.2399
 5961SOL    HW120325   9.405   6.470   2.950  1.1688  0.4627 -0.7923
 5961SOL    HW220326   9.486   6.371   3.032  0.8945  0.5255 -0.4407
 5962SOL     OW20327   8.136   1.078   6.878 -0.3735  0.6465 -0.6980
 5962SOL    HW120328   8.041   1.094   6.880 -0.2318  1.5105  0.7456
 5962SOL    HW220329   8.166   1.120   6.797 -1.1265  1.0309 -0.7877
 5963SOL     OW20330   0.723   7.996   3.875 -0.1223  0.2451 -0.0294
 5963SOL    HW120331   0.648   8.001   3.934  1.4212  1.6234  1.9831
 5963SOL    HW220332   0.773   7.920   3.906  0.7862  1.0802  0.6216
 5964SOL     OW20333   2.263   7.744   3.939 -0.1391 -0.2622  0.3059
 5964SOL    HW120334   2.237   7.808   4.005 -0.4340 -0.5448  0.4635
 5964SOL    HW220335   2.302   7.797   3.869  2.3596 -0.1078  1.6789
 5965SOL     OW20336   9.724   5.526   4.242 -0.4619 -0.0501  0.0824
 5965SOL    HW120337   9.771   5.450   4.275 -0.7584 -0.1691  0.2349
 5965SOL    HW220338   9.634   5.514   4.273 -0.3625  0.7167  0.7131
 5966SOL     OW20339   4.359   1.955   2.579  0.1168 -0.7302 -0.1651
 5966SOL    HW120340   4.406   2.023   2.627  1.6420 -2.0273  0.2395
 5966SOL    HW220341   4.274   1.950   2.623  0.7908 -0.5812  1.2244
 5967SOL     OW20342   4.015  10.128   2.266  0.1091 -0.3848 -0.1491
 5967SOL    HW120343   3.929  10.087   2.257 -0.0518 -0.3984  1.1977
 5967SOL    HW220344   4.060  10.108   2.184 -1.1131 -0.5023 -0.8198
 5968SOL     OW20345   1.835   9.804   6.852 -0.1484 -0.3019 -0.2306
 5968SOL    HW120346   1.814   9.889   6.815  0.7870 -0.2471 -0.6754
 5968SOL    HW220347   1.841   9.819   6.946  2.5018  0.7349 -0.4711
 5969SOL     OW20348   5.427   7.284   8.523  0.3086  0.6436  0.7034
 5969SOL    HW120349   5.522   7.270   8.523  0.5349  2.0102  0.9354
 5969SOL    HW220350   5.407   7.309   8.433 -0.0257 -0.6787  0.3876
 5970SOL     OW20351   6.558   0.536   7.284  0.1663 -0.4712  0.0735
 5970SOL    HW120352   6.491   0.578   7.338 -0.1516 -0.6066 -0.2178
 5970SOL    HW220353   6.627   0.602   7.276  0.9523 -1.0035  1.9821
 5971SOL     OW20354   0.109   6.307   3.657 -0.0520  0.2093  0.2870
 5971SOL    HW120355   0.052   6.235   3.630  0.7132 -1.4135  2.6214
 5971SOL    HW220356   0.049   6.373   3.693 -0.6173 -0.9855  1.6664
 5972SOL     OW20357   7.664   3.561   0.499 -0.4697  0.5871 -0.1963
 5972SOL    HW120358   7.714   3.500   0.553  0.0081 -0.3677 -1.6496
 5972SOL    HW220359   7.586   3.581   0.551  1.3967  2.1991  2.1933
 5973SOL     OW20360   4.045   7.655   3.061  0.1682  0.2272  0.0203
 5973SOL    HW120361   3.977   7.705   3.107  0.4308  1.0121 -0.4157
 5973SOL    HW220362   4.104   7.625   3.130  0.6605  1.5542  0.2026
 5974SOL     OW20363   5.314   8.180  10.443  0.2337  0.0837 -0.0562
 5974SOL    HW120364   5.404   8.162  10.470  0.5575  0.1439 -1.0485
 5974SOL    HW220365   5.317   8.269  10.409 -0.3903  0.3908  0.6784
 5975SOL     OW20366   9.427   4.493   7.838  0.0354  0.4051  0.2561
 5975SOL    HW120367   9.384   4.572   7.805 -0.9718 -0.4719 -0.5987
 5975SOL    HW220368   9.360   4.451   7.893  0.6283  0.2355  0.8571
 5976SOL     OW20369   3.689   0.388   8.356  0.5303 -0.1389  0.4104
 5976SOL    HW120370   3.773   0.343   8.349  0.1561 -0.9819  1.1249
 5976SOL    HW220371   3.711   0.476   8.385  1.1117 -0.6203  1.4628
 5977SOL     OW20372   2.103   7.122   1.971 -0.1430 -0.8116  0.0038
 5977SOL    HW120373   2.131   7.135   2.062  1.1214 -1.2009 -0.3075
 5977SOL    HW220374   2.139   7.037   1.947 -2.1957 -1.6733 -0.2458
 5978SOL     OW20375  10.325   8.561   2.814  0.3538 -0.1997  0.3285
 5978SOL    HW120376  10.398   8.571   2.875  0.7160  0.2953 -0.1837
 5978SOL    HW220377  10.366   8.529   2.733  0.1253  0.8810 -0.2257
 5979SOL     OW20378   2.687   4.965   2.870 -0.2117  0.0706  0.1744
 5979SOL    HW120379   2.611   5.021   2.883 -0.1357  0.5053 -1.0992
 5979SOL    HW220380   2.757   5.009   2.917 -0.8339 -0.5917  1.7723
 5980SOL     OW20381   0.910   2.238   7.269 -0.5374  0.2231  0.2988
 5980SOL    HW120382   0.965   2.300   7.318 -0.8731  1.4304 -0.8206
 5980SOL    HW220383   0.972   2.194   7.210  0.1474 -2.2673  2.6407
 5981SOL     OW20384   9.246   6.074   4.034 -0.6033  0.0000  0.1743
 5981SOL    HW120385   9.276   6.020   3.961  2.8876  1.9135 -0.0046
 5981SOL    HW220386   9.259   6.019   4.111 -0.0070 -0.4676 -0.2513
 5982SOL     OW20387   1.878   2.380   4.222 -0.0901 -0.2086 -0.3737
 5982SOL    HW120388   1.852   2.317   4.290  1.8429 -2.5427 -1.6103
 5982SOL    HW220389   1.808   2.376   4.157  0.3189 -1.7070 -0.7685
 5983SOL     OW20390   2.696   0.713   2.426 -0.1704  0.2000 -0.0647
 5983SOL    HW120391   2.674   0.641   2.366  0.2720  1.1818 -1.4640
 5983SOL    HW220392   2.652   0.789   2.388  0.9268  1.0437  0.3059
 5984SOL     OW20393   9.568   6.022   3.222  0.0077 -0.2072  0.4930
 5984SOL    HW120394   9.543   5.943   3.270 -0.8887 -1.0467 -1.2838
 5984SOL    HW220395   9.599   5.990   3.137  3.0879  1.1199  0.9660
 5985SOL     OW20396   1.759   0.523   2.454  0.0655 -0.3203  0.4462
 5985SOL    HW120397   1.787   0.539   2.364 -0.4534 -1.0591  0.1487
 5985SOL    HW220398   1.838   0.489   2.498  0.2913 -0.0538  0.2536
 5986SOL     OW20399   2.687   6.706   4.393  0.3794 -0.2741  0.7872
 5986SOL    HW120400   2.731   6.671   4.471  2.0706 -0.6209 -0.2689
 5986SOL    HW220401   2.652   6.629   4.348 -0.7620 -0.0576  1.2771
 5987SOL     OW20402   6.232   4.673   1.030  0.1431  0.3590 -0.0361
 5987SOL    HW120403   6.244   4.613   0.956 -1.0477 -1.4200  1.1114
 5987SOL    HW220404   6.270   4.625   1.104  0.0800  1.4955  0.7450
 5988SOL     OW20405   1.080   8.555   4.986  0.4084  0.5303 -0.1563
 5988SOL    HW120406   1.163   8.508   4.977  0.1946  0.3354 -1.3703
 5988SOL    HW220407   1.024   8.494   5.033  0.3980 -0.1224 -0.9762
 5989SOL     OW20408   5.035   0.705   7.128  0.3562  0.1962  0.4056
 5989SOL    HW120409   5.027   0.769   7.198  4.1800  0.5094  0.7412
 5989SOL    HW220410   4.945   0.691   7.098 -1.0883  2.3263  3.2801
 5990SOL     OW20411   6.337   0.686   9.084 -0.3283  1.3908 -0.0440
 5990SOL    HW120412   6.432   0.680   9.083 -0.3509  0.8247 -1.6693
 5990SOL    HW220413   6.314   0.687   9.177  1.1564 -0.5173  0.4182
 5991SOL     OW20414   9.533   8.885   0.921 -0.1049 -0.0756 -0.2605
 5991SOL    HW120415   9.479   8.812   0.954 -0.2643 -0.0952 -0.5643
 5991SOL    HW220416   9.605   8.842   0.876 -0.2666 -0.0453 -0.5488
 5992SOL     OW20417   8.362   7.042   7.899 -0.0417 -0.0201 -0.3520
 5992SOL    HW120418   8.449   7.072   7.874 -0.2074  0.0950 -0.8044
 5992SOL    HW220419   8.317   7.027   7.815  0.2675 -2.2454 -0.1820
 5993SOL     OW20420   7.098   8.972   8.413  0.0064 -0.0833  0.3431
 5993SOL    HW120421   7.059   9.031   8.348 -1.0179  0.4894  1.4403
 5993SOL    HW220422   7.054   8.888   8.397  2.1192 -0.8886 -1.8244
 5994SOL     OW20423   5.280   9.539   6.388  0.4361  0.1061  0.6107
 5994SOL    HW120424   5.300   9.629   6.414  1.2714 -0.3332  1.5554
 5994SOL    HW220425   5.279   9.541   6.293  2.4122  0.7300  0.5506
 5995SOL     OW20426   4.515   2.468   5.270 -0.4183  0.0742 -0.3223
 5995SOL    HW120427   4.493   2.541   5.213  0.8633  0.7334 -0.0083
 5995SOL    HW220428   4.597   2.433   5.234 -0.4620 -0.5440  0.1535
 5996SOL     OW20429   3.004   2.669   9.957  0.9907  0.9495  0.4406
 5996SOL    HW120430   2.965   2.685   9.871 -0.8556 -0.0782  1.0250
 5996SOL    HW220431   3.045   2.752   9.980  1.7003  1.1903 -1.4961
 5997SOL     OW20432   6.845   4.474   6.566  0.0214 -0.3804  0.4807
 5997SOL    HW120433   6.798   4.396   6.595 -0.7764 -0.6212 -1.3100
 5997SOL    HW220434   6.924   4.440   6.524  0.8033 -0.0770  1.6568
 5998SOL     OW20435   2.552   2.059  10.286 -0.3248  0.4138  0.7360
 5998SOL    HW120436   2.530   2.135  10.233 -0.4529  0.3080  0.6367
 5998SOL    HW220437   2.470   2.012  10.296 -0.7193  1.3936  2.5958
 5999SOL     OW20438   5.191   3.508   7.076  0.1076  0.0518 -0.8582
 5999SOL    HW120439   5.275   3.476   7.110 -0.7052  0.7078  2.1193
 5999SOL    HW220440   5.131   3.435   7.090 -0.9649  1.3791  2.5806
 6000SOL     OW20441   9.103   7.008   9.509  0.3622 -0.9329  0.1859
 6000SOL    HW120442   9.187   7.030   9.470  0.9760 -2.5616  0.4995
 6000SOL    HW220443   9.121   7.002   9.603 -0.8404  1.8048  0.6686
 6001SOL     OW20444   0.157   8.339   6.931  0.0953 -0.3193 -0.0263
 6001SOL    HW120445   0.197   8.393   7.000  3.0489 -3.0715  0.6344
 6001SOL    HW220446   0.086   8.293   6.976 -0.7153  0.9190  0.0430
 6002SOL     OW20447  10.130   4.195   6.984 -0.3599 -0.3398  0.4845
 6002SOL    HW120448  10.177   4.159   6.909 -0.1029  1.1752 -0.1127
 6002SOL    HW220449  10.037   4.186   6.962 -0.2798  0.5996 -0.2776
 6003SOL     OW20450   6.008   8.858   4.274  0.5529 -0.4866 -0.2800
 6003SOL    HW120451   5.958   8.853   4.193 -0.1179 -0.3942  0.1160
 6003SOL    HW220452   5.950   8.906   4.334  1.5954  0.6629 -0.1557
 6004SOL     OW20453   0.502   8.054   2.581  0.3324 -0.6957 -0.3469
 6004SOL    HW120454   0.523   8.058   2.674  1.0606 -1.7111 -0.4525
 6004SOL    HW220455   0.539   7.971   2.551  1.7461  0.4396 -1.9469
 6005SOL     OW20456   7.279   4.302   4.802 -0.3380 -0.2244 -0.9425
 6005SOL    HW120457   7.349   4.282   4.865 -0.2314  0.9477 -0.6695
 6005SOL    HW220458   7.325   4.341   4.727 -0.7319  1.1875 -0.4816
 6006SOL     OW20459   2.510   1.454   4.415 -0.1959  0.2213  0.1529
 6006SOL    HW120460   2.491   1.360   4.410 -0.3118  0.1221  1.9548
 6006SOL    HW220461   2.591   1.460   4.465  0.3409  1.0551 -0.7748
 6007SOL     OW20462   0.819   4.288   2.893  0.6731 -0.0617 -0.4732
 6007SOL    HW120463   0.868   4.289   2.810  0.6388  1.5985 -0.5087
 6007SOL    HW220464   0.730   4.261   2.868  0.8167 -0.1433 -0.8998
 6008SOL     OW20465   5.055   7.102   1.994  0.0908 -0.5376  0.2350
 6008SOL    HW120466   5.067   7.138   2.082 -2.3270 -0.6061  0.6696
 6008SOL    HW220467   4.996   7.028   2.007 -0.1839 -0.6375 -1.4271
 6009SOL     OW20468   1.101   8.906   9.300  0.5270  0.3105  0.0904
 6009SOL    HW120469   1.007   8.915   9.315  0.7268  1.5647  0.7252
 6009SOL    HW220470   1.135   8.872   9.382  0.3484 -2.7233 -0.9492
 6010SOL     OW20471   3.561   3.310   4.752 -0.3036 -0.1923 -0.1566
 6010SOL    HW120472   3.524   3.249   4.816  0.3848  0.8175  1.2608
 6010SOL    HW220473   3.652   3.283   4.743 -0.5672 -0.7614 -1.2798
 6011SOL     OW20474   6.046   2.313   4.021 -0.3942  0.1747 -0.2457
 6011SOL    HW120475   6.112   2.298   3.953  0.2937  1.8030  0.0254
 6011SOL    HW220476   6.028   2.225   4.056  2.2242 -0.2516  0.2350
 6012SOL     OW20477   9.082   6.983   5.385  0.0447 -0.3884 -0.1977
 6012SOL    HW120478   9.150   6.971   5.451 -0.2234 -0.2889  0.1004
 6012SOL    HW220479   9.087   7.076   5.363  1.0036 -0.6734 -1.2794
 6013SOL     OW20480   3.293   1.383   1.015  0.1275  0.1687 -0.4677
 6013SOL    HW120481   3.383   1.405   0.991 -0.3199  1.0812 -1.4199
 6013SOL    HW220482   3.269   1.447   1.082  0.8996 -1.4887  1.4993
 6014SOL     OW20483   0.483   1.893   4.279  0.4170 -0.1265 -0.2160
 6014SOL    HW120484   0.399   1.937   4.263  0.3864  0.5154  1.4525
 6014SOL    HW220485   0.510   1.861   4.193 -0.9365  0.7209 -1.0053
 6015SOL     OW20486   9.217   2.095   5.367  0.3976  0.3018 -0.0463
 6015SOL    HW120487   9.153   2.159   5.334  2.1874  1.2896 -1.8066
 6015SOL    HW220488   9.296   2.112   5.316  2.5673  0.0997  2.9718
 6016SOL     OW20489  10.273   3.789   2.674  0.5647 -0.4312  0.1096
 6016SOL    HW120490  10.340   3.758   2.735 -0.4905 -0.9323  1.0494
 6016SOL    HW220491  10.253   3.878   2.704  1.7908  0.2809 -1.0499
 6017SOL     OW20492   5.043   5.701   9.508 -0.1848 -0.0826  0.6772
 6017SOL    HW120493   5.071   5.767   9.445  0.4501 -0.2169  0.8064
 6017SOL    HW220494   4.968   5.740   9.553 -0.1879  0.3030  0.3466
 6018SOL     OW20495   3.885   4.041   8.452 -0.1904  0.5920  0.0569
 6018SOL    HW120496   3.833   4.055   8.532 -1.0951  0.6581 -0.5265
 6018SOL    HW220497   3.882   3.947   8.438  0.6468  0.4889  0.5393
 6019SOL     OW20498   6.854   9.289   5.780 -0.8021 -0.0462 -0.0713
 6019SOL    HW120499   6.789   9.339   5.730 -1.6450 -0.0895  0.9370
 6019SOL    HW220500   6.884   9.221   5.720 -0.5832  0.8769 -1.0422
 6020SOL     OW20501   0.451   9.494   1.596 -0.5515  0.4983 -0.2768
 6020SOL    HW120502   0.393   9.436   1.547 -1.3149  1.0649 -0.0607
 6020SOL    HW220503   0.435   9.581   1.559  1.1731  0.4824 -1.1562
 6021SOL     OW20504   9.582   6.703   5.595 -0.0151 -0.0777 -0.0034
 6021SOL    HW120505   9.595   6.652   5.674 -0.8779  0.3851  0.4565
 6021SOL    HW220506   9.488   6.694   5.576  0.5202 -1.8200 -2.1292
 6022SOL     OW20507  10.022   4.013   4.011 -0.5280  0.3332  0.5696
 6022SOL    HW120508   9.984   4.015   3.923 -0.6283  0.1210  0.6063
 6022SOL    HW220509   9.996   4.096   4.050 -0.1088  0.6196  0.2449
 6023SOL     OW20510   1.080   5.554   7.751  0.4076 -0.1793 -0.3546
 6023SOL    HW120511   1.074   5.639   7.796  2.3359 -0.2453  0.1150
 6023SOL    HW220512   0.999   5.547   7.702 -0.5386  1.1797  0.9236
 6024SOL     OW20513  10.137   2.882   4.058 -0.0144 -0.1356 -0.0382
 6024SOL    HW120514  10.150   2.963   4.106 -1.0206 -0.0712  0.1442
 6024SOL    HW220515  10.055   2.895   4.010  0.5301 -0.5261 -1.0949
 6025SOL     OW20516   7.495   7.654   2.838 -0.5377 -0.4298  0.2426
 6025SOL    HW120517   7.497   7.631   2.931  1.8872 -0.0273  0.3532
 6025SOL    HW220518   7.556   7.728   2.831  1.0028 -1.7864 -1.9666
 6026SOL     OW20519   2.716   3.628   9.283 -0.2978 -0.2513 -0.1174
 6026SOL    HW120520   2.788   3.635   9.220  0.2593 -1.0804  0.4043
 6026SOL    HW220521   2.724   3.540   9.319 -2.7858 -1.1128 -1.4549
 6027SOL     OW20522   3.672   1.204   7.343  0.1392 -0.1814 -0.0900
 6027SOL    HW120523   3.678   1.183   7.250 -0.0906 -0.0059 -0.1450
 6027SOL    HW220524   3.745   1.264   7.359  0.4228 -0.5290 -0.0671
 6028SOL     OW20525   1.380   6.617   4.513  0.1070  0.8085  0.4398
 6028SOL    HW120526   1.331   6.677   4.456 -0.6113 -0.4992 -0.3642
 6028SOL    HW220527   1.395   6.667   4.593 -0.1170  2.1952 -0.3501
 6029SOL     OW20528   1.722   9.545   9.524  0.0004 -1.4324 -0.0399
 6029SOL    HW120529   1.784   9.601   9.571  0.9118 -1.9775 -0.5776
 6029SOL    HW220530   1.641   9.597   9.521  0.7510 -0.2402 -0.3058
 6030SOL     OW20531   0.298   0.215   1.656  0.0362  0.0867  0.3450
 6030SOL    HW120532   0.338   0.287   1.704  0.6669  0.4598 -0.6949
 6030SOL    HW220533   0.363   0.144   1.660 -0.4961 -0.3723  1.1926
 6031SOL     OW20534   4.511   0.937   1.993  0.3074  0.0156 -0.0036
 6031SOL    HW120535   4.426   0.923   1.951 -0.5945  2.9935  0.5832
 6031SOL    HW220536   4.558   0.996   1.934  1.1473  0.0105  0.6339
 6032SOL     OW20537  10.087   5.518   1.638  0.4395 -0.5330 -0.1227
 6032SOL    HW120538   9.998   5.485   1.628  0.5114 -1.2234  1.3286
 6032SOL    HW220539  10.091   5.550   1.728  1.5034 -0.0225 -0.3411
 6033SOL     OW20540   2.731   1.499   3.641 -0.5602  0.2631 -0.9532
 6033SOL    HW120541   2.673   1.493   3.566 -1.3056  1.3419 -0.4824
 6033SOL    HW220542   2.805   1.553   3.610 -0.3846 -0.1181 -1.2002
 6034SOL     OW20543   9.406   1.822   8.331 -0.2767 -0.3137 -0.0724
 6034SOL    HW120544   9.474   1.814   8.264 -0.9644 -1.5470 -0.6636
 6034SOL    HW220545   9.343   1.753   8.309 -2.7518  1.9812 -0.7427
 6035SOL     OW20546   1.226   3.228   6.294 -0.0407  0.6500 -0.7010
 6035SOL    HW120547   1.243   3.134   6.286  0.6975  0.6706  0.3773
 6035SOL    HW220548   1.161   3.234   6.365 -0.0852  0.9568 -0.7691
 6036SOL     OW20549   9.143   1.561   3.921 -0.1928 -0.2694 -0.6765
 6036SOL    HW120550   9.216   1.519   3.967 -1.0742 -0.2957  0.7718
 6036SOL    HW220551   9.169   1.653   3.915  0.6969 -0.5662 -1.7272
 6037SOL     OW20552   3.238   1.657   3.421 -0.4250  0.1496 -0.1287
 6037SOL    HW120553   3.216   1.750   3.413  3.0629  1.2600  1.2281
 6037SOL    HW220554   3.216   1.636   3.512 -0.8594 -0.2792 -0.3278
 6038SOL     OW20555   0.448   7.543   6.997  0.6693  0.6078 -0.0179
 6038SOL    HW120556   0.517   7.603   7.025  0.4287  0.7668  0.2471
 6038SOL    HW220557   0.428   7.493   7.076  0.7823  0.2634 -0.2063
 6039SOL     OW20558   1.397   1.597   1.693 -0.0627  0.8040 -0.1295
 6039SOL    HW120559   1.368   1.666   1.633  0.9845  0.8815 -0.5675
 6039SOL    HW220560   1.400   1.638   1.779 -2.6251  0.4169  0.2244
 6040SOL     OW20561   1.108   8.951   0.965  0.0847 -0.5461  0.5220
 6040SOL    HW120562   1.029   8.930   0.915  0.4925  2.0345 -1.3979
 6040SOL    HW220563   1.097   9.042   0.991  1.7621 -0.6105  1.5836
 6041SOL     OW20564   4.602   8.980   5.503 -1.0449  0.1935 -0.0520
 6041SOL    HW120565   4.690   9.008   5.528 -0.6907 -0.3021 -0.7076
 6041SOL    HW220566   4.567   9.053   5.452 -0.1055 -0.4916 -1.8025
 6042SOL     OW20567   3.671   9.497   4.695  0.3848  0.3861 -0.0641
 6042SOL    HW120568   3.742   9.474   4.634  0.3568 -1.4089  0.5060
 6042SOL    HW220569   3.597   9.521   4.638 -0.4137 -3.5120 -0.9728
 6043SOL     OW20570   6.777   3.526   6.783 -0.2310 -0.1402 -0.3234
 6043SOL    HW120571   6.826   3.606   6.764 -0.8208  0.4332  0.4792
 6043SOL    HW220572   6.839   3.455   6.770  0.2383  0.4363 -1.2714
 6044SOL     OW20573   9.124   9.698   3.187 -0.5603 -0.3190 -0.4581
 6044SOL    HW120574   9.048   9.666   3.138 -0.1291 -0.9763 -0.7118
 6044SOL    HW220575   9.168   9.618   3.217  1.0913 -0.0160 -1.9238
 6045SOL     OW20576   0.068   9.551   3.632 -0.1882  0.0205  0.2729
 6045SOL    HW120577  -0.011   9.541   3.686 -0.0090  0.0898  0.5519
 6045SOL    HW220578   0.041   9.609   3.561 -0.1951  0.6505  0.7784
 6046SOL     OW20579   4.646   8.550   4.938 -0.4522  0.4216  0.1944
 6046SOL    HW120580   4.650   8.636   4.981 -0.0199  1.3621 -1.6289
 6046SOL    HW220581   4.564   8.512   4.968 -2.0575  2.6801 -1.0580
 6047SOL     OW20582   9.293   5.288   5.139  0.3408  0.1431 -0.3968
 6047SOL    HW120583   9.387   5.280   5.156  0.7468  1.9519 -1.4771
 6047SOL    HW220584   9.258   5.201   5.156  1.7370  0.0449  2.6880
 6048SOL     OW20585   6.742   1.059   0.955  0.4462 -0.0099 -0.5814
 6048SOL    HW120586   6.728   0.965   0.962  1.1308 -0.0096  1.3241
 6048SOL    HW220587   6.796   1.081   1.031  0.6599  1.8525 -1.2276
 6049SOL     OW20588   2.966   1.518   6.868  0.3697  0.5246  0.4011
 6049SOL    HW120589   2.981   1.536   6.775  0.5582  0.3498  0.3976
 6049SOL    HW220590   2.909   1.441   6.868 -0.1559  0.9086  0.4217
 6050SOL     OW20591   2.613   9.377   4.187  0.5304 -0.0998 -0.1653
 6050SOL    HW120592   2.605   9.454   4.243  0.4404  1.0462 -1.6686
 6050SOL    HW220593   2.708   9.366   4.176  0.5519 -0.4459  0.3685
 6051SOL     OW20594   8.570   7.665  10.026 -0.1594  0.0204  0.3704
 6051SOL    HW120595   8.583   7.600  10.095 -2.1672 -1.7974 -0.8493
 6051SOL    HW220596   8.645   7.654   9.968 -0.6763 -1.5450 -0.0358
 6052SOL     OW20597  10.384   0.280   1.548  0.0287 -0.2371 -0.2802
 6052SOL    HW120598  10.361   0.329   1.627 -0.6651 -0.4589 -0.3379
 6052SOL    HW220599  10.300   0.247   1.515  0.3953 -0.7507 -0.7105
 6053SOL     OW20600   9.175   0.401   3.442 -0.1282 -0.5331  0.4059
 6053SOL    HW120601   9.208   0.466   3.504  3.1464 -1.1471 -0.5469
 6053SOL    HW220602   9.186   0.317   3.486 -1.5714 -0.7143  0.4791
 6054SOL     OW20603   8.936   6.162   0.725 -0.0603 -0.6528 -0.6698
 6054SOL    HW120604   8.954   6.074   0.757 -1.9893 -0.9887 -0.3790
 6054SOL    HW220605   8.841   6.171   0.731  0.1089  1.5503 -0.4380
 6055SOL     OW20606   2.039   2.038   3.709 -0.1644 -0.0693 -0.5970
 6055SOL    HW120607   1.946   2.057   3.723 -0.3080 -0.8559 -0.4095
 6055SOL    HW220608   2.079   2.055   3.794  0.0142  1.0493 -0.8858
 6056SOL     OW20609   5.815   2.975   0.039 -0.1517 -0.3341  0.1617
 6056SOL    HW120610   5.801   2.920   0.117 -1.4437 -1.0956 -0.5707
 6056SOL    HW220611   5.735   3.026   0.031 -0.8293 -1.5787 -1.6591
 6057SOL     OW20612   4.134   0.129   6.592 -0.1843 -0.1181  0.1148
 6057SOL    HW120613   4.076   0.105   6.520  1.5347  0.3911 -1.4872
 6057SOL    HW220614   4.196   0.056   6.599 -0.7056 -0.4725  1.5527
 6058SOL     OW20615   4.309   5.640   1.896  0.6168  0.1195  0.1126
 6058SOL    HW120616   4.346   5.667   1.812  0.0450  1.6125  0.3167
 6058SOL    HW220617   4.369   5.676   1.961 -0.3423  1.2354  0.4034
 6059SOL     OW20618  10.168   7.105   2.418 -0.4177 -0.4310 -0.4884
 6059SOL    HW120619  10.194   7.072   2.503  1.3899  0.3945 -0.6649
 6059SOL    HW220620  10.074   7.089   2.413 -0.5264 -0.6530  1.5675
 6060SOL     OW20621   8.657   8.145   5.436 -0.3892 -0.4725 -0.3002
 6060SOL    HW120622   8.664   8.154   5.341 -0.2937  0.4868 -0.2120
 6060SOL    HW220623   8.687   8.055   5.454 -0.2596 -0.6088 -1.1562
 6061SOL     OW20624  10.270   6.801  10.104  0.0633  0.1921  0.5158
 6061SOL    HW120625  10.238   6.833  10.189  1.1498  0.5714  0.7960
 6061SOL    HW220626  10.287   6.880  10.053 -2.2489 -0.0389 -0.7380
 6062SOL     OW20627   6.717   9.973   0.094  0.3684 -0.1935 -0.0701
 6062SOL    HW120628   6.764  10.055   0.111 -1.6120  1.3186 -1.4229
 6062SOL    HW220629   6.679   9.985   0.007 -2.2246 -1.3958  0.8053
 6063SOL     OW20630   6.486   9.411   1.355 -0.6537 -0.1785  0.1395
 6063SOL    HW120631   6.515   9.333   1.403 -1.0320  0.4308  1.3762
 6063SOL    HW220632   6.411   9.443   1.404  0.6285  2.0633  0.7847
 6064SOL     OW20633   2.998   2.177   8.057  0.1278  0.1789  0.3588
 6064SOL    HW120634   3.002   2.127   8.138  0.0069 -1.1625 -0.4336
 6064SOL    HW220635   3.087   2.209   8.044  0.0914  0.6053  1.1415
 6065SOL     OW20636   6.820   4.051   8.770 -0.2473  0.9724  0.7171
 6065SOL    HW120637   6.839   4.111   8.698 -1.5930  1.0759  0.4203
 6065SOL    HW220638   6.794   3.969   8.727 -1.3360  1.1229  1.0582
 6066SOL     OW20639   0.984   9.779   7.868  0.2475  0.3358  0.4828
 6066SOL    HW120640   1.007   9.870   7.890  0.0303  0.1255  1.6662
 6066SOL    HW220641   1.068   9.735   7.859  0.3990  0.9542 -1.5894
 6067SOL     OW20642   3.604   1.563   8.881  0.7012 -0.0599 -0.2444
 6067SOL    HW120643   3.654   1.569   8.962  2.9344 -0.6961 -1.5178
 6067SOL    HW220644   3.550   1.643   8.881  0.1490 -0.3476  2.1247
 6068SOL     OW20645   6.327   8.615   4.275  0.2269 -0.4799 -0.1064
 6068SOL    HW120646   6.404   8.667   4.299 -0.1215 -0.3130  0.6697
 6068SOL    HW220647   6.285   8.594   4.358 -1.2599  0.4762 -0.5766
 6069SOL     OW20648   8.678   7.903   1.028  0.1719 -0.0932  0.0707
 6069SOL    HW120649   8.662   7.811   1.050 -0.5156  0.3207  1.3866
 6069SOL    HW220650   8.724   7.900   0.944  0.3791 -1.6467  0.2145
 6070SOL     OW20651  10.403   7.730  10.349 -0.6085  0.0976  0.3330
 6070SOL    HW120652  10.339   7.800  10.360 -1.0301  0.4960 -3.3824
 6070SOL    HW220653  10.352   7.649  10.357 -1.1193  0.3534 -0.3163
 6071SOL     OW20654   1.967   4.969   5.726 -0.7588 -0.1900  0.4282
 6071SOL    HW120655   1.947   5.040   5.788  0.0948 -1.1919  1.9199
 6071SOL    HW220656   1.925   4.892   5.764  1.0668 -1.1435  0.6182
 6072SOL     OW20657   1.991   3.579   9.314  0.2019 -0.2244 -0.5451
 6072SOL    HW120658   1.991   3.483   9.310 -3.3924 -0.5540  2.0644
 6072SOL    HW220659   1.913   3.605   9.266 -0.8457  1.0281  1.6847
 6073SOL     OW20660   0.951   8.807   2.524  0.2305 -0.1337  0.1468
 6073SOL    HW120661   0.980   8.796   2.434  2.0733  0.5868  0.6098
 6073SOL    HW220662   0.924   8.899   2.530 -0.6518 -0.3821  0.1431
 6074SOL     OW20663   0.518   4.704   3.830 -0.0439  0.2436  0.4608
 6074SOL    HW120664   0.560   4.735   3.750 -0.1677 -0.5728  0.0661
 6074SOL    HW220665   0.580   4.642   3.868 -0.0409  0.5300  0.9323
 6075SOL     OW20666   2.152   6.681   6.015 -0.3077  0.1209  0.3060
 6075SOL    HW120667   2.101   6.601   6.029  0.1775  0.1758  2.8884
 6075SOL    HW220668   2.097   6.751   6.049  0.6892  0.4052  1.4078
 6076SOL     OW20669   0.271   8.474   8.457 -0.0604  0.8189  0.2307
 6076SOL    HW120670   0.344   8.526   8.492  0.8427 -0.0030 -0.3658
 6076SOL    HW220671   0.273   8.490   8.363 -0.0329  0.0571  0.0922
 6077SOL     OW20672   9.705   9.408   4.293  0.3131 -0.1486  0.2280
 6077SOL    HW120673   9.643   9.370   4.355  1.1632 -1.9631  0.0254
 6077SOL    HW220674   9.691   9.359   4.212  0.4168  1.0087 -0.5115
 6078SOL     OW20675   1.278   6.425   4.683 -0.4737  0.5151 -0.4695
 6078SOL    HW120676   1.335   6.435   4.607  0.9394  1.1733  0.6402
 6078SOL    HW220677   1.334   6.388   4.751 -1.8464 -0.5836  0.1179
 6079SOL     OW20678   7.120  10.075   6.732  0.8908 -0.1616 -0.6483
 6079SOL    HW120679   7.041  10.029   6.758  1.5465 -1.0193 -0.0879
 6079SOL    HW220680   7.166  10.093   6.814  1.4623 -0.0202 -0.9864
 6080SOL     OW20681   4.785   9.787   0.335 -0.0962  0.4061 -0.1712
 6080SOL    HW120682   4.719   9.823   0.275  0.4981 -1.3136 -1.9875
 6080SOL    HW220683   4.772   9.692   0.330  0.8428  0.1582  1.4731
 6081SOL     OW20684   4.647   3.274   0.656 -0.4027 -0.3823  0.0073
 6081SOL    HW120685   4.730   3.227   0.650  0.3809  0.9464  0.0626
 6081SOL    HW220686   4.649   3.337   0.584 -0.4970  0.9614  1.1300
 6082SOL     OW20687   7.214   2.923   9.820  0.2071  0.1967  0.4862
 6082SOL    HW120688   7.193   2.841   9.774  0.1982  0.4752 -0.0070
 6082SOL    HW220689   7.212   2.990   9.752  1.7703  0.3854  0.5993
 6083SOL     OW20690   7.306   5.420   6.357  0.3753  0.5330 -0.5027
 6083SOL    HW120691   7.289   5.423   6.451  0.6447  1.0126 -0.4701
 6083SOL    HW220692   7.257   5.494   6.321 -1.3767 -0.8003 -1.0143
 6084SOL     OW20693   6.550   2.338   7.055 -0.0556 -0.3235 -0.5987
 6084SOL    HW120694   6.521   2.378   6.973 -0.6537 -1.5745 -1.0398
 6084SOL    HW220695   6.522   2.399   7.123 -0.7357  0.1145 -1.2542
 6085SOL     OW20696   1.129   0.861   5.655  0.0652 -0.0599  0.0010
 6085SOL    HW120697   1.117   0.790   5.591  0.8038 -0.1263 -0.0699
 6085SOL    HW220698   1.167   0.933   5.604  1.2520 -0.3259  0.4790
 6086SOL     OW20699   1.892   5.501   2.544  0.4960 -0.1723 -0.2828
 6086SOL    HW120700   1.799   5.506   2.524  0.1323  1.2350  1.4576
 6086SOL    HW220701   1.924   5.427   2.493 -1.3816 -0.1544 -1.5959
 6087SOL     OW20702   2.900   8.734   7.679  0.3207  0.0337 -0.4087
 6087SOL    HW120703   2.820   8.729   7.626 -0.6865  0.5686  1.0034
 6087SOL    HW220704   2.931   8.823   7.667 -0.0904  0.2541  0.1467
 6088SOL     OW20705   4.061   1.933   7.657 -0.0477 -0.5236 -0.1197
 6088SOL    HW120706   4.152   1.903   7.654 -0.4100 -1.7972  0.7679
 6088SOL    HW220707   4.030   1.906   7.743 -1.4473 -0.6279 -0.6338
 6089SOL     OW20708   0.383   0.929   5.261 -0.0085 -0.1825  0.6491
 6089SOL    HW120709   0.424   0.850   5.225 -2.0929 -0.7252 -0.7383
 6089SOL    HW220710   0.447   0.998   5.246 -0.1407 -0.6566 -3.0152
 6090SOL     OW20711   5.409   6.824   1.486  0.0632 -0.2375 -0.2556
 6090SOL    HW120712   5.432   6.742   1.529  0.2900 -0.3678 -0.6127
 6090SOL    HW220713   5.364   6.875   1.552  0.7553 -0.2751  0.2537
 6091SOL     OW20714   9.569  10.437  10.004  0.3297 -0.1303  0.6049
 6091SOL    HW120715   9.605  10.356  10.040  2.0170  0.4246  0.2307
 6091SOL    HW220716   9.618  10.506  10.048 -0.6399  0.6736  0.4440
 6092SOL     OW20717   0.615   3.466   8.673  0.0143 -0.4190 -0.1990
 6092SOL    HW120718   0.661   3.385   8.648  0.8787  0.1334 -0.4431
 6092SOL    HW220719   0.667   3.501   8.745  0.7054  0.8476 -1.2698
 6093SOL     OW20720   0.601   3.247   7.316  0.1122  0.3829 -0.0811
 6093SOL    HW120721   0.507   3.266   7.305  0.0730  1.3662  1.5925
 6093SOL    HW220722   0.605   3.190   7.392  0.9426  1.4341  0.7027
 6094SOL     OW20723   0.590   8.233   6.944 -0.1618 -0.1219  0.2079
 6094SOL    HW120724   0.557   8.280   7.020 -0.3937  0.3183 -0.1602
 6094SOL    HW220725   0.669   8.279   6.918  0.3298 -0.7183  0.6273
 6095SOL     OW20726   9.861   7.695   3.006  0.5791  0.2829 -0.7365
 6095SOL    HW120727   9.772   7.663   3.021 -0.7181  3.5030 -0.9172
 6095SOL    HW220728   9.894   7.716   3.093  0.7752  0.1395 -0.7729
 6096SOL     OW20729   7.237   3.206   5.060 -0.3546 -0.7370  0.2730
 6096SOL    HW120730   7.292   3.250   5.125 -0.7182 -1.4825  1.1024
 6096SOL    HW220731   7.178   3.274   5.027 -1.2150 -0.6803  1.8588
 6097SOL     OW20732   4.688   7.881   2.688 -0.0305  0.0425 -0.0210
 6097SOL    HW120733   4.685   7.786   2.684  0.6163 -0.1751  2.6615
 6097SOL    HW220734   4.781   7.903   2.681 -0.0852  0.3846  0.2641
 6098SOL     OW20735   0.162   6.750   2.546 -0.5924 -0.3515 -0.4238
 6098SOL    HW120736   0.222   6.822   2.528 -0.5512  0.2952  1.9381
 6098SOL    HW220737   0.140   6.715   2.460  0.4020  1.6422 -1.5661
 6099SOL     OW20738   2.503   2.277   6.212 -0.4147  0.9383  0.3735
 6099SOL    HW120739   2.490   2.195   6.164  0.1586  0.5325  0.8968
 6099SOL    HW220740   2.432   2.334   6.182 -0.8099  0.2594 -0.0037
 6100SOL     OW20741   2.470   4.896   9.944 -0.2975  0.1184 -0.0740
 6100SOL    HW120742   2.427   4.812   9.959  0.3966 -0.0626  1.0316
 6100SOL    HW220743   2.488   4.929  10.032 -1.8875  2.1365 -0.4298
 6101SOL     OW20744   9.487   2.732   1.707  0.1424 -0.1975  0.3424
 6101SOL    HW120745   9.566   2.773   1.672 -0.8131  1.6978  0.3032
 6101SOL    HW220746   9.424   2.737   1.635 -0.3145 -0.8437  0.6906
 6102SOL     OW20747   8.950   6.682   7.367 -0.0491  0.2093  0.4252
 6102SOL    HW120748   8.877   6.713   7.420  0.7284  1.8889  0.5685
 6102SOL    HW220749   8.942   6.586   7.368 -1.0567  0.2794  2.1182
 6103SOL     OW20750  10.482   4.535   1.070  0.1575  0.4371 -0.2215
 6103SOL    HW120751  10.478   4.593   0.994  1.3477 -0.2736 -0.8502
 6103SOL    HW220752  10.432   4.457   1.044  1.8533 -0.4823 -0.9364
 6104SOL     OW20753   5.938   5.041   4.996 -0.5750 -0.1705  0.5772
 6104SOL    HW120754   6.007   4.975   4.988  0.3629  0.6809  1.3461
 6104SOL    HW220755   5.860   4.999   4.960 -0.0352 -1.7322  1.1644
 6105SOL     OW20756   3.860   3.528   8.745 -0.4118 -0.1085 -0.3046
 6105SOL    HW120757   3.905   3.505   8.663  4.0027 -1.3656  2.1038
 6105SOL    HW220758   3.811   3.449   8.767  1.5768 -1.3315  0.0358
 6106SOL     OW20759   3.835   6.061   5.905 -0.3569 -0.1829  0.4758
 6106SOL    HW120760   3.913   6.107   5.937  0.5435 -1.3213  0.0063
 6106SOL    HW220761   3.796   6.121   5.842  1.7156 -0.6399 -1.3774
 6107SOL     OW20762   2.832   1.693   9.402 -0.1863 -0.1865 -0.3313
 6107SOL    HW120763   2.847   1.781   9.366  0.0283 -0.8196 -1.8304
 6107SOL    HW220764   2.919   1.665   9.433 -0.0088 -0.3726 -1.0005
 6108SOL     OW20765   2.305   4.020  10.107  0.4300 -0.5288 -1.2487
 6108SOL    HW120766   2.396   3.992  10.113  0.8658  0.9578 -0.5141
 6108SOL    HW220767   2.288   4.066  10.190 -1.4287 -1.9979 -0.7388
 6109SOL     OW20768   8.729   2.065   2.212 -0.0327  0.5032  0.2116
 6109SOL    HW120769   8.694   2.079   2.300 -0.7840  2.9711 -0.4129
 6109SOL    HW220770   8.790   2.138   2.199  0.6952 -0.3015 -1.0167
 6110SOL     OW20771   3.867   3.494   0.735 -0.4932  0.3531  0.2698
 6110SOL    HW120772   3.940   3.555   0.748 -0.9565  1.1365 -0.7084
 6110SOL    HW220773   3.792   3.549   0.716 -0.7083 -0.5214 -1.7081
 6111SOL     OW20774   5.873   8.188   0.212  0.4527 -0.2149  1.0173
 6111SOL    HW120775   5.926   8.125   0.163 -1.1165 -0.1490 -0.9060
 6111SOL    HW220776   5.919   8.271   0.204 -0.6920  0.2395 -2.1843
 6112SOL     OW20777   0.847   0.219   0.323  0.7680  0.2098  0.1143
 6112SOL    HW120778   0.899   0.142   0.346 -0.8095 -0.5291  1.3980
 6112SOL    HW220779   0.762   0.205   0.366  0.1083  2.2127 -0.4141
 6113SOL     OW20780   0.087   1.770   8.505  0.6753  0.2448 -0.0423
 6113SOL    HW120781   0.140   1.692   8.523  1.7628  0.6504 -1.2945
 6113SOL    HW220782   0.100   1.826   8.581 -1.2130 -1.2974  1.5322
 6114SOL     OW20783   8.919   0.726   2.387 -0.1973  0.7563  0.4894
 6114SOL    HW120784   8.968   0.787   2.441  0.8752  1.1673 -0.9046
 6114SOL    HW220785   8.966   0.643   2.396 -0.9195  0.4183  1.3715
 6115SOL     OW20786   0.515   4.402   6.313  0.0558  0.0783 -0.5015
 6115SOL    HW120787   0.556   4.369   6.233  0.3480  0.0497 -0.3436
 6115SOL    HW220788   0.583   4.456   6.354 -0.5777  1.3099 -1.0117
 6116SOL     OW20789   1.526   7.409   1.079 -0.0289 -0.1749 -0.0073
 6116SOL    HW120790   1.560   7.383   0.993 -2.5542  0.6245 -1.3789
 6116SOL    HW220791   1.432   7.391   1.073 -0.9307  3.3753  1.1642
 6117SOL     OW20792   8.071   5.210   0.001 -0.1792 -0.1114 -0.1436
 6117SOL    HW120793   8.147   5.172  -0.042  0.2791  0.7954 -0.1530
 6117SOL    HW220794   8.001   5.146  -0.013 -0.4947  0.7821 -3.5495
 6118SOL     OW20795   3.323   9.285   2.923  0.5641  0.5026  0.2268
 6118SOL    HW120796   3.309   9.281   2.829  3.5688  1.1934 -0.3709
 6118SOL    HW220797   3.236   9.302   2.960 -0.7943 -0.3432 -2.3286
 6119SOL     OW20798   7.065   0.931   2.309 -0.0824 -0.3854  0.4263
 6119SOL    HW120799   7.129   0.888   2.366 -0.2784 -2.0285 -0.5108
 6119SOL    HW220800   7.109   0.937   2.224 -0.7791 -0.6033  0.0362
 6120SOL     OW20801   0.780   3.172   3.057 -0.1395  0.0197  0.4736
 6120SOL    HW120802   0.858   3.152   3.108 -0.9302 -1.1462  1.2638
 6120SOL    HW220803   0.712   3.188   3.123 -0.5984  0.9366 -0.2002
 6121SOL     OW20804   5.983   9.625   5.314 -0.6825  0.4989 -0.2989
 6121SOL    HW120805   5.958   9.533   5.327  0.4554  0.1951 -0.1126
 6121SOL    HW220806   6.026   9.649   5.396 -2.1286  1.6230  0.1596
 6122SOL     OW20807   2.905  10.308   8.993 -0.3690  0.5883  0.2071
 6122SOL    HW120808   2.966  10.336   9.061 -0.5343  0.7182  0.3023
 6122SOL    HW220809   2.892  10.386   8.939 -1.1842  0.8442  0.7379
 6123SOL     OW20810   7.982   3.842   3.704 -0.2483 -0.7876 -0.7378
 6123SOL    HW120811   7.976   3.929   3.664 -0.7347  1.7123  4.1088
 6123SOL    HW220812   8.074   3.835   3.731 -0.0281 -2.2328 -1.7455
 6124SOL     OW20813   9.492   3.932   3.066 -0.5812 -0.1045  0.0644
 6124SOL    HW120814   9.554   3.992   3.025  0.3881 -0.1122  1.4569
 6124SOL    HW220815   9.407   3.975   3.056 -0.1853  0.5328 -0.7046
 6125SOL     OW20816   9.463   1.159   4.674 -0.3602  0.1425  0.2851
 6125SOL    HW120817   9.518   1.085   4.698  0.3930  1.0684  1.5213
 6125SOL    HW220818   9.375   1.136   4.705 -1.2843 -2.2137 -3.4069
 6126SOL     OW20819   4.318   2.565   7.137  0.4050  0.4052  0.5598
 6126SOL    HW120820   4.312   2.653   7.100  1.6209 -0.7433 -2.8091
 6126SOL    HW220821   4.406   2.561   7.175  0.0590  0.8541  1.4295
 6127SOL     OW20822   5.533   1.498   4.082  0.7900 -0.1513 -0.0019
 6127SOL    HW120823   5.614   1.549   4.089  0.4079  0.2614  1.8182
 6127SOL    HW220824   5.464   1.559   4.107 -0.0332 -0.6613 -1.0038
 6128SOL     OW20825   0.265   1.260   9.393  0.6326  0.2590  0.1368
 6128SOL    HW120826   0.267   1.177   9.441 -1.0651  0.3989  0.5321
 6128SOL    HW220827   0.275   1.327   9.461 -0.5536  0.4234  0.1768
 6129SOL     OW20828   3.508   6.065   0.571 -0.2001 -0.2034 -0.6191
 6129SOL    HW120829   3.526   5.984   0.523  2.2913 -0.8952  1.2831
 6129SOL    HW220830   3.587   6.117   0.561 -0.1565  0.2203  1.4525
 6130SOL     OW20831   7.325   5.098   5.142  0.0565  0.1463 -0.1439
 6130SOL    HW120832   7.278   5.182   5.142  1.1148  0.7752 -1.1372
 6130SOL    HW220833   7.396   5.111   5.205  1.4455  0.7549 -1.7808
 6131SOL     OW20834   9.752   0.628   2.665  0.5478  0.1062  0.3834
 6131SOL    HW120835   9.760   0.716   2.701 -0.5542 -0.3451  1.8464
 6131SOL    HW220836   9.672   0.593   2.706 -0.7182 -0.5263 -2.4253
 6132SOL     OW20837   4.850   1.020   7.188 -0.3576  0.5621  0.3159
 6132SOL    HW120838   4.802   0.991   7.266 -0.3069 -0.0798  0.1142
 6132SOL    HW220839   4.821   0.961   7.119 -1.2779  1.8388 -0.4406
 6133SOL     OW20840   6.824   5.804   9.005  0.1959 -0.6608  0.4299
 6133SOL    HW120841   6.747   5.780   8.953 -0.0999 -2.1027  1.4385
 6133SOL    HW220842   6.860   5.881   8.962 -1.5833 -0.1867 -0.3064
 6134SOL     OW20843   7.963  10.271   3.146  0.0282  0.1271 -0.2510
 6134SOL    HW120844   7.969  10.236   3.057 -1.3480  0.7733 -0.6071
 6134SOL    HW220845   7.892  10.222   3.187  0.2835  0.2225  0.3257
 6135SOL     OW20846   0.364   4.008   3.523 -0.4542 -0.4618 -0.4073
 6135SOL    HW120847   0.419   3.955   3.580 -1.5270 -2.1815 -0.8836
 6135SOL    HW220848   0.404   4.095   3.525  0.2335 -0.7509  1.9943
 6136SOL     OW20849   7.311   8.775   3.147  0.4080 -0.1717 -0.1997
 6136SOL    HW120850   7.283   8.865   3.132 -1.2114  0.2874  4.1753
 6136SOL    HW220851   7.229   8.724   3.148  1.0980 -1.3280 -0.4096
 6137SOL     OW20852  10.347   5.410   0.249  0.2650  0.0799 -0.7620
 6137SOL    HW120853  10.418   5.379   0.193  1.4357  0.9587  0.1830
 6137SOL    HW220854  10.357   5.362   0.331  1.5769  2.1836  0.4061
 6138SOL     OW20855   5.719   7.528   3.850  0.2711  0.2574 -0.1395
 6138SOL    HW120856   5.795   7.583   3.871  0.2440  0.5397 -0.7460
 6138SOL    HW220857   5.655   7.589   3.813 -0.4884  0.1187  0.9146
 6139SOL     OW20858   6.189   4.909   5.525  0.5154 -0.2012 -0.4239
 6139SOL    HW120859   6.198   4.933   5.617 -0.6425 -1.3313  0.0313
 6139SOL    HW220860   6.231   4.823   5.519  0.0407 -0.4088 -0.8026
 6140SOL     OW20861   5.765   4.493   0.038  0.0677 -0.3013 -0.3154
 6140SOL    HW120862   5.770   4.453   0.124  0.9827  1.7949  0.6716
 6140SOL    HW220863   5.842   4.549   0.033 -0.1957 -0.0405 -2.3403
 6141SOL     OW20864  10.256   5.647   7.560  0.7696  0.0301 -0.3597
 6141SOL    HW120865  10.244   5.621   7.652  1.8544  3.0661  0.7836
 6141SOL    HW220866  10.325   5.589   7.528 -1.5413 -3.0267 -0.2897
 6142SOL     OW20867   4.379   6.009   4.326  0.0161  0.8216  0.4715
 6142SOL    HW120868   4.341   6.010   4.414 -1.4514  0.1407 -0.1156
 6142SOL    HW220869   4.448   5.943   4.330  0.4472  1.3098  1.2916
 6143SOL     OW20870   1.859   5.908   1.334 -0.4804 -0.0189  0.1723
 6143SOL    HW120871   1.828   5.986   1.380 -1.0571 -0.7922  1.1286
 6143SOL    HW220872   1.928   5.873   1.389  0.5930  0.4400 -0.8384
 6144SOL     OW20873   7.250   0.382   2.859 -0.1840  0.2949 -0.1452
 6144SOL    HW120874   7.158   0.379   2.833  0.0064  0.1249 -0.8360
 6144SOL    HW220875   7.249   0.420   2.946 -1.0083 -0.8117  0.3630
 6145SOL     OW20876   9.861   1.446  10.370 -0.6667  0.0166 -0.1324
 6145SOL    HW120877   9.868   1.487  10.283 -0.1352  1.1020  0.4097
 6145SOL    HW220878   9.777   1.400  10.367 -0.9923  0.6232 -0.9915
 6146SOL     OW20879   7.875   5.448   3.838  0.3635 -0.6547 -0.5617
 6146SOL    HW120880   7.934   5.375   3.857  0.5101 -0.5611 -0.6500
 6146SOL    HW220881   7.802   5.408   3.791  0.0166 -0.8801  0.1629
 6147SOL     OW20882   7.142   9.238   9.815  0.2267  0.6580 -0.0145
 6147SOL    HW120883   7.144   9.324   9.772  0.9485  1.2137  1.0611
 6147SOL    HW220884   7.171   9.256   9.905 -1.0564 -0.4855  0.6680
 6148SOL     OW20885   8.282   8.345   0.680  0.3464 -0.8391 -0.0163
 6148SOL    HW120886   8.328   8.422   0.712 -0.2508 -1.2420  1.9674
 6148SOL    HW220887   8.352   8.282   0.662  0.7935 -0.0794 -1.0013
 6149SOL     OW20888   2.258   9.347   0.500  0.3330 -0.2599  0.1410
 6149SOL    HW120889   2.314   9.292   0.555 -0.5180  0.1434  1.4675
 6149SOL    HW220890   2.311   9.423   0.479  1.0041 -0.8729 -0.4430
 6150SOL     OW20891   5.909   6.796   6.682 -0.2273  0.0719  0.4205
 6150SOL    HW120892   5.836   6.778   6.742  0.8913 -0.1963  1.7622
 6150SOL    HW220893   5.987   6.770   6.731  0.6907 -1.2205 -1.5915
 6151SOL     OW20894   6.098   8.706   3.504  0.3029  0.1122  0.8361
 6151SOL    HW120895   6.052   8.755   3.436 -0.1290 -1.3340  0.0622
 6151SOL    HW220896   6.189   8.704   3.474  0.5290  1.2381  1.3665
 6152SOL     OW20897   0.739   2.469   4.587 -0.0395  0.2935  0.6919
 6152SOL    HW120898   0.647   2.443   4.584  0.0631 -0.1920  1.3151
 6152SOL    HW220899   0.740   2.560   4.557 -0.6567  0.1541  0.2306
 6153SOL     OW20900   0.895   4.593   6.723  0.3555 -0.3070 -0.5632
 6153SOL    HW120901   0.933   4.636   6.800 -0.5706  0.7383 -0.6625
 6153SOL    HW220902   0.970   4.570   6.669  0.9051  1.1808 -0.4850
 6154SOL     OW20903   6.631   3.739   9.932 -0.3362 -0.7541  0.1358
 6154SOL    HW120904   6.614   3.807   9.997 -0.9292  0.9125 -1.6670
 6154SOL    HW220905   6.725   3.744   9.916 -0.4116 -0.1499 -0.1641
 6155SOL     OW20906   7.095   5.023   9.635 -0.0823 -0.2899  0.1445
 6155SOL    HW120907   7.072   5.082   9.564 -3.1267  0.9703  1.9480
 6155SOL    HW220908   7.161   5.070   9.685 -1.7144  1.2506  0.9670
 6156SOL     OW20909   9.560   3.672   0.366  0.4387  0.3807 -0.0090
 6156SOL    HW120910   9.594   3.676   0.277 -0.2301  0.0541 -0.2929
 6156SOL    HW220911   9.546   3.763   0.391  1.7405  0.5320  0.2116
 6157SOL     OW20912   6.088   9.907   5.171 -0.9309  0.4966 -0.1070
 6157SOL    HW120913   6.048   9.833   5.126 -0.2903  0.6372 -0.9223
 6157SOL    HW220914   6.039   9.914   5.254 -0.9617 -0.8530  0.0082
 6158SOL     OW20915   2.305   5.039   0.530  0.7631  0.3038  0.4775
 6158SOL    HW120916   2.254   5.100   0.583  0.3248  0.5752 -0.2369
 6158SOL    HW220917   2.333   5.091   0.454  0.4913 -0.3421 -0.0777
 6159SOL     OW20918   4.080  10.137   0.911 -0.3531  0.5578  0.3606
 6159SOL    HW120919   4.118  10.051   0.927 -0.4232  0.6721  1.2080
 6159SOL    HW220920   3.999  10.119   0.864  0.6330  0.3008 -1.3586
 6160SOL     OW20921   8.853   5.552  10.094  0.0351 -0.2298 -0.2747
 6160SOL    HW120922   8.896   5.559  10.009 -1.3158 -1.1950 -1.0785
 6160SOL    HW220923   8.864   5.638  10.135  1.6997 -0.1139 -0.9200
 6161SOL     OW20924   5.506   2.450   7.575 -0.4874  0.2770  0.1707
 6161SOL    HW120925   5.598   2.464   7.598 -0.5014  0.1824  0.2804
 6161SOL    HW220926   5.470   2.539   7.569 -0.4977  0.3004  0.5633
 6162SOL     OW20927   0.947   0.993   9.052 -0.0251  0.4023  0.2337
 6162SOL    HW120928   0.942   1.069   9.110 -0.7657 -0.1857  0.9549
 6162SOL    HW220929   0.858   0.960   9.048  0.2298 -0.2213 -0.3550
 6163SOL     OW20930   0.448   2.330   4.260 -0.1296 -0.2163 -0.6502
 6163SOL    HW120931   0.490   2.406   4.220 -1.7287  1.7737  1.1985
 6163SOL    HW220932   0.519   2.285   4.306  0.5872  1.1088 -0.4089
 6164SOL     OW20933   9.736   8.145   5.543 -0.9513  0.0683 -0.3379
 6164SOL    HW120934   9.701   8.075   5.489  0.6435 -1.3260  0.3319
 6164SOL    HW220935   9.831   8.133   5.538 -0.6997  1.2345  1.0368
 6165SOL     OW20936   2.962   2.655   1.345 -0.1330  0.3821 -0.2806
 6165SOL    HW120937   3.057   2.660   1.358 -0.3267 -0.9522  2.3528
 6165SOL    HW220938   2.925   2.708   1.415 -1.4047  1.6139 -1.7920
 6166SOL     OW20939   0.620   7.330   3.528  0.3521  0.0194 -0.5203
 6166SOL    HW120940   0.635   7.340   3.434  1.9984 -0.8532 -0.3834
 6166SOL    HW220941   0.642   7.415   3.565  1.2190 -0.0830 -0.7739
 6167SOL     OW20942   0.701   6.028   6.960 -0.3146  0.1451 -0.5541
 6167SOL    HW120943   0.651   5.996   6.885 -1.6269  0.5709  0.0976
 6167SOL    HW220944   0.769   6.083   6.922 -0.1179 -0.7215 -1.4937
 6168SOL     OW20945   6.663   2.578   3.241 -0.4844  0.0818  0.7795
 6168SOL    HW120946   6.699   2.647   3.185  0.0660 -0.4904  0.4038
 6168SOL    HW220947   6.613   2.624   3.308 -0.7204  0.8080  0.1151
 6169SOL     OW20948   4.459   8.163  10.406 -0.2280 -0.1635 -0.0974
 6169SOL    HW120949   4.411   8.135  10.329  1.2548 -0.1511 -1.0629
 6169SOL    HW220950   4.540   8.110  10.405 -0.6347 -0.9446  2.0408
 6170SOL     OW20951   5.060   4.446   1.760  0.3789 -0.1321  0.5190
 6170SOL    HW120952   5.057   4.356   1.791  0.0793 -0.1440  0.4569
 6170SOL    HW220953   5.122   4.490   1.818  0.5612 -0.3883  0.5189
 6171SOL     OW20954   5.008   3.260   2.233 -0.0866 -0.3886 -0.1947
 6171SOL    HW120955   5.095   3.224   2.215 -0.4707 -0.8601 -1.1760
 6171SOL    HW220956   4.956   3.184   2.261 -0.2061 -0.1259  0.2939
 6172SOL     OW20957   5.570   8.487   5.574  0.0886 -0.3060  0.2815
 6172SOL    HW120958   5.582   8.399   5.538 -0.9637 -0.2874 -0.1425
 6172SOL    HW220959   5.585   8.545   5.500  1.4625 -0.0779  0.7168
 6173SOL     OW20960   1.273   4.394   5.571  0.1291  0.5949 -0.2492
 6173SOL    HW120961   1.273   4.317   5.627 -2.3734 -0.0953 -1.1063
 6173SOL    HW220962   1.294   4.466   5.631 -2.6446 -0.0779  1.7266
 6174SOL     OW20963   2.618   0.269   9.991 -0.2937  0.3880  0.1356
 6174SOL    HW120964   2.698   0.247  10.037 -0.0879  1.3961  0.2863
 6174SOL    HW220965   2.563   0.313  10.058 -0.2894  1.1896 -0.3701
 6175SOL     OW20966   7.356   4.905   9.384  0.5823  0.3141 -0.0242
 6175SOL    HW120967   7.390   4.973   9.443 -0.7024 -0.6927  1.9796
 6175SOL    HW220968   7.428   4.842   9.376  1.0804  0.9005 -0.2841
 6176SOL     OW20969   2.576   3.903   2.528 -0.0817  0.0858  0.2695
 6176SOL    HW120970   2.484   3.878   2.521  0.1919 -0.8881 -0.1064
 6176SOL    HW220971   2.610   3.893   2.439  0.4551  0.1344  0.4684
 6177SOL     OW20972   9.829   0.343   9.372 -0.2423  0.0613  0.3728
 6177SOL    HW120973   9.849   0.433   9.346 -2.0684  0.2349 -0.6281
 6177SOL    HW220974   9.898   0.290   9.334  1.0151  1.0465  1.2061
 6178SOL     OW20975   7.017   8.491   5.787  0.0454 -0.4784  0.0597
 6178SOL    HW120976   7.033   8.552   5.716 -0.8918  0.6786  0.8048
 6178SOL    HW220977   6.945   8.530   5.837 -0.1755 -1.8884  0.9114
 6179SOL     OW20978   5.678   7.015   1.724  0.1646  0.2333 -0.5829
 6179SOL    HW120979   5.657   6.962   1.647 -0.3955 -0.7056  0.1953
 6179SOL    HW220980   5.637   6.969   1.797  2.0658  0.1759  0.5287
 6180SOL     OW20981   9.450   0.446   3.686  0.7225  0.6921  0.0775
 6180SOL    HW120982   9.403   0.523   3.653 -0.2553 -0.6660 -1.8599
 6180SOL    HW220983   9.524   0.436   3.627  0.7321  0.0276  0.1941
 6181SOL     OW20984   0.554   2.594   0.195  0.3198  0.2212 -0.1768
 6181SOL    HW120985   0.460   2.590   0.177  0.3890 -0.8181 -0.3576
 6181SOL    HW220986   0.560   2.614   0.288 -0.0911 -0.1132 -0.0754
 6182SOL     OW20987   4.684   7.283   3.992 -0.5441  0.2429  0.8284
 6182SOL    HW120988   4.718   7.363   3.953 -1.5941  0.3041 -0.0251
 6182SOL    HW220989   4.691   7.218   3.922  0.9720 -0.6272  1.7382
 6183SOL     OW20990   2.553   6.183   4.251  0.4698 -0.2520  0.2246
 6183SOL    HW120991   2.490   6.160   4.183  0.1291 -2.2552  1.1554
 6183SOL    HW220992   2.501   6.187   4.331  1.0818  0.8434  0.5893
 6184SOL     OW20993   4.252   1.431   8.953 -0.3514  0.2537 -0.3764
 6184SOL    HW120994   4.191   1.387   8.893 -1.3090  1.1310 -0.0878
 6184SOL    HW220995   4.326   1.455   8.899 -1.2959  1.2224 -1.2913
 6185SOL     OW20996   8.512   5.222   5.109 -0.4838  0.2586 -0.4157
 6185SOL    HW120997   8.445   5.169   5.067 -1.4362  1.0980  0.0061
 6185SOL    HW220998   8.548   5.166   5.178 -2.9271  0.7836  1.4193
 6186SOL     OW20999   6.309   8.881   6.923 -0.4920  0.2165 -0.9107
 6186SOL    HW121000   6.219   8.913   6.909 -1.0692 -0.6211  0.6867
 6186SOL    HW221001   6.314   8.864   7.017  1.5935  0.9055 -0.8505
 6187SOL     OW21002   1.386   9.344   0.488  0.2224  0.7963  0.0183
 6187SOL    HW121003   1.297   9.372   0.507  0.3946  1.5045 -0.1494
 6187SOL    HW221004   1.377   9.276   0.422 -0.2742 -0.3355  1.2235
 6188SOL     OW21005   4.248   5.425   3.822  0.2756  0.2821 -0.1299
 6188SOL    HW121006   4.294   5.487   3.765 -0.4262 -0.5353 -1.6387
 6188SOL    HW221007   4.276   5.339   3.790 -0.0513 -0.1998  0.8541
 6189SOL     OW21008   9.808   9.496   6.129  0.2034  0.0693 -0.5791
 6189SOL    HW121009   9.717   9.495   6.098 -1.4472  0.3794  3.6053
 6189SOL    HW221010   9.842   9.410   6.104 -1.2786 -0.1649 -1.9972
 6190SOL     OW21011   5.233   9.804   4.142  0.0311 -0.3148  0.0466
 6190SOL    HW121012   5.314   9.801   4.091 -1.0749  0.8146 -1.8930
 6190SOL    HW221013   5.223   9.896   4.166 -0.5854 -0.4739  0.4179
 6191SOL     OW21014  10.036   2.676   5.061 -0.7101 -0.3854  0.2961
 6191SOL    HW121015  10.007   2.760   5.025 -1.4765 -0.7869 -0.0533
 6191SOL    HW221016  10.058   2.623   4.985  0.2003 -0.3664  0.5318
 6192SOL     OW21017   6.865   7.647   5.126 -0.2975  0.2580  0.2360
 6192SOL    HW121018   6.864   7.581   5.195 -0.3935 -0.7056 -0.6622
 6192SOL    HW221019   6.943   7.627   5.075 -1.2939 -0.3248 -1.1188
 6193SOL     OW21020   0.457   1.178  10.037 -0.1216  0.1171 -0.5688
 6193SOL    HW121021   0.519   1.145  10.102 -0.0818  1.1397 -0.0708
 6193SOL    HW221022   0.406   1.244  10.083 -1.9516 -1.0602 -0.8344
 6194SOL     OW21023   3.583   1.607   3.211  0.0135 -0.0110  0.7405
 6194SOL    HW121024   3.533   1.689   3.215 -0.4245 -0.3216  2.3402
 6194SOL    HW221025   3.661   1.624   3.264  1.1636  0.1353 -0.9118
 6195SOL     OW21026   6.299   1.947   4.408 -0.3227  0.3235 -0.2120
 6195SOL    HW121027   6.330   1.875   4.354 -0.4377  0.7885 -0.9107
 6195SOL    HW221028   6.347   1.938   4.490  0.0389 -0.2429 -0.4811
 6196SOL     OW21029   7.748   3.394   3.046  0.6140  0.3483 -0.4959
 6196SOL    HW121030   7.691   3.404   2.970  0.9270  0.3906 -0.7286
 6196SOL    HW221031   7.743   3.479   3.090 -0.6777 -0.1230  0.3281
 6197SOL     OW21032   0.700   3.442   6.044 -0.8944 -0.0461  0.5583
 6197SOL    HW121033   0.615   3.423   6.084 -0.6717  0.8141  1.4913
 6197SOL    HW221034   0.763   3.430   6.116 -0.0356 -1.9797 -0.4204
 6198SOL     OW21035   2.810   4.273   5.964 -0.3869  0.0273 -0.1722
 6198SOL    HW121036   2.863   4.256   6.041 -0.4318  0.8470  0.0451
 6198SOL    HW221037   2.725   4.234   5.984 -0.2143 -0.2943 -0.0595
 6199SOL     OW21038   1.505   7.036   3.570  0.1761 -0.5103  0.3715
 6199SOL    HW121039   1.499   6.942   3.584  0.4443 -0.4599  0.8219
 6199SOL    HW221040   1.458   7.051   3.487 -1.2324 -0.8272  1.0819
 6200SOL     OW21041   3.549   2.566   1.287  0.2425 -0.1009 -0.3211
 6200SOL    HW121042   3.490   2.626   1.242  0.2813  1.1785  1.2371
 6200SOL    HW221043   3.630   2.569   1.236  0.1629  1.0062 -0.4050
 6201SOL     OW21044  10.302   0.994   0.701 -0.2153  0.0539 -0.2702
 6201SOL    HW121045  10.283   1.004   0.794 -1.3018  0.5639 -0.5287
 6201SOL    HW221046  10.392   1.025   0.691  0.4260 -1.3323  0.8303
 6202SOL     OW21047   9.712   2.791   1.334 -0.9373 -0.5653  1.0305
 6202SOL    HW121048   9.626   2.813   1.371 -0.6680  0.6757  0.9759
 6202SOL    HW221049   9.711   2.830   1.247 -0.1510 -0.1375  1.2070
 6203SOL     OW21050   4.765   1.509   0.612 -0.6530  0.2216  0.0323
 6203SOL    HW121051   4.758   1.422   0.572 -2.3527 -0.0539  0.8754
 6203SOL    HW221052   4.732   1.499   0.701 -0.3237  1.6177  0.3513
 6204SOL     OW21053   4.457   4.473   5.776 -0.2156  0.7765 -0.4917
 6204SOL    HW121054   4.480   4.552   5.727  1.6257  1.1736  0.9104
 6204SOL    HW221055   4.531   4.414   5.761 -0.9041 -0.1407 -0.3563
 6205SOL     OW21056   4.992  10.234   5.798  0.1256 -0.6086  0.2373
 6205SOL    HW121057   4.899  10.213   5.788 -0.1473  0.3812  0.5735
 6205SOL    HW221058   5.008  10.300   5.730  1.3934 -3.0435 -2.0094
 6206SOL     OW21059   2.661   6.976   4.344 -0.0878  0.0272 -0.1095
 6206SOL    HW121060   2.688   6.884   4.344  2.3200  0.6703 -0.2465
 6206SOL    HW221061   2.634   6.993   4.253  2.8769  0.2921 -1.0424
 6207SOL     OW21062   8.388   0.192   5.714  0.0281 -0.4288  0.5991
 6207SOL    HW121063   8.363   0.273   5.668 -2.6219 -0.9069  0.9977
 6207SOL    HW221064   8.479   0.176   5.688 -0.1964  1.2936 -1.5476
 6208SOL     OW21065   4.815   4.120   8.858  0.1302  0.3147  0.0307
 6208SOL    HW121066   4.757   4.120   8.934 -1.3262  0.9929 -1.0407
 6208SOL    HW221067   4.777   4.184   8.798  2.2312  1.0958 -0.5663
 6209SOL     OW21068   5.562   7.945   4.862 -0.3342 -0.5732  0.0888
 6209SOL    HW121069   5.632   7.942   4.927 -1.5204 -0.0385  1.4345
 6209SOL    HW221070   5.566   8.034   4.827  0.2570 -0.8385 -0.5340
 6210SOL     OW21071   8.329  10.248   7.498  0.1507 -0.6821  0.3217
 6210SOL    HW121072   8.364  10.273   7.583  0.6428 -1.0243  0.2274
 6210SOL    HW221073   8.404  10.254   7.439 -0.6313  1.6018 -0.5242
 6211SOL     OW21074   2.573   2.387   9.197 -0.3561 -0.0306 -0.1953
 6211SOL    HW121075   2.590   2.428   9.112  0.4131  0.3527  0.1371
 6211SOL    HW221076   2.570   2.459   9.259 -1.7994 -0.2134  0.0030
 6212SOL     OW21077  10.447   8.783   6.590 -0.9343 -0.0843  0.2440
 6212SOL    HW121078  10.393   8.736   6.526 -0.3754 -0.3016 -0.0675
 6212SOL    HW221079  10.432   8.737   6.672 -0.3663 -0.8309 -0.0659
 6213SOL     OW21080   0.416   5.105   6.033 -0.7416 -0.0484 -0.3295
 6213SOL    HW121081   0.500   5.137   6.064 -1.1564 -0.0348  0.8493
 6213SOL    HW221082   0.376   5.180   5.989 -0.3678  0.1089 -0.4010
 6214SOL     OW21083   5.581   6.301   6.993  0.1511  0.4403  0.0358
 6214SOL    HW121084   5.617   6.245   7.061 -0.5443 -0.6797 -0.4890
 6214SOL    HW221085   5.487   6.281   6.993 -0.5272  3.1714  1.2784
 6215SOL     OW21086   3.709   6.580   1.606  1.0845 -0.5231  0.1739
 6215SOL    HW121087   3.614   6.570   1.594  0.8427  0.1837  1.3337
 6215SOL    HW221088   3.742   6.490   1.612  0.8301 -0.8536 -2.3974
 6216SOL     OW21089   1.078   6.641   6.272  0.2904  0.7433 -0.1847
 6216SOL    HW121090   1.046   6.676   6.356  0.4095  0.1027  0.1374
 6216SOL    HW221091   1.096   6.718   6.219  2.1882  1.2687  1.1016
 6217SOL     OW21092   4.301   2.582   1.135 -0.4280  0.5212 -0.0546
 6217SOL    HW121093   4.334   2.576   1.225 -1.6273 -0.4735  0.3471
 6217SOL    HW221094   4.369   2.631   1.088  0.2486  1.0101  1.3688
 6218SOL     OW21095   8.853   4.641   4.904 -0.0628  0.6187 -0.4997
 6218SOL    HW121096   8.923   4.575   4.908  0.0653  0.6841 -1.5271
 6218SOL    HW221097   8.777   4.597   4.943  0.6986  0.7656  1.2285
 6219SOL     OW21098   6.708   9.385   2.239 -0.2643 -0.1595 -0.4961
 6219SOL    HW121099   6.613   9.380   2.253 -0.1689  1.3133  0.9655
 6219SOL    HW221100   6.746   9.339   2.314  0.1962 -0.3090 -0.8164
 6220SOL     OW21101   0.836   4.312   3.865 -0.1953 -0.2409 -0.5276
 6220SOL    HW121102   0.826   4.378   3.797 -2.5224  0.6907  0.6202
 6220SOL    HW221103   0.877   4.238   3.821  1.7752  1.6260 -2.0479
 6221SOL     OW21104   2.527   3.027   2.219  0.0217 -0.1184  0.3858
 6221SOL    HW121105   2.535   2.964   2.291  0.3245  0.2583  0.6890
 6221SOL    HW221106   2.457   3.087   2.247 -0.8683 -0.8123 -0.2867
 6222SOL     OW21107   1.274  10.131   5.302 -0.3084  0.6078 -0.1426
 6222SOL    HW121108   1.246  10.099   5.217 -1.2063 -0.9396  0.6928
 6222SOL    HW221109   1.300  10.222   5.286  1.3193 -0.1635 -2.4014
 6223SOL     OW21110   9.314   9.157   1.092 -0.4046  0.5099  0.1237
 6223SOL    HW121111   9.408   9.157   1.072 -0.2426  0.4128  0.8679
 6223SOL    HW221112   9.286   9.067   1.074  0.0754 -0.0045  1.8353
 6224SOL     OW21113   1.767   9.882   0.591 -0.3147  0.1437 -0.1519
 6224SOL    HW121114   1.842   9.916   0.641 -0.0403 -0.5428 -0.0892
 6224SOL    HW221115   1.758   9.791   0.620 -0.2084 -0.2408 -1.2759
 6225SOL     OW21116   7.198   9.079   7.520  0.2829 -0.4327 -1.1324
 6225SOL    HW121117   7.208   9.095   7.426  2.8865  1.1262 -0.6830
 6225SOL    HW221118   7.231   9.158   7.562 -0.6547 -1.1515  1.1374
 6226SOL     OW21119   1.021   0.672   2.415  0.1315  0.5870  0.1978
 6226SOL    HW121120   1.001   0.644   2.504  0.3179 -1.0015 -0.2323
 6226SOL    HW221121   1.055   0.594   2.372 -0.9956  1.0267 -1.5974
 6227SOL     OW21122   9.410   8.094   6.382 -0.5988  0.0677 -0.2859
 6227SOL    HW121123   9.398   8.021   6.321 -2.5909  0.9059 -1.0060
 6227SOL    HW221124   9.504   8.098   6.398 -0.4935 -3.3151  0.6437
 6228SOL     OW21125   8.003   9.425   6.120  0.9907  0.4040 -0.1630
 6228SOL    HW121126   8.050   9.372   6.056  0.1520  1.7156 -1.9733
 6228SOL    HW221127   7.921   9.378   6.135  0.5427  0.8045 -1.2395
 6229SOL     OW21128   0.512   2.336   2.003  0.3446 -0.3847 -0.0826
 6229SOL    HW121129   0.453   2.411   2.007  1.8063  0.8173 -0.1729
 6229SOL    HW221130   0.505   2.295   2.090 -1.2897 -0.8415 -0.4006
 6230SOL     OW21131   2.242   4.557   4.281  0.2425  0.1591  0.2216
 6230SOL    HW121132   2.229   4.500   4.356  0.5181 -0.7606 -0.4055
 6230SOL    HW221133   2.273   4.640   4.318 -0.8721  0.1594  1.2041
 6231SOL     OW21134   4.250   6.469   4.994 -0.5311 -0.3459  0.2271
 6231SOL    HW121135   4.223   6.559   5.013 -3.0802 -0.2490 -2.9601
 6231SOL    HW221136   4.203   6.417   5.060  0.8711  0.5270  2.0249
 6232SOL     OW21137   2.873   0.529   1.158  0.2858 -0.3280  0.2230
 6232SOL    HW121138   2.849   0.557   1.069 -1.7774  0.0306  0.8410
 6232SOL    HW221139   2.923   0.603   1.193  3.5360 -1.5238 -1.4700
 6233SOL     OW21140   1.243   1.078   5.529 -0.0436 -0.0281  0.3438
 6233SOL    HW121141   1.171   1.140   5.540 -0.6741 -0.8223  0.8439
 6233SOL    HW221142   1.264   1.081   5.436 -1.2788 -0.3684  0.0297
 6234SOL     OW21143   4.858   3.794   2.261  0.0392 -0.2169  0.5312
 6234SOL    HW121144   4.940   3.818   2.305  0.6277 -0.5765 -0.3484
 6234SOL    HW221145   4.870   3.703   2.234  0.1881  0.3255 -1.4044
 6235SOL     OW21146   2.234   3.269   3.788  0.1545  0.6554  0.2318
 6235SOL    HW121147   2.299   3.202   3.811  1.0815  1.4907  0.1409
 6235SOL    HW221148   2.150   3.229   3.809  0.5408 -1.1637 -1.3160
 6236SOL     OW21149   5.865   1.976   8.166 -0.4543  0.3080 -0.1885
 6236SOL    HW121150   5.802   1.922   8.212 -1.6912  1.4244 -0.4955
 6236SOL    HW221151   5.915   1.915   8.112 -1.5789 -0.5594 -0.2755
 6237SOL     OW21152   2.334   4.022   0.948  0.2099 -0.0608 -0.1486
 6237SOL    HW121153   2.282   4.037   1.027  0.1740 -0.8631 -0.0169
 6237SOL    HW221154   2.401   3.960   0.975 -0.9511 -1.8319 -1.2075
 6238SOL     OW21155   9.549   1.065   9.212 -0.1240 -0.0809  0.1014
 6238SOL    HW121156   9.477   1.003   9.204 -1.1659  1.2620 -1.7547
 6238SOL    HW221157   9.599   1.055   9.131  3.1102 -2.4022  2.1207
 6239SOL     OW21158   8.462   4.401   6.702 -0.2772 -0.1110  0.2288
 6239SOL    HW121159   8.413   4.396   6.784 -0.9755  1.6935 -0.0510
 6239SOL    HW221160   8.524   4.472   6.715 -0.5167  0.3153 -0.8750
 6240SOL     OW21161   2.823   0.625   7.410  0.2306  0.4379  0.0780
 6240SOL    HW121162   2.739   0.664   7.387  1.1553  1.1837 -2.4391
 6240SOL    HW221163   2.884   0.699   7.415  0.9038 -0.1490  1.1597
 6241SOL     OW21164   3.754   9.504   2.232  0.4589  0.8228 -0.2499
 6241SOL    HW121165   3.801   9.471   2.309  1.0566  1.1304 -0.4734
 6241SOL    HW221166   3.760   9.599   2.239 -0.8756  0.8921  0.1577
 6242SOL     OW21167   1.501   2.342  10.180  0.3673  0.5929 -0.2747
 6242SOL    HW121168   1.432   2.394  10.138 -0.1194  0.3299  0.1976
 6242SOL    HW221169   1.550   2.304  10.106  0.2211  1.0489 -0.6139
 6243SOL     OW21170   8.860   3.293   9.653  0.3773  0.1189  0.1020
 6243SOL    HW121171   8.839   3.386   9.652 -0.2887  0.0000  1.5402
 6243SOL    HW221172   8.896   3.276   9.566 -0.5816  1.4663 -0.5939
 6244SOL     OW21173   4.430   1.703   4.183 -0.3328 -0.0493 -0.1762
 6244SOL    HW121174   4.344   1.689   4.223 -0.5074 -1.1436 -0.8981
 6244SOL    HW221175   4.472   1.617   4.187  1.1306  0.6865  1.0476
 6245SOL     OW21176   6.594   1.429   6.410 -0.1320  0.1735  0.3938
 6245SOL    HW121177   6.515   1.427   6.356 -0.5771  0.2334  1.0259
 6245SOL    HW221178   6.619   1.337   6.420 -0.4265  0.1147  0.6176
 6246SOL     OW21179   2.410   2.216   2.181  0.5165 -0.0884  0.1981
 6246SOL    HW121180   2.466   2.279   2.138  0.0640  0.1282 -0.0795
 6246SOL    HW221181   2.429   2.226   2.275  1.1884 -0.2653  0.0841
 6247SOL     OW21182   1.938   5.048   3.892  0.1805 -0.3154  0.2714
 6247SOL    HW121183   1.971   5.017   3.976 -1.6443  2.0561  1.9936
 6247SOL    HW221184   1.850   5.012   3.886 -0.0218  0.2439 -0.1911
 6248SOL     OW21185   5.741   6.747   3.216  0.4234  0.1663 -0.0386
 6248SOL    HW121186   5.742   6.699   3.133 -0.0027  0.0948 -0.0088
 6248SOL    HW221187   5.740   6.839   3.191  0.6397  0.1500 -0.1067
 6249SOL     OW21188  10.336   7.563   9.760 -0.2054  0.2134 -0.7344
 6249SOL    HW121189  10.336   7.576   9.855  0.2498 -0.4521 -0.6305
 6249SOL    HW221190  10.343   7.468   9.750  2.3298  0.3937 -1.4310
 6250SOL     OW21191   9.494   6.391   8.636  0.1574 -0.8135 -0.5498
 6250SOL    HW121192   9.472   6.396   8.543  0.4049  1.8171 -0.5263
 6250SOL    HW221193   9.590   6.383   8.638  0.6077  2.8716 -0.6160
 6251SOL     OW21194   9.127   0.365   0.037 -0.1751  0.1222 -0.1819
 6251SOL    HW121195   9.176   0.331  -0.038  1.1991  0.4606  0.5209
 6251SOL    HW221196   9.170   0.325   0.113 -0.2109  1.3760  0.5254
 6252SOL     OW21197   0.104   1.843   5.315 -0.7857 -0.1734 -0.2287
 6252SOL    HW121198   0.184   1.813   5.359 -1.2206  0.7269  1.2384
 6252SOL    HW221199   0.134   1.915   5.259 -0.6627  0.7695  0.9992
 6253SOL     OW21200   7.378   1.885   7.706 -0.3814  0.3174  0.1178
 6253SOL    HW121201   7.326   1.846   7.776 -1.3854 -0.4832 -1.0387
 6253SOL    HW221202   7.335   1.969   7.688 -0.9533 -0.0836 -0.4397
 6254SOL     OW21203   4.333   7.842   5.535  0.0975  0.0916 -0.0482
 6254SOL    HW121204   4.341   7.761   5.586  2.8079  0.1016 -0.3197
 6254SOL    HW221205   4.377   7.822   5.453 -0.5815  1.3990 -0.7568
 6255SOL     OW21206   8.615   3.570   1.196  0.1691  1.0343  0.5502
 6255SOL    HW121207   8.554   3.549   1.124 -0.2492  1.6340  0.7223
 6255SOL    HW221208   8.559   3.602   1.266  0.7031  1.8245  0.6307
 6256SOL     OW21209  10.401   0.445  10.396  0.6408  0.6144 -0.4735
 6256SOL    HW121210  10.315   0.464  10.359 -0.1166 -1.1856  0.2202
 6256SOL    HW221211  10.449   0.404  10.324  0.5039  0.5683 -0.5398
 6257SOL     OW21212   3.692   1.007   8.642  0.0591 -0.3766  0.0564
 6257SOL    HW121213   3.644   1.013   8.725  0.1637 -0.5144  0.1279
 6257SOL    HW221214   3.635   0.956   8.586 -0.1236 -0.0730 -0.0380
 6258SOL     OW21215   5.479   7.729   1.114  0.3208 -0.4569  0.5377
 6258SOL    HW121216   5.469   7.700   1.023  1.9702 -1.5815  0.6514
 6258SOL    HW221217   5.529   7.658   1.155  0.8530  0.6995  1.9523
 6259SOL     OW21218   6.862   5.585   3.112  0.4389  0.3847 -0.1694
 6259SOL    HW121219   6.916   5.596   3.034  0.6358  2.5894  0.2099
 6259SOL    HW221220   6.924   5.566   3.183  0.2478 -1.7773 -0.5042
 6260SOL     OW21221   5.251   9.822   8.253  0.6168 -0.1820 -0.1160
 6260SOL    HW121222   5.179   9.881   8.273 -0.5964 -1.9783  1.0084
 6260SOL    HW221223   5.290   9.800   8.338  1.4483 -0.5224 -0.5658
 6261SOL     OW21224   9.976   8.922   7.906 -0.5536 -0.2758 -0.5642
 6261SOL    HW121225  10.002   8.973   7.829 -1.6358 -1.7610 -1.9712
 6261SOL    HW221226  10.056   8.876   7.932  0.4289  1.9597  0.6905
 6262SOL     OW21227   7.463  10.014   2.128 -0.7393  0.2549  0.1528
 6262SOL    HW121228   7.519  10.029   2.204 -0.2361 -2.8845  0.5190
 6262SOL    HW221229   7.521  10.026   2.053 -0.8068  1.6445  0.2968
 6263SOL     OW21230   2.461   4.510   3.775  0.4838 -0.3449  0.3684
 6263SOL    HW121231   2.555   4.494   3.761  0.2350 -0.3401 -1.6700
 6263SOL    HW221232   2.445   4.481   3.865  2.1367 -1.7798  0.2651
 6264SOL     OW21233   5.972   9.708   4.383 -0.0869  0.3392  0.0818
 6264SOL    HW121234   6.015   9.725   4.299  1.4941 -1.0831  0.5268
 6264SOL    HW221235   6.039   9.727   4.448 -0.8475  0.1083  0.9480
 6265SOL     OW21236   2.477   2.232   7.615 -0.1341  0.7735 -0.3666
 6265SOL    HW121237   2.423   2.308   7.638  0.0204  1.5720 -2.4395
 6265SOL    HW221238   2.418   2.157   7.622  0.0795  0.7350  3.2213
 6266SOL     OW21239   3.480   4.263   9.373  0.6228 -0.1406 -0.2345
 6266SOL    HW121240   3.499   4.179   9.331 -0.4209  0.6876 -2.5372
 6266SOL    HW221241   3.395   4.251   9.414  1.2004 -0.6589  0.8464
 6267SOL     OW21242   8.723   4.597   0.417  0.0345 -0.1611 -0.1259
 6267SOL    HW121243   8.638   4.556   0.404  0.6309 -1.4277 -0.2311
 6267SOL    HW221244   8.771   4.535   0.472  1.2135  0.0566 -0.8683
 6268SOL     OW21245   3.336   6.808   9.726 -0.2472  0.0300  0.0630
 6268SOL    HW121246   3.321   6.868   9.653  0.2463  1.0037  0.7383
 6268SOL    HW221247   3.263   6.747   9.722 -0.1885  0.0255 -1.2803
 6269SOL     OW21248   0.893   7.929   5.466 -0.0747 -0.3593  0.2294
 6269SOL    HW121249   0.899   8.003   5.527 -2.5469  1.4985 -1.6305
 6269SOL    HW221250   0.808   7.938   5.424  1.1687 -1.9487 -2.9983
 6270SOL     OW21251   5.558   3.544   9.475  0.2634  0.5639 -0.1935
 6270SOL    HW121252   5.590   3.471   9.527 -1.6202 -0.8503 -0.9029
 6270SOL    HW221253   5.588   3.525   9.386 -1.8878 -0.4664 -0.7543
 6271SOL     OW21254   4.094   1.817   0.479  0.2866  0.0995  0.0878
 6271SOL    HW121255   4.144   1.780   0.406 -1.6518 -2.2031 -0.1807
 6271SOL    HW221256   4.067   1.903   0.448  1.6666  0.2331 -0.8452
 6272SOL     OW21257   6.138   0.537   1.940  0.0575  0.2014  0.6626
 6272SOL    HW121258   6.189   0.466   1.900  0.7659  0.8641  0.3708
 6272SOL    HW221259   6.074   0.562   1.873  0.1583  0.2010  0.5672
 6273SOL     OW21260   7.946   8.262   1.001  0.6108  0.3376 -0.3324
 6273SOL    HW121261   7.932   8.351   1.032  2.0055  0.1619  0.9006
 6273SOL    HW221262   7.877   8.248   0.936 -2.7036  0.6602  2.7890
 6274SOL     OW21263   6.751   2.379   2.399 -0.6046  0.1553 -0.0759
 6274SOL    HW121264   6.720   2.289   2.398 -1.3388  0.3646  1.3485
 6274SOL    HW221265   6.801   2.388   2.317  0.4396 -1.8644  0.2678
 6275SOL     OW21266   1.799   6.699   5.494  0.2640 -0.1340 -0.8422
 6275SOL    HW121267   1.867   6.632   5.491 -1.6015 -2.2397  0.3615
 6275SOL    HW221268   1.723   6.654   5.532 -1.1822  2.6223 -0.1861
 6276SOL     OW21269   6.710   7.459   6.868 -0.3932 -0.0919 -0.1741
 6276SOL    HW121270   6.681   7.371   6.891 -0.0914 -0.0776  0.2622
 6276SOL    HW221271   6.790   7.445   6.817 -0.5582 -0.0845 -0.4368
 6277SOL     OW21272   1.078   6.470   7.501  0.0843  0.2671 -0.0755
 6277SOL    HW121273   1.055   6.524   7.577  0.1444 -0.2331  0.3085
 6277SOL    HW221274   1.052   6.522   7.426 -0.2850  0.6372  0.2989
 6278SOL     OW21275   0.858  10.234  10.170 -0.3264  0.8359 -0.2009
 6278SOL    HW121276   0.934  10.181  10.197 -1.0000  0.1057  0.3202
 6278SOL    HW221277   0.820  10.264  10.252 -0.8305  0.8664 -0.4434
 6279SOL     OW21278   7.664   6.806   8.103 -0.2638 -0.0141 -0.2001
 6279SOL    HW121279   7.574   6.796   8.136  0.1456  1.0925  1.4041
 6279SOL    HW221280   7.718   6.800   8.182  1.0035  0.2551 -1.0282
 6280SOL     OW21281   4.785   0.994  10.104 -0.7339  0.1157  0.1428
 6280SOL    HW121282   4.800   0.948  10.186 -2.4323  1.2472  1.1441
 6280SOL    HW221283   4.756   0.926  10.043 -2.0283 -0.3466  1.2475
 6281SOL     OW21284  10.467   2.331   5.175  0.2787 -0.1048 -0.0765
 6281SOL    HW121285  10.409   2.393   5.130  0.5289 -0.1573 -0.4734
 6281SOL    HW221286  10.429   2.322   5.262 -1.5740 -1.8130 -0.9918
 6282SOL     OW21287   6.745   9.965   9.320 -0.5235 -0.0123 -0.6172
 6282SOL    HW121288   6.711   9.924   9.399  2.6272 -1.9898 -0.0828
 6282SOL    HW221289   6.777  10.050   9.348 -1.6704  0.3492 -0.3649
 6283SOL     OW21290   1.730   2.325   2.460  0.3384 -0.7534  0.6538
 6283SOL    HW121291   1.718   2.243   2.509 -1.9010 -0.7241  0.2328
 6283SOL    HW221292   1.642   2.350   2.433  1.2262  0.6488 -1.1285
 6284SOL     OW21293   8.823   5.658   4.947 -0.1063 -0.4761 -0.3897
 6284SOL    HW121294   8.863   5.743   4.965  1.5230 -1.2516 -0.1360
 6284SOL    HW221295   8.768   5.673   4.871  0.4355  0.7380 -0.5665
 6285SOL     OW21296   4.563   8.906   4.144  0.4635  0.4882  0.3165
 6285SOL    HW121297   4.592   8.953   4.065 -1.0056 -0.0443 -0.5845
 6285SOL    HW221298   4.590   8.816   4.129 -0.9526  0.1272 -0.2104
 6286SOL     OW21299   7.321   0.165   4.787  0.8278  0.0601 -0.0659
 6286SOL    HW121300   7.339   0.258   4.775 -0.8970  0.2721 -1.3010
 6286SOL    HW221301   7.237   0.151   4.744  0.7176 -1.9402  0.7040
 6287SOL     OW21302   9.861   5.569   7.031  0.3093  0.1507 -0.1559
 6287SOL    HW121303   9.825   5.502   6.972 -0.9705  0.6133  0.0613
 6287SOL    HW221304   9.798   5.574   7.103  0.5987  1.2853  0.0357
 6288SOL     OW21305  10.025   9.389   2.403 -0.2333  0.4097 -0.6781
 6288SOL    HW121306   9.939   9.391   2.445  0.2937 -0.2464  0.4750
 6288SOL    HW221307  10.077   9.329   2.457  0.5746 -0.2080 -2.0901
 6289SOL     OW21308   1.949   6.342   4.947  0.1233  0.4585 -0.1977
 6289SOL    HW121309   1.907   6.264   4.984  0.1962 -0.0376 -1.1415
 6289SOL    HW221310   2.019   6.363   5.008 -0.6649  0.5307  0.7212
 6290SOL     OW21311   7.509   4.564   0.198 -0.2755 -0.0091 -0.7894
 6290SOL    HW121312   7.554   4.480   0.192  0.6391  0.5551 -2.2208
 6290SOL    HW221313   7.451   4.566   0.122  0.0623  0.8491 -1.0334
 6291SOL     OW21314   7.976   7.608   4.113  0.1065 -0.2668 -0.1584
 6291SOL    HW121315   7.963   7.559   4.032  0.2577 -0.3853 -0.1118
 6291SOL    HW221316   7.891   7.647   4.131 -0.4377 -1.7029  0.5797
 6292SOL     OW21317   4.797   1.423   6.755  0.1131 -0.0276 -0.4210
 6292SOL    HW121318   4.882   1.405   6.716  0.5389  2.1009 -0.6167
 6292SOL    HW221319   4.778   1.346   6.809  1.3148 -1.3120 -1.7522
 6293SOL     OW21320   9.201   5.435   8.210  0.2330 -0.2432 -0.3524
 6293SOL    HW121321   9.170   5.525   8.222  0.1612 -0.4445  1.1700
 6293SOL    HW221322   9.255   5.438   8.131  1.5321  1.4782  0.5378
 6294SOL     OW21323   6.498   4.981   9.475 -0.0591  0.0604 -0.1595
 6294SOL    HW121324   6.406   5.008   9.475 -0.2148 -0.4531 -0.9241
 6294SOL    HW221325   6.510   4.937   9.391  0.2761 -1.9172  0.8854
 6295SOL     OW21326   8.430   8.932   3.305 -0.5131 -0.3397 -0.1718
 6295SOL    HW121327   8.448   8.963   3.394  1.9906 -0.4918 -0.5560
 6295SOL    HW221328   8.400   9.010   3.259  2.3266  0.8214 -0.2263
 6296SOL     OW21329   8.279   5.595   4.887 -0.2783 -0.1162 -0.6502
 6296SOL    HW121330   8.325   5.522   4.847  1.3222  0.4049  0.1348
 6296SOL    HW221331   8.220   5.628   4.818 -0.4724 -1.6392 -1.2456
 6297SOL     OW21332   3.402   3.241   5.254 -0.1868 -0.4173  0.4626
 6297SOL    HW121333   3.489   3.274   5.233  0.0588 -0.8704  0.7503
 6297SOL    HW221334   3.377   3.290   5.333 -0.3883  0.0436  0.1160
 6298SOL     OW21335   3.443   8.408   3.556 -0.8515 -0.1398  0.2498
 6298SOL    HW121336   3.531   8.397   3.522 -0.7329 -1.0424  0.8068
 6298SOL    HW221337   3.418   8.321   3.586 -2.0264  0.0521 -0.1169
 6299SOL     OW21338   5.954   7.645  10.149 -0.3206 -0.5518  0.0149
 6299SOL    HW121339   5.886   7.681  10.092  0.1191  0.9756  0.4075
 6299SOL    HW221340   6.029   7.702  10.135 -0.4175  0.3613  2.6394
 6300SOL     OW21341   1.041   8.069   5.967  0.1063  0.2052  0.3906
 6300SOL    HW121342   1.087   8.118   5.898 -0.5112  0.9686  0.5113
 6300SOL    HW221343   1.111   8.022   6.013  1.0413  2.6194  1.6284
 6301SOL     OW21344   1.294   8.071   7.197  0.3254  0.0979  0.1020
 6301SOL    HW121345   1.212   8.024   7.182  0.1834  0.2618  0.3515
 6301SOL    HW221346   1.350   8.008   7.243  0.8008 -0.4431 -1.1686
 6302SOL     OW21347   3.013   1.283   9.418 -0.1422 -0.4469  0.3405
 6302SOL    HW121348   3.035   1.190   9.431  2.0029 -0.2781 -1.5025
 6302SOL    HW221349   2.944   1.282   9.351  0.3320 -0.7108 -0.1544
 6303SOL     OW21350   5.605   7.555   5.906  0.5254  0.2380 -0.0082
 6303SOL    HW121351   5.548   7.613   5.857 -0.6269 -2.0971 -1.6181
 6303SOL    HW221352   5.683   7.545   5.852 -0.1958 -1.3162 -0.8369
 6304SOL     OW21353   4.097   8.712   0.412 -0.2541  0.6356 -0.4794
 6304SOL    HW121354   4.087   8.765   0.333 -3.1792  2.5112  0.9729
 6304SOL    HW221355   4.153   8.640   0.385  1.7552  2.9965 -3.3176
 6305SOL     OW21356   9.843   9.516   7.409 -0.7640  0.3628  0.1611
 6305SOL    HW121357   9.828   9.550   7.320  0.0455  0.9369  0.2302
 6305SOL    HW221358   9.865   9.593   7.460 -0.7080 -0.0401  0.7522
 6306SOL     OW21359   7.027   2.665   9.336  0.4421 -0.4496 -0.2597
 6306SOL    HW121360   7.047   2.593   9.275  0.9495  0.1688 -0.8349
 6306SOL    HW221361   7.063   2.743   9.294 -1.1811  0.3541 -0.2512
 6307SOL     OW21362   3.072   7.210   4.998  0.8159 -0.2780  1.0004
 6307SOL    HW121363   2.994   7.161   4.970 -0.3081  0.5994  2.4680
 6307SOL    HW221364   3.045   7.254   5.079  1.7624  2.7212 -0.1772
 6308SOL     OW21365   7.321   5.001   3.799  0.3978  0.0446 -0.1352
 6308SOL    HW121366   7.334   4.906   3.807  1.1206  0.2961  3.5079
 6308SOL    HW221367   7.410   5.036   3.793  0.3955  0.5712  1.9675
 6309SOL     OW21368   8.358   0.255   9.535  0.1360  0.3612 -0.9362
 6309SOL    HW121369   8.404   0.171   9.530 -0.1838  0.1176  0.0231
 6309SOL    HW221370   8.281   0.244   9.479  1.3270  0.8592 -2.7684
 6310SOL     OW21371   4.528   6.226   1.364  0.3190 -0.2297  0.2947
 6310SOL    HW121372   4.587   6.199   1.293  0.5178  0.5814  0.1369
 6310SOL    HW221373   4.454   6.266   1.318 -0.1045 -0.7675  0.5110
 6311SOL     OW21374   5.633  10.029   8.340  0.4518 -0.2138 -0.4857
 6311SOL    HW121375   5.664   9.956   8.286  0.5726 -1.5822  1.3595
 6311SOL    HW221376   5.671  10.013   8.426 -1.6088  0.6326  0.6487
 6312SOL     OW21377   7.376   7.500   9.155  0.4465  0.7094 -0.0818
 6312SOL    HW121378   7.401   7.483   9.064  0.2093  0.7211 -0.1509
 6312SOL    HW221379   7.437   7.568   9.184  0.7173  0.4903 -0.1355
 6313SOL     OW21380   8.611  10.474   7.657 -0.3185 -0.3393 -0.0597
 6313SOL    HW121381   8.568  10.504   7.577 -0.1848 -1.2198 -0.4812
 6313SOL    HW221382   8.693  10.523   7.661 -1.3107  1.3093  0.7203
 6314SOL     OW21383   4.577   3.380   9.106  0.2681  0.3393  0.3005
 6314SOL    HW121384   4.595   3.421   9.021  0.7821 -0.4089  0.0290
 6314SOL    HW221385   4.518   3.308   9.085 -1.0754  1.2490  0.8453
 6315SOL     OW21386   3.540   6.009   7.230  0.0165 -0.0050  1.0720
 6315SOL    HW121387   3.602   5.948   7.187  1.4749  1.9900  0.1854
 6315SOL    HW221388   3.466   6.013   7.169 -0.2021 -1.0206  1.2437
 6316SOL     OW21389   7.509   4.405   5.025  0.0807 -0.2450  0.3402
 6316SOL    HW121390   7.554   4.433   5.104  0.6757  0.3585 -0.2016
 6316SOL    HW221391   7.461   4.483   4.996 -0.3049 -0.5221  0.2189
 6317SOL     OW21392   1.129   6.996   8.505 -0.3797 -0.1757 -0.0579
 6317SOL    HW121393   1.074   6.952   8.571  1.7401 -0.1632  1.8377
 6317SOL    HW221394   1.126   7.088   8.529 -0.2162 -0.0672 -0.4552
 6318SOL     OW21395   2.249   9.629   2.872  0.2455 -0.1878  0.4573
 6318SOL    HW121396   2.237   9.724   2.873 -2.5703 -0.4570  1.4174
 6318SOL    HW221397   2.262   9.608   2.779  2.7286  1.2281  0.4028
 6319SOL     OW21398   5.546   9.878   2.530 -0.0682 -0.3540  0.0516
 6319SOL    HW121399   5.529   9.969   2.554  0.8561  0.0178 -0.6347
 6319SOL    HW221400   5.459   9.837   2.528 -0.3717  0.1517  1.7207
 6320SOL     OW21401   6.131   7.515   1.294  0.0688  0.2903 -0.4048
 6320SOL    HW121402   6.123   7.608   1.313 -0.4251  0.4792 -1.4208
 6320SOL    HW221403   6.217   7.507   1.252 -0.8231  0.7183 -2.4370
 6321SOL     OW21404   1.971   7.367   1.873 -0.6633  0.8113 -0.0232
 6321SOL    HW121405   1.941   7.417   1.948 -1.2313  0.8586 -0.2769
 6321SOL    HW221406   1.972   7.276   1.904 -0.3276  0.8938  0.2158
 6322SOL     OW21407   0.628   2.960   6.094 -0.0759  0.3746  0.6683
 6322SOL    HW121408   0.579   2.884   6.063 -0.1134  0.5751  0.2369
 6322SOL    HW221409   0.585   2.985   6.176 -0.0397 -0.0883  0.8299
 6323SOL     OW21410   4.660   1.401   9.194 -0.0555 -0.0239  0.2553
 6323SOL    HW121411   4.589   1.416   9.256 -0.5568  0.5925 -0.4504
 6323SOL    HW221412   4.697   1.487   9.179  0.2334 -0.2090 -0.1052
 6324SOL     OW21413   8.628   9.510   3.082  0.2800  0.6210 -0.1419
 6324SOL    HW121414   8.608   9.553   3.165  2.0488  2.0507 -0.3939
 6324SOL    HW221415   8.699   9.450   3.103 -0.8101 -0.7509 -0.2115
 6325SOL     OW21416   3.706   2.051  10.408  0.8381 -0.1514  0.4308
 6325SOL    HW121417   3.653   2.066  10.485  1.0611 -1.1301  0.7885
 6325SOL    HW221418   3.695   1.957  10.389  0.0635  0.2391 -1.2603
 6326SOL     OW21419   6.087   9.202   1.781  0.2798  1.2130  0.7600
 6326SOL    HW121420   6.091   9.278   1.723  2.4398  0.3406 -0.3743
 6326SOL    HW221421   6.061   9.130   1.723  0.2982  0.7237  1.3564
 6327SOL     OW21422   5.765   3.800   5.500  0.2680 -0.1733 -0.0847
 6327SOL    HW121423   5.790   3.877   5.551 -0.4503 -1.0085  1.5999
 6327SOL    HW221424   5.777   3.727   5.560 -2.9270 -0.9757 -0.2326
 6328SOL     OW21425   2.033   1.534   5.843 -0.3697  0.5452  0.5759
 6328SOL    HW121426   2.033   1.439   5.845 -0.3558  0.5323  0.0609
 6328SOL    HW221427   2.013   1.560   5.933 -0.7420  0.0571  0.6358
 6329SOL     OW21428   6.981   2.479   1.544 -0.0700 -0.0049  0.8881
 6329SOL    HW121429   6.947   2.568   1.534 -2.4213 -0.7451  1.6078
 6329SOL    HW221430   7.045   2.486   1.614 -0.3036  1.0936  1.0169
 6330SOL     OW21431   3.475   5.734  10.003 -0.2707 -0.1847 -0.0856
 6330SOL    HW121432   3.537   5.754  10.073  0.1789 -0.8369 -0.2938
 6330SOL    HW221433   3.389   5.747  10.044 -0.0452  2.3987 -0.2828
 6331SOL     OW21434   6.380   9.996   7.289 -0.5059  0.0373  0.3422
 6331SOL    HW121435   6.286  10.010   7.287 -0.3987  0.8918 -1.4789
 6331SOL    HW221436   6.392   9.905   7.262 -0.8004  0.0126  0.2988
 6332SOL     OW21437   6.716   4.889   2.958  0.5515 -0.4010  0.0471
 6332SOL    HW121438   6.748   4.856   3.042  1.5102  1.2981  0.3865
 6332SOL    HW221439   6.758   4.975   2.948 -1.0108  0.2607 -1.2784
 6333SOL     OW21440   7.978   2.335   2.694  0.0394  0.6134  0.1558
 6333SOL    HW121441   7.890   2.372   2.702  0.1420  0.9028 -0.0523
 6333SOL    HW221442   8.023   2.393   2.633  0.2697  0.2680 -0.0018
 6334SOL     OW21443   7.463   8.272   2.616 -0.0426  0.0512 -0.0860
 6334SOL    HW121444   7.475   8.344   2.678  1.2918  1.5185 -1.9272
 6334SOL    HW221445   7.377   8.236   2.637 -0.3824  1.6239  1.4653
 6335SOL     OW21446   1.171   7.138   1.406  0.5870 -0.1511  0.0430
 6335SOL    HW121447   1.123   7.212   1.370  1.4254 -0.2416 -1.3279
 6335SOL    HW221448   1.108   7.094   1.464 -0.5644  0.4358 -0.7354
 6336SOL     OW21449   8.255   8.957   8.960 -0.4969  0.1508  0.1856
 6336SOL    HW121450   8.160   8.950   8.973 -0.7196  0.6844 -1.0078
 6336SOL    HW221451   8.288   8.871   8.985 -1.2340  0.1158  1.0884
 6337SOL     OW21452   9.766   9.984   3.164  0.2980 -0.2657  0.7057
 6337SOL    HW121453   9.814  10.052   3.117  1.8701  0.1516  2.7249
 6337SOL    HW221454   9.678  10.020   3.176  0.5327  0.5556  0.0159
 6338SOL     OW21455   9.852   9.664   7.183 -0.2860 -0.3764 -0.2192
 6338SOL    HW121456   9.944   9.644   7.167 -0.0879  0.3554 -0.0248
 6338SOL    HW221457   9.814   9.672   7.096  0.3593  1.6462 -0.3610
 6339SOL     OW21458   5.778   6.225   1.359 -0.3063  0.5685  0.5008
 6339SOL    HW121459   5.684   6.222   1.340 -0.2956 -0.1151  0.5338
 6339SOL    HW221460   5.813   6.286   1.294 -1.0437  2.3199  1.6970
 6340SOL     OW21461   8.836   2.752   1.820 -0.2459  0.3090  0.4278
 6340SOL    HW121462   8.799   2.673   1.780  0.0286 -0.2211  1.1962
 6340SOL    HW221463   8.796   2.824   1.772 -2.5738 -0.2187  1.4398
 6341SOL     OW21464   2.348   8.483   3.912 -0.1384 -0.2981 -0.6019
 6341SOL    HW121465   2.396   8.403   3.936  0.2780  0.3741  0.9447
 6341SOL    HW221466   2.412   8.538   3.867  0.3736  0.2775  0.7779
 6342SOL     OW21467   1.358   3.730   5.329 -0.4681  0.3844 -0.0196
 6342SOL    HW121468   1.388   3.821   5.335 -0.2505  0.3501 -0.5848
 6342SOL    HW221469   1.325   3.711   5.417  0.5632  0.6325  0.4350
 6343SOL     OW21470   8.441  10.087   7.909  0.7647  0.7542  0.8190
 6343SOL    HW121471   8.493  10.009   7.926  0.4566  0.5648  0.8944
 6343SOL    HW221472   8.378  10.090   7.981  0.4889  0.8265  0.5768
 6344SOL     OW21473   2.643   5.543   5.136 -0.0732  0.1510  0.6022
 6344SOL    HW121474   2.703   5.609   5.170 -0.3387  1.5656 -1.4947
 6344SOL    HW221475   2.687   5.508   5.059 -0.6016 -1.0693  0.8272
 6345SOL     OW21476   5.736   3.682  10.182  0.3638 -0.3619  0.2187
 6345SOL    HW121477   5.719   3.694  10.089  2.0122  0.4678 -0.0104
 6345SOL    HW221478   5.655   3.644  10.217 -1.1275  1.4118 -1.1149
 6346SOL     OW21479   7.059   1.794   8.116 -0.0171 -0.5686  0.1120
 6346SOL    HW121480   6.982   1.747   8.083 -0.8525  0.2057  0.9224
 6346SOL    HW221481   7.115   1.805   8.038 -0.9945 -0.6040 -0.6169
 6347SOL     OW21482   2.668  10.067   7.197  0.3933 -0.0040  0.0823
 6347SOL    HW121483   2.722  10.009   7.144  2.1632  0.5360  1.2009
 6347SOL    HW221484   2.597  10.011   7.229  0.6528 -0.9160 -0.8900
 6348SOL     OW21485   7.171   3.077   1.032 -0.3313 -0.1390 -0.2214
 6348SOL    HW121486   7.183   2.982   1.038  0.3680 -0.2346 -2.1661
 6348SOL    HW221487   7.237   3.114   1.091  0.4268 -0.8596 -0.6008
 6349SOL     OW21488  10.355  10.000   1.220 -0.0269  0.2697 -0.4008
 6349SOL    HW121489  10.400  10.050   1.288 -0.7958 -1.1399  1.2386
 6349SOL    HW221490  10.264  10.031   1.223 -0.2750 -0.4610 -0.0947
 6350SOL     OW21491   0.712   6.641   6.697  0.7585  0.2613 -0.2110
 6350SOL    HW121492   0.669   6.720   6.731 -1.1352 -0.7773 -0.0338
 6350SOL    HW221493   0.654   6.611   6.627  0.9115 -1.4681  0.3539
 6351SOL     OW21494   8.674   2.015   5.526 -0.2851  0.6941 -0.7624
 6351SOL    HW121495   8.731   2.000   5.451  0.2423 -0.7257 -0.1087
 6351SOL    HW221496   8.726   2.071   5.584  0.2072 -0.0717 -0.4533
 6352SOL     OW21497   0.931   9.447   1.310 -0.5214  0.4794 -0.6986
 6352SOL    HW121498   1.012   9.401   1.287  1.3868  3.0922  0.3823
 6352SOL    HW221499   0.924   9.517   1.245 -0.4568  1.8624  0.7421
 6353SOL     OW21500   9.449   8.806   9.862 -0.3927  0.4951 -0.4435
 6353SOL    HW121501   9.423   8.888   9.905 -0.4593 -0.0180  0.5358
 6353SOL    HW221502   9.387   8.797   9.790 -0.6864  1.0653 -0.2740
 6354SOL     OW21503   1.739   2.664   2.490 -0.1661 -0.0541  0.1291
 6354SOL    HW121504   1.769   2.754   2.501  0.0807  0.0273 -1.0682
 6354SOL    HW221505   1.798   2.626   2.425 -1.6716 -0.3674 -1.1327
 6355SOL     OW21506   0.030   3.580   8.599 -0.4738  0.2160  0.2106
 6355SOL    HW121507   0.121   3.602   8.616 -0.3990  0.4468 -0.4424
 6355SOL    HW221508   0.009   3.511   8.662 -0.0181  0.5454  0.7280
 6356SOL     OW21509   1.555   5.074   4.878  0.3680 -0.3342 -0.6496
 6356SOL    HW121510   1.477   5.063   4.823 -0.0635 -1.7381  0.1846
 6356SOL    HW221511   1.590   4.985   4.887  2.6038  0.3791 -1.7411
 6357SOL     OW21512   2.488   5.095   3.408  0.0214 -0.8831  0.1643
 6357SOL    HW121513   2.579   5.076   3.428 -0.1171  0.9649  3.0889
 6357SOL    HW221514   2.446   5.008   3.403  1.5688 -1.7090  0.8198
 6358SOL     OW21515   4.227   6.101   9.127  0.1034  0.2333  0.0465
 6358SOL    HW121516   4.220   6.009   9.103  1.7158  0.0578  0.1926
 6358SOL    HW221517   4.136   6.128   9.140 -0.3436 -1.6639  1.2780
 6359SOL     OW21518   5.332   8.686   8.707 -0.0615  0.1669  0.4078
 6359SOL    HW121519   5.284   8.685   8.624  0.3846 -0.9174  0.1441
 6359SOL    HW221520   5.280   8.742   8.765 -1.5202 -0.8010  0.0657
 6360SOL     OW21521   1.225   5.025   4.453 -0.6194 -0.5707 -0.4308
 6360SOL    HW121522   1.201   5.033   4.361  0.3451  1.0661 -0.5801
 6360SOL    HW221523   1.199   4.936   4.477  0.4966 -1.6081 -2.7002
 6361SOL     OW21524   0.354   8.395   5.309  0.3628  0.4418 -0.0818
 6361SOL    HW121525   0.300   8.466   5.342  0.1186  0.8229 -1.2370
 6361SOL    HW221526   0.429   8.392   5.369 -1.3863 -0.8073  2.1965
 6362SOL     OW21527   2.960   3.843   9.580  0.4677  0.2401  0.0825
 6362SOL    HW121528   2.888   3.788   9.612  0.9070 -0.7097 -0.5440
 6362SOL    HW221529   2.917   3.906   9.522  0.1860 -0.6226 -0.6633
 6363SOL     OW21530   8.653   2.592   3.561 -0.5156 -0.2304  0.0413
 6363SOL    HW121531   8.584   2.656   3.579  1.3458  1.6597  0.9253
 6363SOL    HW221532   8.704   2.631   3.490  1.0018 -0.3997  0.9823
 6364SOL     OW21533   5.578   3.112   4.049 -0.2928  0.3266 -0.2350
 6364SOL    HW121534   5.557   3.018   4.043 -0.5652  0.4135 -0.7739
 6364SOL    HW221535   5.599   3.136   3.958  0.1334  0.7061 -0.0359
 6365SOL     OW21536   5.255   9.434   8.670 -0.2482  0.6177 -0.0090
 6365SOL    HW121537   5.293   9.500   8.727 -0.2450  0.0500  0.6716
 6365SOL    HW221538   5.299   9.445   8.586  1.6773 -0.2147  0.8205
 6366SOL     OW21539   2.132   2.264   2.123 -0.6222 -0.3263 -0.2147
 6366SOL    HW121540   2.119   2.301   2.210  1.7954  2.5875 -0.9310
 6366SOL    HW221541   2.224   2.240   2.120 -0.3086  0.8509 -2.3207
 6367SOL     OW21542   2.372   6.722   6.228 -1.2892 -0.0636  0.0597
 6367SOL    HW121543   2.340   6.812   6.223 -0.7685  0.1439  0.4399
 6367SOL    HW221544   2.405   6.703   6.140 -0.1196  0.6043  0.3337
 6368SOL     OW21545   8.368   9.921   6.563  0.1716 -0.2452 -0.0284
 6368SOL    HW121546   8.303   9.894   6.498  1.2036  1.2390 -1.7702
 6368SOL    HW221547   8.447   9.871   6.540  0.2107 -0.5958  0.8484
 6369SOL     OW21548   5.699   4.465   6.879 -0.5098 -0.0865  0.6112
 6369SOL    HW121549   5.733   4.380   6.906 -2.7302 -0.7382  1.5851
 6369SOL    HW221550   5.674   4.453   6.787 -0.0586 -0.2375  0.5096
 6370SOL     OW21551   4.673   9.386   2.521  0.2934 -0.4778  0.0333
 6370SOL    HW121552   4.624   9.413   2.443  0.1573  0.5744  0.4688
 6370SOL    HW221553   4.672   9.290   2.518 -0.7845 -0.4586 -0.5791
 6371SOL     OW21554   4.624   9.100   2.360 -0.4086 -0.2282  0.0499
 6371SOL    HW121555   4.560   9.099   2.288 -0.0758  0.6258 -0.2679
 6371SOL    HW221556   4.576   9.064   2.434 -0.7738 -1.0722 -0.5826
 6372SOL     OW21557   5.574   0.357   6.052 -0.7412  0.3554  0.2512
 6372SOL    HW121558   5.548   0.338   6.142 -0.1732 -1.2789  0.0934
 6372SOL    HW221559   5.636   0.430   6.061 -1.4185  0.8552  1.0761
 6373SOL     OW21560   2.962   9.426   3.715 -0.1470  0.8194 -0.0638
 6373SOL    HW121561   3.035   9.468   3.760  0.8758  0.5594 -1.4231
 6373SOL    HW221562   2.947   9.346   3.764  0.4062  0.9321  0.3030
 6374SOL     OW21563   0.653   2.177   0.304 -0.2900  0.4105  0.2584
 6374SOL    HW121564   0.635   2.166   0.211 -0.1752 -0.1972  0.3014
 6374SOL    HW221565   0.576   2.140   0.348 -0.0193  0.0247  0.4127
 6375SOL     OW21566   9.605   7.381   1.010  0.5825  0.4650  0.3195
 6375SOL    HW121567   9.552   7.336   0.944  0.2045 -0.0627  0.9713
 6375SOL    HW221568   9.627   7.465   0.970 -1.4082  1.0344  0.3217
 6376SOL     OW21569   9.758   2.874   1.589  0.4892  0.1194  0.5719
 6376SOL    HW121570   9.839   2.844   1.630 -0.2673 -1.9653  0.6628
 6376SOL    HW221571   9.767   2.850   1.497  0.3448  0.7521  0.3864
 6377SOL     OW21572   2.132   6.771   7.039 -0.1452  0.4055  0.0146
 6377SOL    HW121573   2.054   6.824   7.018  0.8617  1.1676 -2.0375
 6377SOL    HW221574   2.097   6.683   7.056 -1.4711  0.7661 -0.6883
 6378SOL     OW21575   0.552   7.085   6.443  0.5054  0.2619  0.0927
 6378SOL    HW121576   0.460   7.069   6.421  0.0168 -0.9336  2.6530
 6378SOL    HW221577   0.548   7.137   6.523  1.9736 -2.2217  1.8931
 6379SOL     OW21578   1.987  10.329   3.694  0.2089  0.0737 -0.1182
 6379SOL    HW121579   1.971  10.305   3.602  1.0929 -1.7885  0.1763
 6379SOL    HW221580   1.910  10.297   3.740  0.3361 -0.1151 -0.0381
 6380SOL     OW21581   5.061   9.046   9.276  0.3075  0.0900  0.0943
 6380SOL    HW121582   5.039   8.952   9.279 -0.1518  0.2005  0.2378
 6380SOL    HW221583   5.039   9.072   9.186  2.0922 -0.3301 -0.5037
 6381SOL     OW21584   4.188   5.897   0.822 -0.5870  0.8629 -0.0718
 6381SOL    HW121585   4.157   5.840   0.892 -1.0492  1.0050 -0.1565
 6381SOL    HW221586   4.269   5.857   0.792 -0.9906  0.1611 -0.2446
 6382SOL     OW21587   6.324   4.637  10.152  0.0217 -0.0211 -0.4415
 6382SOL    HW121588   6.410   4.637  10.109  0.4160 -0.2184  0.3350
 6382SOL    HW221589   6.344   4.641  10.245 -0.8251  0.2965 -0.2666
 6383SOL     OW21590   7.880   6.403   3.116 -0.2222  0.1852  0.4080
 6383SOL    HW121591   7.969   6.427   3.089 -1.1581  0.9202 -2.3410
 6383SOL    HW221592   7.857   6.469   3.182  0.3655  1.6579 -0.7824
 6384SOL     OW21593   9.529   4.604   6.468  0.2899 -0.0061  0.6619
 6384SOL    HW121594   9.509   4.695   6.490 -0.3571 -0.3215  1.4109
 6384SOL    HW221595   9.448   4.557   6.484  1.0944 -1.0125  1.9479
 6385SOL     OW21596   4.885   2.205   8.773  0.1661  0.1727  0.5274
 6385SOL    HW121597   4.835   2.150   8.713  2.0346  0.0308 -1.0063
 6385SOL    HW221598   4.903   2.149   8.848 -1.4878  0.0868  0.9106
 6386SOL     OW21599   9.258   6.970   8.381  0.0626 -0.6192  0.0956
 6386SOL    HW121600   9.265   7.019   8.462 -0.1656 -0.5667  0.0853
 6386SOL    HW221601   9.304   6.888   8.398 -1.3293 -1.2816  0.8155
 6387SOL     OW21602   7.384   4.256   2.370  0.5214  0.5941 -0.0483
 6387SOL    HW121603   7.386   4.350   2.353 -1.1496  1.4645  3.6845
 6387SOL    HW221604   7.291   4.233   2.370  0.7364 -0.4674  1.6618
 6388SOL     OW21605   7.562   5.652   3.753  0.2310 -0.6639 -0.3658
 6388SOL    HW121606   7.508   5.707   3.696  0.9926 -0.9475 -1.3880
 6388SOL    HW221607   7.643   5.640   3.705  1.3610  0.0084  1.2798
 6389SOL     OW21608   0.167   1.777   4.439 -0.0636  0.1087  0.7057
 6389SOL    HW121609   0.222   1.854   4.455  1.0366 -0.2956 -0.8827
 6389SOL    HW221610   0.130   1.791   4.352  1.4173 -1.8302 -0.3039
 6390SOL     OW21611   4.274   1.044   0.054 -0.1957  0.4775  0.6064
 6390SOL    HW121612   4.239   0.970   0.003  0.5100  1.2675 -1.0900
 6390SOL    HW221613   4.333   1.003   0.117  2.1362 -0.3514 -1.9041
 6391SOL     OW21614   7.257   7.208   1.612  0.6911 -0.0382 -0.3259
 6391SOL    HW121615   7.261   7.135   1.550  0.0326  0.4833 -0.9960
 6391SOL    HW221616   7.349   7.230   1.628  0.8718 -0.0614 -1.2601
 6392SOL     OW21617   4.123   8.111   3.890 -0.1619 -0.4081  0.5629
 6392SOL    HW121618   4.040   8.118   3.844 -0.5946 -0.6365  1.3024
 6392SOL    HW221619   4.147   8.019   3.880  0.8253 -0.0265 -1.0340
 6393SOL     OW21620   0.210   4.536   0.704 -0.0314 -0.4105  0.4434
 6393SOL    HW121621   0.276   4.557   0.639 -0.6950 -0.9969 -0.4421
 6393SOL    HW221622   0.152   4.473   0.661 -0.5737 -0.6990  1.5454
 6394SOL     OW21623   8.529  10.385   6.620  0.4444  0.0231 -0.5472
 6394SOL    HW121624   8.500  10.319   6.557 -0.2039  0.0174 -0.2496
 6394SOL    HW221625   8.451  10.439   6.637  0.2971 -0.6300  1.0438
 6395SOL     OW21626   0.763   4.309   1.975  0.2014 -0.6533 -0.7718
 6395SOL    HW121627   0.766   4.257   1.894 -0.2619  0.8133 -1.7663
 6395SOL    HW221628   0.848   4.294   2.015 -0.0928 -2.5630 -0.7539
 6396SOL     OW21629   1.784   3.132   8.286  0.4245 -0.3382  0.2895
 6396SOL    HW121630   1.775   3.085   8.369  0.5900 -1.2409 -0.1880
 6396SOL    HW221631   1.700   3.117   8.242  0.5906 -0.4308  0.0079
 6397SOL     OW21632   4.698   7.049   0.740  0.1534 -0.0228 -0.0656
 6397SOL    HW121633   4.650   6.966   0.740 -1.6008  0.9291  0.8407
 6397SOL    HW221634   4.755   7.044   0.817  0.6031 -0.6780 -0.4370
 6398SOL     OW21635   4.240   2.206   4.910 -0.2695  0.1041 -0.2656
 6398SOL    HW121636   4.219   2.254   4.990  0.5288  0.0720 -0.0255
 6398SOL    HW221637   4.225   2.114   4.932  0.0376  0.0871 -0.1161
 6399SOL     OW21638   7.826   2.723   0.770 -0.0989 -0.0259 -0.2555
 6399SOL    HW121639   7.757   2.785   0.746 -0.1288  0.2199  0.4455
 6399SOL    HW221640   7.799   2.640   0.731 -2.6954 -0.8814  2.9348
 6400SOL     OW21641   1.217   1.636   9.214 -0.0520  0.7285  0.1219
 6400SOL    HW121642   1.308   1.614   9.195  0.9232  0.1703  4.4958
 6400SOL    HW221643   1.177   1.553   9.240 -1.5381  1.1821 -0.5493
 6401SOL     OW21644   1.817   2.792   9.837  0.3544 -0.1401  0.1830
 6401SOL    HW121645   1.842   2.876   9.875  1.0335 -0.6772  0.9621
 6401SOL    HW221646   1.873   2.783   9.759  0.6244 -0.0878  0.3701
 6402SOL     OW21647   6.049   4.287   5.700  0.0223  0.1919 -0.3244
 6402SOL    HW121648   5.971   4.343   5.692  0.4599  0.6846 -1.5083
 6402SOL    HW221649   6.045   4.231   5.622 -0.0562 -0.9951  0.5117
 6403SOL     OW21650   2.421   9.353   7.240 -0.0266  0.2099  0.3823
 6403SOL    HW121651   2.510   9.319   7.231 -0.7828 -1.4542 -1.4133
 6403SOL    HW221652   2.404   9.400   7.159 -0.6404  0.9136  0.9023
 6404SOL     OW21653   9.426   5.540   1.343  0.0378 -0.1357  0.0838
 6404SOL    HW121654   9.469   5.477   1.284  0.1600  0.0021  0.0247
 6404SOL    HW221655   9.394   5.486   1.415  0.7973 -0.1742  0.4049
 6405SOL     OW21656   9.640   2.374  10.319  0.3265  0.2954 -0.1631
 6405SOL    HW121657   9.568   2.331  10.274  1.4740 -1.5363 -0.3265
 6405SOL    HW221658   9.614   2.374  10.411  0.3892 -0.9872 -0.1297
 6406SOL     OW21659   4.269   6.187   5.890  0.1602  0.1741  0.4063
 6406SOL    HW121660   4.179   6.166   5.866 -0.1473  0.6169  1.1508
 6406SOL    HW221661   4.298   6.113   5.943  0.6620 -0.5529 -0.8383
 6407SOL     OW21662   4.880  10.118   0.079 -0.0113 -0.3043 -0.9153
 6407SOL    HW121663   4.812  10.065   0.121  2.2257 -2.5222  0.1498
 6407SOL    HW221664   4.880  10.200   0.129  0.6511 -1.7779  1.6482
 6408SOL     OW21665   4.526   4.405   7.320 -0.2545  0.3604 -0.0808
 6408SOL    HW121666   4.488   4.492   7.326 -1.0872 -0.0015 -0.0325
 6408SOL    HW221667   4.522   4.370   7.409 -2.0150 -0.5782 -0.4831
 6409SOL     OW21668   2.846   1.007   1.357 -0.1242 -0.0889 -0.3955
 6409SOL    HW121669   2.852   1.061   1.436 -0.3909 -0.2301 -0.2785
 6409SOL    HW221670   2.826   1.068   1.287 -1.3185 -0.1405 -0.1234
 6410SOL     OW21671   4.768   4.759   6.600 -0.7073 -0.6756  0.0555
 6410SOL    HW121672   4.690   4.815   6.594 -0.0514  0.2321 -0.2639
 6410SOL    HW221673   4.743   4.690   6.661 -1.4856  0.0841  0.6305
 6411SOL     OW21674   8.958   7.080   7.402 -0.2499 -0.3171 -0.0903
 6411SOL    HW121675   8.959   7.167   7.361  0.6166 -0.8169 -1.1683
 6411SOL    HW221676   8.873   7.076   7.446  0.4173  1.7870  1.5614
 6412SOL     OW21677   0.090   4.391   1.710 -0.2048  0.2495  0.4975
 6412SOL    HW121678   0.170   4.390   1.659  0.0317 -0.6738  0.8738
 6412SOL    HW221679   0.038   4.319   1.675 -0.1940 -0.1639  1.3018
 6413SOL     OW21680   9.437   8.521   4.731 -0.3324 -0.0270 -0.0116
 6413SOL    HW121681   9.501   8.543   4.663  0.8969 -0.4502  0.9640
 6413SOL    HW221682   9.451   8.587   4.799 -1.0067 -0.0721  0.1749
 6414SOL     OW21683   6.348  10.395   4.360  0.6589  0.0803  0.0810
 6414SOL    HW121684   6.379  10.407   4.450  0.3752 -0.3673  0.2395
 6414SOL    HW221685   6.423  10.419   4.306  0.8569  0.2797  0.4366
 6415SOL     OW21686   2.321   9.802   5.764 -0.3321  0.5980  0.2755
 6415SOL    HW121687   2.227   9.793   5.750 -0.4371  1.4978  0.3812
 6415SOL    HW221688   2.360   9.776   5.680 -0.7389  1.3785 -0.1667
 6416SOL     OW21689   6.105  10.332   1.085  0.3056  0.1726  0.2927
 6416SOL    HW121690   6.066  10.306   1.168 -1.1051 -1.0798 -0.6934
 6416SOL    HW221691   6.035  10.378   1.039  0.8963  0.3996 -0.3983
 6417SOL     OW21692  10.117   5.798   5.949  0.1499  0.0683  0.4502
 6417SOL    HW121693  10.040   5.815   6.004  0.4609  1.5580  0.4673
 6417SOL    HW221694  10.133   5.705   5.960 -1.8832 -0.3759  0.1548
 6418SOL     OW21695   8.042   3.845   9.641  0.0518  0.0555 -0.3732
 6418SOL    HW121696   8.019   3.898   9.565 -0.3490 -0.6002 -0.7146
 6418SOL    HW221697   7.964   3.791   9.657  1.1344 -1.8074 -1.2087
 6419SOL     OW21698   5.184   2.796   1.344  0.0548  0.2862  0.2775
 6419SOL    HW121699   5.277   2.814   1.354 -0.1005  0.7562  0.9148
 6419SOL    HW221700   5.174   2.705   1.374  0.5818 -0.4096 -1.4925
 6420SOL     OW21701   5.991   5.794   2.197  0.2544 -0.9154 -0.0592
 6420SOL    HW121702   5.905   5.757   2.175  0.1672 -0.5792 -0.2936
 6420SOL    HW221703   6.038   5.722   2.240  0.3945 -1.5578 -1.2491
 6421SOL     OW21704   9.855   7.717   5.716  0.0044  0.2748 -0.4336
 6421SOL    HW121705   9.819   7.795   5.674 -1.2460  1.2365  2.2369
 6421SOL    HW221706   9.947   7.717   5.691 -0.1890  2.0076 -1.3283
 6422SOL     OW21707   9.280   5.113   2.340  0.8888 -0.1329 -0.1542
 6422SOL    HW121708   9.223   5.189   2.353  0.4506 -0.6458  1.0858
 6422SOL    HW221709   9.335   5.137   2.266  0.5540  1.2739  0.0174
 6423SOL     OW21710   9.991   3.728   0.306 -0.0198  0.7813  0.2552
 6423SOL    HW121711   9.946   3.698   0.227  0.3089  1.4296 -0.1950
 6423SOL    HW221712   9.958   3.817   0.319  1.5507  1.5162 -0.4529
 6424SOL     OW21713   0.471   8.133   1.557  0.3957 -0.4287 -0.3635
 6424SOL    HW121714   0.408   8.073   1.598 -0.5595 -0.2781 -1.5327
 6424SOL    HW221715   0.516   8.174   1.630  1.0516 -2.5103  0.4962
 6425SOL     OW21716   9.116   8.141   2.968  0.1647 -0.3602  0.5747
 6425SOL    HW121717   9.132   8.048   2.977  1.8342 -0.2702 -0.7990
 6425SOL    HW221718   9.076   8.150   2.881 -0.8328  0.1229  1.0753
 6426SOL     OW21719   8.983   0.061   2.666 -0.0350 -0.6882 -0.7226
 6426SOL    HW121720   9.029   0.141   2.641  0.3382 -0.6956 -0.0806
 6426SOL    HW221721   8.938   0.083   2.747 -1.2421 -0.6599 -1.3730
 6427SOL     OW21722   1.321   2.015   1.344 -0.3663 -0.0125 -0.1274
 6427SOL    HW121723   1.394   2.010   1.284 -0.3124  0.4316 -0.0992
 6427SOL    HW221724   1.344   2.085   1.405 -0.0328 -1.0110  0.9312
 6428SOL     OW21725   4.632   5.442   0.049  0.1027 -0.0720 -0.2299
 6428SOL    HW121726   4.555   5.429  -0.006  0.7291  1.5767 -1.5903
 6428SOL    HW221727   4.603   5.505   0.116 -0.3734 -1.2967  0.7444
 6429SOL     OW21728   6.408   0.409   2.695 -0.2058 -0.0754 -0.0543
 6429SOL    HW121729   6.492   0.455   2.686  0.5242 -0.9408  1.6840
 6429SOL    HW221730   6.432   0.317   2.701 -1.4580 -0.5151 -1.2710
 6430SOL     OW21731   4.313   3.470   3.756 -0.1421  0.0025  0.2949
 6430SOL    HW121732   4.237   3.461   3.700  0.4627  1.3757 -0.7891
 6430SOL    HW221733   4.386   3.486   3.696  0.9255 -0.6983  1.3367
 6431SOL     OW21734  10.426   0.323   4.009  0.5816 -0.4076 -0.6997
 6431SOL    HW121735  10.365   0.396   4.002  1.2816  0.0940 -1.8317
 6431SOL    HW221736  10.402   0.280   4.091  0.8332  1.6897  0.5370
 6432SOL     OW21737   4.330   6.444   5.698 -0.2505 -0.8853  0.3509
 6432SOL    HW121738   4.402   6.479   5.645 -0.2253  0.9914  1.5522
 6432SOL    HW221739   4.258   6.434   5.636  0.0565  0.3713 -0.2360
 6433SOL     OW21740   5.449   5.741   7.282  0.5624 -0.2858  0.2803
 6433SOL    HW121741   5.415   5.803   7.218  1.0342 -0.6840 -0.3621
 6433SOL    HW221742   5.378   5.678   7.295  0.4623 -0.1978  0.1589
 6434SOL     OW21743   6.678   7.967   1.255 -0.2950 -0.1132 -0.6093
 6434SOL    HW121744   6.714   8.030   1.318 -2.8218  1.2007 -0.3089
 6434SOL    HW221745   6.736   7.972   1.179  1.5794 -0.1009  0.7595
 6435SOL     OW21746   4.507   4.789   7.010 -0.5512 -0.2375 -0.3685
 6435SOL    HW121747   4.588   4.835   7.029 -0.9505 -0.2304  1.4667
 6435SOL    HW221748   4.535   4.704   6.976  0.2249 -0.2150  0.1910
 6436SOL     OW21749   0.605   8.920   2.004 -0.8863  0.3079  0.2922
 6436SOL    HW121750   0.592   8.990   1.940  0.0517  1.0304  0.8637
 6436SOL    HW221751   0.533   8.859   1.987 -1.1991  0.9467 -0.8192
 6437SOL     OW21752   1.765   8.521   5.444  0.0175 -0.1711  0.1256
 6437SOL    HW121753   1.761   8.588   5.513 -0.0557 -2.1360  2.1512
 6437SOL    HW221754   1.705   8.554   5.376 -1.4398  0.9711  1.8501
 6438SOL     OW21755   0.465   8.617   2.467 -0.5108 -0.3537 -0.2579
 6438SOL    HW121756   0.419   8.677   2.408 -0.0719  0.5961  0.3468
 6438SOL    HW221757   0.517   8.674   2.523 -0.5721 -1.2755  0.7611
 6439SOL     OW21758   6.257   3.867   1.394 -0.3376 -0.1076 -0.0257
 6439SOL    HW121759   6.178   3.910   1.362  0.3919  1.6168  0.3886
 6439SOL    HW221760   6.328   3.907   1.343  0.3294 -1.1958  0.0257
 6440SOL     OW21761   6.737   3.007   1.449  0.2105 -0.3346  0.3583
 6440SOL    HW121762   6.746   2.959   1.367 -0.2978  0.5963 -0.2644
 6440SOL    HW221763   6.648   3.041   1.447  1.2702  2.7769 -0.4830
 6441SOL     OW21764   0.973   6.850   5.064  0.6370 -0.4224  1.0970
 6441SOL    HW121765   1.021   6.904   5.128  0.5150  0.2370  0.6413
 6441SOL    HW221766   0.976   6.762   5.101 -1.1274  0.2420  3.0438
 6442SOL     OW21767   3.636  10.235   0.687  0.7975  0.6324  0.2404
 6442SOL    HW121768   3.556  10.246   0.739  0.6835  1.7656 -0.1572
 6442SOL    HW221769   3.684  10.165   0.732 -0.1406  0.3512  0.8232
 6443SOL     OW21770   7.031   1.743   4.615  0.6265  0.1881 -0.0510
 6443SOL    HW121771   6.969   1.755   4.543 -0.0057 -0.9966  0.2842
 6443SOL    HW221772   7.116   1.764   4.576  0.1520  0.8113 -0.7906
 6444SOL     OW21773   1.123   1.227   8.150  0.6090 -0.6622  0.6452
 6444SOL    HW121774   1.163   1.307   8.186 -0.9595  0.6256 -0.3318
 6444SOL    HW221775   1.119   1.166   8.224  0.5528  0.6739  1.7908
 6445SOL     OW21776   1.045   9.093   3.669  0.6052  0.3158  0.1399
 6445SOL    HW121777   1.060   8.999   3.659 -0.2541  0.3052 -1.2374
 6445SOL    HW221778   0.976   9.099   3.735  2.0372  0.1062  1.7425
 6446SOL     OW21779   6.527   1.781   9.685 -0.6172 -0.2076  0.0551
 6446SOL    HW121780   6.594   1.846   9.660 -1.1382  0.2942 -0.0568
 6446SOL    HW221781   6.530   1.779   9.780  1.3088 -2.0528  0.0423
 6447SOL     OW21782   1.834   4.479   7.096 -0.1537  0.3688 -0.1890
 6447SOL    HW121783   1.797   4.566   7.113  1.0810  0.8689  0.0696
 6447SOL    HW221784   1.914   4.477   7.150 -0.8069 -1.4017  0.7758
 6448SOL     OW21785   7.003   8.100   2.193 -0.2167 -0.0958  0.1199
 6448SOL    HW121786   6.930   8.039   2.205 -0.7922  0.9178  2.2581
 6448SOL    HW221787   7.081   8.047   2.211 -0.5820 -0.6137  0.2042
 6449SOL     OW21788   9.475   4.776   4.970  0.0164 -0.2589  0.5435
 6449SOL    HW121789   9.418   4.701   4.953  0.3660 -0.4439  0.1554
 6449SOL    HW221790   9.531   4.781   4.893  0.7800 -0.3212  1.0809
 6450SOL     OW21791   9.286   8.795   9.671 -0.2645 -0.5460  0.3474
 6450SOL    HW121792   9.226   8.869   9.671  1.7443  1.1895  0.0840
 6450SOL    HW221793   9.230   8.718   9.670 -2.5376  0.9071 -2.9950
 6451SOL     OW21794   2.709   4.960   9.030  0.0284  0.2940 -0.4515
 6451SOL    HW121795   2.769   4.901   8.985 -1.8929 -0.2984 -2.4495
 6451SOL    HW221796   2.639   4.902   9.061  0.1036  1.0426  1.1931
 6452SOL     OW21797  10.332   6.054  10.071 -0.3716 -0.0115  0.0927
 6452SOL    HW121798  10.425   6.043  10.090 -0.0566  0.8263 -0.8892
 6452SOL    HW221799  10.325   6.142  10.035 -0.9866 -1.2338 -3.0941
 6453SOL     OW21800   6.809   6.153   5.493  0.3418  0.1997 -0.2440
 6453SOL    HW121801   6.898   6.136   5.523  0.7342  0.9404 -0.9687
 6453SOL    HW221802   6.776   6.066   5.469 -0.4712 -0.6927  3.4217
 6454SOL     OW21803   6.252   8.859   1.691  0.5090  0.2619  0.5092
 6454SOL    HW121804   6.252   8.954   1.677  0.2135  0.2301  0.2942
 6454SOL    HW221805   6.330   8.829   1.645 -0.9630  0.0372 -2.0088
 6455SOL     OW21806   5.223   0.597   4.107  0.3919 -0.0014 -0.0392
 6455SOL    HW121807   5.192   0.652   4.179  0.7990  0.8529 -0.5012
 6455SOL    HW221808   5.190   0.641   4.028  0.8097 -0.3620 -0.4170
 6456SOL     OW21809   3.884   3.788   0.231 -0.1256  0.4339 -0.2465
 6456SOL    HW121810   3.954   3.766   0.169  0.7621 -0.4860  1.0122
 6456SOL    HW221811   3.924   3.854   0.288 -0.0207 -0.5886  0.8963
 6457SOL     OW21812   5.578   2.850   9.547 -0.3642 -0.3125 -0.0168
 6457SOL    HW121813   5.601   2.904   9.472  1.2377 -0.7152  0.1550
 6457SOL    HW221814   5.598   2.905   9.623  0.0712 -0.6903  0.1416
 6458SOL     OW21815   8.539   2.767   7.840 -0.3066  0.5158  0.2344
 6458SOL    HW121816   8.523   2.673   7.850  1.5264  0.2170  0.6424
 6458SOL    HW221817   8.511   2.806   7.923  1.1890 -0.0157  1.0165
 6459SOL     OW21818   8.379   4.144   2.803  0.0758  0.4992  0.7804
 6459SOL    HW121819   8.313   4.082   2.835  1.5940 -0.6277  1.8805
 6459SOL    HW221820   8.328   4.217   2.768 -1.7632  0.4533  3.0838
 6460SOL     OW21821   6.815   2.182   6.048 -0.3531 -0.1209  0.5490
 6460SOL    HW121822   6.771   2.183   6.133  2.2593  1.4686  2.0267
 6460SOL    HW221823   6.751   2.220   5.987 -1.5976  0.5512  2.2125
 6461SOL     OW21824   1.267   5.751   8.111 -0.2199 -0.6027 -0.4089
 6461SOL    HW121825   1.227   5.838   8.120  0.1252 -0.6172  1.5498
 6461SOL    HW221826   1.339   5.765   8.050 -0.8986  0.2126 -1.0650
 6462SOL     OW21827   6.162   5.379   8.362 -0.2508  0.2188 -0.0699
 6462SOL    HW121828   6.111   5.448   8.320 -0.2695  0.0152 -0.3877
 6462SOL    HW221829   6.103   5.343   8.428  0.0187  0.9947  0.5984
 6463SOL     OW21830   9.568   0.511   9.117 -0.2144 -0.6990 -0.6798
 6463SOL    HW121831   9.647   0.515   9.063 -1.1371  0.6038 -2.0293
 6463SOL    HW221832   9.543   0.419   9.117  2.8848 -1.7299  2.3058
 6464SOL     OW21833   3.168   3.454   8.924 -0.2541  0.2420  0.0667
 6464SOL    HW121834   3.201   3.544   8.910 -0.8341  0.3434 -0.7225
 6464SOL    HW221835   3.183   3.437   9.017 -1.4164  1.6795  0.5527
 6465SOL     OW21836  10.114   9.722   8.600  0.4805  0.4638 -0.5449
 6465SOL    HW121837  10.199   9.753   8.631  0.2457  0.6074 -0.0414
 6465SOL    HW221838  10.060   9.801   8.593 -0.0277  0.2239  0.4610
 6466SOL     OW21839   0.715   5.568   2.237 -0.0612 -0.0998 -0.5843
 6466SOL    HW121840   0.702   5.493   2.295 -0.0321  0.1426 -0.2647
 6466SOL    HW221841   0.633   5.575   2.189 -0.4023  0.2212  0.0344
 6467SOL     OW21842   0.510   1.832   6.124 -0.0749 -0.7839  0.4327
 6467SOL    HW121843   0.523   1.812   6.032  0.2933  0.7024  0.1456
 6467SOL    HW221844   0.418   1.857   6.131  0.2296  0.4877  0.1746
 6468SOL     OW21845   7.458   2.691   5.827  0.2047 -0.3148 -0.0684
 6468SOL    HW121846   7.378   2.651   5.861  0.0188 -0.4975 -0.7204
 6468SOL    HW221847   7.457   2.672   5.734 -0.1819  1.6666 -0.5273
 6469SOL     OW21848   0.889   1.658   0.650 -0.0855  0.4097  0.2789
 6469SOL    HW121849   0.852   1.681   0.735 -0.8559  0.9472 -0.1838
 6469SOL    HW221850   0.932   1.738   0.620  1.0715 -0.0813  0.6088
 6470SOL     OW21851   0.272   2.961   0.044  0.9442 -0.1824  0.0143
 6470SOL    HW121852   0.277   3.052   0.074 -0.2217 -0.4416  1.1005
 6470SOL    HW221853   0.337   2.915   0.096  1.1499 -0.0704 -0.1420
 6471SOL     OW21854   0.380   9.349   5.559  0.3649  0.5431 -0.0081
 6471SOL    HW121855   0.430   9.279   5.519 -0.8233  0.0075 -0.6108
 6471SOL    HW221856   0.341   9.310   5.637 -0.3513  0.4984 -0.3782
 6472SOL     OW21857   5.965   5.612   6.541 -0.3073  0.3042  0.3617
 6472SOL    HW121858   5.995   5.522   6.557 -2.5627 -0.2981  1.7126
 6472SOL    HW221859   6.045   5.664   6.538  1.0577 -1.7210 -0.3343
 6473SOL     OW21860   9.915  10.122   7.759  0.1502  0.5234 -0.6495
 6473SOL    HW121861   9.841  10.107   7.701  0.5236  0.8182 -1.2149
 6473SOL    HW221862   9.990  10.132   7.700  0.4842  1.1431 -0.1370
 6474SOL     OW21863   7.604  10.086   7.896 -0.5237  0.3061 -0.4329
 6474SOL    HW121864   7.629  10.025   7.827  1.5078  0.3555  0.1793
 6474SOL    HW221865   7.614  10.173   7.858 -0.4182  0.3118 -0.3938
 6475SOL     OW21866   6.413   6.987   9.628  0.0917  0.3418  0.3954
 6475SOL    HW121867   6.360   6.983   9.548  0.2635 -0.5391  0.3075
 6475SOL    HW221868   6.425   6.895   9.653  1.6585  0.5103  0.3523
 6476SOL     OW21869   3.649   6.165   3.969 -0.6696  0.1972 -0.5049
 6476SOL    HW121870   3.632   6.077   4.003  1.6376 -0.4998 -1.0078
 6476SOL    HW221871   3.635   6.222   4.045 -2.1483 -0.5698 -0.1509
 6477SOL     OW21872   7.893   1.382   6.518 -0.1931 -0.2711 -0.6837
 6477SOL    HW121873   7.874   1.472   6.543 -0.3856 -0.0225 -1.6759
 6477SOL    HW221874   7.931   1.343   6.596  0.2664  0.7807 -0.3620
 6478SOL     OW21875   2.721   2.121   0.763 -0.1316  0.2064 -0.0187
 6478SOL    HW121876   2.741   2.106   0.671  0.5364 -0.6015  0.2380
 6478SOL    HW221877   2.631   2.153   0.763  0.2773  1.4184 -1.0288
 6479SOL     OW21878   3.267   0.176   9.864  0.3197  0.5124  0.1230
 6479SOL    HW121879   3.356   0.156   9.836  0.1118 -0.5540  0.1605
 6479SOL    HW221880   3.245   0.107   9.927 -0.8636  0.1789 -0.6113
 6480SOL     OW21881   6.059   6.058   2.300 -0.1423  0.2912 -0.3408
 6480SOL    HW121882   6.111   6.065   2.220 -1.1988  2.3271 -0.9300
 6480SOL    HW221883   5.998   5.985   2.284  0.4265 -0.0616 -0.9117
 6481SOL     OW21884   6.389   4.334   6.505 -0.9344  0.3040  0.3164
 6481SOL    HW121885   6.372   4.271   6.435  1.8214 -0.8452  0.5586
 6481SOL    HW221886   6.439   4.404   6.463  0.2458 -0.1122  1.0083
 6482SOL     OW21887   9.601   3.737   0.988 -0.2460 -0.7415  0.0514
 6482SOL    HW121888   9.695   3.750   0.975 -0.2703  0.4267  0.8459
 6482SOL    HW221889   9.560   3.805   0.935 -0.6728 -1.4963 -0.6056
 6483SOL     OW21890  10.331   2.721   8.799 -0.6216 -0.2900  0.9165
 6483SOL    HW121891  10.282   2.803   8.808 -0.0824  0.0159  1.1387
 6483SOL    HW221892  10.309   2.672   8.878 -1.1848 -0.4904  0.6365
 6484SOL     OW21893   2.528   0.559   5.421  0.0344 -0.0058 -0.0543
 6484SOL    HW121894   2.575   0.496   5.366 -0.0762  0.7599 -1.0465
 6484SOL    HW221895   2.580   0.563   5.501 -0.1514 -1.6266  0.1942
 6485SOL     OW21896   2.027   4.299   6.488 -0.1711  0.4186  0.0247
 6485SOL    HW121897   2.082   4.345   6.425 -0.6419  0.6957 -0.1896
 6485SOL    HW221898   2.031   4.208   6.462  1.5057  0.1824  0.9981
 6486SOL     OW21899   2.885   3.588   4.087 -0.3905  0.3342 -0.0743
 6486SOL    HW121900   2.945   3.558   4.156 -1.5013  0.6553  1.0855
 6486SOL    HW221901   2.849   3.507   4.051  0.6473  0.1434 -0.7132
 6487SOL     OW21902   7.755   5.893   1.502 -0.5439  0.3438 -0.6148
 6487SOL    HW121903   7.664   5.884   1.474 -0.5682  1.4844 -0.9358
 6487SOL    HW221904   7.792   5.805   1.492 -1.9963 -0.4914  0.9521
 6488SOL     OW21905   9.474   7.882   9.662 -0.3185 -0.0888  0.9844
 6488SOL    HW121906   9.449   7.960   9.613 -0.1666  0.0213  1.0821
 6488SOL    HW221907   9.393   7.830   9.667 -0.1481 -0.4777 -0.0690
 6489SOL     OW21908   8.214   4.523   9.688 -0.5158  0.3320  0.0978
 6489SOL    HW121909   8.211   4.583   9.613 -0.2865 -1.3282 -1.3033
 6489SOL    HW221910   8.231   4.580   9.764  0.5885  1.9333 -1.2711
 6490SOL     OW21911   1.069   9.811   6.168 -0.0699  0.1162  0.2634
 6490SOL    HW121912   1.118   9.867   6.227  1.2693 -0.6599 -0.0755
 6490SOL    HW221913   1.076   9.723   6.206 -3.0654  0.2544  1.3986
 6491SOL     OW21914  10.228   0.771   2.419 -0.2897 -1.0238 -0.1040
 6491SOL    HW121915  10.207   0.830   2.347  0.7145 -1.3135 -0.6540
 6491SOL    HW221916  10.143   0.751   2.459 -0.7896 -0.3406 -0.7981
 6492SOL     OW21917   1.097   5.481   6.878  0.3242  0.1084  0.0429
 6492SOL    HW121918   1.170   5.517   6.928  0.4494  1.7330 -1.2672
 6492SOL    HW221919   1.033   5.551   6.874 -0.2216 -0.4225 -1.0070
 6493SOL     OW21920   3.800   5.767   9.306  0.3385 -0.0536 -0.0235
 6493SOL    HW121921   3.830   5.788   9.217 -1.6293 -1.0921 -1.0033
 6493SOL    HW221922   3.831   5.840   9.360  0.8432  1.0500 -1.7181
 6494SOL     OW21923   9.814   7.936   1.402 -0.2006 -0.1490 -0.9875
 6494SOL    HW121924   9.852   8.015   1.364  0.3650  0.0418 -0.0569
 6494SOL    HW221925   9.750   7.907   1.337 -0.1172  0.8302 -1.5314
 6495SOL     OW21926   0.658   1.723   0.806 -0.1023  0.2388  0.0401
 6495SOL    HW121927   0.723   1.794   0.801 -1.3550  1.4190  0.1289
 6495SOL    HW221928   0.625   1.715   0.717  0.3051 -0.5232 -0.0535
 6496SOL     OW21929   3.144  10.022   2.781  0.0791  0.3445 -0.1115
 6496SOL    HW121930   3.112  10.084   2.715 -0.4211  0.0089 -0.1948
 6496SOL    HW221931   3.239  10.023   2.771  0.0087  0.2508 -0.8894
 6497SOL     OW21932   3.783   4.473   7.250 -0.5575  0.3437  0.3884
 6497SOL    HW121933   3.743   4.439   7.170  0.7374 -0.7865  0.1861
 6497SOL    HW221934   3.796   4.395   7.305  1.9263  0.5450  0.1699
 6498SOL     OW21935   4.744   5.105   8.320  0.1166  0.0756 -0.1296
 6498SOL    HW121936   4.791   5.033   8.361  1.4694  1.1421  0.2657
 6498SOL    HW221937   4.700   5.065   8.245  0.3669 -1.2555  0.4060
 6499SOL     OW21938   8.132  10.428   0.569 -0.2823  0.2227  0.4899
 6499SOL    HW121939   8.130  10.399   0.477  2.3444 -1.7698  0.9344
 6499SOL    HW221940   8.198  10.497   0.570  0.9770 -0.9415  1.0925
 6500SOL     OW21941   3.366  10.461   6.516  0.2497  0.1104  0.9070
 6500SOL    HW121942   3.310  10.451   6.439  0.6065 -2.2641  0.8800
 6500SOL    HW221943   3.455  10.456   6.482  0.4306  0.3857  1.3319
 6501SOL     OW21944  10.225   0.111   6.504 -0.7175 -0.0131  0.1411
 6501SOL    HW121945  10.302   0.065   6.470 -0.1415  0.2290  1.0851
 6501SOL    HW221946  10.230   0.198   6.464 -0.2724  0.1325  0.4979
 6502SOL     OW21947   3.632   6.484   9.651 -0.2128  0.1465  0.1340
 6502SOL    HW121948   3.597   6.518   9.733 -2.6990  1.5867 -1.3625
 6502SOL    HW221949   3.705   6.542   9.629  0.2508 -0.0495  1.1389
 6503SOL     OW21950   9.468   2.760   5.071 -0.1807 -0.2911  0.4483
 6503SOL    HW121951   9.548   2.810   5.053 -1.3995  1.0371 -1.6820
 6503SOL    HW221952   9.414   2.820   5.122 -0.3274 -0.7418  0.8311
 6504SOL     OW21953   7.013   5.654   1.771  0.3111  0.3739  0.5816
 6504SOL    HW121954   6.960   5.733   1.778  0.2440  0.3156  0.7598
 6504SOL    HW221955   6.979   5.609   1.693  2.1083  1.7978 -1.1073
 6505SOL     OW21956   7.784   2.734   6.890  0.4848  0.2062 -0.6352
 6505SOL    HW121957   7.819   2.648   6.869 -1.0576 -0.8428  0.8549
 6505SOL    HW221958   7.738   2.761   6.811 -0.7521 -1.2915 -0.4761
 6506SOL     OW21959   2.754   7.258   8.450  0.4625  0.0213  0.3210
 6506SOL    HW121960   2.752   7.178   8.397 -0.6864  0.6962 -0.7111
 6506SOL    HW221961   2.710   7.324   8.396  2.2533  1.6319  0.7158
 6507SOL     OW21962   4.633   3.163   4.642  0.0746  0.4274 -0.2421
 6507SOL    HW121963   4.610   3.142   4.733  1.5592  0.7457  0.2351
 6507SOL    HW221964   4.653   3.256   4.644 -0.2616  0.5187 -0.9889
 6508SOL     OW21965   5.123   1.447   1.480 -0.0035 -0.4326 -0.3305
 6508SOL    HW121966   5.040   1.436   1.433 -1.3591 -1.1637  2.0968
 6508SOL    HW221967   5.185   1.392   1.432 -0.6822  0.6788 -2.6155
 6509SOL     OW21968   4.565   0.956   5.436 -0.3562 -0.6482 -0.0367
 6509SOL    HW121969   4.580   1.050   5.432 -1.1225 -0.5349 -0.3834
 6509SOL    HW221970   4.499   0.945   5.505 -1.3110 -0.7794 -0.9403
 6510SOL     OW21971   4.750   8.021   0.980 -0.5098  0.2649  0.3532
 6510SOL    HW121972   4.842   8.029   1.007  0.2863  1.0352 -2.2904
 6510SOL    HW221973   4.723   7.935   1.012  0.9246  0.2485  1.6756
 6511SOL     OW21974   1.834   3.217   7.595  0.9806  0.2110  0.0774
 6511SOL    HW121975   1.781   3.223   7.516 -0.0982 -0.4190  0.7426
 6511SOL    HW221976   1.843   3.308   7.624 -1.1527  0.1969  0.8771
 6512SOL     OW21977   9.234   6.361   2.153  0.3426  0.2837 -0.2678
 6512SOL    HW121978   9.174   6.298   2.193  0.7433  0.4636  0.6374
 6512SOL    HW221979   9.211   6.360   2.060 -1.8273  1.1841  0.1999
 6513SOL     OW21980   5.429   1.374   5.850  0.3103  0.4631 -0.4374
 6513SOL    HW121981   5.475   1.291   5.847  0.3866  0.5314 -1.2922
 6513SOL    HW221982   5.439   1.404   5.941 -1.7977 -1.6257  0.5999
 6514SOL     OW21983   5.101   7.961   5.864 -0.3091  0.4911 -0.2138
 6514SOL    HW121984   5.114   7.926   5.952 -0.2330 -0.1104 -0.4650
 6514SOL    HW221985   5.128   7.891   5.805  1.7422  1.6362 -0.7351
 6515SOL     OW21986   0.129   2.222   9.448  0.7975  0.1259 -0.4928
 6515SOL    HW121987   0.119   2.186   9.536  1.6707 -0.4190 -0.5969
 6515SOL    HW221988   0.215   2.190   9.420  1.1219  1.4259 -1.0163
 6516SOL     OW21989   7.351   9.744   1.590  0.0718  0.3055  0.0578
 6516SOL    HW121990   7.363   9.817   1.650 -0.6323  1.2010 -0.8511
 6516SOL    HW221991   7.300   9.781   1.517  1.2136 -0.6428 -1.2784
 6517SOL     OW21992   2.076   5.469   4.543  0.2403  0.0075 -0.1455
 6517SOL    HW121993   2.067   5.564   4.548  0.2685  0.0074 -0.0936
 6517SOL    HW221994   2.089   5.452   4.450 -0.0864  0.0263 -0.1966
 6518SOL     OW21995   9.185   3.148   1.170 -0.4019  0.0283  0.2073
 6518SOL    HW121996   9.271   3.181   1.198 -0.2813  0.4262 -0.6186
 6518SOL    HW221997   9.181   3.167   1.076 -1.4523  0.1283  0.2620
 6519SOL     OW21998   4.099   0.207   0.130 -0.4940  0.5143  0.4285
 6519SOL    HW121999   4.141   0.150   0.194 -1.3983 -0.1954  0.4122
 6519SOL    HW222000   4.022   0.158   0.100 -0.3590  1.0330 -0.8524
 6520SOL     OW22001   7.473   8.812   0.235  0.0957 -0.2358 -0.2363
 6520SOL    HW122002   7.484   8.732   0.287  0.0568 -1.9598 -2.6957
 6520SOL    HW222003   7.405   8.861   0.280  1.0105 -0.9431  2.0557
 6521SOL     OW22004   3.944   6.876   1.941 -0.0574 -0.1641  0.0035
 6521SOL    HW122005   3.896   6.796   1.919  0.8142 -0.8894  0.6714
 6521SOL    HW222006   3.895   6.914   2.014  0.4100 -0.9348  0.7255
 6522SOL     OW22007   5.633   7.357   1.439  0.4381 -0.1899  0.1367
 6522SOL    HW122008   5.670   7.269   1.429  0.0998 -0.3992  0.6982
 6522SOL    HW222009   5.687   7.399   1.506 -0.1179 -0.3850  0.7247
 6523SOL     OW22010   9.364   3.661   5.284  0.1637 -0.4936 -0.0488
 6523SOL    HW122011   9.322   3.740   5.319 -0.4895  0.5300 -2.8680
 6523SOL    HW222012   9.344   3.663   5.190  3.3605 -1.9595 -0.9170
 6524SOL     OW22013   4.236   5.405   9.942  0.5286 -0.1478  0.1757
 6524SOL    HW122014   4.302   5.339   9.964  2.7971  2.1809  0.7711
 6524SOL    HW222015   4.171   5.398  10.013  1.7630 -0.4408  1.3285
 6525SOL     OW22016   1.697   9.719   2.003  0.2421  0.0175  0.6637
 6525SOL    HW122017   1.694   9.796   2.060  0.5732  1.3542 -1.0368
 6525SOL    HW222018   1.790   9.704   1.987  0.2088 -1.1414  1.4808
 6526SOL     OW22019   3.245   9.218   9.439  0.8023  0.1176  0.3254
 6526SOL    HW122020   3.299   9.202   9.362 -2.8470  0.6448 -2.6162
 6526SOL    HW222021   3.193   9.138   9.448 -0.9240  1.2044  0.3245
 6527SOL     OW22022   8.214   2.779  10.242 -0.6265 -0.1291 -0.1471
 6527SOL    HW122023   8.204   2.865  10.200 -0.8286  0.4944  1.1156
 6527SOL    HW222024   8.306   2.775  10.266 -0.1679 -1.1192 -1.9072
 6528SOL     OW22025   8.526   9.896   0.697  0.1741  0.2850  0.0001
 6528SOL    HW122026   8.525   9.924   0.605  0.7666 -2.7884 -1.0853
 6528SOL    HW222027   8.588   9.954   0.740  2.2431 -0.0831 -2.2849
 6529SOL     OW22028   9.324   3.016   4.058  0.0884  0.0675 -0.7766
 6529SOL    HW122029   9.355   2.925   4.064 -0.6759 -0.3052 -2.1954
 6529SOL    HW222030   9.257   3.014   3.991 -1.5320  1.2847  0.7262
 6530SOL     OW22031   4.507   3.054   4.893  0.0788 -0.4063 -0.0175
 6530SOL    HW122032   4.425   3.045   4.844 -0.0474  0.6609 -0.0269
 6530SOL    HW222033   4.479   3.078   4.982  0.3727 -0.0871 -0.0095
 6531SOL     OW22034   9.481   3.501  10.032  0.8915  0.2933 -0.0657
 6531SOL    HW122035   9.541   3.521  10.104  0.6503 -0.6470  0.4079
 6531SOL    HW222036   9.394   3.503  10.071  0.6127  1.2975 -0.6788
 6532SOL     OW22037   1.122   1.900   1.661 -0.1594 -0.6305 -0.4589
 6532SOL    HW122038   1.204   1.871   1.622 -0.0125 -0.5939 -0.1810
 6532SOL    HW222039   1.055   1.881   1.595 -0.3157 -3.1948  0.3384
 6533SOL     OW22040   8.726   1.161   1.149  0.5606 -0.6758 -0.2128
 6533SOL    HW122041   8.821   1.175   1.153  0.6093 -0.5366 -1.3960
 6533SOL    HW222042   8.708   1.097   1.218  1.3736 -0.0030  0.6407
 6534SOL     OW22043   9.621   3.053   0.732  0.6142  0.3041  0.0817
 6534SOL    HW122044   9.587   2.991   0.798  0.3340  0.9971  0.6000
 6534SOL    HW222045   9.544   3.104   0.707  0.6715 -0.1104 -0.9750
 6535SOL     OW22046   2.936   7.636   5.106  0.4932  0.5028  0.2031
 6535SOL    HW122047   2.951   7.578   5.032 -0.4460  0.3903  0.0897
 6535SOL    HW222048   2.881   7.707   5.071 -0.0513  0.3929  0.8069
 6536SOL     OW22049   4.275   8.132   2.760  0.0559 -0.0670  0.1550
 6536SOL    HW122050   4.313   8.082   2.688  1.2022  0.2365  0.5248
 6536SOL    HW222051   4.183   8.105   2.763 -0.2849  0.6430 -2.0396
 6537SOL     OW22052   8.410   1.060   9.173  0.5403  0.5816  0.0206
 6537SOL    HW122053   8.323   1.024   9.195  0.4219  0.2823 -0.9193
 6537SOL    HW222054   8.391   1.145   9.133  0.7225  0.7927  0.3742
 6538SOL     OW22055   9.096   9.347   9.117 -0.1422  0.0174  0.1964
 6538SOL    HW122056   9.090   9.302   9.201  0.6029  1.2581  0.9413
 6538SOL    HW222057   9.179   9.394   9.120 -1.8177  3.2884  0.4403
 6539SOL     OW22058   0.785   6.910   3.325  0.2502  0.5462  0.3148
 6539SOL    HW122059   0.791   6.822   3.289  1.0288  0.8278 -0.2671
 6539SOL    HW222060   0.842   6.908   3.402 -0.6757  0.2142  1.0146
 6540SOL     OW22061   4.934   8.121   4.349  0.4976 -0.4813 -0.0746
 6540SOL    HW122062   5.026   8.099   4.332  0.2382  0.6619 -3.9790
 6540SOL    HW222063   4.884   8.053   4.303 -0.6196 -0.3694  0.9306
 6541SOL     OW22064   1.437   5.864   1.974 -0.3150 -0.0484  0.1727
 6541SOL    HW122065   1.377   5.889   1.904 -0.5164  0.8336  0.6474
 6541SOL    HW222066   1.430   5.768   1.979  1.8906 -0.5652 -2.9804
 6542SOL     OW22067   2.716   2.274   5.363  0.2550  0.3763  0.4285
 6542SOL    HW122068   2.634   2.274   5.412 -0.8036  0.9020 -1.2287
 6542SOL    HW222069   2.751   2.362   5.375 -0.1505  0.5977  0.0530
 6543SOL     OW22070   9.572   6.720   8.023  0.2501 -0.2155  0.4054
 6543SOL    HW122071   9.571   6.673   7.940 -1.5588  0.0466  0.2397
 6543SOL    HW222072   9.609   6.658   8.086  1.4986 -0.4645 -0.5483
 6544SOL     OW22073   9.454   1.943   7.176 -0.4248 -0.0187 -0.2499
 6544SOL    HW122074   9.537   1.983   7.149  0.0259 -1.1426 -0.5929
 6544SOL    HW222075   9.419   1.904   7.096 -1.5022  0.7975 -0.1888
 6545SOL     OW22076   7.198   0.433   2.555  0.2065 -0.2149 -0.0009
 6545SOL    HW122077   7.129   0.472   2.609  0.7029 -0.7978  1.0911
 6545SOL    HW222078   7.240   0.508   2.513  0.2665  0.3232  0.9865
 6546SOL     OW22079   8.568   3.151   7.285 -0.1503  0.4538  0.6339
 6546SOL    HW122080   8.590   3.182   7.373  0.0575  1.7268  0.1413
 6546SOL    HW222081   8.645   3.102   7.257 -0.6199 -0.8921  1.5538
 6547SOL     OW22082   0.752   8.719   5.968  0.1750  0.4292  0.2468
 6547SOL    HW122083   0.799   8.640   5.997  0.1788 -0.3552 -1.7378
 6547SOL    HW222084   0.664   8.708   6.003  0.5753  0.3145  1.2628
 6548SOL     OW22085   9.986   1.226   0.826  0.1093  0.3209 -0.3293
 6548SOL    HW122086  10.074   1.248   0.798  1.0481 -0.0163  2.1452
 6548SOL    HW222087   9.951   1.308   0.862  0.7431 -0.2879  1.8111
 6549SOL     OW22088   0.306   2.256   1.042 -0.0791 -0.3047 -0.1833
 6549SOL    HW122089   0.317   2.242   1.136 -0.2407  0.6709 -0.0054
 6549SOL    HW222090   0.233   2.199   1.017  0.7278 -1.4662  0.0363
 6550SOL     OW22091   9.432  10.219   1.141  0.4765  0.1713 -0.2248
 6550SOL    HW122092   9.378  10.232   1.063 -0.9195 -0.4664  0.5867
 6550SOL    HW222093   9.496  10.152   1.116 -0.3587 -0.4840 -0.6587
 6551SOL     OW22094   3.746   9.828   6.382 -0.5266 -0.1163 -0.0841
 6551SOL    HW122095   3.656   9.844   6.412 -0.3427 -0.7323  0.8177
 6551SOL    HW222096   3.763   9.737   6.405  0.8894  0.4485  1.1968
 6552SOL     OW22097   8.610   6.069   9.134 -0.4749 -0.1601  0.3415
 6552SOL    HW122098   8.525   6.025   9.126 -0.0560 -0.6312 -2.7876
 6552SOL    HW222099   8.649   6.061   9.047  1.3744  2.9416  0.7551
 6553SOL     OW22100   2.488   5.143   0.058 -0.0538  0.4257  1.0924
 6553SOL    HW122101   2.409   5.119   0.008  0.2122  0.1536  0.7997
 6553SOL    HW222102   2.556   5.086   0.023  0.5907  1.5914  0.4143
 6554SOL     OW22103   5.804   8.987   9.870  0.1317  0.3703  0.2276
 6554SOL    HW122104   5.864   9.039   9.923  1.1424 -0.3933 -0.1518
 6554SOL    HW222105   5.736   8.959   9.932  1.0359 -0.1037  1.0194
 6555SOL     OW22106   1.803   1.042   7.063  0.2529 -0.5640 -0.5513
 6555SOL    HW122107   1.837   0.984   7.131 -0.5156 -0.5113 -0.1130
 6555SOL    HW222108   1.820   1.130   7.096 -0.0690 -0.5378 -0.4547
 6556SOL     OW22109   5.392   4.620   7.195 -0.1645 -0.2698 -0.2111
 6556SOL    HW122110   5.487   4.606   7.192 -0.1832 -0.2762 -1.2232
 6556SOL    HW222111   5.381   4.702   7.243  0.4134  0.1885 -0.8407
 6557SOL     OW22112   3.612   5.063   6.417  0.2182  0.1816 -0.1581
 6557SOL    HW122113   3.574   5.013   6.489  1.4713 -0.5608  0.0211
 6557SOL    HW222114   3.602   5.006   6.341 -1.1947  1.0057 -0.6216
 6558SOL     OW22115   8.828   6.652   1.580  0.4039  0.2565  0.7039
 6558SOL    HW122116   8.779   6.733   1.597 -0.9220 -0.3312 -0.1745
 6558SOL    HW222117   8.890   6.646   1.653  0.5203  2.0455  0.7971
 6559SOL     OW22118  10.208   5.093   2.506  0.0973 -0.1273  0.4450
 6559SOL    HW122119  10.172   5.076   2.419  1.8762  2.2056 -0.8613
 6559SOL    HW222120  10.158   5.167   2.539  1.1133  0.6953  0.2190
 6560SOL     OW22121  10.343   6.457   4.749  0.4644 -0.2025 -0.4728
 6560SOL    HW122122  10.359   6.531   4.808 -2.0802  0.9332 -1.0733
 6560SOL    HW222123  10.401   6.475   4.674 -0.3401  1.4364 -0.7627
 6561SOL     OW22124   6.371   5.029   9.917 -0.1808  0.0840 -0.5314
 6561SOL    HW122125   6.369   4.966   9.844  1.2641 -1.5025  0.7226
 6561SOL    HW222126   6.309   4.994   9.980  1.0012 -0.4151  0.3931
 6562SOL     OW22127   4.528   9.448   1.317  0.8042  0.4485 -0.5494
 6562SOL    HW122128   4.443   9.475   1.351 -0.3177 -1.1662 -1.9135
 6562SOL    HW222129   4.583   9.438   1.395 -0.0418  2.0334  0.3160
 6563SOL     OW22130   6.949   0.620   6.431 -0.1762 -0.0951  0.7126
 6563SOL    HW122131   6.953   0.715   6.436 -2.3611  0.0379  0.9474
 6563SOL    HW222132   7.037   0.591   6.454  0.3336  1.8368  1.3828
 6564SOL     OW22133   2.891   3.403   9.943 -0.1950  0.7017 -0.0091
 6564SOL    HW122134   2.820   3.428  10.002 -0.8866  2.6667 -1.5277
 6564SOL    HW222135   2.846   3.378   9.862  0.7845  1.1196 -0.7051
 6565SOL     OW22136   5.398   3.481   0.870 -0.2428  0.0812 -0.0153
 6565SOL    HW122137   5.395   3.518   0.958  0.8191 -0.4157  0.2448
 6565SOL    HW222138   5.446   3.546   0.818  0.6070 -0.3807  0.1740
 6566SOL     OW22139   2.212   8.288   5.268  0.1961  0.4000  0.4961
 6566SOL    HW122140   2.239   8.199   5.287  1.2074  0.6412  0.2268
 6566SOL    HW222141   2.289   8.342   5.288  0.2883  0.9870 -1.2525
 6567SOL     OW22142   9.020   9.579   0.992  0.2932 -0.3173 -0.2459
 6567SOL    HW122143   8.949   9.634   0.960  1.0594  0.2979 -0.9006
 6567SOL    HW222144   9.060   9.541   0.914  1.3656  0.1954  0.0283
 6568SOL     OW22145   5.948   7.211   5.151 -0.5743  0.3032  0.4737
 6568SOL    HW122146   5.934   7.128   5.197 -0.5393  0.1374  0.1920
 6568SOL    HW222147   6.041   7.230   5.164  0.1412 -1.1688 -1.7994
 6569SOL     OW22148   2.983   9.157   0.950  0.1341  0.6063 -0.9306
 6569SOL    HW122149   2.942   9.082   0.907 -0.1946  0.5426 -0.5148
 6569SOL    HW222150   3.013   9.213   0.878 -0.2921  0.4418 -1.2424
 6570SOL     OW22151  10.144   3.536   1.278 -0.0539  0.0609  0.2101
 6570SOL    HW122152  10.168   3.621   1.240 -1.0680  0.2189 -0.1032
 6570SOL    HW222153  10.064   3.554   1.327 -0.2274 -0.7043  0.2131
 6571SOL     OW22154   5.845   3.327   9.816  0.0542  0.4574  0.0599
 6571SOL    HW122155   5.907   3.367   9.877 -2.2270  0.8084  2.3462
 6571SOL    HW222156   5.875   3.237   9.807  0.8379  0.5813  1.2191
 6572SOL     OW22157   3.839   4.597   8.803  0.2458 -0.0838  0.3757
 6572SOL    HW122158   3.835   4.639   8.889 -0.2268  2.8145 -0.9437
 6572SOL    HW222159   3.748   4.587   8.777  0.3912 -0.8580  0.1311
 6573SOL     OW22160   7.570   9.289   1.664 -0.1903 -0.1224 -0.7887
 6573SOL    HW122161   7.648   9.342   1.645  0.0207 -1.1273 -2.9639
 6573SOL    HW222162   7.497   9.339   1.626 -0.5766  0.5497  0.7622
 6574SOL     OW22163   7.442   8.805   9.171  0.3478 -0.1650  0.3357
 6574SOL    HW122164   7.513   8.784   9.110  0.0984  0.0930 -0.0449
 6574SOL    HW222165   7.366   8.822   9.116  0.6816  2.4037  0.5580
 6575SOL     OW22166   7.613   0.628   1.715  0.1359 -0.0417 -0.2905
 6575SOL    HW122167   7.540   0.668   1.762  0.0588 -1.3375  0.7609
 6575SOL    HW222168   7.653   0.700   1.667 -2.1427  0.6160 -1.3457
 6576SOL     OW22169  10.385   6.567   5.559 -0.4564  0.0598 -0.2785
 6576SOL    HW122170  10.479   6.584   5.559  0.0822 -2.5081 -0.3749
 6576SOL    HW222171  10.352   6.615   5.635  0.7040  1.8591 -0.8391
 6577SOL     OW22172   0.708   8.605   8.145  0.0065 -0.7838 -0.3128
 6577SOL    HW122173   0.777   8.618   8.079 -1.0316  1.6332 -1.0167
 6577SOL    HW222174   0.715   8.681   8.203  0.1992 -2.3285  1.8036
 6578SOL     OW22175   1.324   9.170   3.376 -0.2449 -0.7543 -0.0337
 6578SOL    HW122176   1.241   9.123   3.375 -0.9885  0.4929 -0.0568
 6578SOL    HW222177   1.391   9.102   3.385 -1.3421 -1.7034  1.4940
 6579SOL     OW22178   9.763   0.660   0.834  0.3428  0.2298  0.0485
 6579SOL    HW122179   9.764   0.669   0.929 -1.0784  0.1951  0.0898
 6579SOL    HW222180   9.830   0.721   0.803  1.3928 -0.3480  1.0913
 6580SOL     OW22181   8.426   4.128   3.122  0.2041  0.8348  0.4332
 6580SOL    HW122182   8.450   4.198   3.061  0.4993  1.7769  1.5967
 6580SOL    HW222183   8.330   4.134   3.128  0.2330  1.2082  0.5882
 6581SOL     OW22184   8.757   6.769   2.548 -0.2046 -0.9177 -0.0516
 6581SOL    HW122185   8.667   6.737   2.543  0.0343 -1.7279  0.6401
 6581SOL    HW222186   8.805   6.717   2.484 -0.5109  0.6061 -1.5845
 6582SOL     OW22187   9.246   6.010   6.831  0.1278  0.0253 -0.2213
 6582SOL    HW122188   9.291   5.953   6.893  1.4581  1.8426  0.5891
 6582SOL    HW222189   9.179   5.955   6.791 -0.0021 -1.5291  1.9833
 6583SOL     OW22190   1.821   2.580   7.317 -0.6891  0.1301  0.3975
 6583SOL    HW122191   1.845   2.489   7.299 -1.9813  0.0502 -1.1118
 6583SOL    HW222192   1.728   2.577   7.336 -0.7535  1.1465  0.3077
 6584SOL     OW22193   1.213   3.042   7.001  0.0629 -0.1786 -0.4481
 6584SOL    HW122194   1.204   3.062   6.908 -0.0997  1.3201 -0.1342
 6584SOL    HW222195   1.268   2.964   7.004  1.6138  0.8073 -1.7427
 6585SOL     OW22196   6.469   7.112   6.669  0.4473 -0.2913  0.3950
 6585SOL    HW122197   6.534   7.129   6.737  1.2488 -1.7311  0.0321
 6585SOL    HW222198   6.462   7.195   6.622  2.3010 -0.1669  0.2448
 6586SOL     OW22199  10.449   1.725   9.781  0.3467 -0.8862 -0.0931
 6586SOL    HW122200  10.535   1.731   9.739 -0.7587  2.2842 -2.3245
 6586SOL    HW222201  10.388   1.712   9.708 -1.3080  0.1942  1.0459
 6587SOL     OW22202  10.219   1.496   5.533  1.1960 -0.0541 -0.1036
 6587SOL    HW122203  10.185   1.537   5.613  0.3593  1.6103 -1.2724
 6587SOL    HW222204  10.313   1.489   5.549  1.3196  1.9323  0.3479
 6588SOL     OW22205   1.693   6.719   4.678  0.1246  0.6655  0.1602
 6588SOL    HW122206   1.600   6.724   4.697 -0.5351 -2.1541 -1.7959
 6588SOL    HW222207   1.720   6.633   4.712  1.3084  0.1983 -1.8054
 6589SOL     OW22208   6.476   5.703   5.962 -0.9372 -0.5588  0.3879
 6589SOL    HW122209   6.437   5.615   5.965  0.9704 -1.4258  1.0489
 6589SOL    HW222210   6.524   5.704   5.879 -2.0809  0.4242 -0.3083
 6590SOL     OW22211   8.250   8.352   3.636  0.6352  0.1880 -0.5245
 6590SOL    HW122212   8.186   8.342   3.707  0.1425  0.5370 -0.9107
 6590SOL    HW222213   8.331   8.316   3.672  0.1867 -0.4127 -0.0850
 6591SOL     OW22214   4.435   9.991   5.524  0.4030 -0.3947  0.2291
 6591SOL    HW122215   4.385   9.909   5.524 -1.0197  0.3792  2.4705
 6591SOL    HW222216   4.527   9.963   5.531  0.0417 -1.8032 -0.3777
 6592SOL     OW22217   4.778  10.285   3.782 -1.2959  0.1112 -0.5211
 6592SOL    HW122218   4.862  10.287   3.736 -0.8124 -1.6469  0.1940
 6592SOL    HW222219   4.789  10.344   3.856 -0.2315 -0.9794  0.2405
 6593SOL     OW22220   5.607   1.556   3.512 -0.3713  0.0304  0.1398
 6593SOL    HW122221   5.675   1.583   3.451  0.2022 -0.1455  0.6916
 6593SOL    HW222222   5.567   1.638   3.542 -0.7583  0.1076 -0.5840
 6594SOL     OW22223   6.757   4.728   8.296 -0.1803  0.2020 -0.2545
 6594SOL    HW122224   6.741   4.806   8.244  0.4625  1.4235  1.2960
 6594SOL    HW222225   6.847   4.738   8.328 -0.3896 -0.7291  0.7090
 6595SOL     OW22226   6.703  10.096   3.635 -0.0938  0.1043  0.2283
 6595SOL    HW122227   6.609  10.101   3.616 -0.0517  0.1479  0.0395
 6595SOL    HW222228   6.707  10.055   3.722 -0.2631 -0.4818 -0.0356
 6596SOL     OW22229   4.747   1.553   8.302 -0.2295 -0.2875  0.0483
 6596SOL    HW122230   4.682   1.529   8.367 -0.0265 -1.6735 -0.2330
 6596SOL    HW222231   4.709   1.525   8.218  0.2004  0.0085 -0.2519
 6597SOL     OW22232   4.477   5.075   3.326  0.6366  0.0331  0.0208
 6597SOL    HW122233   4.470   5.029   3.242  0.5789 -0.2352  0.1710
 6597SOL    HW222234   4.515   5.010   3.385 -1.1171 -0.4379  0.7092
 6598SOL     OW22235   9.299   1.932   2.392 -0.2402  0.0262 -0.1802
 6598SOL    HW122236   9.315   1.843   2.362 -0.8300  0.0427 -0.5793
 6598SOL    HW222237   9.385   1.972   2.399 -0.0574 -0.0235 -1.7675
 6599SOL     OW22238   7.449   8.489   2.815 -0.3958  0.7267  0.4750
 6599SOL    HW122239   7.495   8.469   2.896 -1.0763  1.2733  1.0088
 6599SOL    HW222240   7.479   8.576   2.791 -0.4710  0.7165  0.3441
 6600SOL     OW22241   6.418   4.663   9.028 -0.1005 -0.1039  0.5316
 6600SOL    HW122242   6.492   4.602   9.031  1.4408  1.7003  1.5448
 6600SOL    HW222243   6.350   4.616   8.979  1.1806 -2.3895  0.7826
 6601SOL     OW22244   4.582   8.195   1.113 -0.4323 -0.0470  0.2274
 6601SOL    HW122245   4.633   8.224   1.189 -0.2891  2.8340 -0.8454
 6601SOL    HW222246   4.634   8.124   1.074 -0.4960 -1.5771  2.7042
 6602SOL     OW22247   6.372   8.951   7.689  0.2672 -0.1413  0.2602
 6602SOL    HW122248   6.288   8.956   7.643  0.2506 -0.9678  0.1863
 6602SOL    HW222249   6.350   8.974   7.780 -0.3348 -1.7122  0.5588
 6603SOL     OW22250   8.577   4.149   0.478 -0.4511  0.3718 -0.3567
 6603SOL    HW122251   8.642   4.180   0.542 -1.4117  0.2819  0.7093
 6603SOL    HW222252   8.626   4.138   0.397  0.3443  2.8979 -0.3126
 6604SOL     OW22253   9.348   3.764   8.647  0.3595  0.3991  0.1047
 6604SOL    HW122254   9.257   3.770   8.675 -0.0966  0.2911 -1.2987
 6604SOL    HW222255   9.344   3.724   8.560  1.7540  0.2847  0.0747
 6605SOL     OW22256   0.035   8.056   1.489  0.1033 -0.2497  0.4843
 6605SOL    HW122257  -0.005   8.143   1.494  0.5798 -0.0164  0.3273
 6605SOL    HW222258   0.104   8.065   1.423 -0.5105 -1.0237 -0.2850
 6606SOL     OW22259   7.189   3.963   1.148  0.9796 -0.2283 -0.5018
 6606SOL    HW122260   7.125   3.940   1.216 -1.1812 -0.9537 -2.6434
 6606SOL    HW222261   7.263   3.904   1.165 -0.6561 -2.4003 -0.3687
 6607SOL     OW22262   9.440   5.830   6.104  0.1232  0.0459 -0.2220
 6607SOL    HW122263   9.508   5.817   6.038  0.6271  0.2072  0.2602
 6607SOL    HW222264   9.437   5.925   6.116 -0.0294  0.0224 -0.0812
 6608SOL     OW22265   3.536   7.132   2.290  0.0936 -0.1041  0.1876
 6608SOL    HW122266   3.543   7.041   2.262  0.4181  0.1874 -0.7235
 6608SOL    HW222267   3.579   7.182   2.220 -0.5547  0.7899  0.4074
 6609SOL     OW22268   6.775   2.529   0.034 -0.4819 -0.2281 -0.1542
 6609SOL    HW122269   6.821   2.602   0.076  1.2298 -0.8926 -0.7670
 6609SOL    HW222270   6.822   2.515  -0.049 -1.6042 -1.1631 -0.6592
 6610SOL     OW22271   5.256   3.586   4.392 -0.4424  0.1939  0.3398
 6610SOL    HW122272   5.219   3.529   4.460 -1.0484  0.1204 -0.0429
 6610SOL    HW222273   5.350   3.588   4.411 -0.3141 -1.4109  0.0222
 6611SOL     OW22274   6.538   1.597   4.466 -0.7388 -0.7519 -0.2544
 6611SOL    HW122275   6.506   1.520   4.513  1.6214 -1.2669  0.6353
 6611SOL    HW222276   6.620   1.569   4.426 -0.2600  1.0537 -0.6379
 6612SOL     OW22277   8.064   7.541   6.972 -0.6527  0.8643  0.0343
 6612SOL    HW122278   8.147   7.509   6.936 -0.1255  0.0821  1.8253
 6612SOL    HW222279   7.998   7.488   6.929 -0.0506  0.0524  0.0737
 6613SOL     OW22280   8.533   5.606   9.047  0.2187  0.4978  0.2194
 6613SOL    HW122281   8.500   5.572   9.131  0.9213 -1.0055 -0.0793
 6613SOL    HW222282   8.454   5.615   8.993 -0.2393  1.4750  1.0257
 6614SOL     OW22283   2.114   4.941   2.739  0.1706  0.9244  0.4647
 6614SOL    HW122284   2.198   4.920   2.780 -0.0235 -0.1355  0.3503
 6614SOL    HW222285   2.069   4.996   2.803 -0.2668 -0.9481  1.8559
 6615SOL     OW22286   5.101   7.052   0.713 -0.1523 -0.1218  0.5773
 6615SOL    HW122287   5.139   7.140   0.708 -0.5555  0.0205 -0.1570
 6615SOL    HW222288   5.063   7.047   0.800  1.1554 -0.1090  1.1745
 6616SOL     OW22289   6.258  10.085   8.286 -0.2077  0.1875 -0.1093
 6616SOL    HW122290   6.213  10.011   8.245  1.1864 -0.7833  0.0775
 6616SOL    HW222291   6.299  10.049   8.365 -0.5824  1.4491  0.7060
 6617SOL     OW22292   0.763   6.444   9.684 -0.1232 -0.0109  0.3021
 6617SOL    HW122293   0.681   6.490   9.700 -0.5566 -1.2492  2.0001
 6617SOL    HW222294   0.750   6.399   9.601 -0.0716  2.0018 -0.8696
 6618SOL     OW22295   1.990   4.467   8.872  0.4083 -0.2517 -0.1995
 6618SOL    HW122296   1.970   4.391   8.817  1.0084  0.0560 -0.8598
 6618SOL    HW222297   1.943   4.540   8.832  1.2118  0.0646 -0.5868
 6619SOL     OW22298   1.332   0.416   9.437 -0.0845  0.5870 -0.1403
 6619SOL    HW122299   1.286   0.427   9.353  0.6014  1.9605 -0.3770
 6619SOL    HW222300   1.284   0.346   9.482 -0.8318  0.2351 -1.4260
 6620SOL     OW22301   6.042   1.358   5.592 -0.3427  0.1320 -0.1111
 6620SOL    HW122302   6.114   1.295   5.597  0.2617  0.8298  0.1570
 6620SOL    HW222303   5.990   1.330   5.517  1.5349  1.0011 -1.8058
 6621SOL     OW22304   0.535   1.384   5.595 -0.5680  0.9610  0.2142
 6621SOL    HW122305   0.531   1.446   5.522 -1.5171  1.4382  0.6581
 6621SOL    HW222306   0.480   1.310   5.567  1.4032 -0.2315 -0.7699
 6622SOL     OW22307   4.056   3.019   8.049  0.1572 -0.3263 -0.2862
 6622SOL    HW122308   4.089   2.941   8.003 -3.6838 -1.8971 -0.7682
 6622SOL    HW222309   4.005   3.066   7.982 -0.0915  0.9418  0.7594
 6623SOL     OW22310   8.824   2.408   6.113  0.0400  0.2186 -0.0960
 6623SOL    HW122311   8.738   2.378   6.143 -0.1727 -0.2551 -1.1296
 6623SOL    HW222312   8.804   2.476   6.049  0.4151 -0.1775 -0.6430
 6624SOL     OW22313  10.223   1.335   4.934 -0.0001  0.0205  0.0327
 6624SOL    HW122314  10.183   1.256   4.971 -0.0406 -0.3906 -0.8644
 6624SOL    HW222315  10.317   1.318   4.938 -0.0322 -1.1393 -2.3311
 6625SOL     OW22316   1.906   9.321   9.595 -0.1855 -0.1652 -0.7327
 6625SOL    HW122317   1.836   9.382   9.572 -0.2643  0.5632  1.2415
 6625SOL    HW222318   1.867   9.264   9.661  0.4278 -1.2439 -1.2775
 6626SOL     OW22319   3.194   5.145   8.203 -0.4885 -0.1048 -0.4046
 6626SOL    HW122320   3.188   5.149   8.298 -0.0844 -1.1179 -0.3289
 6626SOL    HW222321   3.127   5.081   8.177 -0.3073 -0.1500 -0.7661
 6627SOL     OW22322   8.399   2.493   9.016  0.6125 -0.6671 -0.3007
 6627SOL    HW122323   8.414   2.581   9.049  1.3003  0.2808 -2.8881
 6627SOL    HW222324   8.305   2.479   9.027  0.6905 -0.1602  1.2893
 6628SOL     OW22325   9.327   6.398   2.662  0.6011 -0.4636 -0.1116
 6628SOL    HW122326   9.276   6.451   2.601  0.6447 -0.7575 -0.4085
 6628SOL    HW222327   9.278   6.401   2.744  0.0671 -0.7893 -0.4089
 6629SOL     OW22328   8.497   4.789   5.360 -0.1287 -0.4977  0.1602
 6629SOL    HW122329   8.402   4.791   5.369 -0.1574  1.3675 -0.1760
 6629SOL    HW222330   8.530   4.805   5.448 -0.1678  0.2476  0.0491
 6630SOL     OW22331   6.164   8.572   5.084  0.4403  0.2939  0.0910
 6630SOL    HW122332   6.242   8.595   5.033  1.4138  0.8084  1.7454
 6630SOL    HW222333   6.186   8.488   5.124 -0.5243 -0.3570 -0.6903
 6631SOL     OW22334   5.008   3.061   2.594 -0.7187 -0.4235 -0.0634
 6631SOL    HW122335   4.927   3.027   2.557  0.3254  0.2280 -3.2212
 6631SOL    HW222336   5.077   3.006   2.557  0.5860  1.8084 -1.1720
 6632SOL     OW22337   3.508   1.868   3.264  0.1180 -0.8532 -0.2053
 6632SOL    HW122338   3.581   1.926   3.240 -0.6504 -0.5381 -1.9593
 6632SOL    HW222339   3.434   1.926   3.275 -0.5914 -1.4175 -1.6736
 6633SOL     OW22340   2.736   0.036   5.280 -0.1138 -0.4504  0.0189
 6633SOL    HW122341   2.786   0.046   5.199  0.9110 -2.5678  0.3194
 6633SOL    HW222342   2.718   0.125   5.308  0.1181  0.3457 -2.1469
 6634SOL     OW22343   7.936   6.901   2.251  0.3262  0.0898  0.1518
 6634SOL    HW122344   8.004   6.968   2.260  1.8973 -1.5394  0.9831
 6634SOL    HW222345   7.898   6.894   2.339  0.3190 -0.2690  0.1187
 6635SOL     OW22346   7.301   0.737   3.905 -0.2887  0.6652  0.4828
 6635SOL    HW122347   7.267   0.726   3.817 -1.3302  1.0158  0.8337
 6635SOL    HW222348   7.235   0.790   3.951  0.3255  0.6560  1.4151
 6636SOL     OW22349   7.095   1.000  10.177  0.2949  0.1855 -0.3713
 6636SOL    HW122350   7.161   1.054  10.221 -0.7390  1.9172 -0.8336
 6636SOL    HW222351   7.037   0.971  10.247 -0.7117  2.0142 -0.3952
 6637SOL     OW22352   9.047   5.845   0.769  0.5965  0.4104  0.0375
 6637SOL    HW122353   9.098   5.806   0.697  0.3338 -0.7272  0.4533
 6637SOL    HW222354   9.109   5.851   0.841  0.3007 -0.4500  0.3701
 6638SOL     OW22355   0.849   7.210   4.060  0.3171 -0.5183  0.1718
 6638SOL    HW122356   0.870   7.155   3.985 -0.4215 -0.7192  0.1090
 6638SOL    HW222357   0.783   7.162   4.109  0.4230 -0.1614  0.6848
 6639SOL     OW22358   6.856   1.227   6.076 -0.6894 -0.1206  0.0230
 6639SOL    HW122359   6.943   1.240   6.113  0.4960  0.8660 -2.7725
 6639SOL    HW222360   6.807   1.306   6.100  0.1671  0.6727 -0.7759
 6640SOL     OW22361  10.240   0.410   6.687 -0.3796  0.1048  0.4464
 6640SOL    HW122362  10.308   0.342   6.692 -0.0622  0.3991  0.1517
 6640SOL    HW222363  10.191   0.400   6.768 -0.3845 -0.5308  0.3706
 6641SOL     OW22364   7.135   2.596   2.742 -0.2942  0.3723  0.2706
 6641SOL    HW122365   7.066   2.608   2.677 -0.3521 -2.1982 -0.2750
 6641SOL    HW222366   7.114   2.512   2.784  2.0797 -0.1248  0.6064
 6642SOL     OW22367   3.391   8.716   4.133  0.3289 -0.0036  0.0784
 6642SOL    HW122368   3.383   8.628   4.169 -0.1358  0.6743  1.7021
 6642SOL    HW222369   3.320   8.722   4.069  0.8646 -1.0550 -0.6547
 6643SOL     OW22370   9.911   6.317   7.494  0.3606  0.3188  0.1867
 6643SOL    HW122371   9.948   6.392   7.448  1.0811 -0.8359 -1.2018
 6643SOL    HW222372   9.986   6.259   7.509 -0.4253 -0.8678 -0.2903
 6644SOL     OW22373   7.306   1.765   2.396  0.1978  0.1764 -0.0885
 6644SOL    HW122374   7.397   1.735   2.396  0.2050  0.0012  2.2279
 6644SOL    HW222375   7.312   1.859   2.415 -0.0819  0.2699 -0.4596
 6645SOL     OW22376   5.438   4.636   8.733  0.2992  0.6753  0.2356
 6645SOL    HW122377   5.367   4.586   8.772  0.8929  0.6466  1.3247
 6645SOL    HW222378   5.405   4.726   8.729  0.5838  0.8735  1.7850
 6646SOL     OW22379   2.167   1.279   7.264  0.0361 -0.0616 -0.1372
 6646SOL    HW122380   2.259   1.304   7.263 -0.3687  1.5806 -0.3237
 6646SOL    HW222381   2.143   1.272   7.172 -0.5210  1.6889 -0.1677
 6647SOL     OW22382   6.060   3.062  10.446 -0.2366  0.4626  0.1880
 6647SOL    HW122383   6.094   3.076  10.534 -0.8557 -0.5513  0.6008
 6647SOL    HW222384   5.969   3.035  10.459  0.0812 -1.1015 -0.6711
 6648SOL     OW22385   4.679   4.426   2.970  0.0327  0.4107  0.2376
 6648SOL    HW122386   4.606   4.461   2.919  0.9269  0.7364 -0.8556
 6648SOL    HW222387   4.687   4.335   2.941 -0.7237 -0.0141  1.2879
 6649SOL     OW22388   8.795   4.266   7.536  0.1609  0.3645 -0.2241
 6649SOL    HW122389   8.740   4.314   7.474  0.9047  0.9130 -0.4760
 6649SOL    HW222390   8.871   4.239   7.484 -1.1133 -2.8215 -0.6071
 6650SOL     OW22391   4.127   5.119   9.098 -0.0248 -0.4803 -0.0068
 6650SOL    HW122392   4.210   5.149   9.134 -0.5370 -0.4196  1.1780
 6650SOL    HW222393   4.077   5.091   9.174 -1.3807  0.2084 -0.6051
 6651SOL     OW22394   3.749   2.092   4.472 -0.1396 -0.3540 -0.6577
 6651SOL    HW122395   3.845   2.096   4.470 -0.1373 -0.5426 -2.6575
 6651SOL    HW222396   3.730   2.014   4.523  0.7868 -0.5446 -0.5808
 6652SOL     OW22397   6.532   1.715   7.740 -0.3126  0.7143  0.4251
 6652SOL    HW122398   6.460   1.710   7.677 -0.7126  0.4492  0.9006
 6652SOL    HW222399   6.513   1.647   7.804  1.2587 -0.5177 -0.3481
 6653SOL     OW22400   2.433   6.843  10.184  0.0721 -0.2972  0.1326
 6653SOL    HW122401   2.448   6.840  10.090  0.5104 -0.0457  0.1945
 6653SOL    HW222402   2.427   6.936  10.205  1.5232 -0.2840  0.5909
 6654SOL     OW22403   9.238   9.717   1.376  0.0595  0.4653  0.4895
 6654SOL    HW122404   9.175   9.785   1.354  0.2164 -0.6672 -4.7299
 6654SOL    HW222405   9.321   9.748   1.339  0.8919 -1.1356  0.9251
 6655SOL     OW22406   5.557   7.122   6.316 -0.1691  0.0988 -0.7506
 6655SOL    HW122407   5.639   7.170   6.301  0.8844 -1.9831 -2.0840
 6655SOL    HW222408   5.558   7.101   6.409  0.7712  0.1579 -0.7358
 6656SOL     OW22409   2.800   3.263   1.187 -0.2950  0.3441 -0.2703
 6656SOL    HW122410   2.758   3.322   1.249 -0.9173 -0.5495  0.1944
 6656SOL    HW222411   2.894   3.275   1.201 -0.3694  2.1199 -1.0727
 6657SOL     OW22412   4.875   3.012   6.315 -0.1298  0.2668 -0.2364
 6657SOL    HW122413   4.929   2.938   6.343 -0.6001  0.1902  0.4838
 6657SOL    HW222414   4.935   3.067   6.264  0.0232 -1.0044 -1.5028
 6658SOL     OW22415   0.703   4.280   6.577  0.0403  0.3673 -0.2034
 6658SOL    HW122416   0.743   4.238   6.502 -0.8797  0.6779 -0.8917
 6658SOL    HW222417   0.735   4.370   6.574 -0.3932  0.5148 -0.5315
 6659SOL     OW22418   6.397   4.242   8.233  0.2324  0.4603 -0.1254
 6659SOL    HW122419   6.483   4.226   8.270 -0.7611  2.1753  3.3455
 6659SOL    HW222420   6.402   4.333   8.201 -0.3017  0.6232  0.2427
 6660SOL     OW22421   3.726   4.141   1.748 -0.8730 -0.2888  0.2372
 6660SOL    HW122422   3.796   4.085   1.713 -0.1441 -0.8490  2.4599
 6660SOL    HW222423   3.653   4.126   1.688  0.5933 -0.3719 -1.6372
 6661SOL     OW22424  10.072   9.917   4.935 -0.2707 -0.4906 -0.0430
 6661SOL    HW122425  10.078   9.981   5.006  0.9112 -0.1228 -0.4450
 6661SOL    HW222426  10.158   9.875   4.934  0.4931  0.9666 -2.5783
 6662SOL     OW22427   9.797   8.207   9.036 -0.1314  0.2765  0.0075
 6662SOL    HW122428   9.823   8.144   9.103  0.0013  0.7329  0.3883
 6662SOL    HW222429   9.708   8.232   9.060 -0.9165 -1.1737 -1.2098
 6663SOL     OW22430   5.459   9.600  10.075  0.4599  0.1836  0.0795
 6663SOL    HW122431   5.481   9.681  10.121  1.9039  0.2143 -0.6223
 6663SOL    HW222432   5.488   9.530  10.134  1.7725  0.2189 -0.5007
 6664SOL     OW22433   2.212   0.549   0.174 -0.0461  0.1947 -0.2785
 6664SOL    HW122434   2.231   0.455   0.167  1.9839  0.5258 -0.0733
 6664SOL    HW222435   2.121   0.554   0.201 -0.4197 -1.6975 -1.0396
 6665SOL     OW22436   5.744   9.552   5.720 -0.0881  0.5499  0.1648
 6665SOL    HW122437   5.793   9.476   5.749  1.0923  0.5614 -1.6519
 6665SOL    HW222438   5.700   9.524   5.640 -0.2596  1.5414 -0.1099
 6666SOL     OW22439   6.921   6.113   2.982  0.3693 -0.0198  0.4669
 6666SOL    HW122440   6.913   6.023   3.012 -2.2664 -0.1099 -0.2956
 6666SOL    HW222441   6.923   6.165   3.062  0.2446 -0.6473  0.8811
 6667SOL     OW22442   0.514   1.041   0.838  0.5069  0.1167 -0.2272
 6667SOL    HW122443   0.595   1.057   0.788  0.5115 -0.0559 -0.2761
 6667SOL    HW222444   0.517   0.948   0.859 -0.0849 -0.0788 -0.9527
 6668SOL     OW22445   9.235   9.647   2.602 -0.1743  0.7978  0.3590
 6668SOL    HW122446   9.247   9.740   2.587  0.6627  0.2359 -3.6095
 6668SOL    HW222447   9.177   9.619   2.531  0.8690 -1.9256  0.4544
 6669SOL     OW22448   1.689   5.106   1.162  0.2007  0.0843 -0.2327
 6669SOL    HW122449   1.693   5.134   1.253  0.7692 -0.4025 -0.1017
 6669SOL    HW222450   1.778   5.077   1.142 -0.2449 -1.1351 -0.5222
 6670SOL     OW22451   3.709   3.652   5.567  0.0197 -0.0378  0.1026
 6670SOL    HW122452   3.769   3.615   5.501  1.1389 -0.8979  1.5355
 6670SOL    HW222453   3.628   3.603   5.555 -1.0916  2.2654 -2.9720
 6671SOL     OW22454   7.731   2.683   7.169 -0.3105  0.4307 -0.4433
 6671SOL    HW122455   7.751   2.675   7.075 -1.9298 -1.4109 -0.7049
 6671SOL    HW222456   7.647   2.638   7.179 -0.7030  1.5156  1.7390
 6672SOL     OW22457   2.070   6.199   8.048 -0.4042 -0.4588  0.2853
 6672SOL    HW122458   2.010   6.133   8.012  1.7872 -2.6331  0.3424
 6672SOL    HW222459   2.143   6.201   7.985  0.5498  0.3571  1.3848
 6673SOL     OW22460   9.103   1.498   9.968 -0.2055 -0.2429  0.1137
 6673SOL    HW122461   9.044   1.422   9.971 -0.0497 -0.4374 -1.2199
 6673SOL    HW222462   9.187   1.465  10.000  0.1916 -0.9846 -1.5878
 6674SOL     OW22463   6.245   3.894   7.801 -0.0291 -0.7236  0.4863
 6674SOL    HW122464   6.276   3.948   7.874 -1.0810 -1.8279  1.8046
 6674SOL    HW222465   6.187   3.952   7.751  0.0362 -0.1884  1.0214
 6675SOL     OW22466   1.817   1.191   9.602 -0.2435  0.1475 -0.0534
 6675SOL    HW122467   1.795   1.165   9.691  1.2289  0.3157  0.3759
 6675SOL    HW222468   1.739   1.168   9.551 -2.2200  2.4629  1.6760
 6676SOL     OW22469   3.782   2.000   3.358  0.4225  0.4858 -0.0417
 6676SOL    HW122470   3.787   2.022   3.451  1.4366 -0.5216  0.1687
 6676SOL    HW222471   3.811   1.909   3.353  0.0175  0.3958 -1.3096
 6677SOL     OW22472   1.656   5.207   0.193 -0.1370  0.0206 -0.4552
 6677SOL    HW122473   1.641   5.269   0.264 -0.8889 -2.2344  1.4813
 6677SOL    HW222474   1.750   5.188   0.198  0.0664  0.8347 -0.9564
 6678SOL     OW22475   8.984   4.234   3.289 -0.8042 -0.0553 -0.1710
 6678SOL    HW122476   9.061   4.178   3.282 -1.6766 -1.3193  0.0259
 6678SOL    HW222477   9.019   4.323   3.293  0.5236 -0.3027 -3.4469
 6679SOL     OW22478   9.607   2.271   1.532  0.2367  0.4497 -0.1042
 6679SOL    HW122479   9.652   2.354   1.548 -0.4756  0.8488 -0.1028
 6679SOL    HW222480   9.675   2.205   1.536  1.3016  1.2735 -2.6976
 6680SOL     OW22481   7.901   9.544   7.201 -0.2256  0.3758  0.2549
 6680SOL    HW122482   7.963   9.565   7.272 -0.9036 -0.1928  1.0346
 6680SOL    HW222483   7.817   9.578   7.232 -0.8473 -1.2346  0.4458
 6681SOL     OW22484   8.509   5.912   1.139 -0.4010  0.3475  0.2042
 6681SOL    HW122485   8.466   5.943   1.218  1.4347  1.7155  0.7139
 6681SOL    HW222486   8.445   5.928   1.069 -1.4731  0.4767  1.1921
 6682SOL     OW22487   9.929   9.036   0.494  0.4011 -0.0896  0.0249
 6682SOL    HW122488   9.931   9.001   0.405 -0.1249 -0.4874  0.1645
 6682SOL    HW222489   9.853   9.095   0.495 -0.5135 -1.2511  0.6302
 6683SOL     OW22490   7.545   8.109   8.120 -0.2124  0.0070  0.3451
 6683SOL    HW122491   7.475   8.101   8.185 -0.4184  0.4852  0.1894
 6683SOL    HW222492   7.505   8.158   8.048 -0.3934 -1.5666 -0.7019
 6684SOL     OW22493  10.393   2.280   3.601 -0.0390 -0.0500  0.9655
 6684SOL    HW122494  10.339   2.355   3.580 -0.8012 -0.4521  1.4339
 6684SOL    HW222495  10.361   2.250   3.686 -0.8806 -1.8856  0.0734
 6685SOL     OW22496   4.927   4.787   8.914 -0.4893  0.4734 -0.4499
 6685SOL    HW122497   4.840   4.811   8.944 -1.5295 -2.2144 -0.9816
 6685SOL    HW222498   4.963   4.732   8.984 -0.6680 -1.2299 -1.6182
 6686SOL     OW22499   6.955   8.270   0.359  0.5191  0.2258 -0.3286
 6686SOL    HW122500   7.032   8.219   0.338 -0.4196 -2.4879  2.1278
 6686SOL    HW222501   6.897   8.260   0.284  1.6701  0.5811 -1.2991
 6687SOL     OW22502   9.858   6.128   5.832  0.2333 -0.3700  0.1593
 6687SOL    HW122503   9.911   6.102   5.907  2.3375 -1.4280 -1.6030
 6687SOL    HW222504   9.902   6.090   5.756 -2.5098 -0.4382 -1.5452
 6688SOL     OW22505   6.004   7.514   0.726  0.4422  0.1895  0.1802
 6688SOL    HW122506   5.916   7.477   0.722 -0.3995  2.1436 -0.1805
 6688SOL    HW222507   6.005   7.566   0.806  1.5290 -0.3529  0.5421
 6689SOL     OW22508   9.858   8.487   5.896  0.0728 -0.1710 -0.6168
 6689SOL    HW122509   9.943   8.443   5.887 -0.1610 -0.8131  0.1418
 6689SOL    HW222510   9.811   8.465   5.816  1.6479  2.6129 -2.4469
 6690SOL     OW22511   4.904   7.014   0.953 -0.2551 -0.5469 -0.2065
 6690SOL    HW122512   4.934   7.103   0.972 -1.0352  0.1128 -1.8696
 6690SOL    HW222513   4.833   6.999   1.014 -0.3027  0.0850 -0.0971
 6691SOL     OW22514   4.376   1.365   2.664  0.0033  0.2564  0.2490
 6691SOL    HW122515   4.374   1.441   2.722  1.4716 -0.7895  1.7873
 6691SOL    HW222516   4.437   1.389   2.594 -0.1881  0.7919  0.2611
 6692SOL     OW22517   4.642   3.909  10.044  0.0561 -0.1113 -0.4516
 6692SOL    HW122518   4.614   3.868  10.127 -1.8598 -0.9182 -1.4263
 6692SOL    HW222519   4.729   3.874  10.028 -0.0818 -0.9760  0.5592
 6693SOL     OW22520   7.513   3.746   5.669  0.1239 -0.1146  0.5518
 6693SOL    HW122521   7.546   3.834   5.687  0.6127 -0.5990  2.1906
 6693SOL    HW222522   7.418   3.756   5.669  0.1842  0.6211 -0.5099
 6694SOL     OW22523   3.487   5.711   1.249  0.2619  0.3286  0.0500
 6694SOL    HW122524   3.448   5.783   1.298  0.4763 -0.0613  0.8026
 6694SOL    HW222525   3.423   5.693   1.180 -0.0791  0.8362  0.2235
 6695SOL     OW22526   2.252   5.112   2.142  0.4542 -0.2345 -0.2120
 6695SOL    HW122527   2.250   5.033   2.196 -0.0220  1.2555  2.0554
 6695SOL    HW222528   2.292   5.179   2.197 -0.4886  1.5039 -1.5217
 6696SOL     OW22529   7.084   4.069   0.060  0.1152  0.1319  0.5544
 6696SOL    HW122530   7.104   4.070  -0.033  0.8795  0.3321  0.7088
 6696SOL    HW222531   7.046   4.156   0.077  0.7186  0.4006  0.5720
 6697SOL     OW22532   6.985   4.541   7.042  0.0156  0.7501  0.4164
 6697SOL    HW122533   7.026   4.602   6.981  1.6365  0.2077  0.9020
 6697SOL    HW222534   6.907   4.587   7.074  1.9203  3.2409  1.8512
 6698SOL     OW22535   9.641   3.926   3.284 -0.5892  0.0003 -0.0630
 6698SOL    HW122536   9.581   3.922   3.210 -2.0245 -1.5640  1.0989
 6698SOL    HW222537   9.589   3.898   3.359  1.3398 -0.4723  1.1885
 6699SOL     OW22538   3.677   7.098   2.698  0.2324 -0.9522  0.3504
 6699SOL    HW122539   3.727   7.129   2.773  0.9856  1.9486 -1.1827
 6699SOL    HW222540   3.741   7.088   2.628 -0.9632  1.0645 -1.1515
 6700SOL     OW22541   8.339   8.422   8.260  0.1012 -0.0681  0.5476
 6700SOL    HW122542   8.285   8.379   8.327 -1.0409  2.6342  1.4664
 6700SOL    HW222543   8.354   8.510   8.294  0.9563  0.8458 -1.9982
 6701SOL     OW22544   1.425   0.896   1.058 -0.0999 -0.2705  0.0941
 6701SOL    HW122545   1.368   0.888   0.982 -0.6428  1.8095  0.2135
 6701SOL    HW222546   1.370   0.936   1.126  0.5924 -1.3482  1.3342
 6702SOL     OW22547   6.765   9.460   9.244  0.0111  0.5535  0.3350
 6702SOL    HW122548   6.732   9.375   9.215 -3.6904  2.1521 -0.6279
 6702SOL    HW222549   6.762   9.515   9.165  3.2176  1.4566  0.6998
 6703SOL     OW22550   9.197   8.781   0.406 -0.0118  0.3536 -0.0452
 6703SOL    HW122551   9.168   8.818   0.323 -1.1290  1.5600  0.8367
 6703SOL    HW222552   9.210   8.688   0.389 -1.1480  0.4066 -1.3285
 6704SOL     OW22553   8.585   2.823   7.223  0.2044 -0.1174  0.0333
 6704SOL    HW122554   8.625   2.736   7.219  0.0275 -0.2028  0.1535
 6704SOL    HW222555   8.634   2.868   7.292 -0.8303 -0.6867  1.1696
 6705SOL     OW22556   9.197   1.383   1.695  0.2953 -0.4290 -0.2463
 6705SOL    HW122557   9.169   1.350   1.610 -0.9668  1.6139 -0.6773
 6705SOL    HW222558   9.291   1.399   1.686  0.2189 -0.4739 -1.1541
 6706SOL     OW22559  10.163   6.928   3.963  0.0462 -0.8265 -0.8440
 6706SOL    HW122560  10.078   6.936   3.919 -0.4996  1.2307  0.4258
 6706SOL    HW222561  10.211   7.006   3.936 -0.0553  0.1573  1.5811
 6707SOL     OW22562   9.481   5.512   8.843  0.0743  0.1438 -0.4694
 6707SOL    HW122563   9.497   5.606   8.852  1.0775 -0.0942  0.4890
 6707SOL    HW222564   9.569   5.472   8.844 -0.3901 -0.9511  1.2277
 6708SOL     OW22565   0.072   7.246   3.310  0.1587  1.0501 -0.5981
 6708SOL    HW122566   0.083   7.152   3.295  0.6051  1.0626 -0.3834
 6708SOL    HW222567   0.124   7.287   3.241  1.5407  1.1151  0.4302
 6709SOL     OW22568   8.808   5.314   5.600 -0.0598 -0.1048  0.2606
 6709SOL    HW122569   8.833   5.329   5.509 -1.6964  0.0417 -0.1895
 6709SOL    HW222570   8.713   5.314   5.599 -0.1155  0.9009  2.1490
 6710SOL     OW22571   6.857   2.976   8.452  0.2383  0.3225  0.7786
 6710SOL    HW122572   6.880   3.030   8.376  0.2399 -1.7569 -0.7854
 6710SOL    HW222573   6.773   2.937   8.429  1.5261 -2.5567  0.4854
 6711SOL     OW22574   3.217   3.974   9.521 -0.1542 -0.7049 -0.5868
 6711SOL    HW122575   3.128   3.970   9.555  0.6334 -1.1305  1.5751
 6711SOL    HW222576   3.220   4.056   9.472 -1.8568 -0.9336 -1.1427
 6712SOL     OW22577   2.437   7.214   5.495 -0.2436  0.1268  0.4992
 6712SOL    HW122578   2.503   7.219   5.425  0.9756  0.8915  1.6713
 6712SOL    HW222579   2.384   7.138   5.471  2.1902 -1.6947  0.4636
 6713SOL     OW22580   7.927   2.959   0.202  0.0654  0.1664  0.1150
 6713SOL    HW122581   7.899   2.900   0.273  3.1839  0.3247  1.6432
 6713SOL    HW222582   7.984   2.906   0.147  1.3493  1.1999  0.3940
 6714SOL     OW22583   1.760   3.791   1.132 -0.4104  0.1289  0.4718
 6714SOL    HW122584   1.711   3.785   1.214 -1.7861 -2.0371 -0.4213
 6714SOL    HW222585   1.824   3.721   1.137 -1.5286 -1.0495 -0.8902
 6715SOL     OW22586   8.859   7.377   1.638 -0.1057  0.3113 -0.4580
 6715SOL    HW122587   8.940   7.377   1.689 -0.2620 -0.7874 -0.1662
 6715SOL    HW222588   8.804   7.312   1.682 -0.9922  0.7553 -0.8942
 6716SOL     OW22589   4.634   2.139   0.874 -0.6075 -0.0509 -0.3005
 6716SOL    HW122590   4.562   2.114   0.931  1.0974 -1.7400  1.2396
 6716SOL    HW222591   4.597   2.139   0.786 -2.1400 -2.4118  0.2618
 6717SOL     OW22592   5.268   5.926   1.466 -0.2153  0.4538  0.7169
 6717SOL    HW122593   5.190   5.900   1.515  0.0765  1.3165  1.6721
 6717SOL    HW222594   5.341   5.893   1.517  0.0711 -1.7994 -1.0095
 6718SOL     OW22595   7.769  10.084   8.696 -0.2404  0.0101  0.1145
 6718SOL    HW122596   7.784   9.999   8.738  0.4036  0.4186  0.7338
 6718SOL    HW222597   7.759  10.145   8.769  1.8048  0.9038 -0.2806
 6719SOL     OW22598   7.001   1.156   7.989  0.4851  0.5310 -0.0936
 6719SOL    HW122599   7.038   1.226   7.935 -1.3620  0.9936 -0.8451
 6719SOL    HW222600   6.964   1.095   7.926  1.8628 -1.0478  0.5655
 6720SOL     OW22601   0.356   4.263   9.035  0.3994 -0.6704  0.9381
 6720SOL    HW122602   0.446   4.233   9.039  0.3691 -0.7937  0.7174
 6720SOL    HW222603   0.359   4.353   9.067  0.6912 -0.4779  0.3722
 6721SOL     OW22604   6.990   3.181   1.484 -0.2553 -0.0807 -0.2976
 6721SOL    HW122605   6.950   3.132   1.556 -1.1273  1.5384  0.3739
 6721SOL    HW222606   7.066   3.223   1.523 -0.8977  1.0435 -0.1921
 6722SOL     OW22607   6.761   8.475   0.487  0.4569 -0.0057  0.0639
 6722SOL    HW122608   6.805   8.390   0.486 -0.0721 -0.2818 -0.6244
 6722SOL    HW222609   6.804   8.525   0.418 -0.0777 -0.1636 -0.3919
 6723SOL     OW22610   7.640  10.472  10.455 -0.1642  0.1168 -0.3244
 6723SOL    HW122611   7.660  10.540  10.390 -0.8340 -0.4585 -1.1604
 6723SOL    HW222612   7.586  10.409  10.407  0.6030 -1.1121  0.3657
 6724SOL     OW22613   3.504   5.805   9.703  0.0375 -0.0117  0.1580
 6724SOL    HW122614   3.487   5.891   9.741  0.9428  0.2123  0.0639
 6724SOL    HW222615   3.553   5.758   9.772  0.8578  0.0702 -0.3601
 6725SOL     OW22616   5.443   9.690   5.921 -0.0640  0.6934  0.6014
 6725SOL    HW122617   5.430   9.689   5.827 -1.1577 -1.5305  0.7040
 6725SOL    HW222618   5.538   9.683   5.932  0.0302  0.3247 -0.3492
 6726SOL     OW22619   6.618   0.786   1.614 -0.0086 -0.2131  0.2888
 6726SOL    HW122620   6.621   0.873   1.654  0.9282  0.2262 -0.7110
 6726SOL    HW222621   6.627   0.726   1.688  0.9129  0.5702  0.8349
 6727SOL     OW22622   1.899   0.871   3.037 -0.3242  0.2459 -0.1861
 6727SOL    HW122623   1.836   0.800   3.045 -0.5304  0.4869  0.3695
 6727SOL    HW222624   1.930   0.866   2.947  0.1240 -0.9423  0.0099
 6728SOL     OW22625   2.965   5.460   6.152 -0.3656  0.0565  0.6009
 6728SOL    HW122626   2.907   5.390   6.122  1.5476 -1.4176  0.1755
 6728SOL    HW222627   2.933   5.481   6.240 -1.5978 -0.6429  0.3478
 6729SOL     OW22628   7.646   7.656   1.596 -0.6527  0.4567  0.0566
 6729SOL    HW122629   7.648   7.617   1.508 -0.5909  1.2748 -0.3182
 6729SOL    HW222630   7.643   7.581   1.655 -1.0041 -0.1059 -0.6510
 6730SOL     OW22631   0.882  10.025   0.944  0.2461  0.1035 -0.4332
 6730SOL    HW122632   0.856   9.932   0.942  1.3822 -0.2353 -0.1665
 6730SOL    HW222633   0.969  10.026   0.905  0.2041  1.0796 -0.5069
 6731SOL     OW22634   9.396   3.439   8.590 -0.0118  0.0601  0.8786
 6731SOL    HW122635   9.328   3.455   8.655 -0.8983  1.8623 -0.3948
 6731SOL    HW222636   9.353   3.457   8.506  1.4817 -0.7993 -0.1171
 6732SOL     OW22637   8.977   4.333   5.204 -0.4233  0.2216  0.3316
 6732SOL    HW122638   9.037   4.271   5.246 -0.5038  1.5483  2.5814
 6732SOL    HW222639   9.021   4.357   5.123  0.8379 -0.8091  0.6603
 6733SOL     OW22640   5.797   1.846   8.636  0.3458  0.0647  0.3883
 6733SOL    HW122641   5.807   1.927   8.686  0.6797  0.5044 -0.3638
 6733SOL    HW222642   5.767   1.782   8.699  2.0324  0.2629  1.4495
 6734SOL     OW22643   0.883   5.647   6.535 -0.0894 -0.5835 -0.2688
 6734SOL    HW122644   0.887   5.713   6.466  3.6595 -2.1771 -1.8849
 6734SOL    HW222645   0.835   5.574   6.495 -0.9304 -0.2478  0.1168
 6735SOL     OW22646   9.374   7.414   1.718 -0.4369 -1.4235 -0.1037
 6735SOL    HW122647   9.365   7.507   1.695 -0.6947 -1.2299  0.7551
 6735SOL    HW222648   9.448   7.412   1.779 -0.3603 -1.8035 -0.2087
 6736SOL     OW22649   7.940   3.148   4.576  0.0643  0.1766 -0.4966
 6736SOL    HW122650   7.969   3.132   4.666 -0.2338 -2.2083 -0.7530
 6736SOL    HW222651   7.928   3.243   4.571 -0.3403  0.3300  2.0904
 6737SOL     OW22652   7.040   5.506   8.252  0.7628 -0.3289 -0.6881
 6737SOL    HW122653   7.000   5.487   8.168  0.4636  2.0739 -1.1535
 6737SOL    HW222654   7.132   5.523   8.232  0.2183  2.8078 -1.0494
 6738SOL     OW22655   6.294   3.347   8.516  0.1241 -0.1643 -0.1860
 6738SOL    HW122656   6.276   3.255   8.497 -0.3117 -0.2096  0.4170
 6738SOL    HW222657   6.250   3.395   8.446 -1.7330 -0.3134  0.7965
 6739SOL     OW22658   9.871   0.797   6.094  0.0743 -0.3907  0.4024
 6739SOL    HW122659   9.945   0.819   6.151 -0.4704 -0.5134  1.1765
 6739SOL    HW222660   9.798   0.847   6.130 -0.2032 -0.1921 -0.4144
 6740SOL     OW22661   4.406   9.871   3.987  0.7987 -0.2461 -0.1290
 6740SOL    HW122662   4.357   9.892   4.067  0.0441 -2.4164  0.0555
 6740SOL    HW222663   4.458   9.949   3.969  0.4461  0.5682  2.0812
 6741SOL     OW22664   8.371   9.282   6.139 -0.4365  1.0207  0.1554
 6741SOL    HW122665   8.442   9.226   6.108 -1.0472  1.2190 -1.7140
 6741SOL    HW222666   8.330   9.231   6.209 -0.8255 -0.7990 -1.3097
 6742SOL     OW22667   0.048   5.755   5.161  0.0652  0.3194 -0.3532
 6742SOL    HW122668   0.076   5.774   5.251  1.7993 -0.0969 -0.7606
 6742SOL    HW222669  -0.040   5.718   5.170  0.5951 -0.6637  1.2741
 6743SOL     OW22670  10.077   9.916   1.292  0.3543  0.3184  0.5506
 6743SOL    HW122671  10.078   9.987   1.356  1.9086 -0.6862  1.7130
 6743SOL    HW222672  10.074   9.836   1.344  0.3353 -0.5163 -0.6768
 6744SOL     OW22673   1.043   2.149   5.168 -0.3373 -0.0519 -0.1733
 6744SOL    HW122674   1.000   2.110   5.092  0.5930  0.3507 -0.9176
 6744SOL    HW222675   1.064   2.075   5.225  1.2947 -0.6455 -1.5063
 6745SOL     OW22676   3.154   6.350   7.095  0.5152  0.0880  0.1282
 6745SOL    HW122677   3.112   6.299   7.025 -0.8479 -0.0715  1.0263
 6745SOL    HW222678   3.174   6.434   7.054 -1.1534  0.3523 -0.2271
 6746SOL     OW22679   5.648   6.040   3.107 -0.4320 -0.2257  0.0594
 6746SOL    HW122680   5.580   6.038   3.040  0.2862  1.5047 -0.8024
 6746SOL    HW222681   5.619   6.108   3.168 -0.3602 -0.7684  0.7072
 6747SOL     OW22682   3.055   5.529   4.822  0.1034  0.0516  0.6953
 6747SOL    HW122683   3.037   5.472   4.896 -0.3258 -0.9672 -0.1693
 6747SOL    HW222684   3.133   5.578   4.847 -0.4950  0.3314  2.1461
 6748SOL     OW22685   5.474   5.545   3.772  0.4587 -0.3868 -0.0322
 6748SOL    HW122686   5.402   5.588   3.818 -0.8949 -1.7846 -0.7549
 6748SOL    HW222687   5.553   5.588   3.806 -0.5380 -0.3832  2.5031
 6749SOL     OW22688  10.444   4.587   7.237 -0.4185 -0.4494  0.0505
 6749SOL    HW122689  10.427   4.510   7.182  2.1120 -1.0082 -0.0882
 6749SOL    HW222690  10.360   4.633   7.241 -2.4482 -3.8529  1.2315
 6750SOL     OW22691   3.914   1.457  10.005 -0.5840 -0.4585  0.0975
 6750SOL    HW122692   3.875   1.541   9.981 -0.2956 -0.3093  0.1412
 6750SOL    HW222693   3.974   1.437   9.934 -0.6870 -0.6519  0.0650
 6751SOL     OW22694   2.422   5.668   0.514 -0.4599 -0.1909 -0.1346
 6751SOL    HW122695   2.502   5.702   0.474 -2.3653  1.3756 -2.9938
 6751SOL    HW222696   2.424   5.574   0.495  0.7311 -0.2141 -0.0082
 6752SOL     OW22697   6.327   9.967   1.092  0.0340 -0.4464  0.1910
 6752SOL    HW122698   6.331  10.017   1.011  0.0569 -2.6934 -1.2819
 6752SOL    HW222699   6.416   9.933   1.103 -0.5403 -2.2403 -0.3098
 6753SOL     OW22700   9.267   4.769   0.735  0.3336 -0.3610  0.1547
 6753SOL    HW122701   9.332   4.701   0.750 -0.4367 -0.9875  0.7942
 6753SOL    HW222702   9.183   4.723   0.739 -0.1105  0.1063 -2.4067
 6754SOL     OW22703   5.255   3.239   1.663 -0.6022 -0.4281 -0.4020
 6754SOL    HW122704   5.295   3.284   1.737  2.3181 -3.1846 -0.0837
 6754SOL    HW222705   5.182   3.189   1.700 -0.9680  0.4128  0.0364
 6755SOL     OW22706   9.604   6.709   4.648 -0.5134 -0.5599  0.1204
 6755SOL    HW122707   9.555   6.762   4.712  0.8071  0.2947  0.4687
 6755SOL    HW222708   9.540   6.688   4.580 -0.8148  2.7976 -0.8129
 6756SOL     OW22709   9.691   6.822   1.369  0.4589  0.5966 -1.1211
 6756SOL    HW122710   9.612   6.820   1.315  0.6638  1.4275 -1.4610
 6756SOL    HW222711   9.687   6.906   1.414  0.6317  0.1998 -0.3466
 6757SOL     OW22712  10.292   1.943   7.773 -0.3619 -0.0151 -0.0398
 6757SOL    HW122713  10.264   1.979   7.689  0.4137 -1.1209 -0.7922
 6757SOL    HW222714  10.273   2.013   7.836 -2.1046  0.3838 -0.9234
 6758SOL     OW22715   1.998   2.832   8.080  0.2907 -0.0285 -0.2107
 6758SOL    HW122716   2.037   2.837   8.168 -1.4882  1.9116  0.5425
 6758SOL    HW222717   2.067   2.796   8.025  1.4483 -1.3336  1.9862
 6759SOL     OW22718   3.786  10.218   1.310 -0.0956 -0.2624 -0.4637
 6759SOL    HW122719   3.868  10.212   1.260  1.4446  1.9498  1.5440
 6759SOL    HW222720   3.741  10.294   1.274  0.4973  0.6770  0.7139
 6760SOL     OW22721   9.796  10.284   1.656  0.6593 -0.1685  0.0415
 6760SOL    HW122722   9.797  10.196   1.695  0.0743 -0.0060  0.4254
 6760SOL    HW222723   9.855  10.277   1.581  0.2681 -1.0104 -0.1944
 6761SOL     OW22724   6.214   6.266   2.435  0.2966 -0.1428  0.3382
 6761SOL    HW122725   6.195   6.183   2.393  2.0111 -0.2010 -0.4161
 6761SOL    HW222726   6.133   6.290   2.479 -0.1789 -2.3084  0.7597
 6762SOL     OW22727   8.388   2.124   9.131 -0.2816  0.1717  0.3211
 6762SOL    HW122728   8.371   2.031   9.120  1.6988 -0.3467  1.2632
 6762SOL    HW222729   8.309   2.159   9.172 -0.9249 -1.1345  0.2225
 6763SOL     OW22730   7.238   7.815   9.681  0.3364  0.6208  0.0687
 6763SOL    HW122731   7.276   7.883   9.625  1.1790  0.3399  0.2885
 6763SOL    HW222732   7.173   7.772   9.626 -0.5290  1.8766  0.0557
 6764SOL     OW22733   7.339   1.241   2.521 -0.5650  0.3854  0.0078
 6764SOL    HW122734   7.426   1.243   2.561  0.0142 -0.6736 -1.1475
 6764SOL    HW222735   7.344   1.306   2.451 -0.8897  0.7191  0.2925
 6765SOL     OW22736   1.536   3.369   4.823  0.2391 -0.4363 -0.1064
 6765SOL    HW122737   1.540   3.448   4.877  0.7096 -2.7086  3.5190
 6765SOL    HW222738   1.473   3.390   4.754 -0.9591  2.5342  1.7155
 6766SOL     OW22739   1.496   7.961   1.613  0.5338  0.0960  0.0746
 6766SOL    HW122740   1.582   7.922   1.628  0.4899  0.1185  0.3959
 6766SOL    HW222741   1.448   7.895   1.563  0.3891 -0.3594  0.7939
 6767SOL     OW22742   2.916   6.301   4.854 -0.5153  0.1536 -0.2525
 6767SOL    HW122743   2.869   6.359   4.915  1.2645 -0.9131  2.3224
 6767SOL    HW222744   2.990   6.354   4.824 -1.0552  0.4762 -1.0400
 6768SOL     OW22745   3.393   3.145   4.566 -0.1383  0.1957 -0.4327
 6768SOL    HW122746   3.332   3.178   4.632 -0.0417 -0.1885 -0.1452
 6768SOL    HW222747   3.480   3.160   4.603 -0.0994 -1.6828  0.3892
 6769SOL     OW22748   4.381   2.795   0.223  0.0337  0.1372 -0.7409
 6769SOL    HW122749   4.420   2.881   0.234 -0.1987 -0.0538  2.8678
 6769SOL    HW222750   4.287   2.811   0.215  0.0382  0.2503 -0.5667
 6770SOL     OW22751   7.317   2.350   3.695 -0.5140  0.1491 -0.2834
 6770SOL    HW122752   7.313   2.284   3.626 -1.9283  0.0948 -0.1836
 6770SOL    HW222753   7.235   2.338   3.744  1.0416 -0.7637  2.2966
 6771SOL     OW22754   6.478   3.910   6.557 -0.3208 -0.1865  0.1698
 6771SOL    HW122755   6.494   3.871   6.471 -1.3249 -1.3766  0.4880
 6771SOL    HW222756   6.384   3.927   6.559  0.0154  1.9979  0.2009
 6772SOL     OW22757   6.521   0.368   0.352  0.0774 -0.6032 -0.6022
 6772SOL    HW122758   6.545   0.448   0.306  0.5596 -1.0663 -1.1778
 6772SOL    HW222759   6.515   0.302   0.283  0.3532 -1.2097 -0.0563
 6773SOL     OW22760   6.640   0.702   3.808 -0.4769 -0.4835  0.2562
 6773SOL    HW122761   6.612   0.748   3.729  1.1303 -0.2950 -0.2550
 6773SOL    HW222762   6.559   0.675   3.851 -1.4090  0.6658 -0.7116
 6774SOL     OW22763   7.959   9.005  10.455  0.2001 -0.1145 -0.0579
 6774SOL    HW122764   8.037   8.953  10.472  0.5333  0.2037 -0.5779
 6774SOL    HW222765   7.932   9.037  10.541  0.7282 -0.1102  0.1099
 6775SOL     OW22766   6.885   9.462   9.870 -0.0166 -0.1247 -0.5692
 6775SOL    HW122767   6.854   9.476   9.780  0.3355  0.2487 -0.6346
 6775SOL    HW222768   6.979   9.477   9.866  0.2729 -1.7413 -0.4679
 6776SOL     OW22769   8.527   1.850   2.134 -0.4793  0.2018 -0.4473
 6776SOL    HW122770   8.598   1.854   2.199 -1.9831  3.5559  1.2315
 6776SOL    HW222771   8.572   1.833   2.051  1.8737 -1.1189  0.9660
 6777SOL     OW22772   7.731   0.456   2.669 -0.1350  0.2633  0.2817
 6777SOL    HW122773   7.638   0.435   2.682  0.0523 -0.1360  1.0664
 6777SOL    HW222774   7.778   0.378   2.699  0.4976  0.9599  1.1681
 6778SOL     OW22775   0.110   2.145   4.406 -0.2728  0.0581  0.1981
 6778SOL    HW122776   0.171   2.098   4.463 -0.6713  1.6883  2.0642
 6778SOL    HW222777   0.026   2.102   4.421 -0.0762 -0.5963 -0.4931
 6779SOL     OW22778   7.411   8.185   8.868  0.3948 -0.1291  0.2128
 6779SOL    HW122779   7.454   8.126   8.930  0.4870  0.0579  0.3302
 6779SOL    HW222780   7.319   8.186   8.895  0.3842 -0.2511  0.1840
 6780SOL     OW22781   7.580   7.891   4.844  0.1061  0.4166 -0.3355
 6780SOL    HW122782   7.595   7.962   4.906  0.9379  1.1622 -1.3636
 6780SOL    HW222783   7.586   7.812   4.897  0.9725  1.0232  0.5122
 6781SOL     OW22784   3.085   9.804   9.274 -0.6859  0.1894 -0.0736
 6781SOL    HW122785   3.170   9.761   9.281 -0.8272 -0.1110 -0.1713
 6781SOL    HW222786   3.037   9.776   9.352 -0.7541  0.2253 -0.1025
 6782SOL     OW22787   3.852   6.033   8.194 -0.5563 -0.0136  0.1684
 6782SOL    HW122788   3.801   6.082   8.130 -0.9139 -0.4677  0.0930
 6782SOL    HW222789   3.935   6.079   8.200  0.6054 -1.4942 -2.7181
 6783SOL     OW22790   7.316   8.114  10.314  0.7190 -0.3295 -0.3648
 6783SOL    HW122791   7.354   8.167  10.243 -1.3380  0.6658 -0.8052
 6783SOL    HW222792   7.342   8.161  10.393  2.3232 -0.9771 -0.4670
 6784SOL     OW22793   4.433   3.375   8.703  0.4027  0.3274  0.1506
 6784SOL    HW122794   4.412   3.408   8.616 -1.6145  0.5415  0.6881
 6784SOL    HW222795   4.400   3.285   8.703  0.5828  0.2598  0.6408
 6785SOL     OW22796   8.365   5.212   9.150 -0.1733 -0.1952  0.2986
 6785SOL    HW122797   8.282   5.252   9.178  0.7124  1.1269  1.1193
 6785SOL    HW222798   8.392   5.262   9.074  0.1645 -0.2555  0.3780
 6786SOL     OW22799   9.883   2.354   0.036  0.2601 -0.1586  0.8187
 6786SOL    HW122800   9.813   2.416   0.015 -0.1267 -0.7040  0.4724
 6786SOL    HW222801   9.961   2.409   0.045  0.3400  0.2039 -1.4201
 6787SOL     OW22802   9.769   3.769   5.835 -0.3406  0.3004 -0.2698
 6787SOL    HW122803   9.784   3.777   5.741 -1.8922  1.9506 -0.4401
 6787SOL    HW222804   9.677   3.743   5.842 -0.1471 -0.1433  0.7965
 6788SOL     OW22805   7.463   5.109   3.146 -0.0195  0.4010 -0.1314
 6788SOL    HW122806   7.447   5.183   3.089  1.3624 -0.1057 -1.2433
 6788SOL    HW222807   7.531   5.139   3.206 -0.4433  0.4644  0.3274
 6789SOL     OW22808   3.501   8.806   3.882 -0.0045  0.1218 -0.2475
 6789SOL    HW122809   3.494   8.808   3.977  0.5148  1.1436 -0.2225
 6789SOL    HW222810   3.410   8.812   3.852 -0.0529  2.7018  0.1829
 6790SOL     OW22811  10.364   5.355   3.583  0.1043 -0.4080  0.0765
 6790SOL    HW122812  10.387   5.295   3.513 -2.5796 -0.5566 -0.7586
 6790SOL    HW222813  10.370   5.442   3.544 -0.7668 -0.4525 -0.1727
 6791SOL     OW22814   3.474   1.761   5.230 -0.1252 -0.0206 -0.0698
 6791SOL    HW122815   3.534   1.828   5.199  0.2086  0.0545  0.7131
 6791SOL    HW222816   3.498   1.748   5.322 -0.7788 -0.5623  0.0323
 6792SOL     OW22817   2.856   9.363   4.669  0.3682 -0.1655  0.1808
 6792SOL    HW122818   2.865   9.286   4.725 -0.8311 -1.0191 -0.7730
 6792SOL    HW222819   2.892   9.337   4.585  5.0454  2.0342  1.1338
 6793SOL     OW22820   0.577   8.157   5.968 -0.4471 -0.2272 -0.1229
 6793SOL    HW122821   0.655   8.104   5.981 -1.3301 -1.7295 -0.7651
 6793SOL    HW222822   0.611   8.247   5.959  1.0278 -0.5921  1.3810
 6794SOL     OW22823   5.958   2.405   7.860 -0.0192  0.2266 -0.2267
 6794SOL    HW122824   5.970   2.329   7.803  2.4548 -0.2866  0.8029
 6794SOL    HW222825   5.948   2.368   7.948  1.6782  1.0302  0.3556
 6795SOL     OW22826   2.965   2.925   0.132 -1.1968  0.8649  0.5303
 6795SOL    HW122827   2.946   3.013   0.164 -3.0747  1.3242 -1.5148
 6795SOL    HW222828   2.879   2.890   0.110 -0.4880 -1.5625  1.3927
 6796SOL     OW22829   7.927   7.303   4.796  0.1509 -0.0254 -0.0146
 6796SOL    HW122830   7.948   7.348   4.877  1.1263  0.1338 -0.3483
 6796SOL    HW222831   8.005   7.252   4.775  0.5129  1.1026 -1.6443
 6797SOL     OW22832   4.627   8.557   8.588 -0.0027 -0.3857 -0.4973
 6797SOL    HW122833   4.688   8.622   8.622 -1.5088 -0.1343  2.0294
 6797SOL    HW222834   4.676   8.509   8.521  2.1656  1.2589 -0.1684
 6798SOL     OW22835   1.154   0.280   3.607 -0.1680  0.1031  0.1844
 6798SOL    HW122836   1.083   0.299   3.545 -1.4750  0.5713  1.7519
 6798SOL    HW222837   1.200   0.206   3.569 -1.0312  0.2628 -1.2560
 6799SOL     OW22838   7.372   9.873   8.293  0.2215 -0.2163 -0.5824
 6799SOL    HW122839   7.455   9.884   8.246  0.7239  0.3570  0.4045
 6799SOL    HW222840   7.314   9.937   8.253  0.1822 -0.7463 -1.4065
 6800SOL     OW22841   0.866   7.254   0.752  0.1433 -0.6323  0.0603
 6800SOL    HW122842   0.858   7.341   0.713 -0.7915 -0.1209  1.3432
 6800SOL    HW222843   0.957   7.228   0.733  0.6683  0.9315  0.3040
 6801SOL     OW22844   1.792   8.715   1.497 -0.0002 -0.6999  0.0675
 6801SOL    HW122845   1.804   8.808   1.478 -0.3891 -0.6352  0.1212
 6801SOL    HW222846   1.740   8.682   1.424 -1.3430 -0.4865  0.8808
 6802SOL     OW22847   9.515   1.173   6.055  0.0218 -0.0250 -0.3097
 6802SOL    HW122848   9.523   1.240   6.124 -2.1837  0.5895 -0.5604
 6802SOL    HW222849   9.558   1.212   5.979 -1.2506  1.1739 -0.4573
 6803SOL     OW22850   1.492   3.905   3.688 -0.2359 -0.7282  0.8170
 6803SOL    HW122851   1.572   3.871   3.647  0.8456  0.1797  2.0685
 6803SOL    HW222852   1.441   3.826   3.708  0.6875 -1.3925  0.6439
 6804SOL     OW22853   5.695   5.714   3.057 -0.0684 -0.8336  0.3749
 6804SOL    HW122854   5.766   5.666   3.099  1.0850  1.4753  1.2003
 6804SOL    HW222855   5.738   5.769   2.992 -1.1443  0.2815  0.5697
 6805SOL     OW22856   4.268   8.540   4.990 -0.0932  0.2750 -0.1433
 6805SOL    HW122857   4.221   8.623   4.994 -0.8457 -0.0203 -1.9131
 6805SOL    HW222858   4.202   8.474   5.012  0.3384  0.0684  0.5927
 6806SOL     OW22859   9.861   4.958   0.504  0.0215 -0.2690 -0.2750
 6806SOL    HW122860   9.795   5.007   0.552 -0.3509 -0.6334 -0.4089
 6806SOL    HW222861   9.812   4.890   0.458  0.2461  0.6374 -1.9174
 6807SOL     OW22862   0.329   4.971   9.281 -0.1263 -0.2381 -0.7168
 6807SOL    HW122863   0.257   4.968   9.218 -2.2647  1.4955  1.4654
 6807SOL    HW222864   0.385   4.897   9.256 -0.0456  1.0712 -5.3759
 6808SOL     OW22865   1.719   5.575   0.889  0.4493  0.1810  0.3591
 6808SOL    HW122866   1.786   5.580   0.957  0.2349 -0.1490  0.5941
 6808SOL    HW222867   1.763   5.533   0.815  0.8946  1.1830  0.0267
 6809SOL     OW22868   7.467   7.741   1.820 -0.1395  0.0558  0.1496
 6809SOL    HW122869   7.458   7.695   1.736  0.3449 -0.5070  0.3977
 6809SOL    HW222870   7.434   7.679   1.885  0.2797  0.1564  0.4650
 6810SOL     OW22871  10.257   7.447   7.156  0.3869  0.3507 -0.2163
 6810SOL    HW122872  10.233   7.387   7.227 -1.8455  0.3403 -0.9008
 6810SOL    HW222873  10.174   7.486   7.128  1.3494  1.2379 -2.0560
 6811SOL     OW22874   0.967   2.633   1.366 -0.0115 -0.1004 -0.4840
 6811SOL    HW122875   0.895   2.570   1.372 -1.9482  1.7437 -2.6543
 6811SOL    HW222876   1.023   2.599   1.297 -0.1178 -0.3125 -0.4673
 6812SOL     OW22877   4.203   8.772   9.453  0.0011 -0.0364  0.0525
 6812SOL    HW122878   4.195   8.801   9.543  1.0576  1.3194 -0.2707
 6812SOL    HW222879   4.130   8.814   9.407 -0.0174 -0.0222  0.0959
 6813SOL     OW22880   5.772   1.567   9.739 -0.2064  0.3348  0.4874
 6813SOL    HW122881   5.781   1.605   9.826  2.0971  1.9739 -0.3602
 6813SOL    HW222882   5.852   1.515   9.727 -0.7425 -0.3034 -0.4498
 6814SOL     OW22883   3.194   5.911   3.752 -0.0727 -0.6179 -0.5082
 6814SOL    HW122884   3.103   5.937   3.740  0.1516  0.0911 -0.7815
 6814SOL    HW222885   3.197   5.870   3.838 -0.5203 -0.0274 -0.2032
 6815SOL     OW22886   9.328  10.398   0.344 -0.1186  0.1164  0.2276
 6815SOL    HW122887   9.246  10.441   0.370 -0.5655 -0.9913  0.7154
 6815SOL    HW222888   9.324  10.312   0.386  2.4378  0.9186  2.3706
 6816SOL     OW22889   1.186   2.230   1.202  0.0912  0.4610 -0.0463
 6816SOL    HW122890   1.136   2.157   1.238 -1.0503  1.5360  0.6604
 6816SOL    HW222891   1.186   2.215   1.107 -0.6041 -0.1568  0.0428
 6817SOL     OW22892   4.702   8.039  10.417  0.4329 -0.0455  0.0445
 6817SOL    HW122893   4.689   7.945  10.405  1.4600 -0.4078  1.4793
 6817SOL    HW222894   4.777   8.060  10.362  0.9493 -0.3305  0.6229
 6818SOL     OW22895   0.824   7.880  10.271 -0.3851  0.1064 -0.0044
 6818SOL    HW122896   0.781   7.871  10.356  1.2494  1.1414  0.9893
 6818SOL    HW222897   0.864   7.968  10.273  0.7854 -0.3550 -1.3098
 6819SOL     OW22898   0.503   9.311   1.803 -0.2828 -0.0841 -0.2317
 6819SOL    HW122899   0.523   9.395   1.763  1.5768 -1.0576 -1.5008
 6819SOL    HW222900   0.439   9.331   1.871  0.9627  2.5165  0.2775
 6820SOL     OW22901   8.987   4.599   3.838  0.7378 -0.2647 -0.1864
 6820SOL    HW122902   9.054   4.564   3.896  0.1612  0.1882  0.7839
 6820SOL    HW222903   8.972   4.688   3.870 -0.3562 -0.3748 -0.3558
 6821SOL     OW22904   1.034   9.272   0.674 -0.2951 -0.4479 -0.0450
 6821SOL    HW122905   0.992   9.190   0.701  1.5708 -0.8279  2.0486
 6821SOL    HW222906   0.984   9.340   0.720 -0.4003 -0.6451  0.1381
 6822SOL     OW22907   1.058   9.097   5.965  0.6353  0.8832  0.0915
 6822SOL    HW122908   1.028   9.007   5.977 -0.8535  1.4234  0.6199
 6822SOL    HW222909   1.145   9.099   6.007  1.1747 -0.5544 -0.8848
 6823SOL     OW22910   1.039   4.567   4.708  0.0913 -0.1842  0.7213
 6823SOL    HW122911   1.105   4.505   4.737  1.5512 -0.2314 -2.2535
 6823SOL    HW222912   1.004   4.529   4.627  0.0493  2.1720 -0.4554
 6824SOL     OW22913   9.105   0.222   7.345 -0.4002 -0.1588 -0.5110
 6824SOL    HW122914   9.199   0.229   7.364 -0.5580 -2.0280  1.4166
 6824SOL    HW222915   9.095   0.258   7.257  1.5368  3.3328  0.4930
 6825SOL     OW22916   2.330   7.755   2.198 -0.2776 -0.1631 -0.3253
 6825SOL    HW122917   2.341   7.805   2.117 -1.2158  0.6544  0.0202
 6825SOL    HW222918   2.296   7.820   2.261 -0.8394 -1.0803  0.3412
 6826SOL     OW22919   8.897   3.211   2.184 -0.2153 -0.1456 -0.2358
 6826SOL    HW122920   8.912   3.260   2.265 -0.0828 -0.0665 -0.3097
 6826SOL    HW222921   8.806   3.231   2.161  0.1856  1.0076 -0.9042
 6827SOL     OW22922   3.630   2.367   3.458  0.2288  0.4604  0.1524
 6827SOL    HW122923   3.614   2.312   3.381  2.0651 -1.5680  1.1065
 6827SOL    HW222924   3.646   2.454   3.423 -1.9360  0.2792 -1.4945
 6828SOL     OW22925   4.158   6.450   0.198 -0.3690  0.5808 -0.0984
 6828SOL    HW122926   4.077   6.499   0.187 -0.6771  0.0931 -0.0029
 6828SOL    HW222927   4.179   6.418   0.111 -0.0080  1.1184 -0.2186
 6829SOL     OW22928   6.652   9.969   3.862 -0.5842  0.2935 -0.2428
 6829SOL    HW122929   6.561   9.999   3.857 -0.6574  0.4301  1.3876
 6829SOL    HW222930   6.670   9.964   3.956  0.7010 -0.9319 -0.5299
 6830SOL     OW22931   2.144   1.999   6.296  0.5071  0.5271 -0.1389
 6830SOL    HW122932   2.105   2.085   6.309 -1.9810 -0.3109 -1.3872
 6830SOL    HW222933   2.099   1.942   6.358  1.2148 -0.1082 -0.1981
 6831SOL     OW22934   7.325   2.679   0.418 -0.5482  0.5181  0.0940
 6831SOL    HW122935   7.251   2.657   0.475 -1.1003 -0.4378 -0.9375
 6831SOL    HW222936   7.373   2.596   0.410 -0.9357  0.4282 -1.4546
 6832SOL     OW22937   0.592   6.760   0.773  0.6859 -0.0936 -0.3728
 6832SOL    HW122938   0.529   6.691   0.796  0.0356  0.3475 -0.7843
 6832SOL    HW222939   0.669   6.741   0.826  0.1708 -0.5949  0.2163
 6833SOL     OW22940   1.291   3.120   1.151  0.1239 -0.1498  0.1648
 6833SOL    HW122941   1.381   3.127   1.120 -0.4653  1.1079 -1.4165
 6833SOL    HW222942   1.269   3.208   1.182 -0.7130 -0.3203  0.0837
 6834SOL     OW22943   4.985   1.947   7.739  0.1931  0.0001 -0.1647
 6834SOL    HW122944   4.987   1.856   7.711 -0.2351 -0.6484  1.7306
 6834SOL    HW222945   4.896   1.977   7.719  0.3313  0.0091 -0.7781
 6835SOL     OW22946   6.888  10.092   5.000  0.3283  0.0421  0.4119
 6835SOL    HW122947   6.867  10.166   4.942  1.2965 -0.7812 -1.0508
 6835SOL    HW222948   6.965  10.121   5.048  3.0340 -1.1943 -2.7734
 6836SOL     OW22949   5.964   1.857   6.323 -0.4656 -0.3025  0.1328
 6836SOL    HW122950   5.937   1.931   6.268 -1.1770 -1.1951 -0.7533
 6836SOL    HW222951   5.894   1.848   6.388  1.1571  1.8233  2.3876
 6837SOL     OW22952   7.849   1.199   3.383 -0.0310 -0.1218 -0.3322
 6837SOL    HW122953   7.787   1.259   3.424 -0.7516 -1.1554  0.1071
 6837SOL    HW222954   7.934   1.242   3.394 -0.5459  0.9036 -0.1934
 6838SOL     OW22955   1.086   2.373   7.398 -0.3180 -0.1665  0.3599
 6838SOL    HW122956   1.055   2.419   7.476  1.9228  0.3274  1.0146
 6838SOL    HW222957   1.151   2.311   7.431  0.8270  0.1885 -1.1372
 6839SOL     OW22958   9.684   1.411   2.903 -0.6300  0.1413 -0.4502
 6839SOL    HW122959   9.754   1.412   2.968 -0.7554  1.2722 -0.3175
 6839SOL    HW222960   9.717   1.353   2.834  0.7610  1.1999 -0.7179
 6840SOL     OW22961   5.783   4.429   7.372 -0.2774  0.3403  0.0178
 6840SOL    HW122962   5.722   4.369   7.414 -2.1255  0.0350 -2.7768
 6840SOL    HW222963   5.852   4.372   7.337  0.6642  0.4717  1.6095
 6841SOL     OW22964   7.660   2.852  10.254 -0.1419 -0.1952 -0.0256
 6841SOL    HW122965   7.730   2.889  10.201  0.8756 -0.0261  1.3528
 6841SOL    HW222966   7.590   2.917  10.252 -0.1025 -0.1727 -1.0847
 6842SOL     OW22967   0.838   0.683   1.377  0.6972  0.1838 -0.1404
 6842SOL    HW122968   0.752   0.707   1.412  1.5386 -0.2000  2.3993
 6842SOL    HW222969   0.822   0.603   1.326 -0.1390 -1.5608  2.6269
 6843SOL     OW22970   2.852  10.248   0.388 -0.1476 -0.2316 -0.2193
 6843SOL    HW122971   2.863  10.246   0.293 -1.3873 -0.1517 -0.3831
 6843SOL    HW222972   2.829  10.158   0.411 -0.1796 -0.1786 -0.0416
 6844SOL     OW22973   6.210   2.626   9.241 -0.5184  0.1523 -0.2708
 6844SOL    HW122974   6.235   2.694   9.304  2.1399  0.4361 -1.5004
 6844SOL    HW222975   6.210   2.545   9.292  1.0929  0.4414  0.2509
 6845SOL     OW22976   3.784   6.668   1.851 -0.4827  0.5010 -0.2498
 6845SOL    HW122977   3.738   6.643   1.771  0.7311 -1.6661 -0.3532
 6845SOL    HW222978   3.728   6.636   1.922 -0.0304 -0.5348 -0.3387
 6846SOL     OW22979   5.998   2.880   8.231  0.7300  0.2415 -0.7741
 6846SOL    HW122980   5.922   2.871   8.174  1.0309  0.2702 -1.1888
 6846SOL    HW222981   6.071   2.849   8.178  0.9817  0.0303 -0.3128
 6847SOL     OW22982   1.226   3.730   0.039  0.3957 -0.2705 -0.5761
 6847SOL    HW122983   1.221   3.655   0.098  0.4063 -0.0775 -0.3295
 6847SOL    HW222984   1.301   3.780   0.070  1.4545 -1.0455 -1.7858
 6848SOL     OW22985   8.155   9.511   6.400  0.2294  0.2402  0.0935
 6848SOL    HW122986   8.143   9.444   6.333  0.6579  1.9844 -1.8389
 6848SOL    HW222987   8.083   9.496   6.461  1.1774 -2.8737  0.6148
 6849SOL     OW22988   6.586   8.394   8.298  0.5185 -0.5341  0.0866
 6849SOL    HW122989   6.681   8.394   8.309  0.4236  1.1335  1.2536
 6849SOL    HW222990   6.570   8.332   8.226  2.3059 -2.3406  1.1366
 6850SOL     OW22991   4.640   1.771   7.064  0.1635 -0.3053  0.2549
 6850SOL    HW122992   4.701   1.764   6.991  1.0424  0.0320  0.9349
 6850SOL    HW222993   4.575   1.703   7.048 -0.2713  0.4394 -1.3909
 6851SOL     OW22994   5.709   8.374   6.015 -0.3661  0.5436  0.2309
 6851SOL    HW122995   5.629   8.404   5.971 -1.7912 -0.9659  1.6474
 6851SOL    HW222996   5.694   8.393   6.108  1.7913  1.9805  0.3619
 6852SOL     OW22997   3.835   9.105   9.906  0.1705  0.2636  0.0685
 6852SOL    HW122998   3.790   9.177   9.861  1.2873  0.6075 -0.5503
 6852SOL    HW222999   3.871   9.052   9.834  2.1056  0.8946  0.5033
 6853SOL     OW23000   7.315   1.030   9.575 -0.2120 -0.1713 -0.0413
 6853SOL    HW123001   7.257   1.033   9.651 -0.9088 -1.5197 -0.4822
 6853SOL    HW223002   7.342   0.939   9.569 -0.0358 -0.0499 -1.3201
 6854SOL     OW23003   7.281   9.826   5.689  0.2609  0.5516  0.0874
 6854SOL    HW123004   7.205   9.870   5.652  0.0078 -0.9794 -1.2990
 6854SOL    HW223005   7.333   9.897   5.727 -1.8293  1.6414  1.1123
 6855SOL     OW23006   0.059   9.475   5.903 -0.3986  0.0926 -0.4865
 6855SOL    HW123007   0.064   9.520   5.987 -0.7111 -0.1919 -0.3136
 6855SOL    HW223008   0.150   9.471   5.873 -0.0429 -1.3280  0.6561
 6856SOL     OW23009   8.631   7.204   2.679 -0.4122 -0.5693  0.5519
 6856SOL    HW123010   8.676   7.236   2.600  1.1504  0.0257  1.6355
 6856SOL    HW223011   8.688   7.135   2.712 -0.0538  0.4725  2.1842
 6857SOL     OW23012  10.376   1.474   9.908  0.4427  0.1069 -0.2379
 6857SOL    HW123013  10.415   1.556   9.881  0.6687  0.0667 -0.0355
 6857SOL    HW223014  10.339   1.492   9.994  0.1841  0.0916 -0.3445
 6858SOL     OW23015   1.269   6.591   6.836  0.2726 -0.5421  0.4486
 6858SOL    HW123016   1.335   6.611   6.901 -0.5829 -0.6197  1.3573
 6858SOL    HW223017   1.255   6.673   6.789 -0.0020 -0.1517  1.1945
 6859SOL     OW23018   0.473   9.440   5.006 -0.3355  0.0307 -0.4549
 6859SOL    HW123019   0.566   9.455   4.989 -0.5979  0.8834 -1.2332
 6859SOL    HW223020   0.471   9.390   5.088  0.7561  2.1569  0.9863
 6860SOL     OW23021   4.391   2.574   2.521 -0.8617  0.7425 -0.1560
 6860SOL    HW123022   4.444   2.617   2.588 -0.1318 -0.4278  0.0527
 6860SOL    HW223023   4.324   2.638   2.498 -0.7516  1.3974  1.2507
 6861SOL     OW23024   0.567   3.354  10.399 -0.1373 -0.3441 -0.2405
 6861SOL    HW123025   0.581   3.337  10.306  1.8953 -0.2676  0.0212
 6861SOL    HW223026   0.609   3.281  10.444 -1.3392 -0.5268  0.6516
 6862SOL     OW23027   4.328   2.522   8.650 -0.5685 -0.2335 -0.6698
 6862SOL    HW123028   4.337   2.504   8.556 -0.8074  1.2539 -1.0027
 6862SOL    HW223029   4.365   2.445   8.693  0.0125 -0.7162 -1.9847
 6863SOL     OW23030   7.581   3.413   2.841 -0.3428  0.0940  0.5388
 6863SOL    HW123031   7.497   3.385   2.804  0.6216 -2.0479 -0.2309
 6863SOL    HW223032   7.632   3.442   2.766 -0.6848  2.3360  1.1227
 6864SOL     OW23033   1.030   9.025   5.502 -0.1141 -0.0646 -0.1877
 6864SOL    HW123034   1.039   8.930   5.510  0.1220  0.0814  1.8316
 6864SOL    HW223035   1.091   9.049   5.432  1.5919 -1.1659  0.8406
 6865SOL     OW23036   1.607   4.690   1.699  0.4979 -0.5668 -0.0476
 6865SOL    HW123037   1.637   4.710   1.610  1.1145 -1.4658 -0.0613
 6865SOL    HW223038   1.666   4.620   1.728 -1.1157 -1.8946  0.2090
 6866SOL     OW23039   1.561   6.225   5.043 -0.3414 -0.5520 -0.2497
 6866SOL    HW123040   1.482   6.272   5.070  0.1926  0.3954 -0.2769
 6866SOL    HW223041   1.588   6.176   5.121  0.1663  0.7321  0.4386
 6867SOL     OW23042   7.965   1.657   3.732  0.6327  0.3374  0.5615
 6867SOL    HW123043   7.897   1.650   3.666  0.3713 -0.5860  0.9109
 6867SOL    HW223044   8.012   1.574   3.727  0.6080  0.2486  1.5286
 6868SOL     OW23045   3.836  10.364   7.259  0.0154  0.9480  0.4283
 6868SOL    HW123046   3.784  10.294   7.220 -0.1550  0.8220  0.8730
 6868SOL    HW223047   3.785  10.444   7.242  1.4188  1.3735 -2.3357
 6869SOL     OW23048   8.458   5.376   0.081  0.4330  0.4116  0.2424
 6869SOL    HW123049   8.405   5.398   0.004  0.8834  0.3205 -0.1000
 6869SOL    HW223050   8.445   5.450   0.141 -2.6208 -1.0177  1.5617
 6870SOL     OW23051   4.888   3.657   3.050  0.3028  0.2114  0.2169
 6870SOL    HW123052   4.866   3.599   2.977 -1.6779  1.6835 -0.4617
 6870SOL    HW223053   4.855   3.743   3.023  0.6693  1.0726  2.3090
 6871SOL     OW23054   6.742   5.881   7.291 -0.4366 -0.2948  0.3896
 6871SOL    HW123055   6.685   5.899   7.216 -1.7279  1.1045  1.6369
 6871SOL    HW223056   6.808   5.950   7.288 -1.9896  1.3772  1.8956
 6872SOL     OW23057   2.341   0.012   2.935 -0.3976  0.2876 -0.3768
 6872SOL    HW123058   2.408   0.073   2.905 -0.5684 -0.6501 -2.8697
 6872SOL    HW223059   2.390  -0.066   2.962 -0.1544  1.4793  3.0868
 6873SOL     OW23060   9.748   7.329   1.678 -0.0269  0.2887  0.1426
 6873SOL    HW123061   9.747   7.397   1.610 -0.7867 -0.0814 -0.2335
 6873SOL    HW223062   9.682   7.358   1.741 -1.5401 -0.8802 -0.8381
 6874SOL     OW23063   4.456   3.687   1.773  0.1101 -0.2746  0.1599
 6874SOL    HW123064   4.466   3.766   1.719  1.4919  0.2568  1.1458
 6874SOL    HW223065   4.402   3.628   1.719  0.1103  0.8457 -1.1209
 6875SOL     OW23066   3.057   2.798   5.246 -0.2365 -0.2313  0.0334
 6875SOL    HW123067   3.138   2.847   5.263  0.4450 -1.4708  0.4094
 6875SOL    HW223068   2.993   2.836   5.306  0.6095 -0.6288  1.2099
 6876SOL     OW23069   3.687   5.538   6.949  0.5213 -0.0779  0.2248
 6876SOL    HW123070   3.603   5.509   6.984  0.6626 -0.3799  0.3250
 6876SOL    HW223071   3.680   5.526   6.854  1.1485 -2.0399  0.3834
 6877SOL     OW23072   0.983   3.692   9.676 -0.1700  0.3772 -0.0202
 6877SOL    HW123073   1.046   3.749   9.631  0.5793 -1.3639 -1.3027
 6877SOL    HW223074   1.009   3.695   9.768 -0.5622  2.5606  0.0744
 6878SOL     OW23075   8.938   0.252   4.998  0.3662 -0.1061  0.3628
 6878SOL    HW123076   8.897   0.327   5.041 -1.2696 -0.0120 -1.2161
 6878SOL    HW223077   8.879   0.179   5.018 -0.0477 -0.1924 -1.1056
 6879SOL     OW23078   3.174   4.052   6.084  0.3442  0.2122 -0.2694
 6879SOL    HW123079   3.116   3.980   6.111  0.1869  0.4229 -0.0363
 6879SOL    HW223080   3.225   4.016   6.012 -0.2011  0.0746 -0.5958
 6880SOL     OW23081   3.305   6.729   3.479 -0.1865  0.1962  0.0175
 6880SOL    HW123082   3.360   6.734   3.557  0.4373 -0.1969 -0.3793
 6880SOL    HW223083   3.349   6.787   3.416  0.4343 -1.0018 -0.6833
 6881SOL     OW23084   4.807   1.059   3.935  0.0827 -0.1049  0.3549
 6881SOL    HW123085   4.873   0.997   3.903  0.1910 -0.2228  0.7906
 6881SOL    HW223086   4.842   1.089   4.019 -0.7746 -0.7387  0.9466
 6882SOL     OW23087   1.123   3.196   6.646  0.0660 -0.5338 -0.2435
 6882SOL    HW123088   1.140   3.115   6.694 -0.8232 -0.1066  0.8143
 6882SOL    HW223089   1.053   3.173   6.585 -0.0929 -0.5948 -0.0393
 6883SOL     OW23090   3.267   7.554   6.146 -0.1499 -0.0639 -0.7574
 6883SOL    HW123091   3.189   7.516   6.107 -0.1720  1.3670 -2.2193
 6883SOL    HW223092   3.333   7.485   6.141 -1.2374 -1.2427  0.3840
 6884SOL     OW23093   2.261   6.492   3.481 -0.6113  0.7100 -0.3468
 6884SOL    HW123094   2.219   6.566   3.437 -2.3721 -0.1993 -0.2739
 6884SOL    HW223095   2.190   6.445   3.524  0.6500 -0.2292  0.8464
 6885SOL     OW23096   3.244   1.145   7.313 -0.3415 -0.4470 -0.1139
 6885SOL    HW123097   3.315   1.111   7.368 -1.4154  0.4139  1.9112
 6885SOL    HW223098   3.288   1.177   7.235  1.8643  1.8534  1.8686
 6886SOL     OW23099   8.422   6.465   3.611  0.3062  0.0730  0.0375
 6886SOL    HW123100   8.385   6.394   3.664  3.3629 -0.9416  1.0234
 6886SOL    HW223101   8.388   6.449   3.523  1.7864 -3.4683 -0.0633
 6887SOL     OW23102   4.134   8.086   5.021  0.5684 -0.2171  0.0673
 6887SOL    HW123103   4.146   8.009   5.076  3.8938 -0.8215 -1.3082
 6887SOL    HW223104   4.065   8.061   4.959 -0.1646 -1.0834  1.1813
 6888SOL     OW23105   8.185   1.933   7.830 -0.0484 -0.1922 -0.3012
 6888SOL    HW123106   8.252   1.982   7.879 -0.8634 -0.1096  0.7739
 6888SOL    HW223107   8.171   1.854   7.882  0.9415 -1.4012 -1.7969
 6889SOL     OW23108   9.040   5.190   5.714  0.7746 -0.1018  0.0485
 6889SOL    HW123109   9.006   5.178   5.802  0.1686  1.1320  0.0035
 6889SOL    HW223110   8.980   5.252   5.673  1.0650 -0.6263 -1.2246
 6890SOL     OW23111   0.443   9.446   8.008  0.5869  0.8292 -0.2304
 6890SOL    HW123112   0.395   9.525   8.032  1.0114  0.7778  0.8340
 6890SOL    HW223113   0.448   9.395   8.089 -0.5631 -0.7885 -1.1189
 6891SOL     OW23114   5.195   7.705   0.441  0.2776 -0.4971 -0.1776
 6891SOL    HW123115   5.144   7.624   0.450  0.5079 -0.8576 -1.8582
 6891SOL    HW223116   5.224   7.705   0.350 -0.6711  2.0378 -0.5691
 6892SOL     OW23117   5.879   6.420   5.784  0.0421 -0.8204 -0.4171
 6892SOL    HW123118   5.914   6.350   5.839  1.3901 -0.4918 -0.8140
 6892SOL    HW223119   5.877   6.497   5.841 -1.8282 -1.2276  0.1414
 6893SOL     OW23120   3.159   5.368   7.800  0.1122  0.0340  0.6628
 6893SOL    HW123121   3.214   5.362   7.722 -0.1975  2.0940  0.2227
 6893SOL    HW223122   3.128   5.279   7.815  1.6461 -0.7265 -0.4810
 6894SOL     OW23123   8.918   4.590   7.372  0.3837 -0.0596 -0.1313
 6894SOL    HW123124   8.932   4.503   7.408  1.2521  0.1666  0.1146
 6894SOL    HW223125   8.926   4.579   7.277 -0.9163 -0.4824 -0.2101
 6895SOL     OW23126   4.545   5.656   3.335  0.0387  0.0882  0.1758
 6895SOL    HW123127   4.614   5.699   3.284  0.6508  0.3254  1.1758
 6895SOL    HW223128   4.589   5.581   3.376 -0.2965  0.2313  0.8161
 6896SOL     OW23129   8.649   0.459   0.230  0.2594 -0.1799 -0.6940
 6896SOL    HW123130   8.661   0.538   0.282 -0.9810 -0.4944  0.1284
 6896SOL    HW223131   8.625   0.491   0.143  0.6982  0.3452 -0.6284
 6897SOL     OW23132   3.862   4.555   0.539 -0.1218  0.0422 -0.2689
 6897SOL    HW123133   3.814   4.605   0.473  0.3798 -0.8801 -1.3713
 6897SOL    HW223134   3.826   4.584   0.623 -2.0085 -0.0092 -1.0177
 6898SOL     OW23135   1.599   0.493   7.606  0.0147 -0.1344 -0.1932
 6898SOL    HW123136   1.670   0.488   7.542  0.2860  0.9865  0.0088
 6898SOL    HW223137   1.615   0.574   7.654 -1.3316  0.0625 -0.0495
 6899SOL     OW23138   9.569   7.997   7.048  0.0868  0.1312  0.2077
 6899SOL    HW123139   9.547   8.085   7.079 -2.2110 -0.2291 -0.1721
 6899SOL    HW223140   9.497   7.974   6.988  0.4284 -2.1134  0.5414
 6900SOL     OW23141   2.560   1.482   9.623 -0.0435  0.0334 -0.2423
 6900SOL    HW123142   2.500   1.409   9.639 -1.7694  1.3515 -0.3656
 6900SOL    HW223143   2.568   1.526   9.707  1.0897 -0.3493 -0.1388
 6901SOL     OW23144   7.552   0.863   1.223 -0.5296  0.0952  0.0226
 6901SOL    HW123145   7.645   0.842   1.212 -0.4700  0.9173 -1.2379
 6901SOL    HW223146   7.531   0.833   1.311  0.9204 -0.1505  0.3102
 6902SOL     OW23147   0.007   6.345   2.432  0.3313  0.5131 -0.5899
 6902SOL    HW123148   0.044   6.385   2.353 -0.3359 -0.4236 -1.4036
 6902SOL    HW223149   0.083   6.315   2.482  0.7795  1.5252 -0.6288
 6903SOL     OW23150   6.421   9.148   4.667 -0.3883 -0.2498  0.3631
 6903SOL    HW123151   6.384   9.098   4.594 -0.0675  1.2389 -0.8598
 6903SOL    HW223152   6.356   9.138   4.737 -0.5284 -2.0078  0.0345
 6904SOL     OW23153   9.101   6.021   3.070  0.4085  0.3322 -0.8730
 6904SOL    HW123154   9.125   5.945   3.018 -0.3086 -1.2879  1.0196
 6904SOL    HW223155   9.168   6.027   3.138 -1.1139 -0.5058  0.7888
 6905SOL     OW23156   8.767   2.209   5.696 -0.0967  0.1374  0.0544
 6905SOL    HW123157   8.816   2.210   5.778 -1.0711 -0.7260  0.6701
 6905SOL    HW223158   8.709   2.285   5.702  0.3247  0.4810 -0.1564
 6906SOL     OW23159   6.002   3.934   1.309 -0.0247  0.0282  0.1912
 6906SOL    HW123160   6.033   3.963   1.223 -0.4130 -0.8493 -0.2526
 6906SOL    HW223161   5.908   3.947   1.306 -0.4307 -2.6005 -0.5806
 6907SOL     OW23162   4.100   4.546   2.581 -0.3936 -0.4075  0.4393
 6907SOL    HW123163   4.042   4.599   2.635  0.6030 -0.1371  1.2779
 6907SOL    HW223164   4.138   4.608   2.519 -0.7852 -0.5280  0.0810
 6908SOL     OW23165   1.418   5.230   5.673  0.1557  0.3179 -0.0015
 6908SOL    HW123166   1.475   5.293   5.717  0.6888 -0.1077 -0.0700
 6908SOL    HW223167   1.473   5.191   5.605 -0.2677  0.0188 -0.1767
 6909SOL     OW23168   8.789   1.135   1.803  0.7316 -0.3338 -0.2167
 6909SOL    HW123169   8.875   1.095   1.802  1.0001  0.2306 -1.4836
 6909SOL    HW223170   8.737   1.081   1.742  1.1285  1.2296 -2.0249
 6910SOL     OW23171   2.360  10.274   6.897  0.0539  0.3290  0.0053
 6910SOL    HW123172   2.365  10.180   6.881 -1.1161  0.0060  1.3438
 6910SOL    HW223173   2.268  10.291   6.915  0.5300  1.3990  1.6383
 6911SOL     OW23174   1.916   6.913   0.467 -0.4861 -0.0210  0.1311
 6911SOL    HW123175   1.828   6.878   0.484 -0.3404 -0.5167 -0.1165
 6911SOL    HW223176   1.941   6.875   0.383  0.2547 -0.4476  0.5321
 6912SOL     OW23177   9.273   0.767   3.364  0.1661 -0.0323 -0.5593
 6912SOL    HW123178   9.333   0.703   3.325 -0.6994  0.6792 -3.3134
 6912SOL    HW223179   9.327   0.844   3.379  0.6434 -0.5117  0.2187
 6913SOL     OW23180   9.564   2.952   4.793 -0.0709 -0.3038  0.7969
 6913SOL    HW123181   9.482   2.928   4.748  1.1170 -0.3018 -1.5223
 6913SOL    HW223182   9.544   3.036   4.834 -1.3123 -0.4044  0.4434
 6914SOL     OW23183   6.246   8.418   5.329  0.7917  0.1451  0.1759
 6914SOL    HW123184   6.201   8.461   5.401 -0.8943 -2.1416  0.6133
 6914SOL    HW223185   6.248   8.325   5.354  1.4959 -0.5039 -2.0394
 6915SOL     OW23186   4.335   2.200   2.287 -0.3908 -0.1001 -0.2628
 6915SOL    HW123187   4.369   2.111   2.293 -3.2779 -1.2319  1.0829
 6915SOL    HW223188   4.364   2.242   2.368  0.7700  0.1246 -0.7859
 6916SOL     OW23189   7.423   5.607   6.808  0.2891 -0.3965 -0.4955
 6916SOL    HW123190   7.363   5.544   6.848 -0.3696  0.3230 -0.3332
 6916SOL    HW223191   7.406   5.689   6.854  1.7661 -0.2917 -0.1054
 6917SOL     OW23192   2.456   6.830   4.068  0.4246  0.4071  0.2980
 6917SOL    HW123193   2.552   6.835   4.064  0.3970  0.6298 -0.3616
 6917SOL    HW223194   2.437   6.738   4.086  0.7560  0.2082 -0.3322
 6918SOL     OW23195   5.745   1.334   2.411 -0.2762  0.3491  0.0124
 6918SOL    HW123196   5.692   1.364   2.485 -2.1629  0.8454 -1.4880
 6918SOL    HW223197   5.801   1.409   2.390 -1.2182  0.9616 -0.3662
 6919SOL     OW23198   0.148   2.349   3.883  0.2959 -0.1365 -0.2227
 6919SOL    HW123199   0.243   2.350   3.896  0.3484 -1.9790 -0.2061
 6919SOL    HW223200   0.118   2.432   3.920  1.8287  0.1796  0.3842
 6920SOL     OW23201   2.178   3.381  10.217  0.5362 -0.3024 -0.4804
 6920SOL    HW123202   2.104   3.423  10.261  0.2890 -1.8416  0.6198
 6920SOL    HW223203   2.153   3.380  10.125 -0.3327  0.1621 -0.2586
 6921SOL     OW23204   8.538   2.857   8.965  0.3476  0.4310 -0.6416
 6921SOL    HW123205   8.450   2.823   8.949  0.1505  1.1623 -1.1401
 6921SOL    HW223206   8.524   2.942   9.006  0.8189  0.4840 -0.5851
 6922SOL     OW23207   4.541   3.342   5.078  0.4498 -0.2939 -0.1354
 6922SOL    HW123208   4.570   3.281   5.146  1.6080  0.0071 -0.3275
 6922SOL    HW223209   4.494   3.411   5.126  0.3776 -0.5981  0.2400
 6923SOL     OW23210   1.634   7.439   7.495  0.2043  0.4686 -0.5095
 6923SOL    HW123211   1.565   7.378   7.468 -0.4149  0.2890  1.2905
 6923SOL    HW223212   1.705   7.382   7.526  0.8120  0.6623 -1.5235
 6924SOL     OW23213   9.364   8.788   1.326 -0.6826 -0.3579 -0.0412
 6924SOL    HW123214   9.409   8.871   1.341 -1.2613 -0.1592  0.6558
 6924SOL    HW223215   9.395   8.731   1.396 -0.3367 -0.7138 -0.4800
 6925SOL     OW23216   3.339   0.381   6.956  0.2786  0.2455  0.1466
 6925SOL    HW123217   3.409   0.392   6.891 -0.6646  1.5401 -0.7040
 6925SOL    HW223218   3.300   0.468   6.965 -2.5828 -0.7857 -1.0089
 6926SOL     OW23219   0.481   4.258   3.527  0.2666 -0.3596  0.0665
 6926SOL    HW123220   0.442   4.337   3.488  0.9450 -0.2328 -0.3647
 6926SOL    HW223221   0.575   4.266   3.510  0.4691 -0.7627  0.9152
 6927SOL     OW23222   2.931   4.223   6.715  0.2383  0.7110 -0.5218
 6927SOL    HW123223   2.843   4.241   6.681 -0.7166  1.3423  2.0267
 6927SOL    HW223224   2.990   4.249   6.645 -1.5690  1.2964 -1.9032
 6928SOL     OW23225   0.585  10.128   7.577  0.1075  0.5683 -0.4016
 6928SOL    HW123226   0.672  10.089   7.575 -0.8132 -1.6387 -0.3266
 6928SOL    HW223227   0.557  10.128   7.485  1.0336  3.5337 -0.7990
 6929SOL     OW23228   8.584   3.880   3.313 -0.0919 -0.1981 -0.5231
 6929SOL    HW123229   8.584   3.785   3.315  0.3185 -0.1989  1.3258
 6929SOL    HW223230   8.642   3.902   3.240  0.1698 -1.3719 -0.6901
 6930SOL     OW23231   3.561   1.560   5.028  0.1825 -0.1573  0.4545
 6930SOL    HW123232   3.632   1.503   5.057  0.3341  0.2112  0.8246
 6930SOL    HW223233   3.503   1.567   5.104 -0.1505 -0.3061  0.2139
 6931SOL     OW23234   1.941   6.720   6.509  0.4513  0.3782  0.1345
 6931SOL    HW123235   1.894   6.637   6.516 -0.0442  0.6938  0.5757
 6931SOL    HW223236   2.030   6.699   6.539  0.2862  0.0472  0.3998
 6932SOL     OW23237   1.948   1.274   3.503 -0.0633 -0.9951  0.3433
 6932SOL    HW123238   1.871   1.275   3.447  0.4640  0.8298 -0.4144
 6932SOL    HW223239   2.019   1.304   3.447  1.2293 -2.6171  1.0344
 6933SOL     OW23240   7.063   6.713   2.919  0.5769 -0.1214  0.1008
 6933SOL    HW123241   7.008   6.707   2.997  1.1392  0.3560  0.5433
 6933SOL    HW223242   7.136   6.770   2.945 -0.2047  1.6485 -1.3259
 6934SOL     OW23243   0.941   4.185   5.355 -0.0543 -0.1621 -0.4557
 6934SOL    HW123244   0.975   4.191   5.265  1.2123  0.5968  0.0502
 6934SOL    HW223245   0.902   4.271   5.371 -0.3608 -0.3278 -0.3157
 6935SOL     OW23246   7.544   6.637   0.398 -0.2220  0.4562 -0.3045
 6935SOL    HW123247   7.576   6.683   0.320 -0.4595 -0.2085 -0.8133
 6935SOL    HW223248   7.591   6.553   0.396 -0.7062  0.1785 -0.0852
 6936SOL     OW23249   0.296   6.097   1.599  0.1031  0.4416  0.4466
 6936SOL    HW123250   0.353   6.153   1.546 -2.4537  0.3875 -2.7264
 6936SOL    HW223251   0.228   6.156   1.631  0.1423 -0.0138  1.3784
 6937SOL     OW23252  10.215   2.336   1.292 -0.2648  0.1556 -0.0149
 6937SOL    HW123253  10.199   2.416   1.241 -1.8530 -1.0466 -1.4750
 6937SOL    HW223254  10.266   2.280   1.233 -0.5387 -0.5478  0.4099
 6938SOL     OW23255   3.686   3.836   9.566 -0.1538 -0.0603 -0.0796
 6938SOL    HW123256   3.747   3.764   9.547  1.0485  0.5318  1.3099
 6938SOL    HW223257   3.727   3.913   9.528 -1.0835  0.0430 -0.9254
 6939SOL     OW23258   4.733   3.854   8.010 -0.9207 -0.4022 -0.0019
 6939SOL    HW123259   4.673   3.884   7.942 -0.3790 -0.3924 -0.4797
 6939SOL    HW223260   4.740   3.759   7.995  0.4073 -0.1712 -0.9439
 6940SOL     OW23261   9.838   2.060   0.628 -0.2299 -0.3147  0.2629
 6940SOL    HW123262   9.885   2.130   0.582  0.8386 -1.6946 -0.8308
 6940SOL    HW223263   9.772   2.031   0.565 -1.0365  0.0678  0.9241
 6941SOL     OW23264   3.249   2.425  10.210  0.1091 -0.2803  0.1563
 6941SOL    HW123265   3.203   2.475  10.277  2.1423 -0.4649  1.7707
 6941SOL    HW223266   3.237   2.334  10.236 -0.7121 -0.4910 -0.8720
 6942SOL     OW23267   3.432   6.377   6.389 -0.4689 -0.0012 -0.2319
 6942SOL    HW123268   3.427   6.282   6.391  0.0975 -0.0488  2.1451
 6942SOL    HW223269   3.512   6.396   6.340  0.1207 -0.8190  0.3878
 6943SOL     OW23270   3.022   9.858   5.328 -0.4646 -0.6342 -0.3083
 6943SOL    HW123271   3.064   9.887   5.246 -1.3184 -1.7297 -1.1597
 6943SOL    HW223272   3.084   9.885   5.397  1.4439 -1.7712 -1.4731
 6944SOL     OW23273   9.766   9.078   4.635 -0.0024  0.8860 -0.3010
 6944SOL    HW123274   9.782   9.009   4.700  1.2835  0.4212 -1.0620
 6944SOL    HW223275   9.849   9.084   4.586 -0.3737  2.4059 -0.7872
 6945SOL     OW23276   9.592   3.013   1.932  0.4432 -0.0576  0.3391
 6945SOL    HW123277   9.670   2.988   1.883 -0.9574 -0.8780 -1.5803
 6945SOL    HW223278   9.556   3.088   1.885  0.2437  0.5570  1.4269
 6946SOL     OW23279   7.042   9.898   9.613 -0.5425 -0.2327  0.2424
 6946SOL    HW123280   6.980   9.971   9.615 -0.4936 -0.1045 -1.3848
 6946SOL    HW223281   7.118   9.929   9.661  1.6102  2.9027 -4.4444
 6947SOL     OW23282   3.560   8.398   4.066 -0.0680 -0.1644  0.0676
 6947SOL    HW123283   3.603   8.416   3.982  0.3058  1.5472  0.5866
 6947SOL    HW223284   3.603   8.457   4.128  0.1205 -1.8580  1.6294
 6948SOL     OW23285   7.930   4.101   7.075 -0.2078  0.6259  0.3312
 6948SOL    HW123286   7.983   4.143   7.007 -1.5279  2.8616  0.5921
 6948SOL    HW223287   7.994   4.059   7.133  1.0081 -0.3915 -1.6085
 6949SOL     OW23288   7.500   1.514   7.286 -0.2506  0.0890 -0.4479
 6949SOL    HW123289   7.495   1.610   7.277  1.8251  0.2218 -0.6679
 6949SOL    HW223290   7.414   1.489   7.321 -0.4908  2.1568  0.6077
 6950SOL     OW23291   3.612   1.645   4.317 -0.0965  0.4190  0.2773
 6950SOL    HW123292   3.603   1.565   4.369  0.1245  0.6900  0.7458
 6950SOL    HW223293   3.596   1.715   4.380  3.3052  0.9004  0.7793
 6951SOL     OW23294   7.118   6.090   0.462  0.2619  0.1866  0.1564
 6951SOL    HW123295   7.040   6.038   0.442  1.1045 -0.8347 -0.5332
 6951SOL    HW223296   7.116   6.161   0.397  0.1562 -0.1123 -0.1708
 6952SOL     OW23297   6.144   8.317   7.819  0.4103  0.4057  0.0489
 6952SOL    HW123298   6.215   8.332   7.881  1.3154 -1.1154 -0.5648
 6952SOL    HW223299   6.154   8.387   7.754  1.2364  0.3154  0.0751
 6953SOL     OW23300   6.317   6.139   4.371 -0.1262 -0.2495 -0.3595
 6953SOL    HW123301   6.232   6.125   4.328 -0.6528  0.3703  0.4681
 6953SOL    HW223302   6.366   6.193   4.309 -0.3429 -0.5907 -0.8342
 6954SOL     OW23303   7.361   0.905   4.834  0.0028  0.2256 -0.4687
 6954SOL    HW123304   7.311   0.879   4.912  0.1453  1.1249 -0.0728
 6954SOL    HW223305   7.435   0.844   4.831 -1.7595 -2.0376 -1.8188
 6955SOL     OW23306   2.048   9.026   7.909  0.1910 -1.0567 -0.3537
 6955SOL    HW123307   1.961   9.008   7.944 -1.4784  2.3359 -2.3044
 6955SOL    HW223308   2.048   8.983   7.823 -0.8437  1.4367 -1.6779
 6956SOL     OW23309   3.248   9.106   1.692 -0.3702 -0.4404 -0.2343
 6956SOL    HW123310   3.158   9.126   1.717  0.0620  1.5619 -0.0957
 6956SOL    HW223311   3.244   9.087   1.599 -1.0286 -1.1084 -0.0771
 6957SOL     OW23312   2.290   3.461   3.498  0.3118 -0.0870  0.2128
 6957SOL    HW123313   2.301   3.374   3.458  2.2879 -0.5248  1.5938
 6957SOL    HW223314   2.322   3.451   3.587 -0.2966  1.8624  0.6963
 6958SOL     OW23315   9.726   5.644   3.400  0.3450  0.2508 -0.1199
 6958SOL    HW123316   9.665   5.717   3.406  0.9435  0.8157 -0.8226
 6958SOL    HW223317   9.695   5.592   3.326 -1.0650 -1.1636  1.3650
 6959SOL     OW23318   7.301   7.318   9.478 -0.6055  0.2193  0.2504
 6959SOL    HW123319   7.358   7.380   9.434 -1.0984  1.4077  1.2153
 6959SOL    HW223320   7.244   7.284   9.409 -0.7120  1.2879 -0.2039
 6960SOL     OW23321   4.809   6.038   2.677 -0.0006 -0.2436 -0.3732
 6960SOL    HW123322   4.867   6.026   2.752 -0.6741  1.0771  0.4094
 6960SOL    HW223323   4.868   6.053   2.603  0.6707 -0.6298  0.0746
 6961SOL     OW23324   4.763   6.190   7.492  0.3546  0.2968 -0.3870
 6961SOL    HW123325   4.823   6.118   7.511  2.3517  1.6029 -1.4734
 6961SOL    HW223326   4.789   6.260   7.551  0.1366  0.9926 -1.0985
 6962SOL     OW23327   1.923   7.613   6.037  0.0553  0.4146 -0.0631
 6962SOL    HW123328   1.870   7.603   5.958  0.8108  0.0755 -0.5343
 6962SOL    HW223329   2.014   7.607   6.006  0.3903  1.4805  0.6587
 6963SOL     OW23330   6.255   3.300   5.801  0.5299  0.5775 -0.3328
 6963SOL    HW123331   6.236   3.379   5.852 -1.2002 -1.3607  2.3038
 6963SOL    HW223332   6.331   3.262   5.844 -1.1232 -1.2347  1.1927
 6964SOL     OW23333   4.310  10.287   8.705 -0.1333  0.2379 -0.3755
 6964SOL    HW123334   4.275  10.320   8.788 -0.3780 -0.8228 -0.0465
 6964SOL    HW223335   4.358  10.362   8.668  1.1534  0.3544  1.3663
 6965SOL     OW23336   7.545   1.937   0.715  0.0527  0.3952 -0.5647
 6965SOL    HW123337   7.471   1.885   0.683  0.0407  0.8976 -1.3706
 6965SOL    HW223338   7.520   1.961   0.805 -0.7137  0.4714 -0.7872
 6966SOL     OW23339   9.486   5.791   7.693 -0.1606  0.2902  0.2944
 6966SOL    HW123340   9.488   5.836   7.778 -0.5167  2.2552 -0.6842
 6966SOL    HW223341   9.559   5.829   7.644 -1.1528  0.6804 -0.9546
 6967SOL     OW23342   4.299   9.678   0.832 -0.2703  0.1396 -0.2458
 6967SOL    HW123343   4.290   9.706   0.741 -0.4854 -0.6428 -0.4667
 6967SOL    HW223344   4.325   9.586   0.827  2.7000  0.8096  0.4347
 6968SOL     OW23345  10.486   5.030   4.953 -0.1908  0.0163 -0.4085
 6968SOL    HW123346  10.513   5.015   4.863  0.2404 -1.0948 -0.1099
 6968SOL    HW223347  10.556   5.085   4.990  0.2241 -0.4728 -0.4449
 6969SOL     OW23348   6.193   6.323   1.834  0.4373  0.1672 -0.0770
 6969SOL    HW123349   6.255   6.357   1.898  0.8144 -0.3526 -0.1617
 6969SOL    HW223350   6.109   6.362   1.858  0.8422  1.0675 -0.1137
 6970SOL     OW23351   8.400   9.022  10.435 -0.2698  0.1974  0.0157
 6970SOL    HW123352   8.342   9.098  10.432 -1.9537 -1.0563 -1.0649
 6970SOL    HW223353   8.431   9.011  10.345  1.4978  0.6831  0.5224
 6971SOL     OW23354   7.282   4.927   6.642 -0.3585  0.2162  0.2946
 6971SOL    HW123355   7.187   4.921   6.630 -0.4186 -0.8821  1.1206
 6971SOL    HW223356   7.294   5.003   6.700 -0.8724 -0.5130  1.3932
 6972SOL     OW23357   1.126   4.200   0.852 -0.1266 -0.3368 -0.2342
 6972SOL    HW123358   1.112   4.192   0.947 -2.1446  2.1198 -0.2268
 6972SOL    HW223359   1.044   4.237   0.819  1.3810  1.1501 -2.5693
 6973SOL     OW23360   5.629   8.135   5.861  0.6912  0.4126  0.2786
 6973SOL    HW123361   5.662   8.182   5.937 -0.5247 -0.9665  1.7475
 6973SOL    HW223362   5.639   8.042   5.884  0.9673 -0.0553 -1.5637
 6974SOL     OW23363  10.232   8.225   4.682 -0.5392 -0.5207  0.1941
 6974SOL    HW123364  10.267   8.168   4.750  1.0560 -1.0639 -1.0238
 6974SOL    HW223365  10.141   8.196   4.671 -0.2357 -1.7258  0.7458
 6975SOL     OW23366  10.472   4.159   1.222 -0.4825 -0.0079 -0.1036
 6975SOL    HW123367  10.396   4.213   1.243 -1.0029 -0.5794 -0.4729
 6975SOL    HW223368  10.538   4.183   1.287 -0.4586  1.5308 -0.6405
 6976SOL     OW23369   0.173   5.172   6.379 -0.2287  0.3490  0.2515
 6976SOL    HW123370   0.224   5.132   6.307  1.0069  2.4375 -0.1131
 6976SOL    HW223371   0.100   5.215   6.335 -1.1498 -0.8140  0.5792
 6977SOL     OW23372   5.205   5.319   7.021  0.0610  0.2982  0.1165
 6977SOL    HW123373   5.211   5.241   7.076 -0.6756  0.1338 -0.0172
 6977SOL    HW223374   5.222   5.287   6.932 -0.4825  0.2313  0.0286
 6978SOL     OW23375   7.529   3.751   1.679 -0.3799 -0.3390  0.3134
 6978SOL    HW123376   7.465   3.807   1.722 -2.4454 -2.5834  0.3673
 6978SOL    HW223377   7.566   3.806   1.609 -0.5901  1.7589  1.7592
 6979SOL     OW23378   6.627   1.298   3.500  0.0457  0.7686 -0.4785
 6979SOL    HW123379   6.599   1.328   3.587 -0.8450 -0.7464 -0.2039
 6979SOL    HW223380   6.659   1.377   3.457 -0.9888  1.8586  0.6556
 6980SOL     OW23381   4.180   3.223   6.574 -0.0145  0.3381 -0.0093
 6980SOL    HW123382   4.198   3.247   6.483 -2.6149 -0.3395 -0.7782
 6980SOL    HW223383   4.255   3.258   6.623  1.0111  1.5245 -2.2603
 6981SOL     OW23384   4.078   1.288   9.796  0.3467 -0.1150  0.7755
 6981SOL    HW123385   4.110   1.249   9.715  0.0090  0.9564  0.1110
 6981SOL    HW223386   4.043   1.214   9.846  2.9578 -1.2208  1.1367
 6982SOL     OW23387   7.970   0.656   3.947 -0.8404  0.0812  0.0647
 6982SOL    HW123388   7.886   0.699   3.927 -0.8892 -0.0089  0.0718
 6982SOL    HW223389   7.946   0.565   3.965 -0.5065 -0.5688 -2.3602
 6983SOL     OW23390   1.515   8.946   0.019  0.5836  0.7272  0.0801
 6983SOL    HW123391   1.579   8.896   0.071 -1.7654 -0.2447  2.2828
 6983SOL    HW223392   1.514   8.902  -0.066  1.2842 -0.6403  0.7399
 6984SOL     OW23393   0.734  10.255   6.623 -0.0379 -0.2490  0.3184
 6984SOL    HW123394   0.666  10.241   6.689  1.7844  1.6107  2.7993
 6984SOL    HW223395   0.706  10.333   6.575 -0.3132 -0.3093  0.3793
 6985SOL     OW23396   9.577   2.087   4.620 -0.0894  0.0256 -0.3239
 6985SOL    HW123397   9.657   2.128   4.586 -0.8599  0.1956 -2.0650
 6985SOL    HW223398   9.591   2.081   4.714  1.1880  1.7762 -0.3505
 6986SOL     OW23399   0.741   3.724   1.497 -0.1458  0.0023  0.4607
 6986SOL    HW123400   0.666   3.761   1.450  1.9746  2.7339 -1.0557
 6986SOL    HW223401   0.770   3.651   1.443 -1.1011 -0.4903  0.5848
 6987SOL     OW23402   9.963   0.793   6.764 -0.6273 -0.7359  0.2454
 6987SOL    HW123403  10.057   0.777   6.769 -0.3198  0.3753 -1.2999
 6987SOL    HW223404   9.932   0.731   6.698 -0.7551 -0.2562 -0.1501
 6988SOL     OW23405   1.839   8.176   3.803  0.0740 -0.3923 -0.1499
 6988SOL    HW123406   1.871   8.221   3.881  0.1489  0.0174 -0.4127
 6988SOL    HW223407   1.789   8.243   3.755 -0.4075 -0.7790 -0.1968
 6989SOL     OW23408   8.928   5.656  10.425  0.3336 -0.4784  0.0923
 6989SOL    HW123409   8.967   5.692  10.345 -0.2103 -1.7933 -0.8079
 6989SOL    HW223410   8.892   5.732  10.470  1.1094  0.3593 -0.6476
 6990SOL     OW23411   6.819   9.195   9.612 -0.1445  0.0467  0.4018
 6990SOL    HW123412   6.903   9.233   9.638 -0.3098  1.0984 -0.5452
 6990SOL    HW223413   6.841   9.106   9.583  0.6611  0.3369  0.0904
 6991SOL     OW23414   3.542   2.368   9.981 -0.2023 -0.4696  0.0236
 6991SOL    HW123415   3.531   2.284  10.025  0.5155 -1.3823 -1.4478
 6991SOL    HW223416   3.460   2.382   9.934 -0.7777  0.2623  1.2022
 6992SOL     OW23417   2.464   3.022   3.797 -0.3554 -0.2120 -0.0612
 6992SOL    HW123418   2.533   2.985   3.852  0.4310  0.2505 -0.7081
 6992SOL    HW223419   2.511   3.066   3.726 -1.3257 -0.1124 -0.6659
 6993SOL     OW23420   7.628  10.405   8.212  0.1045  0.1021 -0.7233
 6993SOL    HW123421   7.700  10.407   8.149  1.7914 -0.1109  1.0949
 6993SOL    HW223422   7.595  10.495   8.215 -0.7482 -0.0943 -2.6344
 6994SOL     OW23423   3.926   0.284   3.278  0.0524 -0.2356  0.0716
 6994SOL    HW123424   3.835   0.305   3.256  0.3275  0.3447 -0.5490
 6994SOL    HW223425   3.933   0.308   3.371 -0.2385  0.4156 -0.0616
 6995SOL     OW23426   9.654   1.228   7.276 -0.0070 -0.5124  0.1768
 6995SOL    HW123427   9.684   1.173   7.204 -0.2040 -1.3615  0.7315
 6995SOL    HW223428   9.603   1.298   7.234 -0.7320 -1.4088 -0.4562
 6996SOL     OW23429   7.198   2.077   7.644 -0.0346 -0.0721  0.3809
 6996SOL    HW123430   7.202   2.173   7.637 -2.9297  0.0799 -0.5093
 6996SOL    HW223431   7.143   2.061   7.720 -0.3146 -1.0197 -0.0159
 6997SOL     OW23432   0.335   7.235   9.007  0.5033  0.0542 -0.3621
 6997SOL    HW123433   0.252   7.283   9.010  0.4244 -0.1071  0.9463
 6997SOL    HW223434   0.313   7.147   9.037  1.2389  0.1782  0.6055
 6998SOL     OW23435   4.035   0.214   8.686  0.0647 -0.3570  0.4286
 6998SOL    HW123436   3.954   0.199   8.734  0.1988 -2.9369  0.0053
 6998SOL    HW223437   4.047   0.309   8.687 -2.9766  0.1154  0.4191
 6999SOL     OW23438   3.431   6.287   0.280 -0.1820 -0.1948  0.1411
 6999SOL    HW123439   3.455   6.355   0.343  2.5555 -0.7418 -0.1920
 6999SOL    HW223440   3.471   6.315   0.198  2.7343 -2.9763  0.4153
 7000SOL     OW23441   6.002   3.327   6.852 -0.3409  0.0988 -0.5714
 7000SOL    HW123442   6.046   3.348   6.934 -0.1242  0.2779 -0.7328
 7000SOL    HW223443   6.032   3.238   6.831 -1.6805 -0.6052  0.3900
 7001SOL     OW23444   4.722   9.307   4.530  0.0452  0.3086 -0.2147
 7001SOL    HW123445   4.802   9.357   4.517  1.3579 -1.1196  1.7608
 7001SOL    HW223446   4.739   9.254   4.608 -2.9480  0.1712  0.4816
 7002SOL     OW23447  10.046   0.979   5.627 -0.3713 -0.4447 -0.1514
 7002SOL    HW123448  10.061   0.919   5.700 -1.4725 -0.6730 -0.0977
 7002SOL    HW223449  10.036   0.922   5.550 -0.4548 -0.2807 -0.2645
 7003SOL     OW23450   8.916   1.008   0.284 -0.2428 -0.6568  0.3901
 7003SOL    HW123451   8.915   0.941   0.216 -2.0543 -1.6085  1.2549
 7003SOL    HW223452   9.004   1.044   0.283  0.0769 -1.4184 -1.6866
 7004SOL     OW23453   7.643   6.314   8.975  0.4461  0.0340 -0.2319
 7004SOL    HW123454   7.692   6.395   8.987 -1.4848  1.4790 -1.5432
 7004SOL    HW223455   7.640   6.275   9.063  2.1620  0.8721  0.2544
 7005SOL     OW23456   6.593   1.726  10.005  0.4680 -0.2536 -0.2537
 7005SOL    HW123457   6.643   1.654   9.966  0.4077 -0.0641 -0.6889
 7005SOL    HW223458   6.656   1.769  10.063  0.5249 -0.6104 -0.0455
 7006SOL     OW23459   9.105   8.988   7.644 -0.1935  0.0508 -0.8158
 7006SOL    HW123460   9.147   8.987   7.558  0.8932  1.3039 -0.3416
 7006SOL    HW223461   9.141   9.066   7.687 -0.9497 -0.3758  0.6525
 7007SOL     OW23462   7.879   4.332   7.300  0.1909 -0.1019  0.3962
 7007SOL    HW123463   7.864   4.425   7.318 -0.0190  0.0418 -0.4914
 7007SOL    HW223464   7.973   4.325   7.286  0.1405  0.0743 -0.0512
 7008SOL     OW23465   7.026   4.952   2.249 -0.0991 -0.1696  0.1146
 7008SOL    HW123466   6.931   4.957   2.239 -0.1023  0.7418  0.5540
 7008SOL    HW223467   7.057   5.041   2.233  0.7316 -0.5413 -0.4346
 7009SOL     OW23468   7.749   2.834   3.462  0.4200  0.1444 -0.2159
 7009SOL    HW123469   7.788   2.837   3.550  0.5789  0.0417 -0.2833
 7009SOL    HW223470   7.690   2.758   3.465  0.7794 -0.1379 -0.3472
 7010SOL     OW23471   4.752   8.585   1.822  0.2215 -0.0649 -0.7482
 7010SOL    HW123472   4.840   8.548   1.835 -0.0270 -0.6667 -0.7723
 7010SOL    HW223473   4.698   8.542   1.888 -0.5274 -1.3518 -2.1506
 7011SOL     OW23474   2.859   0.214   6.193  0.1676 -0.1864  0.2305
 7011SOL    HW123475   2.890   0.273   6.261 -0.4489 -0.2604  0.5840
 7011SOL    HW223476   2.796   0.156   6.238 -0.1260 -0.3354 -0.3616
 7012SOL     OW23477   4.701   3.787   3.870  0.2853  0.4921 -0.1737
 7012SOL    HW123478   4.609   3.811   3.884 -0.1067 -0.8252 -0.3438
 7012SOL    HW223479   4.697   3.703   3.824  1.5660  1.5198 -2.3391
 7013SOL     OW23480   2.591   6.953   2.592  0.1158 -0.0033 -0.3785
 7013SOL    HW123481   2.638   6.912   2.519  1.9228  0.5492  0.4135
 7013SOL    HW223482   2.571   6.880   2.651  1.1034 -0.1124 -0.1521
 7014SOL     OW23483  10.432   3.118   8.914 -0.1155 -0.0798  0.0921
 7014SOL    HW123484  10.385   3.201   8.911  0.3693  0.2435  1.0166
 7014SOL    HW223485  10.395   3.067   8.842 -0.4016  0.9412 -0.5129
 7015SOL     OW23486   4.297   0.518   2.986  0.1031  0.1299  0.2215
 7015SOL    HW123487   4.337   0.604   2.996 -2.1826  1.2863 -0.0128
 7015SOL    HW223488   4.257   0.500   3.071 -1.0765  0.2007 -0.3022
 7016SOL     OW23489   3.872   3.122   6.478  0.1097  0.0112  0.0711
 7016SOL    HW123490   3.787   3.107   6.520  0.3967  0.5723  0.8614
 7016SOL    HW223491   3.885   3.216   6.482  0.5683 -0.0261 -0.4529
 7017SOL     OW23492   7.208   3.558   8.132  0.4756 -0.0522 -0.1502
 7017SOL    HW123493   7.130   3.605   8.160 -0.2034 -0.4462 -1.3023
 7017SOL    HW223494   7.258   3.622   8.081  2.0187  0.8532  2.3393
 7018SOL     OW23495   6.054   7.780   1.279 -0.5122  0.2327  0.2819
 7018SOL    HW123496   5.963   7.809   1.289 -0.5134  1.0139 -1.6697
 7018SOL    HW223497   6.104   7.861   1.273  0.3985 -0.1888  1.6073
 7019SOL     OW23498   2.767   9.752   2.583 -0.4393 -0.0456  0.6149
 7019SOL    HW123499   2.712   9.789   2.514 -1.4666 -1.6746  0.4964
 7019SOL    HW223500   2.724   9.669   2.606  2.3489 -1.7775  0.0258
 7020SOL     OW23501   9.792   8.795   1.523 -0.2040 -0.0534 -0.0231
 7020SOL    HW123502   9.881   8.772   1.552 -0.5811 -2.0002 -0.2903
 7020SOL    HW223503   9.805   8.871   1.466  1.3755 -0.6525 -0.5318
 7021SOL     OW23504   2.047   3.862   1.697  0.1101  0.7945  0.1276
 7021SOL    HW123505   2.071   3.827   1.783 -0.5847 -1.6227 -0.5916
 7021SOL    HW223506   2.131   3.888   1.657  0.4041  2.3678  1.6277
 7022SOL     OW23507   3.609   1.824   4.961  0.1774  0.2235 -0.5477
 7022SOL    HW123508   3.577   1.734   4.960  0.1268  0.2426 -1.0473
 7022SOL    HW223509   3.696   1.818   5.001  0.0409 -0.0004 -0.2840
 7023SOL     OW23510   3.156   0.599   4.314 -0.2302 -0.4086  0.3689
 7023SOL    HW123511   3.209   0.521   4.333  0.3976  0.2918  1.6200
 7023SOL    HW223512   3.096   0.570   4.245 -1.0558 -2.4635  1.8489
 7024SOL     OW23513   8.004  10.300   0.791  0.2397  0.2619 -0.2965
 7024SOL    HW123514   8.057  10.224   0.815 -0.6507  0.0278  1.0502
 7024SOL    HW223515   8.040  10.329   0.708  0.9114 -1.3534 -0.6093
 7025SOL     OW23516   3.946   4.208   2.175 -0.2441  0.3473  0.2043
 7025SOL    HW123517   4.023   4.264   2.172  0.2541 -0.3072  0.4299
 7025SOL    HW223518   3.876   4.264   2.208 -0.8004  1.9699 -3.2210
 7026SOL     OW23519   6.472   2.744   3.434 -0.0688  0.2459 -0.3673
 7026SOL    HW123520   6.413   2.765   3.361  0.2054  0.0321 -0.6557
 7026SOL    HW223521   6.432   2.668   3.476 -1.2044  1.4603  0.8401
 7027SOL     OW23522   7.918   0.717   9.982  0.7112  0.3174  0.5575
 7027SOL    HW123523   7.854   0.784   9.958  1.3074  2.0666  3.3310
 7027SOL    HW223524   7.865   0.646  10.019  0.2272  0.4817  0.1963
 7028SOL     OW23525   8.474   8.151   0.276 -0.6360  0.2660 -0.6574
 7028SOL    HW123526   8.443   8.145   0.186  1.8014  0.7299 -1.5975
 7028SOL    HW223527   8.544   8.086   0.282  0.7171  1.7404  0.2154
 7029SOL     OW23528   2.758   2.497   1.122 -0.5989  0.2307 -0.1946
 7029SOL    HW123529   2.818   2.571   1.119 -1.3340  0.8470 -0.0963
 7029SOL    HW223530   2.808   2.427   1.164  0.3803  0.3954 -1.0539
 7030SOL     OW23531   8.489   1.413   8.275  0.1624  0.0384 -0.2601
 7030SOL    HW123532   8.573   1.388   8.236 -0.7309 -0.8021 -1.7971
 7030SOL    HW223533   8.479   1.355   8.350  1.5896  1.1558  0.8352
 7031SOL     OW23534   6.315   1.796   7.327  0.5931 -0.0119  0.2529
 7031SOL    HW123535   6.247   1.825   7.387  1.3763 -0.0606  1.1801
 7031SOL    HW223536   6.341   1.876   7.280  1.8473  0.6128  1.9007
 7032SOL     OW23537  10.167   3.383   3.119  0.0797  0.2170 -0.3617
 7032SOL    HW123538  10.189   3.451   3.056 -1.0053 -0.3262 -1.3602
 7032SOL    HW223539  10.089   3.341   3.083  0.7430 -1.5912  0.1960
 7033SOL     OW23540   1.911   1.036   1.017  0.1547  0.5122 -0.3996
 7033SOL    HW123541   1.881   1.109   0.963  0.9193 -0.0878 -1.6753
 7033SOL    HW223542   1.846   0.967   1.001  0.8193  0.0592 -1.2122
 7034SOL     OW23543   0.674   5.985   0.386  0.0019  0.5302 -0.2185
 7034SOL    HW123544   0.595   6.035   0.365 -1.2508 -0.9166  0.8395
 7034SOL    HW223545   0.735   6.050   0.419 -1.3609  1.4708  0.5333
 7035SOL     OW23546   7.319   3.460   2.298  0.1690  0.6032 -0.0404
 7035SOL    HW123547   7.329   3.434   2.206 -2.4733  2.0551 -0.8440
 7035SOL    HW223548   7.376   3.536   2.308  0.2862  0.5877 -0.5591
 7036SOL     OW23549   0.227   5.655   5.760 -0.3545  0.0118  0.0733
 7036SOL    HW123550   0.214   5.699   5.845 -2.1641 -0.1159 -0.0952
 7036SOL    HW223551   0.220   5.726   5.696  0.2092 -0.0122 -0.0158
 7037SOL     OW23552   6.029   3.619   1.696 -0.0673  0.6299  0.1517
 7037SOL    HW123553   5.948   3.657   1.732 -0.2873 -0.3996  0.8010
 7037SOL    HW223554   6.007   3.526   1.684  0.3482  0.7479 -1.6832
 7038SOL     OW23555   2.272   9.892   2.462  0.1488  0.7367 -0.1267
 7038SOL    HW123556   2.234   9.839   2.392  0.2412 -0.7130  0.8795
 7038SOL    HW223557   2.197   9.927   2.509  0.0637  0.3622  0.0250
 7039SOL     OW23558   4.621   4.051   7.016 -0.0451 -0.1733  0.1538
 7039SOL    HW123559   4.631   4.131   7.067 -0.4356  0.7872 -1.2003
 7039SOL    HW223560   4.671   3.985   7.063 -0.6473  0.5796  1.9233
 7040SOL     OW23561   3.522  10.483   0.143  0.6400  0.6730  0.7365
 7040SOL    HW123562   3.521  10.577   0.126 -0.2112  0.7021  0.8679
 7040SOL    HW223563   3.430  10.458   0.138  0.5195  0.3512  3.3711
 7041SOL     OW23564   7.425   9.812   2.543 -0.2852  0.2181 -0.1565
 7041SOL    HW123565   7.468   9.859   2.614 -0.4595  0.5163 -0.2477
 7041SOL    HW223566   7.350   9.769   2.584  0.3390 -0.6703  0.0937
 7042SOL     OW23567   4.101   8.356   5.057 -0.1249 -0.0275 -0.7213
 7042SOL    HW123568   4.103   8.263   5.034 -2.4829 -0.1998 -0.4303
 7042SOL    HW223569   4.010   8.382   5.047 -0.1582  1.4382  2.2636
 7043SOL     OW23570   7.576  10.206   0.261  0.2157 -0.1771 -0.0027
 7043SOL    HW123571   7.589  10.127   0.313  0.8187  0.1312  0.3255
 7043SOL    HW223572   7.580  10.176   0.170  2.8360 -0.2196  0.0456
 7044SOL     OW23573   7.040   3.007   6.285  0.8056 -0.5824  0.2094
 7044SOL    HW123574   7.007   2.920   6.310  0.9819 -0.2058  1.8220
 7044SOL    HW223575   7.091   3.036   6.360 -0.5588  1.5961  0.3699
 7045SOL     OW23576   4.813   7.237   6.143 -0.0783 -0.0172 -0.4880
 7045SOL    HW123577   4.874   7.255   6.072  0.2945  0.5295 -0.0375
 7045SOL    HW223578   4.801   7.321   6.186  0.0242 -0.4174  0.3482
 7046SOL     OW23579   3.787   8.158   3.168  0.2047  0.2507 -0.3356
 7046SOL    HW123580   3.837   8.082   3.139  0.5278 -0.1971  1.2849
 7046SOL    HW223581   3.699   8.144   3.132  0.4171 -0.5806 -0.5487
 7047SOL     OW23582   8.023   8.344  10.053  0.2739  0.4745 -0.1289
 7047SOL    HW123583   7.995   8.254  10.038 -0.1228  0.3750  1.1045
 7047SOL    HW223584   7.944   8.396  10.044  0.4863  0.7099 -0.7508
 7048SOL     OW23585   8.129   1.947   7.107  0.4537  0.1045 -0.2167
 7048SOL    HW123586   8.063   1.880   7.120 -0.2279  0.8060 -0.0004
 7048SOL    HW223587   8.182   1.915   7.034 -1.2968  0.4145 -1.6789
 7049SOL     OW23588   8.000   2.328   0.395 -0.2180  0.3103 -0.1280
 7049SOL    HW123589   7.959   2.243   0.413  1.5323 -1.0863 -2.1745
 7049SOL    HW223590   8.094   2.313   0.409  0.3611  1.2484 -2.4865
 7050SOL     OW23591   6.945   1.995   7.766 -0.2331 -0.0783  0.3208
 7050SOL    HW123592   6.911   2.053   7.697  0.1336  0.3649  0.5048
 7050SOL    HW223593   6.919   2.039   7.847 -1.3344 -0.9875  0.4855
 7051SOL     OW23594   4.947   9.091   2.058  0.1461  0.2802 -0.2057
 7051SOL    HW123595   4.864   9.068   2.100 -0.5527  3.2543  0.2699
 7051SOL    HW223596   4.984   9.159   2.114  1.8636  0.5512 -1.5763
 7052SOL     OW23597   7.902   9.826   7.799  0.0020 -0.1112  0.3487
 7052SOL    HW123598   7.996   9.833   7.783 -0.1933  1.1236 -0.4063
 7052SOL    HW223599   7.895   9.798   7.890  1.0960 -1.4116  0.0630
 7053SOL     OW23600   7.044   3.805   5.913  0.0039  0.9408 -0.0917
 7053SOL    HW123601   7.133   3.773   5.904 -0.4994 -0.5251 -0.1961
 7053SOL    HW223602   7.017   3.827   5.824 -0.2091  0.0277 -0.2567
 7054SOL     OW23603  10.024   6.241   4.073  0.2476  0.2977  0.1761
 7054SOL    HW123604  10.057   6.313   4.128 -0.6619  0.9726 -0.1406
 7054SOL    HW223605   9.938   6.271   4.043 -0.5988 -1.3570  0.8338
 7055SOL     OW23606   0.190   4.210   3.018  0.1281 -0.2914 -0.9840
 7055SOL    HW123607   0.227   4.296   3.036 -1.7683  0.3558  0.1606
 7055SOL    HW223608   0.206   4.160   3.099 -2.8488  0.5720  0.2836
 7056SOL     OW23609   5.375   7.495   8.740  0.0330 -0.5463 -0.1907
 7056SOL    HW123610   5.421   7.422   8.781  0.5500 -1.6291 -2.5142
 7056SOL    HW223611   5.314   7.527   8.807 -0.6070 -3.4590  0.7441
 7057SOL     OW23612   9.151   2.784   2.945 -0.0722 -0.1697  0.0590
 7057SOL    HW123613   9.192   2.727   2.880 -1.0988 -2.3518  1.2235
 7057SOL    HW223614   9.195   2.762   3.027 -0.1294  1.1300  0.4582
 7058SOL     OW23615   3.997   8.082   7.363  0.0041  0.5679 -0.1722
 7058SOL    HW123616   4.047   8.150   7.318  2.5246 -0.4169  0.9537
 7058SOL    HW223617   3.989   8.113   7.453 -0.0313 -0.0190  0.0298
 7059SOL     OW23618   0.121   4.812   7.269  0.1020  0.0473  0.4023
 7059SOL    HW123619   0.206   4.821   7.227  0.3814 -1.4119  0.6153
 7059SOL    HW223620   0.092   4.723   7.248  0.1101 -0.6544  2.9986
 7060SOL     OW23621   5.463   3.906   6.265 -0.2922  0.2837  0.1813
 7060SOL    HW123622   5.543   3.917   6.317  0.0027  0.2954 -0.2710
 7060SOL    HW223623   5.467   3.816   6.234  0.4513  0.7965 -1.3141
 7061SOL     OW23624   7.987   1.198   2.553  0.1857  0.3078  0.0149
 7061SOL    HW123625   7.924   1.266   2.575  0.0620  0.1342  0.1909
 7061SOL    HW223626   8.023   1.170   2.637  0.1799  0.0998 -0.0516
 7062SOL     OW23627   8.913   2.854   6.778 -0.1561  0.1688 -0.0777
 7062SOL    HW123628   8.861   2.793   6.725 -0.6847  1.2805 -0.8583
 7062SOL    HW223629   9.003   2.832   6.757 -0.3433 -0.2172 -0.5065
 7063SOL     OW23630   2.890   6.476   0.707 -0.5998  0.6158  0.3299
 7063SOL    HW123631   2.921   6.431   0.628 -2.3515  1.8376 -1.1536
 7063SOL    HW223632   2.937   6.559   0.707 -3.0000  2.0965 -1.4407
 7064SOL     OW23633   1.086   4.083   9.477 -0.4695  0.0232  0.4217
 7064SOL    HW123634   1.052   4.170   9.455 -1.7726 -0.9952 -1.8740
 7064SOL    HW223635   1.150   4.064   9.409  0.0520 -0.7032  1.0950
 7065SOL     OW23636   1.896   0.824   9.421 -0.1701 -0.4418 -0.0364
 7065SOL    HW123637   1.985   0.796   9.401 -0.5033 -1.0575 -0.7085
 7065SOL    HW223638   1.888   0.911   9.383  0.2822 -0.2065  0.4100
 7066SOL     OW23639   0.386  10.030   9.602  0.2093 -0.1206  0.3354
 7066SOL    HW123640   0.423  10.025   9.690  0.6876 -4.4268  0.1076
 7066SOL    HW223641   0.292  10.021   9.615  0.2959 -0.9653  0.4741
 7067SOL     OW23642  10.327   9.801   8.718  0.0357  0.1918 -0.6288
 7067SOL    HW123643  10.416   9.767   8.722 -0.3674 -0.9173 -0.7942
 7067SOL    HW223644  10.321   9.862   8.793  0.8403  0.0823 -0.4721
 7068SOL     OW23645   1.686   3.354   1.403 -0.7850 -0.0461  0.0970
 7068SOL    HW123646   1.621   3.361   1.333 -1.8716  1.1370  1.1791
 7068SOL    HW223647   1.770   3.366   1.358 -1.2848 -1.5383 -1.3154
 7069SOL     OW23648   0.375   8.605   9.724  0.5255  0.2736 -0.3933
 7069SOL    HW123649   0.373   8.663   9.648 -0.6457 -0.6584 -1.1073
 7069SOL    HW223650   0.370   8.517   9.688 -2.9307 -0.1618  0.7666
 7070SOL     OW23651  10.346   3.721   8.776 -0.1361 -0.3148 -0.1134
 7070SOL    HW123652  10.385   3.793   8.826 -2.0014  1.4275 -1.0222
 7070SOL    HW223653  10.389   3.725   8.691 -0.7622  0.2574 -0.4159
 7071SOL     OW23654   4.893   5.169   3.334  0.0367  0.6705  0.2960
 7071SOL    HW123655   4.889   5.188   3.240 -0.2022  0.0150  0.1647
 7071SOL    HW223656   4.975   5.121   3.345  0.1869  0.9644  0.4671
 7072SOL     OW23657   2.097   3.437   8.495 -0.3700  0.4594  0.3999
 7072SOL    HW123658   2.080   3.531   8.497  0.0957  0.5476  0.2865
 7072SOL    HW223659   2.183   3.426   8.536  0.7267  0.3621 -1.7739
 7073SOL     OW23660   1.541   0.124   5.207 -0.5681 -0.0632  0.2530
 7073SOL    HW123661   1.612   0.100   5.147 -1.6808  0.2371 -1.2276
 7073SOL    HW223662   1.539   0.054   5.271 -0.0193 -0.9549 -0.6739
 7074SOL     OW23663  10.248   4.449   0.338 -0.0458 -0.4114 -0.0791
 7074SOL    HW123664  10.239   4.513   0.268  2.0411  0.1579  0.0889
 7074SOL    HW223665  10.286   4.372   0.296 -1.1973 -1.0257 -0.0180
 7075SOL     OW23666   4.110   7.190   7.155 -0.3283 -0.2587  0.1286
 7075SOL    HW123667   4.194   7.155   7.124  0.2502  1.5047 -0.4318
 7075SOL    HW223668   4.105   7.161   7.246  0.3831 -1.2560 -0.1186
 7076SOL     OW23669   5.750   3.575   4.086 -0.1429  0.2816 -0.0165
 7076SOL    HW123670   5.808   3.532   4.149  1.4092  2.3247  0.0274
 7076SOL    HW223671   5.805   3.594   4.010 -0.7729  2.0829 -0.0762
 7077SOL     OW23672   7.456   2.874   6.166 -0.9990  0.0653 -0.1312
 7077SOL    HW123673   7.377   2.908   6.124 -1.3483 -0.8489 -0.2371
 7077SOL    HW223674   7.512   2.848   6.094 -1.1816 -0.5673 -0.0537
 7078SOL     OW23675   4.297   1.661   1.961  0.4655 -0.2676 -0.2698
 7078SOL    HW123676   4.383   1.679   1.924  0.4016  0.1664 -0.2137
 7078SOL    HW223677   4.269   1.744   1.998  0.8919 -0.8538  1.5081
 7079SOL     OW23678  10.181   5.899   9.679  0.3981 -0.5019 -0.2440
 7079SOL    HW123679  10.099   5.909   9.629 -0.0598  1.6459  0.8123
 7079SOL    HW223680  10.152   5.892   9.770  1.3673 -0.0804  0.1060
 7080SOL     OW23681   0.938   2.944   7.267 -0.4973 -0.5148  0.0831
 7080SOL    HW123682   0.951   2.899   7.184 -1.3195  0.8237 -0.8054
 7080SOL    HW223683   0.849   2.920   7.293 -1.2520  1.1511 -0.8032
 7081SOL     OW23684   4.196   6.862   8.248 -0.3705  0.6565  0.2434
 7081SOL    HW123685   4.170   6.771   8.257  0.8493  0.2558 -0.0233
 7081SOL    HW223686   4.247   6.880   8.327 -0.0322  0.8953 -0.0258
 7082SOL     OW23687   4.404   0.329   2.818  0.8961 -0.6710  0.5237
 7082SOL    HW123688   4.395   0.401   2.755  1.3651 -0.3377  0.8294
 7082SOL    HW223689   4.348   0.354   2.891  0.0283 -1.2545  0.0785
 7083SOL     OW23690   3.201   7.539   0.297  0.1187  0.0961  0.3940
 7083SOL    HW123691   3.148   7.475   0.250 -1.1510 -0.2758  2.2233
 7083SOL    HW223692   3.263   7.486   0.348  0.0511  0.3721  0.7687
 7084SOL     OW23693   5.106   7.582   0.943 -0.2715  0.0237 -0.3508
 7084SOL    HW123694   5.174   7.572   0.876 -0.0613  1.3800 -0.3757
 7084SOL    HW223695   5.037   7.631   0.900  0.9552  3.2819  1.0347
 7085SOL     OW23696   7.827   8.551   6.596 -0.0459  0.0606 -0.5120
 7085SOL    HW123697   7.831   8.469   6.645 -1.5902  0.3954  0.2302
 7085SOL    HW223698   7.734   8.572   6.592  0.2261  1.1606 -1.7545
 7086SOL     OW23699   1.996   4.533   5.260  0.1307  0.0002 -0.5824
 7086SOL    HW123700   1.984   4.626   5.238 -1.1372  0.2197  0.9115
 7086SOL    HW223701   1.973   4.527   5.352  1.6122 -1.5697 -0.2741
 7087SOL     OW23702   8.799   0.351   8.459  0.2279  0.0936 -0.4006
 7087SOL    HW123703   8.729   0.299   8.499 -0.1673  1.7348  1.1266
 7087SOL    HW223704   8.857   0.374   8.532  1.1620  0.6231 -1.2860
 7088SOL     OW23705   3.742   3.797   6.517  0.1457 -0.3311  0.3101
 7088SOL    HW123706   3.683   3.786   6.592  0.8988 -0.6526  0.8647
 7088SOL    HW223707   3.829   3.786   6.553  0.6087  0.9161 -0.3495
 7089SOL     OW23708   6.316   7.228   2.456  0.6734 -0.4885  0.0499
 7089SOL    HW123709   6.405   7.262   2.445  0.6774 -0.4977  0.0550
 7089SOL    HW223710   6.268   7.301   2.496  0.2116  0.1669 -1.6253
 7090SOL     OW23711   3.827   0.032   8.204 -0.0658 -0.2822 -0.6484
 7090SOL    HW123712   3.836   0.120   8.240  0.5443 -0.3881 -0.5399
 7090SOL    HW223713   3.878   0.034   8.123  1.4576 -1.0437  0.2488
 7091SOL     OW23714   2.666   1.399   7.944  0.5056 -0.2948  0.4071
 7091SOL    HW123715   2.728   1.405   8.016  1.1782  0.0876 -0.1872
 7091SOL    HW223716   2.582   1.422   7.983  0.9116  0.2197  1.0068
 7092SOL     OW23717   2.849   1.378   8.160  0.1918 -0.1614  0.2888
 7092SOL    HW123718   2.933   1.387   8.115  0.2574  2.1712  0.7972
 7092SOL    HW223719   2.868   1.398   8.252 -0.1837 -3.6227  1.2701
 7093SOL     OW23720   6.770   3.920   4.741  0.0268 -0.2166  0.7808
 7093SOL    HW123721   6.694   3.896   4.688 -1.1270  0.1093  2.2101
 7093SOL    HW223722   6.825   3.841   4.741 -0.9666 -0.9305  0.7941
 7094SOL     OW23723   8.363   8.159   1.343 -0.2039 -0.0410  0.0595
 7094SOL    HW123724   8.430   8.225   1.361  0.6641 -1.2850  1.6628
 7094SOL    HW223725   8.280   8.208   1.345  0.4665  1.1151  0.5513
 7095SOL     OW23726   1.972   6.657   0.034 -0.1401  0.8750 -0.4760
 7095SOL    HW123727   2.030   6.693   0.101 -0.3282  1.5332 -0.6580
 7095SOL    HW223728   1.915   6.596   0.081  1.1244 -0.3117 -0.4035
 7096SOL     OW23729   4.533   2.684   5.931  0.0155 -0.6976 -0.0628
 7096SOL    HW123730   4.602   2.732   5.977 -1.1106 -0.5632  1.6032
 7096SOL    HW223731   4.528   2.600   5.978  1.4006 -2.2031 -2.4077
 7097SOL     OW23732   6.439   0.085   3.638  0.5105  0.4937  0.1117
 7097SOL    HW123733   6.429   0.010   3.696  1.0204  0.5713  0.3057
 7097SOL    HW223734   6.357   0.088   3.589  1.5798 -2.0831 -2.1271
 7098SOL     OW23735   0.603   0.442   0.151  0.2073  0.4751  0.4714
 7098SOL    HW123736   0.514   0.412   0.167 -0.1050 -0.4276 -2.3626
 7098SOL    HW223737   0.655   0.403   0.221 -1.0847 -2.0181  0.1378
 7099SOL     OW23738   4.099   9.888   5.091 -0.7523  0.3172 -0.4158
 7099SOL    HW123739   4.121   9.884   4.998 -0.7025 -0.9701 -0.3581
 7099SOL    HW223740   4.152   9.820   5.131 -1.9862 -0.2485  0.3059
 7100SOL     OW23741   1.973   0.754   5.266  0.0235 -0.5746  0.4327
 7100SOL    HW123742   2.012   0.668   5.278 -0.3093 -0.5449  1.8088
 7100SOL    HW223743   1.886   0.747   5.305 -1.1287 -0.4151 -1.9091
 7101SOL     OW23744   2.165   0.078   1.407 -0.3091  0.4960 -0.1419
 7101SOL    HW123745   2.164   0.167   1.443 -1.1226  1.0206 -1.3884
 7101SOL    HW223746   2.139   0.089   1.315  1.4118 -0.8151 -0.8401
 7102SOL     OW23747   8.724   3.213   3.830  0.1204  0.3518 -0.0029
 7102SOL    HW123748   8.680   3.128   3.827 -0.8726  0.8218  0.7547
 7102SOL    HW223749   8.792   3.207   3.763  0.5732 -1.3109  0.5568
 7103SOL     OW23750   0.296   7.397   7.871 -0.6136 -0.2148 -0.6812
 7103SOL    HW123751   0.294   7.455   7.795  1.2685 -0.6713 -1.1168
 7103SOL    HW223752   0.381   7.413   7.912 -0.5104 -1.8666 -0.1826
 7104SOL     OW23753   0.938   4.067   2.470 -0.1110  0.3616 -0.1445
 7104SOL    HW123754   1.004   4.011   2.512 -0.8743 -0.8086 -0.4817
 7104SOL    HW223755   0.940   4.042   2.378  0.1678  1.5491 -0.4871
 7105SOL     OW23756   5.006   0.714   7.582  0.3738 -0.3380  0.6890
 7105SOL    HW123757   4.922   0.668   7.594  0.5419 -0.6269  0.7688
 7105SOL    HW223758   5.042   0.718   7.671  0.5241 -0.3673  0.6278
 7106SOL     OW23759   1.826   5.938   6.731 -0.4184 -0.6499 -0.1703
 7106SOL    HW123760   1.731   5.931   6.732 -0.4578 -0.1943 -0.4340
 7106SOL    HW223761   1.856   5.867   6.788 -0.9199 -0.7166  0.0158
 7107SOL     OW23762   2.594   9.519   2.246  0.0463 -0.7946  0.1857
 7107SOL    HW123763   2.567   9.428   2.237  0.4450 -0.9830  0.8598
 7107SOL    HW223764   2.662   9.518   2.313 -0.5263  0.1140  0.8000
 7108SOL     OW23765   8.920   2.523   6.827  0.1829 -0.1755  0.6128
 7108SOL    HW123766   8.929   2.428   6.826 -1.8757 -0.4457  1.6807
 7108SOL    HW223767   8.837   2.540   6.782 -0.7444  0.8439  2.5468
 7109SOL     OW23768   2.428   6.228   6.396  0.2500 -0.0814  1.4670
 7109SOL    HW123769   2.460   6.217   6.485  1.2908 -2.0657  0.9018
 7109SOL    HW223770   2.484   6.296   6.358  4.4174 -3.6932  0.3846
 7110SOL     OW23771   9.261   3.769   6.953  0.2552 -0.1018 -0.0568
 7110SOL    HW123772   9.344   3.740   6.915  0.5206  2.1774 -1.4197
 7110SOL    HW223773   9.194   3.723   6.902  0.6677  0.4935 -1.1761
 7111SOL     OW23774   7.593   7.685   3.216  0.2312 -0.4426 -0.5525
 7111SOL    HW123775   7.503   7.662   3.191 -0.0931 -1.1015  1.1088
 7111SOL    HW223776   7.584   7.724   3.303  1.7321 -2.5307  0.6362
 7112SOL     OW23777   2.787   9.802   9.809 -0.8264  0.1682  0.2305
 7112SOL    HW123778   2.727   9.853   9.756 -1.1696 -0.0047  0.4517
 7112SOL    HW223779   2.856   9.864   9.833 -1.6769  0.7717  1.2114
 7113SOL     OW23780   8.458   1.256   5.363  1.0164  0.1074 -0.1079
 7113SOL    HW123781   8.378   1.228   5.408  1.3416  0.3807  0.6716
 7113SOL    HW223782   8.509   1.175   5.352 -0.1179 -0.3822 -2.2461
 7114SOL     OW23783   0.840   6.138   7.633  0.2933  0.2566 -0.0303
 7114SOL    HW123784   0.819   6.219   7.588 -0.6024  0.4002  0.6292
 7114SOL    HW223785   0.756   6.105   7.666  0.8387 -0.1353  1.0399
 7115SOL     OW23786   7.489   4.673   6.852  0.0802 -0.2916 -0.8811
 7115SOL    HW123787   7.487   4.745   6.915 -0.1150 -1.1200  0.0662
 7115SOL    HW223788   7.523   4.714   6.772 -1.6399  1.2513 -0.8874
 7116SOL     OW23789   8.268   5.961   9.418  0.9838  0.0935 -0.0125
 7116SOL    HW123790   8.304   5.904   9.485  1.4830  0.9444  0.4564
 7116SOL    HW223791   8.229   5.901   9.354  1.0916 -0.7480  0.6918
 7117SOL     OW23792   2.466   9.475  10.079 -0.0714 -0.2149  0.0924
 7117SOL    HW123793   2.541   9.534  10.072  0.0035 -0.0926  1.5779
 7117SOL    HW223794   2.426   9.476   9.992 -0.1637  2.1206  0.1178
 7118SOL     OW23795   7.779   8.857   9.710 -0.0336  0.4894 -0.0087
 7118SOL    HW123796   7.802   8.944   9.745  1.3590 -0.8361  2.6572
 7118SOL    HW223797   7.684   8.859   9.701  0.0028  2.4060 -0.4023
 7119SOL     OW23798   9.450   0.924   4.152  0.0498 -0.2257 -0.3205
 7119SOL    HW123799   9.438   0.899   4.060 -1.7692 -2.3368  0.3942
 7119SOL    HW223800   9.370   0.973   4.173  0.1624 -0.3177  0.3160
 7120SOL     OW23801  10.260   9.981   8.930 -0.1963  0.2618  0.0786
 7120SOL    HW123802  10.188   9.923   8.955  0.3771 -1.0392 -1.1612
 7120SOL    HW223803  10.318   9.982   9.006 -0.1741 -0.8810  0.0825
 7121SOL     OW23804   0.757   8.914   6.603 -0.1497  0.0245  0.2419
 7121SOL    HW123805   0.701   8.839   6.625  1.9242 -1.5822  0.3576
 7121SOL    HW223806   0.698   8.989   6.602 -2.6635 -1.8300 -1.5772
 7122SOL     OW23807   7.576   0.538   7.252 -0.7538 -0.8176  0.0774
 7122SOL    HW123808   7.621   0.581   7.325 -1.6382 -1.0185  0.7661
 7122SOL    HW223809   7.483   0.547   7.274 -1.0665 -0.2454 -1.3987
 7123SOL     OW23810   5.231   3.535   9.899 -0.0835  0.0316  0.0528
 7123SOL    HW123811   5.156   3.495   9.942 -0.1306  1.0838  1.0275
 7123SOL    HW223812   5.301   3.531   9.965 -0.5574  2.9641  0.9032
 7124SOL     OW23813   2.719   6.786   7.413 -0.4571  0.3345 -0.1480
 7124SOL    HW123814   2.726   6.770   7.318  1.6421  1.3723 -0.2315
 7124SOL    HW223815   2.666   6.865   7.420 -2.0709 -0.6776 -0.3089
 7125SOL     OW23816   5.699   8.998   6.498  0.5367 -0.0434 -0.4285
 7125SOL    HW123817   5.770   8.966   6.442 -0.9371 -0.5095 -2.1185
 7125SOL    HW223818   5.668   8.921   6.545  0.4679 -0.0458 -0.4780
 7126SOL     OW23819   1.620   6.519   5.628 -0.0422 -0.3820 -0.1407
 7126SOL    HW123820   1.550   6.514   5.694  1.3923 -1.2429  1.3958
 7126SOL    HW223821   1.670   6.438   5.641  0.9230 -0.0408 -1.5795
 7127SOL     OW23822   9.284   4.072   5.699 -0.0726  0.4203 -0.0102
 7127SOL    HW123823   9.271   4.166   5.712  2.1475  0.9118 -0.8181
 7127SOL    HW223824   9.239   4.030   5.772  0.8626  2.2636  1.7117
 7128SOL     OW23825   0.670   4.115   4.405 -0.4396  0.2156  0.6250
 7128SOL    HW123826   0.581   4.116   4.439 -1.7363 -1.5100 -2.3550
 7128SOL    HW223827   0.703   4.027   4.426  0.1484  0.4342  0.6512
 7129SOL     OW23828   0.276   6.536   3.988 -0.5672 -0.0847 -0.5778
 7129SOL    HW123829   0.292   6.538   3.893  1.9655 -1.7971 -0.2847
 7129SOL    HW223830   0.261   6.628   4.011  0.2414  0.5659 -2.4085
 7130SOL     OW23831  10.064   8.905   8.267 -0.2395  0.2054 -0.1204
 7130SOL    HW123832  10.030   8.845   8.201  1.0438 -0.9167  0.1818
 7130SOL    HW223833  10.067   8.853   8.348  0.4189  0.8194  0.2694
 7131SOL     OW23834   1.425   8.312   8.095 -0.5384  0.4821  0.0014
 7131SOL    HW123835   1.492   8.352   8.040  1.6369  0.8765  2.7145
 7131SOL    HW223836   1.376   8.386   8.131 -0.7860  0.3396 -0.0404
 7132SOL     OW23837   4.602   2.526   8.254  0.2219  0.4579 -0.0484
 7132SOL    HW123838   4.679   2.470   8.259  0.0560  0.3220  1.2157
 7132SOL    HW223839   4.528   2.467   8.269 -0.0907  0.6942 -0.6250
 7133SOL     OW23840   2.230   5.620   6.744 -0.1220  0.3767 -0.2396
 7133SOL    HW123841   2.232   5.710   6.776 -2.0282  0.4152 -0.1536
 7133SOL    HW223842   2.224   5.567   6.823  1.3863  0.1169 -0.2679
 7134SOL     OW23843   0.566   9.455   8.851 -0.1030  0.1189 -0.5773
 7134SOL    HW123844   0.590   9.532   8.902 -2.5707  0.2397  0.5409
 7134SOL    HW223845   0.641   9.397   8.858  0.3857  0.9287  1.6403
 7135SOL     OW23846   1.835   1.492   4.687  0.3559 -0.3847 -0.0077
 7135SOL    HW123847   1.863   1.570   4.639  0.7064 -0.7876 -0.4677
 7135SOL    HW223848   1.774   1.448   4.628  1.2984 -1.2319 -0.3768
 7136SOL     OW23849   5.913   3.599   0.454 -0.1199  0.1191 -0.1157
 7136SOL    HW123850   5.872   3.514   0.472 -0.3015  0.3483  0.5471
 7136SOL    HW223851   5.999   3.576   0.417 -0.3974 -0.3534 -0.4847
 7137SOL     OW23852   1.151   5.796   6.991 -0.4236  0.2615  0.6325
 7137SOL    HW123853   1.093   5.815   7.065 -0.6666 -2.5101  1.2347
 7137SOL    HW223854   1.092   5.770   6.921 -0.0952  1.4501 -0.1181
 7138SOL     OW23855   2.237   4.953   5.123 -0.0627  0.4426  0.5073
 7138SOL    HW123856   2.169   4.960   5.189 -0.7250  2.5087 -0.3004
 7138SOL    HW223857   2.190   4.950   5.040  0.7882 -0.3262  0.0335
 7139SOL     OW23858   3.761   7.267   6.666 -0.0502  0.1927 -0.6386
 7139SOL    HW123859   3.801   7.265   6.753 -1.2905 -0.1583 -0.0599
 7139SOL    HW223860   3.774   7.357   6.636  1.7786 -0.0758 -0.7910
 7140SOL     OW23861   9.874   2.556   9.207  0.5920  0.0205  0.0212
 7140SOL    HW123862   9.845   2.517   9.124 -1.3273 -2.5660  1.7785
 7140SOL    HW223863   9.829   2.640   9.211  0.6022  0.1209 -1.4676
 7141SOL     OW23864   2.386   9.962   2.698  0.0507 -0.3194 -0.7175
 7141SOL    HW123865   2.369   9.930   2.610 -0.1044  0.7739 -1.0958
 7141SOL    HW223866   2.374  10.056   2.692 -1.4186 -0.3641  0.7929
 7142SOL     OW23867   8.082   7.976   8.625  0.2900 -0.4516 -0.3188
 7142SOL    HW123868   7.989   7.999   8.629  0.2789 -0.6862  2.0755
 7142SOL    HW223869   8.083   7.883   8.604 -0.0298 -0.4787 -0.2228
 7143SOL     OW23870   2.554   1.460   6.602 -0.0415 -0.0027  0.0336
 7143SOL    HW123871   2.598   1.527   6.550 -0.5282  1.3328  1.2876
 7143SOL    HW223872   2.581   1.477   6.692 -1.5540 -0.3921  0.5909
 7144SOL     OW23873   3.903   9.707   3.099  0.6135  0.3065  0.4004
 7144SOL    HW123874   3.914   9.740   3.010  0.2087  0.1957  0.3080
 7144SOL    HW223875   3.874   9.783   3.149  0.5936  0.3090  0.3854
 7145SOL     OW23876   4.368   5.959   6.281 -0.2014  0.1706 -0.1440
 7145SOL    HW123877   4.343   6.011   6.205 -0.7071  0.2446  0.0687
 7145SOL    HW223878   4.285   5.940   6.326  0.1900  1.1181  1.0351
 7146SOL     OW23879   3.064   1.530   3.714 -0.5837  0.4190 -0.1579
 7146SOL    HW123880   2.982   1.562   3.753  0.0111  0.1257  1.4192
 7146SOL    HW223881   3.043   1.443   3.682 -1.0521  0.5853 -0.3087
 7147SOL     OW23882   3.389   9.769   4.125 -0.0587 -0.2686 -0.1606
 7147SOL    HW123883   3.450   9.716   4.074  0.0704 -0.6258  0.3507
 7147SOL    HW223884   3.387   9.854   4.080  0.8944 -0.2174 -0.1310
 7148SOL     OW23885   5.916   3.496   5.612  0.4219 -0.1368 -0.4977
 7148SOL    HW123886   5.963   3.426   5.566  0.8768 -0.9217  1.0886
 7148SOL    HW223887   5.824   3.481   5.590  0.5143 -1.2216 -0.2037
 7149SOL     OW23888   8.860   2.527   0.676  0.7000 -0.3081 -0.4916
 7149SOL    HW123889   8.797   2.593   0.650  1.1039  0.9461  1.4748
 7149SOL    HW223890   8.897   2.494   0.594 -1.3322  0.0661 -1.6069
 7150SOL     OW23891   5.529   8.214   2.231 -0.8072  0.5077  0.1556
 7150SOL    HW123892   5.444   8.187   2.196  0.7388 -3.8747 -0.8717
 7150SOL    HW223893   5.534   8.171   2.317  0.8759 -0.5558 -0.4336
 7151SOL     OW23894   6.761   4.811   1.794 -0.3142 -0.1624 -0.2914
 7151SOL    HW123895   6.826   4.815   1.724  0.3405  0.5428  0.3429
 7151SOL    HW223896   6.811   4.783   1.871 -0.8693 -0.1324  0.0817
 7152SOL     OW23897   4.601   5.336   8.044  0.1373  0.1757  1.0979
 7152SOL    HW123898   4.688   5.372   8.062  0.7027 -0.7694  0.3319
 7152SOL    HW223899   4.618   5.259   7.990 -1.2316  0.5711  0.0558
 7153SOL     OW23900   0.748   7.131   4.363  0.1189 -0.3544 -0.1327
 7153SOL    HW123901   0.822   7.142   4.424  0.1271 -1.7778  0.1556
 7153SOL    HW223902   0.757   7.041   4.331 -0.6563 -0.0568 -1.2279
 7154SOL     OW23903   9.055   7.268   3.962 -0.0883  0.3061  0.0146
 7154SOL    HW123904   9.010   7.281   4.045 -1.7371  1.2080 -0.9518
 7154SOL    HW223905   9.010   7.194   3.921  2.1300 -1.5545  0.8038
 7155SOL     OW23906   6.855   5.433   5.991  0.6106  0.0128 -0.1041
 7155SOL    HW123907   6.874   5.426   6.084 -1.9781 -0.8192  0.4292
 7155SOL    HW223908   6.931   5.478   5.954  1.8186  0.1016  2.3334
 7156SOL     OW23909  10.456   9.430   1.090 -0.1055 -0.2954  0.5329
 7156SOL    HW123910  10.542   9.470   1.094  0.0406 -0.6205  0.6435
 7156SOL    HW223911  10.401   9.496   1.048 -0.0035  0.2585  1.2596
 7157SOL     OW23912   3.168   5.537   5.997 -0.1656 -0.3743 -0.2740
 7157SOL    HW123913   3.225   5.468   5.964 -1.1715 -1.9999  1.1936
 7157SOL    HW223914   3.094   5.490   6.035 -0.4509  1.4827  1.6258
 7158SOL     OW23915   9.152   8.895   0.712 -0.1130 -0.2378 -0.1145
 7158SOL    HW123916   9.228   8.951   0.730  0.7685 -0.8574 -1.7073
 7158SOL    HW223917   9.190   8.812   0.683 -1.3701 -0.2063 -2.0265
 7159SOL     OW23918   3.691   2.616   3.406  0.2768  0.5215 -0.6663
 7159SOL    HW123919   3.755   2.654   3.466 -0.0938 -0.8116  0.6122
 7159SOL    HW223920   3.682   2.682   3.337  1.7989  1.4489 -0.0362
 7160SOL     OW23921   8.941   9.950   9.529 -0.4659 -0.2401 -0.3871
 7160SOL    HW123922   8.910   9.869   9.569  0.1745 -0.2076  0.1673
 7160SOL    HW223923   8.915  10.018   9.590 -1.2712  0.0253 -0.9932
 7161SOL     OW23924   4.172  10.127   9.728  0.5776 -0.0896 -0.2152
 7161SOL    HW123925   4.258  10.165   9.712  0.0611  1.7159  0.9653
 7161SOL    HW223926   4.152  10.150   9.819 -1.8444  1.0435 -0.9469
 7162SOL     OW23927   8.874   7.313   9.689  0.2975  0.3519  0.1499
 7162SOL    HW123928   8.799   7.365   9.719 -0.2683 -1.0352  1.2590
 7162SOL    HW223929   8.838   7.258   9.618  0.2311 -0.3391  0.7047
 7163SOL     OW23930  10.037   3.457   0.957 -0.3263  0.3936 -0.2594
 7163SOL    HW123931  10.061   3.480   0.867 -0.2648  0.2572 -0.2778
 7163SOL    HW223932   9.942   3.444   0.954 -0.3569  0.6194 -0.2549
 7164SOL     OW23933   9.090   6.677   4.315 -0.4101  0.4360  0.4308
 7164SOL    HW123934   9.124   6.766   4.311  1.2459 -0.2090 -0.6940
 7164SOL    HW223935   9.159   6.626   4.357 -0.4458 -0.6936 -0.8234
 7165SOL     OW23936   2.554   1.690   7.809  0.4358  0.1823 -0.5461
 7165SOL    HW123937   2.463   1.669   7.830  0.9072 -1.0059  0.3847
 7165SOL    HW223938   2.549   1.734   7.723 -0.8378 -1.7459 -1.5243
 7166SOL     OW23939   7.907   7.419   2.416 -0.5554 -0.0818 -0.0892
 7166SOL    HW123940   7.967   7.491   2.398 -1.8120  0.8279 -0.8188
 7166SOL    HW223941   7.869   7.440   2.501 -0.5007 -0.1746 -0.0422
 7167SOL     OW23942   2.489   2.033   6.066  0.0646  0.7732 -0.6274
 7167SOL    HW123943   2.476   1.941   6.044  0.7971  0.7215 -0.8874
 7167SOL    HW223944   2.581   2.050   6.045  0.2171  1.2928  0.3851
 7168SOL     OW23945   3.536   0.171   2.183  0.2431 -0.1458 -0.1929
 7168SOL    HW123946   3.627   0.144   2.172 -0.5121 -3.1958  0.1300
 7168SOL    HW223947   3.498   0.163   2.096 -0.2664 -1.4936  0.1152
 7169SOL     OW23948   1.292   1.455   5.515  0.2384 -0.1770  0.9594
 7169SOL    HW123949   1.218   1.429   5.570 -0.6176 -1.3267 -0.6302
 7169SOL    HW223950   1.366   1.459   5.575 -0.7625 -0.7538  2.3003
 7170SOL     OW23951   8.324   7.821   3.865 -0.0353 -0.3075 -0.6481
 7170SOL    HW123952   8.366   7.907   3.863 -0.5580 -0.0651 -1.7404
 7170SOL    HW223953   8.279   7.818   3.950  1.4493 -0.2298  0.1603
 7171SOL     OW23954   9.187   6.250   8.466 -0.0101  0.0448  0.3410
 7171SOL    HW123955   9.099   6.230   8.499 -0.8067  0.0080 -1.6240
 7171SOL    HW223956   9.244   6.237   8.541 -1.9065  2.3727  2.3720
 7172SOL     OW23957   4.654   4.998   5.340  0.2599  0.0961  0.2183
 7172SOL    HW123958   4.585   4.942   5.304  0.9342 -0.6367  0.0444
 7172SOL    HW223959   4.711   4.939   5.389  0.6397  0.7300  0.5711
 7173SOL     OW23960  10.057   7.488   4.921 -0.3395 -0.7047  0.8702
 7173SOL    HW123961   9.996   7.428   4.878 -1.4445  1.5359 -0.9165
 7173SOL    HW223962  10.006   7.567   4.937  1.7356  0.7975  0.5281
 7174SOL     OW23963   5.731   3.603   2.463 -0.6229  0.6088  0.3446
 7174SOL    HW123964   5.755   3.645   2.546  1.2866 -1.7718  1.0966
 7174SOL    HW223965   5.809   3.610   2.408 -1.9098  2.2983 -1.4241
 7175SOL     OW23966   3.602   6.612   2.488 -0.3566  0.1379 -0.2957
 7175SOL    HW123967   3.580   6.680   2.425 -2.6493 -0.5737 -0.3629
 7175SOL    HW223968   3.558   6.639   2.568  0.2167 -0.3694  0.1974
 7176SOL     OW23969   0.589   7.928  10.157 -0.1712  0.3235  0.6173
 7176SOL    HW123970   0.598   7.869  10.082 -0.5848  0.2526  0.6231
 7176SOL    HW223971   0.665   7.908  10.212  0.6296  0.9991 -0.2090
 7177SOL     OW23972   4.947   8.509   1.274  0.0324 -0.1443 -0.0331
 7177SOL    HW123973   5.003   8.515   1.196 -2.1947  1.1283 -1.6478
 7177SOL    HW223974   4.964   8.590   1.322  1.5796 -1.0344  1.0014
 7178SOL     OW23975   9.183   6.056   9.107 -0.7033  0.9533 -0.4279
 7178SOL    HW123976   9.174   6.042   9.202  0.1456  0.4932 -0.4059
 7178SOL    HW223977   9.256   5.999   9.081 -1.0817  0.9038 -1.4056
 7179SOL     OW23978   5.901   2.317   7.451  0.0431 -0.2749 -0.1984
 7179SOL    HW123979   5.842   2.242   7.443  1.1858 -0.9816 -2.9567
 7179SOL    HW223980   5.895   2.362   7.367 -0.2068  2.5149  1.1904
 7180SOL     OW23981   5.237   5.275   6.724  0.3871 -0.2091 -0.6529
 7180SOL    HW123982   5.238   5.182   6.747  0.6090 -0.2589 -0.8605
 7180SOL    HW223983   5.294   5.282   6.647 -0.2672 -0.0283 -1.1255
 7181SOL     OW23984   8.825   8.166   4.542  0.3040  0.1907  0.2152
 7181SOL    HW123985   8.913   8.186   4.510  0.4072  0.5503  0.6948
 7181SOL    HW223986   8.776   8.247   4.530  0.4516  0.4574  1.2848
 7182SOL     OW23987   6.918   7.425   5.767  0.1641 -0.5992  0.2977
 7182SOL    HW123988   6.932   7.394   5.677  0.4864 -0.1475  0.1864
 7182SOL    HW223989   6.828   7.402   5.787 -0.8607  1.7220 -1.1509
 7183SOL     OW23990   7.505   5.463   9.210  0.2405 -0.1947  0.3798
 7183SOL    HW123991   7.541   5.454   9.122 -0.5533  3.1288 -0.4437
 7183SOL    HW223992   7.420   5.419   9.205 -1.0746  2.2910 -1.5222
 7184SOL     OW23993   7.012   6.573   1.874 -0.5046  0.3095 -0.1917
 7184SOL    HW123994   7.027   6.657   1.830 -1.0255  1.0409  0.9875
 7184SOL    HW223995   7.065   6.511   1.824  4.8301  2.2412  2.2365
 7185SOL     OW23996   0.603   1.696  10.151  0.0139  0.4902  0.1048
 7185SOL    HW123997   0.688   1.715  10.112  0.0270  1.2277  0.4643
 7185SOL    HW223998   0.560   1.782  10.156 -0.5125  0.2112  0.4725
 7186SOL     OW23999   8.505   7.794   4.371  0.2221  0.5261 -0.6093
 7186SOL    HW124000   8.417   7.815   4.338 -0.9001  3.1563  3.2921
 7186SOL    HW224001   8.561   7.862   4.335  0.4612 -0.3816 -2.0380
 7187SOL     OW24002   3.564   2.038   8.887 -0.6809  0.2632  0.2769
 7187SOL    HW124003   3.627   2.073   8.823 -1.3672 -1.3199 -1.3767
 7187SOL    HW224004   3.485   2.089   8.872 -0.2616  1.2830  1.3588
 7188SOL     OW24005   2.422   1.804   1.870  0.0857 -0.0516  0.1987
 7188SOL    HW124006   2.410   1.778   1.779  1.8798 -1.0791  0.2123
 7188SOL    HW224007   2.508   1.770   1.894  0.5392  1.9216  1.6869
 7189SOL     OW24008   0.739   9.836   9.786 -0.1285 -0.0002  0.2433
 7189SOL    HW124009   0.650   9.857   9.814 -0.1271  0.1831  0.1090
 7189SOL    HW224010   0.795   9.881   9.850 -0.1107  1.2128 -0.5975
 7190SOL     OW24011   9.251   6.613   1.515 -0.1011  0.3582  0.2177
 7190SOL    HW124012   9.228   6.559   1.439 -2.7342  1.5072  0.0855
 7190SOL    HW224013   9.257   6.702   1.481 -0.7130  0.8052  1.2176
 7191SOL     OW24014   0.437   0.349   3.167  0.1567  0.1091 -0.3457
 7191SOL    HW124015   0.461   0.436   3.134  1.7762 -0.5300 -0.9589
 7191SOL    HW224016   0.520   0.310   3.193 -0.6992 -0.7598  1.2128
 7192SOL     OW24017   2.309  10.127   9.196 -0.1447 -0.5743 -0.0415
 7192SOL    HW124018   2.337  10.062   9.131 -0.7590 -1.4574  0.5452
 7192SOL    HW224019   2.229  10.165   9.159  0.2074 -0.1578 -0.3796
 7193SOL     OW24020   1.531   6.457   2.713 -0.4281 -0.0363 -0.8064
 7193SOL    HW124021   1.493   6.385   2.763  0.1527 -0.0276 -0.3406
 7193SOL    HW224022   1.464   6.525   2.713 -2.4543 -1.7561 -4.1725
 7194SOL     OW24023   3.499   7.184   5.935  0.2494  0.0883  0.2990
 7194SOL    HW124024   3.498   7.114   6.000 -0.3435  0.0349  0.2374
 7194SOL    HW224025   3.501   7.264   5.988  0.1077  0.0384  0.3814
 7195SOL     OW24026   2.933   1.100   2.966 -0.0383  0.0634 -0.2944
 7195SOL    HW124027   2.982   1.052   2.899 -0.4136  0.2776 -0.7347
 7195SOL    HW224028   2.996   1.113   3.037  0.1728 -0.7429 -0.3300
 7196SOL     OW24029   7.899   7.681  10.162  0.2287 -0.0855 -0.5816
 7196SOL    HW124030   7.822   7.710  10.113  1.0890  1.1026 -1.3190
 7196SOL    HW224031   7.865   7.625  10.231 -1.2820  0.3433 -0.9410
 7197SOL     OW24032   7.938  10.213   5.260  0.0718 -0.0126  0.2326
 7197SOL    HW124033   8.001  10.279   5.288  0.8024 -0.0569 -1.2514
 7197SOL    HW224034   7.862  10.228   5.316  0.9642  0.7857  1.2652
 7198SOL     OW24035   3.494   2.799   8.549  0.2236 -0.0258  0.4460
 7198SOL    HW124036   3.421   2.832   8.601 -0.2420  1.2108 -0.9212
 7198SOL    HW224037   3.558   2.769   8.613 -1.2947 -0.7536  1.6791
 7199SOL     OW24038   9.416   3.640   4.185  0.0511 -0.2152  0.6723
 7199SOL    HW124039   9.487   3.694   4.152  1.7625 -2.1376  0.9799
 7199SOL    HW224040   9.401   3.575   4.117 -1.8290  0.4413  0.3836
 7200SOL     OW24041   0.570   3.609   5.000 -0.4281  0.4903  0.3335
 7200SOL    HW124042   0.533   3.600   5.088 -1.0293  0.9489  0.1323
 7200SOL    HW224043   0.609   3.523   4.982 -2.3273 -0.3680  0.1293
 7201SOL     OW24044   0.087   2.992   4.965  0.1459  0.0227 -0.1425
 7201SOL    HW124045   0.149   3.021   5.032  0.3834 -2.1701  0.6866
 7201SOL    HW224046   0.004   2.984   5.012  0.4214 -2.0258  0.1146
 7202SOL     OW24047   6.771   1.155   2.197 -0.3366 -0.4191  0.6937
 7202SOL    HW124048   6.826   1.140   2.274  2.5087 -0.6692 -1.1910
 7202SOL    HW224049   6.773   1.250   2.185  1.1823 -0.5234 -0.2564
 7203SOL     OW24050   8.990   2.939   9.700  0.1086 -0.4739 -0.4002
 7203SOL    HW124051   9.073   2.986   9.710 -0.3957  0.9534 -2.2161
 7203SOL    HW224052   8.969   2.948   9.607 -2.0171 -0.8883 -0.0161
 7204SOL     OW24053   2.347   4.742  10.326 -0.0271 -0.2555  0.2190
 7204SOL    HW124054   2.264   4.729  10.371 -1.1952  2.3664 -0.9519
 7204SOL    HW224055   2.414   4.718  10.390 -1.6367 -2.1360  1.2975
 7205SOL     OW24056   5.488   7.633   6.145  0.4170 -0.3040 -0.0935
 7205SOL    HW124057   5.474   7.727   6.139  0.8104 -0.2810 -0.7440
 7205SOL    HW224058   5.524   7.609   6.059 -2.2516 -1.4797 -1.0120
 7206SOL     OW24059   9.336   5.393   3.282  0.0073 -0.2319 -0.0835
 7206SOL    HW124060   9.337   5.381   3.187 -0.1137  0.3387 -0.1589
 7206SOL    HW224061   9.246   5.420   3.302  0.1993  0.2685  0.1137
 7207SOL     OW24062   5.441   8.174   9.559  0.3928 -0.0541  0.6230
 7207SOL    HW124063   5.479   8.182   9.647  1.0072  1.1491  0.2691
 7207SOL    HW224064   5.401   8.259   9.542  0.6635 -0.1233 -0.4261
 7208SOL     OW24065   1.099   1.627   7.778 -0.0344  0.1530  0.3787
 7208SOL    HW124066   1.096   1.592   7.867  0.0313 -1.1598 -0.1234
 7208SOL    HW224067   1.171   1.690   7.781  1.6333 -1.6625  0.6620
 7209SOL     OW24068   8.994  10.268   3.499  0.1317 -0.0873 -0.3094
 7209SOL    HW124069   8.927  10.208   3.529  0.9153 -1.8748 -1.9284
 7209SOL    HW224070   9.016  10.238   3.411  1.3520  1.9240 -0.7699
 7210SOL     OW24071   4.997   1.199   0.640 -0.0307  0.2477 -0.4669
 7210SOL    HW124072   4.968   1.162   0.723 -0.2108 -1.0053 -1.0555
 7210SOL    HW224073   5.092   1.198   0.645 -0.0425  0.8538 -0.0050
 7211SOL     OW24074   1.592   2.863   4.205  0.2959  0.1521 -0.9590
 7211SOL    HW124075   1.632   2.937   4.157  0.4885  1.4321  1.0626
 7211SOL    HW224076   1.534   2.905   4.269  1.5459 -1.3502  1.2766
 7212SOL     OW24077   0.361   8.465   6.113 -0.4600  0.1780 -0.3393
 7212SOL    HW124078   0.438   8.437   6.163 -1.2428 -0.0889  0.7722
 7212SOL    HW224079   0.331   8.386   6.068  0.5254  0.5256 -1.6610
 7213SOL     OW24080   3.815   5.166   9.235 -0.6275  0.5478  0.2752
 7213SOL    HW124081   3.851   5.248   9.268  0.7840  0.8729 -1.8580
 7213SOL    HW224082   3.787   5.186   9.145 -2.2479 -0.8030  0.4179
 7214SOL     OW24083   7.279   5.191   0.560 -0.0325  0.1589  0.2154
 7214SOL    HW124084   7.345   5.239   0.510  1.5866 -1.6526  0.4555
 7214SOL    HW224085   7.320   5.176   0.646 -0.5249 -1.4244  0.2057
 7215SOL     OW24086  10.431   0.527   0.155  0.3842  0.0118  0.0728
 7215SOL    HW124087  10.381   0.458   0.199 -3.1881  2.2996  0.0123
 7215SOL    HW224088  10.436   0.499   0.064  0.5103 -0.9146  0.3554
 7216SOL     OW24089   3.912  10.455   5.793  0.6653 -0.3563 -0.3185
 7216SOL    HW124090   4.004  10.431   5.796  0.8265  0.2650  2.2678
 7216SOL    HW224091   3.871  10.404   5.863 -1.0897 -1.0214 -1.7607
 7217SOL     OW24092  10.021   4.743   4.686 -0.1368 -0.2419 -0.1664
 7217SOL    HW124093  10.049   4.657   4.718 -1.5716 -0.6565  0.0614
 7217SOL    HW224094  10.074   4.759   4.608  1.8885 -0.2025  1.1315
 7218SOL     OW24095   2.037   3.449   6.501 -0.3838 -0.1809  0.4711
 7218SOL    HW124096   2.069   3.378   6.445 -1.6334  0.1593 -0.7438
 7218SOL    HW224097   2.035   3.525   6.443 -1.6034  0.2148  1.0049
 7219SOL     OW24098  10.177   1.931   9.435 -0.3073 -0.6035  0.0841
 7219SOL    HW124099  10.179   1.989   9.511  1.8836  0.5802 -0.7880
 7219SOL    HW224100  10.092   1.947   9.394 -0.5837  0.4192  1.0232
 7220SOL     OW24101   3.135   5.203   6.599  0.3814 -0.9246  0.4216
 7220SOL    HW124102   3.047   5.240   6.595  1.4953  2.1066  1.1392
 7220SOL    HW224103   3.140   5.144   6.523 -1.3737  1.0224 -1.3292
 7221SOL     OW24104   6.058   2.841   1.233 -0.1400 -1.0636  0.1823
 7221SOL    HW124105   6.134   2.825   1.176 -1.1538 -2.2414 -0.9087
 7221SOL    HW224106   6.054   2.763   1.289  0.4216 -0.2385  1.4081
 7222SOL     OW24107   5.947   4.568   3.735  0.2029  0.3714  0.0056
 7222SOL    HW124108   5.860   4.582   3.698  0.1475  1.3235  0.4459
 7222SOL    HW224109   5.953   4.633   3.806  1.0393 -0.0907  0.3736
 7223SOL     OW24110   2.491   3.794   9.926  0.5158  0.2449  0.0962
 7223SOL    HW124111   2.446   3.711   9.909 -2.1916  1.0506  2.5092
 7223SOL    HW224112   2.464   3.850   9.853  0.4224 -0.2632 -0.2725
 7224SOL     OW24113   7.875   5.537   9.257  0.0909  0.6810 -0.4563
 7224SOL    HW124114   7.869   5.533   9.161  1.0195 -1.7787 -0.4837
 7224SOL    HW224115   7.784   5.543   9.287 -0.2327  0.9968 -1.4679
 7225SOL     OW24116  10.127   6.186   0.705  0.1540  0.1509  0.2662
 7225SOL    HW124117  10.103   6.221   0.619 -1.2190 -1.0555  0.1194
 7225SOL    HW224118  10.060   6.120   0.723  1.1312 -0.4787  1.7181
 7226SOL     OW24119   0.424   4.663   3.210  0.1508 -0.1604 -0.0677
 7226SOL    HW124120   0.475   4.655   3.129 -1.3657 -0.7632 -1.0189
 7226SOL    HW224121   0.335   4.684   3.179 -1.4044 -4.0794  1.1385
 7227SOL     OW24122   1.154   4.929   5.329 -0.1250  0.5326 -0.3452
 7227SOL    HW124123   1.137   4.907   5.237 -1.0745  0.6004 -0.1943
 7227SOL    HW224124   1.075   4.976   5.357  0.4980  1.2298  0.2760
 7228SOL     OW24125   6.603   0.980   7.452  0.1966  0.1040  0.3067
 7228SOL    HW124126   6.679   1.038   7.452  0.4490 -0.0516 -2.7268
 7228SOL    HW224127   6.579   0.972   7.359 -2.7293 -0.9020  1.0392
 7229SOL     OW24128   4.152   3.419   8.866 -0.0290  1.1611  1.0940
 7229SOL    HW124129   4.078   3.381   8.913 -0.2434  0.1980  0.0321
 7229SOL    HW224130   4.197   3.343   8.828  0.1381  1.8879 -0.2099
 7230SOL     OW24131   3.168  10.242   5.425 -0.1962 -0.0361 -0.2825
 7230SOL    HW124132   3.129  10.220   5.510 -0.0774 -3.1327 -0.9207
 7230SOL    HW224133   3.112  10.198   5.361  1.7169 -0.7579 -1.5388
 7231SOL     OW24134   2.381   5.923   2.543 -0.0229  0.2514  0.0483
 7231SOL    HW124135   2.320   5.873   2.489 -0.9250  0.6767  0.6586
 7231SOL    HW224136   2.388   5.872   2.625  0.1089  0.4233  0.1446
 7232SOL     OW24137  10.477   5.026   6.766  0.1027  0.5257  0.9088
 7232SOL    HW124138  10.541   5.087   6.729  0.8692  0.4541  2.0715
 7232SOL    HW224139  10.526   4.977   6.832  0.5115 -3.6930 -2.0543
 7233SOL     OW24140   7.337   2.416   8.976  0.5344  0.7941  0.2928
 7233SOL    HW124141   7.295   2.393   8.894 -0.2117 -1.7388  1.3107
 7233SOL    HW224142   7.406   2.351   8.987 -1.0351 -0.5831  2.8516
 7234SOL     OW24143   9.270   6.456   4.960 -0.1234  0.6660 -0.7588
 7234SOL    HW124144   9.297   6.443   5.051 -1.1368  0.2326 -0.5086
 7234SOL    HW224145   9.342   6.421   4.908  0.0527  0.0580 -0.1171
 7235SOL     OW24146   0.080   0.036   4.331  0.5216  0.2047 -0.0924
 7235SOL    HW124147   0.060  -0.056   4.347  0.9134  0.2470  0.6939
 7235SOL    HW224148   0.165   0.050   4.373  1.2823  0.5209 -1.6521
 7236SOL     OW24149   2.795  10.252   7.057 -0.0691  0.2940 -0.5006
 7236SOL    HW124150   2.880  10.211   7.066  0.9846  2.4813  0.0495
 7236SOL    HW224151   2.736  10.198   7.109  1.0785 -0.9186 -0.4184
 7237SOL     OW24152   5.431   0.446  10.397 -0.0084 -0.3717 -0.4371
 7237SOL    HW124153   5.455   0.404  10.480 -1.6987  1.8573  1.2937
 7237SOL    HW224154   5.503   0.507  10.379  0.3544 -0.8506 -0.6335
 7238SOL     OW24155   5.176   1.709  10.416 -0.4914  0.4902 -0.4954
 7238SOL    HW124156   5.160   1.761  10.337 -2.8314 -0.4315 -0.7101
 7238SOL    HW224157   5.150   1.620  10.392 -1.5155  0.2426  1.3460
 7239SOL     OW24158   3.230   0.106   3.335 -0.2515 -0.4539 -0.3552
 7239SOL    HW124159   3.293   0.034   3.325 -0.5932 -0.6131 -1.5481
 7239SOL    HW224160   3.265   0.159   3.407  2.0512  0.2360 -1.8540
 7240SOL     OW24161   3.066   4.110   6.943 -0.1000 -0.2491 -0.5641
 7240SOL    HW124162   3.036   4.103   6.852 -0.4823 -0.5219 -0.4171
 7240SOL    HW224163   3.161   4.124   6.935 -0.0484 -0.7913 -0.9920
 7241SOL     OW24164   4.456   2.584   1.922 -0.3351  0.5667 -0.1752
 7241SOL    HW124165   4.457   2.674   1.953 -1.9925  0.7875 -0.6840
 7241SOL    HW224166   4.487   2.532   1.996  3.3860  1.7097 -0.7160
 7242SOL     OW24167   9.373   9.428   4.034 -0.1952 -0.1093  0.0158
 7242SOL    HW124168   9.323   9.353   4.065 -0.3491  0.5054  1.3346
 7242SOL    HW224169   9.325   9.504   4.068  1.3063  0.5105  0.8350
 7243SOL     OW24170   5.453   9.418   3.853 -0.3338  0.4867  0.0151
 7243SOL    HW124171   5.525   9.367   3.816 -0.2892  0.0648  0.6671
 7243SOL    HW224172   5.496   9.486   3.904 -0.3392 -1.0632  2.2104
 7244SOL     OW24173   4.328   5.184   3.626  0.3377  0.4262 -0.2311
 7244SOL    HW124174   4.318   5.258   3.566 -0.4858  0.8976  0.4615
 7244SOL    HW224175   4.416   5.193   3.661  0.8940  0.0487 -1.4679
 7245SOL     OW24176   9.021   6.659   5.938 -0.0938  0.3296 -0.4091
 7245SOL    HW124177   9.062   6.609   5.867  2.0552  0.2209  0.8122
 7245SOL    HW224178   8.975   6.594   5.991  0.5300  0.0069 -0.2527
 7246SOL     OW24179   2.027   3.820   7.039  0.5214 -0.6410 -0.1110
 7246SOL    HW124180   2.002   3.731   7.061  0.6949 -1.0424 -1.4424
 7246SOL    HW224181   2.123   3.821   7.045  0.6697 -1.0779 -1.8407
 7247SOL     OW24182   9.084   7.245   3.542  0.4725  0.4327 -0.0654
 7247SOL    HW124183   9.005   7.225   3.593  0.1727  0.9591 -0.3186
 7247SOL    HW224184   9.053   7.250   3.451  0.4758  2.2776  0.0061
 7248SOL     OW24185   7.826   6.181   4.131 -0.1028  0.2473 -0.1922
 7248SOL    HW124186   7.774   6.121   4.184 -1.1713  0.2336 -1.1952
 7248SOL    HW224187   7.792   6.268   4.154 -0.1013  0.2937 -0.3662
 7249SOL     OW24188   6.327   8.101   5.776 -0.1953  0.0827  0.4829
 7249SOL    HW124189   6.369   8.018   5.795  1.9974  1.3365  1.5526
 7249SOL    HW224190   6.399   8.161   5.755 -1.7888  1.3695 -1.8851
 7250SOL     OW24191   9.179   8.092   9.354 -0.3093  0.0460  0.4504
 7250SOL    HW124192   9.196   8.182   9.325 -0.2382 -0.2572 -0.4608
 7250SOL    HW224193   9.263   8.048   9.346 -0.2430 -0.0031  1.3109
 7251SOL     OW24194   1.808   4.831   8.474 -0.1670  0.4534 -0.3901
 7251SOL    HW124195   1.743   4.769   8.441 -0.9348  0.2635  1.3889
 7251SOL    HW224196   1.893   4.791   8.454 -0.5565  0.4848 -2.3115
 7252SOL     OW24197   0.317   9.858   4.810  0.0922 -0.3511  0.3663
 7252SOL    HW124198   0.373   9.842   4.886 -0.3070  1.6766  1.1557
 7252SOL    HW224199   0.378   9.875   4.738  0.4990  0.1422  0.8205
 7253SOL     OW24200   5.057   4.430   8.560 -0.1347  0.8073 -0.6557
 7253SOL    HW124201   5.149   4.453   8.547 -0.3791  1.9944 -0.4634
 7253SOL    HW224202   5.057   4.335   8.571  1.3899  1.0084  1.8472
 7254SOL     OW24203   5.436   4.764   1.761  0.0877 -0.7203 -0.2790
 7254SOL    HW124204   5.393   4.849   1.769 -2.0970 -1.8437  0.6526
 7254SOL    HW224205   5.424   4.739   1.670  2.4851  0.7621 -1.0963
 7255SOL     OW24206   2.624   3.995   3.385 -0.5484  0.6510 -0.0608
 7255SOL    HW124207   2.617   3.901   3.369  0.6298  0.0367  2.5867
 7255SOL    HW224208   2.696   4.023   3.327  0.2448 -0.4425  0.3509
 7256SOL     OW24209   5.705   9.290   3.792  0.1088 -0.2946 -0.4305
 7256SOL    HW124210   5.659   9.209   3.813 -1.6335  0.7255 -0.0814
 7256SOL    HW224211   5.746   9.273   3.707  0.0651 -1.6357 -0.2083
 7257SOL     OW24212   4.690   1.542   2.646  0.2243  0.0468 -0.2221
 7257SOL    HW124213   4.725   1.469   2.698  1.0627 -0.0462 -0.8910
 7257SOL    HW224214   4.674   1.611   2.711  0.6040 -0.2999  0.2534
 7258SOL     OW24215   8.528   7.202   9.441 -0.2871 -0.2043 -0.8931
 7258SOL    HW124216   8.480   7.162   9.368 -1.8330 -0.0191 -0.0223
 7258SOL    HW224217   8.471   7.189   9.517  0.0063  2.0376 -0.2302
 7259SOL     OW24218   9.075   0.738   2.103 -0.2884 -0.5317  0.6058
 7259SOL    HW124219   9.119   0.670   2.052  0.0129  0.0835  0.0272
 7259SOL    HW224220   8.983   0.733   2.075 -0.2884 -0.7595  0.6400
 7260SOL     OW24221   1.238   0.272   4.937  0.3019 -0.0200  0.1846
 7260SOL    HW124222   1.173   0.235   4.996  2.7841 -1.9104  1.9447
 7260SOL    HW224223   1.228   0.222   4.856  0.8888 -1.7321  1.1419
 7261SOL     OW24224   2.955   6.866   9.850  0.1410 -0.1036  0.1591
 7261SOL    HW124225   3.000   6.805   9.792  0.3140 -0.5010  0.6961
 7261SOL    HW224226   2.974   6.952   9.814 -0.5537 -0.3774 -0.9242
 7262SOL     OW24227   8.178   1.537   2.797  0.7168  0.0700  0.4167
 7262SOL    HW124228   8.103   1.540   2.737  0.4968 -0.1198  0.6757
 7262SOL    HW224229   8.252   1.515   2.741  0.6101  0.4298  0.1295
 7263SOL     OW24230   5.543   5.903   4.810 -0.5524 -0.2743  0.0837
 7263SOL    HW124231   5.636   5.887   4.828 -0.1425  2.4056  0.7243
 7263SOL    HW224232   5.540   5.992   4.777 -2.8737 -0.5227 -0.5579
 7264SOL     OW24233   0.431   9.546  10.254 -0.5259 -0.4001 -0.0196
 7264SOL    HW124234   0.469   9.564  10.340  0.1418 -0.6797 -0.2462
 7264SOL    HW224235   0.349   9.500  10.273 -0.2390 -0.7243  0.4590
 7265SOL     OW24236   9.067   8.053   5.428 -0.3993 -0.7842  0.3509
 7265SOL    HW124237   9.035   8.077   5.515  0.9514 -0.5581  0.8077
 7265SOL    HW224238   8.998   8.082   5.368 -0.1240  1.6206  1.1106
 7266SOL     OW24239   7.528   0.161  10.079 -0.4454  0.4184  0.3165
 7266SOL    HW124240   7.552   0.230  10.016 -1.8934  0.7951  0.1471
 7266SOL    HW224241   7.604   0.103  10.081  1.4380  2.7174  1.4825
 7267SOL     OW24242   8.639   1.111   0.869  0.1736 -0.0544 -0.1976
 7267SOL    HW124243   8.678   1.035   0.826 -2.1171 -1.5904  0.2253
 7267SOL    HW224244   8.668   1.104   0.960  0.9970  0.3135 -0.4307
 7268SOL     OW24245   1.500   9.277   3.056 -0.3782  0.6682 -0.8353
 7268SOL    HW124246   1.569   9.218   3.025  0.1525  1.0288 -0.3643
 7268SOL    HW224247   1.421   9.223   3.057  0.2818 -0.3346  0.5383
 7269SOL     OW24248   0.589   8.375   1.771  0.2087 -0.2562 -0.5186
 7269SOL    HW124249   0.534   8.440   1.726  1.3588 -0.8061 -2.8670
 7269SOL    HW224250   0.528   8.308   1.801 -0.8597  1.2735  0.8952
 7270SOL     OW24251   7.209   0.992   3.211  0.3196 -0.2138  0.4985
 7270SOL    HW124252   7.178   0.909   3.247  0.2329 -0.6393 -0.5057
 7270SOL    HW224253   7.258   0.968   3.132  0.7195  0.6568  0.4611
 7271SOL     OW24254   4.359   0.219   9.918 -0.6557 -0.3768  0.5955
 7271SOL    HW124255   4.330   0.302   9.957 -1.9892  0.3552 -1.7552
 7271SOL    HW224256   4.286   0.192   9.862  1.0797 -1.3806 -1.3097
 7272SOL     OW24257   3.261   1.840   4.632 -0.4144  0.3113  0.2229
 7272SOL    HW124258   3.277   1.816   4.723  0.4010  0.3326  0.0951
 7272SOL    HW224259   3.348   1.840   4.592 -0.5084  2.1664 -0.0927
 7273SOL     OW24260   6.063   6.900   9.477 -0.2491  0.5998  0.4374
 7273SOL    HW124261   5.975   6.936   9.464 -0.0702  1.0785  0.5253
 7273SOL    HW224262   6.121   6.972   9.453  0.1247  0.1828  0.0834
 7274SOL     OW24263   3.081   1.522   4.792 -0.1430  0.6861 -0.2751
 7274SOL    HW124264   3.027   1.501   4.868 -0.5571  1.4800 -0.3377
 7274SOL    HW224265   3.163   1.554   4.828  0.4824 -0.9530 -0.1788
 7275SOL     OW24266   3.035  10.423   7.162  0.0174  0.0765  0.4888
 7275SOL    HW124267   2.978  10.354   7.198  0.0470 -0.6633 -0.8260
 7275SOL    HW224268   3.118  10.411   7.208 -0.4668  0.2911  1.4409
 7276SOL     OW24269   0.680  10.009   8.029  0.4548  0.3101 -0.3670
 7276SOL    HW124270   0.683   9.965   8.114  1.6195  1.8326  0.4234
 7276SOL    HW224271   0.600   9.975   7.988  0.6987 -1.6627  0.6420
 7277SOL     OW24272   8.919   8.059   9.236 -0.0160 -0.1264 -0.0542
 7277SOL    HW124273   8.991   8.053   9.299 -0.2968 -2.5368  0.1163
 7277SOL    HW224274   8.850   8.005   9.274 -3.3975  4.5565  1.5037
 7278SOL     OW24275   7.033   5.030   1.476 -0.6994  0.2912  0.2497
 7278SOL    HW124276   7.027   5.086   1.553 -0.2142 -0.7479  1.0622
 7278SOL    HW224277   7.044   5.091   1.403  0.1823  1.2453  1.1428
 7279SOL     OW24278   2.535   1.771   7.052  1.1387  0.2045 -0.2471
 7279SOL    HW124279   2.531   1.687   7.098 -1.3059  1.1583  1.4585
 7279SOL    HW224280   2.466   1.824   7.091  0.2534  1.8617 -3.6044
 7280SOL     OW24281   9.250   0.806   5.766  0.6032 -0.2499  0.7316
 7280SOL    HW124282   9.295   0.853   5.836  0.8085  1.1201 -0.2872
 7280SOL    HW224283   9.314   0.800   5.695 -0.7745  1.8593 -0.8009
 7281SOL     OW24284   8.247   7.357  10.229  0.0390  0.5564  0.2251
 7281SOL    HW124285   8.306   7.296  10.274 -0.0705  0.2064 -0.0927
 7281SOL    HW224286   8.166   7.308  10.218  0.9843 -0.5965 -3.0988
 7282SOL     OW24287   3.919   7.786   2.294  0.2862 -0.4642 -0.8493
 7282SOL    HW124288   3.942   7.875   2.321 -0.7161 -0.0320 -1.3876
 7282SOL    HW224289   3.986   7.762   2.231  0.9675 -0.3675 -0.1754
 7283SOL     OW24290   8.745   2.734   3.306 -0.0848  0.2300  0.2736
 7283SOL    HW124291   8.778   2.780   3.383  2.0222 -0.5777 -0.0714
 7283SOL    HW224292   8.727   2.804   3.243  3.1983  0.7535 -0.2994
 7284SOL     OW24293   0.855   5.697   1.053 -0.3581  0.3520 -0.2386
 7284SOL    HW124294   0.911   5.774   1.041 -0.3558  0.1260 -2.0599
 7284SOL    HW224295   0.909   5.623   1.026 -0.9567 -0.0735 -0.3067
 7285SOL     OW24296   1.981   1.301   6.667 -0.4257  0.3839 -0.3095
 7285SOL    HW124297   1.952   1.236   6.602  0.5617 -1.9703  1.4351
 7285SOL    HW224298   1.900   1.335   6.705 -1.0082 -1.3953  0.1299
 7286SOL     OW24299   2.718   1.499   9.221 -0.2034  0.3308 -0.0435
 7286SOL    HW124300   2.629   1.524   9.244 -0.0838  0.7424 -0.0053
 7286SOL    HW224301   2.773   1.551   9.280  0.1126  1.4281 -1.2567
 7287SOL     OW24302   5.417   2.842   0.071  0.4684  0.0761  0.3806
 7287SOL    HW124303   5.482   2.908   0.048  1.8990 -1.7661 -1.2878
 7287SOL    HW224304   5.351   2.889   0.122  0.5391  3.1410 -2.0461
 7288SOL     OW24305   9.909   7.691   3.421  0.1229  0.0896  0.8475
 7288SOL    HW124306   9.985   7.668   3.474  0.5785 -0.0639  0.1408
 7288SOL    HW224307   9.941   7.690   3.331 -0.4512  1.0587  0.6134
 7289SOL     OW24308   8.458   4.670   8.972 -0.2147 -0.2785  0.0941
 7289SOL    HW124309   8.540   4.655   8.926  0.0818  1.2284  0.0820
 7289SOL    HW224310   8.402   4.597   8.945  0.1434  0.2079 -2.2018
 7290SOL     OW24311   0.965   4.008   1.450 -0.0557  0.0832 -0.0957
 7290SOL    HW124312   0.941   3.959   1.529 -0.0706 -0.2716 -0.3177
 7290SOL    HW224313   0.899   4.077   1.443  0.5387  0.7547  0.7664
 7291SOL     OW24314   6.182   0.910   9.163  0.3132 -0.1020 -0.3122
 7291SOL    HW124315   6.119   0.854   9.210  1.4782 -0.1775  1.2505
 7291SOL    HW224316   6.219   0.853   9.096 -0.3447 -0.4437 -0.3996
 7292SOL     OW24317   5.070   9.418   4.840 -0.0391 -0.2668 -0.1590
 7292SOL    HW124318   5.136   9.392   4.777  0.8437 -0.2892  0.7429
 7292SOL    HW224319   5.045   9.336   4.883 -0.1919 -0.1745 -0.0713
 7293SOL     OW24320   5.166   4.415   4.518 -0.1165 -0.7785  0.4206
 7293SOL    HW124321   5.191   4.392   4.428  1.4443 -0.2834  0.6995
 7293SOL    HW224322   5.159   4.511   4.516 -0.7240 -0.8178  0.6758
 7294SOL     OW24323   2.320   4.350   3.604 -0.1886  0.0946  0.3061
 7294SOL    HW124324   2.374   4.406   3.660  0.2220  2.1390 -1.9595
 7294SOL    HW224325   2.383   4.303   3.550 -0.5793 -1.8470  1.4459
 7295SOL     OW24326   0.224   4.334   3.682  0.4220  0.2234  0.3037
 7295SOL    HW124327   0.217   4.417   3.636 -1.4446  0.6500  1.2559
 7295SOL    HW224328   0.309   4.299   3.656 -0.2355  0.7301 -2.8725
 7296SOL     OW24329   6.760   8.564   5.845 -0.2062  0.7108  0.2899
 7296SOL    HW124330   6.739   8.655   5.823 -2.1389  0.2162 -0.0459
 7296SOL    HW224331   6.676   8.522   5.861  0.7243 -0.6905  1.9251
 7297SOL     OW24332   1.661   5.246   2.466  0.1637 -0.0490  0.2885
 7297SOL    HW124333   1.614   5.303   2.406 -3.2633  0.1089  2.7961
 7297SOL    HW224334   1.624   5.159   2.451  1.5494 -0.6323  0.0892
 7298SOL     OW24335   7.152   5.568   3.766  0.1815  0.0523  0.4338
 7298SOL    HW124336   7.059   5.568   3.787  0.4111  2.1817  1.6318
 7298SOL    HW224337   7.196   5.561   3.850  1.1105  0.3515 -0.0144
 7299SOL     OW24338   0.119   5.898   7.726  0.0572 -0.4942  0.4681
 7299SOL    HW124339   0.061   5.974   7.727  0.7094  0.0075  0.4555
 7299SOL    HW224340   0.206   5.933   7.745  0.3544 -1.2459  0.5296
 7300SOL     OW24341   7.747   8.569   8.013 -0.0695 -0.1130 -0.2040
 7300SOL    HW124342   7.665   8.617   8.026  0.9703  2.2043 -1.5095
 7300SOL    HW224343   7.739   8.528   7.927  0.1919  0.2649 -0.4120
 7301SOL     OW24344   9.872   8.307   3.607 -0.1461  0.2808 -0.4778
 7301SOL    HW124345   9.807   8.377   3.601 -0.0086  0.4382 -0.1298
 7301SOL    HW224346   9.918   8.323   3.689  0.7511  0.5430 -1.0098
 7302SOL     OW24347   5.274   4.464   8.844  0.4452 -0.0399 -0.4122
 7302SOL    HW124348   5.189   4.459   8.800  0.9409 -1.9634 -1.2702
 7302SOL    HW224349   5.323   4.389   8.810  2.6167  1.1802 -0.1856
 7303SOL     OW24350   8.791   8.985  10.464  0.3059 -0.8000  0.0513
 7303SOL    HW124351   8.701   9.016  10.448  0.9846  1.3702  0.1269
 7303SOL    HW224352   8.818   9.031  10.544  1.6395 -1.0440 -0.2402
 7304SOL     OW24353   9.997   5.575   3.540  0.2280 -0.0469 -0.5076
 7304SOL    HW124354   9.969   5.595   3.629  1.4458  0.2986 -0.1837
 7304SOL    HW224355   9.920   5.592   3.486 -0.5682 -0.4020  0.4897
 7305SOL     OW24356   1.932   3.661   5.279  0.4232  0.1736 -0.5092
 7305SOL    HW124357   1.892   3.620   5.203 -1.4519  0.4808  0.2475
 7305SOL    HW224358   1.861   3.711   5.319  1.4074  0.1892  1.3173
 7306SOL     OW24359   7.685   6.419   5.979  0.6138 -0.5699 -0.1610
 7306SOL    HW124360   7.711   6.511   5.982 -1.8269  0.3964 -3.5952
 7306SOL    HW224361   7.616   6.412   6.045 -0.9870  0.7988 -1.6234
 7307SOL     OW24362   5.999  10.316   1.807  0.1524 -0.0455 -0.4569
 7307SOL    HW124363   6.091  10.309   1.780  0.2217 -0.2665 -0.1627
 7307SOL    HW224364   5.996  10.393   1.864  0.5285 -1.1051  1.0583
 7308SOL     OW24365   6.229   2.722   0.136 -0.0321  0.0736 -0.2272
 7308SOL    HW124366   6.261   2.787   0.198 -0.7091  0.7848 -0.6004
 7308SOL    HW224367   6.298   2.656   0.132  0.8565  0.9676 -0.1415
 7309SOL     OW24368   1.185   9.226   5.380  0.6225  0.6265 -0.4272
 7309SOL    HW124369   1.261   9.206   5.325  1.6576  0.4066  1.0120
 7309SOL    HW224370   1.218   9.292   5.442 -0.5994  1.1285 -0.3014
 7310SOL     OW24371   8.720   3.012   5.685 -0.1969 -0.1904  0.6000
 7310SOL    HW124372   8.685   3.058   5.761 -0.4833  1.4434 -0.4684
 7310SOL    HW224373   8.644   2.974   5.643 -0.5889  2.0997 -0.8991
 7311SOL     OW24374   7.831  10.430   7.265  0.7681 -0.0821 -0.4980
 7311SOL    HW124375   7.788  10.357   7.310  0.6156  1.4443  2.0109
 7311SOL    HW224376   7.761  10.473   7.217 -0.0523  0.7921  1.3819
 7312SOL     OW24377   0.843   4.738   3.828 -0.2750  0.4385  0.6518
 7312SOL    HW124378   0.826   4.657   3.877  0.8503 -0.3107 -0.1604
 7312SOL    HW224379   0.819   4.808   3.889 -0.8896 -0.4890  1.5084
 7313SOL     OW24380   2.037   4.921   4.114 -0.0861  0.1640 -0.2669
 7313SOL    HW124381   1.959   4.868   4.132  0.1018  0.7791  3.0003
 7313SOL    HW224382   2.025   4.999   4.167  1.6385  1.4434 -1.6564
 7314SOL     OW24383   0.091   0.329   2.208  0.6069 -0.8827  0.4822
 7314SOL    HW124384   0.102   0.378   2.289  0.4814  0.5350 -0.3198
 7314SOL    HW224385   0.016   0.370   2.165  1.2073 -1.0074 -0.7500
 7315SOL     OW24386   3.750   0.126   7.105  0.2131  0.0575  0.3111
 7315SOL    HW124387   3.714   0.073   7.033 -1.7720  1.3938  0.2565
 7315SOL    HW224388   3.735   0.216   7.078  3.8635  0.7810  0.2285
 7316SOL     OW24389   3.222   6.344   8.203 -0.0111 -0.5183 -0.0324
 7316SOL    HW124390   3.260   6.257   8.207  0.7928 -0.1324  1.5030
 7316SOL    HW224391   3.131   6.332   8.232 -0.4353 -1.0912 -1.5304
 7317SOL     OW24392   6.150   0.994   4.606  0.0405  0.1990  0.5873
 7317SOL    HW124393   6.076   0.963   4.659 -0.4083 -2.3218 -1.3396
 7317SOL    HW224394   6.109   1.032   4.529  0.7071 -0.4604 -0.1031
 7318SOL     OW24395  10.205   8.890   0.528  0.0542 -0.3110  0.2144
 7318SOL    HW124396  10.285   8.912   0.480  0.4468 -0.7658  0.6516
 7318SOL    HW224397  10.151   8.969   0.522 -0.0531 -0.4742 -1.2607
 7319SOL     OW24398   0.945   3.135   7.465 -0.0660 -0.0075  0.4403
 7319SOL    HW124399   0.884   3.102   7.531 -0.1107  0.9134  0.8879
 7319SOL    HW224400   0.952   3.065   7.401 -1.6456 -0.1177  0.3528
 7320SOL     OW24401   7.809   3.122   1.762 -0.4302 -0.7973 -0.3211
 7320SOL    HW124402   7.784   3.047   1.816 -1.6051  0.3780  0.8387
 7320SOL    HW224403   7.775   3.101   1.675 -0.1919 -1.8810 -0.1685
 7321SOL     OW24404   7.466   3.300   8.601  0.3112  0.1397  0.3442
 7321SOL    HW124405   7.400   3.237   8.632  0.0709  0.0448 -0.3510
 7321SOL    HW224406   7.442   3.382   8.645 -0.9424  0.3811 -0.7308
 7322SOL     OW24407  10.283   5.753   9.332  0.1610  0.1157  0.3159
 7322SOL    HW124408  10.203   5.752   9.386 -0.1860 -0.4233 -0.1974
 7322SOL    HW224409  10.251   5.743   9.242  0.8708 -1.4107  0.2000
 7323SOL     OW24410   8.914   1.399   1.041 -0.0803  0.4022  0.5123
 7323SOL    HW124411   8.892   1.409   1.134  1.2647  0.1171  0.8877
 7323SOL    HW224412   9.004   1.369   1.041 -0.0225  0.4949 -0.9075
 7324SOL     OW24413   4.657   2.256   7.545  0.6717 -0.1158 -0.9656
 7324SOL    HW124414   4.726   2.237   7.608  1.1789  0.9185 -1.1863
 7324SOL    HW224415   4.662   2.184   7.482  1.0993 -0.4014 -0.6112
 7325SOL     OW24416   1.510   5.191   2.742 -0.2483 -0.3957 -0.4766
 7325SOL    HW124417   1.491   5.223   2.654 -1.0213  0.7011  0.0614
 7325SOL    HW224418   1.430   5.207   2.792  0.6761  0.4496  0.8104
 7326SOL     OW24419   2.938   1.798   6.718  0.4272 -0.2984 -0.6303
 7326SOL    HW124420   2.941   1.782   6.624 -2.1961 -1.8213 -0.5446
 7326SOL    HW224421   2.871   1.739   6.751  1.0485  0.3873  2.1897
 7327SOL     OW24422   7.524   5.462   9.954  0.6217  0.6548 -0.1549
 7327SOL    HW124423   7.497   5.469   9.862 -0.3042 -0.4603  0.0118
 7327SOL    HW224424   7.600   5.404   9.951  0.0939 -0.0464 -0.1416
 7328SOL     OW24425   5.926   4.304   9.540 -0.3214 -0.2084 -0.7780
 7328SOL    HW124426   5.865   4.287   9.611  0.1876 -1.2233 -0.5736
 7328SOL    HW224427   5.986   4.230   9.541  0.5675  0.4801 -1.3415
 7329SOL     OW24428   6.928   2.488   6.170 -0.2078 -0.8311 -0.4788
 7329SOL    HW124429   6.914   2.456   6.080  0.8563  0.1332 -1.0098
 7329SOL    HW224430   7.020   2.471   6.187  0.7109  2.7408 -1.1764
 7330SOL     OW24431   1.761   5.818   9.232  0.0405  0.0815 -0.0655
 7330SOL    HW124432   1.855   5.822   9.249  0.0964 -2.3799  0.6232
 7330SOL    HW224433   1.727   5.900   9.267  1.8164  0.6704  0.3990
 7331SOL     OW24434   5.208  10.286   9.760  0.1068 -0.0826  0.0588
 7331SOL    HW124435   5.260  10.210   9.735  0.0351 -1.1414  2.7011
 7331SOL    HW224436   5.143  10.295   9.690  0.5995 -2.0070 -0.7176
 7332SOL     OW24437   5.332   6.690   1.831  0.4750 -0.5291 -0.0450
 7332SOL    HW124438   5.239   6.682   1.848  0.1941  1.0308 -0.6432
 7332SOL    HW224439   5.353   6.614   1.776 -0.7032 -0.3035 -0.8540
 7333SOL     OW24440   3.689   1.608   9.938 -0.6350  0.4507 -0.2605
 7333SOL    HW124441   3.671   1.538   9.874 -1.6211  0.3437  0.1205
 7333SOL    HW224442   3.618   1.601  10.001 -1.1461  2.2609 -0.5969
 7334SOL     OW24443   1.950   9.575   6.402 -0.0495 -0.3960  0.3172
 7334SOL    HW124444   2.044   9.583   6.387 -0.4604  3.3391 -1.4839
 7334SOL    HW224445   1.941   9.590   6.497  1.1784 -1.4745  0.6356
 7335SOL     OW24446   7.282   8.035   2.702 -0.5170  0.5342  0.0164
 7335SOL    HW124447   7.258   7.949   2.736 -0.7738  0.5922 -0.0165
 7335SOL    HW224448   7.249   8.035   2.612  2.1616 -0.5001 -1.0868
 7336SOL     OW24449   0.017   5.702   0.335 -0.2075  0.3247  0.7838
 7336SOL    HW124450  -0.038   5.624   0.322 -1.4624  1.1889  0.7590
 7336SOL    HW224451   0.075   5.702   0.259 -0.9473  0.0094  0.2009
 7337SOL     OW24452   4.752   0.375   8.650 -0.2091  0.5771 -0.3398
 7337SOL    HW124453   4.736   0.288   8.685 -1.8203  1.1286  0.4225
 7337SOL    HW224454   4.699   0.379   8.570 -0.1279  0.8381 -0.3828
 7338SOL     OW24455   2.049   9.630   0.469 -0.3451  0.1273  0.0307
 7338SOL    HW124456   1.958   9.642   0.497 -0.7654 -3.1248  0.3863
 7338SOL    HW224457   2.096   9.607   0.549  0.4748  0.1758 -0.4222
 7339SOL     OW24458   0.857   5.040   4.047 -0.3594  0.1514 -0.0720
 7339SOL    HW124459   0.793   5.082   3.988 -1.8218  0.0895  1.3813
 7339SOL    HW224460   0.880   5.109   4.109 -0.4184 -0.3332  0.4980
 7340SOL     OW24461  10.023   6.360   8.815 -0.0905  0.0763  0.5754
 7340SOL    HW124462  10.036   6.314   8.732 -0.1826  2.9054 -1.1584
 7340SOL    HW224463   9.952   6.313   8.858 -1.1745 -0.5575 -1.7392
 7341SOL     OW24464   0.451   0.961   8.801  0.3436 -0.1779 -0.1698
 7341SOL    HW124465   0.384   0.894   8.791  2.0630 -1.8306 -1.3669
 7341SOL    HW224466   0.409   1.030   8.852 -2.2926 -1.0451 -1.0088
 7342SOL     OW24467   2.724   5.300   7.130 -0.1610  0.3401 -0.2677
 7342SOL    HW124468   2.730   5.211   7.094  0.6824 -0.1795  1.0832
 7342SOL    HW224469   2.813   5.322   7.156 -0.2085  1.9495 -1.3570
 7343SOL     OW24470   5.722   0.904   5.094 -0.3709  0.4189 -0.7129
 7343SOL    HW124471   5.737   0.998   5.104  0.8147  0.0803  1.1198
 7343SOL    HW224472   5.636   0.889   5.133  0.6687  0.3597  1.6668
 7344SOL     OW24473   4.020   9.672   4.443 -0.1721  0.4023 -0.3612
 7344SOL    HW124474   4.034   9.686   4.537 -0.0319 -1.4683 -0.0518
 7344SOL    HW224475   3.927   9.648   4.436  0.6210 -3.3399 -0.0618
 7345SOL     OW24476   6.869   6.768   8.827 -0.5399 -0.1615 -0.2193
 7345SOL    HW124477   6.911   6.687   8.857  0.1354  0.6001  0.9826
 7345SOL    HW224478   6.860   6.821   8.906 -0.1874  1.2819 -1.0993
 7346SOL     OW24479   8.235   5.848   1.803  0.0983 -0.4778 -0.5122
 7346SOL    HW124480   8.237   5.898   1.884  0.5251  0.3273 -1.0145
 7346SOL    HW224481   8.303   5.781   1.814 -0.0007 -0.5155 -0.1245
 7347SOL     OW24482   9.139   3.038   8.832  0.6046 -0.0070  0.0182
 7347SOL    HW124483   9.103   2.949   8.826  2.7206 -0.9090 -0.7955
 7347SOL    HW224484   9.198   3.034   8.907  0.1542  0.9509  0.4276
 7348SOL     OW24485  10.254  10.424   5.167 -0.2074 -0.5645 -0.1252
 7348SOL    HW124486  10.333  10.461   5.204 -0.3401 -0.6132  0.2105
 7348SOL    HW224487  10.221  10.491   5.106 -1.4160  0.6554  1.7756
 7349SOL     OW24488   1.884   6.436   5.399 -0.0590  0.0346  0.1649
 7349SOL    HW124489   1.828   6.411   5.325  0.2603  1.8622 -0.7619
 7349SOL    HW224490   1.951   6.368   5.403 -0.3304 -0.3190 -0.9852
 7350SOL     OW24491   7.474   6.148   6.009  0.1649 -0.6112 -0.2927
 7350SOL    HW124492   7.472   6.239   6.041  2.4690 -0.2763 -0.9436
 7350SOL    HW224493   7.486   6.156   5.915 -1.9406 -1.6327 -0.6982
 7351SOL     OW24494   0.360   3.487   7.930  0.8282 -0.0087  0.2336
 7351SOL    HW124495   0.436   3.520   7.978 -0.3060  0.5477  1.7472
 7351SOL    HW224496   0.361   3.536   7.848  0.6250  2.0393  1.3674
 7352SOL     OW24497   7.878   6.462   6.680  0.7564 -0.1138 -0.4444
 7352SOL    HW124498   7.871   6.531   6.614 -0.0615 -0.7534 -1.0499
 7352SOL    HW224499   7.971   6.460   6.703  0.6371  1.9566  0.4532
 7353SOL     OW24500   8.561   4.245   5.780 -0.1467 -0.1657 -0.2133
 7353SOL    HW124501   8.486   4.289   5.740  0.0958  0.3897 -0.0682
 7353SOL    HW224502   8.544   4.151   5.767  0.6443 -0.0207 -2.9934
 7354SOL     OW24503   1.011   0.373   9.339 -0.4171  0.2488  0.0315
 7354SOL    HW124504   0.953   0.447   9.359  0.4876  0.9941  0.0212
 7354SOL    HW224505   1.061   0.403   9.263  1.6611  0.6631  1.4521
 7355SOL     OW24506   6.528   7.597   5.409  0.1380  0.0224 -0.0665
 7355SOL    HW124507   6.447   7.649   5.408 -0.5276 -0.9572  0.7571
 7355SOL    HW224508   6.516   7.532   5.340 -0.7326 -1.4773  1.4394
 7356SOL     OW24509  10.241   1.944   6.817  0.1457 -0.2022 -0.3037
 7356SOL    HW124510  10.260   2.019   6.759  0.3916 -1.7189 -2.3067
 7356SOL    HW224511  10.320   1.935   6.870  0.7074  0.1006 -1.0582
 7357SOL     OW24512   3.192   9.610   0.122 -0.1481  0.0212  0.1208
 7357SOL    HW124513   3.177   9.549   0.049 -0.0976  0.2213 -0.0566
 7357SOL    HW224514   3.128   9.583   0.188  0.4842 -0.8181  0.4126
 7358SOL     OW24515   2.826   4.121   3.668  0.9122  0.2469 -0.3209
 7358SOL    HW124516   2.855   4.063   3.597  0.0868 -0.5090 -0.0620
 7358SOL    HW224517   2.762   4.069   3.717  1.6451  0.6689  1.1414
 7359SOL     OW24518   3.029   5.493   0.713  0.1588 -0.1085 -0.4213
 7359SOL    HW124519   3.087   5.456   0.781 -0.7125 -1.6840 -0.4752
 7359SOL    HW224520   3.067   5.461   0.631 -1.4803 -2.3596 -0.4010
 7360SOL     OW24521   3.981   4.013   0.366 -0.1402  0.5849 -0.4132
 7360SOL    HW124522   3.993   4.089   0.423  2.0479  0.2918 -0.3719
 7360SOL    HW224523   4.031   4.034   0.287 -0.4352 -0.3555 -0.8663
 7361SOL     OW24524   1.560   1.763   9.352  0.2658 -0.1439 -0.4943
 7361SOL    HW124525   1.616   1.697   9.394  1.9522  0.6143 -1.4316
 7361SOL    HW224526   1.538   1.725   9.268  0.6880  0.1964 -0.7631
 7362SOL     OW24527   7.373   5.613   7.922 -0.1239 -0.5886  0.0327
 7362SOL    HW124528   7.434   5.657   7.981 -0.3760  0.8879 -0.7497
 7362SOL    HW224529   7.320   5.558   7.980 -0.4649  0.9222  1.2506
 7363SOL     OW24530   7.067   8.287   9.662  0.3383 -0.0014 -0.4437
 7363SOL    HW124531   6.993   8.342   9.688  0.0183 -0.3512 -0.6095
 7363SOL    HW224532   7.101   8.328   9.583  0.4773  0.3003 -0.2298
 7364SOL     OW24533  10.344   8.728   7.700 -0.3650  0.1871  0.2116
 7364SOL    HW124534  10.381   8.704   7.615  2.6404  2.4622  0.7010
 7364SOL    HW224535  10.308   8.815   7.687 -0.6412  0.2077  1.0669
 7365SOL     OW24536   4.173   7.435   2.655 -0.3692 -0.1165  1.1848
 7365SOL    HW124537   4.192   7.468   2.568  0.6926 -0.9122  1.0960
 7365SOL    HW224538   4.155   7.514   2.707 -0.4443  0.4020  0.3934
 7366SOL     OW24539   1.011   8.305   1.631 -0.2769  0.4528  0.0548
 7366SOL    HW124540   1.096   8.344   1.611  0.5261 -1.1469  0.1533
 7366SOL    HW224541   0.993   8.247   1.557 -0.3418 -0.6845  0.9417
 7367SOL     OW24542   6.486   3.513   9.474 -0.0846 -0.6458 -0.1256
 7367SOL    HW124543   6.506   3.594   9.522  0.6264 -0.3818 -0.8380
 7367SOL    HW224544   6.391   3.504   9.481 -0.1772  0.2775 -0.0512
 7368SOL     OW24545   3.547   9.293   4.824 -0.2410  0.5742  0.1706
 7368SOL    HW124546   3.594   9.370   4.791  0.4138  0.7355  1.4333
 7368SOL    HW224547   3.479   9.329   4.881  1.2223  0.2057  2.2428
 7369SOL     OW24548   5.258   6.608   6.930  0.3326  0.2175 -0.2589
 7369SOL    HW124549   5.259   6.571   7.019  0.7223 -0.1214 -0.3998
 7369SOL    HW224550   5.347   6.639   6.916 -0.0518  1.4347 -0.0599
 7370SOL     OW24551   0.955   5.123   9.810 -0.0337  0.1217  0.2165
 7370SOL    HW124552   0.869   5.130   9.768  0.1343  0.0464 -0.1472
 7370SOL    HW224553   0.948   5.178   9.888 -0.4896 -0.0740  0.3215
 7371SOL     OW24554   7.030   5.655   7.142 -0.0334 -0.5105  0.4115
 7371SOL    HW124555   6.984   5.630   7.222  0.2961  0.5582  0.9567
 7371SOL    HW224556   7.071   5.739   7.163  1.5595 -1.0718 -0.2875
 7372SOL     OW24557   2.998   6.206   6.896  0.1280 -0.3520  0.0546
 7372SOL    HW124558   3.078   6.177   6.851  1.0196 -2.1664  2.5885
 7372SOL    HW224559   2.927   6.162   6.851  1.0631 -2.7753  0.7775
 7373SOL     OW24560   9.492   5.336   5.976 -0.3182  0.3974 -0.7080
 7373SOL    HW124561   9.516   5.247   6.001  0.1437  0.5632 -0.5664
 7373SOL    HW224562   9.527   5.347   5.888 -1.2046  0.1120 -1.1120
 7374SOL     OW24563   6.516   4.455   0.364 -0.0201  0.0013 -0.1451
 7374SOL    HW124564   6.581   4.392   0.395 -0.6180 -0.5059  0.0932
 7374SOL    HW224565   6.464   4.406   0.300 -0.7465  0.1212  0.3416
 7375SOL     OW24566   4.603   2.244   8.031  0.1099  0.6767 -0.2360
 7375SOL    HW124567   4.627   2.275   7.944  2.3600 -0.9181 -0.2756
 7375SOL    HW224568   4.666   2.287   8.090 -0.3355  0.4632  0.4094
 7376SOL     OW24569   3.435   9.757   7.664 -0.0584  0.1286  0.2175
 7376SOL    HW124570   3.482   9.754   7.747  0.5829  1.6094 -0.0683
 7376SOL    HW224571   3.385   9.839   7.668  0.7177  0.6958 -1.2366
 7377SOL     OW24572   5.649   5.102   8.270  0.4298  0.8212 -0.2349
 7377SOL    HW124573   5.688   5.037   8.211  0.3160  0.4902  0.0497
 7377SOL    HW224574   5.723   5.150   8.306  0.4493  2.1036 -1.8377
 7378SOL     OW24575   1.813   4.338   7.667 -0.0158  0.8606  0.7074
 7378SOL    HW124576   1.751   4.273   7.635  0.9880 -0.1484  0.7542
 7378SOL    HW224577   1.857   4.370   7.588 -0.0432  1.0030  0.7485
 7379SOL     OW24578   7.112   1.236   6.278  0.0920  0.1187  0.0832
 7379SOL    HW124579   7.134   1.238   6.185 -1.8720 -0.8921 -0.4716
 7379SOL    HW224580   7.195   1.251   6.323  1.2240 -0.1044 -1.8174
 7380SOL     OW24581   9.211   1.160   4.137  0.3060  0.0147 -0.0528
 7380SOL    HW124582   9.218   1.251   4.109 -0.3674 -0.2837 -1.2570
 7380SOL    HW224583   9.151   1.162   4.211  0.3181  0.5593 -0.0532
 7381SOL     OW24584   9.063   2.307  10.036  0.2029 -0.4361 -0.2766
 7381SOL    HW124585   9.006   2.242  10.077  0.1312  0.3534  0.9006
 7381SOL    HW224586   9.141   2.308  10.091  0.9212 -0.7133 -1.2520
 7382SOL     OW24587   2.455   5.054   6.448  0.1840 -0.2132  0.1525
 7382SOL    HW124588   2.533   5.004   6.473  0.2202  0.1498  0.7999
 7382SOL    HW224589   2.391   5.033   6.515 -0.4927 -0.9808 -0.7117
 7383SOL     OW24590   7.843   2.115   8.838 -0.0475 -0.1114  0.5910
 7383SOL    HW124591   7.880   2.114   8.749  0.0616 -0.1383  0.6368
 7383SOL    HW224592   7.784   2.040   8.840  0.6022 -0.6281  0.8171
 7384SOL     OW24593   9.593   5.411   5.690 -0.1570 -0.1004 -0.6117
 7384SOL    HW124594   9.542   5.442   5.615  0.1663 -1.1467 -1.2838
 7384SOL    HW224595   9.634   5.330   5.659  1.3257  0.3248  0.1338
 7385SOL     OW24596   0.496   5.468   8.998  0.5626 -0.4491  0.4624
 7385SOL    HW124597   0.581   5.511   8.989  0.0398  0.3840 -0.8148
 7385SOL    HW224598   0.483   5.423   8.914  0.2339 -1.5264  1.0675
 7386SOL     OW24599   3.709   4.980   2.752 -0.1219 -0.2180  0.1883
 7386SOL    HW124600   3.619   4.957   2.773 -0.3202  1.5483  1.5286
 7386SOL    HW224601   3.702   5.065   2.708  0.8752 -0.2007  0.0457
 7387SOL     OW24602   7.049   3.088   3.550  0.1968 -0.1724  0.4796
 7387SOL    HW124603   7.123   3.028   3.541 -0.8096 -1.5988  1.2931
 7387SOL    HW224604   6.972   3.036   3.526 -0.7168  0.7746  1.2200
 7388SOL     OW24605   5.842   9.118   3.207  0.0138 -0.6355  0.0121
 7388SOL    HW124606   5.800   9.141   3.123 -2.2722  0.0740  1.2525
 7388SOL    HW224607   5.811   9.030   3.225 -3.6905  0.8979  2.3385
 7389SOL     OW24608   4.912   9.112   4.323 -0.0613 -0.2954 -0.0389
 7389SOL    HW124609   4.970   9.168   4.375  1.0101 -2.4895  1.2614
 7389SOL    HW224610   4.915   9.149   4.235  0.3436  1.8342  0.8057
 7390SOL     OW24611   4.035  10.415   0.873 -0.3292  0.3775  0.0690
 7390SOL    HW124612   4.042  10.411   0.777 -0.4926 -0.8745  0.1033
 7390SOL    HW224613   4.060  10.328   0.903 -1.4469  0.3821  1.0958
 7391SOL     OW24614   0.011   5.726   6.893  0.3266 -0.5365  0.1097
 7391SOL    HW124615   0.066   5.804   6.900 -0.8376  0.3072  0.1603
 7391SOL    HW224616   0.072   5.656   6.869  0.9622  0.9876 -3.2481
 7392SOL     OW24617   8.892   6.254   5.155  0.4693  0.6464  0.1206
 7392SOL    HW124618   8.898   6.309   5.233  0.3418  0.9753 -0.0984
 7392SOL    HW224619   8.926   6.169   5.183 -0.5717  0.4464  0.8361
 7393SOL     OW24620   2.032   4.124   7.407 -0.1477 -0.3456  0.2818
 7393SOL    HW124621   1.962   4.085   7.354 -2.0081  3.0737 -0.0480
 7393SOL    HW224622   1.990   4.145   7.490  0.7462  0.8873  0.4465
 7394SOL     OW24623   6.773   6.512   4.749 -0.1356  0.2822 -0.4603
 7394SOL    HW124624   6.866   6.506   4.771  0.1375  1.5390 -1.1524
 7394SOL    HW224625   6.746   6.421   4.734  1.1654 -0.0514 -0.9487
 7395SOL     OW24626   6.095   7.442   4.807  0.3560 -0.3335  0.1974
 7395SOL    HW124627   6.115   7.429   4.714  2.0347  1.0014  0.3258
 7395SOL    HW224628   6.017   7.388   4.822  0.7801 -1.5821 -1.6684
 7396SOL     OW24629   3.120   3.639   3.471  0.3097 -0.5811 -0.2318
 7396SOL    HW124630   3.178   3.590   3.412  0.1938 -0.8505 -0.1275
 7396SOL    HW224631   3.072   3.698   3.414  1.3725  0.3341 -0.2035
 7397SOL     OW24632   4.695   2.833   6.078  0.4824 -0.2534 -0.1847
 7397SOL    HW124633   4.702   2.927   6.067 -1.0901 -0.2735 -1.7589
 7397SOL    HW224634   4.783   2.806   6.105  0.7415  1.7276  1.1339
 7398SOL     OW24635   7.701   9.597   5.244 -0.2519  0.4109  0.5970
 7398SOL    HW124636   7.665   9.547   5.317  0.7971  0.7564  1.3840
 7398SOL    HW224637   7.666   9.555   5.165 -1.5449  0.1363  1.2958
 7399SOL     OW24638   3.348   7.982   2.751 -0.2029  0.1287 -0.0855
 7399SOL    HW124639   3.305   7.992   2.666  1.0630  1.3166 -0.6156
 7399SOL    HW224640   3.441   7.976   2.731  0.0545 -0.5387  1.1727
 7400SOL     OW24641   4.725   1.436   7.737  0.4763 -0.6365 -0.6152
 7400SOL    HW124642   4.685   1.482   7.663  0.4533 -1.3680 -1.0599
 7400SOL    HW224643   4.808   1.483   7.751 -1.2228  2.0967  1.5085
 7401SOL     OW24644   4.923   2.189   5.000  0.0306 -0.0234  0.0008
 7401SOL    HW124645   4.846   2.177   5.055  0.7897 -0.8045  0.9207
 7401SOL    HW224646   4.938   2.284   5.001 -0.5480  0.0690  0.3142
 7402SOL     OW24647   0.632   3.240   9.561 -0.8078  0.5413  0.2884
 7402SOL    HW124648   0.725   3.242   9.540 -0.6964 -0.8964  0.5208
 7402SOL    HW224649   0.588   3.264   9.480 -0.2531 -0.1825 -0.2450
 7403SOL     OW24650   8.739   8.031   7.008 -0.5642  0.4143  0.1201
 7403SOL    HW124651   8.733   7.995   6.920 -1.0267  1.6811 -0.3847
 7403SOL    HW224652   8.647   8.047   7.033 -0.4786 -0.4217  1.0525
 7404SOL     OW24653   9.247  10.101   3.026  0.5205  0.0096  0.1400
 7404SOL    HW124654   9.224  10.148   2.947  0.9840  0.4067  0.2407
 7404SOL    HW224655   9.260  10.010   2.997 -0.8112 -0.1669  0.0235
 7405SOL     OW24656  10.391   0.874   7.777 -0.7075 -0.2852 -0.3323
 7405SOL    HW124657  10.454   0.922   7.724 -1.1266 -0.8245 -1.3366
 7405SOL    HW224658  10.445   0.820   7.835 -0.2408 -0.3309 -0.8013
 7406SOL     OW24659   6.165   1.695   6.986 -0.1176 -0.0353  0.3457
 7406SOL    HW124660   6.178   1.749   6.907  0.8680 -0.0677  0.4797
 7406SOL    HW224661   6.245   1.708   7.037 -0.7099 -0.0950  1.2992
 7407SOL     OW24662   2.847   3.516   3.617 -0.0912  0.0369  0.3549
 7407SOL    HW124663   2.851   3.505   3.522  0.5049 -2.5275  0.5930
 7407SOL    HW224664   2.806   3.601   3.630 -0.5003  0.3018 -2.1856
 7408SOL     OW24665   3.283   3.427   6.968 -0.2397  1.0010  0.1329
 7408SOL    HW124666   3.206   3.461   7.014 -1.6005  0.9907 -2.0302
 7408SOL    HW224667   3.273   3.332   6.972  1.0549  0.8707  2.0019
 7409SOL     OW24668   0.615   6.096   7.220 -0.3627  0.1754  0.0105
 7409SOL    HW124669   0.535   6.136   7.188  1.7856  2.3422 -3.2862
 7409SOL    HW224670   0.658   6.061   7.141  2.4388  0.1147  1.4234
 7410SOL     OW24671   1.335   8.494   5.003 -0.3302  0.1663 -0.3989
 7410SOL    HW124672   1.383   8.560   5.054 -0.9617  2.2101 -2.3016
 7410SOL    HW224673   1.390   8.416   5.007  0.4821  0.7659  1.8914
 7411SOL     OW24674   6.723   6.809   3.391 -0.0061  0.0229 -0.0400
 7411SOL    HW124675   6.692   6.720   3.410 -1.1570  0.4209  0.0238
 7411SOL    HW224676   6.645   6.864   3.400  0.5089  0.9280 -0.9271
 7412SOL     OW24677   7.742   1.129  10.452 -0.0206  0.5208 -0.3006
 7412SOL    HW124678   7.809   1.121  10.385  0.9221  0.4405  0.6244
 7412SOL    HW224679   7.790   1.128  10.535 -1.2116 -0.1871  0.4162
 7413SOL     OW24680   8.044   7.358   2.696 -0.9404 -0.3183 -0.2340
 7413SOL    HW124681   8.032   7.289   2.761 -2.3221 -0.0776 -0.2230
 7413SOL    HW224682   7.962   7.407   2.696 -0.3367  0.7396 -0.9421
 7414SOL     OW24683   7.000   1.899   5.785  0.4627  0.0895  0.2145
 7414SOL    HW124684   6.941   1.892   5.860  1.1512 -0.1698  0.7453
 7414SOL    HW224685   7.087   1.879   5.821  1.1961  2.4203 -0.1067
 7415SOL     OW24686   4.578   9.774   5.285 -0.4292  0.1156  0.5439
 7415SOL    HW124687   4.644   9.842   5.271  1.4178 -1.8306 -0.7419
 7415SOL    HW224688   4.494   9.821   5.278  0.7363  2.1514 -0.9367
 7416SOL     OW24689   7.463   1.913   1.349 -0.4723  0.3674 -0.5639
 7416SOL    HW124690   7.486   2.004   1.369  2.7804 -0.3391 -0.5296
 7416SOL    HW224691   7.441   1.913   1.256 -0.0853  1.1094 -0.6606
 7417SOL     OW24692   7.571   7.621   9.566 -0.4322 -0.0986 -0.5272
 7417SOL    HW124693   7.593   7.704   9.607  1.2763 -0.8636  0.1925
 7417SOL    HW224694   7.514   7.645   9.493  2.2708  2.0619 -2.1534
 7418SOL     OW24695   3.171   3.110   5.960 -0.2507 -0.0314 -0.2173
 7418SOL    HW124696   3.110   3.069   6.022 -2.2700  0.0457 -2.0304
 7418SOL    HW224697   3.116   3.141   5.888  1.9078  0.4336 -1.7953
 7419SOL     OW24698   5.375   5.416   2.485  0.2646 -0.5675 -0.4760
 7419SOL    HW124699   5.334   5.350   2.542 -1.1705  0.9103  0.2861
 7419SOL    HW224700   5.304   5.477   2.464  1.2693  0.0940 -2.1534
 7420SOL     OW24701   7.815   9.383   3.788 -0.5433 -0.4726 -0.3142
 7420SOL    HW124702   7.857   9.298   3.779 -3.4105 -2.0374  0.1169
 7420SOL    HW224703   7.816   9.419   3.699  1.1183 -0.6713 -0.4123
 7421SOL     OW24704   8.983   9.944   0.354 -0.5501 -0.0191  0.1098
 7421SOL    HW124705   8.985   9.906   0.442 -1.6359 -0.0065  0.1592
 7421SOL    HW224706   8.897   9.920   0.320  0.1314 -0.6501 -1.2445
 7422SOL     OW24707   7.987   1.858   4.220 -0.2653 -0.0095  0.1082
 7422SOL    HW124708   8.009   1.793   4.288 -0.0027 -1.8841 -1.6714
 7422SOL    HW224709   7.924   1.916   4.263 -0.0256 -1.0394  1.9994
 7423SOL     OW24710   5.137   8.560   4.371 -0.6205  0.5653  0.2141
 7423SOL    HW124711   5.101   8.509   4.444  0.1023 -0.1845  0.0705
 7423SOL    HW224712   5.080   8.539   4.297 -0.8664  0.6809  0.3702
 7424SOL     OW24713   8.242   1.971   8.508  0.8730 -0.1870 -0.5559
 7424SOL    HW124714   8.147   1.976   8.500  0.8995  0.0868 -0.7083
 7424SOL    HW224715   8.267   2.055   8.547  1.0006 -0.4760  0.0042
 7425SOL     OW24716   5.872   5.665   3.584  0.0755  0.3185  0.0329
 7425SOL    HW124717   5.841   5.592   3.529 -0.7790  0.5937  0.1313
 7425SOL    HW224718   5.962   5.680   3.556  1.3018 -2.5822  1.8583
 7426SOL     OW24719   2.913   1.994   0.110 -0.2249  0.6235 -0.3951
 7426SOL    HW124720   2.892   1.948   0.192 -0.8190  0.9483 -0.3605
 7426SOL    HW224721   2.828   2.013   0.071  0.0467 -0.7719 -1.7930
 7427SOL     OW24722   2.328   0.736   1.022 -0.1515 -0.1493 -0.2049
 7427SOL    HW124723   2.292   0.813   1.065 -0.6655 -0.5224  0.0458
 7427SOL    HW224724   2.321   0.755   0.929  0.2420  0.3323 -0.1461
 7428SOL     OW24725   3.897   5.994   5.031  0.3846 -0.0919 -0.5720
 7428SOL    HW124726   3.809   5.963   5.054  0.1555 -0.0288 -1.3417
 7428SOL    HW224727   3.933   5.924   4.976  0.2830  0.5079 -1.4155
 7429SOL     OW24728   1.431   2.747   5.044 -0.4916  0.1556  0.2398
 7429SOL    HW124729   1.429   2.805   4.968 -0.0985  0.7138  0.6473
 7429SOL    HW224730   1.523   2.723   5.054 -0.4557  0.5443  0.8802
 7430SOL     OW24731   4.014   6.741   2.274  0.0472  0.4459 -0.2052
 7430SOL    HW124732   3.965   6.670   2.315  0.2915  0.2699 -0.2120
 7430SOL    HW224733   4.087   6.757   2.335 -0.2151  0.9436 -0.0181
 7431SOL     OW24734   8.253   5.455   9.497 -0.0447  0.2175 -0.5175
 7431SOL    HW124735   8.165   5.462   9.533 -0.4675 -1.4098 -1.1520
 7431SOL    HW224736   8.304   5.520   9.545 -1.4189  0.6666  0.3787
 7432SOL     OW24737   7.207   7.185   8.458  0.5805  0.2584  0.1483
 7432SOL    HW124738   7.302   7.178   8.448  0.6296  0.1288  0.6563
 7432SOL    HW224739   7.179   7.096   8.480  0.8071  0.9073  3.5601
 7433SOL     OW24740   3.151   3.789   5.951 -0.7843 -0.2284  0.6510
 7433SOL    HW124741   3.095   3.761   5.879 -0.0899  1.5657 -0.6688
 7433SOL    HW224742   3.233   3.742   5.939  0.1847  1.7606 -1.2354
 7434SOL     OW24743   8.336   2.208   8.640  0.3004 -0.5430  0.2269
 7434SOL    HW124744   8.415   2.252   8.672 -1.7113  0.5483  4.4145
 7434SOL    HW224745   8.285   2.276   8.597  0.9177 -0.8840 -1.0730
 7435SOL     OW24746   1.274   4.932   0.398 -0.1648  0.3086 -0.3646
 7435SOL    HW124747   1.259   5.018   0.360 -0.3605 -0.6420 -2.5815
 7435SOL    HW224748   1.291   4.875   0.323  0.6495 -1.4649  1.0783
 7436SOL     OW24749   8.076   4.880   2.586 -0.4237 -0.4790  0.0860
 7436SOL    HW124750   8.039   4.793   2.572  0.9431 -0.8261 -1.7287
 7436SOL    HW224751   8.017   4.921   2.650 -1.9583 -2.1701 -0.1576
 7437SOL     OW24752   3.025   4.395   4.032  0.1837  0.6739 -0.3120
 7437SOL    HW124753   2.934   4.365   4.031  0.8258 -1.4718 -1.3628
 7437SOL    HW224754   3.052   4.386   4.123 -0.1029 -0.5607 -0.3363
 7438SOL     OW24755   8.750   1.949   6.995  0.0924  0.0393 -0.7251
 7438SOL    HW124756   8.839   1.923   6.973  0.6473  0.6387  0.6678
 7438SOL    HW224757   8.695   1.878   6.963  1.2012 -0.9783 -0.4251
 7439SOL     OW24758   1.504  10.286   8.678 -0.2300  0.2220 -0.1898
 7439SOL    HW124759   1.564  10.276   8.753 -0.4069 -0.4842 -0.1316
 7439SOL    HW224760   1.425  10.238   8.705 -0.3951  0.1963 -0.7182
 7440SOL     OW24761   9.174   8.235   5.723  0.2052 -0.5076  0.5507
 7440SOL    HW124762   9.264   8.253   5.696  0.1140 -0.0998  0.5132
 7440SOL    HW224763   9.120   8.273   5.653 -0.0362  0.5348  1.2801
 7441SOL     OW24764   5.356   0.998   6.622  0.3043  0.4325  0.1089
 7441SOL    HW124765   5.435   0.946   6.637 -0.2256 -0.5627 -0.4481
 7441SOL    HW224766   5.321   1.013   6.710  1.4354  1.4465  0.4186
 7442SOL     OW24767   0.794   8.795   3.749 -0.0221 -0.3124  0.4622
 7442SOL    HW124768   0.881   8.765   3.724  0.7976  2.9583 -1.2123
 7442SOL    HW224769   0.809   8.847   3.828 -0.2593  0.9196 -0.2767
 7443SOL     OW24770   6.190   2.239   5.147  0.1308  0.1254 -0.0703
 7443SOL    HW124771   6.147   2.220   5.064  0.8925 -1.3791 -0.1635
 7443SOL    HW224772   6.254   2.307   5.126 -0.0736  0.1583 -0.5955
 7444SOL     OW24773   8.431   2.990   2.589  0.2608  0.1280 -0.2999
 7444SOL    HW124774   8.442   2.916   2.647 -0.5997  0.7065  0.6324
 7444SOL    HW224775   8.499   2.979   2.522  0.9993 -0.7723  0.5705
 7445SOL     OW24776   7.560   9.325   7.719 -0.4035  0.0038 -0.0416
 7445SOL    HW124777   7.586   9.274   7.796 -0.7661 -0.3117 -0.1289
 7445SOL    HW224778   7.543   9.260   7.651  0.5150  0.3071 -0.5807
 7446SOL     OW24779   0.344   1.780   7.602  0.0261 -0.3957 -0.3048
 7446SOL    HW124780   0.353   1.710   7.667  0.7956  0.3941  0.4604
 7446SOL    HW224781   0.304   1.737   7.526  1.0542 -1.8141 -0.0897
 7447SOL     OW24782   4.789   4.188   4.133 -0.3458 -0.0666 -0.0806
 7447SOL    HW124783   4.719   4.124   4.119  0.3699 -1.2611  1.5072
 7447SOL    HW224784   4.790   4.202   4.228  0.1726  1.5730 -0.2998
 7448SOL     OW24785   7.638   8.855   6.117  0.0579 -0.8034 -0.4229
 7448SOL    HW124786   7.572   8.806   6.068 -1.0354 -0.0328  0.2282
 7448SOL    HW224787   7.659   8.930   6.061 -0.6788 -0.2955 -0.0383
 7449SOL     OW24788   9.305   5.837   1.856 -0.3220  0.1808  0.0076
 7449SOL    HW124789   9.234   5.816   1.795 -1.3278  1.4108  0.7055
 7449SOL    HW224790   9.335   5.924   1.829 -0.4050  0.4990  0.9021
 7450SOL     OW24791   1.950   1.909   8.443 -0.1589  0.6812  0.3204
 7450SOL    HW124792   1.902   1.991   8.451  0.9225  1.2673  1.1036
 7450SOL    HW224793   2.042   1.935   8.442  0.1804 -0.4741 -0.1862
 7451SOL     OW24794   1.349   5.960   4.702 -0.2219 -0.3790  0.4223
 7451SOL    HW124795   1.297   5.888   4.667 -0.6639  0.1646 -0.0550
 7451SOL    HW224796   1.288   6.008   4.759 -0.2006  0.1565  0.0016
 7452SOL     OW24797   6.904   5.068   9.882 -0.3956  0.0100  0.0250
 7452SOL    HW124798   6.823   5.118   9.890 -1.0318 -0.7608 -1.2085
 7452SOL    HW224799   6.933   5.084   9.792 -0.0241 -0.9673 -0.0395
 7453SOL     OW24800   6.240   4.992   2.851  0.4323  0.5173 -0.0650
 7453SOL    HW124801   6.255   5.079   2.889  0.0941 -0.2557  1.9852
 7453SOL    HW224802   6.296   4.934   2.902 -2.3447 -1.0480  1.4407
 7454SOL     OW24803   1.984   6.140   9.278 -0.7380  0.4114 -0.1214
 7454SOL    HW124804   2.034   6.145   9.359  0.2070  1.2402 -0.7388
 7454SOL    HW224805   2.046   6.111   9.211 -0.8246  2.2770 -1.0720
 7455SOL     OW24806   4.156   9.256   5.237 -0.2844 -0.2028 -0.5383
 7455SOL    HW124807   4.224   9.196   5.206  0.5844 -0.5404  1.8259
 7455SOL    HW224808   4.074   9.211   5.216  0.2335 -0.6194 -1.8232
 7456SOL     OW24809   8.134   7.215   4.102  0.1636 -0.2774 -0.5642
 7456SOL    HW124810   8.108   7.297   4.144  0.2100 -0.1529 -0.7782
 7456SOL    HW224811   8.188   7.242   4.027 -1.5054 -0.4080 -1.8591
 7457SOL     OW24812   9.291   6.720   2.384  0.3975  0.5872  0.5391
 7457SOL    HW124813   9.242   6.783   2.437 -1.0869 -0.0024 -0.0856
 7457SOL    HW224814   9.250   6.635   2.403  1.7056 -0.0533  0.5996
 7458SOL     OW24815   8.645   6.524  10.341  0.1004  0.2444 -0.4626
 7458SOL    HW124816   8.618   6.462  10.273  1.5579  0.9719 -1.7777
 7458SOL    HW224817   8.572   6.584  10.349  0.1090  0.4672 -1.8189
 7459SOL     OW24818   5.186   6.504   2.666 -0.7561  0.5727  0.7603
 7459SOL    HW124819   5.225   6.431   2.618  0.5893  1.7753 -0.0465
 7459SOL    HW224820   5.201   6.483   2.758 -1.0994 -0.5342  0.5796
 7460SOL     OW24821   3.489   7.119   3.975 -0.1470 -0.3325 -0.2979
 7460SOL    HW124822   3.429   7.189   4.000 -0.4127 -0.6451 -0.0462
 7460SOL    HW224823   3.467   7.100   3.884  0.1352  0.1185 -0.4632
 7461SOL     OW24824   9.646   8.136   2.643 -0.0409 -0.6541 -0.0159
 7461SOL    HW124825   9.569   8.177   2.604 -0.7496 -0.8382  1.1479
 7461SOL    HW224826   9.685   8.204   2.697 -1.8953 -1.7053  2.8906
 7462SOL     OW24827   8.635   0.604   8.477  0.6435  0.6165 -0.3304
 7462SOL    HW124828   8.689   0.683   8.474  0.7655  0.5025 -1.6114
 7462SOL    HW224829   8.691   0.536   8.439  0.1261  0.1615 -0.2889
 7463SOL     OW24830   5.726   0.180   6.785  0.3247  0.0948  0.0229
 7463SOL    HW124831   5.791   0.144   6.846 -0.7317 -1.0076  0.5262
 7463SOL    HW224832   5.701   0.264   6.824  1.7442  0.7447 -0.4042
 7464SOL     OW24833  10.306  10.485   9.525 -0.0030  0.2198  0.1542
 7464SOL    HW124834  10.355  10.406   9.551  0.8573  1.1144  1.4152
 7464SOL    HW224835  10.215  10.458   9.524  0.3221 -0.9190  0.0879
 7465SOL     OW24836   6.787   2.649   4.559 -0.5779 -0.1018 -0.1448
 7465SOL    HW124837   6.725   2.653   4.487 -1.6314  1.1236  0.7819
 7465SOL    HW224838   6.743   2.597   4.626 -0.6975  0.8678  0.5627
 7466SOL     OW24839   6.649   9.693  10.425 -0.7853  0.1437  0.1691
 7466SOL    HW124840   6.712   9.663  10.490  0.4531  1.6120 -0.2708
 7466SOL    HW224841   6.563   9.678  10.464 -0.1016  2.4087  2.8885
 7467SOL     OW24842   3.014   5.534   1.406 -0.5865  0.2478 -0.6487
 7467SOL    HW124843   2.930   5.540   1.360 -0.4279  2.0451 -0.7780
 7467SOL    HW224844   3.021   5.442   1.430 -2.4901  0.0029 -0.8323
 7468SOL     OW24845   6.688   6.981   3.715 -0.0892 -0.1136 -0.4769
 7468SOL    HW124846   6.607   7.029   3.734 -0.2500 -0.1373 -1.0773
 7468SOL    HW224847   6.728   7.028   3.641  0.7320  0.2215  0.1668
 7469SOL     OW24848   7.460   0.801  10.015 -0.4105  0.3470 -0.0314
 7469SOL    HW124849   7.550   0.769  10.003 -0.5267  0.0712 -0.1853
 7469SOL    HW224850   7.443   0.789  10.108 -0.9213 -1.3253 -0.3120
 7470SOL     OW24851   7.843   5.240   8.093 -0.3323 -0.2426 -0.2436
 7470SOL    HW124852   7.866   5.296   8.167  0.8206  0.9789 -1.4609
 7470SOL    HW224853   7.877   5.154   8.117  1.1643  0.4157  0.1301
 7471SOL     OW24854   0.942   5.713   2.173 -0.4589 -0.1634 -0.5068
 7471SOL    HW124855   0.888   5.641   2.204  0.9098 -0.6025  0.9849
 7471SOL    HW224856   0.916   5.788   2.226 -0.1221 -0.1997 -0.2855
 7472SOL     OW24857   3.386  10.024   0.608 -0.0817  0.3458 -0.9750
 7472SOL    HW124858   3.364  10.073   0.688  0.4151 -0.8975 -0.0320
 7472SOL    HW224859   3.387  10.090   0.539 -1.4635  1.3137 -0.1259
 7473SOL     OW24860   4.181   8.674   8.926  0.2553  0.0495  0.0497
 7473SOL    HW124861   4.251   8.613   8.901  1.0201  0.5966  0.7893
 7473SOL    HW224862   4.132   8.688   8.846  0.8844 -0.4899 -0.4434
 7474SOL     OW24863   2.378  10.474   0.268  0.3907  0.0557 -0.5400
 7474SOL    HW124864   2.449  10.528   0.232  0.1254  0.6614 -0.1612
 7474SOL    HW224865   2.370  10.503   0.359 -0.9136  0.6041 -0.8065
 7475SOL     OW24866   2.380   6.424   1.850  0.2334  0.3006  0.2342
 7475SOL    HW124867   2.457   6.379   1.815 -0.0532  0.3599 -0.4959
 7475SOL    HW224868   2.388   6.415   1.945 -0.2070 -1.9554  0.1054
 7476SOL     OW24869   7.180   2.017   6.582 -0.1153  0.7584  0.2689
 7476SOL    HW124870   7.216   1.982   6.500  1.6615  0.3197  1.2004
 7476SOL    HW224871   7.249   2.074   6.616 -0.5164  0.3505  1.8348
 7477SOL     OW24872   0.523   8.653   5.489 -0.3416  0.7080 -0.4602
 7477SOL    HW124873   0.526   8.632   5.583 -2.9072  0.6773 -0.3073
 7477SOL    HW224874   0.430   8.665   5.471  0.1583  1.3379 -2.8966
 7478SOL     OW24875   4.954   6.145   0.099  0.1020  0.7145 -0.1982
 7478SOL    HW124876   4.988   6.203   0.031 -1.4667  0.1879 -1.5132
 7478SOL    HW224877   4.861   6.134   0.077 -0.1566 -0.4963  1.3048
 7479SOL     OW24878   2.205   4.477   4.934  0.0562  0.0105 -1.3953
 7479SOL    HW124879   2.220   4.401   4.991 -1.6899  0.6377  0.0034
 7479SOL    HW224880   2.270   4.541   4.962 -2.1179  1.1613  1.6445
 7480SOL     OW24881   4.738   6.622   7.776  0.0955 -0.5924 -0.0202
 7480SOL    HW124882   4.831   6.630   7.758  0.0620  2.2750  0.5738
 7480SOL    HW224883   4.696   6.671   7.705 -0.7337  0.6927  1.3064
 7481SOL     OW24884   9.673   3.094   3.953  0.6206 -0.5143 -0.2788
 7481SOL    HW124885   9.627   3.029   3.900  1.4146  0.8478 -2.7841
 7481SOL    HW224886   9.757   3.107   3.908  1.7389  0.0759  1.8548
 7482SOL     OW24887   6.855   7.439   5.299 -0.1751 -0.1752  0.1197
 7482SOL    HW124888   6.879   7.347   5.286  0.4963  0.0813 -0.5830
 7482SOL    HW224889   6.762   7.437   5.319 -0.2316 -0.9940 -0.1765
 7483SOL     OW24890   9.265   4.565   6.922 -0.1010  0.0040  0.4715
 7483SOL    HW124891   9.330   4.526   6.979  0.7118 -0.0702 -0.4807
 7483SOL    HW224892   9.280   4.659   6.929  0.1001 -0.0120  0.2701
 7484SOL     OW24893   6.901   0.176   6.143  0.3212 -0.4622 -0.6561
 7484SOL    HW124894   6.939   0.254   6.184 -1.6400  0.3025 -0.1644
 7484SOL    HW224895   6.961   0.105   6.165 -0.6486 -0.1840  3.8014
 7485SOL     OW24896   9.234   7.154   2.798 -0.2105 -0.2827 -0.2891
 7485SOL    HW124897   9.150   7.197   2.819  0.0913  0.6249 -0.8924
 7485SOL    HW224898   9.252   7.180   2.708 -0.9502 -3.2488 -1.4116
 7486SOL     OW24899   0.335   8.855   9.546 -0.2720 -0.2528 -0.4015
 7486SOL    HW124900   0.424   8.848   9.513 -0.0537  0.7067 -0.0274
 7486SOL    HW224901   0.292   8.917   9.487  0.4452  2.4219  1.6873
 7487SOL     OW24902   9.805   2.733   7.218  0.0801  0.0026  0.2863
 7487SOL    HW124903   9.719   2.738   7.176 -0.4627 -0.8595  1.2572
 7487SOL    HW224904   9.786   2.716   7.310  1.2978 -0.7901  0.4162
 7488SOL     OW24905   6.251   7.077   1.831  0.7098  0.2382 -0.4734
 7488SOL    HW124906   6.305   7.155   1.819 -0.0824  0.9841  0.5834
 7488SOL    HW224907   6.228   7.050   1.742 -0.5859  2.3754 -0.8699
 7489SOL     OW24908  10.340   9.801   9.999 -0.1152  0.1442 -0.4384
 7489SOL    HW124909  10.362   9.895  10.001 -3.2492  1.0279 -0.8409
 7489SOL    HW224910  10.285   9.792   9.921 -1.9827 -1.4585  0.9808
 7490SOL     OW24911   0.024   9.292   8.479  0.0111  0.4791  0.4817
 7490SOL    HW124912  -0.030   9.333   8.411  1.0643 -2.9276 -2.7723
 7490SOL    HW224913   0.111   9.330   8.467  0.0365  0.4004  0.4179
 7491SOL     OW24914   8.199  10.080   0.921  0.0517 -0.1782 -0.2747
 7491SOL    HW124915   8.206   9.998   0.873  0.9983  0.1995 -0.8092
 7491SOL    HW224916   8.223  10.057   1.011  0.8440 -0.3900 -0.5333
 7492SOL     OW24917   6.397   4.867   0.954  0.0660 -0.3803 -0.2579
 7492SOL    HW124918   6.358   4.937   1.007  0.3879 -1.3056  1.2519
 7492SOL    HW224919   6.344   4.790   0.974  1.6442 -1.2994  0.6235
 7493SOL     OW24920   4.322   0.950   9.698 -0.5597 -0.4238  0.2721
 7493SOL    HW124921   4.312   0.944   9.603 -0.1270 -0.9239  0.2509
 7493SOL    HW224922   4.413   0.977   9.711 -0.3217 -1.3149  0.5562
 7494SOL     OW24923   6.656   7.403   2.890  0.3823 -0.0068  0.3899
 7494SOL    HW124924   6.714   7.351   2.946  2.5318  0.7795 -0.9736
 7494SOL    HW224925   6.658   7.491   2.927  1.2805  0.3597 -0.4696
 7495SOL     OW24926   2.516   6.785   1.067 -0.2324 -0.3639  0.6238
 7495SOL    HW124927   2.533   6.695   1.097 -2.1384 -0.6480  0.9470
 7495SOL    HW224928   2.510   6.778   0.972  4.2193  0.2746  0.0785
 7496SOL     OW24929   7.914   0.721   0.054 -0.1869  0.2764 -0.6853
 7496SOL    HW124930   7.945   0.691   0.140 -0.5732 -0.6581 -0.8649
 7496SOL    HW224931   7.902   0.816   0.065 -0.6707  0.1066  0.4391
 7497SOL     OW24932   7.989   5.245   8.982 -0.0283  0.0220  0.9418
 7497SOL    HW124933   7.919   5.266   8.921  0.3351  1.5010  0.9903
 7497SOL    HW224934   8.008   5.152   8.966 -1.6914 -0.2970  0.6483
 7498SOL     OW24935   7.412   6.121  10.478 -0.4707 -0.4284 -0.1703
 7498SOL    HW124936   7.499   6.144  10.511 -0.6890  1.3741 -0.7241
 7498SOL    HW224937   7.415   6.026  10.464  1.5825 -0.3351 -0.6630
 7499SOL     OW24938   8.709   5.498   2.235  0.8213 -0.1039 -0.0040
 7499SOL    HW124939   8.638   5.563   2.235  1.5740  0.7482  0.6097
 7499SOL    HW224940   8.666   5.415   2.257 -0.0381  0.3296  0.0031
 7500SOL     OW24941   2.312   1.019   8.613  0.2424 -0.3808  0.1850
 7500SOL    HW124942   2.306   1.098   8.667 -0.6390 -1.1151  1.1922
 7500SOL    HW224943   2.228   0.975   8.625  1.0722 -1.9692  0.4464
 7501SOL     OW24944   3.635   7.952   7.274 -0.6726 -0.5868  0.4133
 7501SOL    HW124945   3.554   7.949   7.325 -1.5686 -0.4685 -0.9607
 7501SOL    HW224946   3.609   7.928   7.185  0.2393  2.3213 -0.7698
 7502SOL     OW24947   6.890   3.374   4.719 -0.7030 -0.4455 -0.6976
 7502SOL    HW124948   6.951   3.300   4.710 -1.6170 -1.1493 -1.3655
 7502SOL    HW224949   6.867   3.375   4.812 -1.8260 -1.9847 -0.9191
 7503SOL     OW24950   8.969   0.284   1.388  0.3013  0.1999 -0.4031
 7503SOL    HW124951   8.948   0.194   1.364  2.4857 -0.4403 -0.0619
 7503SOL    HW224952   8.952   0.334   1.308 -0.1455 -0.6345 -0.8416
 7504SOL     OW24953  10.195   9.675   6.662  0.1220  0.1422  0.1141
 7504SOL    HW124954  10.210   9.627   6.580  0.2056  0.8222 -0.2803
 7504SOL    HW224955  10.106   9.650   6.689 -0.0954  0.2872 -0.4526
 7505SOL     OW24956   7.990   0.735   2.678  0.3501  0.0405 -0.3183
 7505SOL    HW124957   7.963   0.744   2.769  0.8213 -0.5267 -0.1163
 7505SOL    HW224958   8.067   0.792   2.670  0.5810 -0.2615 -0.2436
 7506SOL     OW24959   4.460   5.841   2.963 -0.2205 -0.5132  0.1375
 7506SOL    HW124960   4.413   5.765   2.996 -0.7693  0.0786  0.7444
 7506SOL    HW224961   4.473   5.897   3.039 -1.1910  0.7070 -0.5532
 7507SOL     OW24962   9.066   7.929   6.301  0.3049  0.3024 -0.0271
 7507SOL    HW124963   9.042   7.976   6.222 -2.3239 -0.4092  0.2762
 7507SOL    HW224964   9.026   7.843   6.292  1.4154 -0.4067  1.3328
 7508SOL     OW24965   4.742  10.026   7.109  0.1246 -0.6968 -0.2462
 7508SOL    HW124966   4.815   9.965   7.116  0.2106 -0.4187  1.5825
 7508SOL    HW224967   4.692   9.995   7.033  2.5560 -0.3848 -2.1141
 7509SOL     OW24968   7.378   7.045   0.913  0.2157  0.0415 -0.0943
 7509SOL    HW124969   7.305   7.103   0.889  0.5827  1.0042  1.0027
 7509SOL    HW224970   7.352   6.959   0.880 -1.7765  0.1984  0.8746
 7510SOL     OW24971   8.635   9.612   0.136  0.5010  0.0070 -0.0093
 7510SOL    HW124972   8.547   9.576   0.134  0.0295  1.0162  1.2245
 7510SOL    HW224973   8.677   9.579   0.056 -0.7912 -0.9473 -0.3208
 7511SOL     OW24974   3.385   4.583   5.646 -0.4997 -1.0312 -0.6922
 7511SOL    HW124975   3.419   4.528   5.576 -2.4303 -0.8572 -1.8302
 7511SOL    HW224976   3.292   4.563   5.650 -0.3397 -1.7200  2.5077
 7512SOL     OW24977   5.904   8.874   0.111  0.9637  0.4673  0.5483
 7512SOL    HW124978   5.876   8.866   0.202 -0.8097 -0.9137 -0.0552
 7512SOL    HW224979   5.939   8.963   0.105  0.1093  0.9743  2.3107
 7513SOL     OW24980   4.202   2.103   6.598 -0.9495 -0.1021 -0.5647
 7513SOL    HW124981   4.187   2.114   6.504  0.1623  0.9241 -0.6568
 7513SOL    HW224982   4.235   2.014   6.607 -0.5454 -0.0271 -1.2302
 7514SOL     OW24983   6.684   1.681   5.534  0.0759  0.0482 -0.3949
 7514SOL    HW124984   6.659   1.764   5.573  0.5770  0.2936 -0.5892
 7514SOL    HW224985   6.670   1.694   5.440  2.4712  0.7704 -0.7087
 7515SOL     OW24986   0.210   2.876   3.706 -0.4498  0.3316 -0.0646
 7515SOL    HW124987   0.302   2.883   3.682 -0.7634  0.5277 -1.2598
 7515SOL    HW224988   0.198   2.941   3.775  0.6734 -0.8578  1.3278
 7516SOL     OW24989   0.519  10.400   7.924  0.2299  0.8238 -0.4673
 7516SOL    HW124990   0.549  10.489   7.942  1.3637  0.4012 -0.1879
 7516SOL    HW224991   0.589  10.344   7.957 -2.2332 -0.4061  3.3285
 7517SOL     OW24992   4.612   7.925   3.568  0.1795 -0.3661 -0.2989
 7517SOL    HW124993   4.559   7.949   3.644  1.7600  0.5668  0.5481
 7517SOL    HW224994   4.646   7.838   3.589 -0.3680 -0.6391 -0.5099
 7518SOL     OW24995   0.994   8.396   2.291  0.0745  0.6226 -0.3323
 7518SOL    HW124996   0.991   8.461   2.221 -0.2572 -0.4285 -1.3298
 7518SOL    HW224997   0.905   8.393   2.326 -0.2580 -0.2158 -1.1921
 7519SOL     OW24998   8.453   5.207   7.582 -0.0246 -0.4103 -0.2670
 7519SOL    HW124999   8.546   5.184   7.579  0.5044  1.6228 -0.6249
 7519SOL    HW225000   8.441   5.245   7.669  0.2509  2.1194 -1.2498
 7520SOL     OW25001   3.821   5.776   4.647 -0.2015  0.0790  0.0476
 7520SOL    HW125002   3.744   5.753   4.700 -0.9216  2.0370 -0.0794
 7520SOL    HW225003   3.824   5.709   4.579 -1.1704 -0.6234  0.6737
 7521SOL     OW25004   9.209   6.924   6.156 -0.1319 -0.2335  0.4926
 7521SOL    HW125005   9.285   6.965   6.114  0.0430 -1.0617 -0.0163
 7521SOL    HW225006   9.138   6.986   6.141 -0.4839 -1.2274 -2.5286
 7522SOL     OW25007   8.490  10.086   9.701 -0.1954  0.5514 -0.3177
 7522SOL    HW125008   8.513  10.047   9.616 -0.0147 -0.0972  0.0207
 7522SOL    HW225009   8.574  10.092   9.747  0.0877  3.0839 -1.0476
 7523SOL     OW25010   4.800   4.191   2.443 -0.2895  0.3276 -0.1232
 7523SOL    HW125011   4.797   4.176   2.349 -0.8880  1.1921 -0.2576
 7523SOL    HW225012   4.708   4.193   2.470 -0.1133 -0.5201  0.5864
 7524SOL     OW25013   4.182   1.332   4.438 -0.0449 -0.2580 -0.6042
 7524SOL    HW125014   4.250   1.275   4.471 -0.2583  0.0829  0.4459
 7524SOL    HW225015   4.101   1.282   4.447  0.0805 -0.8007 -2.1808
 7525SOL     OW25016   7.718   0.201   5.816 -0.2115  0.3624  0.2512
 7525SOL    HW125017   7.697   0.151   5.895 -0.3696 -0.9424 -0.5990
 7525SOL    HW225018   7.803   0.241   5.836 -0.1777 -0.0660  1.0240
 7526SOL     OW25019   6.149   9.846   8.927  0.5034  0.1673  0.0442
 7526SOL    HW125020   6.225   9.900   8.905  0.5345 -0.5081 -1.6512
 7526SOL    HW225021   6.128   9.870   9.018  1.3900  1.9469 -0.1761
 7527SOL     OW25022   7.526   1.267  10.314 -0.3741 -0.1782 -0.1899
 7527SOL    HW125023   7.536   1.353  10.354 -0.4920  0.1525 -0.8449
 7527SOL    HW225024   7.601   1.216  10.345  0.0206  0.3515 -0.2728
 7528SOL     OW25025   9.858   6.525  10.009  0.0566  0.3578  0.6014
 7528SOL    HW125026   9.859   6.519  10.104  1.1724  0.7810  0.6233
 7528SOL    HW225027   9.847   6.435   9.979  1.6515 -0.0367  1.1160
 7529SOL     OW25028   2.547   0.753   9.284  0.3924 -0.4393 -0.2265
 7529SOL    HW125029   2.637   0.770   9.309  0.2076 -1.3755  1.1916
 7529SOL    HW225030   2.539   0.658   9.283 -0.1006 -0.4295 -2.2333
 7530SOL     OW25031   2.849   7.819   4.177  0.7672  0.1824 -0.4264
 7530SOL    HW125032   2.879   7.820   4.087  0.7079  0.9619 -0.4443
 7530SOL    HW225033   2.757   7.844   4.172  1.3201  2.5007  0.0233
 7531SOL     OW25034   6.186   4.956   7.045  0.3806  0.0172 -0.0501
 7531SOL    HW125035   6.170   4.869   7.082 -2.7098  0.4908  0.0032
 7531SOL    HW225036   6.100   4.985   7.013  1.4578  2.7356 -0.8059
 7532SOL     OW25037   2.598   9.891   1.340 -0.1670  0.2980 -0.0375
 7532SOL    HW125038   2.691   9.892   1.315 -0.0908  2.9653  0.1133
 7532SOL    HW225039   2.600   9.879   1.435  0.2129  2.7185  0.3174
 7533SOL     OW25040   9.556   7.245   3.230  0.3232 -0.0929  0.1594
 7533SOL    HW125041   9.497   7.227   3.157  1.4165  1.1010 -1.0728
 7533SOL    HW225042   9.508   7.305   3.287 -0.3563 -0.6481  0.1726
 7534SOL     OW25043  10.043  10.308   1.017  0.0522  0.3418 -0.1774
 7534SOL    HW125044  10.116  10.253   0.989 -0.3712 -0.5766  0.4645
 7534SOL    HW225045   9.974  10.290   0.953  0.1728  0.7486 -0.4297
 7535SOL     OW25046   6.600   2.802   6.926  0.0975 -0.0117  0.3884
 7535SOL    HW125047   6.630   2.853   7.001 -0.8946 -0.3328  1.0254
 7535SOL    HW225048   6.532   2.745   6.961 -0.5319 -0.0299 -0.7943
 7536SOL     OW25049   6.234   3.960   6.439 -0.3569  0.2017 -0.1318
 7536SOL    HW125050   6.164   4.011   6.400 -1.0073  0.1560  0.9141
 7536SOL    HW225051   6.215   3.870   6.413  0.2647  0.3713 -1.2108
 7537SOL     OW25052  10.159   5.910   0.224  0.1749  0.2662 -0.1435
 7537SOL    HW125053  10.100   5.959   0.281  0.9288  1.6793 -0.5427
 7537SOL    HW225054  10.130   5.931   0.135  0.7988  0.3569 -0.3287
 7538SOL     OW25055   5.558   1.535   1.028  0.0541 -0.1209 -0.5301
 7538SOL    HW125056   5.633   1.573   0.984 -0.5237 -1.1693 -2.5026
 7538SOL    HW225057   5.488   1.600   1.016 -0.0354 -0.2893 -0.8970
 7539SOL     OW25058  10.412   4.416   5.675  0.2332 -0.1696  0.2947
 7539SOL    HW125059  10.334   4.449   5.719  1.0743  2.0243  0.3097
 7539SOL    HW225060  10.382   4.389   5.589 -0.7487 -0.5856  0.7550
 7540SOL     OW25061   2.635   9.618   5.213 -0.0823 -0.0373 -0.3899
 7540SOL    HW125062   2.628   9.704   5.255 -1.4013 -0.3737  0.1384
 7540SOL    HW225063   2.728   9.598   5.212 -0.0117 -0.4284  3.2294
 7541SOL     OW25064   1.601   7.995   4.737 -0.3335  0.0248  0.7163
 7541SOL    HW125065   1.682   7.943   4.731 -2.2042 -2.9839 -1.2785
 7541SOL    HW225066   1.555   7.960   4.813 -0.9691 -0.2631  0.2100
 7542SOL     OW25067   6.932   0.253   9.149  0.5828 -0.5660 -0.2252
 7542SOL    HW125068   6.906   0.163   9.128  0.8985 -1.0118  1.1654
 7542SOL    HW225069   7.012   0.267   9.099 -0.6205 -0.2618 -2.1520
 7543SOL     OW25070   3.454   5.964   1.461 -0.6041  0.1012  0.6167
 7543SOL    HW125071   3.399   5.934   1.533 -2.6264  0.7713 -0.5730
 7543SOL    HW225072   3.415   6.047   1.433  0.6273  0.2764 -0.7190
 7544SOL     OW25073   6.703   1.371   1.158  0.1453 -0.5656 -0.2472
 7544SOL    HW125074   6.706   1.456   1.201 -2.3015 -0.4824 -0.0709
 7544SOL    HW225075   6.660   1.388   1.074  0.7541 -1.4437 -0.7511
 7545SOL     OW25076  10.226   0.712   6.683 -0.2621 -0.5117 -0.3850
 7545SOL    HW125077  10.311   0.749   6.708  0.0752 -0.4044 -1.6392
 7545SOL    HW225078  10.238   0.618   6.689 -0.2543 -0.4826  0.0713
 7546SOL     OW25079   6.234   5.201   8.604  0.3518  0.6522  0.1941
 7546SOL    HW125080   6.285   5.276   8.573  1.7073 -0.2428  0.1490
 7546SOL    HW225081   6.253   5.197   8.698 -3.3936  3.0983  1.2295
 7547SOL     OW25082   0.275   5.291   7.405  0.1638  0.2775 -0.4268
 7547SOL    HW125083   0.237   5.320   7.322 -0.6059  0.0689 -0.1593
 7547SOL    HW225084   0.205   5.241   7.447  0.9019 -0.5290 -0.1283
 7548SOL     OW25085   6.449   5.053   3.069 -0.4878 -0.2271  0.0450
 7548SOL    HW125086   6.472   5.146   3.072 -0.6185 -0.1891 -0.0938
 7548SOL    HW225087   6.488   5.016   3.149 -0.2544 -0.0962 -0.0061
 7549SOL     OW25088   0.024   9.949   3.200  0.3133 -0.2484 -0.5071
 7549SOL    HW125089  -0.018   9.869   3.232  1.1962 -0.4929  0.1031
 7549SOL    HW225090   0.028  10.006   3.278  0.7926 -0.1007 -0.6361
 7550SOL     OW25091   7.575   0.663   0.019  0.0973  0.2688 -0.2983
 7550SOL    HW125092   7.624   0.654   0.101 -0.7967  1.1907  0.3702
 7550SOL    HW225093   7.640   0.694  -0.045  0.5763  0.6383  0.3578
 7551SOL     OW25094   4.250   7.803   5.990 -0.3732 -0.5321 -0.9113
 7551SOL    HW125095   4.337   7.771   6.014 -0.4914 -0.2904 -0.1485
 7551SOL    HW225096   4.268   7.873   5.926 -0.0577 -1.1309 -1.4916
 7552SOL     OW25097   2.828   3.039   7.160 -0.0110 -0.3080  0.2490
 7552SOL    HW125098   2.798   3.122   7.196  0.8023 -0.1608  0.5974
 7552SOL    HW225099   2.770   2.974   7.199  1.6840 -0.3328  3.0136
 7553SOL     OW25100   5.216   6.389   8.931  0.0404  0.0551 -0.0763
 7553SOL    HW125101   5.298   6.385   8.979  0.5537  1.7461 -0.7379
 7553SOL    HW225102   5.193   6.482   8.930  0.5612  0.3224 -3.7920
 7554SOL     OW25103   7.700   3.869   0.644  0.3570 -0.0029  0.4672
 7554SOL    HW125104   7.646   3.868   0.723 -0.9587 -0.8821 -0.3989
 7554SOL    HW225105   7.653   3.925   0.583  1.7937  1.3660  0.5406
 7555SOL     OW25106   8.260   7.314   2.489 -0.4139 -1.0729 -0.5999
 7555SOL    HW125107   8.190   7.321   2.555 -1.1488 -1.7640 -1.2863
 7555SOL    HW225108   8.273   7.220   2.478 -0.8047 -0.9838 -1.9570
 7556SOL     OW25109   8.100   1.745  10.230 -0.2593  0.1789  0.2329
 7556SOL    HW125110   8.087   1.668  10.285 -1.2025 -0.3258 -0.6729
 7556SOL    HW225111   8.098   1.711  10.140  1.6232  0.9243 -0.1401
 7557SOL     OW25112   1.393   8.892   2.566  0.2702  0.0706  0.1280
 7557SOL    HW125113   1.438   8.910   2.483  1.1102 -1.1132  0.2852
 7557SOL    HW225114   1.455   8.838   2.615 -1.3652 -1.7478  0.3192
 7558SOL     OW25115   7.864   6.215   6.480  0.0982  0.3759  0.1571
 7558SOL    HW125116   7.890   6.304   6.455  0.7605 -0.2189 -1.3806
 7558SOL    HW225117   7.929   6.158   6.438 -0.5176 -0.8593  0.8255
 7559SOL     OW25118   3.924   5.417   9.351 -0.0733 -0.5032  0.2251
 7559SOL    HW125119   3.892   5.477   9.419  2.9204  1.6839 -0.0460
 7559SOL    HW225120   3.880   5.446   9.271  0.5927  0.7851  0.2857
 7560SOL     OW25121   8.710   6.281   8.685  0.5344 -0.3455 -0.0258
 7560SOL    HW125122   8.618   6.296   8.709  0.8596  0.4978  0.7770
 7560SOL    HW225123   8.756   6.360   8.716  1.8257 -1.5600  1.3534
 7561SOL     OW25124   0.704   4.293   6.868  0.0447  0.0536 -0.3078
 7561SOL    HW125125   0.709   4.296   6.772 -0.8552  0.6168 -0.3500
 7561SOL    HW225126   0.793   4.311   6.897  0.4073 -0.4787 -1.0403
 7562SOL     OW25127   7.823   5.361   2.697  0.6131 -0.6556  0.3687
 7562SOL    HW125128   7.889   5.423   2.729 -0.0506 -0.7031  1.9059
 7562SOL    HW225129   7.858   5.331   2.613  1.0156  1.7128 -0.3848
 7563SOL     OW25130   3.561   6.708   0.324  0.0903 -0.3640  0.0965
 7563SOL    HW125131   3.476   6.751   0.318  0.0276 -0.6240 -1.2342
 7563SOL    HW225132   3.591   6.702   0.233  1.9315  0.5077  0.5955
 7564SOL     OW25133   4.021   2.160   5.837 -0.1395  0.5322 -0.1825
 7564SOL    HW125134   4.097   2.151   5.780 -0.2214 -0.5334 -0.1337
 7564SOL    HW225135   3.983   2.073   5.841 -0.5641  0.7502  0.9177
 7565SOL     OW25136   6.357   5.846   8.653 -0.2593  0.7383  0.5790
 7565SOL    HW125137   6.390   5.923   8.607 -0.6039 -0.4868 -1.9162
 7565SOL    HW225138   6.271   5.829   8.614 -0.0027 -1.1427  0.6963
 7566SOL     OW25139   6.231   5.370   3.633  0.8571  0.1363 -0.2369
 7566SOL    HW125140   6.156   5.348   3.579  1.2694 -3.0321  0.3026
 7566SOL    HW225141   6.303   5.380   3.571  1.0290 -2.0493 -0.4453
 7567SOL     OW25142   8.691   0.861  10.078  0.1516 -0.1427  0.1845
 7567SOL    HW125143   8.701   0.951  10.048 -2.5561  0.2187  0.1563
 7567SOL    HW225144   8.760   0.849  10.143  1.4635  1.4452 -0.8398
 7568SOL     OW25145   0.175   0.890   6.495  0.1338  0.7482  0.0392
 7568SOL    HW125146   0.177   0.899   6.591 -0.9978 -0.2827  0.1902
 7568SOL    HW225147   0.214   0.971   6.463  1.9038  0.4976  1.3791
 7569SOL     OW25148   1.428   4.111   7.575  0.3642 -0.1541 -0.2369
 7569SOL    HW125149   1.385   4.068   7.501  1.7938  0.0157 -1.2112
 7569SOL    HW225150   1.448   4.039   7.636 -0.6708 -0.3174 -0.0776
 7570SOL     OW25151   2.714   4.998   8.339  0.8177  0.4714  0.0550
 7570SOL    HW125152   2.709   5.092   8.319  2.1807  0.3035 -1.2031
 7570SOL    HW225153   2.808   4.978   8.339  0.7382 -0.3376  3.1825
 7571SOL     OW25154   6.076   1.770   4.115 -0.0498  0.3907 -0.3516
 7571SOL    HW125155   6.128   1.833   4.065 -0.3819  0.9466 -0.0086
 7571SOL    HW225156   6.130   1.692   4.120  0.1195  0.4419 -1.3016
 7572SOL     OW25157   6.169   0.339   6.554 -0.1309  0.0772  0.3836
 7572SOL    HW125158   6.261   0.361   6.539 -0.3046  1.7474  1.5263
 7572SOL    HW225159   6.120   0.410   6.514 -0.9275 -0.5291  0.2535
 7573SOL     OW25160   0.869   3.120   6.186  0.4835 -0.0963  0.0980
 7573SOL    HW125161   0.781   3.109   6.149 -0.1827  0.9558  1.2959
 7573SOL    HW225162   0.928   3.102   6.113 -0.7695  1.5932 -1.4175
 7574SOL     OW25163   0.820   2.179   2.805 -1.4013  0.1739 -0.1787
 7574SOL    HW125164   0.776   2.141   2.729 -2.5830  2.3164 -0.6369
 7574SOL    HW225165   0.905   2.208   2.772 -0.6863 -1.5074  0.0648
 7575SOL     OW25166   5.932   2.728   9.033 -0.4312 -0.1454  0.0780
 7575SOL    HW125167   5.885   2.644   9.035  0.0155 -0.5196 -2.3156
 7575SOL    HW225168   5.871   2.789   8.992  0.7894 -0.4770 -2.4390
 7576SOL     OW25169   3.441   0.301   3.079 -0.2841 -0.3235 -0.3512
 7576SOL    HW125170   3.385   0.374   3.050  1.3104 -0.1316 -3.2719
 7576SOL    HW225171   3.397   0.223   3.047 -0.0814 -0.3662 -0.5229
 7577SOL     OW25172   6.580   8.778   3.340 -0.3877  0.7128 -0.1843
 7577SOL    HW125173   6.658   8.733   3.373 -0.3371  1.1053  0.2525
 7577SOL    HW225174   6.613   8.863   3.309 -0.6866  1.0301  0.3447
 7578SOL     OW25175   3.202   2.127   7.796  0.3740  0.0674 -0.0933
 7578SOL    HW125176   3.107   2.114   7.794  0.5081 -0.9279 -1.7504
 7578SOL    HW225177   3.234   2.066   7.862 -0.0909  0.0331  0.1043
 7579SOL     OW25178   7.244   9.932   6.524  0.5778 -0.2779  0.1384
 7579SOL    HW125179   7.166   9.946   6.471  0.1730 -1.7425  0.2997
 7579SOL    HW225180   7.238   9.998   6.594 -0.6836 -0.5646  0.3155
 7580SOL     OW25181   2.772   0.473   3.587 -0.0891  0.3955 -0.1717
 7580SOL    HW125182   2.765   0.544   3.651  2.0525  0.0255  0.5592
 7580SOL    HW225183   2.732   0.398   3.631 -0.3521  0.6001 -0.0542
 7581SOL     OW25184   8.693   3.252   2.959  0.0959  0.3053 -0.1855
 7581SOL    HW125185   8.747   3.218   2.888  0.3473  1.8096 -0.7340
 7581SOL    HW225186   8.606   3.216   2.942  0.9627 -2.8917  1.1951
 7582SOL     OW25187   4.788   8.826   7.629  0.2624  0.4558 -0.1993
 7582SOL    HW125188   4.705   8.787   7.604 -0.1443  2.2840 -2.0458
 7582SOL    HW225189   4.764   8.908   7.672  1.0018  2.0129 -2.5378
 7583SOL     OW25190  10.291   7.623   6.598 -0.3388  0.2878 -0.0571
 7583SOL    HW125191  10.355   7.694   6.592  0.4593 -0.4200 -0.1822
 7583SOL    HW225192  10.318   7.573   6.675  1.5786 -2.1544 -2.1156
 7584SOL     OW25193   0.626   1.460  10.007 -0.8219  0.1531 -0.5577
 7584SOL    HW125194   0.593   1.533  10.060  0.2785 -1.4012  2.5616
 7584SOL    HW225195   0.557   1.393  10.013 -1.7915  0.7696 -3.3230
 7585SOL     OW25196   6.930   5.969   7.631  0.0851  0.1563  0.2204
 7585SOL    HW125197   6.863   6.009   7.576  0.6084  1.3172  0.4053
 7585SOL    HW225198   6.962   5.895   7.580 -1.8224 -0.8877  0.4263
 7586SOL     OW25199   7.547  10.181   5.121  0.1388 -0.4775 -0.5117
 7586SOL    HW125200   7.535  10.256   5.180  0.5321  1.0906 -2.3516
 7586SOL    HW225201   7.496  10.111   5.162 -0.6775  0.9189  1.0034
 7587SOL     OW25202   2.332   9.631   2.285 -0.1047 -0.3937  0.2958
 7587SOL    HW125203   2.422   9.607   2.266 -0.2659  0.3043 -1.5674
 7587SOL    HW225204   2.300   9.672   2.204 -0.6524  3.6691  2.3228
 7588SOL     OW25205   7.922   8.739  10.115  0.2317  0.2685  0.0131
 7588SOL    HW125206   7.940   8.683  10.190  0.8792  0.6419  0.1483
 7588SOL    HW225207   7.843   8.788  10.139 -2.5609 -3.0452 -1.5084
 7589SOL     OW25208   6.662   3.323  10.092 -0.5097 -0.1254  0.0682
 7589SOL    HW125209   6.603   3.379  10.042 -1.7419  0.0716  1.6506
 7589SOL    HW225210   6.689   3.377  10.166 -0.4624 -1.0808  0.7700
 7590SOL     OW25211   3.439   3.861   8.255 -0.1450 -0.2055 -0.1864
 7590SOL    HW125212   3.366   3.918   8.281 -0.4535 -0.5457 -0.2989
 7590SOL    HW225213   3.512   3.890   8.309 -0.2890  0.3189 -0.2637
 7591SOL     OW25214   9.861   7.876   7.946 -0.1278  0.1170 -0.2673
 7591SOL    HW125215   9.943   7.849   7.906  0.5692 -0.7477  1.6306
 7591SOL    HW225216   9.884   7.898   8.036 -1.8991  0.3308  0.1740
 7592SOL     OW25217   8.523   0.024   7.399  0.3376 -0.1951 -0.1503
 7592SOL    HW125218   8.435  -0.012   7.411  0.4046 -0.2044  0.3299
 7592SOL    HW225219   8.539   0.017   7.305 -0.9086  1.4787 -0.5323
 7593SOL     OW25220   9.855   5.739   4.918  0.7633 -0.4997  0.0372
 7593SOL    HW125221   9.798   5.816   4.926  1.1689 -0.1851 -0.0850
 7593SOL    HW225222   9.881   5.719   5.008  0.3403 -0.7388  0.1091
 7594SOL     OW25223   3.078   5.577   6.547  0.2691 -0.8266  0.4778
 7594SOL    HW125224   3.160   5.577   6.498  0.2306 -1.8750  0.4057
 7594SOL    HW225225   3.078   5.662   6.591  0.3744  0.0839 -1.1978
 7595SOL     OW25226   7.198   6.038   4.569  0.5751  0.2042  0.6801
 7595SOL    HW125227   7.177   5.978   4.497  0.1625  0.8633  0.2430
 7595SOL    HW225228   7.279   6.004   4.606  1.4794  0.5647 -0.9005
 7596SOL     OW25229   2.911  10.339   8.316  0.1067  0.1116  0.1060
 7596SOL    HW125230   2.867  10.393   8.251  0.0788  0.2685  0.2539
 7596SOL    HW225231   2.975  10.398   8.357 -1.0346  0.4962  1.3933
 7597SOL     OW25232   8.086   2.254   0.090 -0.1884  0.1290 -0.1315
 7597SOL    HW125233   8.105   2.175   0.141  0.4600  1.0683  1.1360
 7597SOL    HW225234   8.084   2.224  -0.001 -2.7286 -1.8726  0.4769
 7598SOL     OW25235   9.727   1.373  10.065 -0.3629  0.2049  0.5870
 7598SOL    HW125236   9.709   1.333   9.980 -0.8369  1.7462 -0.0724
 7598SOL    HW225237   9.652   1.349  10.119 -0.1126 -0.6936  0.5528
 7599SOL     OW25238   9.488   3.176   9.493 -0.5185  0.2278 -0.3657
 7599SOL    HW125239   9.520   3.266   9.487 -1.0252  0.5407  1.1259
 7599SOL    HW225240   9.395   3.185   9.509 -0.1274 -0.4032  2.9681
 7600SOL     OW25241   2.464   5.650   6.566  0.6378 -0.1124  0.1808
 7600SOL    HW125242   2.453   5.718   6.633  1.6596 -1.8086  2.1854
 7600SOL    HW225243   2.376   5.614   6.554  0.6496 -0.6649  1.6182
 7601SOL     OW25244   3.613  10.476   7.900 -0.1187  0.3048  0.5119
 7601SOL    HW125245   3.573  10.563   7.896 -0.9328 -0.0778 -0.0762
 7601SOL    HW225246   3.543  10.417   7.870  0.2401 -0.6066  1.4209
 7602SOL     OW25247   6.149   2.795   5.862 -0.1648 -0.9049  0.2113
 7602SOL    HW125248   6.187   2.878   5.835  0.2883 -1.6218 -1.4877
 7602SOL    HW225249   6.108   2.813   5.947  1.2100  0.6563  0.5822
 7603SOL     OW25250   1.573   7.104   1.852  0.3814  0.1368 -0.8246
 7603SOL    HW125251   1.573   7.168   1.781 -0.3564 -0.5187 -1.4334
 7603SOL    HW225252   1.583   7.019   1.809  1.7546 -0.1603  0.0013
 7604SOL     OW25253   3.040   5.895   4.258 -0.1558  0.5283  0.2324
 7604SOL    HW125254   2.970   5.936   4.310  0.1798  2.4315 -0.7244
 7604SOL    HW225255   2.996   5.865   4.179 -0.8221 -3.0840  1.7708
 7605SOL     OW25256   8.138   7.948   9.599  0.0983  0.6436  0.1787
 7605SOL    HW125257   8.220   7.957   9.646  0.5653  0.2397 -0.5349
 7605SOL    HW225258   8.131   8.029   9.548  1.0827 -0.1569 -1.3051
 7606SOL     OW25259   9.931   7.317   4.766 -0.0401 -0.8981  0.2486
 7606SOL    HW125260   9.971   7.230   4.765  0.0366 -0.9186  1.8818
 7606SOL    HW225261   9.851   7.307   4.714 -1.1263 -2.5462  2.0722
 7607SOL     OW25262   0.427   4.192   5.930  0.3433  0.3327 -0.0120
 7607SOL    HW125263   0.444   4.098   5.933 -0.3647  0.1293 -1.4560
 7607SOL    HW225264   0.395   4.208   5.841  0.7004  1.9883  0.1141
 7608SOL     OW25265   1.599   3.611   2.320  0.0011 -0.2121 -0.4859
 7608SOL    HW125266   1.652   3.667   2.377  0.2926  0.1612 -1.1047
 7608SOL    HW225267   1.515   3.656   2.314 -0.4352 -0.8726  0.6018
 7609SOL     OW25268   6.566   6.191   3.251 -0.1976 -0.1353 -0.1559
 7609SOL    HW125269   6.597   6.102   3.232  0.6636 -0.2052  1.4185
 7609SOL    HW225270   6.646   6.241   3.268 -0.7720  0.4001  1.1118
 7610SOL     OW25271   0.434   8.925   3.616  0.1175  0.2502 -0.1165
 7610SOL    HW125272   0.381   8.846   3.623  0.9586 -0.3422 -0.3105
 7610SOL    HW225273   0.430   8.964   3.704 -1.2512  0.6430 -0.3241
 7611SOL     OW25274   6.119   8.034   4.336  0.1794 -0.0976 -0.8389
 7611SOL    HW125275   6.173   7.960   4.310 -0.4358 -1.3918  1.2961
 7611SOL    HW225276   6.182   8.102   4.361  0.7527 -0.2129 -1.8995
 7612SOL     OW25277   4.803   0.212   2.456  0.2241  0.2408  0.1090
 7612SOL    HW125278   4.787   0.217   2.551 -0.7976  0.9312 -0.0803
 7612SOL    HW225279   4.729   0.162   2.422  0.8610 -0.4591 -0.2728
 7613SOL     OW25280   9.116   6.516   0.966  0.1274  0.2099  0.4060
 7613SOL    HW125281   9.159   6.445   1.014 -0.8059 -0.6837 -0.0465
 7613SOL    HW225282   9.105   6.482   0.877 -0.8046  0.7148  0.3194
 7614SOL     OW25283  10.466   1.475   5.430  0.6117 -0.1658 -1.0576
 7614SOL    HW125284  10.417   1.460   5.349  1.5696 -0.6922 -1.5523
 7614SOL    HW225285  10.529   1.403   5.434 -1.8081 -2.4370  2.0571
 7615SOL     OW25286   5.600   1.162   8.859  0.0517 -0.0013 -0.2823
 7615SOL    HW125287   5.671   1.116   8.904  0.9020  1.0744 -0.4855
 7615SOL    HW225288   5.597   1.123   8.772  0.6030  0.1600 -0.3740
 7616SOL     OW25289   9.056   0.733   4.767  0.3441  0.3899  0.3218
 7616SOL    HW125290   9.136   0.725   4.715  0.0775  0.6701 -0.1371
 7616SOL    HW225291   9.028   0.824   4.756  0.1773  0.4029  0.8003
 7617SOL     OW25292   7.553   2.782   0.914  0.2446 -0.3816 -0.4667
 7617SOL    HW125293   7.483   2.729   0.877  0.2495  0.2708 -1.4487
 7617SOL    HW225294   7.546   2.866   0.869  2.7310 -0.8436 -1.9180
 7618SOL     OW25295   3.628   9.061   1.669  0.2807 -0.4036 -0.1545
 7618SOL    HW125296   3.673   9.027   1.746  0.0915 -0.5811 -0.1189
 7618SOL    HW225297   3.548   9.008   1.663  1.3228 -1.9146 -1.7520
 7619SOL     OW25298   7.858   7.033   1.020  0.9959 -0.0024 -0.0835
 7619SOL    HW125299   7.804   6.955   1.010  0.5736  0.5287 -2.3334
 7619SOL    HW225300   7.904   7.042   0.937  1.0845  2.1010  0.1409
 7620SOL     OW25301   7.626   7.966   1.796  0.2918  0.2862 -0.0352
 7620SOL    HW125302   7.578   8.024   1.855  0.8080 -0.3139  1.0070
 7620SOL    HW225303   7.573   7.887   1.792  1.8672 -1.0173  2.4025
 7621SOL     OW25304   1.991   2.653   7.081  0.2046 -0.8248  0.3237
 7621SOL    HW125305   1.903   2.645   7.043 -0.8882  1.2707  2.1633
 7621SOL    HW225306   1.981   2.622   7.171  0.9103  0.9807  1.0613
 7622SOL     OW25307   8.308   4.454   8.216 -0.1194 -0.0280  0.6521
 7622SOL    HW125308   8.231   4.504   8.243  0.8696  2.1292 -0.3295
 7622SOL    HW225309   8.349   4.507   8.148  2.0201 -1.3074  0.8483
 7623SOL     OW25310   7.602  10.111   6.858 -0.2288 -0.3230  0.5115
 7623SOL    HW125311   7.568  10.067   6.780 -0.3697 -0.6602  0.7608
 7623SOL    HW225312   7.656  10.182   6.824 -2.1827  1.0405  0.1092
 7624SOL     OW25313   6.418   0.958   4.674  0.1045  0.4124 -0.1567
 7624SOL    HW125314   6.332   0.967   4.634  0.0944  2.0133  0.1742
 7624SOL    HW225315   6.400   0.938   4.766  0.0814  0.8891 -0.0566
 7625SOL     OW25316   3.258   2.607   6.840  0.5479 -0.0150 -0.3903
 7625SOL    HW125317   3.279   2.545   6.910 -0.7237 -0.6398 -0.5272
 7625SOL    HW225318   3.164   2.594   6.824  1.2461 -1.8325 -4.0236
 7626SOL     OW25319   6.033   7.912   6.265 -0.6367 -0.2785  0.2234
 7626SOL    HW125320   6.111   7.912   6.210  0.0431 -0.0208  1.1584
 7626SOL    HW225321   5.988   7.993   6.243  1.1778  1.3522  2.1286
 7627SOL     OW25322   7.382   0.147   5.231 -0.3378 -0.0256  0.0706
 7627SOL    HW125323   7.306   0.131   5.174 -0.8819 -1.7929  1.2131
 7627SOL    HW225324   7.403   0.239   5.217 -2.5167  0.4459 -0.5065
 7628SOL     OW25325   3.951   8.901   7.497 -0.2745 -0.1616  0.0190
 7628SOL    HW125326   3.894   8.942   7.563 -0.6988 -1.2158  0.3292
 7628SOL    HW225327   3.918   8.811   7.490 -0.7737  0.1495 -2.2531
 7629SOL     OW25328   9.927   5.454   7.705  0.4453 -0.0780  0.0997
 7629SOL    HW125329   9.858   5.494   7.758  2.1001  2.0004  0.7707
 7629SOL    HW225330   9.894   5.461   7.615 -0.0851  1.2127  0.3702
 7630SOL     OW25331   8.860   0.084   5.834 -0.0147  0.6157  0.1986
 7630SOL    HW125332   8.918   0.148   5.876  0.2225  0.1884  0.5365
 7630SOL    HW225333   8.820   0.038   5.907  0.6261 -0.3417 -0.0343
 7631SOL     OW25334   1.684   4.348   2.335  0.1199 -0.5090  0.2227
 7631SOL    HW125335   1.746   4.297   2.282  1.7310  1.7846 -0.2676
 7631SOL    HW225336   1.626   4.390   2.270  0.6091  0.4592  0.3897
 7632SOL     OW25337   9.257   6.259   5.659 -0.5196  0.0429  0.3526
 7632SOL    HW125338   9.304   6.217   5.732 -1.5144  0.3188  1.1729
 7632SOL    HW225339   9.216   6.187   5.612 -0.3280 -0.0885  0.3831
 7633SOL     OW25340   1.220   2.896   3.794  0.7325 -0.0035  0.6791
 7633SOL    HW125341   1.292   2.838   3.770 -0.7416 -1.6147 -0.1043
 7633SOL    HW225342   1.194   2.867   3.882 -0.5228 -1.1628 -0.0279
 7634SOL     OW25343  10.034  10.338   0.083  0.0870 -0.0148  0.2233
 7634SOL    HW125344  10.128  10.338   0.103  0.4367 -0.2234 -1.3028
 7634SOL    HW225345  10.029  10.367  -0.008 -1.3621  0.2419  0.3602
 7635SOL     OW25346   9.711   0.976   9.826  0.2141  0.1919  0.1615
 7635SOL    HW125347   9.621   0.952   9.802  0.2998 -0.7839  0.7422
 7635SOL    HW225348   9.704   1.005   9.917  0.3505  1.0209 -0.0854
 7636SOL     OW25349   6.757   1.045   5.547 -0.1775 -0.5810 -0.1026
 7636SOL    HW125350   6.835   0.990   5.560  0.9246  0.9827  0.1700
 7636SOL    HW225351   6.783   1.107   5.479 -0.6204  0.9591  1.0685
 7637SOL     OW25352   1.259   4.938   6.920  0.0163 -0.5537 -1.0320
 7637SOL    HW125353   1.293   4.896   6.841 -0.5671 -0.8277 -1.1411
 7637SOL    HW225354   1.247   5.029   6.895 -1.4399 -0.8994 -1.6886
 7638SOL     OW25355   4.300   7.157   2.704  0.4193  0.1325 -0.5124
 7638SOL    HW125356   4.290   7.094   2.775  1.3173  2.4621  1.8085
 7638SOL    HW225357   4.271   7.240   2.741 -1.2085  1.1019 -3.6070
 7639SOL     OW25358   3.266   5.880   7.875 -0.4283  0.6510  0.2496
 7639SOL    HW125359   3.231   5.866   7.963 -0.5336 -0.1404  0.0888
 7639SOL    HW225360   3.254   5.796   7.831  3.0009 -0.1711  0.6388
 7640SOL     OW25361   6.496   3.651   4.138 -0.1509  0.6557 -0.3217
 7640SOL    HW125362   6.570   3.667   4.080 -0.4628 -0.1908 -0.9743
 7640SOL    HW225363   6.461   3.566   4.110  0.1469 -0.1415  1.6146
 7641SOL     OW25364   5.888   9.836   6.563  0.0312  0.6786  0.2210
 7641SOL    HW125365   5.927   9.834   6.476 -1.2423 -0.8942 -0.3571
 7641SOL    HW225366   5.843   9.921   6.566  0.1027  0.7608 -0.6670
 7642SOL     OW25367   9.016   5.260   6.913 -0.0975 -0.2534  0.3681
 7642SOL    HW125368   9.056   5.220   6.990  0.9153 -0.1355 -0.0846
 7642SOL    HW225369   9.004   5.352   6.937 -1.1084 -0.5095  0.8910
 7643SOL     OW25370   8.263   3.424  10.060  0.1111 -0.5839  0.3289
 7643SOL    HW125371   8.283   3.348  10.006 -1.5145 -0.2974 -0.7568
 7643SOL    HW225372   8.168   3.422  10.070  0.0379  1.2218  0.3553
 7644SOL     OW25373   0.069   4.155   6.915  0.4711  0.4241 -0.0916
 7644SOL    HW125374   0.057   4.140   7.008  0.6364 -1.9759 -0.3998
 7644SOL    HW225375   0.114   4.240   6.910  1.1633  0.2363  2.0355
 7645SOL     OW25376   0.185   2.155   7.074  0.8498  0.6611 -0.3662
 7645SOL    HW125377   0.168   2.206   6.995  1.0960  2.5986  0.7794
 7645SOL    HW225378   0.241   2.083   7.044  1.7186  1.8715 -1.8147
 7646SOL     OW25379   0.749   6.799   7.755  0.5842 -0.6121  0.2144
 7646SOL    HW125380   0.670   6.844   7.784  1.0757  0.1314  0.4293
 7646SOL    HW225381   0.747   6.806   7.660  1.9719  2.2625  0.2965
 7647SOL     OW25382   7.383   0.349   8.179 -0.2240  0.0579  0.3170
 7647SOL    HW125383   7.372   0.415   8.110  0.9567  1.7987  1.7043
 7647SOL    HW225384   7.328   0.382   8.251  0.5131 -0.3788  1.0858
 7648SOL     OW25385   9.748   9.180   3.809  0.0335  0.0942 -0.4676
 7648SOL    HW125386   9.730   9.161   3.901  0.9522 -0.8005 -0.4547
 7648SOL    HW225387   9.688   9.251   3.787 -0.7212 -0.1906  0.6056
 7649SOL     OW25388   9.468   4.850   6.615  0.2068 -0.0432  0.3448
 7649SOL    HW125389   9.488   4.806   6.697 -1.7832 -1.7263  0.0220
 7649SOL    HW225390   9.376   4.874   6.623 -0.7696 -2.3657 -2.1932
 7650SOL     OW25391   7.557   9.495  10.329 -0.8940  0.1649  0.1672
 7650SOL    HW125392   7.650   9.510  10.312 -1.3618  1.1889 -1.7838
 7650SOL    HW225393   7.543   9.530  10.417  0.3314  1.1368  0.0047
 7651SOL     OW25394   6.389  10.354   0.111  0.0394  0.5050  0.4204
 7651SOL    HW125395   6.294  10.349   0.101  0.3228 -1.4807 -4.3933
 7651SOL    HW225396   6.416  10.263   0.124  1.3595  0.7801 -0.2556
 7652SOL     OW25397   0.165   3.014   7.362 -0.5169  0.2267 -0.4719
 7652SOL    HW125398   0.164   2.933   7.312 -0.2763  0.8017 -1.4408
 7652SOL    HW225399   0.100   3.001   7.431  0.8708 -1.5067  0.5760
 7653SOL     OW25400   0.609   6.173   2.706  0.4932  0.3250 -0.2784
 7653SOL    HW125401   0.694   6.172   2.661 -0.3249  0.9994 -1.9337
 7653SOL    HW225402   0.548   6.138   2.641 -0.6768  0.9695  0.4501
 7654SOL     OW25403   0.237   2.209   1.976 -0.3538 -0.0259  0.5641
 7654SOL    HW125404   0.183   2.288   1.968  0.3906  0.5836  1.2913
 7654SOL    HW225405   0.326   2.240   1.959 -0.2466 -1.0603 -0.8695
 7655SOL     OW25406   3.996   1.072   4.269  0.3062 -0.0353 -0.7441
 7655SOL    HW125407   4.089   1.054   4.283  0.0204 -1.6913 -0.7543
 7655SOL    HW225408   3.982   1.052   4.177  0.0849  1.0150 -0.9545
 7656SOL     OW25409   2.837   0.982   8.503 -0.0792  0.1659  0.0121
 7656SOL    HW125410   2.749   1.012   8.479 -0.3588 -0.4020  0.3091
 7656SOL    HW225411   2.826   0.889   8.522  0.9605 -0.4151 -1.9087
 7657SOL     OW25412  10.213   6.260   9.629  0.4490 -0.1078  0.2325
 7657SOL    HW125413  10.283   6.313   9.589 -0.2111 -0.2420 -1.1533
 7657SOL    HW225414  10.215   6.177   9.581  0.7431 -0.9625  1.6428
 7658SOL     OW25415   8.128   1.548   4.168  0.2845 -0.0516 -0.1963
 7658SOL    HW125416   8.173   1.590   4.242  0.8189 -1.6293  0.4033
 7658SOL    HW225417   8.078   1.477   4.207 -2.6688  1.4985 -0.8695
 7659SOL     OW25418   0.110   0.692   2.708 -0.2260  0.2569  0.3182
 7659SOL    HW125419   0.141   0.649   2.788 -0.2456  1.4463  0.9905
 7659SOL    HW225420   0.185   0.744   2.679 -0.3541  0.1461 -0.2178
 7660SOL     OW25421   8.677   1.911   9.937  0.2391 -0.0571  0.1869
 7660SOL    HW125422   8.636   1.994   9.960  1.3992  0.4793  0.3479
 7660SOL    HW225423   8.622   1.845   9.980 -0.7282  0.6078 -0.0026
 7661SOL     OW25424   2.185   3.553  10.490  0.1526 -0.1402  0.6869
 7661SOL    HW125425   2.261   3.593  10.450  0.3640 -0.8994  0.3180
 7661SOL    HW225426   2.112   3.611  10.467  0.0545 -1.1267 -1.7983
 7662SOL     OW25427   3.655  10.127   1.058 -0.2013  0.2593  0.0646
 7662SOL    HW125428   3.735  10.146   1.108 -0.5314  1.3908  0.1877
 7662SOL    HW225429   3.603  10.207   1.065 -0.6451  0.1148 -1.3682
 7663SOL     OW25430   0.001   2.005   5.692 -0.4834  0.1794  0.3336
 7663SOL    HW125431   0.065   1.962   5.748  0.4539  0.1127 -0.7582
 7663SOL    HW225432   0.043   2.088   5.666  0.9843 -1.5362 -3.5727
 7664SOL     OW25433   2.748   0.252   0.949 -0.1679 -0.3225  0.4862
 7664SOL    HW125434   2.676   0.195   0.925 -0.8956  0.5922  0.4467
 7664SOL    HW225435   2.740   0.264   1.044 -0.7600  0.6771  0.3245
 7665SOL     OW25436   5.687   6.829   2.294  0.1610  0.4443  0.2508
 7665SOL    HW125437   5.649   6.916   2.306 -0.9347 -0.1093  1.0020
 7665SOL    HW225438   5.781   6.842   2.305 -0.0177  1.4825  0.6853
 7666SOL     OW25439   4.310   9.791   2.982  0.4613  0.0311 -0.4484
 7666SOL    HW125440   4.283   9.703   3.005 -1.1861 -0.0011 -2.2744
 7666SOL    HW225441   4.398   9.800   3.021 -0.7260 -1.0732  2.8412
 7667SOL     OW25442   3.679   1.585   9.173  0.2947  0.0426  0.5150
 7667SOL    HW125443   3.752   1.646   9.183  0.6297  0.0463 -1.5887
 7667SOL    HW225444   3.718   1.499   9.188  0.2156  0.1904  1.6521
 7668SOL     OW25445   7.740   0.130   6.895 -0.3528  0.5818 -0.4347
 7668SOL    HW125446   7.825   0.174   6.902  0.4572 -0.5099 -2.5045
 7668SOL    HW225447   7.718   0.106   6.985  2.2012 -0.2974  0.0444
 7669SOL     OW25448   5.073   3.883   7.768 -0.2323  0.4436  0.2402
 7669SOL    HW125449   5.027   3.949   7.819 -1.3119 -1.0438  1.2707
 7669SOL    HW225450   5.165   3.892   7.794 -0.4893  0.9717  0.9915
 7670SOL     OW25451   7.447   4.898   3.413 -0.5585 -0.4231 -0.0293
 7670SOL    HW125452   7.530   4.915   3.367 -0.7163 -1.9379 -0.9183
 7670SOL    HW225453   7.405   4.984   3.417  1.3515  0.5436  1.1242
 7671SOL     OW25454   8.674   6.896   5.328  0.3522  0.5439  0.6099
 7671SOL    HW125455   8.736   6.849   5.272 -2.2173 -1.2928 -0.9203
 7671SOL    HW225456   8.649   6.973   5.278  2.1581  1.9448  1.7404
 7672SOL     OW25457   3.680   3.325   8.413  0.0698 -0.3948  0.0582
 7672SOL    HW125458   3.699   3.231   8.407 -0.6828 -0.4614 -1.8202
 7672SOL    HW225459   3.737   3.356   8.483  0.4501 -2.2193  0.6112
 7673SOL     OW25460  10.111   3.127   8.583  0.4012 -0.3145 -0.4829
 7673SOL    HW125461  10.104   3.202   8.524 -0.7603  0.7600  0.9317
 7673SOL    HW225462  10.051   3.062   8.546 -0.4388  0.4084 -0.4215
 7674SOL     OW25463   4.136   2.670   5.487 -0.2149  0.0125  0.3565
 7674SOL    HW125464   4.181   2.592   5.521 -1.4380 -1.0123 -0.2722
 7674SOL    HW225465   4.066   2.635   5.432  0.9144  1.5585 -2.2668
 7675SOL     OW25466   9.736   8.981   8.809  0.5546 -0.3509 -0.6601
 7675SOL    HW125467   9.747   9.015   8.897 -2.7446  0.5761 -0.4630
 7675SOL    HW225468   9.777   9.046   8.752 -1.1787  1.4511  0.0265
 7676SOL     OW25469   3.612   4.921   5.750  0.1118 -0.2052  0.1258
 7676SOL    HW125470   3.535   4.885   5.794  0.1022  0.5783  0.7567
 7676SOL    HW225471   3.676   4.850   5.751 -0.2118 -0.4919  0.5791
 7677SOL     OW25472   4.688   2.880   0.409  0.6123  0.6253  0.4587
 7677SOL    HW125473   4.693   2.832   0.326 -0.2562  0.9893  0.1873
 7677SOL    HW225474   4.738   2.826   0.471 -0.4302 -0.6862  0.1988
 7678SOL     OW25475   6.291   9.454   4.909  0.1309 -0.2014 -0.0961
 7678SOL    HW125476   6.290   9.436   4.815 -1.2408 -1.8533  0.1864
 7678SOL    HW225477   6.371   9.504   4.923  0.0186  0.6687 -2.2396
 7679SOL     OW25478   5.794   6.682   6.461 -0.4863  0.8972  0.0036
 7679SOL    HW125479   5.827   6.727   6.539 -1.4986  1.9490 -0.1318
 7679SOL    HW225480   5.847   6.716   6.389 -0.2224  0.6922  0.0997
 7680SOL     OW25481   7.767   4.681   2.322  0.1118 -0.9132 -0.5407
 7680SOL    HW125482   7.770   4.774   2.345 -0.2398 -1.1380  0.5009
 7680SOL    HW225483   7.779   4.679   2.227  3.3541 -0.0177 -0.2638
 7681SOL     OW25484   7.642   0.658   4.294 -0.3282 -0.2882  0.2786
 7681SOL    HW125485   7.596   0.649   4.211 -0.4301  1.0175  0.1663
 7681SOL    HW225486   7.721   0.707   4.273  0.2999 -1.0658  0.7518
 7682SOL     OW25487   7.526   8.775   1.529 -0.1901  0.4411 -0.2990
 7682SOL    HW125488   7.505   8.761   1.437 -0.1678  2.7758 -0.7008
 7682SOL    HW225489   7.621   8.787   1.530 -0.3798  2.0505 -0.2275
 7683SOL     OW25490   6.263   4.478   0.834  0.2045 -0.1171  0.5217
 7683SOL    HW125491   6.236   4.420   0.906  1.7289  0.3433  1.5219
 7683SOL    HW225492   6.357   4.463   0.826  0.2539  0.6853 -0.6292
 7684SOL     OW25493   5.420   9.163   5.160  0.1001 -0.2193  0.0689
 7684SOL    HW125494   5.414   9.249   5.117  2.0074 -0.4952 -0.8214
 7684SOL    HW225495   5.424   9.100   5.088  1.5316 -0.8279  0.6466
 7685SOL     OW25496   2.157   2.585   7.349 -0.0950  0.3372  0.1118
 7685SOL    HW125497   2.202   2.570   7.266 -0.7297  0.4942 -0.2613
 7685SOL    HW225498   2.110   2.503   7.366 -1.1434  0.8186 -0.4217
 7686SOL     OW25499   3.304   1.387   5.196 -0.0670  0.0783  0.1035
 7686SOL    HW125500   3.339   1.386   5.285 -1.8478 -1.5398  0.8329
 7686SOL    HW225501   3.224   1.440   5.202  0.3479  0.8389 -0.7895
 7687SOL     OW25502   3.314   3.099   7.964 -0.2118  0.2537  0.1762
 7687SOL    HW125503   3.260   3.020   7.964  0.0277  0.0745  1.4168
 7687SOL    HW225504   3.252   3.170   7.950 -0.8725  0.0942  2.0827
 7688SOL     OW25505   1.941   9.080   1.517 -0.7978  0.3011 -0.0662
 7688SOL    HW125506   2.031   9.111   1.508 -0.8128  1.4821  2.8518
 7688SOL    HW225507   1.893   9.126   1.447  0.9353 -1.2099 -2.4240
 7689SOL     OW25508   1.910   3.969   6.782 -0.0423  0.2960  0.3210
 7689SOL    HW125509   1.837   3.930   6.830 -1.1948 -1.3079 -2.5013
 7689SOL    HW225510   1.986   3.916   6.807 -0.5007 -0.1744  0.7472
 7690SOL     OW25511   5.139   1.403   3.961  0.0688 -0.3539 -0.0258
 7690SOL    HW125512   5.203   1.342   3.999 -0.3575  0.0685  1.4079
 7690SOL    HW225513   5.185   1.443   3.888  1.3079 -0.3870  0.7099
 7691SOL     OW25514   1.938   2.071  10.167 -0.2125 -0.2740 -0.4426
 7691SOL    HW125515   1.947   2.100  10.076  0.7617  0.1710 -0.2219
 7691SOL    HW225516   1.982   1.986  10.169 -0.5243 -0.4380 -0.4534
 7692SOL     OW25517   9.180   9.838   6.138 -0.6228  0.2196 -0.1907
 7692SOL    HW125518   9.157   9.824   6.230 -0.1560  0.8124  0.0177
 7692SOL    HW225519   9.116   9.785   6.089  1.2331 -2.9912  0.5364
 7693SOL     OW25520   0.708   1.103   8.036 -0.2694 -0.3885  0.2773
 7693SOL    HW125521   0.758   1.166   8.089  0.4302 -0.4179 -0.3325
 7693SOL    HW225522   0.702   1.025   8.091 -0.2557 -0.1425  0.6321
 7694SOL     OW25523   9.446   0.999   9.755  0.5486  0.6808  0.7471
 7694SOL    HW125524   9.452   1.055   9.678 -1.2654  0.0046  0.0617
 7694SOL    HW225525   9.376   1.038   9.807 -1.4059 -1.3741 -0.1907
 7695SOL     OW25526   6.787   0.719   2.532  0.6654  0.4099 -0.0978
 7695SOL    HW125527   6.824   0.759   2.610  0.1657  2.2779 -0.7592
 7695SOL    HW225528   6.830   0.764   2.459  0.5674 -0.7582 -0.9017
 7696SOL     OW25529   6.278   1.021  10.375  0.2472 -0.1852  0.1716
 7696SOL    HW125530   6.363   1.028  10.332 -0.4573 -0.0646 -1.2733
 7696SOL    HW225531   6.214   1.039  10.305 -0.9628 -0.1829  1.2353
 7697SOL     OW25532   3.958   8.779   4.880  0.1821 -0.4580  0.4174
 7697SOL    HW125533   3.918   8.712   4.825  0.5139 -1.9509  1.9223
 7697SOL    HW225534   4.016   8.731   4.939  2.8323  1.4527 -0.4479
 7698SOL     OW25535   7.384   6.373   7.935 -0.1344 -0.3234 -0.2018
 7698SOL    HW125536   7.322   6.386   7.863  1.6508  0.5598 -1.6556
 7698SOL    HW225537   7.436   6.453   7.936  0.3698 -0.6391  1.6184
 7699SOL     OW25538   7.173   5.614   0.926  0.3902  0.0950  0.3356
 7699SOL    HW125539   7.083   5.639   0.945  0.8293  1.1763  1.0305
 7699SOL    HW225540   7.210   5.587   1.010  1.6707  2.7942  0.7446
 7700SOL     OW25541   4.560   8.410   7.477 -0.3565 -0.0953 -0.1412
 7700SOL    HW125542   4.515   8.378   7.399  1.0050 -1.5634 -0.3623
 7700SOL    HW225543   4.540   8.345   7.544 -1.7927  1.3224  0.8863
 7701SOL     OW25544   5.598   3.109   3.511 -0.8517  0.1408  0.2534
 7701SOL    HW125545   5.568   3.084   3.424 -0.5963 -0.0854  0.2285
 7701SOL    HW225546   5.565   3.198   3.524 -0.9025  0.1677 -0.0667
 7702SOL     OW25547   4.878   9.966   3.821 -0.4822  0.3094  0.1044
 7702SOL    HW125548   4.840  10.028   3.883  0.2571  0.9098 -0.0348
 7702SOL    HW225549   4.968   9.996   3.808 -1.2771  1.6958 -3.1425
 7703SOL     OW25550   9.364   3.933   4.276 -0.1254 -0.4341  0.1862
 7703SOL    HW125551   9.401   3.883   4.203  2.1104  0.9219  0.3289
 7703SOL    HW225552   9.312   4.001   4.233  0.9294  0.1697 -0.1758
 7704SOL     OW25553   9.086   1.048   3.250 -0.4543 -0.3464  0.1794
 7704SOL    HW125554   9.053   1.129   3.288 -1.4494 -0.5654 -0.1820
 7704SOL    HW225555   9.176   1.042   3.281 -0.8579  0.0909  1.5294
 7705SOL     OW25556   3.912   7.737   0.804  0.0355  0.3633 -0.0756
 7705SOL    HW125557   3.915   7.749   0.709 -0.4499  0.6353 -0.0625
 7705SOL    HW225558   3.872   7.818   0.836 -1.0425 -0.2885  0.2449
 7706SOL     OW25559  10.300   8.887   6.083  0.1136  0.2513 -0.7321
 7706SOL    HW125560  10.370   8.916   6.141 -0.2453  0.0652 -0.2075
 7706SOL    HW225561  10.234   8.849   6.141 -1.0686  1.6898 -1.0957
 7707SOL     OW25562   9.452   0.751   9.693  0.2558  0.2431 -0.5170
 7707SOL    HW125563   9.439   0.713   9.780  3.7360  0.3636  0.2096
 7707SOL    HW225564   9.427   0.843   9.702  0.1929  0.1527  0.2616
 7708SOL     OW25565   6.776   9.589   6.374 -0.4046  0.4475 -0.0348
 7708SOL    HW125566   6.802   9.542   6.453 -1.2572  0.7294  0.4331
 7708SOL    HW225567   6.705   9.647   6.403 -1.8077 -0.5549 -1.3020
 7709SOL     OW25568   8.634   3.300   7.546 -0.0663 -0.3513 -0.3865
 7709SOL    HW125569   8.637   3.290   7.641  1.2179  0.3653 -0.3322
 7709SOL    HW225570   8.709   3.357   7.525 -1.5683  1.2705 -1.6089
 7710SOL     OW25571   9.120   7.313   1.706 -0.8264  0.0982  0.4248
 7710SOL    HW125572   9.208   7.344   1.727 -0.1662 -0.5317 -1.2225
 7710SOL    HW225573   9.120   7.303   1.611 -2.4222 -0.6970  0.4664
 7711SOL     OW25574   2.185   1.167   6.792 -0.3672 -0.6326 -0.3030
 7711SOL    HW125575   2.142   1.239   6.746 -1.9412 -0.1834  1.7562
 7711SOL    HW225576   2.116   1.103   6.806  0.3671 -1.2928  0.3592
 7712SOL     OW25577   9.820   8.618   8.254 -0.3838 -0.5139 -0.7431
 7712SOL    HW125578   9.827   8.643   8.162 -2.1226  2.5973 -0.1528
 7712SOL    HW225579   9.743   8.561   8.258  0.3089 -1.5205 -1.3152
 7713SOL     OW25580   0.892   9.669   8.906 -0.6128  0.2765 -0.1537
 7713SOL    HW125581   0.971   9.724   8.907  0.2522 -0.8401 -2.1314
 7713SOL    HW225582   0.925   9.580   8.900 -2.0334 -0.1903 -1.4863
 7714SOL     OW25583   8.998   5.461   4.859 -0.4348  0.1505 -0.3443
 7714SOL    HW125584   8.935   5.522   4.897 -1.2725 -0.9516  0.0928
 7714SOL    HW225585   9.076   5.514   4.843 -2.0622  2.0844 -2.7344
 7715SOL     OW25586   4.541   5.415   3.064  0.0389 -0.3166  0.0722
 7715SOL    HW125587   4.485   5.385   3.136  0.9991 -0.4812  0.7649
 7715SOL    HW225588   4.565   5.334   3.018 -0.1579 -0.2606 -0.1319
 7716SOL     OW25589   1.915   2.726   2.689  0.1661  0.7930  0.0491
 7716SOL    HW125590   1.980   2.770   2.743  1.0742  0.9479 -1.1165
 7716SOL    HW225591   1.878   2.796   2.634  1.0934  0.2765 -1.2951
 7717SOL     OW25592   9.075   0.921   2.913  0.1044 -0.3626  0.0670
 7717SOL    HW125593   8.985   0.907   2.943 -0.2901 -0.9615 -1.2857
 7717SOL    HW225594   9.122   0.843   2.940 -0.4112 -1.2173 -1.3594
 7718SOL     OW25595   9.205  10.025   8.025  0.1463  0.3827  0.1607
 7718SOL    HW125596   9.118  10.057   8.001 -0.2299 -1.4970 -1.1718
 7718SOL    HW225597   9.240   9.989   7.944  2.0276  0.7379  0.7742
 7719SOL     OW25598   0.852   1.660   5.161 -0.4258  0.5693 -0.2005
 7719SOL    HW125599   0.791   1.734   5.164 -1.7972 -0.4391 -1.2989
 7719SOL    HW225600   0.878   1.655   5.069 -1.9585 -1.4595 -0.6160
 7720SOL     OW25601   6.315   6.611   6.532  0.0523  0.2431 -0.3599
 7720SOL    HW125602   6.373   6.551   6.486 -1.1628 -0.4657 -0.9928
 7720SOL    HW225603   6.314   6.690   6.478 -0.2426 -0.0635 -0.8114
 7721SOL     OW25604   8.963   2.880   2.761 -0.1177 -0.2856  0.1810
 7721SOL    HW125605   9.011   2.879   2.678  0.5008 -2.9643  0.4869
 7721SOL    HW225606   9.027   2.851   2.826 -0.9801  0.4147  1.4003
 7722SOL     OW25607   0.973   2.346   5.312 -0.1007  0.4397 -0.1599
 7722SOL    HW125608   1.038   2.417   5.308 -1.7311  2.0914  0.8606
 7722SOL    HW225609   1.013   2.274   5.264  1.7187  1.9989 -1.1339
 7723SOL     OW25610   1.498   3.731   8.450 -0.1932 -0.3891  0.1757
 7723SOL    HW125611   1.565   3.757   8.387 -0.0205  1.9035  1.2370
 7723SOL    HW225612   1.512   3.637   8.461  1.7425 -0.2849 -0.8910
 7724SOL     OW25613   5.414   5.464   5.790  0.1939  0.1930  0.1488
 7724SOL    HW125614   5.385   5.476   5.700 -0.7678 -0.2008  0.3960
 7724SOL    HW225615   5.431   5.370   5.798  1.0725  0.3417  0.1566
 7725SOL     OW25616   1.230   6.142   6.147  0.6170 -0.0435  0.2840
 7725SOL    HW125617   1.271   6.121   6.064  0.9256  0.3396  0.3360
 7725SOL    HW225618   1.143   6.101   6.143  0.4279  0.4028 -0.4334
 7726SOL     OW25619  10.290   0.019   7.465  0.5549  0.3915  0.0327
 7726SOL    HW125620  10.368  -0.037   7.464 -0.1079 -0.5625 -0.5655
 7726SOL    HW225621  10.226  -0.030   7.516 -0.2733  0.2480 -1.0946
 7727SOL     OW25622   0.455   9.478   2.330  0.1816  0.3282 -0.0135
 7727SOL    HW125623   0.436   9.560   2.286  0.5267  0.4336  0.0300
 7727SOL    HW225624   0.413   9.411   2.275 -1.7365  0.6661  0.9531
 7728SOL     OW25625   9.387   9.011   5.867 -0.5893 -0.0362 -0.3681
 7728SOL    HW125626   9.391   9.017   5.771  2.2245  0.3313 -0.3182
 7728SOL    HW225627   9.345   9.092   5.894  1.2420  1.2757 -1.2427
 7729SOL     OW25628   6.775   1.505   6.207 -0.4858 -0.4647 -0.0681
 7729SOL    HW125629   6.761   1.578   6.147  0.2433  0.5199  0.9267
 7729SOL    HW225630   6.704   1.512   6.270 -0.8016 -1.0305 -0.3543
 7730SOL     OW25631   2.429   0.310   5.299 -0.3518 -0.0811 -0.0825
 7730SOL    HW125632   2.495   0.310   5.230 -0.5356 -0.1446 -0.2571
 7730SOL    HW225633   2.374   0.234   5.280  0.0627 -0.5687  0.5739
 7731SOL     OW25634   0.034   2.166   7.611  0.5057 -0.0865 -0.6934
 7731SOL    HW125635  -0.058   2.187   7.629  1.0215  0.6164  1.4030
 7731SOL    HW225636   0.032   2.078   7.575 -1.0572  0.3072 -1.6749
 7732SOL     OW25637   5.064   2.835   9.140  0.1310  0.4107  0.3859
 7732SOL    HW125638   4.987   2.800   9.095  0.4377 -2.3559  1.8020
 7732SOL    HW225639   5.049   2.929   9.143 -2.2881  0.1538 -0.9981
 7733SOL     OW25640   3.037   5.199   1.063  0.4666  0.5404  0.3877
 7733SOL    HW125641   3.120   5.152   1.054  1.0420  1.3406  1.2976
 7733SOL    HW225642   2.987   5.174   0.986  0.3276 -2.3914  1.3032
 7734SOL     OW25643   3.078   6.722   9.677 -0.4307 -0.0357  0.3003
 7734SOL    HW125644   3.073   6.780   9.601 -1.7180 -0.6296 -0.0969
 7734SOL    HW225645   3.061   6.635   9.642 -0.3246 -0.4130  1.1652
 7735SOL     OW25646   8.704   3.405   4.617 -0.1568  0.0870  0.0078
 7735SOL    HW125647   8.796   3.419   4.591 -0.2197  1.9186  0.6177
 7735SOL    HW225648   8.700   3.314   4.643  1.8435  0.2957  1.2402
 7736SOL     OW25649   2.429   0.745   7.968 -0.3757 -0.1001 -0.0829
 7736SOL    HW125650   2.421   0.805   8.042 -2.2039 -0.7124  0.2605
 7736SOL    HW225651   2.481   0.793   7.904 -0.9613  1.4601  0.5726
 7737SOL     OW25652   7.460   8.178   1.950 -0.4028  0.5767 -0.3039
 7737SOL    HW125653   7.376   8.134   1.936 -0.3968  0.7534 -0.8973
 7737SOL    HW225654   7.448   8.266   1.915  0.0703  0.5620 -0.5164
 7738SOL     OW25655   7.283   1.135   1.534 -0.0283  0.1325 -0.1293
 7738SOL    HW125656   7.239   1.069   1.480 -2.7803  0.2437  1.7414
 7738SOL    HW225657   7.351   1.086   1.580  0.1579 -0.6557 -1.2075
 7739SOL     OW25658   6.763   2.691   3.802 -0.2422  0.0467 -0.4205
 7739SOL    HW125659   6.688   2.750   3.807  0.5891  1.1289 -0.3802
 7739SOL    HW225660   6.736   2.613   3.850 -2.0085 -0.3494 -1.9161
 7740SOL     OW25661   0.546  10.003   5.259 -0.4147 -0.5913 -0.2759
 7740SOL    HW125662   0.550   9.926   5.315  0.6252  0.0697  0.6105
 7740SOL    HW225663   0.607  10.065   5.299  0.1285  0.0328 -1.9614
 7741SOL     OW25664   6.802   3.173   2.665  0.3407 -0.6972  0.2255
 7741SOL    HW125665   6.749   3.252   2.679 -0.1918 -1.0591  0.2512
 7741SOL    HW225666   6.887   3.195   2.702  0.1085 -0.2336  0.4886
 7742SOL     OW25667   6.252   4.580   3.951 -0.4703  0.4724  0.6730
 7742SOL    HW125668   6.236   4.531   3.871  1.7934 -0.4651  0.7031
 7742SOL    HW225669   6.208   4.663   3.938 -0.9713 -0.0288 -1.1227
 7743SOL     OW25670   3.964   3.042   4.687  0.1532 -0.2806 -0.5688
 7743SOL    HW125671   4.028   3.026   4.757 -1.1968  0.9919  1.0479
 7743SOL    HW225672   3.982   3.132   4.659  0.0889 -0.4660 -1.2079
 7744SOL     OW25673   8.143   9.713   4.604  0.2131  0.3778 -0.3643
 7744SOL    HW125674   8.081   9.741   4.537 -0.9023 -1.1594 -0.0335
 7744SOL    HW225675   8.126   9.771   4.678 -2.0419 -0.9991  0.3066
 7745SOL     OW25676   4.689   2.229   4.625 -0.2704  0.7009 -0.1197
 7745SOL    HW125677   4.645   2.258   4.705  0.1382 -1.8226  1.1085
 7745SOL    HW225678   4.782   2.232   4.646 -0.2103 -1.7002  0.2300
 7746SOL     OW25679   6.646   2.350   4.843  0.2827 -0.4030  0.4461
 7746SOL    HW125680   6.739   2.371   4.840  0.1974  0.1704  1.5137
 7746SOL    HW225681   6.606   2.409   4.778  1.0154 -2.9410 -2.5787
 7747SOL     OW25682   1.812   5.412   3.299  0.5787 -0.6936 -0.2407
 7747SOL    HW125683   1.734   5.356   3.290 -1.4322  1.6309  1.3610
 7747SOL    HW225684   1.885   5.350   3.306 -1.4862 -3.1758  1.5314
 7748SOL     OW25685   3.085  10.265   0.625 -0.3106 -0.1376 -0.4524
 7748SOL    HW125686   3.049  10.276   0.537 -1.6829  0.3414  0.1443
 7748SOL    HW225687   3.132  10.347   0.641 -0.2224 -0.1469 -0.6555
 7749SOL     OW25688   9.568   6.121   6.721 -0.0162 -0.0767 -0.2862
 7749SOL    HW125689   9.556   6.093   6.812 -1.0210  0.3511 -0.2740
 7749SOL    HW225690   9.552   6.042   6.669  0.4046 -0.2861 -0.0950
 7750SOL     OW25691  10.043   4.566   1.188 -0.4425 -0.0673 -0.2339
 7750SOL    HW125692  10.088   4.607   1.115 -0.3365  0.1256 -0.0609
 7750SOL    HW225693  10.063   4.622   1.264  0.4276 -0.9201  0.1784
 7751SOL     OW25694   5.760   5.416   9.536  0.0242 -0.2972 -0.2555
 7751SOL    HW125695   5.730   5.498   9.575 -0.7650 -0.5016 -0.4061
 7751SOL    HW225696   5.777   5.438   9.445 -0.7346 -0.4142 -0.4360
 7752SOL     OW25697   7.312   0.304   6.166  0.1458  1.0864  0.3323
 7752SOL    HW125698   7.263   0.301   6.084  0.9244 -0.4761 -0.1297
 7752SOL    HW225699   7.250   0.273   6.232  0.4752 -1.0270 -0.2702
 7753SOL     OW25700  10.426   4.591   4.734  0.3767  0.2790  0.6846
 7753SOL    HW125701  10.513   4.565   4.701 -0.2767 -2.2067  0.7052
 7753SOL    HW225702  10.368   4.521   4.703 -1.2851  0.9214  2.2420
 7754SOL     OW25703   9.851  10.153   8.016  0.3440 -0.3808 -0.0479
 7754SOL    HW125704   9.886  10.129   7.930  0.5801 -1.9702  0.4586
 7754SOL    HW225705   9.892  10.091   8.077 -0.0046  0.5595  1.1882
 7755SOL     OW25706   0.172   3.158   2.377 -0.7032 -0.1718  0.9606
 7755SOL    HW125707   0.093   3.157   2.322  0.7744 -1.8164 -1.3239
 7755SOL    HW225708   0.157   3.089   2.442 -0.0346 -2.7888 -1.4327
 7756SOL     OW25709   8.448   3.840   4.473 -0.0401 -0.0174  0.6785
 7756SOL    HW125710   8.483   3.762   4.430  1.6480  1.4278 -0.6861
 7756SOL    HW225711   8.492   3.842   4.558 -0.6200 -0.9009  1.0161
 7757SOL     OW25712   5.007   3.084   8.006 -0.0904 -0.3633  0.3137
 7757SOL    HW125713   5.098   3.083   7.978 -0.5720  1.5048 -1.5991
 7757SOL    HW225714   5.006   3.036   8.088  2.7881  0.4689  0.9295
 7758SOL     OW25715   5.259   0.626  10.018 -0.3662  0.1581  0.4575
 7758SOL    HW125716   5.349   0.601  10.002 -0.5702  0.2948 -1.1037
 7758SOL    HW225717   5.264   0.693  10.087  0.7199  0.1664  0.3837
 7759SOL     OW25718   6.473   3.069   1.502 -0.0477 -0.2244  0.6294
 7759SOL    HW125719   6.417   2.994   1.523 -3.2756  2.4149  2.5670
 7759SOL    HW225720   6.424   3.118   1.436  1.0944  1.1010  0.7155
 7760SOL     OW25721   7.793   8.018   4.667  0.3954  0.1786  0.3893
 7760SOL    HW125722   7.887   8.028   4.685  1.0550 -0.1923 -2.3812
 7760SOL    HW225723   7.767   7.940   4.715  1.6255  0.0096  0.8105
 7761SOL     OW25724   5.254   3.909   0.626  0.0507 -0.4965  0.0599
 7761SOL    HW125725   5.254   3.980   0.562 -0.6434 -1.7434 -1.4013
 7761SOL    HW225726   5.288   3.948   0.706 -2.0207  1.9809 -0.1288
 7762SOL     OW25727  10.075   9.757   0.022 -0.5063  0.1260 -0.4158
 7762SOL    HW125728  10.150   9.706  -0.008  1.0440  0.5141  2.4300
 7762SOL    HW225729  10.030   9.699   0.083 -1.0937  0.7297 -0.2695
 7763SOL     OW25730   7.340   0.400   5.541 -0.9861 -0.3174 -0.4185
 7763SOL    HW125731   7.254   0.412   5.501 -1.5756 -1.2206  0.5140
 7763SOL    HW225732   7.357   0.306   5.533 -0.8567 -0.4279  0.8900
 7764SOL     OW25733   6.330   0.181   9.448  0.4111  0.2771 -0.3587
 7764SOL    HW125734   6.333   0.124   9.526  1.0781 -0.1811 -0.7099
 7764SOL    HW225735   6.384   0.256   9.472 -2.2641  1.9167  0.9584
 7765SOL     OW25736   5.502   9.286   9.822  0.3482  0.0326 -0.5820
 7765SOL    HW125737   5.431   9.251   9.769 -0.5804 -0.0081  0.6369
 7765SOL    HW225738   5.479   9.262   9.912  1.6112  0.5292 -0.0981
 7766SOL     OW25739   0.013   5.756   1.747  0.3081 -0.2090 -0.3227
 7766SOL    HW125740   0.106   5.732   1.751  0.3900  0.1833  0.2594
 7766SOL    HW225741  -0.007   5.759   1.654  0.4825 -1.7999 -0.4348
 7767SOL     OW25742   6.198   2.579   5.656  0.6251 -0.2700  0.8282
 7767SOL    HW125743   6.167   2.664   5.688  0.5147  0.5145 -1.2292
 7767SOL    HW225744   6.122   2.522   5.662  0.4656 -0.0096  1.4089
 7768SOL     OW25745   9.773   1.377   3.826  0.4929  0.1811 -0.3855
 7768SOL    HW125746   9.723   1.360   3.906 -0.1366  1.6001 -0.4402
 7768SOL    HW225747   9.864   1.386   3.856  0.4340 -0.4168 -0.0018
 7769SOL     OW25748   4.309   0.993   9.409  0.0629  0.5906 -0.2879
 7769SOL    HW125749   4.327   1.064   9.347 -0.9091  0.5330 -0.6496
 7769SOL    HW225750   4.294   0.916   9.353  0.0492  0.3383  0.0623
 7770SOL     OW25751   2.564   5.520   4.645 -0.5095  0.1374  0.6384
 7770SOL    HW125752   2.606   5.492   4.726 -0.2853  1.5014  1.0285
 7770SOL    HW225753   2.580   5.450   4.583  2.1298  0.4826  0.8405
 7771SOL     OW25754   9.389   0.388   8.317 -0.3997  0.4250 -0.3906
 7771SOL    HW125755   9.402   0.478   8.348  1.9914 -0.0743  0.2850
 7771SOL    HW225756   9.324   0.352   8.378  1.1916  0.7064  1.5858
 7772SOL     OW25757   4.156   0.767   3.478 -0.2079  0.3843  0.0303
 7772SOL    HW125758   4.179   0.683   3.519  0.6939  1.2383  1.3299
 7772SOL    HW225759   4.154   0.829   3.550  0.1388  1.6934 -1.0541
 7773SOL     OW25760   6.441   3.442   0.050 -0.0167  0.3534 -0.9732
 7773SOL    HW125761   6.380   3.370   0.041 -1.4112  1.5971 -1.9768
 7773SOL    HW225762   6.527   3.400   0.057 -0.9405 -1.4305  0.4965
 7774SOL     OW25763   0.662   1.470   7.167  0.0174 -0.1910 -0.1901
 7774SOL    HW125764   0.749   1.496   7.136 -0.7736 -0.0773 -2.4355
 7774SOL    HW225765   0.648   1.523   7.246  1.5062  0.6211 -0.4380
 7775SOL     OW25766   0.471   2.036   3.020  0.6210  0.2087  0.2587
 7775SOL    HW125767   0.553   2.030   3.070  0.5836  1.6835  0.5607
 7775SOL    HW225768   0.474   1.963   2.959  0.6557 -1.7290  2.4424
 7776SOL     OW25769   3.139   6.410   3.972 -0.1237 -0.7279  0.3401
 7776SOL    HW125770   3.151   6.394   3.879  0.7698 -2.2774  0.6717
 7776SOL    HW225771   3.044   6.406   3.985 -0.3749  1.0556 -0.7176
 7777SOL     OW25772   5.841   3.227  10.131  0.5613  0.2147  0.5529
 7777SOL    HW125773   5.899   3.193  10.199  0.5508  0.7649  0.8434
 7777SOL    HW225774   5.851   3.165  10.059  0.7229 -0.2687  0.9771
 7778SOL     OW25775   5.710   9.563   6.863  0.0462  0.3074  0.2095
 7778SOL    HW125776   5.623   9.601   6.876 -0.9156 -0.6410 -2.7427
 7778SOL    HW225777   5.768   9.638   6.852 -0.6300  0.9362  0.8182
 7779SOL     OW25778   0.083   4.870   0.961  0.3287  0.0818 -0.5273
 7779SOL    HW125779   0.081   4.859   1.056 -2.3200 -3.2426 -0.7617
 7779SOL    HW225780   0.152   4.811   0.931 -0.9211 -1.3232 -0.7574
 7780SOL     OW25781  10.230   2.288   1.924 -0.4206  0.2957  0.1567
 7780SOL    HW125782  10.302   2.306   1.863  0.6493 -1.4503  0.8398
 7780SOL    HW225783  10.263   2.315   2.010 -0.7857 -0.0557  0.4115
 7781SOL     OW25784   2.643   7.019   5.587  0.5868  0.8962  0.3436
 7781SOL    HW125785   2.574   7.084   5.593  0.4519  0.8126 -0.2437
 7781SOL    HW225786   2.608   6.950   5.531  1.0317  0.7066  0.2866
 7782SOL     OW25787   5.926   7.428   4.072  0.3319  0.6067  0.1303
 7782SOL    HW125788   5.878   7.486   4.130  0.0844  1.9691 -1.3656
 7782SOL    HW225789   5.894   7.449   3.984  1.6641 -0.4076 -0.6456
 7783SOL     OW25790   1.875   1.252   0.596  0.3798 -0.1769 -0.3470
 7783SOL    HW125791   1.882   1.159   0.575  0.4030 -0.1100 -0.6336
 7783SOL    HW225792   1.800   1.283   0.545  0.5439  0.0237 -0.4679
 7784SOL     OW25793   9.681   3.577   7.314 -0.0095  0.0377  0.1819
 7784SOL    HW125794   9.704   3.485   7.330 -0.3141  0.0825  0.9417
 7784SOL    HW225795   9.761   3.617   7.282  0.6297 -0.0911  1.5658
 7785SOL     OW25796   9.658   5.148   3.688 -0.3010  0.8016  0.2284
 7785SOL    HW125797   9.740   5.103   3.667 -1.2465 -1.3422  0.9176
 7785SOL    HW225798   9.656   5.223   3.628  1.4729  0.1017 -0.7883
 7786SOL     OW25799   4.231   6.236   6.262  0.6079  0.5488 -0.1740
 7786SOL    HW125800   4.225   6.288   6.342  0.9765 -0.9425  0.8592
 7786SOL    HW225801   4.191   6.152   6.284  2.1802 -0.4862 -1.0282
 7787SOL     OW25802   0.555   6.645   2.605  0.3020  0.0750  0.1059
 7787SOL    HW125803   0.646   6.676   2.599  1.5528 -3.2491 -0.6216
 7787SOL    HW225804   0.525   6.643   2.515  1.2823 -3.1662 -0.2714
 7788SOL     OW25805   5.356   7.036   4.708  0.0116 -0.1867 -0.1832
 7788SOL    HW125806   5.319   7.123   4.700 -1.6765 -1.0153 -2.2441
 7788SOL    HW225807   5.371   7.007   4.618  0.0929 -2.1960  0.4093
 7789SOL     OW25808   6.963   0.041   3.571 -0.1973  0.1144  0.0914
 7789SOL    HW125809   6.897  -0.009   3.524 -0.2426  0.1833  0.0830
 7789SOL    HW225810   6.928   0.050   3.660 -0.9799  1.5870 -0.3270
 7790SOL     OW25811   3.651   5.532   3.897 -0.1384 -0.0390  0.3890
 7790SOL    HW125812   3.671   5.622   3.871  2.0361 -0.6886 -0.3901
 7790SOL    HW225813   3.562   5.517   3.865 -0.1611  1.4965 -0.3553
 7791SOL     OW25814   6.918   7.831   0.417  0.0129 -0.1994 -0.2450
 7791SOL    HW125815   6.853   7.770   0.453 -0.1766  0.0172 -0.2217
 7791SOL    HW225816   6.948   7.789   0.337 -0.7713  0.0974 -0.7003
 7792SOL     OW25817   9.233   5.731   0.612  0.7099 -0.2492  0.4897
 7792SOL    HW125818   9.227   5.724   0.516 -2.7082  2.6825  0.3119
 7792SOL    HW225819   9.254   5.642   0.640 -1.3287 -2.0169 -2.8426
 7793SOL     OW25820   5.423   6.459   8.269 -0.1797  0.7023  0.3135
 7793SOL    HW125821   5.384   6.372   8.269 -0.0316  0.6250 -0.4839
 7793SOL    HW225822   5.503   6.450   8.320 -0.0120  0.2884 -0.0142
 7794SOL     OW25823   9.399   0.661  10.235  0.2273 -0.1319  0.1542
 7794SOL    HW125824   9.438   0.674  10.149  0.1321 -0.5394  0.0486
 7794SOL    HW225825   9.398   0.566  10.247 -1.6162 -0.2002 -0.2596
 7795SOL     OW25826   5.452   7.477   6.446  0.2612 -0.1553  0.2029
 7795SOL    HW125827   5.480   7.562   6.412 -1.6043  0.1049 -0.8383
 7795SOL    HW225828   5.425   7.428   6.369  2.3577 -2.1753  0.6529
 7796SOL     OW25829   2.352   4.728   5.831  0.6739  0.3488 -0.5315
 7796SOL    HW125830   2.308   4.645   5.814  0.6935  0.1828  0.1647
 7796SOL    HW225831   2.289   4.795   5.803 -0.2414  0.1208  0.8340
 7797SOL     OW25832   8.185   4.812   9.019 -0.6031  0.3810  0.1663
 7797SOL    HW125833   8.203   4.891   9.070 -0.0507  0.6582 -0.4493
 7797SOL    HW225834   8.270   4.770   9.008 -1.1831 -1.5873  2.5070
 7798SOL     OW25835   9.905   4.321   7.926  0.1276 -0.3150 -0.2935
 7798SOL    HW125836   9.939   4.247   7.975 -0.3313  0.5175  1.3592
 7798SOL    HW225837   9.810   4.317   7.938  0.1541  1.0341  0.6025
 7799SOL     OW25838   6.499   6.246   2.285 -0.3879 -0.2373 -0.0214
 7799SOL    HW125839   6.535   6.175   2.231  0.3786  0.1999 -0.1039
 7799SOL    HW225840   6.560   6.253   2.359  0.0343  0.9049 -0.4600
 7800SOL     OW25841   0.229  10.206   8.745  0.2173  0.2983 -0.4151
 7800SOL    HW125842   0.158  10.174   8.690 -0.5892  0.7554  0.3437
 7800SOL    HW225843   0.249  10.133   8.803 -2.6467  1.5293  2.3406
 7801SOL     OW25844   1.388   1.866   4.018 -0.2577 -0.2041 -0.6086
 7801SOL    HW125845   1.389   1.810   3.940 -0.0443 -1.3114  0.1669
 7801SOL    HW225846   1.443   1.820   4.081  0.7121  1.3602 -0.2401
 7802SOL     OW25847   5.054   7.233   7.071  0.1129 -0.1370 -0.0425
 7802SOL    HW125848   4.995   7.238   6.996 -0.2358  1.4016  0.2835
 7802SOL    HW225849   5.043   7.145   7.105 -1.9665  0.0825 -0.0296
 7803SOL     OW25850   8.604   3.489   3.068 -0.3299  0.8278  0.0296
 7803SOL    HW125851   8.651   3.557   3.021  0.3684 -0.4874 -1.2537
 7803SOL    HW225852   8.661   3.413   3.064 -1.1537  0.1010  1.2915
 7804SOL     OW25853   9.544   7.745   7.087 -0.4135  0.1948 -0.3402
 7804SOL    HW125854   9.562   7.837   7.066 -0.8926  0.0361 -1.5237
 7804SOL    HW225855   9.459   7.747   7.132 -1.2448  0.2033 -1.8389
 7805SOL     OW25856   7.457   0.801   9.126  0.5259  0.0944 -0.0135
 7805SOL    HW125857   7.449   0.815   9.031 -0.0064  0.2622  0.0543
 7805SOL    HW225858   7.535   0.849   9.151 -0.0369  1.1046 -0.1588
 7806SOL     OW25859   1.926   8.660   4.724 -0.6912 -0.0348  0.3422
 7806SOL    HW125860   1.879   8.676   4.642 -0.6827 -1.6648 -0.0017
 7806SOL    HW225861   1.860   8.624   4.782 -0.1984 -0.9594  0.3323
 7807SOL     OW25862   8.498   6.440   0.704 -0.0868  0.1920  0.1480
 7807SOL    HW125863   8.490   6.347   0.723 -0.6942 -0.0449 -1.1845
 7807SOL    HW225864   8.591   6.455   0.689  0.0537 -0.1244  0.6924
 7808SOL     OW25865   6.211   9.116   8.201  0.4334 -0.1767 -0.3734
 7808SOL    HW125866   6.232   9.206   8.180 -0.6358  0.2102  0.1302
 7808SOL    HW225867   6.161   9.122   8.283  0.7993 -1.2641 -0.0534
 7809SOL     OW25868   1.815   0.725   8.871 -0.6274  0.2744 -0.1268
 7809SOL    HW125869   1.847   0.636   8.858 -1.9019 -0.3684  0.9089
 7809SOL    HW225870   1.879   0.781   8.825  0.4616 -1.1182 -0.3612
 7810SOL     OW25871   5.576   5.800   2.324  0.5273 -0.3393  0.0406
 7810SOL    HW125872   5.575   5.721   2.377  1.0506  0.5798  1.4743
 7810SOL    HW225873   5.488   5.837   2.336 -0.3956 -1.5909 -2.1277
 7811SOL     OW25874   5.944   5.267   3.474 -0.1230  0.3943  0.1350
 7811SOL    HW125875   5.976   5.187   3.433 -0.2247  0.7881 -0.7373
 7811SOL    HW225876   5.849   5.255   3.477 -0.0575 -0.0115  1.0949
 7812SOL     OW25877   4.302   3.588   1.127 -0.1140 -0.6525 -0.3627
 7812SOL    HW125878   4.301   3.516   1.190  2.8203 -1.1872 -0.7677
 7812SOL    HW225879   4.309   3.546   1.041  2.8426 -0.0334 -0.5455
 7813SOL     OW25880   3.574   4.390   0.956  0.2666  0.7948  0.0045
 7813SOL    HW125881   3.502   4.451   0.970 -0.3857 -0.5151  3.1290
 7813SOL    HW225882   3.602   4.365   1.044  1.1603 -2.6496 -1.1119
 7814SOL     OW25883   7.968   3.850   5.195 -0.0137  0.0057 -0.2157
 7814SOL    HW125884   8.018   3.775   5.227  0.9475  0.2098 -1.1710
 7814SOL    HW225885   7.969   3.912   5.268  1.8935  0.3509 -0.4926
 7815SOL     OW25886   7.081   4.991   3.253 -0.1205 -0.0087  0.1817
 7815SOL    HW125887   7.044   5.072   3.289  1.1105  2.1160 -2.8014
 7815SOL    HW225888   7.162   4.978   3.302 -0.6121  0.2424  1.0717
 7816SOL     OW25889   8.231   9.246   9.160 -0.2268 -0.3405  0.2644
 7816SOL    HW125890   8.137   9.257   9.146 -0.0900  0.6193  0.0786
 7816SOL    HW225891   8.238   9.158   9.199 -1.1452 -0.6277 -0.1683
 7817SOL     OW25892   2.321   9.771   3.296 -0.1409 -0.6197 -0.1008
 7817SOL    HW125893   2.321   9.694   3.238  0.7084  0.2029 -1.2368
 7817SOL    HW225894   2.235   9.811   3.282  0.0118 -0.4907 -0.7232
 7818SOL     OW25895   1.129   7.151  10.280 -0.1783 -0.1783 -0.0085
 7818SOL    HW125896   1.153   7.217  10.345  2.5904 -1.4127  0.3759
 7818SOL    HW225897   1.160   7.186  10.197  0.5255 -0.6025  0.0683
 7819SOL     OW25898   3.814   1.347   1.282 -0.2948 -0.4197 -0.3592
 7819SOL    HW125899   3.844   1.315   1.197 -1.9073 -1.1092 -0.7216
 7819SOL    HW225900   3.720   1.326   1.283 -0.5155  0.4950  1.1773
 7820SOL     OW25901   3.685   2.690   9.522  0.2314  0.3336 -0.3651
 7820SOL    HW125902   3.681   2.595   9.535  1.4113  0.1639 -1.1026
 7820SOL    HW225903   3.677   2.727   9.610 -1.5009 -0.3817 -0.1814
 7821SOL     OW25904   8.885   8.018   3.532  0.3534  0.0228  0.1752
 7821SOL    HW125905   8.857   7.988   3.619 -0.5423  2.1585  0.6819
 7821SOL    HW225906   8.821   7.980   3.472  0.7442 -1.1435  0.4677
 7822SOL     OW25907  10.097   1.520   9.900 -0.1902 -0.5787  0.1916
 7822SOL    HW125908  10.190   1.504   9.883 -0.4015 -1.5125 -0.1157
 7822SOL    HW225909  10.056   1.514   9.814 -0.8306 -2.2368  0.5939
 7823SOL     OW25910   1.746   9.295   6.940  0.2426  0.0670  0.2846
 7823SOL    HW125911   1.662   9.268   6.975 -1.3048  1.9377 -1.7045
 7823SOL    HW225912   1.802   9.218   6.949 -1.5971 -1.1774  1.8125
 7824SOL     OW25913   8.707   8.828   2.491 -0.6254  0.4932  0.1992
 7824SOL    HW125914   8.632   8.785   2.451 -1.4610  0.8398  1.3477
 7824SOL    HW225915   8.676   8.856   2.577  1.4685 -1.4720  1.7460
 7825SOL     OW25916   1.347   9.793   7.220  0.1457 -0.5751 -0.0004
 7825SOL    HW125917   1.331   9.785   7.126 -0.6840 -0.9702  0.1615
 7825SOL    HW225918   1.271   9.841   7.253  0.1050 -1.0149  0.5626
 7826SOL     OW25919  10.256   2.936   7.449  0.4338 -0.5378 -0.2634
 7826SOL    HW125920  10.351   2.924   7.460  0.6256  1.5308  0.8381
 7826SOL    HW225921  10.248   3.017   7.399 -0.7792 -1.0346 -0.9163
 7827SOL     OW25922   2.952   1.450   8.437  0.0814  0.4922 -0.2441
 7827SOL    HW125923   3.039   1.480   8.465  0.4582 -0.9821  0.2992
 7827SOL    HW225924   2.916   1.405   8.514 -0.6764  0.0925 -0.8132
 7828SOL     OW25925   1.128   2.510   5.531 -0.2497 -0.5936 -0.2401
 7828SOL    HW125926   1.155   2.516   5.622  2.0277  2.0165 -0.9552
 7828SOL    HW225927   1.208   2.526   5.481 -1.6876 -0.5512 -2.6927
 7829SOL     OW25928   8.761   7.272   2.432  0.3758  0.0589  0.2299
 7829SOL    HW125929   8.723   7.216   2.365  0.4217 -0.7680  0.8735
 7829SOL    HW225930   8.853   7.281   2.406  0.8659 -1.7976  1.1254
 7830SOL     OW25931   2.026  10.170   7.356  0.1509  0.2253  0.5104
 7830SOL    HW125932   2.029  10.196   7.448 -1.2642  1.5343  0.2279
 7830SOL    HW225933   1.995  10.079   7.358 -0.8791  0.5738  1.3023
 7831SOL     OW25934   1.008   0.328   4.191 -0.0967 -0.5604 -0.0850
 7831SOL    HW125935   1.045   0.383   4.260  1.1267 -0.0348 -1.1247
 7831SOL    HW225936   0.960   0.389   4.135  1.3655 -0.4602 -1.3118
 7832SOL     OW25937   7.010   9.185   9.175 -0.3256  0.0510 -0.1348
 7832SOL    HW125938   6.916   9.168   9.175 -0.1119 -1.2179 -0.4722
 7832SOL    HW225939   7.050   9.098   9.172  0.8513  0.6008 -1.2788
 7833SOL     OW25940   1.568   3.725   6.150 -0.5777  0.4509 -0.4995
 7833SOL    HW125941   1.545   3.645   6.103 -1.5906  0.0698  0.6111
 7833SOL    HW225942   1.515   3.723   6.230  2.3443  0.1636  1.6084
 7834SOL     OW25943   9.183   8.335   2.570 -0.4040 -0.3253 -0.1940
 7834SOL    HW125944   9.127   8.408   2.544 -0.2135 -0.5386 -1.2570
 7834SOL    HW225945   9.232   8.368   2.645 -1.0600  0.2837 -0.0228
 7835SOL     OW25946   6.962   6.423   9.164  0.0059 -0.2107 -0.4518
 7835SOL    HW125947   7.022   6.348   9.159 -0.9148 -0.8932 -2.4212
 7835SOL    HW225948   6.992   6.482   9.095 -1.5571 -0.5878 -1.5024
 7836SOL     OW25949   2.657   9.056   0.534  0.2338  0.0182 -0.0307
 7836SOL    HW125950   2.737   9.008   0.556  0.9827  0.9569 -0.5992
 7836SOL    HW225951   2.637   9.030   0.445  2.2112  2.6646 -1.4152
 7837SOL     OW25952   2.189   7.741   7.618 -0.1042  0.2322 -0.4840
 7837SOL    HW125953   2.143   7.719   7.537  0.6530  1.5442 -1.3116
 7837SOL    HW225954   2.281   7.721   7.599  0.2845  1.8702 -0.5015
 7838SOL     OW25955   0.005   1.375   7.449  0.3795 -0.4245 -0.1661
 7838SOL    HW125956   0.080   1.321   7.425  0.8005  0.5116 -1.0255
 7838SOL    HW225957  -0.023   1.415   7.367  0.6978  1.4415  0.5756
 7839SOL     OW25958   1.049   4.597   9.235 -0.4811  0.5644  1.0822
 7839SOL    HW125959   1.052   4.661   9.164  3.0208  1.4838  1.8587
 7839SOL    HW225960   0.973   4.623   9.287 -2.4574  0.5447 -1.6208
 7840SOL     OW25961   5.908   2.909   2.931 -0.5695 -0.2316 -0.3289
 7840SOL    HW125962   5.963   2.980   2.965 -0.7422 -1.0248  1.7154
 7840SOL    HW225963   5.943   2.830   2.971 -1.7620 -1.0293 -0.8126
 7841SOL     OW25964   9.883   1.568   0.118 -0.5530 -0.3687  0.6585
 7841SOL    HW125965   9.858   1.535   0.032 -0.1766  0.8537  0.0499
 7841SOL    HW225966   9.919   1.492   0.164 -0.2930 -0.9358 -0.4480
 7842SOL     OW25967   1.335   0.110   3.431  0.1225  0.3825 -0.1374
 7842SOL    HW125968   1.273   0.112   3.359  0.3629  3.2153 -0.3668
 7842SOL    HW225969   1.398   0.179   3.411  2.4792 -1.3256  0.8880
 7843SOL     OW25970   5.426   4.812   6.820  0.7745  0.3311 -0.2360
 7843SOL    HW125971   5.519   4.835   6.819  0.8829 -0.0949  0.0048
 7843SOL    HW225972   5.424   4.717   6.814  0.4612  0.0877  2.5414
 7844SOL     OW25973   2.950   2.645   5.051  0.3976 -0.3102 -0.1966
 7844SOL    HW125974   3.008   2.678   5.120 -2.1921 -1.4609  2.7699
 7844SOL    HW225975   2.920   2.724   5.005  0.8895  0.6759  1.1168
 7845SOL     OW25976   0.107   5.689   4.666 -0.4314  0.4874 -0.2700
 7845SOL    HW125977   0.190   5.728   4.639 -0.4109  0.1973 -0.6316
 7845SOL    HW225978   0.045   5.716   4.598  0.0658 -1.9861 -1.8141
 7846SOL     OW25979   3.413  10.211   6.113  0.3127 -0.0404  0.1625
 7846SOL    HW125980   3.339  10.272   6.118  0.2206 -0.0635 -0.6891
 7846SOL    HW225981   3.448  10.208   6.202 -1.6444 -1.1922  0.9605
 7847SOL     OW25982   7.678   6.598   6.277  0.2239  0.4894 -0.0684
 7847SOL    HW125983   7.702   6.679   6.321 -0.6743  1.0277 -0.5542
 7847SOL    HW225984   7.645   6.624   6.191  0.5807 -0.4408 -0.5073
 7848SOL     OW25985   2.988   5.975   5.275 -0.1747  0.8812  0.0110
 7848SOL    HW125986   3.066   5.964   5.330 -1.0474  1.8260  1.5179
 7848SOL    HW225987   3.021   6.014   5.194  0.8186  2.1512  0.9957
 7849SOL     OW25988   3.888   8.732   8.447  0.0574 -0.3351 -0.2987
 7849SOL    HW125989   3.975   8.697   8.429 -0.3717 -1.5622 -0.1168
 7849SOL    HW225990   3.901   8.791   8.521  0.6367 -1.0302  0.1689
 7850SOL     OW25991   9.928   9.318   5.507 -0.2322  0.1566 -0.3792
 7850SOL    HW125992   9.973   9.237   5.483 -0.0880  0.2617 -0.4698
 7850SOL    HW225993   9.844   9.313   5.462 -1.0911 -0.8851  1.2505
 7851SOL     OW25994   5.104   2.868  10.195  0.1125  0.1076 -0.1531
 7851SOL    HW125995   5.112   2.811  10.272  0.6652 -0.3349 -0.5329
 7851SOL    HW225996   5.179   2.926  10.200 -0.0184  0.2818 -0.1985
 7852SOL     OW25997   0.239   8.023   3.730 -0.3585  0.0590  0.4252
 7852SOL    HW125998   0.292   8.101   3.742  2.1463 -1.5368  0.5663
 7852SOL    HW225999   0.164   8.052   3.678  0.8660  2.3681 -0.1794
 7853SOL     OW26000   9.790   4.651   1.957  0.1518  0.3241  0.0980
 7853SOL    HW126001   9.821   4.679   2.043 -1.2781 -0.3390  0.8664
 7853SOL    HW226002   9.703   4.690   1.949  0.3142  0.4882 -1.1252
 7854SOL     OW26003   7.783   5.967   2.548  0.3911 -0.4503 -0.2187
 7854SOL    HW126004   7.834   6.001   2.622  1.2291  2.3240 -1.9297
 7854SOL    HW226005   7.703   5.933   2.588  0.4272  1.7331  1.9489
 7855SOL     OW26006   0.570   5.309   3.479 -0.1552  0.4552  0.0343
 7855SOL    HW126007   0.547   5.397   3.509  0.2369  0.0411  1.6465
 7855SOL    HW226008   0.665   5.310   3.474 -0.1622  0.1775 -0.1422
 7856SOL     OW26009   7.636   2.583   3.431  0.0754  0.1317  0.1284
 7856SOL    HW126010   7.607   2.517   3.368  0.1779  1.3981 -1.2998
 7856SOL    HW226011   7.728   2.561   3.448 -0.4775 -1.3867  1.4150
 7857SOL     OW26012   6.962   4.896   5.628  0.7438 -0.8696  0.8863
 7857SOL    HW126013   6.896   4.943   5.576  1.9307 -0.0518  0.0599
 7857SOL    HW226014   6.944   4.804   5.612 -0.9582 -0.7094  1.6638
 7858SOL     OW26015   0.118   8.186   4.803 -0.0326  0.0603 -0.4373
 7858SOL    HW126016   0.195   8.154   4.757  0.8881  0.4788  0.7557
 7858SOL    HW226017   0.052   8.119   4.788  0.6413 -0.4514 -1.2411
 7859SOL     OW26018   0.546   1.653   8.145  0.2999 -0.0944  0.1694
 7859SOL    HW126019   0.620   1.624   8.092  0.1683 -2.2921  1.0944
 7859SOL    HW226020   0.565   1.620   8.233 -1.2622  0.2200  0.6517
 7860SOL     OW26021   1.250   0.106   5.762  0.2444  0.4747  0.4111
 7860SOL    HW126022   1.291   0.164   5.697 -0.1251 -1.3096 -1.5383
 7860SOL    HW226023   1.313   0.036   5.775 -0.7543 -0.5427 -0.0655
 7861SOL     OW26024  10.308   9.971   0.068  0.3041  0.8150 -0.5196
 7861SOL    HW126025  10.297   9.925  -0.015  0.7390  2.1921 -1.3700
 7861SOL    HW226026  10.227   9.956   0.115  0.2185 -0.3324 -1.0129
 7862SOL     OW26027   9.923   4.739   9.602  0.3029  0.2210  0.2261
 7862SOL    HW126028  10.001   4.792   9.621 -0.8129  1.2415  2.3054
 7862SOL    HW226029   9.921   4.673   9.671 -0.2737 -0.2840 -0.2594
 7863SOL     OW26030   7.191   2.408   6.183 -0.2189 -0.2757 -0.0546
 7863SOL    HW126031   7.269   2.434   6.134  1.0342 -0.3416  1.8355
 7863SOL    HW226032   7.194   2.460   6.263 -1.7705 -0.7741  0.3594
 7864SOL     OW26033   0.524   8.456   7.616 -0.2882  0.6630  0.0441
 7864SOL    HW126034   0.598   8.404   7.585  1.4423  2.5736  0.7621
 7864SOL    HW226035   0.462   8.392   7.650  1.2367 -0.9792 -0.1466
 7865SOL     OW26036   9.766   6.712   3.010 -0.7365  0.0657  0.0515
 7865SOL    HW126037   9.714   6.741   2.936 -0.1211  0.0620 -0.3892
 7865SOL    HW226038   9.767   6.616   3.003 -0.1440  0.0907 -0.3186
 7866SOL     OW26039   2.462   9.171   0.662  0.1866 -0.1754 -0.3637
 7866SOL    HW126040   2.421   9.100   0.712  0.0446 -0.9939 -1.6084
 7866SOL    HW226041   2.532   9.128   0.612  1.0332  0.8092 -0.0681
 7867SOL     OW26042   6.279   2.560   1.700  0.1211 -0.2324 -0.5143
 7867SOL    HW126043   6.308   2.504   1.772 -1.7046 -1.4295 -0.6546
 7867SOL    HW226044   6.285   2.649   1.734 -0.1607 -0.7413  0.9082
 7868SOL     OW26045   4.130   1.399   2.454  0.0743 -0.0851 -0.1512
 7868SOL    HW126046   4.190   1.334   2.415  0.6993 -0.1561  0.9067
 7868SOL    HW226047   4.167   1.418   2.540 -1.8440 -0.7177  0.8736
 7869SOL     OW26048  10.344   4.108   8.688 -0.1828  0.3526 -0.5604
 7869SOL    HW126049  10.392   4.190   8.676 -0.1900  0.5130  0.4162
 7869SOL    HW226050  10.386   4.067   8.764 -2.0538  0.8461  0.7912
 7870SOL     OW26051   2.455   2.763   2.821 -0.3763 -0.5489  0.3875
 7870SOL    HW126052   2.529   2.704   2.835 -0.9393 -1.2591  0.4543
 7870SOL    HW226053   2.490   2.851   2.835  0.1583 -0.9522  1.6832
 7871SOL     OW26054   7.128   9.820   0.279 -0.0494  0.3804 -0.4735
 7871SOL    HW126055   7.074   9.811   0.200 -1.0429 -1.0519  0.3296
 7871SOL    HW226056   7.067   9.804   0.351  1.6544 -2.6511  0.4519
 7872SOL     OW26057   7.467   7.978   5.945 -0.3231  0.0934  0.6309
 7872SOL    HW126058   7.476   7.887   5.918 -1.9949  0.0393  0.1271
 7872SOL    HW226059   7.379   7.984   5.982 -2.0616  2.3276 -3.2358
 7873SOL     OW26060   2.921   0.029   0.808  0.5284  0.4803  0.0766
 7873SOL    HW126061   3.003   0.002   0.849  1.2061  0.1118 -1.4121
 7873SOL    HW226062   2.882   0.091   0.868  1.1862 -0.4405  1.4969
 7874SOL     OW26063  10.179   9.635   5.470 -0.9630  0.3245 -0.2452
 7874SOL    HW126064  10.132   9.701   5.522 -0.9409  0.2360 -0.1099
 7874SOL    HW226065  10.238   9.594   5.533 -2.0420 -0.8622  0.0383
 7875SOL     OW26066   6.606  10.346   0.896  0.0600  1.0450 -0.4102
 7875SOL    HW126067   6.648  10.336   0.810  1.0735  0.4206  0.1327
 7875SOL    HW226068   6.515  10.320   0.881  0.7846 -1.5538 -0.8074
 7876SOL     OW26069   8.941   5.127   7.785  0.4536  0.3898  0.1385
 7876SOL    HW126070   8.961   5.155   7.695  0.6954 -0.7505 -0.1763
 7876SOL    HW226071   8.857   5.082   7.777  0.2339  0.7153  0.5796
 7877SOL     OW26072   7.553   7.582   7.492 -0.1982  0.4752  0.3696
 7877SOL    HW126073   7.488   7.652   7.498  1.5258  2.1571  0.6967
 7877SOL    HW226074   7.554   7.558   7.400  0.9890  2.8322 -0.3262
 7878SOL     OW26075   2.154   7.353   6.806  0.0985  0.0888  0.0736
 7878SOL    HW126076   2.214   7.356   6.881  0.0145  1.0724  0.1151
 7878SOL    HW226077   2.196   7.408   6.740 -1.0427  1.3276  0.3355
 7879SOL     OW26078   4.853   7.443   8.474  0.0234  0.0204  0.3173
 7879SOL    HW126079   4.883   7.532   8.495 -0.0078  0.0714  0.1494
 7879SOL    HW226080   4.860   7.438   8.379 -1.3897  0.3621  0.1789
 7880SOL     OW26081   0.299   3.282   4.506  0.0268  0.4172 -0.4200
 7880SOL    HW126082   0.206   3.261   4.505 -0.1031  0.5815 -3.9048
 7880SOL    HW226083   0.304   3.370   4.468  1.5730  0.7308  0.4323
 7881SOL     OW26084   0.148   0.090   7.729 -0.0979 -0.4672  0.2457
 7881SOL    HW126085   0.123   0.145   7.803 -1.1002  0.8670 -1.0113
 7881SOL    HW226086   0.132   0.001   7.758 -0.1708  0.0076  1.7347
 7882SOL     OW26087   2.510   7.514   4.637  0.6649  0.5995  0.6107
 7882SOL    HW126088   2.510   7.573   4.562  1.1806  1.8399  1.5487
 7882SOL    HW226089   2.448   7.445   4.614  1.4754  0.4446 -1.3155
 7883SOL     OW26090   0.291   3.875   4.891 -0.1528  0.1438 -0.1460
 7883SOL    HW126091   0.338   3.934   4.950  1.4625 -1.5173  0.3116
 7883SOL    HW226092   0.352   3.861   4.818 -1.0129  0.0169 -0.8462
 7884SOL     OW26093   9.457   9.783   6.431 -0.2678  0.0212 -0.1374
 7884SOL    HW126094   9.449   9.764   6.524 -0.6115  1.3456  0.1303
 7884SOL    HW226095   9.401   9.720   6.387  1.7888 -2.2698  0.3124
 7885SOL     OW26096   9.307   7.421   0.652  0.7663 -0.6016 -0.1550
 7885SOL    HW126097   9.217   7.397   0.676  0.3703  0.1249 -0.8680
 7885SOL    HW226098   9.305   7.516   0.644  1.7708 -0.5218  0.4741
 7886SOL     OW26099   8.826   8.245   0.110 -0.0914 -0.0542  0.2289
 7886SOL    HW126100   8.914   8.214   0.090  0.6126  1.4004  0.9184
 7886SOL    HW226101   8.820   8.238   0.205 -0.6927 -0.0407  0.1933
 7887SOL     OW26102   7.433   6.513   5.749 -0.2003  0.1931 -0.0663
 7887SOL    HW126103   7.522   6.546   5.741  0.1011 -0.8752 -1.6162
 7887SOL    HW226104   7.405   6.539   5.837  2.4101 -1.2771  1.3391
 7888SOL     OW26105   9.898   3.092   4.122 -0.1207  0.8486  1.1923
 7888SOL    HW126106   9.929   3.177   4.152 -0.6273  0.5410  2.6772
 7888SOL    HW226107   9.815   3.111   4.078  0.6701  1.3163 -0.1580
 7889SOL     OW26108   0.710   9.649   9.542 -0.2159  0.0613  0.2440
 7889SOL    HW126109   0.797   9.610   9.549 -1.2552 -2.2323  1.6168
 7889SOL    HW226110   0.689   9.677   9.631 -0.0823  2.6519 -0.4562
 7890SOL     OW26111   5.955   6.788   6.267  0.4064 -0.5464  0.0976
 7890SOL    HW126112   5.909   6.841   6.202  1.3063 -1.5330 -1.4078
 7890SOL    HW226113   6.026   6.844   6.298  0.3717 -0.3027 -0.2596
 7891SOL     OW26114   0.260   6.420   1.925  0.1742  0.0796  0.6232
 7891SOL    HW126115   0.208   6.500   1.930  0.3725  0.2245  0.4260
 7891SOL    HW226116   0.340   6.447   1.878 -0.7527 -0.7546 -1.5302
 7892SOL     OW26117   8.514   7.103   1.419 -0.6686  0.2148 -0.1312
 7892SOL    HW126118   8.477   7.185   1.452 -0.5735  0.6580 -1.0799
 7892SOL    HW226119   8.439   7.055   1.384 -0.6460  0.1537 -0.0946
 7893SOL     OW26120   3.886   9.422   4.881  0.0511 -0.0347  0.0955
 7893SOL    HW126121   3.807   9.440   4.830 -0.4731  0.2917  0.9877
 7893SOL    HW226122   3.856   9.367   4.953  1.1029 -2.0498 -0.9237
 7894SOL     OW26123   4.420   8.213   9.835  0.1375 -0.3509  0.1160
 7894SOL    HW126124   4.473   8.134   9.840 -1.0803 -1.2035  0.0069
 7894SOL    HW226125   4.368   8.202   9.756  1.1264  1.3536 -0.8368
 7895SOL     OW26126   1.931   4.372   4.064 -0.3199 -0.3590  0.3468
 7895SOL    HW126127   2.017   4.333   4.048  0.0709  0.7386 -0.2964
 7895SOL    HW226128   1.869   4.303   4.038  0.3527 -0.4075 -1.2736
 7896SOL     OW26129   4.343   8.356  10.042 -0.5664  0.7413 -0.1082
 7896SOL    HW126130   4.343   8.280  10.100 -0.2354  1.6116  1.0736
 7896SOL    HW226131   4.358   8.320   9.954 -1.6477 -0.6646  0.2520
 7897SOL     OW26132   1.576   5.245   0.599  0.2071 -0.4311 -0.0044
 7897SOL    HW126133   1.592   5.301   0.523  0.7901  1.5495  1.4759
 7897SOL    HW226134   1.488   5.269   0.628 -0.2345 -1.5816 -0.3523
 7898SOL     OW26135   1.752   4.079   4.788  0.0024 -0.0058 -0.0464
 7898SOL    HW126136   1.745   4.159   4.839 -0.4659 -2.2148  3.7052
 7898SOL    HW226137   1.665   4.038   4.795  1.0221 -2.1855  0.6928
 7899SOL     OW26138   7.135   8.390   3.274  0.0069 -0.2163  0.3673
 7899SOL    HW126139   7.171   8.303   3.255 -0.3446 -0.2755 -0.0372
 7899SOL    HW226140   7.046   8.387   3.240  0.8150  1.1621 -2.1128
 7900SOL     OW26141   6.709   9.522   4.627 -0.3170  0.1072  0.1903
 7900SOL    HW126142   6.651   9.581   4.577 -0.7532  0.0142  0.5727
 7900SOL    HW226143   6.657   9.499   4.705  1.0846  1.8886  1.7523
 7901SOL     OW26144   3.903   4.821   2.956  0.3898 -0.2263 -0.7495
 7901SOL    HW126145   3.824   4.861   2.992 -1.0548 -2.6419 -1.0458
 7901SOL    HW226146   3.973   4.851   3.014 -0.5712  2.5089 -0.8771
 7902SOL     OW26147   8.650   4.382   7.277  0.1016 -0.3457 -0.4467
 7902SOL    HW126148   8.557   4.362   7.277 -0.0494  0.1880  0.9984
 7902SOL    HW226149   8.654   4.475   7.300  1.0114 -0.6597  0.7727
 7903SOL     OW26150   5.271   1.722   9.679  0.2706  0.2323 -0.2346
 7903SOL    HW126151   5.199   1.755   9.731 -1.8383 -0.8350 -2.2468
 7903SOL    HW226152   5.272   1.628   9.697  0.7790  0.1503 -0.6588
 7904SOL     OW26153   9.556   8.802   2.483 -0.0297  0.2871 -0.1939
 7904SOL    HW126154   9.612   8.809   2.406 -1.1649  0.9922 -0.9823
 7904SOL    HW226155   9.524   8.890   2.499 -1.5046 -0.2110 -0.2281
 7905SOL     OW26156   7.690   3.561   3.422  0.8842  0.2789  0.2387
 7905SOL    HW126157   7.720   3.546   3.512  0.2505  0.9554  0.5706
 7905SOL    HW226158   7.691   3.474   3.382 -0.4477 -0.3227  1.4131
 7906SOL     OW26159   5.218   6.717   4.557  0.1423 -0.4490  0.2257
 7906SOL    HW126160   5.175   6.738   4.640 -1.5362 -0.0012 -0.6994
 7906SOL    HW226161   5.189   6.786   4.497  1.5581 -0.5979 -0.6727
 7907SOL     OW26162   1.646   4.233   1.944 -0.2148 -0.3065 -0.2253
 7907SOL    HW126163   1.690   4.300   1.891 -2.6178 -0.3483 -2.5052
 7907SOL    HW226164   1.599   4.283   2.011  0.6628 -0.0204  0.1925
 7908SOL     OW26165   8.668   2.791   2.120  0.0082 -0.0929  0.4520
 7908SOL    HW126166   8.636   2.708   2.086  1.5961  0.7221 -3.5235
 7908SOL    HW226167   8.759   2.774   2.144  1.2544  0.9070 -3.0002
 7909SOL     OW26168   8.001   7.638   2.985 -0.7446  0.4607 -0.2568
 7909SOL    HW126169   8.001   7.718   2.933 -0.5492  0.6068 -0.0336
 7909SOL    HW226170   8.005   7.668   3.076  3.1042  0.2007 -0.2013
 7910SOL     OW26171   7.775   3.601   8.070  0.4128 -0.2786 -0.0678
 7910SOL    HW126172   7.750   3.662   8.001  0.2109 -1.3935 -1.0066
 7910SOL    HW226173   7.848   3.645   8.115  1.1826  0.0756 -1.5843
 7911SOL     OW26174   8.187   4.048   0.761 -0.0178 -0.3357 -0.6447
 7911SOL    HW126175   8.183   4.143   0.762  0.6304 -0.3062 -0.1368
 7911SOL    HW226176   8.263   4.027   0.707  1.5258 -0.4660  1.4356
 7912SOL     OW26177   1.734   8.924   7.969  0.0574  0.1111 -0.0577
 7912SOL    HW126178   1.789   8.876   7.906 -0.2008  3.6097 -3.3086
 7912SOL    HW226179   1.645   8.897   7.948  0.0709 -0.1419  0.1945
 7913SOL     OW26180   0.093   8.227   5.076  0.0210 -0.2437  0.1635
 7913SOL    HW126181   0.120   8.258   4.989  1.0630  3.3052  1.5417
 7913SOL    HW226182   0.146   8.149   5.091  0.9958 -0.0244 -1.7691
 7914SOL     OW26183  10.272   4.206   2.452  0.4240 -0.6748  0.6788
 7914SOL    HW126184  10.327   4.219   2.529 -0.7679  2.3680  1.1452
 7914SOL    HW226185  10.187   4.180   2.487 -0.2785  1.2484  0.4966
 7915SOL     OW26186   9.811   3.540   2.949 -0.2785  0.2489  0.5710
 7915SOL    HW126187   9.881   3.504   2.895  0.5667  1.1105  1.0800
 7915SOL    HW226188   9.806   3.633   2.925 -0.1032  0.5788  1.7233
 7916SOL     OW26189   6.743   0.662   6.012  0.4513  0.0095 -0.2877
 7916SOL    HW126190   6.694   0.593   5.968  1.0764  0.2094 -1.3377
 7916SOL    HW226191   6.753   0.632   6.102  0.6462 -1.2352 -0.7083
 7917SOL     OW26192   1.195   6.107   5.658  0.2193  0.0253 -0.0485
 7917SOL    HW126193   1.125   6.145   5.604  1.3269 -0.5623 -1.9821
 7917SOL    HW226194   1.273   6.157   5.634  0.3357  1.5582  3.0291
 7918SOL     OW26195   7.046   1.130   2.952 -0.2781  0.1079  0.1040
 7918SOL    HW126196   7.081   1.043   2.969 -0.0759 -0.3755 -2.3419
 7918SOL    HW226197   6.959   1.129   2.991 -0.2893 -1.2052  0.1018
 7919SOL     OW26198  10.306   1.714   8.552 -0.2261 -0.3924  0.2595
 7919SOL    HW126199  10.286   1.627   8.584  0.0582 -1.5683 -2.4598
 7919SOL    HW226200  10.401   1.715   8.542 -0.2275  0.2242  0.2260
 7920SOL     OW26201   6.848   7.232   7.061 -0.4196 -0.0995 -0.0269
 7920SOL    HW126202   6.908   7.306   7.050  0.9803 -1.0441  0.9478
 7920SOL    HW226203   6.787   7.260   7.128  0.3364  0.0456  0.6135
 7921SOL     OW26204   6.252   7.545   3.599 -0.6768  0.0686  0.0604
 7921SOL    HW126205   6.216   7.633   3.612  1.8716  1.0145  1.4468
 7921SOL    HW226206   6.236   7.500   3.682 -0.4275 -0.1568 -0.0111
 7922SOL     OW26207   8.195   0.250  10.235  0.1850  0.4486 -0.3707
 7922SOL    HW126208   8.254   0.269  10.162  0.0081 -0.4810 -0.7704
 7922SOL    HW226209   8.254   0.233  10.309  0.4051  0.2573 -0.5860
 7923SOL     OW26210   6.868   7.750   2.740 -0.5661  0.3655 -0.0496
 7923SOL    HW126211   6.805   7.760   2.811 -0.6001 -1.2674  0.1982
 7923SOL    HW226212   6.942   7.806   2.765 -0.5105 -0.2880  1.3746
 7924SOL     OW26213   3.917   8.835   3.715 -0.1770  0.2150  0.9175
 7924SOL    HW126214   3.969   8.841   3.795  0.5708  1.2686  0.3624
 7924SOL    HW226215   3.981   8.817   3.646 -0.7735 -0.3205  0.4963
 7925SOL     OW26216   2.103   4.499   9.104  0.2923 -0.4041  0.2001
 7925SOL    HW126217   2.050   4.481   9.027 -3.1728 -0.7589  2.4443
 7925SOL    HW226218   2.145   4.583   9.086 -1.2967  0.0532 -1.6382
 7926SOL     OW26219   8.376   9.623   2.465  0.4189  0.0497  0.2526
 7926SOL    HW126220   8.371   9.555   2.398  1.3114  0.2429 -0.0212
 7926SOL    HW226221   8.469   9.643   2.473  0.1104  2.1249 -0.5916
 7927SOL     OW26222   4.324   0.403   8.585  0.1372 -0.4194  0.3289
 7927SOL    HW126223   4.239   0.406   8.541 -0.4165  0.5114  1.4033
 7927SOL    HW226224   4.378   0.345   8.531 -1.0308 -0.6367 -0.6276
 7928SOL     OW26225   2.672   5.872  10.476 -0.1227 -0.5156  0.4073
 7928SOL    HW126226   2.638   5.902  10.561  0.7830 -0.5325  0.7817
 7928SOL    HW226227   2.695   5.781  10.491 -2.0692 -1.2258 -0.4978
 7929SOL     OW26228   2.054   3.918   0.092  0.6091  0.4077 -0.3532
 7929SOL    HW126229   2.037   3.953   0.005 -0.7516 -0.2377 -0.3728
 7929SOL    HW226230   2.037   3.991   0.151 -0.2080  0.3574 -0.5183
 7930SOL     OW26231   5.268   5.150   9.199 -0.3076 -0.2325 -0.4822
 7930SOL    HW126232   5.299   5.240   9.188 -0.0567 -0.4094 -1.3044
 7930SOL    HW226233   5.178   5.160   9.231 -0.4539  0.3176 -1.0397
 7931SOL     OW26234   9.642   6.262   1.846  0.2462 -0.3615 -0.2184
 7931SOL    HW126235   9.653   6.283   1.939  1.2609 -0.0039 -0.4018
 7931SOL    HW226236   9.635   6.166   1.843  3.2513 -0.6906  0.0138
 7932SOL     OW26237   6.665   8.395   6.296 -0.1490 -0.1837 -0.4491
 7932SOL    HW126238   6.741   8.418   6.242 -0.3584 -0.0144 -0.6738
 7932SOL    HW226239   6.599   8.459   6.272  0.5871  1.6059  1.9550
 7933SOL     OW26240   2.448   9.011   2.186  0.8296  0.0723 -0.3031
 7933SOL    HW126241   2.484   9.014   2.097 -0.6972  0.8186 -0.9468
 7933SOL    HW226242   2.363   9.055   2.178  1.1317  1.1542  1.7656
 7934SOL     OW26243   7.482   5.982   4.551 -0.0336 -0.5471 -0.1507
 7934SOL    HW126244   7.562   5.944   4.588  0.5247  0.0049 -0.7564
 7934SOL    HW226245   7.513   6.035   4.478 -0.7652  1.2111  0.7630
 7935SOL     OW26246   5.926   6.055   7.965  0.1959  0.4057  0.1921
 7935SOL    HW126247   5.895   6.128   8.018  1.0618 -0.0572  1.3823
 7935SOL    HW226248   5.901   5.977   8.014 -2.4681 -0.2598 -1.9986
 7936SOL     OW26249   2.830   5.308   2.510 -0.2648  0.0497  0.0433
 7936SOL    HW126250   2.788   5.371   2.568 -0.8663 -1.8210  1.7596
 7936SOL    HW226251   2.897   5.266   2.564  0.3745 -0.5342 -1.1567
 7937SOL     OW26252   0.164   2.903   1.993  0.3193 -0.4649  0.1328
 7937SOL    HW126253   0.230   2.972   1.987 -0.2861  0.1404  0.3378
 7937SOL    HW226254   0.106   2.931   2.064 -1.4091  0.1075 -1.4391
 7938SOL     OW26255   8.555   9.665   1.575 -0.0421 -0.0803 -0.1455
 7938SOL    HW126256   8.598   9.584   1.601  0.4554  0.6240  1.2999
 7938SOL    HW226257   8.462   9.643   1.571  0.1823 -1.0065 -0.9747
 7939SOL     OW26258   6.887   1.626   0.145 -0.2767 -0.0145 -0.7561
 7939SOL    HW126259   6.956   1.568   0.177 -0.0002  0.4133 -0.5592
 7939SOL    HW226260   6.901   1.707   0.194 -1.2395 -0.0941 -0.3411
 7940SOL     OW26261   3.391   9.161   5.466 -0.2036 -0.0320 -0.1059
 7940SOL    HW126262   3.315   9.113   5.434 -0.0615  0.2050 -0.8245
 7940SOL    HW226263   3.428   9.202   5.388  1.6064 -1.4487 -0.0627
 7941SOL     OW26264   4.413   3.892   3.873 -0.1469 -0.6234  0.3473
 7941SOL    HW126265   4.331   3.849   3.898 -0.8277  1.2956  1.6878
 7941SOL    HW226266   4.389   3.949   3.801  0.2236 -0.7325  0.1348
 7942SOL     OW26267   3.805   8.765   1.055 -0.2630 -0.1860  0.3321
 7942SOL    HW126268   3.819   8.805   1.141 -0.6962  1.3434 -0.2737
 7942SOL    HW226269   3.722   8.719   1.063 -0.5548  0.3715  0.5938
 7943SOL     OW26270   8.958   6.928   9.136 -0.0836  0.5939 -0.0143
 7943SOL    HW126271   8.879   6.976   9.113  0.5083  0.8272 -1.6688
 7943SOL    HW226272   9.021   6.996   9.160  0.4713  0.6211 -1.4676
 7944SOL     OW26273   9.021   5.026   3.657 -0.0674  0.2879  0.2362
 7944SOL    HW126274   9.104   5.043   3.611  0.5912  0.6327  1.4899
 7944SOL    HW226275   8.984   4.950   3.613  2.6331 -2.1213  1.7312
 7945SOL     OW26276   3.559   1.183   5.582 -0.4311 -0.0460  0.9009
 7945SOL    HW126277   3.632   1.124   5.561 -1.4533 -0.9349 -0.3165
 7945SOL    HW226278   3.595   1.271   5.568  0.6257 -0.4276  1.0750
 7946SOL     OW26279   7.919   8.006   2.053 -0.4964  0.4465 -0.2884
 7946SOL    HW126280   7.882   7.928   2.012 -0.2028 -0.3230  0.8572
 7946SOL    HW226281   8.013   7.994   2.049 -0.4372  0.9123 -0.3979
 7947SOL     OW26282   0.797  10.229   5.172 -0.4916  0.1562 -0.3191
 7947SOL    HW126283   0.860  10.207   5.241 -1.2524  0.8265  0.6076
 7947SOL    HW226284   0.774  10.320   5.187 -1.3482  0.0573 -0.9241
 7948SOL     OW26285   3.994   6.199   9.200  0.2609 -0.1460 -0.1349
 7948SOL    HW126286   3.969   6.150   9.279  1.0359 -0.5336 -0.1207
 7948SOL    HW226287   3.990   6.290   9.226 -2.6547 -0.0394 -0.5621
 7949SOL     OW26288   1.697   0.345   5.183 -0.0181 -0.0472 -0.1484
 7949SOL    HW126289   1.634   0.273   5.179 -2.3431  1.6889  1.9466
 7949SOL    HW226290   1.735   0.338   5.271  2.3246 -0.6688 -1.1487
 7950SOL     OW26291   4.788   4.447   2.101 -0.2133 -0.2874 -0.0382
 7950SOL    HW126292   4.842   4.447   2.180 -0.6929  1.6964  0.3364
 7950SOL    HW226293   4.839   4.496   2.037 -1.3963  1.4690  0.2676
 7951SOL     OW26294   5.369   9.376   9.152 -0.0802 -0.4912 -0.3911
 7951SOL    HW126295   5.275   9.370   9.135 -0.4652 -0.5987  1.5737
 7951SOL    HW226296   5.390   9.298   9.203  1.0101 -0.2720 -0.4734
 7952SOL     OW26297   4.524   6.451   4.953 -0.1254 -0.3957  0.7933
 7952SOL    HW126298   4.545   6.539   4.921 -1.4339 -0.0761  0.7334
 7952SOL    HW226299   4.433   6.458   4.982 -0.5113 -1.9210  0.0716
 7953SOL     OW26300   8.724   6.659   0.497  0.0849 -0.0707  0.3911
 7953SOL    HW126301   8.738   6.564   0.504 -0.4693 -0.1724  0.1978
 7953SOL    HW226302   8.770   6.685   0.418  1.5323  0.0923  1.2613
 7954SOL     OW26303   1.930   3.295   5.838  0.1799  0.3082  0.3830
 7954SOL    HW126304   1.999   3.295   5.771 -0.5538 -0.2761 -0.3989
 7954SOL    HW226305   1.895   3.206   5.836 -1.5509  0.9652 -0.2579
 7955SOL     OW26306   5.756   8.381   1.046  0.0981  0.2200  0.2712
 7955SOL    HW126307   5.712   8.316   0.991 -0.2479  1.9085 -1.5506
 7955SOL    HW226308   5.844   8.346   1.060  0.0776 -0.4286 -1.0692
 7956SOL     OW26309   8.752   1.535   3.519 -0.9591 -0.1495  0.3880
 7956SOL    HW126310   8.746   1.516   3.425 -0.0732 -1.3514  0.5491
 7956SOL    HW226311   8.665   1.512   3.553 -0.9543 -0.7203  0.0252
 7957SOL     OW26312   0.775   3.288   1.916  0.8116 -0.0000 -0.1381
 7957SOL    HW126313   0.710   3.237   1.868 -0.4942  1.1548  0.3286
 7957SOL    HW226314   0.847   3.299   1.855  0.3271 -0.8295 -0.8756
 7958SOL     OW26315   6.052   0.543   8.399 -0.2842  0.3241  0.2475
 7958SOL    HW126316   6.017   0.631   8.414 -1.4056  0.1148 -0.9273
 7958SOL    HW226317   5.982   0.498   8.352  0.7731 -0.7989 -0.2973
 7959SOL     OW26318   9.248   9.952   0.227  0.0875 -0.2314 -0.4811
 7959SOL    HW126319   9.264   9.876   0.283 -0.4199  0.8398  1.1611
 7959SOL    HW226320   9.153   9.964   0.229  0.2636  1.2390  0.3875
 7960SOL     OW26321   8.454   0.606   5.626  0.1707  0.0291 -0.1336
 7960SOL    HW126322   8.442   0.605   5.721  1.0190 -1.3681 -0.0243
 7960SOL    HW226323   8.438   0.698   5.602 -1.7806  0.0828  1.1007
 7961SOL     OW26324   0.120   6.800   7.739  0.2017  0.1627  0.1761
 7961SOL    HW126325   0.080   6.814   7.653 -0.9147 -1.9952  0.2813
 7961SOL    HW226326   0.185   6.731   7.725 -0.4671 -0.7114  1.1399
 7962SOL     OW26327   2.842   2.645   8.790  0.4409 -1.0121 -0.4476
 7962SOL    HW126328   2.919   2.665   8.844 -0.0915  2.2977 -0.7345
 7962SOL    HW226329   2.879   2.613   8.707  1.5874  1.1132 -0.8166
 7963SOL     OW26330   3.094   0.356   7.891 -0.1632 -0.2508 -0.2197
 7963SOL    HW126331   3.138   0.438   7.872  1.0212 -0.5997  0.8313
 7963SOL    HW226332   3.039   0.339   7.815  0.8253  0.6919 -1.1735
 7964SOL     OW26333   6.670   5.770   6.764 -0.1945 -0.0070 -0.3502
 7964SOL    HW126334   6.730   5.841   6.784 -0.2965  0.3176 -1.1577
 7964SOL    HW226335   6.654   5.727   6.848 -0.3440  1.0813  0.1905
 7965SOL     OW26336   3.168   8.525   3.991 -0.2147  0.1181 -0.2585
 7965SOL    HW126337   3.206   8.444   4.025  0.1862  0.1048 -0.7398
 7965SOL    HW226338   3.209   8.537   3.905 -1.1824  0.1701 -0.7346
 7966SOL     OW26339   4.646  10.304   3.534  0.2295 -0.3970  0.2668
 7966SOL    HW126340   4.691  10.278   3.614  1.1795 -1.1478 -0.4810
 7966SOL    HW226341   4.716  10.317   3.471 -0.4148  1.4323 -0.1168
 7967SOL     OW26342   3.267   2.877   8.722 -0.2114  1.0407  0.3227
 7967SOL    HW126343   3.288   2.970   8.718  1.5113  0.6785  0.0140
 7967SOL    HW226344   3.290   2.851   8.811 -2.6754  1.2946  1.1063
 7968SOL     OW26345   0.779   8.192   4.917  0.3974 -0.0331  0.1759
 7968SOL    HW126346   0.825   8.259   4.866 -1.4970  0.6221 -0.7996
 7968SOL    HW226347   0.688   8.198   4.887 -0.4528 -0.8877  2.3622
 7969SOL     OW26348  10.486   2.226  10.404 -0.2495  0.1037 -0.4023
 7969SOL    HW126349  10.502   2.296  10.341 -0.0079  0.1466 -0.2931
 7969SOL    HW226350  10.482   2.270  10.489  1.8778 -0.2263 -0.0801
 7970SOL     OW26351   5.279   7.665   8.212  0.4816 -0.4418  0.1492
 7970SOL    HW126352   5.355   7.615   8.183  1.2161  0.6569  0.1020
 7970SOL    HW226353   5.228   7.603   8.265  0.5219 -1.6851 -1.2084
 7971SOL     OW26354   0.078   2.824   0.540 -0.1862  0.1019  0.0684
 7971SOL    HW126355   0.161   2.866   0.514  0.3046 -0.0183  1.3968
 7971SOL    HW226356   0.102   2.734   0.562 -0.9791 -0.4552 -1.1948
 7972SOL     OW26357  10.307   6.398   6.108 -0.0135 -0.8431  0.0961
 7972SOL    HW126358  10.379   6.338   6.127  0.0372 -0.3205  1.6935
 7972SOL    HW226359  10.345   6.461   6.046 -0.2225 -2.6870 -2.0231
 7973SOL     OW26360   5.273   8.053   0.221 -0.3598  0.2458  0.0214
 7973SOL    HW126361   5.307   8.108   0.151 -0.0036  0.7430  0.5805
 7973SOL    HW226362   5.182   8.080   0.231 -0.6025 -0.2820 -0.6849
 7974SOL     OW26363   2.156   8.951   7.394 -0.5519  0.0712 -0.0086
 7974SOL    HW126364   2.210   8.904   7.457  0.4458 -0.5675 -1.3108
 7974SOL    HW226365   2.218   9.000   7.341 -1.3710  0.5154 -0.5765
 7975SOL     OW26366   3.278   0.903   6.867 -0.1117  0.7629 -0.1932
 7975SOL    HW126367   3.330   0.872   6.792 -1.5005 -1.1420 -0.4529
 7975SOL    HW226368   3.209   0.956   6.827  0.5637  1.8035 -0.0089
 7976SOL     OW26369   4.768   4.554   3.200  0.2212  0.2270 -0.2195
 7976SOL    HW126370   4.749   4.515   3.114 -1.3841 -0.8115  0.5683
 7976SOL    HW226371   4.847   4.607   3.185 -0.5668  0.8756 -2.5629
 7977SOL     OW26372   0.575   3.231   7.020 -0.2534 -0.2683  0.0310
 7977SOL    HW126373   0.546   3.314   6.982  0.0455  0.2705  0.9533
 7977SOL    HW226374   0.572   3.245   7.115  0.3207 -1.1366  0.1905
 7978SOL     OW26375   8.581   6.864   3.880  0.6837 -0.3449 -0.7594
 7978SOL    HW126376   8.594   6.770   3.870  1.4609 -0.3933  0.4848
 7978SOL    HW226377   8.645   6.890   3.947 -2.4796  0.2648  2.3213
 7979SOL     OW26378   0.187   3.455   6.387  0.3214 -0.3211 -0.3755
 7979SOL    HW126379   0.119   3.407   6.434 -0.6267  1.3298 -0.0018
 7979SOL    HW226380   0.172   3.434   6.295  0.3899 -1.2927 -0.1782
 7980SOL     OW26381   7.891   0.876   5.791  0.5166  0.4669  0.4140
 7980SOL    HW126382   7.866   0.895   5.881 -1.1870 -2.9108  0.8227
 7980SOL    HW226383   7.813   0.898   5.739  0.6265  0.1629  0.1151
 7981SOL     OW26384  10.340   1.765   2.631  0.2334 -0.3091  0.0775
 7981SOL    HW126385  10.353   1.758   2.726  1.2200 -1.2842 -0.1057
 7981SOL    HW226386  10.346   1.859   2.613  2.7787 -0.2792  0.6568
 7982SOL     OW26387   3.206   7.024  10.239 -0.5028 -0.2400 -0.1183
 7982SOL    HW126388   3.153   7.024  10.159 -4.0056 -1.6103  1.9801
 7982SOL    HW226389   3.195   7.112  10.275  0.3099  0.0853 -0.6447
 7983SOL     OW26390   8.072   6.487   1.329  0.1178  0.6382  0.4278
 7983SOL    HW126391   8.037   6.424   1.391  0.7286 -0.5400 -0.3884
 7983SOL    HW226392   7.997   6.542   1.304 -0.9379 -1.1463 -0.4968
 7984SOL     OW26393   8.523   6.573   6.367  0.2560 -0.2060 -0.3170
 7984SOL    HW126394   8.429   6.584   6.356  0.1828  0.0598  0.5381
 7984SOL    HW226395   8.543   6.492   6.320 -0.4826 -0.5366 -0.0788
 7985SOL     OW26396   5.519   4.181   5.270 -0.3793  0.0414  0.3620
 7985SOL    HW126397   5.443   4.185   5.213  0.7464  0.0614 -1.1935
 7985SOL    HW226398   5.521   4.091   5.301 -0.1904 -0.3795 -0.8238
 7986SOL     OW26399   7.411   9.468   1.536  0.1057  0.3792 -0.5630
 7986SOL    HW126400   7.339   9.451   1.475 -0.7221  1.3476  0.1136
 7986SOL    HW226401   7.396   9.557   1.567  0.8201  0.1085  0.6333
 7987SOL     OW26402   3.345   2.033   6.336  0.0337 -1.2054 -0.5469
 7987SOL    HW126403   3.434   2.031   6.302 -0.0369 -3.2598 -0.7361
 7987SOL    HW226404   3.346   1.972   6.409 -1.2711 -1.4700 -0.7217
 7988SOL     OW26405   2.837   2.024  10.033  0.2994  0.1410 -0.4866
 7988SOL    HW126406   2.923   2.051  10.001  0.9490 -1.1267  0.1267
 7988SOL    HW226407   2.855   1.966  10.106 -1.1032  0.2916  0.0208
 7989SOL     OW26408   6.686   3.549   7.047  0.4608 -0.1850 -1.0600
 7989SOL    HW126409   6.717   3.494   6.975  1.9849  0.6353 -1.0857
 7989SOL    HW226410   6.732   3.632   7.034  0.7389 -0.0034  0.8207
 7990SOL     OW26411  10.273   5.507   0.994  0.1979  0.2601 -0.6406
 7990SOL    HW126412  10.244   5.597   1.014  0.1664  0.2547 -0.6615
 7990SOL    HW226413  10.290   5.508   0.900  2.3844  0.8546 -0.2753
 7991SOL     OW26414   8.055   5.729   7.509  0.1598 -0.5104 -0.3294
 7991SOL    HW126415   8.085   5.804   7.561 -0.2275 -0.0512 -0.7522
 7991SOL    HW226416   8.036   5.661   7.573 -0.6756  0.1725  0.1801
 7992SOL     OW26417   0.150   8.026   6.859  0.3042 -0.6461  0.3034
 7992SOL    HW126418   0.087   8.036   6.930  0.9700  0.6036  0.7342
 7992SOL    HW226419   0.185   7.938   6.871  0.2628 -0.5256  1.3999
 7993SOL     OW26420  10.422   9.010   1.305  0.7523  0.2198  0.5816
 7993SOL    HW126421  10.341   9.022   1.356  0.3938  2.3954 -0.3879
 7993SOL    HW226422  10.410   8.925   1.263 -2.1343  1.3863 -1.2852
 7994SOL     OW26423   8.419   6.473   9.045  0.6072 -0.1509 -0.1677
 7994SOL    HW126424   8.502   6.425   9.051  0.1722 -0.8869  0.0365
 7994SOL    HW226425   8.384   6.470   9.134  0.3330  0.1153 -0.2661
 7995SOL     OW26426   1.374   2.926   8.514 -0.4150 -0.0456  0.3288
 7995SOL    HW126427   1.445   2.892   8.567  0.9987  0.5566 -1.0809
 7995SOL    HW226428   1.380   2.878   8.431  0.2792  2.0169 -0.9100
 7996SOL     OW26429   6.986   4.256   4.795 -0.1631  0.0824 -0.2021
 7996SOL    HW126430   7.073   4.287   4.769  0.4443 -1.1334  0.2893
 7996SOL    HW226431   6.962   4.192   4.728 -2.5379  3.2323 -2.6852
 7997SOL     OW26432   0.567   8.795   9.437  0.4329  0.0633  0.1419
 7997SOL    HW126433   0.569   8.699   9.442 -2.4895 -0.0572  1.1217
 7997SOL    HW226434   0.570   8.814   9.344  1.0931 -0.9754 -0.0699
 7998SOL     OW26435   9.849   6.579   9.727  0.1552  0.0315  0.4440
 7998SOL    HW126436   9.883   6.490   9.720 -0.3993 -0.1045 -0.7260
 7998SOL    HW226437   9.844   6.595   9.821  1.3259 -0.7523  0.6603
 7999SOL     OW26438   1.014   4.782   0.896  0.3646  0.1173  0.2958
 7999SOL    HW126439   1.038   4.871   0.923 -1.1463  0.8368 -0.5533
 7999SOL    HW226440   1.052   4.773   0.808  0.6147 -0.1302  0.4278
 8000SOL     OW26441   4.877   1.795   8.534  0.0035  0.5240  0.7531
 8000SOL    HW126442   4.913   1.767   8.450 -0.8047 -0.8801  0.8533
 8000SOL    HW226443   4.935   1.756   8.599 -0.4574  0.0211  0.8715
 8001SOL     OW26444   7.931   1.336   6.241  0.1548 -0.4767 -0.4846
 8001SOL    HW126445   7.919   1.319   6.334  0.0212 -0.7638 -0.5513
 8001SOL    HW226446   8.025   1.327   6.227  0.2535  0.1940 -0.2604
 8002SOL     OW26447   1.409   5.441   2.362 -0.5801  0.0970  0.4727
 8002SOL    HW126448   1.385   5.373   2.425 -0.4790 -0.9396 -0.5541
 8002SOL    HW226449   1.327   5.484   2.340 -0.7817 -0.2921  0.4675
 8003SOL     OW26450   8.768   7.907   6.775 -0.8431  0.0756  0.7755
 8003SOL    HW126451   8.755   7.815   6.753 -0.8057 -0.2544  2.0701
 8003SOL    HW226452   8.862   7.921   6.769 -0.9260  0.2493 -0.2186
 8004SOL     OW26453   3.629   4.600   0.787 -0.2176  0.0790  0.4351
 8004SOL    HW126454   3.554   4.576   0.733  1.1433 -0.4784 -1.2873
 8004SOL    HW226455   3.639   4.527   0.848 -0.8412  0.0088  0.4679
 8005SOL     OW26456   4.322   8.386   3.547 -0.1611 -0.3862  0.1385
 8005SOL    HW126457   4.326   8.429   3.632 -2.0453 -0.1936  0.1874
 8005SOL    HW226458   4.347   8.453   3.484  1.1043 -0.4893  0.5116
 8006SOL     OW26459   0.499   8.426   2.117  0.0486  0.6528  0.0144
 8006SOL    HW126460   0.576   8.383   2.081 -0.3586  1.0209 -1.3408
 8006SOL    HW226461   0.511   8.421   2.212  1.2005 -0.2479 -0.1602
 8007SOL     OW26462   3.445   3.856   9.439 -0.2443  0.6654 -0.0987
 8007SOL    HW126463   3.511   3.836   9.505 -0.3765 -2.6734 -0.8208
 8007SOL    HW226464   3.373   3.897   9.488  1.3684  2.2824  1.0355
 8008SOL     OW26465   4.785   2.444   2.604 -0.7989  0.1635 -0.0685
 8008SOL    HW126466   4.815   2.359   2.571 -0.8289  0.0373  0.2240
 8008SOL    HW226467   4.712   2.422   2.662 -0.2561  0.3104  0.6896
 8009SOL     OW26468   8.498   1.719   3.316  0.0614 -0.0073  0.2174
 8009SOL    HW126469   8.541   1.793   3.273  1.6436 -0.4642  0.9337
 8009SOL    HW226470   8.496   1.743   3.408 -1.9869  0.3327  0.1215
 8010SOL     OW26471   6.029   5.984   7.550  0.0899 -0.2286  0.1641
 8010SOL    HW126472   5.997   5.898   7.523  1.3891 -0.4816 -0.6525
 8010SOL    HW226473   6.072   5.968   7.634  0.0130 -0.3094  0.1881
 8011SOL     OW26474   0.439   0.505   6.183  0.1370 -0.2851 -0.0338
 8011SOL    HW126475   0.394   0.521   6.100  1.5511  1.1105 -0.5904
 8011SOL    HW226476   0.389   0.555   6.248 -1.2418 -1.7501  0.0724
 8012SOL     OW26477   5.433   1.235   3.238 -0.1358 -0.2827  0.4031
 8012SOL    HW126478   5.406   1.143   3.233 -1.2033  0.0869 -1.2500
 8012SOL    HW226479   5.526   1.231   3.263  0.1711 -1.8810 -0.8081
 8013SOL     OW26480   0.977   2.051   7.063 -0.2094  0.0810 -0.7117
 8013SOL    HW126481   1.051   1.992   7.077 -1.0298 -1.2809 -1.8266
 8013SOL    HW226482   0.952   2.037   6.971 -1.5155  0.9050 -0.5116
 8014SOL     OW26483   0.280  10.280   4.486 -0.3311 -0.1419  0.1686
 8014SOL    HW126484   0.196  10.264   4.445  0.2903  0.9226 -1.6291
 8014SOL    HW226485   0.280  10.373   4.507  1.1608  0.4002 -1.8709
 8015SOL     OW26486   3.373   3.153   9.645 -0.6180 -0.0069  0.5002
 8015SOL    HW126487   3.427   3.200   9.582 -2.4493  0.5440 -0.7681
 8015SOL    HW226488   3.298   3.211   9.660 -0.8845 -0.7183  2.1822
 8016SOL     OW26489   9.674   8.884   7.490 -0.5665 -0.0471 -0.6427
 8016SOL    HW126490   9.584   8.855   7.500  0.2734 -2.4819  0.5612
 8016SOL    HW226491   9.675   8.933   7.408 -3.0351  0.4182 -0.4591
 8017SOL     OW26492   5.413   2.413   1.159 -0.6114  0.0823 -0.1255
 8017SOL    HW126493   5.372   2.487   1.115 -3.0605 -0.7635  0.5622
 8017SOL    HW226494   5.416   2.343   1.093 -1.1763 -0.1454  0.0831
 8018SOL     OW26495   9.665  10.077   6.638 -0.0225 -0.1486  0.0752
 8018SOL    HW126496   9.709  10.071   6.722 -1.0378 -1.1410  0.5691
 8018SOL    HW226497   9.731  10.111   6.577  0.7548  0.4576  1.2340
 8019SOL     OW26498   9.575  10.448   4.289 -0.5604 -0.2234  0.0390
 8019SOL    HW126499   9.632  10.376   4.263  0.3605  1.2443 -2.2811
 8019SOL    HW226500   9.552  10.428   4.380  3.4149 -1.0491  1.0562
 8020SOL     OW26501   0.681   0.713   5.277  0.1427 -0.1540 -0.2567
 8020SOL    HW126502   0.680   0.682   5.367 -0.0385 -1.6207 -0.7415
 8020SOL    HW226503   0.706   0.805   5.284 -0.8453  0.0261  1.3540
 8021SOL     OW26504   0.984   6.373   3.919  0.2292  0.1213  0.1691
 8021SOL    HW126505   0.922   6.335   3.858 -0.3499  2.5133 -0.8444
 8021SOL    HW226506   1.060   6.396   3.866  0.3091  0.9317  0.6189
 8022SOL     OW26507   5.703   7.177   8.556  0.7579  0.5667  0.5868
 8022SOL    HW126508   5.750   7.149   8.635  2.5582 -1.2210 -0.9798
 8022SOL    HW226509   5.705   7.100   8.499 -1.0548  1.5927 -0.9684
 8023SOL     OW26510   4.532   1.810   8.644 -0.0169 -0.3466  0.6085
 8023SOL    HW126511   4.557   1.722   8.614 -1.8291 -1.5916  2.4257
 8023SOL    HW226512   4.441   1.819   8.618  0.1751  1.0761  0.3692
 8024SOL     OW26513   4.880   3.648   8.774  0.1308  0.5359  0.2077
 8024SOL    HW126514   4.961   3.603   8.749 -0.4014  0.1779 -0.9368
 8024SOL    HW226515   4.830   3.583   8.823 -0.9475 -0.4398 -2.0427
 8025SOL     OW26516   4.562   8.167   7.281  0.1019  0.7795  0.4273
 8025SOL    HW126517   4.607   8.196   7.201  1.0115  1.6939  1.2462
 8025SOL    HW226518   4.632   8.161   7.347 -0.6350  0.0271  1.1569
 8026SOL     OW26519   1.508   8.496   7.651 -0.4556 -0.0842 -0.0738
 8026SOL    HW126520   1.493   8.576   7.600  0.7747 -1.1773 -2.3258
 8026SOL    HW226521   1.428   8.446   7.640 -0.3589 -0.1285 -0.6180
 8027SOL     OW26522   2.809   4.536   2.066  0.0562 -0.5097  0.0145
 8027SOL    HW126523   2.752   4.580   2.130  0.6824 -1.6764  1.4479
 8027SOL    HW226524   2.843   4.460   2.114  1.2600 -0.9278 -1.4519
 8028SOL     OW26525   5.782   1.866  10.379  0.3741  0.3532  0.0625
 8028SOL    HW126526   5.737   1.816  10.447 -1.0345 -0.3700 -1.3241
 8028SOL    HW226527   5.740   1.837  10.297  1.6040  1.6084 -1.0523
 8029SOL     OW26528   0.518   4.506   8.448 -0.1329 -0.6562 -0.7127
 8029SOL    HW126529   0.524   4.538   8.358  1.5166 -1.7078 -1.0229
 8029SOL    HW226530   0.492   4.414   8.440 -1.6582 -0.3154 -0.0035
 8030SOL     OW26531   2.278   0.207   4.383 -0.1631 -0.2125 -0.3634
 8030SOL    HW126532   2.216   0.143   4.346  1.5559 -2.3469  0.2008
 8030SOL    HW226533   2.246   0.222   4.472 -0.2073 -0.8761 -0.2593
 8031SOL     OW26534   6.365   3.878   9.992 -0.3189 -0.4096 -0.5090
 8031SOL    HW126535   6.412   3.922   9.921  0.4148 -2.7820 -1.6084
 8031SOL    HW226536   6.416   3.899  10.071  0.4112  0.1243 -1.1072
 8032SOL     OW26537   1.013   3.520   3.198  0.0280  0.3224 -0.1254
 8032SOL    HW126538   0.945   3.585   3.181 -0.0918  0.1361 -0.3581
 8032SOL    HW226539   1.094   3.571   3.204  0.2671  0.3126 -2.3802
 8033SOL     OW26540   9.282   6.788   7.522 -0.5408  0.7208  0.2460
 8033SOL    HW126541   9.218   6.804   7.452 -0.3730  0.1147 -0.0502
 8033SOL    HW226542   9.297   6.694   7.520  0.5313  0.8779  0.1558
 8034SOL     OW26543   0.400   9.753   0.590  0.0024  0.1045  0.5281
 8034SOL    HW126544   0.353   9.780   0.512 -2.0441  0.1727  1.7286
 8034SOL    HW226545   0.453   9.679   0.562 -0.4820  0.3032 -0.9739
 8035SOL     OW26546   2.650   3.875   5.188 -0.3253  0.5631 -0.1540
 8035SOL    HW126547   2.609   3.940   5.131  1.7049  0.3540 -1.9600
 8035SOL    HW226548   2.737   3.911   5.207  0.3340 -0.9788 -0.0802
 8036SOL     OW26549   6.607   4.127   1.156 -0.4072  0.2017  0.3926
 8036SOL    HW126550   6.582   4.187   1.227 -0.9565  2.1924 -1.3890
 8036SOL    HW226551   6.593   4.177   1.076 -0.7276 -2.2822 -1.2154
 8037SOL     OW26552   3.291   6.882   7.450  0.6210  0.1228 -0.2745
 8037SOL    HW126553   3.317   6.850   7.537  1.5285 -1.6698 -1.1599
 8037SOL    HW226554   3.370   6.872   7.397 -0.1778  0.3778 -1.5379
 8038SOL     OW26555  10.037   1.931   4.241 -0.3164  0.4644  0.6811
 8038SOL    HW126556  10.112   1.870   4.238 -0.9021 -0.2368 -0.7946
 8038SOL    HW226557  10.074   2.013   4.274  1.4912  0.6024 -1.4195
 8039SOL     OW26558   7.878   5.507   2.025  0.0544 -0.2798  0.6957
 8039SOL    HW126559   7.920   5.428   1.991  2.1085  1.4088 -1.0595
 8039SOL    HW226560   7.922   5.523   2.109 -0.2371 -0.8653  0.9678
 8040SOL     OW26561   2.622   1.432   6.873  0.0122 -0.1576 -0.3902
 8040SOL    HW126562   2.564   1.425   6.948  2.1443  1.1981  1.5116
 8040SOL    HW226563   2.685   1.361   6.885 -0.3524 -0.7391 -1.6645
 8041SOL     OW26564   7.137   8.567   0.166  0.4207  0.2613 -0.3334
 8041SOL    HW126565   7.183   8.534   0.089 -0.3747  0.0313 -0.7184
 8041SOL    HW226566   7.203   8.567   0.235  0.3191 -2.9151 -0.0812
 8042SOL     OW26567   3.323   2.408   9.803  0.1297 -0.7978  0.4551
 8042SOL    HW126568   3.237   2.393   9.763 -0.3529 -0.8088  1.4769
 8042SOL    HW226569   3.372   2.455   9.736 -0.6537 -0.8332 -0.1625
 8043SOL     OW26570   4.606   3.248   8.137 -0.0901 -0.4325 -0.2911
 8043SOL    HW126571   4.558   3.182   8.087  1.9525 -1.0190 -1.5933
 8043SOL    HW226572   4.656   3.197   8.202 -0.1246  0.0350  0.1085
 8044SOL     OW26573   2.858   8.102   2.853 -0.2730 -0.2187  0.5819
 8044SOL    HW126574   2.861   8.183   2.904 -1.5166 -0.5267  1.1990
 8044SOL    HW226575   2.939   8.056   2.877 -0.8181 -0.3584  2.3354
 8045SOL     OW26576   7.230   0.787   4.400  0.0680  0.8375 -0.7941
 8045SOL    HW126577   7.219   0.800   4.494 -0.4874 -1.1952 -0.5174
 8045SOL    HW226578   7.262   0.871   4.367  1.2059  1.3025  1.3418
 8046SOL     OW26579   5.301   1.941   8.957  0.6454  0.3001 -0.3841
 8046SOL    HW126580   5.228   1.974   9.009  0.9790  0.2759  0.1002
 8046SOL    HW226581   5.337   1.869   9.008  0.3964 -0.3354 -1.0828
 8047SOL     OW26582   2.537   6.575  10.374 -0.2031 -0.4038 -0.6818
 8047SOL    HW126583   2.580   6.584  10.289  0.2807 -1.4507 -0.5637
 8047SOL    HW226584   2.488   6.493  10.367  0.9314 -1.2150  0.4998
 8048SOL     OW26585   6.774   7.688   0.907 -0.0137 -0.0596  0.0033
 8048SOL    HW126586   6.865   7.683   0.877 -0.1543  0.5388 -0.5453
 8048SOL    HW226587   6.782   7.698   1.002  0.6099  2.4510 -0.2372
 8049SOL     OW26588   7.520   6.855   8.721  0.5279  1.0037 -0.3942
 8049SOL    HW126589   7.440   6.897   8.691 -0.6806  0.3486  1.6893
 8049SOL    HW226590   7.589   6.892   8.666 -1.0686  2.2245 -1.6772
 8050SOL     OW26591   9.348   2.965   2.591 -0.1259  0.2996 -0.3142
 8050SOL    HW126592   9.264   2.920   2.593 -0.2370  0.5194  0.1029
 8050SOL    HW226593   9.326   3.058   2.587  0.0640  0.4400  1.2585
 8051SOL     OW26594   0.140   2.768   3.140  0.4007  0.1677  0.1772
 8051SOL    HW126595   0.214   2.734   3.189 -0.3158 -0.2336  1.0057
 8051SOL    HW226596   0.175   2.844   3.093  1.3904 -0.1830  0.3346
 8052SOL     OW26597   5.080   0.881   3.619  0.0465 -0.2868  0.2157
 8052SOL    HW126598   5.109   0.972   3.617  1.8048 -0.8054  0.2244
 8052SOL    HW226599   5.115   0.843   3.538  0.7052 -1.3227  0.9579
 8053SOL     OW26600   7.984   5.570   9.529 -0.0944 -0.1396 -0.2630
 8053SOL    HW126601   7.914   5.574   9.463 -0.0927 -1.5933 -0.3725
 8053SOL    HW226602   7.950   5.511   9.596  0.8946 -0.5962 -0.1557
 8054SOL     OW26603   0.478   7.794   5.303  0.0950  0.1430  0.4055
 8054SOL    HW126604   0.504   7.702   5.299  0.8776  0.3744  0.0787
 8054SOL    HW226605   0.423   7.800   5.382  0.1500 -0.5714  0.5007
 8055SOL     OW26606   8.371   5.992   0.940 -0.2548 -0.0728 -0.4005
 8055SOL    HW126607   8.294   5.990   0.998 -0.0697  0.5570 -0.1301
 8055SOL    HW226608   8.334   5.993   0.851 -0.5364 -1.2008 -0.3083
 8056SOL     OW26609  10.052   0.785   7.509 -0.4988  0.1273  0.4112
 8056SOL    HW126610  10.116   0.726   7.549 -0.4157  0.4948  0.8356
 8056SOL    HW226611   9.978   0.730   7.487 -0.5942 -0.0639  1.1859
 8057SOL     OW26612   1.397   7.169   5.448  0.3719 -0.0797  0.2439
 8057SOL    HW126613   1.311   7.177   5.489  0.3246  1.0110 -0.0274
 8057SOL    HW226614   1.441   7.099   5.497 -1.2433 -1.8045 -0.6810
 8058SOL     OW26615   9.229   8.476   6.313 -0.2798  0.1671 -0.3741
 8058SOL    HW126616   9.224   8.399   6.370  0.9382  0.3178 -0.0344
 8058SOL    HW226617   9.304   8.459   6.256  0.9068  1.7117  0.6613
 8059SOL     OW26618   9.130   1.383   0.580  0.2292 -0.1154 -0.2406
 8059SOL    HW126619   9.166   1.322   0.645 -1.5236  0.2119  1.1145
 8059SOL    HW226620   9.159   1.470   0.610 -1.8397  0.1878  1.0741
 8060SOL     OW26621   8.914   5.191   5.965 -0.0278  0.3953 -0.5959
 8060SOL    HW126622   8.862   5.270   5.979  1.0563  1.0818 -0.3454
 8060SOL    HW226623   8.852   5.119   5.979 -0.9201  1.1886 -0.3675
 8061SOL     OW26624   1.073   9.568   8.270  0.2056  0.1686 -0.3025
 8061SOL    HW126625   1.030   9.638   8.221 -0.0380  0.0329 -0.2867
 8061SOL    HW226626   1.106   9.610   8.349  3.4748  1.1255 -1.9963
 8062SOL     OW26627   0.639   7.662   2.877 -0.1262 -0.5219  0.3908
 8062SOL    HW126628   0.721   7.694   2.914  0.1465 -1.0887  0.2765
 8062SOL    HW226629   0.642   7.567   2.889 -0.5767 -0.5900 -0.0001
 8063SOL     OW26630   8.767   3.365   1.785 -0.2839 -0.0025 -0.5752
 8063SOL    HW126631   8.778   3.419   1.707  0.8841  1.0632  0.2804
 8063SOL    HW226632   8.673   3.348   1.790 -0.3414 -0.4401 -2.4096
 8064SOL     OW26633   7.108   8.622   1.057 -0.3117  0.2186  0.2844
 8064SOL    HW126634   7.150   8.656   0.978  1.4325 -0.9692  0.6457
 8064SOL    HW226635   7.074   8.537   1.031 -2.0163  0.8852  0.1800
 8065SOL     OW26636   3.800   4.493   9.270 -0.3404  0.0498 -0.7602
 8065SOL    HW126637   3.747   4.568   9.299 -0.5848 -0.6193  0.5616
 8065SOL    HW226638   3.878   4.533   9.232  0.2315  0.9807  1.2570
 8066SOL     OW26639   6.109   0.301   1.070 -0.0961  0.1763 -0.1174
 8066SOL    HW126640   6.069   0.213   1.069 -0.6208  0.4122 -0.7281
 8066SOL    HW226641   6.190   0.290   1.020  1.0714 -0.4891  1.7905
 8067SOL     OW26642   6.357   7.625   0.433  0.4014  0.5169 -0.4694
 8067SOL    HW126643   6.303   7.645   0.510  0.9517 -1.6971  0.5862
 8067SOL    HW226644   6.420   7.696   0.429 -0.3050  1.2338  0.4975
 8068SOL     OW26645   8.196   3.361   8.376 -0.1101 -0.4469  0.6103
 8068SOL    HW126646   8.184   3.276   8.418  0.8291  0.1878  2.2734
 8068SOL    HW226647   8.245   3.341   8.296 -1.1497 -1.6022  0.2301
 8069SOL     OW26648   6.416   1.025  10.004  1.0398  0.6172 -0.5719
 8069SOL    HW126649   6.321   1.028  10.005  0.9517  1.7172 -3.4043
 8069SOL    HW226650   6.437   0.939   9.967  1.2053  0.1446  0.5740
 8070SOL     OW26651   0.460   9.917   5.864  0.1253  0.5398 -0.1414
 8070SOL    HW126652   0.551   9.947   5.869  0.4272 -0.4514  0.7511
 8070SOL    HW226653   0.455   9.867   5.783 -0.1792  2.2379 -1.2352
 8071SOL     OW26654   9.205  10.430   5.735  0.2509 -0.3371  0.1401
 8071SOL    HW126655   9.212  10.525   5.725  1.0491 -0.3843  0.2296
 8071SOL    HW226656   9.237  10.394   5.652 -3.1340 -0.4832 -1.2562
 8072SOL     OW26657   0.930   0.705   9.701 -0.8097  0.0093 -0.0157
 8072SOL    HW126658   0.917   0.687   9.794 -1.0812 -0.4945 -0.1474
 8072SOL    HW226659   1.010   0.757   9.698 -2.5453  2.9501  0.7944
 8073SOL     OW26660   9.934   9.592   6.802 -0.1443 -0.5575 -0.7041
 8073SOL    HW126661   9.848   9.605   6.842  0.6704 -0.2289  1.0300
 8073SOL    HW226662   9.938   9.499   6.781 -0.8265 -0.6104 -0.5936
 8074SOL     OW26663   4.854   7.757   9.392 -0.5827 -0.7478 -0.4402
 8074SOL    HW126664   4.796   7.713   9.330  0.4813 -0.3149 -1.7837
 8074SOL    HW226665   4.941   7.721   9.374 -0.0241  0.4100 -0.1914
 8075SOL     OW26666   1.614   5.732   0.441 -0.2456  0.2209  0.2778
 8075SOL    HW126667   1.577   5.704   0.357  0.4982  2.0287 -0.7230
 8075SOL    HW226668   1.541   5.773   0.487 -0.6453 -0.7320  0.5027
 8076SOL     OW26669   3.479   4.665   2.312 -0.3679 -0.2900 -0.8576
 8076SOL    HW126670   3.424   4.625   2.379  0.7215  0.9841  0.8674
 8076SOL    HW226671   3.425   4.663   2.233 -2.5776  0.1398  0.5486
 8077SOL     OW26672  10.193   3.350   4.751  0.0684 -0.3326 -0.0244
 8077SOL    HW126673  10.200   3.311   4.838 -0.1602  1.0380  0.6302
 8077SOL    HW226674  10.164   3.278   4.694 -3.1093 -0.5336  1.6449
 8078SOL     OW26675   9.337   5.040   9.024  0.2724  1.1277  0.0333
 8078SOL    HW126676   9.427   5.007   9.016 -0.4479 -0.4704 -4.1768
 8078SOL    HW226677   9.344   5.134   9.005  1.1316  1.3083  1.1306
 8079SOL     OW26678   7.880   4.773   7.162  0.0391  0.6179  0.2566
 8079SOL    HW126679   7.806   4.738   7.212 -0.4175 -0.8482 -1.3213
 8079SOL    HW226680   7.855   4.863   7.142 -0.4788  0.7222  1.2631
 8080SOL     OW26681   5.158   1.242   5.923 -0.1008 -0.2644 -0.7597
 8080SOL    HW126682   5.179   1.214   5.834 -0.3464 -3.7976  0.1213
 8080SOL    HW226683   5.217   1.190   5.979 -3.0044 -1.6923  1.2541
 8081SOL     OW26684   4.931   5.320   3.114 -0.4033  0.4009 -1.0162
 8081SOL    HW126685   4.925   5.414   3.095 -2.2146  1.4835  3.5683
 8081SOL    HW226686   4.843   5.287   3.098 -1.5847  1.0549  2.8969
 8082SOL     OW26687   8.938   5.285   0.835 -0.0368 -0.3438  0.5420
 8082SOL    HW126688   9.029   5.301   0.810  0.1196 -1.7262  0.1667
 8082SOL    HW226689   8.896   5.371   0.827  0.5849 -0.2167 -2.0666
 8083SOL     OW26690   2.414   5.301   1.946  0.7721 -0.1827  0.0808
 8083SOL    HW126691   2.368   5.266   2.022  1.2381 -0.2124  0.3471
 8083SOL    HW226692   2.496   5.337   1.980  0.2188  1.3755 -0.1602
 8084SOL     OW26693   8.555   5.435   4.961 -0.1694 -0.0322  0.1717
 8084SOL    HW126694   8.530   5.352   5.002  0.6396 -0.3238  0.0908
 8084SOL    HW226695   8.637   5.416   4.915 -0.2344  0.6893 -0.2667
 8085SOL     OW26696   4.908   2.614   3.108 -0.0576 -0.0737 -0.5309
 8085SOL    HW126697   4.893   2.615   3.013  1.6199  0.2460 -0.8284
 8085SOL    HW226698   4.992   2.659   3.119 -0.6312  0.6321  1.1999
 8086SOL     OW26699   7.772   9.253   5.104  0.2098  0.4231 -0.7793
 8086SOL    HW126700   7.782   9.159   5.086  1.7337  0.0866  1.4584
 8086SOL    HW226701   7.855   9.292   5.075 -0.0673  0.9630 -0.8652
 8087SOL     OW26702   0.105   2.650   2.074 -0.6614  0.1540  0.7582
 8087SOL    HW126703   0.102   2.639   2.169  0.2649  1.5762  0.9818
 8087SOL    HW226704   0.114   2.745   2.061 -0.4975 -0.0387 -0.7390
 8088SOL     OW26705   5.727   9.962   8.583 -0.0824  0.2230  0.0459
 8088SOL    HW126706   5.786   9.888   8.596  2.7193  2.3375  0.2300
 8088SOL    HW226707   5.764  10.032   8.637 -2.8508  1.7015  0.2027
 8089SOL     OW26708  10.295   5.296   2.900 -0.0276  0.1618  0.2639
 8089SOL    HW126709  10.322   5.387   2.911  0.2617  0.3251 -1.4334
 8089SOL    HW226710  10.213   5.301   2.851 -0.1290 -0.4859  0.3576
 8090SOL     OW26711   0.371   8.432   0.482 -0.2478 -0.3423 -0.0061
 8090SOL    HW126712   0.394   8.406   0.393 -0.6529 -0.3317 -0.1168
 8090SOL    HW226713   0.419   8.371   0.538 -1.7111 -1.8210 -0.2688
 8091SOL     OW26714   2.721   1.985   6.535  0.1498 -0.2379 -0.4566
 8091SOL    HW126715   2.707   2.074   6.569 -0.5676  0.2836 -2.0265
 8091SOL    HW226716   2.814   1.982   6.514  0.6014 -0.5609  1.4489
 8092SOL     OW26717   4.394   7.566   6.562  0.0488 -0.2221 -0.2131
 8092SOL    HW126718   4.317   7.621   6.547 -0.3994 -1.0297 -0.9546
 8092SOL    HW226719   4.459   7.626   6.600 -1.4548  0.1297  1.9962
 8093SOL     OW26720   4.471   4.577   3.840 -0.4255 -0.4480  0.1109
 8093SOL    HW126721   4.489   4.483   3.830  0.9293 -0.1537 -0.3523
 8093SOL    HW226722   4.534   4.607   3.906 -0.0321  0.3707 -0.6197
 8094SOL     OW26723   3.847   6.065   4.684  0.2397  0.7809  0.0790
 8094SOL    HW126724   3.842   5.973   4.710 -1.9515  0.5427 -0.9275
 8094SOL    HW226725   3.909   6.066   4.611 -0.6583 -0.1415 -0.7234
 8095SOL     OW26726   7.658   2.114   1.190  0.4578  0.1795 -0.2272
 8095SOL    HW126727   7.673   2.206   1.211  1.1240  0.1502 -0.5504
 8095SOL    HW226728   7.680   2.106   1.097 -3.2423  0.4911 -1.3088
 8096SOL     OW26729   1.715   4.436   6.218  0.6586 -0.5103  0.3875
 8096SOL    HW126730   1.672   4.405   6.137 -0.8887 -0.0216  0.9905
 8096SOL    HW226731   1.707   4.362   6.278  2.9151 -1.3547 -0.2174
 8097SOL     OW26732   8.486   6.056  10.221 -0.1892  0.2329 -0.3591
 8097SOL    HW126733   8.576   6.034  10.246 -0.3485  0.1263  0.1247
 8097SOL    HW226734   8.445   6.086  10.302 -0.5318  0.4773 -0.6183
 8098SOL     OW26735   6.507   9.761   4.148 -0.0876  0.5706  0.4713
 8098SOL    HW126736   6.485   9.845   4.187  0.3069  0.5830  0.6725
 8098SOL    HW226737   6.486   9.771   4.056 -1.8335  0.2693  0.7982
 8099SOL     OW26738   0.152   1.352   3.354 -0.4053 -0.3174 -0.0194
 8099SOL    HW126739   0.211   1.278   3.336 -0.5991 -0.9437  1.7770
 8099SOL    HW226740   0.121   1.337   3.443 -1.2356  1.4190  0.0186
 8100SOL     OW26741   8.584   4.781   6.535 -0.3581  0.3641 -0.2679
 8100SOL    HW126742   8.576   4.704   6.592  0.4396 -1.0918 -2.0221
 8100SOL    HW226743   8.649   4.837   6.578  0.7126 -1.0004 -0.0415
 8101SOL     OW26744   5.143   4.322   4.948 -0.1486 -0.3142  0.3084
 8101SOL    HW126745   5.161   4.373   4.869 -0.1376 -3.1606 -1.6593
 8101SOL    HW226746   5.109   4.239   4.916 -1.1649 -1.2119  3.3832
 8102SOL     OW26747   1.607   3.053   3.018 -0.0058 -0.4142  0.3568
 8102SOL    HW126748   1.530   3.096   2.981  0.3554 -0.2742 -0.2560
 8102SOL    HW226749   1.662   3.034   2.942  1.1412  0.6371  0.8900
 8103SOL     OW26750   0.570   5.029   1.673 -0.1991 -0.4253 -0.1625
 8103SOL    HW126751   0.536   5.014   1.585 -0.4595 -0.5487 -0.0418
 8103SOL    HW226752   0.566   4.944   1.715 -0.3985 -0.2964  0.0814
 8104SOL     OW26753   0.669   5.756   2.426 -0.4639 -0.1458 -0.2646
 8104SOL    HW126754   0.738   5.795   2.480 -0.1009  0.3280 -1.0492
 8104SOL    HW226755   0.715   5.699   2.365 -0.7673  0.0741 -0.7105
 8105SOL     OW26756   6.992   7.699   3.293 -0.1497 -0.1133  0.4240
 8105SOL    HW126757   6.915   7.747   3.324 -0.1362  0.2286 -0.0574
 8105SOL    HW226758   7.066   7.754   3.317  0.0092 -0.8005  1.5595
 8106SOL     OW26759   3.024   8.315   6.388  0.5510 -0.1877 -0.0140
 8106SOL    HW126760   3.003   8.382   6.323 -0.8409 -0.4523  0.1295
 8106SOL    HW226761   2.983   8.346   6.468  1.7975 -0.1348  0.6225
 8107SOL     OW26762   8.007   6.193   8.507 -0.2427 -0.1407  0.4679
 8107SOL    HW126763   8.073   6.251   8.545 -0.3335  1.1332 -1.1568
 8107SOL    HW226764   7.924   6.240   8.521 -0.6071 -0.9455  1.0541
 8108SOL     OW26765   6.905   9.066   0.544  0.1545 -0.5847 -0.2576
 8108SOL    HW126766   6.941   9.135   0.489 -1.0340 -0.4124 -0.8518
 8108SOL    HW226767   6.842   9.021   0.488  1.3147 -2.5564 -0.0775
 8109SOL     OW26768   0.764   8.896   8.122 -0.7273  0.2573 -0.0299
 8109SOL    HW126769   0.674   8.888   8.153 -1.2385 -2.3113 -1.8804
 8109SOL    HW226770   0.817   8.854   8.190 -1.1710 -0.1566  0.0598
 8110SOL     OW26771   3.388   0.033   4.998  0.3518 -0.3842 -0.5753
 8110SOL    HW126772   3.317   0.071   5.051 -0.0517 -1.5569 -0.2251
 8110SOL    HW226773   3.462   0.092   5.010 -0.5929  0.9289 -1.0381
 8111SOL     OW26774   3.289   1.442   2.276 -0.5475  0.0812  0.5806
 8111SOL    HW126775   3.287   1.431   2.370 -1.1349  0.1154  0.5720
 8111SOL    HW226776   3.241   1.524   2.260 -0.4932  0.0524  0.2501
 8112SOL     OW26777   7.853   9.974   3.845  0.0630 -0.3526  0.1809
 8112SOL    HW126778   7.759   9.960   3.860  0.3002 -0.8003  1.3233
 8112SOL    HW226779   7.896   9.903   3.892  0.9761 -0.3290 -0.5897
 8113SOL     OW26780   7.827  10.341   4.628  0.4359  0.5589 -0.4881
 8113SOL    HW126781   7.793  10.388   4.704  0.8485 -1.1215  0.8020
 8113SOL    HW226782   7.750  10.298   4.590  0.2053  1.5186 -1.1276
 8114SOL     OW26783   8.656   8.206   5.971 -0.1775 -0.1759  0.0810
 8114SOL    HW126784   8.615   8.150   5.905  0.2492  0.0216 -0.3602
 8114SOL    HW226785   8.660   8.151   6.050  0.0333 -0.6970 -0.2849
 8115SOL     OW26786   7.359   7.252   0.686  0.2624 -0.5398  0.6124
 8115SOL    HW126787   7.359   7.301   0.604 -1.3405  1.8770  1.9470
 8115SOL    HW226788   7.452   7.234   0.703  1.1339  3.1345  0.5713
 8116SOL     OW26789   1.381   5.846   7.560  0.3204 -0.0697  0.1447
 8116SOL    HW126790   1.346   5.891   7.637 -0.1845  0.6040 -0.4740
 8116SOL    HW226791   1.359   5.754   7.574 -1.7153  0.3261 -0.2214
 8117SOL     OW26792   3.609   7.992   6.858  0.0904  0.5139  0.0124
 8117SOL    HW126793   3.612   7.910   6.907  2.8751 -0.1356 -1.0639
 8117SOL    HW226794   3.567   7.969   6.775 -0.5165  0.5408  0.3116
 8118SOL     OW26795   4.473   0.035   1.647 -0.1538  0.2543 -0.4335
 8118SOL    HW126796   4.547   0.091   1.624  1.5034 -0.9421  1.6415
 8118SOL    HW226797   4.472   0.035   1.743 -0.5412 -2.6438 -0.3603
 8119SOL     OW26798   3.549   2.738   3.208 -0.0344  0.3554  0.6728
 8119SOL    HW126799   3.600   2.763   3.131  0.9873  0.5724  1.3934
 8119SOL    HW226800   3.459   2.761   3.186  0.2479  0.4552 -0.4349
 8120SOL     OW26801   9.218   2.361   3.952  0.3865 -0.2775  0.4792
 8120SOL    HW126802   9.157   2.317   3.893 -0.3406 -1.1053  1.8053
 8120SOL    HW226803   9.235   2.297   4.021  2.1911  0.2168  0.5336
 8121SOL     OW26804   0.645   1.613   7.475 -0.5439  0.5209  0.3810
 8121SOL    HW126805   0.649   1.546   7.543  0.6344 -3.3599 -3.1340
 8121SOL    HW226806   0.552   1.619   7.453 -0.6336 -0.1860  0.5570
 8122SOL     OW26807   6.404   1.753   2.542  0.5826  0.0269 -0.2609
 8122SOL    HW126808   6.426   1.705   2.622 -0.3360 -2.0765 -1.1832
 8122SOL    HW226809   6.410   1.845   2.566  0.4215 -0.5460  2.1965
 8123SOL     OW26810   4.655   0.318   0.790  0.4165  0.1210  0.2681
 8123SOL    HW126811   4.625   0.298   0.701 -2.5527  1.3898  0.8603
 8123SOL    HW226812   4.640   0.237   0.839  0.7006 -0.1469 -0.0842
 8124SOL     OW26813   9.719   6.125   8.342 -0.2348 -1.1695  0.2827
 8124SOL    HW126814   9.750   6.147   8.430  1.4728 -2.2138 -0.0295
 8124SOL    HW226815   9.798   6.116   8.289 -1.1842 -1.6174 -1.1271
 8125SOL     OW26816   3.684   7.513   7.633 -0.4035 -0.8980  0.3170
 8125SOL    HW126817   3.678   7.477   7.722  2.4206 -0.5828  0.7159
 8125SOL    HW226818   3.727   7.444   7.582  0.8494  0.0843 -0.0111
 8126SOL     OW26819   7.205   6.456   4.401 -0.2224 -0.2922  0.4641
 8126SOL    HW126820   7.129   6.409   4.367  0.1032 -2.0087  1.9584
 8126SOL    HW226821   7.219   6.420   4.488  2.9084 -0.8128 -0.1105
 8127SOL     OW26822   4.550   9.530   5.996 -0.1616  0.2347  0.0190
 8127SOL    HW126823   4.600   9.468   5.942 -0.5942  0.9561 -1.2650
 8127SOL    HW226824   4.470   9.483   6.019  0.0462 -0.1002  0.0648
 8128SOL     OW26825   4.362   5.267   8.748 -0.8368 -0.0688 -0.0245
 8128SOL    HW126826   4.412   5.337   8.707 -0.4038 -0.4017 -0.0766
 8128SOL    HW226827   4.318   5.308   8.822 -0.4221  0.2131  0.0669
 8129SOL     OW26828   2.699   9.960   6.424  0.4455 -0.5173  0.9046
 8129SOL    HW126829   2.609   9.987   6.407  0.0783 -2.8807 -1.4227
 8129SOL    HW226830   2.752  10.033   6.391 -0.5476  0.1127  0.6586
 8130SOL     OW26831   2.690   3.390   9.411  0.8783 -0.2577  0.9693
 8130SOL    HW126832   2.734   3.341   9.341 -1.6584 -0.9996 -0.2319
 8130SOL    HW226833   2.688   3.330   9.485 -0.3033 -1.2646  0.1876
 8131SOL     OW26834   3.837   8.103   0.076 -0.0139 -0.0463  0.4205
 8131SOL    HW126835   3.818   8.163   0.148  1.2664  0.7821  0.0999
 8131SOL    HW226836   3.764   8.115   0.015  0.3744  1.4205  0.2190
 8132SOL     OW26837  10.287   9.609   3.549  0.4286  0.3970 -0.0319
 8132SOL    HW126838  10.241   9.687   3.581  3.8051  2.0247  1.3898
 8132SOL    HW226839  10.262   9.540   3.611 -2.3629  0.2847 -1.1315
 8133SOL     OW26840   3.776   0.170   5.697 -0.6949 -0.5493  0.0446
 8133SOL    HW126841   3.811   0.081   5.699  0.2275 -0.1880  0.5931
 8133SOL    HW226842   3.819   0.214   5.770  1.3478  1.2558 -2.1115
 8134SOL     OW26843   2.650   4.913   6.562 -0.5893  0.0661 -0.9746
 8134SOL    HW126844   2.602   4.932   6.643 -1.0951 -3.8533 -0.1425
 8134SOL    HW226845   2.728   4.865   6.591  0.9599  1.3956 -2.6868
 8135SOL     OW26846   6.916  10.108   6.176  0.1953  0.0047 -0.1363
 8135SOL    HW126847   6.988  10.167   6.200 -0.9631  1.2117  0.4593
 8135SOL    HW226848   6.916  10.042   6.245  1.1473 -0.4103 -0.5100
 8136SOL     OW26849   0.181   8.291   4.417  0.8437  0.1253 -0.3521
 8136SOL    HW126850   0.088   8.265   4.412  0.6852 -0.0364  2.1635
 8136SOL    HW226851   0.221   8.251   4.340 -0.6511 -2.3206  0.0110
 8137SOL     OW26852   7.972   1.602   4.504  0.4954  0.0927  0.5562
 8137SOL    HW126853   7.891   1.600   4.453  1.2152 -0.4056 -0.6250
 8137SOL    HW226854   7.944   1.619   4.593 -0.9748 -0.7424  0.2921
 8138SOL     OW26855   8.597   6.267   3.330  0.1105 -0.3222 -0.4102
 8138SOL    HW126856   8.530   6.318   3.283  0.4681  1.3948  0.8713
 8138SOL    HW226857   8.547   6.211   3.389 -0.2806  2.1013  1.7231
 8139SOL     OW26858   4.524   6.767   3.035 -0.1891 -0.5274 -0.3476
 8139SOL    HW126859   4.542   6.680   2.999 -0.6858 -0.9559  0.3966
 8139SOL    HW226860   4.428   6.770   3.041 -0.2330  0.4444 -1.2444
 8140SOL     OW26861   9.592   5.543   0.695 -0.5852 -0.4337  0.3038
 8140SOL    HW126862   9.646   5.556   0.617  0.6938 -0.3134  1.1809
 8140SOL    HW226863   9.554   5.629   0.712 -0.8043 -0.4427 -0.1387
 8141SOL     OW26864   0.498   4.967  10.343 -0.1140 -0.0439  0.1396
 8141SOL    HW126865   0.437   4.900  10.374 -0.2661 -1.0121 -2.0554
 8141SOL    HW226866   0.447   5.021  10.284  0.5982  0.5894  0.0864
 8142SOL     OW26867   3.315   5.124   1.654  0.1594 -0.2103 -0.1307
 8142SOL    HW126868   3.359   5.095   1.733  0.6732 -1.4905 -0.8545
 8142SOL    HW226869   3.308   5.045   1.600 -0.0366  0.6610 -1.4260
 8143SOL     OW26870   5.414   0.436   4.224 -0.6522 -0.4960  0.1978
 8143SOL    HW126871   5.361   0.498   4.173  0.6894 -0.6546 -1.5031
 8143SOL    HW226872   5.391   0.351   4.188  1.1423 -0.5203 -1.0306
 8144SOL     OW26873   6.582  10.097   1.102  0.1497  0.2218 -0.6926
 8144SOL    HW126874   6.581  10.005   1.128 -0.6462  0.4471  0.1165
 8144SOL    HW226875   6.518  10.103   1.031  0.8530 -0.0065 -1.3618
 8145SOL     OW26876   3.155   5.967   0.961 -0.3521 -0.6202 -0.1054
 8145SOL    HW126877   3.206   5.895   0.999 -0.9486 -0.5265  0.9203
 8145SOL    HW226878   3.108   5.926   0.888 -0.3160 -1.1674  0.1690
 8146SOL     OW26879   7.359   2.035   3.419  0.5581 -0.1885 -0.4717
 8146SOL    HW126880   7.317   2.115   3.386 -1.4895 -1.6152 -1.4961
 8146SOL    HW226881   7.446   2.036   3.379  0.9954  2.0328  0.3878
 8147SOL     OW26882   6.910   1.837   4.031 -0.4461 -0.1113 -0.4249
 8147SOL    HW126883   6.993   1.877   4.005 -0.4952  1.3352  1.4174
 8147SOL    HW226884   6.914   1.748   3.995  1.3157  0.3388 -1.4779
 8148SOL     OW26885   3.601   9.009   2.402  0.5975 -0.7282  0.4141
 8148SOL    HW126886   3.683   8.979   2.364 -0.3264 -1.4975 -1.1038
 8148SOL    HW226887   3.558   9.056   2.331  0.4254  1.1332  1.6844
 8149SOL     OW26888   2.085   8.104   7.806 -0.3512 -0.4838  0.3600
 8149SOL    HW126889   2.116   8.054   7.731 -2.9703 -0.0785 -1.1162
 8149SOL    HW226890   2.139   8.183   7.808  1.3607 -1.6079  0.4648
 8150SOL     OW26891   7.890   4.563   9.731 -0.1726  0.0065  0.1855
 8150SOL    HW126892   7.796   4.573   9.745  0.0919 -0.0669  2.2945
 8150SOL    HW226893   7.931   4.611   9.803  1.4520  0.6331 -1.0661
 8151SOL     OW26894   0.119   0.804   0.529 -0.0828  0.0708  0.0426
 8151SOL    HW126895   0.165   0.771   0.452  0.1729  2.5685 -0.9717
 8151SOL    HW226896   0.188   0.847   0.581 -0.7200  0.8568  0.2447
 8152SOL     OW26897   8.650   1.310   0.689 -0.1294  0.3087  0.4899
 8152SOL    HW126898   8.647   1.233   0.745 -0.9570  0.0289  0.0882
 8152SOL    HW226899   8.721   1.292   0.627 -0.3190 -0.1445  0.3951
 8153SOL     OW26900   6.015   0.309   3.088 -0.3292  0.1093 -0.0515
 8153SOL    HW126901   6.093   0.362   3.106 -0.6753 -0.2317  2.7897
 8153SOL    HW226902   5.993   0.330   2.996  1.8393  1.8170 -0.2582
 8154SOL     OW26903   5.660   4.189   5.504  0.3199  0.3428  0.0313
 8154SOL    HW126904   5.621   4.199   5.416  0.0917 -0.3284  0.0523
 8154SOL    HW226905   5.754   4.201   5.490  0.2032  1.0442 -0.1749
 8155SOL     OW26906   7.810   6.340   4.960  0.1231 -0.3306  0.0080
 8155SOL    HW126907   7.765   6.263   4.996  0.4736 -0.4078  0.2875
 8155SOL    HW226908   7.900   6.312   4.949  0.3082  0.1186  0.3469
 8156SOL     OW26909   3.383  10.486   2.301 -0.2363  0.3708  0.2284
 8156SOL    HW126910   3.324  10.467   2.229 -0.7090 -1.8524  1.1257
 8156SOL    HW226911   3.454  10.538   2.262  2.1962 -4.6805 -3.1163
 8157SOL     OW26912   1.259   1.473   9.634  0.0138  0.1857 -0.1503
 8157SOL    HW126913   1.291   1.447   9.720 -0.8040  0.8103  0.3582
 8157SOL    HW226914   1.338   1.485   9.582  0.5722  0.7583  0.7950
 8158SOL     OW26915  10.201   0.142   0.980 -0.1287 -0.0876 -0.3416
 8158SOL    HW126916  10.156   0.224   0.999 -0.9935 -0.6714  0.1669
 8158SOL    HW226917  10.286   0.151   1.023 -0.3959  0.3618  0.1036
 8159SOL     OW26918   3.551   0.554   7.744  0.0967 -0.1388  0.0780
 8159SOL    HW126919   3.513   0.553   7.656  0.5619 -0.0082 -0.1286
 8159SOL    HW226920   3.478   0.531   7.802 -0.1942 -0.3057 -0.3474
 8160SOL     OW26921   9.631   1.291   1.062 -0.0788  0.2295 -0.0061
 8160SOL    HW126922   9.555   1.250   1.018  0.4522 -1.1688  0.3190
 8160SOL    HW226923   9.701   1.286   0.997 -0.4208  2.2351 -0.5965
 8161SOL     OW26924   0.087   0.982   8.857 -0.4454  0.1168 -0.2042
 8161SOL    HW126925   0.059   1.019   8.941  0.6242  0.3657  0.0516
 8161SOL    HW226926   0.007   0.978   8.805 -1.4495 -1.4624  1.3308
 8162SOL     OW26927   0.661   2.908   7.288 -0.1735  0.3853 -0.5812
 8162SOL    HW126928   0.649   2.910   7.193 -0.6353  0.9169 -0.5150
 8162SOL    HW226929   0.587   2.958   7.323  0.2990  0.6745  0.0288
 8163SOL     OW26930   8.308   3.393   5.322  0.0841 -0.1042  0.1153
 8163SOL    HW126931   8.394   3.433   5.307 -0.7353  1.1985 -1.4042
 8163SOL    HW226932   8.287   3.348   5.240 -1.5264  1.3129 -0.3059
 8164SOL     OW26933   4.439   3.781   4.236  0.5468 -0.7849  0.9753
 8164SOL    HW126934   4.344   3.777   4.227  0.4899 -0.5230  1.4553
 8164SOL    HW226935   4.468   3.691   4.219  0.3977 -0.5035 -1.1299
 8165SOL     OW26936   6.915   3.262   7.993 -0.4509  0.4891  0.0072
 8165SOL    HW126937   6.891   3.185   7.942  0.1480 -0.4401  1.0748
 8165SOL    HW226938   6.928   3.331   7.928  0.1205 -0.6096 -1.0797
 8166SOL     OW26939   9.147   2.549   6.396 -0.2411  0.3083 -0.0235
 8166SOL    HW126940   9.225   2.510   6.436 -0.1463  0.5494  0.0289
 8166SOL    HW226941   9.074   2.499   6.432 -0.2323  1.1266  1.1840
 8167SOL     OW26942   0.095   4.599   5.507 -0.3217  0.4273 -0.4533
 8167SOL    HW126943   0.083   4.528   5.445 -0.5839  0.6484 -0.6548
 8167SOL    HW226944   0.057   4.566   5.589  2.2192 -0.8535  0.3196
 8168SOL     OW26945  10.194   6.616   1.370  0.3769  0.0584  0.4628
 8168SOL    HW126946  10.132   6.628   1.298  1.3032 -0.3181 -0.4255
 8168SOL    HW226947  10.140   6.614   1.448 -0.8920 -1.6780 -0.3945
 8169SOL     OW26948   7.163   2.975   5.175  0.0387  0.2809  0.3539
 8169SOL    HW126949   7.068   2.963   5.182 -0.0761  0.8191 -0.1935
 8169SOL    HW226950   7.174   3.068   5.156  0.6317  0.0374 -0.5246
 8170SOL     OW26951   3.448   0.081   9.651 -0.6563 -0.0986  0.0131
 8170SOL    HW126952   3.359   0.068   9.616 -0.5286  0.2814 -0.4583
 8170SOL    HW226953   3.478  -0.007   9.673  0.0073 -0.6362 -2.6649
 8171SOL     OW26954   6.053   4.198   0.376  0.1331  0.4931  0.1854
 8171SOL    HW126955   6.059   4.175   0.283  0.7137 -1.0136  0.5639
 8171SOL    HW226956   6.056   4.114   0.421  0.2226  1.2280  1.5902
 8172SOL     OW26957   0.556   5.058   4.185 -0.6185 -0.3130 -0.8706
 8172SOL    HW126958   0.580   5.041   4.094 -0.6613  1.0018 -1.1526
 8172SOL    HW226959   0.505   5.139   4.181  0.9706  0.8412  0.5025
 8173SOL     OW26960   5.966   7.644  10.474  0.2810  0.5100  0.1835
 8173SOL    HW126961   6.041   7.643  10.533 -0.6157 -0.0493  1.3686
 8173SOL    HW226962   6.004   7.640  10.386  1.6318 -1.5667  0.7748
 8174SOL     OW26963   5.290   2.253   9.299 -0.0556  0.2462  0.5996
 8174SOL    HW126964   5.356   2.238   9.367  0.6057  1.3245  0.2093
 8174SOL    HW226965   5.222   2.304   9.341 -1.3094 -1.8980  1.3540
 8175SOL     OW26966   6.991   1.171   1.660 -0.2674 -0.1031  0.2241
 8175SOL    HW126967   7.070   1.202   1.617 -0.1869  0.8992  1.0455
 8175SOL    HW226968   6.919   1.205   1.607 -0.1629  0.7979  0.6338
 8176SOL     OW26969   5.065   2.991   3.938 -0.5060  0.0029 -0.0830
 8176SOL    HW126970   5.106   3.060   3.989  0.0434 -1.1983  1.1744
 8176SOL    HW226971   4.972   2.995   3.962 -0.3567 -0.1410  0.5399
 8177SOL     OW26972   8.105  10.352   8.905 -0.1475  0.0637 -0.1354
 8177SOL    HW126973   8.187  10.378   8.863 -0.1076  0.3807  0.1279
 8177SOL    HW226974   8.055  10.307   8.837  1.2914 -2.4565  0.3675
 8178SOL     OW26975   8.742   6.763   7.527 -0.2905  0.4148 -0.4268
 8178SOL    HW126976   8.671   6.699   7.527  1.2194 -1.4514 -2.6286
 8178SOL    HW226977   8.706   6.839   7.481 -0.6631 -0.8795 -2.4348
 8179SOL     OW26978   0.781   6.003   8.990  0.3658 -0.3995 -0.3962
 8179SOL    HW126979   0.779   5.983   8.896  3.3704  0.0915 -0.6726
 8179SOL    HW226980   0.843   5.940   9.026  0.5570  0.5210  0.9489
 8180SOL     OW26981   4.992   5.871   4.277  0.1972  0.5085 -0.0995
 8180SOL    HW126982   4.972   5.887   4.185  0.7962 -0.4510 -0.4125
 8180SOL    HW226983   5.016   5.778   4.281 -0.4028  0.3809  1.1304
 8181SOL     OW26984   8.750   7.764   1.464  0.2362  0.4449 -0.0854
 8181SOL    HW126985   8.825   7.756   1.524  0.7619  1.8393 -0.5163
 8181SOL    HW226986   8.786   7.742   1.379  0.0414  0.6518 -0.2221
 8182SOL     OW26987   7.939   4.473   5.327  0.0325 -0.3017  0.0569
 8182SOL    HW126988   7.944   4.535   5.254  0.3695  0.3753  0.6446
 8182SOL    HW226989   8.026   4.476   5.367 -0.3981 -0.0493  0.9923
 8183SOL     OW26990   7.105   1.876   5.342  0.5861 -0.4320  0.3407
 8183SOL    HW126991   7.041   1.804   5.344 -0.0245  0.0745 -0.4059
 8183SOL    HW226992   7.100   1.910   5.253  1.1337  0.3112  0.5838
 8184SOL     OW26993   9.099   3.156   6.859 -0.0723  0.3863  0.0757
 8184SOL    HW126994   9.124   3.106   6.781  2.1796 -0.3172  1.1905
 8184SOL    HW226995   9.174   3.211   6.878  0.0170 -0.4811  2.5466
 8185SOL     OW26996   5.655   1.201  10.460 -0.5735  0.0690 -0.2915
 8185SOL    HW126997   5.722   1.241  10.405 -0.6351 -1.0379 -1.1843
 8185SOL    HW226998   5.663   1.247  10.544 -0.1242  1.4019 -1.0385
 8186SOL     OW26999   3.181   6.808  10.383 -0.3525 -0.0066 -0.3829
 8186SOL    HW127000   3.089   6.797  10.358 -0.3575  1.1369 -0.9608
 8186SOL    HW227001   3.210   6.884  10.332  1.3338 -1.2392 -1.3377
 8187SOL     OW27002   8.501  10.211   6.419  0.0089  0.1571 -0.1895
 8187SOL    HW127003   8.488  10.269   6.344 -1.8649 -1.3410 -1.0777
 8187SOL    HW227004   8.490  10.123   6.384 -1.1660 -0.5762  1.8744
 8188SOL     OW27005  10.009   8.730   2.426 -0.1122 -0.3411  0.1206
 8188SOL    HW127006  10.021   8.681   2.345 -0.8364 -0.3890  0.0282
 8188SOL    HW227007  10.097   8.744   2.460  0.1747 -0.6385 -0.4869
 8189SOL     OW27008   3.252   9.401   4.937  0.1335 -0.4507 -0.3697
 8189SOL    HW127009   3.158   9.409   4.950  0.2750 -0.6575  0.8612
 8189SOL    HW227010   3.262   9.388   4.842 -0.9044  1.9785 -0.8921
 8190SOL     OW27011   1.081   0.098   8.618  0.5782  0.1652 -0.1328
 8190SOL    HW127012   1.035   0.044   8.553  1.8130 -0.7184 -0.3196
 8190SOL    HW227013   1.022   0.099   8.693 -0.5634  0.6138 -0.9971
 8191SOL     OW27014   3.778   2.119   9.312  0.2003  0.1814 -0.1046
 8191SOL    HW127015   3.867   2.085   9.302  0.2735  0.1652  0.5443
 8191SOL    HW227016   3.772   2.144   9.404 -1.3680 -2.4186  0.6119
 8192SOL     OW27017   7.127   1.418   9.848 -0.1078 -0.1021  0.4182
 8192SOL    HW127018   7.211   1.378   9.823 -0.6805 -1.4725  0.6036
 8192SOL    HW227019   7.084   1.352   9.902 -1.6459  0.2653 -0.3169
 8193SOL     OW27020   9.944   8.823   3.687  0.1338 -0.4400 -0.0662
 8193SOL    HW127021  10.006   8.893   3.666  0.4596 -0.5014  0.6550
 8193SOL    HW227022   9.922   8.838   3.779  0.7496 -1.7075  0.2986
 8194SOL     OW27023  10.284   3.101   4.193  0.1009 -0.2434  0.1411
 8194SOL    HW127024  10.260   3.182   4.238  1.9567  0.1184  0.5706
 8194SOL    HW227025  10.378   3.092   4.207  0.9178  0.0367 -3.8336
 8195SOL     OW27026   6.544   3.496   4.770 -0.0868  0.5500  0.5028
 8195SOL    HW127027   6.524   3.459   4.684 -0.9416 -0.4789  1.1144
 8195SOL    HW227028   6.532   3.423   4.830  1.4503  0.9996  1.4060
 8196SOL     OW27029   5.464   0.428  10.115  0.2984 -0.1768 -0.3608
 8196SOL    HW127030   5.530   0.359  10.107 -1.5163 -1.8916 -1.0738
 8196SOL    HW227031   5.446   0.433  10.209 -0.3566 -1.4929 -0.3961
 8197SOL     OW27032   6.056   6.655   3.515  0.0110 -0.3971  0.1119
 8197SOL    HW127033   5.994   6.708   3.565  0.8458  0.7687 -0.0203
 8197SOL    HW227034   6.077   6.581   3.571  1.1067  0.9981  1.6370
 8198SOL     OW27035   6.522   5.889   0.138  0.1041  0.5869  0.3189
 8198SOL    HW127036   6.475   5.964   0.175 -1.5791  0.9257 -2.2765
 8198SOL    HW227037   6.495   5.887   0.046  0.3170 -3.0534  0.2111
 8199SOL     OW27038   2.012   8.329   6.190 -0.5535  0.6041  0.2483
 8199SOL    HW127039   1.932   8.352   6.143 -0.2872 -0.8248 -0.9644
 8199SOL    HW227040   2.050   8.413   6.216 -0.8472  1.4418 -1.8602
 8200SOL     OW27041   7.709   4.640  10.096 -0.6298  0.2804 -0.1073
 8200SOL    HW127042   7.624   4.600  10.075 -0.0575 -0.7949 -0.4454
 8200SOL    HW227043   7.688   4.704  10.165 -1.8454  0.7025 -0.8274
 8201SOL     OW27044   0.364   2.727   7.749  0.2775  0.0858 -0.0134
 8201SOL    HW127045   0.340   2.819   7.756  1.1505  0.2982  0.2304
 8201SOL    HW227046   0.459   2.727   7.739  0.3985 -0.8312  1.0211
 8202SOL     OW27047   3.519   8.358   4.578  0.5696  0.2605 -0.1903
 8202SOL    HW127048   3.578   8.286   4.601 -0.5695 -0.9581 -0.9548
 8202SOL    HW227049   3.576   8.424   4.539  1.6190 -0.2535  0.4296
 8203SOL     OW27050   5.763   3.196   5.059  0.6833  0.3472 -0.6349
 8203SOL    HW127051   5.679   3.204   5.013  0.6039  1.7644 -0.2979
 8203SOL    HW227052   5.816   3.268   5.024  0.9593  0.8493  0.7585
 8204SOL     OW27053   5.569   2.263   2.071 -0.3496 -0.1378  0.5800
 8204SOL    HW127054   5.497   2.219   2.026 -0.6307 -0.8891  1.7448
 8204SOL    HW227055   5.526   2.323   2.132  0.0331  0.8414 -0.0749
 8205SOL     OW27056   6.856  10.088   1.750  0.1497 -0.4380  0.0554
 8205SOL    HW127057   6.886  10.087   1.840 -0.8090 -1.9746  0.4098
 8205SOL    HW227058   6.774  10.137   1.752  1.1515  1.3531 -0.4080
 8206SOL     OW27059   7.803   5.674   1.803 -0.2398  0.6461 -0.2049
 8206SOL    HW127060   7.883   5.657   1.753 -1.6048 -1.2507 -1.9150
 8206SOL    HW227061   7.827   5.654   1.893  1.3251  0.4918 -0.6202
 8207SOL     OW27062   0.951   0.392  10.047  0.9050  0.4510  0.1782
 8207SOL    HW127063   0.958   0.470  10.103  1.6734 -0.0973  0.8643
 8207SOL    HW227064   0.930   0.322  10.108  1.9079 -0.1893 -0.1920
 8208SOL     OW27065   8.286   6.064   7.463  0.4523 -0.0485  0.1989
 8208SOL    HW127066   8.278   6.156   7.486  1.2215 -0.0900  0.7017
 8208SOL    HW227067   8.294   6.063   7.368 -0.1621  0.3493  0.1407
 8209SOL     OW27068  10.460   7.371   0.132  0.7518  0.2360 -0.6322
 8209SOL    HW127069  10.407   7.385   0.054 -0.3862 -0.9602 -0.1119
 8209SOL    HW227070  10.523   7.303   0.107  0.8703  0.3786 -0.7224
 8210SOL     OW27071   7.571   3.585   9.901 -0.1610 -0.7134 -0.1034
 8210SOL    HW127072   7.665   3.587   9.880  0.1150  1.7594  1.0199
 8210SOL    HW227073   7.567   3.600   9.995 -1.7158  0.3333 -0.3024
 8211SOL     OW27074   6.519   3.304   8.983  0.1174  0.0382  0.0558
 8211SOL    HW127075   6.436   3.324   9.025  0.7069 -0.1534  1.3731
 8211SOL    HW227076   6.575   3.272   9.054  0.9472 -0.9789 -1.0017
 8212SOL     OW27077   9.311   4.206   9.527  0.3936 -0.1882 -0.1539
 8212SOL    HW127078   9.311   4.110   9.529  0.1413 -0.2200 -1.2898
 8212SOL    HW227079   9.267   4.229   9.445  1.4369  0.8912 -0.4345
 8213SOL     OW27080   4.364   2.575   1.397 -0.3614  0.0564  0.0933
 8213SOL    HW127081   4.281   2.546   1.436 -0.6034  2.3501  1.5243
 8213SOL    HW227082   4.425   2.579   1.471  0.1409  1.2749 -0.3552
 8214SOL     OW27083   2.283   2.338  10.296  0.2616 -0.0706 -0.3108
 8214SOL    HW127084   2.191   2.340  10.322 -0.0072 -0.5975 -1.1807
 8214SOL    HW227085   2.285   2.282  10.218  1.2155  0.4851 -0.7050
 8215SOL     OW27086   1.933   9.049   6.012 -0.1706  0.2477  0.2158
 8215SOL    HW127087   1.936   8.979   5.946 -0.5394 -0.3802  0.8602
 8215SOL    HW227088   2.001   9.111   5.984 -3.0494  2.2558 -3.2692
 8216SOL     OW27089   1.938   7.370   5.806 -0.1850  0.2529  0.0058
 8216SOL    HW127090   1.905   7.459   5.791 -2.7002 -0.7121 -0.6130
 8216SOL    HW227091   2.031   7.375   5.781 -0.0641  2.8250  0.6254
 8217SOL     OW27092   7.030   9.483   5.870 -0.7045 -0.6479  0.0457
 8217SOL    HW127093   6.962   9.417   5.855 -0.0308 -1.4899  0.6136
 8217SOL    HW227094   7.024   9.541   5.794 -0.6840 -1.9055 -0.9506
 8218SOL     OW27095   7.361   1.433   6.598 -0.4428  0.3451 -0.3212
 8218SOL    HW127096   7.447   1.433   6.557 -0.5458  0.5395 -0.5419
 8218SOL    HW227097   7.378   1.448   6.691 -0.2743  0.9778 -0.4477
 8219SOL     OW27098   1.668   7.380   0.838  0.6816 -0.1723  0.2166
 8219SOL    HW127099   1.680   7.441   0.766  0.7111 -0.0814  0.2990
 8219SOL    HW227100   1.669   7.294   0.796  0.8006 -0.1250  0.1209
 8220SOL     OW27101   6.291   3.260   4.887  0.0420  1.1543 -0.2577
 8220SOL    HW127102   6.381   3.242   4.913  0.0603  0.7491 -0.5769
 8220SOL    HW227103   6.238   3.205   4.945  0.0726  0.4123 -0.9092
 8221SOL     OW27104   0.726   9.791   8.254 -0.3738  0.1067  0.2722
 8221SOL    HW127105   0.727   9.722   8.188  0.5215  2.2822 -2.1891
 8221SOL    HW227106   0.704   9.747   8.336 -2.5788 -2.6316 -1.6166
 8222SOL     OW27107   5.906   5.582   5.261 -0.6446 -0.1467 -0.7376
 8222SOL    HW127108   5.890   5.517   5.328 -0.6670 -0.1607 -0.7570
 8222SOL    HW227109   5.878   5.541   5.179  0.9652 -0.7903 -1.0056
 8223SOL     OW27110   8.540   3.473   5.162  0.2174 -0.2807  0.6769
 8223SOL    HW127111   8.582   3.554   5.132  0.3336 -0.3689  0.6007
 8223SOL    HW227112   8.478   3.450   5.093 -0.8311  0.4961  1.3264
 8224SOL     OW27113   6.606   8.695   5.289 -0.5738  0.3858  0.0170
 8224SOL    HW127114   6.583   8.735   5.205 -0.1761  1.0141  0.2045
 8224SOL    HW227115   6.528   8.706   5.343 -0.7733  0.1257 -0.2123
 8225SOL     OW27116   2.535   0.671   5.911 -0.2889  0.8190 -1.5914
 8225SOL    HW127117   2.629   0.662   5.927 -0.4846 -1.0277 -1.2981
 8225SOL    HW227118   2.497   0.685   5.998 -0.4338 -0.1927 -1.4734
 8226SOL     OW27119   7.489   7.037   5.702 -0.0827 -0.8851 -0.1733
 8226SOL    HW127120   7.551   6.990   5.646  0.6950 -0.1495  0.0595
 8226SOL    HW227121   7.415   7.057   5.644  0.4874 -0.5851 -0.8075
 8227SOL     OW27122  10.273  10.029   2.322 -0.0417  0.5522 -0.5230
 8227SOL    HW127123  10.250   9.955   2.379 -0.1887  0.4753 -0.6840
 8227SOL    HW227124  10.334  10.081   2.375 -0.5372  0.7345 -0.1166
 8228SOL     OW27125   9.460   8.018   9.415  0.5763 -0.1580  0.1130
 8228SOL    HW127126   9.463   8.051   9.326 -0.9787  3.4630  1.2239
 8228SOL    HW227127   9.543   8.045   9.454  0.2897  0.3934  0.3622
 8229SOL     OW27128   0.308   0.864   2.668 -0.1357  0.7175 -0.5200
 8229SOL    HW127129   0.309   0.937   2.606  0.8610  1.3645  0.2219
 8229SOL    HW227130   0.336   0.903   2.751  0.9090 -0.5953 -0.2155
 8230SOL     OW27131   8.401   7.904   8.406  0.0107 -0.5020  0.0285
 8230SOL    HW127132   8.483   7.860   8.385  0.7269 -0.1191  1.8807
 8230SOL    HW227133   8.414   7.994   8.378 -0.2578 -0.6991 -0.7784
 8231SOL     OW27134   8.694   6.582   5.345 -0.3510  0.1708  0.6345
 8231SOL    HW127135   8.654   6.654   5.393  0.5439  0.3892  1.0709
 8231SOL    HW227136   8.671   6.598   5.253 -0.7835  0.5944  0.8137
 8232SOL     OW27137   2.694   4.286   6.580 -0.4484 -0.0648  0.1819
 8232SOL    HW127138   2.639   4.215   6.547 -0.6924  0.9305 -1.6837
 8232SOL    HW227139   2.730   4.327   6.501 -0.0247  1.6622  1.2203
 8233SOL     OW27140   5.952   7.769   0.436  0.3712 -0.0915 -0.1741
 8233SOL    HW127141   5.883   7.712   0.470  0.9619 -0.5695  0.2458
 8233SOL    HW227142   5.921   7.794   0.349 -0.7164  0.3819  0.3217
 8234SOL     OW27143   6.261   7.043   2.865 -0.9620 -0.4378 -0.8373
 8234SOL    HW127144   6.351   7.020   2.841 -1.0299  0.2590 -1.8763
 8234SOL    HW227145   6.214   7.044   2.781 -1.9140 -0.7014 -0.3154
 8235SOL     OW27146   2.766   4.294   9.250 -0.2292 -0.7179 -0.0554
 8235SOL    HW127147   2.789   4.363   9.188 -0.4537 -1.5400 -1.0821
 8235SOL    HW227148   2.711   4.234   9.199  0.2672 -1.8477  0.7126
 8236SOL     OW27149   4.594   9.116   7.669 -0.4689  0.3318 -0.1671
 8236SOL    HW127150   4.598   9.174   7.593 -2.7514  2.1224  0.9472
 8236SOL    HW227151   4.521   9.057   7.651  0.0661 -0.3758 -0.0706
 8237SOL     OW27152   5.696   7.136   9.708  0.1126  0.1267 -0.2334
 8237SOL    HW127153   5.629   7.182   9.658  0.3494 -0.2995 -0.9614
 8237SOL    HW227154   5.650   7.063   9.748 -0.4276  1.3569  1.5345
 8238SOL     OW27155   5.114   6.762   6.437 -0.0885  0.1130  0.0295
 8238SOL    HW127156   5.205   6.741   6.455 -0.1883 -1.9145 -1.4611
 8238SOL    HW227157   5.104   6.853   6.465  1.7391 -0.3253  2.3797
 8239SOL     OW27158   3.074   6.216   4.507 -1.1016  0.2755 -0.1216
 8239SOL    HW127159   3.135   6.161   4.556 -0.5865  0.9492  0.0062
 8239SOL    HW227160   3.093   6.197   4.415 -0.4530  0.7324 -0.0894
 8240SOL     OW27161   3.018   7.770   3.571  0.1921 -0.2124 -0.0401
 8240SOL    HW127162   3.051   7.706   3.634  0.7420 -0.4620 -0.5661
 8240SOL    HW227163   2.996   7.847   3.624  1.1920 -0.2045  0.3959
 8241SOL     OW27164   7.900   7.007   0.129  0.6900 -0.0307 -0.0303
 8241SOL    HW127165   7.834   7.044   0.187  0.0859  1.6720 -1.7204
 8241SOL    HW227166   7.957   7.081   0.108  1.4966 -0.8505 -0.8158
 8242SOL     OW27167   1.635   8.823  10.039 -0.4291 -0.1232 -0.3643
 8242SOL    HW127168   1.728   8.827  10.063 -0.1322 -0.1372 -1.4557
 8242SOL    HW227169   1.629   8.873   9.957 -1.5426  0.5873  0.1211
 8243SOL     OW27170   8.259   0.088   9.280 -0.3188 -0.0855 -0.3178
 8243SOL    HW127171   8.235   0.172   9.241  1.2737  0.9478  0.8244
 8243SOL    HW227172   8.180   0.059   9.325 -1.4642 -0.1539 -2.2504
 8244SOL     OW27173   4.864   2.265   0.945  0.7415  0.5034  0.7459
 8244SOL    HW127174   4.872   2.261   1.040  0.0380 -1.3320  0.7664
 8244SOL    HW227175   4.786   2.214   0.924  0.8996  0.8261 -0.8316
 8245SOL     OW27176   3.539   6.643   9.178 -0.4027 -0.1062  0.0915
 8245SOL    HW127177   3.454   6.636   9.135 -1.4768 -0.3488  2.1573
 8245SOL    HW227178   3.575   6.554   9.174 -0.3490 -0.0638 -0.5311
 8246SOL     OW27179   4.192   7.512   6.138  0.0993 -0.4103 -0.0114
 8246SOL    HW127180   4.187   7.598   6.096  0.6016 -0.0884  0.5662
 8246SOL    HW227181   4.261   7.466   6.090  1.3022  0.2808  0.9861
 8247SOL     OW27182   2.175   4.319   9.694  0.1443 -0.3530 -0.2179
 8247SOL    HW127183   2.197   4.353   9.781  0.1128  0.5846 -0.5750
 8247SOL    HW227184   2.103   4.373   9.664  0.4638 -0.3700 -1.0281
 8248SOL     OW27185   3.815   5.493   5.041 -0.0637 -0.2996 -0.0812
 8248SOL    HW127186   3.890   5.451   5.083  0.1503 -0.3074 -0.4701
 8248SOL    HW227187   3.745   5.427   5.048  0.6627 -1.3421 -1.9791
 8249SOL     OW27188   5.160   6.357   6.155  0.2511  0.3927 -0.4348
 8249SOL    HW127189   5.105   6.279   6.160 -1.6195  1.5201 -2.1473
 8249SOL    HW227190   5.245   6.325   6.125 -0.0857 -1.1232  0.1519
 8250SOL     OW27191   3.359   5.792   8.403 -0.2668 -0.5874 -0.3100
 8250SOL    HW127192   3.407   5.714   8.430 -1.0820 -0.8550  0.4089
 8250SOL    HW227193   3.400   5.818   8.320  2.1961  0.1743  1.0678
 8251SOL     OW27194   9.910   7.196   1.889  0.2346 -0.4522  0.1492
 8251SOL    HW127195   9.898   7.289   1.874  0.5860 -0.6261 -1.4628
 8251SOL    HW227196   9.871   7.179   1.975 -0.5472  1.0210  0.1077
 8252SOL     OW27197   7.722   7.601   6.821 -0.3802 -0.1409  0.1121
 8252SOL    HW127198   7.639   7.559   6.798  0.2181  0.3880 -3.7463
 8252SOL    HW227199   7.785   7.529   6.821 -0.0077  0.0800 -2.6257
 8253SOL     OW27200   0.870   6.001   2.864 -0.7408  0.5251  0.2397
 8253SOL    HW127201   0.852   6.040   2.779  0.1005  0.0261 -0.1846
 8253SOL    HW227202   0.933   6.061   2.905  0.4875 -0.3138 -0.3786
 8254SOL     OW27203   4.928   7.929   1.820 -0.4307  0.6586  0.3781
 8254SOL    HW127204   4.929   7.834   1.808  1.4946  0.5861  0.8262
 8254SOL    HW227205   4.937   7.941   1.914  0.4847  1.2699  0.2266
 8255SOL     OW27206   1.713   9.291   2.501  0.3121  0.6312 -0.0406
 8255SOL    HW127207   1.713   9.309   2.407 -0.3628  2.6279  0.2954
 8255SOL    HW227208   1.770   9.215   2.511 -1.0510 -0.8060 -2.2481
 8256SOL     OW27209   0.133   4.496  10.170  0.0173 -0.3733  0.1767
 8256SOL    HW127210   0.191   4.559  10.127 -0.0527  1.3291  2.3603
 8256SOL    HW227211   0.047   4.512  10.131 -0.3870  2.2691  1.8491
 8257SOL     OW27212   0.327   3.416   8.495  0.9337  0.5443  0.0531
 8257SOL    HW127213   0.322   3.478   8.567  0.3600 -0.9878  1.4000
 8257SOL    HW227214   0.260   3.446   8.433  0.5806  1.1794  0.7318
 8258SOL     OW27215   9.661  10.375   8.058  0.0997 -0.4658  0.1185
 8258SOL    HW127216   9.730  10.438   8.040 -0.2103 -0.6172 -1.8992
 8258SOL    HW227217   9.704  10.290   8.056  0.3576 -0.4101  1.9339
 8259SOL     OW27218   7.736   8.101   6.739 -0.4374 -0.0103  0.1443
 8259SOL    HW127219   7.800   8.034   6.763 -0.0360  0.5603  0.7397
 8259SOL    HW227220   7.677   8.058   6.677 -1.3028 -1.4560  1.8904
 8260SOL     OW27221   8.071   4.033   8.625 -0.7254 -0.3215 -0.1460
 8260SOL    HW127222   7.998   3.973   8.637 -1.0564  0.2158  0.5590
 8260SOL    HW227223   8.146   3.987   8.663 -1.3239  0.4335  2.0998
 8261SOL     OW27224   7.064   7.365   8.914 -0.2256 -0.3548  0.1870
 8261SOL    HW127225   7.132   7.325   8.858  0.6188  1.6137 -0.2775
 8261SOL    HW227226   7.109   7.381   8.997 -0.0038  1.1638 -0.1958
 8262SOL     OW27227   1.277   2.029   9.261  0.2994 -0.7658  0.8693
 8262SOL    HW127228   1.248   1.957   9.317  0.1424 -0.1229  1.6288
 8262SOL    HW227229   1.319   2.091   9.322 -1.7116  0.9366  0.6208
 8263SOL     OW27230   6.295   9.692   3.187  0.2868 -0.0969 -0.4200
 8263SOL    HW127231   6.272   9.617   3.132 -0.6526  0.0285 -0.2178
 8263SOL    HW227232   6.327   9.653   3.268 -1.0306 -0.3029  0.0229
 8264SOL     OW27233   7.514   8.856   2.025 -0.4212  0.7708  0.1332
 8264SOL    HW127234   7.521   8.945   1.990 -2.9238 -0.0953 -3.1198
 8264SOL    HW227235   7.425   8.829   2.002  0.3767 -2.7067  0.6411
 8265SOL     OW27236   9.502   3.566   1.288 -0.0720  0.5120 -0.2271
 8265SOL    HW127237   9.454   3.519   1.357 -0.5281  0.1382 -0.7820
 8265SOL    HW227238   9.535   3.645   1.331  0.7333 -0.3233  0.7348
 8266SOL     OW27239   2.109   1.217   9.637  0.0540  0.2771  0.2606
 8266SOL    HW127240   2.112   1.134   9.684  0.6745  0.7632  1.0911
 8266SOL    HW227241   2.038   1.205   9.573  1.1719 -1.4503 -0.7265
 8267SOL     OW27242   3.591   7.004   6.850  0.1300 -0.6646 -0.0642
 8267SOL    HW127243   3.512   7.055   6.869  0.5042 -0.6999  1.7990
 8267SOL    HW227244   3.660   7.070   6.844  0.4277 -0.8314  1.2477
 8268SOL     OW27245   3.067   6.289   7.383  0.7658 -0.2471 -0.0376
 8268SOL    HW127246   3.064   6.302   7.288  1.6192 -0.9009 -0.1643
 8268SOL    HW227247   2.976   6.303   7.412  0.4595 -0.2325 -0.9699
 8269SOL     OW27248   9.127   1.313   7.259  0.1752 -0.0037  0.3491
 8269SOL    HW127249   9.200   1.255   7.239 -0.0644  0.8654 -3.8961
 8269SOL    HW227250   9.051   1.255   7.261  0.1639 -0.2045 -2.1888
 8270SOL     OW27251   6.842   4.869   7.323  0.1672 -0.0630 -0.5664
 8270SOL    HW127252   6.817   4.810   7.251 -3.2658 -0.2029  0.5808
 8270SOL    HW227253   6.852   4.811   7.399 -0.3875  0.5034 -0.0507
 8271SOL     OW27254   4.426   6.463   4.073 -0.3273  0.1903  0.6961
 8271SOL    HW127255   4.391   6.441   3.987  0.1953  0.0592  0.5107
 8271SOL    HW227256   4.387   6.399   4.132  2.5730 -2.6234 -0.0940
 8272SOL     OW27257   8.429   9.273   7.722  0.2753 -0.6163 -0.1424
 8272SOL    HW127258   8.339   9.290   7.753  0.0949  0.7164 -1.2975
 8272SOL    HW227259   8.454   9.353   7.677  2.7636 -0.2419  1.6989
 8273SOL     OW27260   2.012   5.305   2.379 -0.1932 -0.0331 -0.7390
 8273SOL    HW127261   1.934   5.261   2.344  0.9108 -1.2870 -1.7190
 8273SOL    HW227262   2.033   5.372   2.314 -0.4698  0.3387 -0.4496
 8274SOL     OW27263   7.871   2.407   4.456  0.0502  0.1216 -0.4635
 8274SOL    HW127264   7.781   2.440   4.461 -0.9671 -2.5708  0.7692
 8274SOL    HW227265   7.919   2.460   4.520 -1.0683  0.4338  0.1353
 8275SOL     OW27266  10.181   4.900   5.741  0.0488  0.0770  0.3423
 8275SOL    HW127267  10.208   4.890   5.649  0.0303 -2.1082  0.5309
 8275SOL    HW227268  10.261   4.887   5.791 -0.2209 -0.3028  0.6823
 8276SOL     OW27269   0.462   2.443   4.568 -0.8845  0.5851 -0.6578
 8276SOL    HW127270   0.394   2.500   4.605 -0.6563  0.0676  0.6020
 8276SOL    HW227271   0.415   2.367   4.536 -0.9056  0.2135  0.2413
 8277SOL     OW27272   3.151   1.238   2.182  0.2575 -0.2639 -0.6374
 8277SOL    HW127273   3.177   1.170   2.244  0.4490  0.8570  0.5412
 8277SOL    HW227274   3.211   1.310   2.199 -2.7289  1.9812  1.3989
 8278SOL     OW27275   0.408   3.007   0.990 -0.6155  0.6406  0.2870
 8278SOL    HW127276   0.341   3.073   0.974 -1.9878 -0.4850  1.2213
 8278SOL    HW227277   0.364   2.923   0.978  1.1147 -0.1573 -0.9754
 8279SOL     OW27278   1.098   7.841   7.132  0.7603  0.1715  0.1179
 8279SOL    HW127279   1.053   7.759   7.150 -0.0203  0.3246 -0.9839
 8279SOL    HW227280   1.064   7.868   7.046  0.5976  1.9108  0.6937
 8280SOL     OW27281   5.285   2.204   6.820 -0.5644  0.0174  0.0012
 8280SOL    HW127282   5.266   2.290   6.783  0.2985 -0.2061 -1.0099
 8280SOL    HW227283   5.200   2.170   6.849 -0.8588  1.3584  0.7708
 8281SOL     OW27284   3.687   2.634   4.506  0.4014 -0.2550 -0.0117
 8281SOL    HW127285   3.715   2.723   4.489 -2.1785  0.6652  0.1115
 8281SOL    HW227286   3.663   2.599   4.420  0.0438 -0.3361  0.1220
 8282SOL     OW27287   6.936   6.990   0.734 -0.5581 -0.0382 -0.3239
 8282SOL    HW127288   6.955   6.898   0.750  0.2798 -0.0366 -1.2505
 8282SOL    HW227289   6.985   7.036   0.803  0.7816 -0.1873 -1.1327
 8283SOL     OW27290   6.290   3.738   8.111  0.2267 -1.0820  0.1094
 8283SOL    HW127291   6.197   3.744   8.088 -0.6956 -1.8220  3.1082
 8283SOL    HW227292   6.327   3.821   8.082 -1.3876 -0.7323 -1.1005
 8284SOL     OW27293   2.144   0.193   9.598  0.2634 -0.3700  0.0957
 8284SOL    HW127294   2.070   0.185   9.537  0.5384 -1.4463 -0.1151
 8284SOL    HW227295   2.138   0.283   9.631 -0.7903 -0.2516 -0.3667
 8285SOL     OW27296   2.215   9.182   1.506  0.4436 -0.1315  0.1882
 8285SOL    HW127297   2.245   9.263   1.548 -0.0887 -0.4209  1.1553
 8285SOL    HW227298   2.273   9.171   1.430  0.6554  1.0343  0.1749
 8286SOL     OW27299   8.355   3.934  10.029 -0.4626  0.1412  0.5830
 8286SOL    HW127300   8.283   3.996  10.039  0.4448  1.1404  1.0480
 8286SOL    HW227301   8.312   3.849  10.018 -1.7683  0.9836 -1.4423
 8287SOL     OW27302   4.752   6.611   1.841  0.6082 -0.2672 -0.0335
 8287SOL    HW127303   4.698   6.671   1.790 -0.7282  0.2681  1.9461
 8287SOL    HW227304   4.830   6.662   1.863 -0.8744  1.1464  2.3345
 8288SOL     OW27305   5.448   9.152   2.304 -0.1507 -0.2064  0.6175
 8288SOL    HW127306   5.415   9.154   2.214  1.0988 -1.7038  0.0679
 8288SOL    HW227307   5.448   9.244   2.332 -2.1431  0.1188 -0.2749
 8289SOL     OW27308   1.910   4.942   2.501  0.4143 -0.5288 -0.5249
 8289SOL    HW127309   1.850   4.967   2.571  1.0458 -0.5178  0.0206
 8289SOL    HW227310   1.997   4.961   2.536  0.7340 -0.3575 -1.3761
 8290SOL     OW27311   8.310   0.273   4.733  0.2493  1.2601 -0.3197
 8290SOL    HW127312   8.344   0.201   4.680  3.1228  2.6003 -0.4947
 8290SOL    HW227313   8.226   0.241   4.766  0.9916 -1.7954 -1.0645
 8291SOL     OW27314   0.500   2.754   9.256  0.3381  0.4032  0.3086
 8291SOL    HW127315   0.461   2.667   9.248  0.1117  0.5089  0.2358
 8291SOL    HW227316   0.425   2.814   9.256  0.5337  0.6669 -0.6367
 8292SOL     OW27317   1.404   2.012   8.652  0.3012 -0.1221 -0.6851
 8292SOL    HW127318   1.464   2.013   8.577  0.3331  1.8909 -0.6875
 8292SOL    HW227319   1.411   2.100   8.689 -3.4380  0.6135 -1.3407
 8293SOL     OW27320   7.754   6.112   9.865 -0.5185 -0.0484  0.4847
 8293SOL    HW127321   7.822   6.172   9.897 -0.2666  0.0281 -0.1707
 8293SOL    HW227322   7.756   6.124   9.770 -2.7321  1.3244  0.5511
 8294SOL     OW27323   6.251   4.601   1.488  0.4371 -0.3950  0.2366
 8294SOL    HW127324   6.302   4.544   1.545  0.3361 -0.2467  0.4783
 8294SOL    HW227325   6.215   4.667   1.547  1.4082  0.5353 -0.2076
 8295SOL     OW27326   1.678   6.565   0.164  0.5322 -0.0893 -0.1688
 8295SOL    HW127327   1.624   6.598   0.093 -0.4686 -0.8222  0.2366
 8295SOL    HW227328   1.685   6.471   0.147 -1.5217 -0.6838  1.8256
 8296SOL     OW27329   8.706   9.146   8.884  0.2706  0.2651  0.2145
 8296SOL    HW127330   8.626   9.123   8.931  0.0503 -0.5094 -0.5140
 8296SOL    HW227331   8.704   9.242   8.877 -0.1617  0.3130  0.9377
 8297SOL     OW27332   0.775   9.285   2.322  0.6542  0.7741  0.6834
 8297SOL    HW127333   0.841   9.253   2.261  0.4733  2.0437 -0.2048
 8297SOL    HW227334   0.736   9.360   2.279 -3.4447 -1.5429 -0.1310
 8298SOL     OW27335  10.114   5.096   4.374 -0.5862 -0.4304  0.2922
 8298SOL    HW127336  10.105   5.191   4.372 -1.0486 -0.4704  0.4843
 8298SOL    HW227337  10.206   5.081   4.395 -0.1289 -0.0211 -1.2399
 8299SOL     OW27338   9.694   1.240   0.727  0.4072 -0.3067 -0.9750
 8299SOL    HW127339   9.610   1.198   0.709  0.3180 -0.8008  0.4941
 8299SOL    HW227340   9.671   1.323   0.769  0.6372 -0.9749  0.5334
 8300SOL     OW27341   5.552   9.711   7.871 -0.5217  0.3580  0.6162
 8300SOL    HW127342   5.517   9.682   7.955 -0.8814  0.5298  0.5285
 8300SOL    HW227343   5.608   9.786   7.892  1.0535 -0.8721  0.9368
 8301SOL     OW27344   2.965   4.938   4.400  0.5264 -0.5530  0.2580
 8301SOL    HW127345   3.051   4.911   4.367 -0.2878  0.3695 -2.9289
 8301SOL    HW227346   2.902   4.894   4.343 -1.0614  0.7226  0.9261
 8302SOL     OW27347   6.544   1.205   4.427 -0.1766 -0.3166 -0.2957
 8302SOL    HW127348   6.616   1.261   4.455 -0.9472  0.5807 -0.0673
 8302SOL    HW227349   6.578   1.116   4.436 -0.0109 -0.0692  2.5887
 8303SOL     OW27350   4.912   7.930   7.969  0.4132  0.5054  0.2179
 8303SOL    HW127351   4.944   7.994   8.031  0.8564 -0.3557  0.9087
 8303SOL    HW227352   4.953   7.848   7.996 -0.5940 -0.1878 -0.2818
 8304SOL     OW27353   9.525   7.215   7.678  0.4137  0.3688 -0.2948
 8304SOL    HW127354   9.475   7.284   7.635  1.8801  0.7832 -1.4186
 8304SOL    HW227355   9.462   7.144   7.691 -0.5127  0.9369 -1.4836
 8305SOL     OW27356   5.103   8.677   1.451 -0.1330  0.6745 -0.5862
 8305SOL    HW127357   5.176   8.738   1.462 -0.7809  1.0584  2.4440
 8305SOL    HW227358   5.035   8.711   1.509 -0.9643 -2.2723  0.2918
 8306SOL     OW27359  10.215   0.382   9.524 -0.4027  0.0154 -0.2067
 8306SOL    HW127360  10.209   0.287   9.526 -1.5227  0.0687 -0.7083
 8306SOL    HW227361  10.243   0.402   9.434 -1.6407  0.2230 -0.5573
 8307SOL     OW27362   9.667   6.684   3.682 -0.0647  0.1234 -0.3236
 8307SOL    HW127363   9.746   6.631   3.674  0.1621  0.2787  0.7678
 8307SOL    HW227364   9.628   6.681   3.595 -0.0499 -1.8246 -0.3184
 8308SOL     OW27365   1.091   4.400   7.198  0.2499 -0.6636  0.3416
 8308SOL    HW127366   1.073   4.367   7.110 -0.9894 -0.5278  0.5177
 8308SOL    HW227367   1.184   4.386   7.210  0.5549 -0.2047 -1.1946
 8309SOL     OW27368   6.086   0.120   6.715 -0.2122 -0.7292 -0.2821
 8309SOL    HW127369   6.114   0.195   6.663  0.1239  0.0480  0.9908
 8309SOL    HW227370   6.086   0.047   6.653 -1.3251  0.4456 -1.7470
 8310SOL     OW27371   3.906   4.689   9.807 -0.5154  0.1840 -0.6163
 8310SOL    HW127372   3.956   4.609   9.817  1.1960  1.4196  1.7572
 8310SOL    HW227373   3.838   4.683   9.874 -1.0222  0.2803 -1.1178
 8311SOL     OW27374   5.241   5.094   8.218  0.3048  0.5984 -0.4093
 8311SOL    HW127375   5.249   5.019   8.277 -0.7073  0.3350 -0.5717
 8311SOL    HW227376   5.147   5.112   8.216  0.4836  1.5524 -0.7763
 8312SOL     OW27377   9.535   4.939   5.196 -0.2830  0.4693  0.1152
 8312SOL    HW127378   9.508   5.017   5.148 -1.5192 -0.6671 -1.1400
 8312SOL    HW227379   9.524   4.867   5.134  0.3111 -0.7868  1.3866
 8313SOL     OW27380   8.265   2.985   4.781 -0.6939 -0.3092  0.1810
 8313SOL    HW127381   8.283   2.948   4.695  0.8948 -1.0051  0.7872
 8313SOL    HW227382   8.188   2.937   4.812 -2.7776  1.5429 -1.7463
 8314SOL     OW27383  10.431   7.792   2.260 -0.2447 -0.0397  0.5972
 8314SOL    HW127384  10.523   7.772   2.276  0.0441  0.3115 -0.5599
 8314SOL    HW227385  10.384   7.746   2.330  0.7039 -1.2630  0.4561
 8315SOL     OW27386   4.486   2.913   0.594 -0.3549  0.0508 -0.0097
 8315SOL    HW127387   4.500   2.934   0.687  0.5384  0.8866 -0.3129
 8315SOL    HW227388   4.570   2.931   0.553 -1.1721  1.2364 -1.2490
 8316SOL     OW27389  10.103   4.761   5.208  0.0291  0.5261  0.5240
 8316SOL    HW127390  10.112   4.706   5.130 -0.5635  4.3132 -2.5373
 8316SOL    HW227391  10.016   4.741   5.242  0.5087 -1.5833  0.6191
 8317SOL     OW27392   4.107   6.190   4.540 -0.0872  0.1372  1.1899
 8317SOL    HW127393   4.082   6.205   4.449 -0.4449 -1.1294  1.0639
 8317SOL    HW227394   4.154   6.270   4.565 -0.0718  0.5471 -0.0636
 8318SOL     OW27395   0.460   4.820   7.869  0.4319 -0.0898  0.4839
 8318SOL    HW127396   0.495   4.744   7.823  0.2295  0.3853 -0.4694
 8318SOL    HW227397   0.446   4.790   7.959  1.4264 -0.8437  0.3887
 8319SOL     OW27398   2.603   7.240   1.951 -0.4843  0.3467 -0.4048
 8319SOL    HW127399   2.557   7.199   2.024 -0.7979  0.0779 -0.7487
 8319SOL    HW227400   2.632   7.324   1.985  2.8228 -1.2929  1.3015
 8320SOL     OW27401   7.128   4.624   9.979  0.0949 -0.1428  0.0914
 8320SOL    HW127402   7.123   4.668  10.064 -1.0267 -0.8014  0.3918
 8320SOL    HW227403   7.038   4.597   9.961  0.4531 -0.7034 -0.9451
 8321SOL     OW27404   8.341   8.398   0.390  0.0279  0.1236  0.1369
 8321SOL    HW127405   8.384   8.324   0.347  0.1725 -1.0985  2.2360
 8321SOL    HW227406   8.339   8.373   0.483 -3.2808  1.0802  0.4390
 8322SOL     OW27407   5.238   7.937   2.909  0.2577 -0.5773  0.0485
 8322SOL    HW127408   5.149   7.954   2.878 -0.7078 -1.9233  1.8752
 8322SOL    HW227409   5.256   8.007   2.971  0.0672 -0.8632  0.4292
 8323SOL     OW27410   3.461   8.728   7.762 -0.3014 -0.0414  0.1503
 8323SOL    HW127411   3.512   8.648   7.749  0.9137  1.0008 -2.2083
 8323SOL    HW227412   3.485   8.758   7.849  2.7456  0.0250 -0.5844
 8324SOL     OW27413   2.999   2.216   4.884  0.4229  0.1267  0.5047
 8324SOL    HW127414   2.975   2.306   4.863 -0.1424 -0.3477 -1.0411
 8324SOL    HW227415   2.925   2.164   4.853  1.6479 -1.0338 -0.5943
 8325SOL     OW27416   5.268   8.499   7.678  0.5368 -0.0325 -0.0943
 8325SOL    HW127417   5.239   8.579   7.722  0.1481  0.9082 -1.9815
 8325SOL    HW227418   5.361   8.492   7.701  0.3475  0.4070  0.8681
 8326SOL     OW27419   5.258   3.678   9.066 -0.6089 -0.1159 -0.4749
 8326SOL    HW127420   5.309   3.668   9.146 -1.7028 -0.7582  0.1759
 8326SOL    HW227421   5.208   3.596   9.060 -2.0469  0.7439 -0.7068
 8327SOL     OW27422   0.258   2.062   0.209 -0.2017 -0.5017 -0.1780
 8327SOL    HW127423   0.176   2.070   0.258  0.0305 -2.1308  0.5436
 8327SOL    HW227424   0.232   2.064   0.117 -0.6479  2.6218 -0.0856
 8328SOL     OW27425   2.798   3.297   9.159 -0.1483  0.1578  0.0123
 8328SOL    HW127426   2.836   3.212   9.137  2.7035  0.8918  1.5678
 8328SOL    HW227427   2.821   3.353   9.085  1.2596  0.3942  0.5848
 8329SOL     OW27428   9.779   6.125   1.348 -0.2780  0.0274  0.0760
 8329SOL    HW127429   9.840   6.197   1.334  2.8070 -2.7243 -2.0087
 8329SOL    HW227430   9.770   6.118   1.443  3.0302  0.3600  0.5111
 8330SOL     OW27431   7.233   7.080   9.650  0.0601 -0.0446  0.0431
 8330SOL    HW127432   7.262   7.165   9.615 -0.2673 -0.7520 -2.1092
 8330SOL    HW227433   7.203   7.032   9.573 -1.0887 -1.6093  1.4021
 8331SOL     OW27434   5.854   7.033   0.247  0.7569 -0.2175  0.5430
 8331SOL    HW127435   5.862   7.083   0.329  0.5842  0.3651  0.2112
 8331SOL    HW227436   5.921   7.070   0.190 -0.2039  0.5215 -0.1438
 8332SOL     OW27437   2.246   6.357   4.981  0.5773  0.4060  0.0004
 8332SOL    HW127438   2.312   6.296   4.948  1.7617  1.0086  1.1570
 8332SOL    HW227439   2.284   6.390   5.062 -0.8588  1.3077  0.3209
 8333SOL     OW27440   2.946   4.160   4.518 -0.0868  0.7106  0.1578
 8333SOL    HW127441   3.035   4.126   4.511  0.1865  1.1469  1.3944
 8333SOL    HW227442   2.905   4.108   4.587 -1.7051 -1.3497 -2.1675
 8334SOL     OW27443   0.276   0.157   3.057  0.0869 -0.0360  0.2329
 8334SOL    HW127444   0.187   0.158   3.092 -0.3625  0.2085 -0.8625
 8334SOL    HW227445   0.318   0.233   3.096 -0.8198  1.0123 -0.7654
 8335SOL     OW27446   8.670   1.446   7.742  0.4528 -0.2755 -0.2522
 8335SOL    HW127447   8.644   1.489   7.660  1.6009  0.1868 -0.3878
 8335SOL    HW227448   8.747   1.495   7.771 -0.3399  0.0068  1.4695
 8336SOL     OW27449   8.126   5.326   6.838  0.0434 -0.1221 -0.2144
 8336SOL    HW127450   8.191   5.389   6.805 -0.9044  1.0916  0.1574
 8336SOL    HW227451   8.055   5.381   6.872 -0.8486 -1.4095  0.0611
 8337SOL     OW27452   8.602   1.757   7.272  0.3865  0.1640  0.0864
 8337SOL    HW127453   8.607   1.726   7.362  0.5836 -0.0671 -0.0037
 8337SOL    HW227454   8.668   1.706   7.225  0.7338  0.7405 -0.0568
 8338SOL     OW27455   1.048   1.646   2.478  0.0289  0.0003 -0.2353
 8338SOL    HW127456   1.093   1.687   2.404  2.6024  1.1430  1.8327
 8338SOL    HW227457   1.116   1.631   2.543 -1.8558 -2.3855  1.3788
 8339SOL     OW27458   5.053   7.803   4.887 -0.8421 -0.2744 -0.0923
 8339SOL    HW127459   4.987   7.872   4.894 -0.8423 -0.3636  1.1807
 8339SOL    HW227460   5.018   7.732   4.942 -0.1849 -0.7405 -0.2694
 8340SOL     OW27461   2.597   0.078   9.394  0.0605 -0.4430  0.3745
 8340SOL    HW127462   2.516   0.125   9.414 -0.2396  0.1429 -1.9732
 8340SOL    HW227463   2.651   0.091   9.472 -1.4184  0.6241  1.2944
 8341SOL     OW27464   6.927   7.556   4.350 -0.6033  0.0555 -0.4654
 8341SOL    HW127465   6.994   7.622   4.335  0.7120 -1.1562 -0.1811
 8341SOL    HW227466   6.847   7.605   4.364  0.6135  1.6794  1.3228
 8342SOL     OW27467   5.023   9.003   4.965 -0.0502 -0.1405 -0.4134
 8342SOL    HW127468   4.937   8.962   4.954  0.0154 -0.9110  1.6151
 8342SOL    HW227469   5.004   9.097   4.975 -0.8653 -0.4812  1.7118
 8343SOL     OW27470   6.257   2.640   2.222 -0.0240  0.1766 -0.0873
 8343SOL    HW127471   6.351   2.657   2.216 -0.1182  0.7710  0.0408
 8343SOL    HW227472   6.222   2.669   2.137  0.0807 -1.3074 -0.6716
 8344SOL     OW27473   0.275  10.484   8.086 -0.7034  0.2254 -0.9960
 8344SOL    HW127474   0.294  10.408   8.141  0.6110  0.8262 -0.5804
 8344SOL    HW227475   0.326  10.470   8.007 -0.0028  0.9328 -0.6839
 8345SOL     OW27476   6.419   5.009   3.384  0.2981  0.0954 -0.0190
 8345SOL    HW127477   6.512   5.028   3.398 -0.2518  2.6340  0.6744
 8345SOL    HW227478   6.387   4.980   3.469  0.3651 -0.3378 -0.1423
 8346SOL     OW27479   8.026   6.711   8.465  0.1847 -0.3991  0.3789
 8346SOL    HW127480   7.954   6.750   8.416  2.6883  2.5658 -1.3095
 8346SOL    HW227481   8.053   6.779   8.527  1.2721 -1.6128  1.3175
 8347SOL     OW27482   9.792   7.822   9.063 -0.5039  0.7271  0.5382
 8347SOL    HW127483   9.742   7.879   9.004  1.3002  1.0609 -0.7774
 8347SOL    HW227484   9.742   7.741   9.066 -1.3425  1.1833 -0.3932
 8348SOL     OW27485   2.683   1.197   2.007  0.0515 -0.0999 -0.6500
 8348SOL    HW127486   2.638   1.242   2.078 -0.3488  0.9433 -1.5223
 8348SOL    HW227487   2.776   1.216   2.020 -0.1502  1.6815 -1.4012
 8349SOL     OW27488   7.287  10.268   0.104 -0.1111 -0.3563 -0.0463
 8349SOL    HW127489   7.193  10.272   0.087  0.0153 -1.4037 -1.0516
 8349SOL    HW227490   7.301  10.183   0.145  0.0197  0.9411  2.8170
 8350SOL     OW27491   1.077   4.079   9.763  0.1834 -0.5522 -0.3111
 8350SOL    HW127492   1.165   4.062   9.730 -0.2366 -0.2973 -1.6427
 8350SOL    HW227493   1.036   4.132   9.695 -0.3224  1.1561  1.2637
 8351SOL     OW27494   5.116   2.810   2.204 -0.3399  0.5638  0.4026
 8351SOL    HW127495   5.023   2.796   2.185  0.1063 -1.6444 -0.4688
 8351SOL    HW227496   5.150   2.855   2.127 -0.2001 -1.0145 -0.5055
 8352SOL     OW27497   9.951   0.815   8.982  0.3668  0.4930 -0.0249
 8352SOL    HW127498  10.007   0.890   8.961  0.9046 -0.2772 -1.5236
 8352SOL    HW227499   9.939   0.770   8.898 -0.7715 -0.5418  0.6551
 8353SOL     OW27500   9.929   1.277   0.530 -0.7876  0.1399  0.3839
 8353SOL    HW127501   9.949   1.370   0.531 -2.1942  0.4506  0.0718
 8353SOL    HW227502   9.921   1.254   0.623 -0.8090  0.4064  0.4490
 8354SOL     OW27503   4.000   5.102   6.533  0.1496  0.2964 -0.1083
 8354SOL    HW127504   3.938   5.047   6.581 -0.1365 -0.8006 -1.6687
 8354SOL    HW227505   4.079   5.102   6.587  0.1162 -1.5695  0.0053
 8355SOL     OW27506   4.333   3.748   9.314  0.3583 -0.0548 -0.2274
 8355SOL    HW127507   4.369   3.797   9.388  1.9601 -0.3458 -0.7742
 8355SOL    HW227508   4.341   3.808   9.240 -0.1865 -0.1818 -0.3926
 8356SOL     OW27509   0.315   6.612   3.710  0.3217 -0.2369 -0.0358
 8356SOL    HW127510   0.344   6.684   3.654 -0.7387  0.6180  0.4831
 8356SOL    HW227511   0.298   6.540   3.649 -1.5457  0.8977 -0.9425
 8357SOL     OW27512   2.928   0.847   1.679 -0.2904  0.0816 -0.3724
 8357SOL    HW127513   2.867   0.784   1.640 -0.8857 -0.4595  1.3182
 8357SOL    HW227514   2.999   0.855   1.616 -0.5219 -1.7903 -0.9190
 8358SOL     OW27515   6.588   5.280   5.317 -0.2139 -0.1146  0.0114
 8358SOL    HW127516   6.667   5.334   5.318  0.3892 -1.0011  0.4984
 8358SOL    HW227517   6.569   5.268   5.224 -0.6824  1.3761 -0.1248
 8359SOL     OW27518   2.123   8.807   6.384  0.6886  0.4096 -0.5382
 8359SOL    HW127519   2.038   8.786   6.345  1.2475 -1.2293 -0.9527
 8359SOL    HW227520   2.136   8.900   6.364 -0.5181  0.4207 -1.4092
 8360SOL     OW27521  10.084   6.476   0.333 -0.2982 -0.4607  0.3502
 8360SOL    HW127522  10.115   6.439   0.250  0.3559  2.0847 -0.6265
 8360SOL    HW227523  10.164   6.502   0.379 -0.7624  1.0714  0.3274
 8361SOL     OW27524   2.518   3.371   0.189 -0.5143 -0.1064  0.1592
 8361SOL    HW127525   2.434   3.394   0.228 -1.0827 -0.8160 -0.6187
 8361SOL    HW227526   2.507   3.388   0.095  0.6653  1.1114  0.2043
 8362SOL     OW27527   4.791   3.347   6.364 -0.1400  0.7155 -0.8912
 8362SOL    HW127528   4.730   3.414   6.397  0.8633  0.6153  1.3625
 8362SOL    HW227529   4.764   3.267   6.408  0.0627  0.1109 -1.8456
 8363SOL     OW27530   3.325   1.940  10.206  0.0180 -0.0369 -0.2042
 8363SOL    HW127531   3.262   1.893  10.261 -1.5067  3.2990  1.1772
 8363SOL    HW227532   3.294   1.927  10.117 -2.3825  1.0256  0.3972
 8364SOL     OW27533   3.434   1.030   2.695 -0.1825  0.2613 -0.0249
 8364SOL    HW127534   3.431   1.076   2.779  0.5880 -0.8328  0.6310
 8364SOL    HW227535   3.377   0.954   2.707 -0.3119  0.2660 -0.6020
 8365SOL     OW27536   4.552   8.595   6.305 -0.0643  0.6797  0.2414
 8365SOL    HW127537   4.511   8.530   6.362 -0.5109 -0.0383 -0.8619
 8365SOL    HW227538   4.581   8.545   6.229  0.5608  1.6141 -0.1556
 8366SOL     OW27539   0.520   7.009   2.626 -0.3130 -0.0988  0.5235
 8366SOL    HW127540   0.583   7.063   2.580 -0.5267  1.7181  2.2461
 8366SOL    HW227541   0.572   6.958   2.689 -0.2853 -0.7555 -0.0174
 8367SOL     OW27542   0.970   1.378   2.225 -0.4692  0.0911  0.5342
 8367SOL    HW127543   1.000   1.415   2.142 -0.6160  1.4117  1.0465
 8367SOL    HW227544   1.051   1.352   2.270 -0.3858 -0.5697  0.0244
 8368SOL     OW27545  10.088   2.776   1.059  0.1138  0.1450 -0.4097
 8368SOL    HW127546  10.138   2.826   0.995 -1.0226  1.6718 -0.1732
 8368SOL    HW227547  10.053   2.842   1.119 -0.1851 -1.0931  0.8481
 8369SOL     OW27548   8.183   6.310   0.181  0.5404 -0.1939  0.4469
 8369SOL    HW127549   8.192   6.383   0.242  2.5021 -0.0321  0.0375
 8369SOL    HW227550   8.129   6.345   0.110 -3.3548 -0.9444  2.7940
 8370SOL     OW27551   1.539   2.860   1.361 -0.1139 -0.0939 -0.7249
 8370SOL    HW127552   1.559   2.773   1.328 -0.7879 -0.4769 -0.1343
 8370SOL    HW227553   1.625   2.903   1.368  0.2195 -0.7006 -1.0046
 8371SOL     OW27554   8.735   6.375   3.945 -0.2941 -0.1607  0.2547
 8371SOL    HW127555   8.793   6.386   3.870  1.1874 -1.2704  1.2074
 8371SOL    HW227556   8.780   6.314   4.003 -1.4463  0.5636  2.0144
 8372SOL     OW27557   9.323   4.699   1.548  0.0899  0.0176 -0.2547
 8372SOL    HW127558   9.306   4.695   1.454  2.4020  0.5781 -0.7733
 8372SOL    HW227559   9.339   4.608   1.573  0.1742 -0.0551 -0.5640
 8373SOL     OW27560   9.679   5.248   8.091 -0.3758  0.4684 -0.0530
 8373SOL    HW127561   9.760   5.252   8.041 -0.6610 -0.3965 -0.6197
 8373SOL    HW227562   9.649   5.339   8.097  0.9396  0.8723  0.7068
 8374SOL     OW27563   1.767   6.984   4.680  0.4440  0.0236  0.4534
 8374SOL    HW127564   1.693   7.021   4.632  0.6350 -0.4006 -0.1889
 8374SOL    HW227565   1.756   6.889   4.670  1.4497 -0.0388 -0.2607
 8375SOL     OW27566   5.272   5.968   3.066 -0.5915 -0.2107 -0.7046
 8375SOL    HW127567   5.219   6.025   3.122  0.0886 -0.2923  0.0358
 8375SOL    HW227568   5.253   5.880   3.098 -0.4235 -0.2819 -0.8025
 8376SOL     OW27569   3.812   2.754   5.174 -0.1608  0.1555  0.4481
 8376SOL    HW127570   3.787   2.823   5.113  1.1210  0.2336 -0.0161
 8376SOL    HW227571   3.733   2.701   5.184 -0.2981 -0.0904 -1.5779
 8377SOL     OW27572   2.497   8.887   3.336  0.0055  0.6977  0.3861
 8377SOL    HW127573   2.540   8.855   3.415 -0.0988 -0.3405  0.0442
 8377SOL    HW227574   2.568   8.928   3.286  1.1901 -2.7633 -1.1006
 8378SOL     OW27575   1.042   8.011   8.018 -0.5970  0.3485  0.2625
 8378SOL    HW127576   0.991   8.091   8.021 -0.6243  0.3842 -0.8410
 8378SOL    HW227577   1.123   8.032   8.065 -0.9888  0.7304  0.7743
 8379SOL     OW27578   1.387   5.047   4.037  0.4085 -0.5727 -0.3787
 8379SOL    HW127579   1.482   5.048   4.021  0.2717 -0.4343 -1.2308
 8379SOL    HW227580   1.372   4.966   4.086  1.0136 -0.4187  0.0785
 8380SOL     OW27581   9.822   8.873   9.146  0.1446  0.7369 -1.0687
 8380SOL    HW127582   9.884   8.853   9.216 -1.0477  2.0967  0.4630
 8380SOL    HW227583   9.803   8.789   9.105 -0.8425 -0.5272  1.7539
 8381SOL     OW27584   0.275   0.967   1.574 -0.0211 -0.1080 -0.1279
 8381SOL    HW127585   0.187   0.971   1.535  1.3819 -0.6692 -3.6967
 8381SOL    HW227586   0.279   1.045   1.629 -2.6109  0.1291 -0.1202
 8382SOL     OW27587   1.484   2.386   6.913  0.1619  0.1287 -1.0380
 8382SOL    HW127588   1.398   2.398   6.873  1.4529  0.7508 -3.8480
 8382SOL    HW227589   1.504   2.471   6.951  0.2308  0.5197 -1.9177
 8383SOL     OW27590   9.437   2.099   0.000 -0.1962 -0.7865 -0.1481
 8383SOL    HW127591   9.433   2.069  -0.091  0.8889  0.3889 -0.6147
 8383SOL    HW227592   9.368   2.050   0.045 -1.9389 -0.1172 -1.9814
 8384SOL     OW27593   7.314   3.837   8.738  0.9025  0.2673 -0.2148
 8384SOL    HW127594   7.361   3.802   8.662  1.3035 -0.7095  0.4598
 8384SOL    HW227595   7.224   3.807   8.726  1.1176 -0.5180  0.0520
 8385SOL     OW27596   3.270   7.139   3.181  0.1399  0.4209  0.3208
 8385SOL    HW127597   3.181   7.152   3.149  0.2109  0.5104  0.1535
 8385SOL    HW227598   3.323   7.200   3.128  0.0334  1.8453  1.7840
 8386SOL     OW27599   8.603   4.230   9.981 -0.2719  0.6034 -0.0342
 8386SOL    HW127600   8.517   4.192   9.996  0.0868 -0.1427  0.1566
 8386SOL    HW227601   8.657   4.158   9.947  1.1111  0.2070  2.7129
 8387SOL     OW27602   5.304   6.981   4.422 -0.2312  0.0885 -0.9470
 8387SOL    HW127603   5.219   6.962   4.382 -1.1890  0.6983  0.7028
 8387SOL    HW227604   5.362   6.997   4.348 -1.2831 -1.3417 -2.1516
 8388SOL     OW27605   2.664   3.266   9.639  0.1487  0.7481 -0.2199
 8388SOL    HW127606   2.668   3.343   9.696 -0.7383  0.2260  0.5669
 8388SOL    HW227607   2.674   3.191   9.698 -2.3008  0.1238 -0.4828
 8389SOL     OW27608   6.397  10.073   3.832  0.2305 -0.1508 -0.0885
 8389SOL    HW127609   6.333  10.059   3.901  0.9871 -1.1850  0.4269
 8389SOL    HW227610   6.362  10.024   3.757  1.6499 -2.9992  0.9750
 8390SOL     OW27611   8.356   4.858   5.789  0.6290  0.4710  0.0473
 8390SOL    HW127612   8.439   4.828   5.750 -0.0546 -1.3009 -0.1180
 8390SOL    HW227613   8.323   4.923   5.727  1.3702  0.4174 -0.4212
 8391SOL     OW27614   3.632   5.287   3.270 -0.0569  0.0699  0.2387
 8391SOL    HW127615   3.552   5.287   3.324 -0.1926 -0.6550  0.0504
 8391SOL    HW227616   3.702   5.267   3.332 -0.2575 -1.1296  0.1075
 8392SOL     OW27617   4.768   0.097   7.286 -0.3337  0.7410  0.2827
 8392SOL    HW127618   4.832   0.082   7.355  0.2718 -3.5225 -0.9084
 8392SOL    HW227619   4.694   0.040   7.308  0.8042 -2.6195 -3.3864
 8393SOL     OW27620   9.493   2.336   2.964 -0.0673  0.3383  0.1016
 8393SOL    HW127621   9.531   2.400   3.024  0.4747  1.0499 -0.9756
 8393SOL    HW227622   9.398   2.348   2.973  0.0293  1.2553 -0.0436
 8394SOL     OW27623   6.700   1.452   0.474  0.6969 -0.8657  0.2195
 8394SOL    HW127624   6.639   1.435   0.403 -0.3858 -0.8380  1.1110
 8394SOL    HW227625   6.649   1.437   0.554  1.2767  1.0581  1.0236
 8395SOL     OW27626   9.581   2.922   5.763  0.2724  0.0980  0.4303
 8395SOL    HW127627   9.507   2.863   5.751  1.8986 -1.5947 -2.4978
 8395SOL    HW227628   9.641   2.873   5.820  0.7733 -0.2294 -0.3737
 8396SOL     OW27629   1.257   9.242   2.553 -0.0448 -0.0578  0.5315
 8396SOL    HW127630   1.340   9.242   2.600 -0.2927  0.6264  0.9883
 8396SOL    HW227631   1.190   9.244   2.621 -0.4036  1.4855  0.1903
 8397SOL     OW27632   5.156   0.475   2.370 -0.1589  0.1453 -0.1632
 8397SOL    HW127633   5.178   0.566   2.349  0.7970  0.2257  1.0868
 8397SOL    HW227634   5.223   0.424   2.324  0.4121  0.1830  0.6166
 8398SOL     OW27635   0.792   8.863   7.613  0.4083  0.2748  0.1572
 8398SOL    HW127636   0.831   8.842   7.528 -1.1271 -0.4732 -0.3906
 8398SOL    HW227637   0.831   8.947   7.636  1.1680  0.3001 -1.0834
 8399SOL     OW27638   7.401   8.211   0.701  0.1269  0.3635  0.5745
 8399SOL    HW127639   7.477   8.156   0.681 -0.7150 -1.0809  1.1919
 8399SOL    HW227640   7.376   8.185   0.790 -2.6675 -1.1270 -0.5367
 8400SOL     OW27641   2.466   1.094   4.896 -0.6083 -0.4146  0.1955
 8400SOL    HW127642   2.491   1.117   4.985  0.5711 -2.7792  0.5445
 8400SOL    HW227643   2.399   1.026   4.906 -1.3829  0.1589 -0.7605
 8401SOL     OW27644   3.408   2.477   9.200 -0.2387 -0.3214  0.7762
 8401SOL    HW127645   3.491   2.441   9.230 -0.1990 -1.5819 -0.7200
 8401SOL    HW227646   3.344   2.448   9.265  0.0778 -1.6698  0.5119
 8402SOL     OW27647   7.146   4.329   9.729  0.6017  0.2289 -0.0577
 8402SOL    HW127648   7.212   4.304   9.665  1.9628  2.8873  0.1551
 8402SOL    HW227649   7.066   4.341   9.677  0.7481 -1.1666 -0.6387
 8403SOL     OW27650   9.669   1.666   1.686  0.0205 -0.7135 -0.2112
 8403SOL    HW127651   9.626   1.637   1.607  1.0497 -1.2860 -0.5765
 8403SOL    HW227652   9.693   1.757   1.668  2.0077 -1.4073 -1.3609
 8404SOL     OW27653   2.930   6.583   5.969  0.8770 -0.4328 -0.3092
 8404SOL    HW127654   2.843   6.586   5.931  0.5813  0.1102  0.3695
 8404SOL    HW227655   2.916   6.552   6.059  1.2843  0.3239  0.0308
 8405SOL     OW27656   7.351   7.750   0.242 -0.1624 -0.4104 -0.2028
 8405SOL    HW127657   7.409   7.676   0.261  1.7549  1.5030  2.0803
 8405SOL    HW227658   7.363   7.766   0.149  1.3174 -1.4470 -0.2307
 8406SOL     OW27659   1.300   2.424   2.598 -0.4087 -0.2594  0.0047
 8406SOL    HW127660   1.375   2.456   2.548  1.2831 -1.2451  1.7553
 8406SOL    HW227661   1.275   2.498   2.653 -0.5927  0.0236 -0.4637
 8407SOL     OW27662   9.656   4.601   3.803  0.1325 -0.5201 -0.4976
 8407SOL    HW127663   9.623   4.571   3.718  1.5235  0.2253 -1.3449
 8407SOL    HW227664   9.746   4.566   3.807  0.1978 -0.2552  0.5187
 8408SOL     OW27665   3.770   2.893   4.131 -0.0692 -0.2634 -0.4352
 8408SOL    HW127666   3.725   2.857   4.055 -3.1237 -1.8610  1.8916
 8408SOL    HW227667   3.821   2.820   4.166 -1.8200 -0.8068  1.1535
 8409SOL     OW27668   5.900   3.554   6.767  0.4734 -0.1523 -0.4032
 8409SOL    HW127669   5.839   3.581   6.837  0.8481 -0.2618 -0.0313
 8409SOL    HW227670   5.932   3.468   6.795  1.1382  0.1034 -0.3752
 8410SOL     OW27671   9.343   0.913   7.609 -0.2427 -0.4424  0.0111
 8410SOL    HW127672   9.345   1.006   7.585 -2.7648 -0.5797 -1.0728
 8410SOL    HW227673   9.294   0.910   7.691 -0.6689 -0.8585 -0.2554
 8411SOL     OW27674   4.653   4.814   9.026  0.0974 -0.4516 -0.2969
 8411SOL    HW127675   4.630   4.726   9.055 -0.6610  0.0530  0.6975
 8411SOL    HW227676   4.597   4.872   9.078  1.2676  0.6687 -0.2300
 8412SOL     OW27677   2.953   7.299   6.741  0.4722 -0.5364  0.7499
 8412SOL    HW127678   2.988   7.273   6.656  0.9667 -0.8633  1.0483
 8412SOL    HW227679   2.900   7.224   6.769 -1.0405  0.2094  0.0063
 8413SOL     OW27680   6.345   6.250   2.882  0.2747 -0.2638 -0.2616
 8413SOL    HW127681   6.340   6.336   2.840  1.3596  0.0437  0.2051
 8413SOL    HW227682   6.272   6.249   2.943 -1.1442 -0.5964 -1.9131
 8414SOL     OW27683   1.714   8.674   3.551 -0.1580 -0.2585 -0.3771
 8414SOL    HW127684   1.625   8.705   3.564 -0.0692 -0.1294 -0.0598
 8414SOL    HW227685   1.769   8.749   3.572  0.0394 -0.4627 -0.1522
 8415SOL     OW27686   1.938   7.683   1.300  0.4601 -0.9906 -0.3322
 8415SOL    HW127687   1.955   7.732   1.219 -1.1584  1.6914  0.8049
 8415SOL    HW227688   1.885   7.608   1.272  0.0366 -0.2003 -1.7723
 8416SOL     OW27689   7.453   8.658   3.846 -0.2333  0.4147  0.4979
 8416SOL    HW127690   7.368   8.699   3.827  0.5418  1.7978 -0.0653
 8416SOL    HW227691   7.440   8.566   3.820 -1.5202  0.6196  0.3027
 8417SOL     OW27692   2.151   2.739   8.830  0.6533  0.4390  0.0276
 8417SOL    HW127693   2.091   2.756   8.903  0.8023  0.5645  0.1239
 8417SOL    HW227694   2.203   2.820   8.823  0.8991  0.2838  0.0333
 8418SOL     OW27695   6.253   6.072   8.131  0.0107 -0.2188  0.4437
 8418SOL    HW127696   6.331   6.081   8.184  1.6608 -1.2159 -1.6589
 8418SOL    HW227697   6.221   6.162   8.119  1.2682  0.2776  0.7035
 8419SOL     OW27698   6.420   5.156   0.608  0.6258  0.0427  0.2700
 8419SOL    HW127699   6.415   5.062   0.626  0.7502 -0.4143 -1.8130
 8419SOL    HW227700   6.513   5.171   0.587  0.6865  0.7296  0.9763
 8420SOL     OW27701   4.941   6.274   2.174  0.5321 -0.1982 -0.2285
 8420SOL    HW127702   4.941   6.292   2.268  1.3499  0.0883 -0.2761
 8420SOL    HW227703   4.849   6.254   2.154  0.7840 -3.6370  1.2558
 8421SOL     OW27704   3.472   1.919   6.809 -0.0646  0.1182  0.0085
 8421SOL    HW127705   3.378   1.902   6.812 -0.0964 -0.2454 -1.6460
 8421SOL    HW227706   3.481   2.010   6.836 -0.7806 -0.1177  1.0910
 8422SOL     OW27707   8.308   6.078   7.196 -0.4787 -0.2190  0.2602
 8422SOL    HW127708   8.330   6.018   7.124 -0.0933  0.5395 -0.2613
 8422SOL    HW227709   8.330   6.165   7.162  1.9579 -0.0041  2.1255
 8423SOL     OW27710   0.846   0.888   6.346  1.2550 -0.1642 -0.0792
 8423SOL    HW127711   0.773   0.929   6.393  2.0105  0.4581  0.5843
 8423SOL    HW227712   0.832   0.912   6.254  1.2164  0.8769  0.1849
 8424SOL     OW27713   4.069   9.016   6.755 -0.3161  0.1680  0.0055
 8424SOL    HW127714   4.140   9.009   6.819  0.1442  0.7062 -0.4312
 8424SOL    HW227715   4.097   8.961   6.682  0.6145  1.9017 -1.0076
 8425SOL     OW27716   8.146   2.399   0.656 -0.0109 -0.6208  0.2065
 8425SOL    HW127717   8.198   2.342   0.712 -0.7058 -1.2080  0.2569
 8425SOL    HW227718   8.155   2.486   0.695 -0.8694 -1.0918  1.5123
 8426SOL     OW27719   1.489   8.248   4.937  0.4524 -0.3122  0.0897
 8426SOL    HW127720   1.436   8.169   4.928  0.5921 -0.4825  0.7533
 8426SOL    HW227721   1.547   8.231   5.010  0.8895  0.1829 -0.1328
 8427SOL     OW27722   6.278   4.173   5.356  0.0835  0.2312  0.2241
 8427SOL    HW127723   6.294   4.185   5.262 -0.5994 -1.0439 -0.0850
 8427SOL    HW227724   6.237   4.254   5.384  1.8516  1.3171 -0.1807
 8428SOL     OW27725   8.112   3.503   7.432 -0.2581  0.1194  0.4243
 8428SOL    HW127726   8.125   3.457   7.349  0.0244 -1.2334  1.1853
 8428SOL    HW227727   8.019   3.524   7.433 -0.8393 -2.1655  0.8578
 8429SOL     OW27728   1.414   8.860   3.016  0.0807  0.1560  0.5405
 8429SOL    HW127729   1.491   8.916   3.030  0.0159  0.2294  0.6002
 8429SOL    HW227730   1.363   8.906   2.949 -0.3596  0.5639  1.1390
 8430SOL     OW27731   1.486   0.475   8.742 -0.2078 -0.1227 -0.4017
 8430SOL    HW127732   1.456   0.553   8.695 -1.4913  0.1445  0.7972
 8430SOL    HW227733   1.407   0.421   8.752 -0.1396  0.1012  1.8989
 8431SOL     OW27734   4.215  10.079   8.491 -0.4424 -0.2430 -0.8836
 8431SOL    HW127735   4.257  10.142   8.550 -0.2052 -2.2224  1.1770
 8431SOL    HW227736   4.243  10.106   8.403  1.1520  1.3791  0.0551
 8432SOL     OW27737   6.598   5.067   2.699  0.7404 -0.0526 -0.3210
 8432SOL    HW127738   6.507   5.063   2.672  0.4746 -1.7414  0.6599
 8432SOL    HW227739   6.597   5.042   2.791  1.9941  1.9822  0.3146
 8433SOL     OW27740   0.569   9.066   5.029  0.1091 -0.3891 -0.2876
 8433SOL    HW127741   0.518   9.146   5.025  0.0031 -0.5038 -1.2496
 8433SOL    HW227742   0.655   9.094   5.062  1.0089  0.6171 -3.2034
 8434SOL     OW27743   9.772   8.020   3.553 -0.7019 -0.2372  0.0692
 8434SOL    HW127744   9.732   8.060   3.630 -0.4113 -1.4319  0.8741
 8434SOL    HW227745   9.770   7.926   3.571  1.1903 -0.4254 -0.4826
 8435SOL     OW27746   5.962   4.047   7.971  0.3050  0.2123  0.0153
 8435SOL    HW127747   5.929   4.014   7.888  1.4356 -0.7226 -0.0846
 8435SOL    HW227748   6.035   4.104   7.947 -1.2364  2.4154  0.2199
 8436SOL     OW27749   7.757   8.425   1.379 -0.5756 -0.4025  0.4760
 8436SOL    HW127750   7.728   8.346   1.333 -1.5995  0.5271 -0.5370
 8436SOL    HW227751   7.735   8.497   1.320 -1.0027  0.7735  1.9792
 8437SOL     OW27752   5.857   8.513   2.389  0.1454  0.2679 -0.1621
 8437SOL    HW127753   5.908   8.560   2.323  0.9820  1.0695  1.0102
 8437SOL    HW227754   5.768   8.547   2.378  0.4437  1.0318 -0.3272
 8438SOL     OW27755   5.758   1.319   6.038  0.3546 -0.3416 -0.2838
 8438SOL    HW127756   5.762   1.414   6.024  0.6310 -0.5015 -1.4196
 8438SOL    HW227757   5.820   1.283   5.975 -0.7977 -1.3614 -0.8861
 8439SOL     OW27758  10.072   3.275   2.490 -0.0536  0.5190 -0.0302
 8439SOL    HW127759  10.142   3.327   2.531  0.0145 -2.2563  3.9200
 8439SOL    HW227760  10.119   3.207   2.441  0.0067 -0.0760  0.8415
 8440SOL     OW27761   1.319   0.863   9.460 -0.6944 -0.1357  0.4224
 8440SOL    HW127762   1.406   0.844   9.426 -0.2534  0.0817  1.3931
 8440SOL    HW227763   1.260   0.805   9.411 -0.4780  1.9601 -2.5687
 8441SOL     OW27764   2.796   0.729  10.340  0.4961  0.0131  0.4187
 8441SOL    HW127765   2.767   0.819  10.351  0.5840  0.0147  0.6329
 8441SOL    HW227766   2.824   0.701  10.427 -2.1648 -1.1345  1.0220
 8442SOL     OW27767   2.100   7.893   1.923 -0.4918 -0.1517 -0.5365
 8442SOL    HW127768   2.062   7.950   1.989 -0.0730 -0.5421  0.0551
 8442SOL    HW227769   2.192   7.886   1.947 -0.4097 -0.5971 -0.9482
 8443SOL     OW27770   1.902   2.983   3.169  0.2313 -0.1112  0.0409
 8443SOL    HW127771   1.966   2.999   3.239 -0.4969  0.8543  0.5076
 8443SOL    HW227772   1.837   3.052   3.181  0.9150  1.1145 -2.6029
 8444SOL     OW27773   5.583   1.793   5.719  0.5735 -0.3113 -0.5521
 8444SOL    HW127774   5.622   1.709   5.694 -0.3658 -0.8557 -0.2446
 8444SOL    HW227775   5.515   1.770   5.783 -0.2111  0.6084 -1.0252
 8445SOL     OW27776   6.740   2.154   7.096 -0.1421  0.3009 -0.2786
 8445SOL    HW127777   6.709   2.235   7.056 -1.2790  0.4452  0.8391
 8445SOL    HW227778   6.742   2.173   7.190  1.9319 -0.1934 -0.1559
 8446SOL     OW27779   7.105   8.061   4.584  0.2168  0.4362 -0.2081
 8446SOL    HW127780   7.150   7.991   4.631  0.2657 -0.2615 -1.2510
 8446SOL    HW227781   7.146   8.142   4.616 -1.5500  0.2459  2.8906
 8447SOL     OW27782   7.274   1.401   7.439 -0.1989 -0.5372 -0.1470
 8447SOL    HW127783   7.243   1.474   7.493  0.5927  0.5408 -1.1080
 8447SOL    HW227784   7.336   1.355   7.495 -0.7164 -0.4950  0.4768
 8448SOL     OW27785   8.809   1.708   5.284 -0.1458  0.5176  0.2876
 8448SOL    HW127786   8.879   1.646   5.266 -0.0376  0.9685 -0.9372
 8448SOL    HW227787   8.738   1.655   5.321 -0.8780 -0.7525 -2.7025
 8449SOL     OW27788   5.907   8.888   6.277  0.1981 -0.2864 -0.0300
 8449SOL    HW127789   5.887   8.824   6.345 -1.8414  2.1031  1.8133
 8449SOL    HW227790   5.996   8.918   6.297 -0.6944  1.0150  2.2082
 8450SOL     OW27791   5.865   2.258   8.077  0.0996 -0.4978 -0.4281
 8450SOL    HW127792   5.801   2.247   8.147  0.1919 -0.9105 -0.4055
 8450SOL    HW227793   5.863   2.175   8.030  1.5015 -0.9924  0.3227
 8451SOL     OW27794   7.551   6.715   8.435 -0.1048 -0.0371 -0.7322
 8451SOL    HW127795   7.455   6.717   8.439 -0.2415 -1.0122 -2.4411
 8451SOL    HW227796   7.573   6.622   8.445  0.6564  0.1827 -0.3553
 8452SOL     OW27797   3.828   9.107   3.534 -0.0207  0.1232  0.1907
 8452SOL    HW127798   3.878   9.099   3.453 -1.0961  0.5157 -0.5346
 8452SOL    HW227799   3.824   9.018   3.569 -1.0550 -0.3921 -1.1330
 8453SOL     OW27800   7.158   8.752   4.498 -0.2221 -0.7915  0.3778
 8453SOL    HW127801   7.217   8.677   4.504  0.0533 -0.4951  1.6186
 8453SOL    HW227802   7.181   8.808   4.573  0.2750  1.0453 -1.0714
 8454SOL     OW27803   7.130   1.624  10.430  0.0087  0.4327  0.1488
 8454SOL    HW127804   7.101   1.539  10.463 -2.0081  0.7784 -0.5543
 8454SOL    HW227805   7.118   1.619  10.335  3.0938  0.3920 -0.3329
 8455SOL     OW27806   1.858   0.444   9.141 -0.2896 -0.0087 -0.2485
 8455SOL    HW127807   1.791   0.512   9.132 -1.9997 -1.5627  0.1730
 8455SOL    HW227808   1.921   0.464   9.072 -0.5565  2.1814  0.0734
 8456SOL     OW27809   4.722   9.071   4.904 -0.3345  0.2440 -0.1176
 8456SOL    HW127810   4.678   9.045   4.824  1.4106 -1.8048 -0.4956
 8456SOL    HW227811   4.671   9.146   4.936 -1.6290  0.5397 -2.6046
 8457SOL     OW27812   5.041  10.265   3.035 -0.1979 -0.5854 -0.0826
 8457SOL    HW127813   5.088  10.181   3.040 -0.0384 -0.5786 -1.1985
 8457SOL    HW227814   4.978  10.252   2.964 -0.1830  0.2322 -0.2476
 8458SOL     OW27815   7.037   4.645   8.088  0.3026 -0.1047  0.2747
 8458SOL    HW127816   7.016   4.704   8.015 -2.4971 -0.0942  1.0068
 8458SOL    HW227817   6.976   4.572   8.079  0.4957 -0.5391  2.1040
 8459SOL     OW27818   2.266   6.517   4.380 -0.0298  0.1795  0.0702
 8459SOL    HW127819   2.316   6.539   4.459  0.6873  1.5839 -0.7472
 8459SOL    HW227820   2.199   6.584   4.375 -1.2056 -0.9356  0.4249
 8460SOL     OW27821   0.154   6.870   7.060  0.1544 -0.8774  0.2359
 8460SOL    HW127822   0.248   6.885   7.055 -0.0696  0.8160  0.4844
 8460SOL    HW227823   0.118   6.906   6.979 -0.5425  1.1931  1.3830
 8461SOL     OW27824   9.288   6.320   0.026  0.4239 -0.2461  1.0174
 8461SOL    HW127825   9.376   6.311   0.063  0.3396  1.3179  1.6457
 8461SOL    HW227826   9.231   6.325   0.103 -0.0025  0.6773  0.6450
 8462SOL     OW27827   1.093   0.920  10.218  0.3929  0.0170  0.2619
 8462SOL    HW127828   1.153   0.924  10.144  1.4364 -1.4628  0.9774
 8462SOL    HW227829   1.020   0.978  10.193  0.3737 -0.9439 -2.2007
 8463SOL     OW27830  10.015  10.412   9.540  0.1018 -0.0365  0.2622
 8463SOL    HW127831  10.029  10.362   9.459  1.3053  3.0270 -1.6053
 8463SOL    HW227832   9.944  10.473   9.518  1.2819  1.6783  1.0664
 8464SOL     OW27833  10.389   1.622   3.719  0.1920  0.1065 -0.3738
 8464SOL    HW127834  10.477   1.656   3.703  0.1423 -0.2315 -1.4459
 8464SOL    HW227835  10.356   1.676   3.791  0.6279  1.3918 -1.0998
 8465SOL     OW27836   9.835   4.549   2.600  0.0709 -0.1528 -0.0407
 8465SOL    HW127837   9.824   4.480   2.534  0.7328 -0.3139  0.0107
 8465SOL    HW227838   9.891   4.510   2.667  0.1861  0.3303  0.1489
 8466SOL     OW27839   0.213   1.894   3.268 -0.2966  0.2543 -0.3004
 8466SOL    HW127840   0.153   1.837   3.316  0.5929 -0.4083  0.0549
 8466SOL    HW227841   0.211   1.860   3.178  0.5478 -0.6426 -0.0054
 8467SOL     OW27842   1.078   6.912   6.184 -0.7902  1.0870 -0.2108
 8467SOL    HW127843   1.145   6.948   6.242 -0.8575  0.6549  0.1445
 8467SOL    HW227844   1.056   6.984   6.125 -0.1770  1.3027 -0.1853
 8468SOL     OW27845   5.824   6.661   7.245  0.7129 -0.5166  0.4029
 8468SOL    HW127846   5.888   6.730   7.228 -1.4385  1.5971  0.3085
 8468SOL    HW227847   5.830   6.604   7.169  0.8679  0.9622 -0.7410
 8469SOL     OW27848   3.496   8.258   2.867  0.4281 -0.4886  0.1518
 8469SOL    HW127849   3.436   8.220   2.804  0.2544 -0.3156  0.2115
 8469SOL    HW227850   3.548   8.184   2.898  1.1073 -0.4390 -0.8302
 8470SOL     OW27851   0.883   2.939   0.157 -0.0404  0.2024 -0.0413
 8470SOL    HW127852   0.806   2.882   0.164 -0.5230  0.9809  1.6168
 8470SOL    HW227853   0.913   2.948   0.248 -0.8380  3.7257 -0.0178
 8471SOL     OW27854   0.707   5.405   9.197 -0.4356  0.1167  0.2168
 8471SOL    HW127855   0.612   5.395   9.203 -0.3525 -0.1706  1.2519
 8471SOL    HW227856   0.737   5.405   9.288  0.4244  1.5933 -0.0257
 8472SOL     OW27857   0.422  10.262   1.062  0.4135 -0.2480 -0.4646
 8472SOL    HW127858   0.444  10.284   0.972 -1.0213  1.0113 -0.5659
 8472SOL    HW227859   0.329  10.287   1.071  0.6535  0.1602  1.4909
 8473SOL     OW27860   1.811   1.110   1.623  0.6875 -0.0316 -0.2466
 8473SOL    HW127861   1.884   1.160   1.586  0.2568  0.1811 -0.8206
 8473SOL    HW227862   1.852   1.031   1.658  1.1685 -0.0156 -0.7508
 8474SOL     OW27863   4.809   1.001   3.272  0.4644  0.0391  0.1831
 8474SOL    HW127864   4.729   0.990   3.221  1.0638  1.3538 -1.0947
 8474SOL    HW227865   4.876   0.956   3.221  0.8676  0.4023  0.3910
 8475SOL     OW27866   9.240   7.984   1.548  0.0731  0.0530  0.0639
 8475SOL    HW127867   9.260   8.029   1.466  0.4892  0.0633  0.1700
 8475SOL    HW227868   9.320   7.990   1.600  0.8549 -2.5460 -0.6988
 8476SOL     OW27869   6.476   9.026   8.203 -0.0185 -0.0057 -0.3416
 8476SOL    HW127870   6.514   9.044   8.289 -1.4314  1.8277 -0.0398
 8476SOL    HW227871   6.382   9.041   8.214 -0.5263 -1.7859 -1.7113
 8477SOL     OW27872   4.020   3.901   7.400 -0.0584  0.0822 -0.0483
 8477SOL    HW127873   4.103   3.936   7.431 -1.0812  1.0167  1.7909
 8477SOL    HW227874   3.992   3.842   7.470 -0.0467 -1.7679 -1.5311
 8478SOL     OW27875   8.113   0.244   3.238 -0.5933  0.1026  0.2674
 8478SOL    HW127876   8.143   0.154   3.225 -1.3331 -0.2254  0.7794
 8478SOL    HW227877   8.183   0.298   3.201  0.4025 -0.6502  1.0022
 8479SOL     OW27878   6.021   6.125   5.534 -0.7669  0.1519  0.2614
 8479SOL    HW127879   6.070   6.194   5.579  1.1215 -0.2786 -1.0206
 8479SOL    HW227880   5.934   6.164   5.520 -0.8512  0.9651  2.5454
 8480SOL     OW27881   1.394   5.589   0.182  0.0074 -0.5990 -0.3354
 8480SOL    HW127882   1.326   5.547   0.129 -1.1610 -0.9097  1.3244
 8480SOL    HW227883   1.372   5.683   0.178 -1.5724 -0.8312  1.4971
 8481SOL     OW27884   1.894  10.216   1.900  0.0654  0.2515 -0.1807
 8481SOL    HW127885   1.803  10.196   1.878  0.1370 -1.5119  0.8981
 8481SOL    HW227886   1.890  10.252   1.989  0.4118  0.2062 -0.1450
 8482SOL     OW27887   0.290   0.500   9.721 -0.4442 -0.2891 -0.0524
 8482SOL    HW127888   0.290   0.518   9.815  0.4299  1.4464 -0.3586
 8482SOL    HW227889   0.209   0.450   9.707 -1.7813  1.3510  1.2842
 8483SOL     OW27890   3.768   7.605   2.027  0.3071  0.0307  0.5067
 8483SOL    HW127891   3.746   7.531   1.970  1.0080 -1.0618  1.6084
 8483SOL    HW227892   3.699   7.670   2.009  0.7695 -0.0418 -1.9177
 8484SOL     OW27893   5.705   6.964   5.817 -0.0045 -0.0711 -0.3063
 8484SOL    HW127894   5.684   6.912   5.740 -0.4966 -0.1872 -0.0963
 8484SOL    HW227895   5.651   7.043   5.808  0.6286  0.3454 -0.5513
 8485SOL     OW27896   3.271   8.752   5.213 -0.3430 -0.0912 -0.0938
 8485SOL    HW127897   3.337   8.818   5.195 -0.0047 -0.2202  0.6434
 8485SOL    HW227898   3.257   8.757   5.308 -0.9221 -0.5035 -0.1513
 8486SOL     OW27899   8.111   3.370   7.971  0.3127 -0.6301 -0.2512
 8486SOL    HW127900   8.044   3.309   7.941  0.2196 -1.1402  0.9191
 8486SOL    HW227901   8.156   3.323   8.041 -0.6994  1.1225  1.6794
 8487SOL     OW27902   3.338   8.532   6.200  0.3539 -0.0195  0.1391
 8487SOL    HW127903   3.335   8.465   6.269 -0.0781 -0.8934 -0.6997
 8487SOL    HW227904   3.427   8.565   6.202  0.7861 -1.1458  0.0878
 8488SOL     OW27905   5.019   9.260   5.720  0.2502  0.1285  0.1429
 8488SOL    HW127906   5.075   9.221   5.787 -0.2966  0.0522  0.5661
 8488SOL    HW227907   5.066   9.338   5.691  1.5471 -1.0084 -0.9857
 8489SOL     OW27908   5.611   9.407   6.673  0.4724  0.3681 -0.4575
 8489SOL    HW127909   5.638   9.435   6.761  0.2705  0.4097 -0.4084
 8489SOL    HW227910   5.625   9.484   6.618  0.0297  0.5356 -0.3453
 8490SOL     OW27911   3.539   0.284   1.087 -0.2030 -0.1428 -0.6272
 8490SOL    HW127912   3.554   0.379   1.084 -1.0978 -0.0099 -1.7993
 8490SOL    HW227913   3.485   0.266   1.010  1.2586 -1.8545 -1.3399
 8491SOL     OW27914   2.441   8.297   6.882 -0.4201 -0.9121  0.3202
 8491SOL    HW127915   2.354   8.259   6.883 -1.2320  0.7346  2.7961
 8491SOL    HW227916   2.427   8.387   6.852  0.3122 -0.5126  1.1160
 8492SOL     OW27917  10.382   1.019   6.141 -0.6467  0.1750 -0.2000
 8492SOL    HW127918  10.411   0.966   6.067  0.3204 -0.2247  0.4497
 8492SOL    HW227919  10.376   1.108   6.106 -1.6688 -0.2333 -1.1343
 8493SOL     OW27920   5.123  10.027   1.431  0.4171 -0.0427  0.2853
 8493SOL    HW127921   5.195   9.969   1.457  0.9320  0.3997 -0.1416
 8493SOL    HW227922   5.045   9.988   1.472  0.9892 -0.1629  1.2754
 8494SOL     OW27923   4.312   3.207   2.298  0.0596  0.4811 -0.0884
 8494SOL    HW127924   4.377   3.199   2.228 -0.5295 -0.8280 -0.5206
 8494SOL    HW227925   4.231   3.230   2.253 -0.0243  1.0401  0.3340
 8495SOL     OW27926   7.935   4.310   9.768 -0.5143  0.3194  0.0691
 8495SOL    HW127927   7.907   4.393   9.729  0.3755  1.2906  1.4529
 8495SOL    HW227928   7.894   4.308   9.854 -0.2387 -0.5279  0.1953
 8496SOL     OW27929   5.930   0.583   9.691 -0.8440 -0.5626  0.7533
 8496SOL    HW127930   5.947   0.501   9.645  0.1941 -1.3286  2.4064
 8496SOL    HW227931   5.908   0.556   9.780 -1.4030  0.9326  1.1035
 8497SOL     OW27932   6.360   8.509   4.003  0.5122  0.4861  0.3046
 8497SOL    HW127933   6.282   8.458   3.980 -0.3246  0.3405  3.0192
 8497SOL    HW227934   6.341   8.541   4.091  3.6864  0.1945  1.2048
 8498SOL     OW27935   5.330   1.689   0.947  0.0495  0.2291 -0.2280
 8498SOL    HW127936   5.327   1.771   0.898 -0.0852 -0.1703 -0.9085
 8498SOL    HW227937   5.285   1.626   0.890 -1.5332  0.0988  1.0914
 8499SOL     OW27938   5.774   1.176   5.048  0.4317  0.7695 -0.3269
 8499SOL    HW127939   5.764   1.269   5.071  0.4201  0.0516  3.1205
 8499SOL    HW227940   5.857   1.172   5.002  1.1518  2.3325  0.7394
 8500SOL     OW27941   1.748   2.741   3.532 -0.0281 -0.0799  0.2214
 8500SOL    HW127942   1.830   2.762   3.577  1.1668 -2.7890 -0.4609
 8500SOL    HW227943   1.717   2.824   3.497  1.9637  1.1621  1.2709
 8501SOL     OW27944  10.310   5.505   1.464 -0.4691  0.3096 -0.0716
 8501SOL    HW127945  10.228   5.526   1.508  0.2332  1.6194  0.6600
 8501SOL    HW227946  10.347   5.433   1.516 -1.2734 -0.4958 -0.5859
 8502SOL     OW27947   1.843   4.887   8.157 -0.2664  0.0055 -0.3263
 8502SOL    HW127948   1.861   4.939   8.079  1.0111  0.2934  0.1271
 8502SOL    HW227949   1.772   4.828   8.132 -0.8782  1.0837 -1.2454
 8503SOL     OW27950   7.072   9.961   7.905 -0.2288 -0.0438 -0.0838
 8503SOL    HW127951   7.165   9.981   7.907 -0.1853 -0.2766  1.1389
 8503SOL    HW227952   7.031  10.038   7.866  0.2099  1.3486  2.0117
 8504SOL     OW27953   8.762   7.541   7.083  0.3180  0.3579 -0.0989
 8504SOL    HW127954   8.807   7.515   7.003  5.2236  2.2878  1.6127
 8504SOL    HW227955   8.695   7.602   7.055  0.6594 -0.3934 -2.8275
 8505SOL     OW27956   1.098   3.511   1.631 -0.4187  0.3981  0.1592
 8505SOL    HW127957   1.039   3.526   1.705 -1.2925  1.1530 -0.6732
 8505SOL    HW227958   1.051   3.545   1.555  1.4850  1.9390 -0.4036
 8506SOL     OW27959   5.707   0.243   1.344 -0.2305 -0.3846  0.5342
 8506SOL    HW127960   5.669   0.194   1.271 -0.6471 -0.8975  1.0903
 8506SOL    HW227961   5.796   0.210   1.352  0.4196  0.8922 -0.8401
 8507SOL     OW27962   6.794  10.295   7.440  0.9323 -0.0853  0.0565
 8507SOL    HW127963   6.742  10.323   7.515  0.3655  2.5231 -1.1894
 8507SOL    HW227964   6.734  10.241   7.388  0.7473 -0.3879  0.5827
 8508SOL     OW27965   6.277  10.220   5.514 -0.1886  0.2851 -0.4095
 8508SOL    HW127966   6.247  10.159   5.581  1.0707 -0.7300 -0.7389
 8508SOL    HW227967   6.204  10.281   5.503 -1.0718 -0.5383  0.6665
 8509SOL     OW27968   1.819   0.231   1.389 -0.6869 -0.0281 -0.6049
 8509SOL    HW127969   1.862   0.161   1.340  0.0895  0.9927 -1.4357
 8509SOL    HW227970   1.820   0.200   1.480 -0.3318 -1.0744 -0.9434
 8510SOL     OW27971   9.630   7.567   6.678 -0.0916  0.6277 -0.2904
 8510SOL    HW127972   9.703   7.625   6.657 -0.7288  0.9450 -1.6865
 8510SOL    HW227973   9.572   7.621   6.733 -0.3926  1.1277 -1.0883
 8511SOL     OW27974   0.254   9.456   8.481 -0.4558  0.6037  0.1579
 8511SOL    HW127975   0.322   9.416   8.536 -0.2625 -0.1173 -0.6034
 8511SOL    HW227976   0.299   9.527   8.436 -0.5811  1.1066  0.7957
 8512SOL     OW27977   5.654   9.335   8.354  0.0126  0.6645 -0.6260
 8512SOL    HW127978   5.747   9.316   8.352 -0.1282 -0.2232  0.5198
 8512SOL    HW227979   5.623   9.314   8.266  0.5183 -1.1077 -0.4139
 8513SOL     OW27980   6.106   6.050   0.095 -0.0694 -0.1462 -0.1011
 8513SOL    HW127981   6.115   6.054   0.190 -0.7902 -1.0442  0.0155
 8513SOL    HW227982   6.048   6.123   0.073 -0.2838 -0.2278  0.2010
 8514SOL     OW27983   8.045   6.044   0.664 -0.0453 -0.2059 -0.0941
 8514SOL    HW127984   8.127   5.999   0.646  0.0760  0.3950 -1.1995
 8514SOL    HW227985   7.982   5.975   0.683  0.7510 -0.6598  0.9562
 8515SOL     OW27986   2.494   0.012   0.689  0.4090 -0.3494 -0.1284
 8515SOL    HW127987   2.517   0.014   0.782  2.1796  0.6937 -0.5303
 8515SOL    HW227988   2.494   0.104   0.663 -2.3061 -0.4461 -0.7059
 8516SOL     OW27989   6.850   2.072   8.290  0.0201  1.0076 -0.2723
 8516SOL    HW127990   6.756   2.067   8.305 -0.2189  3.8638 -0.3379
 8516SOL    HW227991   6.889   2.032   8.368 -1.2784  2.2675  1.0869
 8517SOL     OW27992   7.609   6.942   0.736  0.4767 -0.2204  0.1804
 8517SOL    HW127993   7.619   7.023   0.785  0.4304  0.0247 -0.2140
 8517SOL    HW227994   7.678   6.885   0.770 -0.2415 -0.4468  1.3096
 8518SOL     OW27995   0.295   9.813  10.199 -0.1990 -0.5262  0.1951
 8518SOL    HW127996   0.218   9.806  10.142  1.3636 -1.2932 -1.9737
 8518SOL    HW227997   0.304   9.725  10.237  0.1004 -0.6972 -0.2613
 8519SOL     OW27998   5.903   6.650   5.965  0.3064 -0.2311  0.0877
 8519SOL    HW127999   5.948   6.609   6.039 -0.2607 -0.4640  0.3140
 8519SOL    HW228000   5.854   6.723   6.004  0.1326 -0.2555 -0.0795
 8520SOL     OW28001   1.894   1.127   3.167 -0.4068 -0.7995 -0.0110
 8520SOL    HW128002   1.808   1.170   3.168 -0.0463  0.1469 -2.5434
 8520SOL    HW228003   1.884   1.056   3.103  0.1807 -1.9137  1.1059
 8521SOL     OW28004   4.153   8.904   9.677 -0.3594  0.3677  0.1135
 8521SOL    HW128005   4.222   8.936   9.735  0.3087 -1.0024  0.1063
 8521SOL    HW228006   4.099   8.848   9.733 -0.1245 -0.3926 -0.3969
 8522SOL     OW28007   3.525   6.421   3.056  0.3068 -0.4711  0.2359
 8522SOL    HW128008   3.475   6.375   2.989 -1.5162 -1.1945  2.0157
 8522SOL    HW228009   3.485   6.508   3.061  3.3141  1.3564 -2.6433
 8523SOL     OW28010   9.135   7.663   4.441 -0.6394 -0.4690 -0.3932
 8523SOL    HW128011   9.193   7.718   4.389  1.0276 -2.3532 -0.6496
 8523SOL    HW228012   9.047   7.684   4.410  0.0517  0.9356 -1.5135
 8524SOL     OW28013   5.486   8.536   4.773 -0.3062  0.8138  0.1447
 8524SOL    HW128014   5.501   8.503   4.684 -0.2348  0.8127  0.1574
 8524SOL    HW228015   5.396   8.570   4.771  0.4929  3.0707 -0.6290
 8525SOL     OW28016   7.579   4.553   1.615 -0.2587  0.1210  0.5148
 8525SOL    HW128017   7.674   4.551   1.623 -0.3115 -1.2937  1.0279
 8525SOL    HW228018   7.562   4.560   1.521  0.3505 -0.8966  0.3232
 8526SOL     OW28019   6.805   9.984   0.611  0.0172 -0.1024 -0.0740
 8526SOL    HW128020   6.777   9.933   0.535 -0.7327  2.6486 -1.7573
 8526SOL    HW228021   6.891   9.947   0.634 -0.7431 -2.4661 -0.7768
 8527SOL     OW28022   0.240   3.440   5.352 -0.3051  0.3859  0.3489
 8527SOL    HW128023   0.237   3.488   5.435 -0.9833  3.5212 -1.3380
 8527SOL    HW228024   0.158   3.391   5.350 -0.0964 -0.0648  1.6618
 8528SOL     OW28025   2.551   5.209   4.489 -0.0649  0.9271 -0.2569
 8528SOL    HW128026   2.574   5.119   4.510 -0.8830  0.5398 -0.9727
 8528SOL    HW228027   2.455   5.209   4.482 -0.0725  1.8306 -0.3495
 8529SOL     OW28028   7.444   9.241   1.150 -0.6751  0.2227  0.1719
 8529SOL    HW128029   7.452   9.247   1.055 -1.3162  0.0143  0.1019
 8529SOL    HW228030   7.502   9.310   1.183 -0.4909  0.3330 -0.3683
 8530SOL     OW28031   9.555   0.003   0.694  0.0881  0.4541  0.4411
 8530SOL    HW128032   9.571   0.089   0.656  0.0083 -0.0976 -0.9122
 8530SOL    HW228033   9.469  -0.022   0.661 -0.2070  0.1514  1.4102
 8531SOL     OW28034   3.913   1.450   4.860  0.0505 -0.2324  0.7884
 8531SOL    HW128035   3.910   1.486   4.771  1.0408 -0.2181  0.7512
 8531SOL    HW228036   3.917   1.356   4.847  0.3865 -0.2221  0.8093
 8532SOL     OW28037   5.109   6.989  10.074  0.5700 -0.4347 -0.6241
 8532SOL    HW128038   5.157   6.943  10.143  2.2740  0.8328 -0.8841
 8532SOL    HW228039   5.154   6.963   9.993  0.7082  0.6191 -0.8979
 8533SOL     OW28040   4.608   0.196   9.876 -0.3082  0.2431 -0.2870
 8533SOL    HW128041   4.633   0.288   9.866  0.3228  0.0968 -0.1280
 8533SOL    HW228042   4.516   0.199   9.903 -0.1612  0.8400  0.1661
 8534SOL     OW28043   0.073   9.637   2.605  0.0205 -0.3105 -0.2116
 8534SOL    HW128044   0.031   9.573   2.548 -0.6347 -0.1024  0.0142
 8534SOL    HW228045   0.122   9.585   2.668  0.3746 -0.5535 -0.6892
 8535SOL     OW28046   8.300   6.660   1.444  0.0720  0.1620 -0.3817
 8535SOL    HW128047   8.239   6.728   1.470  0.0379  0.5039 -1.3101
 8535SOL    HW228048   8.275   6.638   1.354  2.1104  1.2397 -1.2744
 8536SOL     OW28049   1.408   2.039   0.489  0.4367 -0.0108 -0.0949
 8536SOL    HW128050   1.493   2.083   0.489  0.2072  0.5988 -2.5299
 8536SOL    HW228051   1.351   2.097   0.438 -1.1357 -0.9772  0.4921
 8537SOL     OW28052   3.680   9.553   1.138 -0.3296  0.5267  0.7449
 8537SOL    HW128053   3.772   9.582   1.133  0.1316 -0.9046  0.3346
 8537SOL    HW228054   3.683   9.476   1.195 -1.2679  0.4105  0.6418
 8538SOL     OW28055   8.062   4.074   6.822  0.2813 -0.4971  0.3034
 8538SOL    HW128056   8.107   4.027   6.752  0.4455 -1.8618  1.2910
 8538SOL    HW228057   8.132   4.114   6.873  0.1262  1.4703 -0.8957
 8539SOL     OW28058   2.042   2.751   3.627 -0.2805 -0.0517  0.5944
 8539SOL    HW128059   2.067   2.658   3.635 -2.0772 -0.5703  0.5550
 8539SOL    HW228060   2.118   2.799   3.660  0.8059 -1.5269  0.3322
 8540SOL     OW28061   5.878   9.509   3.778 -0.1062 -0.1860  0.2685
 8540SOL    HW128062   5.890   9.455   3.700 -0.0634 -0.0009  0.1471
 8540SOL    HW228063   5.815   9.460   3.831 -0.3971 -0.1451 -0.0341
 8541SOL     OW28064   2.968   6.544   4.584 -0.3059  0.1318 -0.0365
 8541SOL    HW128065   2.883   6.508   4.611 -0.2812  0.0072 -0.1202
 8541SOL    HW228066   3.030   6.511   4.649 -0.5739  1.5860  0.9925
 8542SOL     OW28067  10.241   1.503   8.055 -0.3205 -0.5863 -0.4955
 8542SOL    HW128068  10.285   1.418   8.059 -0.7258 -0.7588  0.4957
 8542SOL    HW228069  10.302   1.564   8.096 -0.0390 -0.3941 -1.1895
 8543SOL     OW28070   1.817   0.490   3.954  0.6834 -0.1848 -0.4540
 8543SOL    HW128071   1.888   0.537   3.997  1.3654  0.3723 -2.1014
 8543SOL    HW228072   1.857   0.450   3.877 -0.0029 -3.1208  0.5970
 8544SOL     OW28073   6.757  10.261   2.293  0.1186 -0.0475  0.1296
 8544SOL    HW128074   6.736  10.351   2.320 -0.6033  1.0660 -3.5759
 8544SOL    HW228075   6.818  10.271   2.220  0.8509 -2.6761  0.2695
 8545SOL     OW28076   2.234   0.923   4.338  0.1620  0.2043 -0.2474
 8545SOL    HW128077   2.278   1.001   4.303  2.1485 -0.5380  0.4670
 8545SOL    HW228078   2.251   0.927   4.432 -2.5749  0.6044  0.3301
 8546SOL     OW28079   2.076   0.543  10.388 -0.0318 -0.2661  0.2101
 8546SOL    HW128080   1.991   0.573  10.354 -1.0743 -1.3458  1.7370
 8546SOL    HW228081   2.075   0.568  10.481  2.5364  2.1693 -0.2631
 8547SOL     OW28082   9.456   8.168   3.793 -0.3949  0.4692  0.2078
 8547SOL    HW128083   9.414   8.083   3.798  1.1994 -0.3043  1.4181
 8547SOL    HW228084   9.550   8.150   3.803 -0.1484  2.4874  2.5631
 8548SOL     OW28085   0.387   6.811   8.104  0.1937  0.0039 -0.3687
 8548SOL    HW128086   0.455   6.826   8.169 -1.3149  0.0577  1.2737
 8548SOL    HW228087   0.392   6.718   8.083 -0.8466 -0.5756  1.7130
 8549SOL     OW28088   4.606   4.289   4.808  0.0894  0.2914 -0.0812
 8549SOL    HW128089   4.692   4.328   4.796  0.9370 -1.3470  0.4833
 8549SOL    HW228090   4.622   4.206   4.852 -1.7602 -0.1706 -0.1753
 8550SOL     OW28091   8.327   7.589   0.090 -0.0378 -0.2471  0.0348
 8550SOL    HW128092   8.317   7.667   0.145  0.5140 -1.7807  2.4412
 8550SOL    HW228093   8.250   7.590   0.034 -0.8477  1.2037  1.0888
 8551SOL     OW28094   5.313   5.661   1.725  0.1087  0.0954  0.3738
 8551SOL    HW128095   5.367   5.702   1.793  0.9579  2.2670 -1.4564
 8551SOL    HW228096   5.231   5.641   1.769  0.6298  1.3963  2.0754
 8552SOL     OW28097   9.601   0.338   8.642  0.1518  1.1580  0.1310
 8552SOL    HW128098   9.519   0.383   8.662 -1.4876 -0.7140 -1.9122
 8552SOL    HW228099   9.604   0.266   8.704 -0.1131  0.8245 -0.2413
 8553SOL     OW28100   5.565   5.494   4.796 -0.0628 -0.1443 -0.3849
 8553SOL    HW128101   5.651   5.457   4.777  0.1026 -0.5927  1.1601
 8553SOL    HW228102   5.536   5.449   4.875 -1.4506  0.4618 -0.5158
 8554SOL     OW28103   5.712   0.908   4.823  0.5373  0.3445  0.0571
 8554SOL    HW128104   5.688   0.891   4.914  1.2104  0.4076  0.2542
 8554SOL    HW228105   5.629   0.904   4.775 -0.1217  2.3069  0.9548
 8555SOL     OW28106   1.778  10.334   4.862 -0.6062  1.2855  0.0441
 8555SOL    HW128107   1.834  10.257   4.859  0.2795  1.9035  0.2054
 8555SOL    HW228108   1.701  10.310   4.811 -1.1283 -0.3019  1.4826
 8556SOL     OW28109   7.208   6.258   3.520 -0.5088  0.2390 -0.1128
 8556SOL    HW128110   7.223   6.282   3.429 -0.2557 -0.8576 -0.3813
 8556SOL    HW228111   7.232   6.336   3.570 -2.4589  1.5329 -1.0666
 8557SOL     OW28112   4.175   1.921   4.891 -0.2030 -0.2748  0.2738
 8557SOL    HW128113   4.191   1.859   4.820  1.1386 -0.5969  0.8274
 8557SOL    HW228114   4.198   1.874   4.970 -0.5071  0.4879  0.8304
 8558SOL     OW28115   1.247   8.171   3.522 -0.0229  0.0623  0.0769
 8558SOL    HW128116   1.166   8.213   3.493  0.8856  2.0598  0.2390
 8558SOL    HW228117   1.297   8.242   3.563  0.8853 -1.5798  2.0029
 8559SOL     OW28118   4.424  10.193   3.358 -0.1481 -0.1238  0.5462
 8559SOL    HW128119   4.490  10.244   3.407 -0.8847  1.2385  0.1777
 8559SOL    HW228120   4.465  10.177   3.273 -0.9746  2.5313 -0.4717
 8560SOL     OW28121   5.121   7.066   6.502  0.4655 -0.0487 -0.1800
 8560SOL    HW128122   5.159   7.077   6.415 -0.7176  1.1407 -0.5790
 8560SOL    HW228123   5.156   7.139   6.553 -0.0845  0.1659 -0.1086
 8561SOL     OW28124   8.613   5.026   5.278  0.1149 -0.0330 -0.5387
 8561SOL    HW128125   8.696   5.020   5.326  1.1122 -1.9379 -2.3082
 8561SOL    HW228126   8.584   4.935   5.270 -1.5700  0.5131 -0.9182
 8562SOL     OW28127   2.421   3.643   2.125 -0.7301 -0.2539 -0.8683
 8562SOL    HW128128   2.473   3.596   2.059 -0.9177 -1.3535 -0.2696
 8562SOL    HW228129   2.337   3.658   2.083 -1.0301 -1.4217 -0.7273
 8563SOL     OW28130   1.103   8.336   9.967  0.0138 -0.2016 -0.4763
 8563SOL    HW128131   1.120   8.394   9.892  0.3327 -0.1182 -0.3368
 8563SOL    HW228132   1.056   8.391  10.029 -0.8443 -0.4493 -0.8845
 8564SOL     OW28133   0.338  10.487   2.178  0.8066 -0.8343  0.3583
 8564SOL    HW128134   0.420  10.485   2.129  2.8243  0.7845  3.3516
 8564SOL    HW228135   0.286  10.556   2.136  2.2342  0.1316  0.1212
 8565SOL     OW28136   0.432   0.892   6.990 -0.1415 -0.5631  0.1141
 8565SOL    HW128137   0.444   0.800   6.968 -3.0406 -0.7543 -1.2208
 8565SOL    HW228138   0.355   0.894   7.047  0.6175  0.9483  1.1547
 8566SOL     OW28139   5.578  10.059   2.233  0.1428 -0.0553  0.6964
 8566SOL    HW128140   5.659  10.060   2.285  0.4466  0.3431  0.2243
 8566SOL    HW228141   5.553  10.151   2.227 -0.4932 -0.1994  1.0559
 8567SOL     OW28142   4.543   9.214   8.481  0.0273  0.1458 -0.4826
 8567SOL    HW128143   4.468   9.274   8.478  0.3725  0.5624 -0.9042
 8567SOL    HW228144   4.613   9.261   8.436 -0.0692 -1.0950 -2.0279
 8568SOL     OW28145   1.188   0.339   7.900  0.2254  0.0061  0.4980
 8568SOL    HW128146   1.168   0.306   7.988  1.4703  1.3739  1.3487
 8568SOL    HW228147   1.269   0.390   7.912  0.9833 -0.5997 -1.6398
 8569SOL     OW28148  10.268   2.281   3.324  0.1063 -0.3039 -0.2790
 8569SOL    HW128149  10.347   2.226   3.327  0.2867  0.0138  1.3526
 8569SOL    HW228150  10.288   2.356   3.380 -1.1270  0.1027 -0.3471
 8570SOL     OW28151   7.112  10.195   1.175  0.1356  0.2850  0.2435
 8570SOL    HW128152   7.022  10.185   1.143 -0.0047 -1.9843  1.1303
 8570SOL    HW228153   7.108  10.269   1.236 -0.9497  0.7260 -0.3448
 8571SOL     OW28154   2.727   7.377   4.739  0.0939 -0.3918 -0.1562
 8571SOL    HW128155   2.640   7.415   4.721  0.3851 -0.3672 -1.6832
 8571SOL    HW228156   2.728   7.296   4.687  0.7158 -0.7818  0.4567
 8572SOL     OW28157   9.804   5.893   9.576 -0.3767 -0.2592 -0.8003
 8572SOL    HW128158   9.744   5.819   9.578  1.0924 -1.5169 -1.0778
 8572SOL    HW228159   9.810   5.922   9.667 -0.9150 -0.5221 -0.6781
 8573SOL     OW28160   3.049   5.884   0.703  0.5228  0.1917  0.2273
 8573SOL    HW128161   3.125   5.827   0.705  1.0949  0.9486  0.4333
 8573SOL    HW228162   3.044   5.914   0.612 -1.1324 -1.9374 -0.4678
 8574SOL     OW28163   5.111   9.409   1.610 -0.2834  0.3305 -0.1039
 8574SOL    HW128164   5.039   9.346   1.621 -1.1365  1.4607  1.1009
 8574SOL    HW228165   5.141   9.395   1.521 -0.6822 -1.5343 -0.0024
 8575SOL     OW28166   6.439   7.559   2.254 -0.2898  0.1528  0.4560
 8575SOL    HW128167   6.415   7.518   2.172  0.7507 -0.9215  0.6608
 8575SOL    HW228168   6.359   7.603   2.284 -0.9522 -0.3009 -0.6033
 8576SOL     OW28169   3.550   8.476   0.542 -0.0855 -0.0325  0.3005
 8576SOL    HW128170   3.549   8.415   0.468 -0.7571  0.6153 -0.2478
 8576SOL    HW228171   3.642   8.484   0.566  0.3063  0.6404 -1.2500
 8577SOL     OW28172   6.209   0.743   9.937  0.0231  0.1759  0.0894
 8577SOL    HW128173   6.180   0.832   9.960  0.3164  0.1929  0.4023
 8577SOL    HW228174   6.295   0.756   9.898  0.5103 -0.0562  1.0578
 8578SOL     OW28175   9.261   4.664   1.278 -0.7806  0.3373 -0.1765
 8578SOL    HW128176   9.186   4.621   1.237 -0.2594  0.1015 -0.9075
 8578SOL    HW228177   9.315   4.693   1.204 -0.2999  0.7776  0.3352
 8579SOL     OW28178   8.194   6.325   2.527 -0.1236 -0.7251 -0.5411
 8579SOL    HW128179   8.191   6.242   2.479  1.1131 -0.6005 -0.8876
 8579SOL    HW228180   8.276   6.366   2.497  0.5658 -0.5281  1.4986
 8580SOL     OW28181   8.725   3.679   5.197 -0.0680 -1.0020 -0.0682
 8580SOL    HW128182   8.775   3.727   5.131  1.6859 -1.4542  0.8651
 8580SOL    HW228183   8.662   3.743   5.230  0.9443  0.1043 -0.1969
 8581SOL     OW28184  10.461   2.876   2.781  0.5056  0.0496 -0.8253
 8581SOL    HW128185  10.429   2.940   2.845 -1.1423  0.7454 -2.2801
 8581SOL    HW228186  10.426   2.792   2.813  0.1844  0.3060 -0.4892
 8582SOL     OW28187   2.755   0.088   1.660  0.5790  0.3618  0.0559
 8582SOL    HW128188   2.694   0.053   1.726 -0.0556  2.8381  0.8944
 8582SOL    HW228189   2.714   0.068   1.576 -0.4026  0.2726  0.5406
 8583SOL     OW28190   3.749   0.695   7.075 -0.1185 -0.4696 -0.3520
 8583SOL    HW128191   3.781   0.781   7.101  1.2221 -0.7938 -0.8461
 8583SOL    HW228192   3.782   0.636   7.143 -1.7505 -0.5176  0.4602
 8584SOL     OW28193   3.900   1.629   4.229 -0.1142 -0.2026  0.3992
 8584SOL    HW128194   3.914   1.534   4.227 -2.3602 -0.5832  0.2030
 8584SOL    HW228195   3.807   1.639   4.249  0.0025  1.9611  0.0804
 8585SOL     OW28196   6.598   3.620   3.534  0.2863  0.3445 -0.0953
 8585SOL    HW128197   6.569   3.640   3.624  2.1656  0.2196  0.5831
 8585SOL    HW228198   6.634   3.703   3.503 -0.6887  0.4833 -0.9038
 8586SOL     OW28199   1.695   1.984   0.146  0.5730  0.1001  0.1796
 8586SOL    HW128200   1.683   1.909   0.088  0.1867  0.7574 -0.6193
 8586SOL    HW228201   1.609   2.026   0.148  0.6776  0.2882  0.9504
 8587SOL     OW28202   8.562   3.246   1.202 -0.2204 -0.1319  0.4948
 8587SOL    HW128203   8.476   3.267   1.166 -0.0926 -1.3498 -0.6011
 8587SOL    HW228204   8.544   3.187   1.275 -0.4263  1.5787  1.8772
 8588SOL     OW28205   1.165   9.487   0.403  0.4870  0.2689  0.0633
 8588SOL    HW128206   1.123   9.499   0.318  2.0884  0.7838 -0.6954
 8588SOL    HW228207   1.099   9.516   0.466 -1.0125 -0.8353 -0.9268
 8589SOL     OW28208   6.290   7.700   3.052 -0.1327  0.5978 -0.1563
 8589SOL    HW128209   6.278   7.609   3.077  0.2269 -0.1126 -2.3278
 8589SOL    HW228210   6.221   7.716   2.987  0.1642  1.7060 -0.2179
 8590SOL     OW28211   8.532   1.566   9.846 -0.4481 -0.3161 -0.3103
 8590SOL    HW128212   8.485   1.483   9.833 -0.2145 -0.3673 -0.8382
 8590SOL    HW228213   8.519   1.614   9.764 -0.7288  0.2451  0.0575
 8591SOL     OW28214   6.033   1.604   7.580 -0.0252 -0.3785  0.1737
 8591SOL    HW128215   5.951   1.635   7.618 -0.4359 -0.3447 -0.7203
 8591SOL    HW228216   6.093   1.678   7.586  0.0378 -0.4960  1.0958
 8592SOL     OW28217   8.389   7.071   6.045 -0.0453 -0.0782 -0.0168
 8592SOL    HW128218   8.347   7.057   5.960  1.4276 -0.4594 -0.7202
 8592SOL    HW228219   8.368   7.161   6.068 -0.0529  0.1922 -1.0330
 8593SOL     OW28220   1.050   6.437   6.539  0.2745 -0.0902  0.1152
 8593SOL    HW128221   0.996   6.410   6.465 -0.2874 -0.7774  0.7624
 8593SOL    HW228222   1.136   6.399   6.521  0.3632  0.4276 -0.5796
 8594SOL     OW28223   0.758   3.391   4.313  0.3824  0.0923 -0.3125
 8594SOL    HW128224   0.729   3.464   4.368  0.1047  0.5943 -1.1161
 8594SOL    HW228225   0.696   3.321   4.331 -0.4011  0.6375 -0.8395
 8595SOL     OW28226   4.836   7.071   2.337  0.6897 -0.3764  0.4243
 8595SOL    HW128227   4.860   7.134   2.404 -1.2417 -1.0361  1.8281
 8595SOL    HW228228   4.834   6.987   2.383 -0.5556 -0.8658 -0.4650
 8596SOL     OW28229   9.945   3.437   0.115  0.1969 -0.2711  0.1140
 8596SOL    HW128230   9.890   3.405   0.044  0.5501 -1.0251  0.1745
 8596SOL    HW228231  10.032   3.449   0.075  0.1217  0.4353  0.1386
 8597SOL     OW28232   6.645   1.470   0.911 -0.0970 -0.2427  0.2218
 8597SOL    HW128233   6.584   1.448   0.840  0.4903  0.0732 -0.3834
 8597SOL    HW228234   6.723   1.417   0.893  0.1817  0.0896  0.4454
 8598SOL     OW28235   6.602   5.880   4.587 -0.1873  0.0286  0.2710
 8598SOL    HW128236   6.542   5.945   4.622 -0.8372 -0.7909  0.7279
 8598SOL    HW228237   6.655   5.853   4.662 -0.6208 -0.6994  0.3286
 8599SOL     OW28238   9.508   8.484   5.110 -0.8296  0.2462  0.0782
 8599SOL    HW128239   9.558   8.558   5.143 -0.4384  0.0525 -0.0760
 8599SOL    HW228240   9.430   8.481   5.165 -0.4377  0.2445  0.6424
 8600SOL     OW28241   9.477   2.986   2.838  0.3268 -0.0433  0.1257
 8600SOL    HW128242   9.439   2.961   2.754  0.0147  0.8049  0.0156
 8600SOL    HW228243   9.403   3.019   2.890  0.9132  1.8786 -0.1865
 8601SOL     OW28244   2.538   8.858   1.400  0.0661 -0.1241 -0.0228
 8601SOL    HW128245   2.512   8.912   1.475 -0.3521 -0.3305 -0.0170
 8601SOL    HW228246   2.557   8.772   1.437  0.5847 -0.0262 -0.0532
 8602SOL     OW28247   4.408  10.441   2.997 -0.1404  0.3699  0.5180
 8602SOL    HW128248   4.327  10.464   3.043 -0.2766 -1.7894  1.4593
 8602SOL    HW228249   4.381  10.429   2.906 -0.7941  0.1817  0.7299
 8603SOL     OW28250   8.842   0.051   2.884  0.9641 -0.6857 -0.9041
 8603SOL    HW128251   8.799   0.135   2.870  2.5185  0.3371  0.2193
 8603SOL    HW228252   8.770  -0.012   2.890 -0.1863  0.3398 -2.8973
 8604SOL     OW28253   3.982  10.146   5.655  0.5035  0.1341 -0.5937
 8604SOL    HW128254   3.949  10.126   5.743  0.2816  0.7003 -0.5417
 8604SOL    HW228255   4.038  10.222   5.667  0.3175  0.3362 -0.9695
 8605SOL     OW28256   7.007   2.991   1.241 -0.0187  0.2483  0.7133
 8605SOL    HW128257   7.031   3.035   1.160  0.9312  0.4827  1.1177
 8605SOL    HW228258   7.011   3.059   1.308  1.0210 -0.3439  1.2647
 8606SOL     OW28259   4.060   3.712   5.055 -0.3376 -0.4614 -0.0202
 8606SOL    HW128260   4.013   3.723   4.973 -0.8496 -0.8833  0.2086
 8606SOL    HW228261   4.081   3.618   5.058  0.5493 -0.2718 -0.1332
 8607SOL     OW28262   4.033   8.378   4.035 -0.6867  0.3465 -0.1583
 8607SOL    HW128263   3.956   8.348   3.987 -1.3631 -1.2958  1.7907
 8607SOL    HW228264   4.095   8.305   4.029 -0.5458  0.3681  0.9021
 8608SOL     OW28265   5.773   1.077   1.432  0.1214 -0.2382 -0.1585
 8608SOL    HW128266   5.719   1.056   1.355  0.4898 -0.1329 -0.4465
 8608SOL    HW228267   5.777   0.995   1.481  0.3686 -0.4618 -0.5490
 8609SOL     OW28268   3.490   3.035   8.924  0.2608 -0.0564  0.3469
 8609SOL    HW128269   3.406   3.073   8.949  0.2704 -0.3640  0.8678
 8609SOL    HW228270   3.470   2.943   8.904  0.1864  0.2588 -1.1611
 8610SOL     OW28271   7.253   9.459  10.014 -0.2081  0.2851  0.6465
 8610SOL    HW128272   7.300   9.520  10.072  2.7334 -0.9247 -0.2538
 8610SOL    HW228273   7.255   9.375  10.060  0.6016 -0.2917 -0.4023
 8611SOL     OW28274   2.977   5.624   7.030 -0.0644 -0.4634  0.2634
 8611SOL    HW128275   2.956   5.559   6.963  0.5318 -1.6941  1.2417
 8611SOL    HW228276   3.001   5.573   7.107 -1.0543  0.9032  1.5541
 8612SOL     OW28277   4.705   7.074   9.817 -0.3044 -0.5251  0.4025
 8612SOL    HW128278   4.624   7.057   9.866 -1.0980  1.8108  0.0488
 8612SOL    HW228279   4.732   6.988   9.786 -3.7139 -1.2494 -1.0593
 8613SOL     OW28280   4.628   5.658   6.865  0.2571 -0.8241  0.4202
 8613SOL    HW128281   4.563   5.728   6.860  0.8667 -0.2027  0.9361
 8613SOL    HW228282   4.615   5.606   6.786 -2.1307 -1.8482  1.3941
 8614SOL     OW28283   5.581   1.981   0.566  0.1184  0.0403  0.4402
 8614SOL    HW128284   5.604   2.049   0.503 -0.3766 -0.7703 -0.6467
 8614SOL    HW228285   5.613   1.900   0.527  1.1270 -0.3196  1.9392
 8615SOL     OW28286   9.845  10.092   6.869 -0.6910  0.2619  0.0437
 8615SOL    HW128287   9.902  10.105   6.945 -1.8464  0.4244  0.9181
 8615SOL    HW228288   9.878  10.013   6.828 -1.7744 -1.5379  2.3979
 8616SOL     OW28289  10.231   5.474   9.556 -0.2242 -0.2540  0.5725
 8616SOL    HW128290  10.292   5.405   9.531  1.0735  1.1389 -0.3031
 8616SOL    HW228291  10.275   5.556   9.532 -2.0928  0.8660  0.6595
 8617SOL     OW28292   5.629   5.848   0.838  0.3919 -0.7842 -0.4028
 8617SOL    HW128293   5.708   5.850   0.784  0.5560  0.2233 -0.1356
 8617SOL    HW228294   5.642   5.918   0.902 -0.1657 -1.4252  0.4303
 8618SOL     OW28295   1.567   3.499   0.564 -0.2903 -0.0836 -0.4198
 8618SOL    HW128296   1.549   3.578   0.513  1.3325 -0.8291 -2.2712
 8618SOL    HW228297   1.654   3.471   0.536 -0.5219 -2.1531  0.6812
 8619SOL     OW28298  10.405   2.408   6.695 -0.0796  0.0748  0.3766
 8619SOL    HW128299  10.344   2.448   6.756  0.8460 -0.3154  1.5822
 8619SOL    HW228300  10.354   2.338   6.653 -0.6484  0.1786  0.8817
 8620SOL     OW28301   9.634   3.791   1.408  0.2167  0.3925 -0.1246
 8620SOL    HW128302   9.603   3.829   1.491  0.9255 -0.4467  0.5451
 8620SOL    HW228303   9.725   3.818   1.402  0.8302 -1.3973  0.5224
 8621SOL     OW28304   6.292   2.544   3.910  0.1609  0.1753 -0.4581
 8621SOL    HW128305   6.338   2.487   3.849  0.4892 -1.2857  1.0979
 8621SOL    HW228306   6.214   2.572   3.862  0.3585 -0.9912 -1.5147
 8622SOL     OW28307   0.023   3.546   3.456 -0.6676 -0.6786 -0.5042
 8622SOL    HW128308  -0.043   3.588   3.511 -0.6483  0.9009 -1.6304
 8622SOL    HW228309   0.087   3.511   3.518 -0.8504  0.6912  0.5060
 8623SOL     OW28310   1.372   9.531   3.529 -0.1738  0.1935  0.3013
 8623SOL    HW128311   1.371   9.626   3.541  1.9732  0.3039  0.1058
 8623SOL    HW228312   1.440   9.500   3.588 -0.2076 -1.1154 -0.3012
 8624SOL     OW28313   4.046   0.496   8.148  0.6493  0.0581 -0.4718
 8624SOL    HW128314   4.011   0.585   8.152 -0.5522 -0.3583 -1.0360
 8624SOL    HW228315   4.073   0.485   8.057  0.3642 -0.2899 -0.5193
 8625SOL     OW28316   1.299  10.238   0.397  0.7417 -0.4879  0.3105
 8625SOL    HW128317   1.345  10.322   0.392 -1.0951  0.5040 -1.3540
 8625SOL    HW228318   1.322  10.193   0.316  1.5494 -1.5567  1.1026
 8626SOL     OW28319   8.016   0.423   9.732 -0.3773 -0.1144  0.3106
 8626SOL    HW128320   8.026   0.428   9.827  0.7545  0.5805  0.1764
 8626SOL    HW228321   7.981   0.509   9.707  1.6082  0.6136 -0.1219
 8627SOL     OW28322   0.059   2.554   0.577  0.4994  0.4262  0.0391
 8627SOL    HW128323   0.129   2.490   0.589  0.9406  1.2056  1.9832
 8627SOL    HW228324  -0.007   2.530   0.643 -0.0890  0.9890 -0.3311
 8628SOL     OW28325   3.014   3.593   4.386 -0.3148 -0.1283 -0.2192
 8628SOL    HW128326   2.943   3.530   4.395  0.3594 -0.6106  2.5572
 8628SOL    HW228327   2.971   3.678   4.380 -1.1473 -0.6048 -1.3658
 8629SOL     OW28328   2.081   5.629   9.770  0.1798 -0.6424  0.4589
 8629SOL    HW128329   2.004   5.573   9.767 -0.7938  0.6547 -0.3605
 8629SOL    HW228330   2.150   5.579   9.726  0.1411 -2.2453  2.1329
 8630SOL     OW28331   8.210   3.349   9.256 -0.1662 -0.1246  0.3506
 8630SOL    HW128332   8.127   3.317   9.290 -0.3009  1.4171  1.5543
 8630SOL    HW228333   8.194   3.363   9.162 -0.1122 -3.3592 -0.2547
 8631SOL     OW28334   4.657   0.326   7.826  0.7154 -0.1418  0.7202
 8631SOL    HW128335   4.603   0.397   7.860  1.7792  0.0879  1.9965
 8631SOL    HW228336   4.639   0.325   7.732 -0.5326  0.7482  0.9213
 8632SOL     OW28337   0.286   4.169   1.016  0.2538  0.0202  0.6641
 8632SOL    HW128338   0.274   4.254   0.972 -1.2753 -0.6984 -0.4251
 8632SOL    HW228339   0.213   4.116   0.984  1.7973 -2.0851  0.4203
 8633SOL     OW28340   9.527   4.585   2.524  0.4445  0.1309 -0.0580
 8633SOL    HW128341   9.584   4.643   2.574  0.1079 -0.0426  0.5322
 8633SOL    HW228342   9.438   4.612   2.547  0.2759  0.1855 -0.7254
 8634SOL     OW28343   5.095   4.054   9.676 -0.0029 -0.0731  0.0465
 8634SOL    HW128344   5.097   3.973   9.726  0.0578 -0.4276 -0.5222
 8634SOL    HW228345   5.172   4.103   9.706  0.6471 -0.7554 -0.4818
 8635SOL     OW28346   7.593   9.115   8.908  0.5343 -0.5789  0.0099
 8635SOL    HW128347   7.587   9.210   8.920  1.2013 -0.3233 -1.4428
 8635SOL    HW228348   7.631   9.083   8.990  1.4186  0.5565  0.0732
 8636SOL     OW28349  10.293   2.024  10.407  0.4507  0.7497 -0.7241
 8636SOL    HW128350  10.213   2.074  10.421  0.7553  0.9066  0.6086
 8636SOL    HW228351  10.362   2.091  10.401  0.8091  0.5330  0.6919
 8637SOL     OW28352   5.618   9.678   2.220  0.0189  0.9605 -0.1813
 8637SOL    HW128353   5.553   9.734   2.178  0.0375  1.3391  0.2765
 8637SOL    HW228354   5.584   9.589   2.210 -0.7936  1.1870  0.4236
 8638SOL     OW28355   7.046   7.923   0.857 -0.3359  0.3770  0.4717
 8638SOL    HW128356   7.067   7.914   0.765 -0.7204  0.4751  0.3720
 8638SOL    HW228357   7.129   7.911   0.903 -0.1380  0.3819  0.1102
 8639SOL     OW28358   7.838   5.357   0.719  0.1511 -0.1911  0.3215
 8639SOL    HW128359   7.749   5.366   0.752 -0.2623  0.5884 -0.9486
 8639SOL    HW228360   7.847   5.427   0.654  1.3262 -0.9529 -0.3744
 8640SOL     OW28361   4.529   2.552   1.638 -0.8418  0.5058  0.2978
 8640SOL    HW128362   4.509   2.553   1.732  0.9927 -0.3532  0.7227
 8640SOL    HW228363   4.583   2.475   1.625 -0.7939  0.7917 -1.4308
 8641SOL     OW28364   4.368   1.063   8.848  0.1349 -0.1111  0.3445
 8641SOL    HW128365   4.293   1.073   8.906  0.2983  0.4710  0.4622
 8641SOL    HW228366   4.432   1.014   8.899 -0.0963 -0.4633  0.3024
 8642SOL     OW28367   6.073   0.159   4.620 -0.0415 -0.0048 -0.0134
 8642SOL    HW128368   6.004   0.180   4.682 -1.7179 -0.1031 -1.7659
 8642SOL    HW228369   6.030   0.105   4.554  2.0561 -1.2653 -0.4329
 8643SOL     OW28370   9.831   4.107   9.853 -0.2987  0.1783 -0.4962
 8643SOL    HW128371   9.781   4.145   9.781  0.5067 -0.6005 -1.4808
 8643SOL    HW228372   9.851   4.182   9.910  0.0056  0.9924 -1.6390
 8644SOL     OW28373   5.183   5.660   7.657  0.3047 -0.3309  0.3904
 8644SOL    HW128374   5.097   5.618   7.659 -0.9027  1.9694  0.4381
 8644SOL    HW228375   5.218   5.637   7.571 -1.4692  0.6601 -0.6654
 8645SOL     OW28376   1.863   6.759   4.033  0.0781  0.3081 -0.0496
 8645SOL    HW128377   1.853   6.828   3.967  0.3231 -0.2741 -0.7110
 8645SOL    HW228378   1.781   6.762   4.082 -0.3042  0.4433 -0.6797
 8646SOL     OW28379   8.120   1.679   9.658 -0.0054  0.5551  0.6609
 8646SOL    HW128380   8.088   1.599   9.698 -2.5720  1.1546 -0.0246
 8646SOL    HW228381   8.044   1.716   9.613  1.7813  1.9112 -1.4621
 8647SOL     OW28382   2.967   2.545   6.277 -0.5089  0.3285 -0.1050
 8647SOL    HW128383   2.896   2.480   6.283 -1.7725  1.7128  0.5310
 8647SOL    HW228384   2.948   2.593   6.196  1.1082 -0.8075 -1.2223
 8648SOL     OW28385   4.265   9.544   1.106  0.4514  0.3280  0.2562
 8648SOL    HW128386   4.259   9.568   1.014  0.3193  1.7634  0.6055
 8648SOL    HW228387   4.300   9.623   1.148  1.9275 -0.8100  1.2228
 8649SOL     OW28388   3.112   7.555   6.653 -0.1841  0.4686 -0.6336
 8649SOL    HW128389   3.163   7.636   6.645  2.2498 -0.6284  1.9283
 8649SOL    HW228390   3.129   7.508   6.571  1.5040  0.9630 -0.6033
 8650SOL     OW28391   0.438   5.881   0.649 -0.1162 -0.0638 -0.2454
 8650SOL    HW128392   0.419   5.913   0.561 -0.1961  0.2289 -0.1208
 8650SOL    HW228393   0.358   5.897   0.699  0.2037  0.5060  0.0880
 8651SOL     OW28394   6.415   1.433   4.065  0.2184  0.5849  0.2251
 8651SOL    HW128395   6.448   1.520   4.041  1.6281 -0.1118 -0.5316
 8651SOL    HW228396   6.493   1.385   4.093 -0.1443 -1.0684 -1.3610
 8652SOL     OW28397   3.297   1.322   9.589  0.1789  0.2239  0.2757
 8652SOL    HW128398   3.232   1.384   9.620 -0.0686 -0.2074  0.6245
 8652SOL    HW228399   3.316   1.267   9.665  1.7881  1.0490  0.5158
 8653SOL     OW28400   9.775   1.522   5.226 -0.2114  0.2713 -0.1768
 8653SOL    HW128401   9.717   1.581   5.275 -1.5516  0.5249 -1.9898
 8653SOL    HW228402   9.800   1.571   5.148  0.0415 -0.9215 -0.8769
 8654SOL     OW28403   5.853   7.231   0.445  0.2322 -0.3536  0.3374
 8654SOL    HW128404   5.764   7.254   0.471  0.3642 -0.2152  0.6622
 8654SOL    HW228405   5.903   7.312   0.455 -0.0299  0.1482 -1.8081
 8655SOL     OW28406   2.824   3.934   9.138 -0.0218  0.1748 -0.1162
 8655SOL    HW128407   2.835   3.845   9.106  1.3531  0.0971  0.4993
 8655SOL    HW228408   2.741   3.932   9.186 -0.2500 -0.6339 -0.5328
 8656SOL     OW28409   1.070   8.133   7.484 -0.1031  0.1702  0.2648
 8656SOL    HW128410   1.122   8.194   7.431  1.0862 -0.7873  0.2885
 8656SOL    HW228411   1.069   8.173   7.571 -0.3493  0.7453  0.0026
 8657SOL     OW28412   3.080   2.807   0.355  0.1572  0.0851  0.6092
 8657SOL    HW128413   3.025   2.827   0.279 -0.1629 -0.8751  0.5673
 8657SOL    HW228414   3.089   2.890   0.402  1.2343  0.9597 -1.0283
 8658SOL     OW28415   6.937   0.418   4.281 -0.5358  0.1879  0.9041
 8658SOL    HW128416   7.026   0.383   4.284 -0.4363  0.4149  0.6846
 8658SOL    HW228417   6.940   0.485   4.212 -0.8670  0.2200  0.9182
 8659SOL     OW28418   6.297   8.025   9.446  0.1564  0.0422 -0.0149
 8659SOL    HW128419   6.381   7.981   9.431 -0.2553 -0.2818 -1.5735
 8659SOL    HW228420   6.234   7.973   9.397 -0.8041  0.8162  0.3757
 8660SOL     OW28421   1.978   6.329  10.032 -0.2585 -0.1933 -0.2254
 8660SOL    HW128422   1.888   6.313  10.004 -0.1504  1.1807 -1.4641
 8660SOL    HW228423   2.032   6.285   9.966 -0.0217  0.7634 -0.6874
 8661SOL     OW28424   6.868   4.692   3.966 -0.5858 -0.3739  0.0253
 8661SOL    HW128425   6.938   4.651   3.916 -0.5678 -1.9540  1.2724
 8661SOL    HW228426   6.790   4.641   3.943 -0.7363 -0.5704  0.9481
 8662SOL     OW28427   6.820   0.345   7.437  0.2015 -0.8324 -0.5447
 8662SOL    HW128428   6.855   0.384   7.357  2.7223  0.5118  1.0709
 8662SOL    HW228429   6.898   0.319   7.487 -1.1361  0.1947  2.2984
 8663SOL     OW28430   4.573   2.530   7.239 -0.6294 -0.2212  0.1560
 8663SOL    HW128431   4.599   2.478   7.163  0.0628 -1.5704  1.2588
 8663SOL    HW228432   4.651   2.580   7.262 -0.5198 -0.5726  0.5604
 8664SOL     OW28433   3.155   3.859   0.185 -0.1717  0.3906  0.4137
 8664SOL    HW128434   3.093   3.930   0.177 -3.0945 -2.1228 -1.7617
 8664SOL    HW228435   3.138   3.821   0.271  0.7872  1.6759  1.2083
 8665SOL     OW28436   5.436   4.205   5.891 -0.4868  0.0035  1.1327
 8665SOL    HW128437   5.368   4.148   5.855  0.4427 -1.1428  1.1169
 8665SOL    HW228438   5.436   4.185   5.985 -0.3208  0.1635  1.1667
 8666SOL     OW28439   6.640   9.560   1.191 -0.4848  0.0722  0.2143
 8666SOL    HW128440   6.713   9.509   1.226  0.3930  2.3436  1.9392
 8666SOL    HW228441   6.563   9.527   1.238 -0.7062 -2.3038 -1.5833
 8667SOL     OW28442   8.872   8.810   6.266  0.0579 -0.0479 -0.0380
 8667SOL    HW128443   8.836   8.737   6.215 -0.4042  0.3777 -0.3450
 8667SOL    HW228444   8.962   8.786   6.284 -0.5379 -1.4295  1.2631
 8668SOL     OW28445   6.838   9.572   8.186  0.0225  0.1163 -0.0816
 8668SOL    HW128446   6.915   9.586   8.132 -2.0577  3.4889 -2.5980
 8668SOL    HW228447   6.804   9.487   8.159  0.8798  0.2281 -1.6050
 8669SOL     OW28448   2.981   3.797   3.268  0.6110 -0.5387 -0.4728
 8669SOL    HW128449   3.026   3.856   3.207  0.5305  0.0925  0.0699
 8669SOL    HW228450   2.953   3.853   3.340 -0.9707 -0.9357 -0.7410
 8670SOL     OW28451   9.777   2.056   5.335  0.2289  0.1071  0.9982
 8670SOL    HW128452   9.710   2.011   5.387 -1.7530  0.5113 -1.0561
 8670SOL    HW228453   9.791   2.139   5.380 -1.3327  0.3843  1.0380
 8671SOL     OW28454   3.963   8.198   7.914  0.1061  0.1310 -0.0358
 8671SOL    HW128455   3.971   8.227   7.823  1.0150  0.2441  0.0690
 8671SOL    HW228456   3.872   8.217   7.937 -0.1941 -0.0724 -0.9763
 8672SOL     OW28457   4.488  10.137   2.971 -0.5780  0.1221  0.7572
 8672SOL    HW128458   4.451  10.102   2.890  0.7387  1.9971 -0.7495
 8672SOL    HW228459   4.467  10.231   2.968  1.1546  0.5682  1.6243
 8673SOL     OW28460   1.486   6.029   6.182 -0.0879 -0.1141 -0.0050
 8673SOL    HW128461   1.516   5.970   6.113  0.9489  0.4214 -0.0314
 8673SOL    HW228462   1.411   6.074   6.144 -1.0802 -1.5896  0.1109
 8674SOL     OW28463   9.070   3.457   9.365 -0.2946 -0.6258 -0.4945
 8674SOL    HW128464   9.046   3.519   9.296  1.1480  0.6953  0.1386
 8674SOL    HW228465   8.992   3.403   9.376 -0.8422 -0.3665 -2.5915
 8675SOL     OW28466   8.411  10.299   7.724  0.3037 -0.3763  0.2399
 8675SOL    HW128467   8.425  10.226   7.784 -0.4720  1.3403  2.6630
 8675SOL    HW228468   8.496  10.345   7.722  0.1640 -0.1057  0.4915
 8676SOL     OW28469   1.624   9.916   4.017  0.1857  0.6360  0.0256
 8676SOL    HW128470   1.720   9.906   4.018  0.0852 -0.3519  0.6358
 8676SOL    HW228471   1.597   9.898   4.107 -0.8157 -1.7020 -0.6862
 8677SOL     OW28472   9.455   9.083   4.072  0.2185 -0.0770  0.6722
 8677SOL    HW128473   9.542   9.099   4.108  1.2780 -0.4492 -1.5526
 8677SOL    HW228474   9.430   8.997   4.107  1.2925 -0.5190  0.4038
 8678SOL     OW28475  10.177   8.187   4.091  0.0466 -0.1286  0.2361
 8678SOL    HW128476  10.225   8.267   4.112  1.5374 -1.0698  0.5239
 8678SOL    HW228477  10.160   8.146   4.176 -1.8704  0.4752  0.2047
 8679SOL     OW28478   5.368   8.275   5.874 -0.7917  0.1506  0.4583
 8679SOL    HW128479   5.458   8.243   5.863 -1.1364 -1.2367  1.4402
 8679SOL    HW228480   5.373   8.368   5.853  1.0199  0.2606  1.2198
 8680SOL     OW28481   6.731   6.470   1.408  0.0459  0.2015  0.1363
 8680SOL    HW128482   6.671   6.430   1.345 -1.0460  0.4655  0.9822
 8680SOL    HW228483   6.688   6.553   1.432  1.1157  0.7536  0.1948
 8681SOL     OW28484   0.022   7.874   9.031 -0.7721  0.0553 -0.4539
 8681SOL    HW128485   0.020   7.955   9.080 -1.3503 -1.0658  1.4754
 8681SOL    HW228486  -0.011   7.897   8.944 -0.2108  1.9960 -0.1871
 8682SOL     OW28487   3.345   9.381   0.494  0.3587 -0.4513  0.0693
 8682SOL    HW128488   3.258   9.417   0.513  0.6198 -0.0122  0.4605
 8682SOL    HW228489   3.329   9.291   0.468 -0.1477 -0.6021  0.8761
 8683SOL     OW28490   2.913   5.992   4.797  0.6734 -0.1466 -0.0279
 8683SOL    HW128491   2.868   6.076   4.784 -1.3734 -1.0186  0.9004
 8683SOL    HW228492   2.954   6.000   4.883  0.6619 -0.0235 -0.0339
 8684SOL     OW28493   4.119   3.949   9.630  0.6275  0.3358 -0.0490
 8684SOL    HW128494   4.106   3.857   9.655 -0.1677  0.8651  1.5908
 8684SOL    HW228495   4.035   3.991   9.649  0.5022  1.1478 -2.1294
 8685SOL     OW28496   6.790   6.980   7.851  0.0856 -0.3851  0.5200
 8685SOL    HW128497   6.745   7.007   7.931  0.5202  1.1501  0.2714
 8685SOL    HW228498   6.883   6.989   7.871  0.2410 -1.2611  0.2549
 8686SOL     OW28499   0.584   5.062   0.910 -0.0440  0.2483 -0.3484
 8686SOL    HW128500   0.665   5.033   0.870  1.4576  3.3410  0.1712
 8686SOL    HW228501   0.533   5.101   0.838 -0.4333 -0.3735 -0.4161
 8687SOL     OW28502   0.353  10.277   3.617 -0.1033  0.3285  0.0642
 8687SOL    HW128503   0.373  10.344   3.553 -1.9748  2.0611  1.1479
 8687SOL    HW228504   0.413  10.294   3.690 -0.1820  0.4588  0.0988
 8688SOL     OW28505   0.044   7.082   0.255 -0.6481 -0.3473  0.1678
 8688SOL    HW128506   0.019   7.106   0.345  0.8268 -0.1694  0.5551
 8688SOL    HW228507   0.096   7.003   0.265  1.5870  0.9951 -0.2556
 8689SOL     OW28508   3.560   9.579   3.992 -0.1180  0.0639 -0.1569
 8689SOL    HW128509   3.526   9.494   3.964 -2.0518  0.8792 -0.4739
 8689SOL    HW228510   3.611   9.610   3.918  0.2018 -0.5900 -0.2219
 8690SOL     OW28511   4.742   7.510   5.291 -0.3336  0.4069  0.2345
 8690SOL    HW128512   4.775   7.538   5.205  0.2481  0.3763  0.4381
 8690SOL    HW228513   4.784   7.571   5.353  0.1209 -0.2490  0.5886
 8691SOL     OW28514   0.710   9.997   3.332 -0.4876  0.3061  0.4182
 8691SOL    HW128515   0.799   9.965   3.347  0.0431  0.7187 -1.5728
 8691SOL    HW228516   0.656   9.948   3.394  0.7669 -1.7928 -0.0648
 8692SOL     OW28517   8.045   9.074   1.759  0.3900 -0.2057 -0.1078
 8692SOL    HW128518   7.960   9.060   1.802  0.3045 -0.1749 -0.2652
 8692SOL    HW228519   8.056   9.169   1.760  0.0422 -0.1496 -0.8132
 8693SOL     OW28520   0.744   3.805  10.280  0.2424  0.3074  0.5572
 8693SOL    HW128521   0.812   3.786  10.345  1.5102 -0.6159 -0.9550
 8693SOL    HW228522   0.666   3.761  10.313  1.0291 -0.6659  1.1606
 8694SOL     OW28523   4.221   4.587   7.074 -0.3201 -0.0734  0.0033
 8694SOL    HW128524   4.277   4.509   7.072 -0.2253 -0.1228  2.0596
 8694SOL    HW228525   4.256   4.644   7.006  2.0311 -0.2740  0.9414
 8695SOL     OW28526   9.943   8.906   5.021  0.4649  0.1152  0.4256
 8695SOL    HW128527   9.867   8.964   5.033  0.8255  0.5360  0.6925
 8695SOL    HW228528   9.999   8.923   5.097 -0.2300 -1.8451  1.4662
 8696SOL     OW28529   6.220   0.449   5.182 -0.1931 -0.4274 -0.5102
 8696SOL    HW128530   6.227   0.525   5.125  0.8183 -0.6671 -0.7244
 8696SOL    HW228531   6.283   0.465   5.252  0.2025 -1.1635 -0.6860
 8697SOL     OW28532   3.160   9.884   0.393  0.4245 -0.8417 -0.3744
 8697SOL    HW128533   3.216   9.806   0.399  1.9354  0.2207 -0.1688
 8697SOL    HW228534   3.183   9.936   0.470 -1.8902 -0.9968  0.4779
 8698SOL     OW28535   1.850   0.496   7.809 -0.2273 -0.0555  0.8943
 8698SOL    HW128536   1.906   0.573   7.806  0.2374 -0.3864  0.8576
 8698SOL    HW228537   1.909   0.425   7.836 -0.5674 -0.4655  0.5753
 8699SOL     OW28538   1.203   5.243   3.954 -0.3907  0.8979 -0.2284
 8699SOL    HW128539   1.263   5.187   4.004 -0.6559  0.3632 -0.5056
 8699SOL    HW228540   1.116   5.210   3.975 -0.4562 -0.0925 -1.9338
 8700SOL     OW28541   7.735   0.564   0.284 -0.1441  0.1596 -0.5801
 8700SOL    HW128542   7.784   0.613   0.350  0.9361 -0.6693 -0.7476
 8700SOL    HW228543   7.717   0.479   0.326  1.3637 -0.7296 -1.6371
 8701SOL     OW28544   6.225   8.044   6.022 -0.2282 -0.6603  0.0116
 8701SOL    HW128545   6.259   8.080   5.940 -0.7655  0.1172  0.1241
 8701SOL    HW228546   6.132   8.064   6.020 -0.0481  0.4244  1.3525
 8702SOL     OW28547   6.996   2.269   0.130  0.4184  0.3882  0.3065
 8702SOL    HW128548   7.015   2.363   0.135 -0.7425  0.8053 -1.8146
 8702SOL    HW228549   6.907   2.260   0.166  0.0689  0.2993 -0.5604
 8703SOL     OW28550   9.670   2.895   8.485 -0.2724 -0.1977 -0.3299
 8703SOL    HW128551   9.682   2.973   8.430  0.0999 -0.7905 -1.1123
 8703SOL    HW228552   9.737   2.833   8.453  0.0233 -0.5155  0.8688
 8704SOL     OW28553   8.383   7.885   8.903  0.0592 -0.3146 -0.4552
 8704SOL    HW128554   8.426   7.804   8.929  0.0832 -0.1202  0.1436
 8704SOL    HW228555   8.392   7.889   8.808  0.6395 -0.6797 -0.4144
 8705SOL     OW28556   9.616   4.802  10.217 -0.5513  0.1965 -0.3942
 8705SOL    HW128557   9.543   4.742  10.200  0.5375 -1.5134  0.7028
 8705SOL    HW228558   9.657   4.813  10.131 -1.3467  0.1668 -0.7929
 8706SOL     OW28559   4.183   3.994   0.759 -0.2921  0.9120 -0.6391
 8706SOL    HW128560   4.103   3.957   0.795  0.4928 -1.0540 -0.7892
 8706SOL    HW228561   4.192   3.954   0.672  0.3201  1.9253 -1.0723
 8707SOL     OW28562   1.818   6.188   1.681 -1.4521  0.1710 -0.6634
 8707SOL    HW128563   1.783   6.274   1.702 -0.1233  0.6609 -0.3547
 8707SOL    HW228564   1.777   6.165   1.597  0.1389  2.2948 -2.1123
 8708SOL     OW28565   6.219   5.725   6.645 -0.7790 -0.1016 -0.0586
 8708SOL    HW128566   6.283   5.793   6.625 -2.0451  0.6778 -1.7240
 8708SOL    HW228567   6.261   5.643   6.617 -0.0802  0.2518 -0.0682
 8709SOL     OW28568   5.152   5.653   8.090 -0.5139 -0.2943 -0.0087
 8709SOL    HW128569   5.193   5.709   8.023 -0.9648  2.0707  1.5664
 8709SOL    HW228570   5.058   5.665   8.076 -0.6211  0.6141  1.2717
 8710SOL     OW28571   9.887   8.581   9.879  0.5246 -0.1517 -0.0241
 8710SOL    HW128572   9.917   8.604   9.791 -0.1676  0.0779 -0.2057
 8710SOL    HW228573   9.930   8.496   9.897  1.2595  0.1546 -0.2712
 8711SOL     OW28574   4.262   6.605   3.210  0.1917 -0.0354  0.3034
 8711SOL    HW128575   4.273   6.626   3.303 -1.5525  0.3054  0.4708
 8711SOL    HW228576   4.169   6.582   3.202  0.5040 -0.8801 -1.2052
 8712SOL     OW28577   4.819   6.978   7.516  0.6779  0.9079  0.6966
 8712SOL    HW128578   4.870   6.920   7.573 -2.2427  0.3667  3.0087
 8712SOL    HW228579   4.818   6.934   7.431  1.0771 -0.8610  1.5671
 8713SOL     OW28580   2.857   4.386   6.344  0.6013 -0.0770 -0.0681
 8713SOL    HW128581   2.771   4.413   6.311 -0.2486 -2.5932 -0.1343
 8713SOL    HW228582   2.877   4.306   6.295  1.8435 -0.8706  1.6443
 8714SOL     OW28583   8.237   9.909   3.051 -0.1668  0.5619  1.0736
 8714SOL    HW128584   8.296   9.915   2.976  0.7134  2.0344  1.8360
 8714SOL    HW228585   8.154   9.878   3.014  0.5982  0.0609 -0.2850
 8715SOL     OW28586   9.646   5.068   7.458 -0.1521 -0.0621  0.3893
 8715SOL    HW128587   9.655   5.129   7.384 -1.5860 -0.0828  0.1557
 8715SOL    HW228588   9.569   5.099   7.505  0.7171 -0.0824  1.8828
 8716SOL     OW28589   6.869   4.428  10.095  0.4579 -0.1381 -0.0515
 8716SOL    HW128590   6.837   4.493  10.033 -0.7712 -0.5180  0.1569
 8716SOL    HW228591   6.816   4.350  10.077  0.8447 -0.5928  0.7343
 8717SOL     OW28592   7.115   7.574   6.774  0.1743 -0.2696 -0.8342
 8717SOL    HW128593   7.162   7.640   6.824 -1.3509 -0.0768  0.4358
 8717SOL    HW228594   7.053   7.624   6.721 -1.8938 -0.6452  1.0974
 8718SOL     OW28595   8.041   5.549   2.755  0.5079  0.1901 -0.3146
 8718SOL    HW128596   8.127   5.523   2.721  0.0670 -0.8048 -0.7341
 8718SOL    HW228597   8.053   5.551   2.850  1.2689  1.1314 -0.4140
 8719SOL     OW28598   2.492   0.514   7.730  0.8838 -0.0958 -0.5314
 8719SOL    HW128599   2.573   0.507   7.781  0.6695  0.4086 -0.1245
 8719SOL    HW228600   2.468   0.606   7.734  0.9965  0.0073 -1.7560
 8720SOL     OW28601   2.551  10.046   9.748 -0.3042 -0.4175  0.8138
 8720SOL    HW128602   2.543  10.142   9.748  1.7933 -0.1909  1.2938
 8720SOL    HW228603   2.572  10.024   9.839  1.8104 -1.0131  0.2429
 8721SOL     OW28604   7.619   9.615   8.927  0.4830 -0.2777  0.1105
 8721SOL    HW128605   7.687   9.682   8.935  1.7337 -1.6089  1.1635
 8721SOL    HW228606   7.582   9.608   9.015 -1.2266  0.5765 -0.4922
 8722SOL     OW28607   3.387   1.821   1.709 -0.2279  0.3527 -0.3558
 8722SOL    HW128608   3.389   1.726   1.718 -2.4131  0.3637  0.7617
 8722SOL    HW228609   3.451   1.853   1.773 -0.0508 -0.3194 -0.1896
 8723SOL     OW28610   5.530   1.742   8.160 -0.1509 -0.7838  0.2982
 8723SOL    HW128611   5.555   1.651   8.145  2.4968  0.3281 -3.4794
 8723SOL    HW228612   5.604   1.781   8.206  0.7969  0.2877 -1.9516
 8724SOL     OW28613   6.210   5.543   7.196 -0.0305  0.5505  0.9249
 8724SOL    HW128614   6.146   5.571   7.130 -1.4217  0.9585  2.3744
 8724SOL    HW228615   6.294   5.575   7.163 -0.6307  0.5297 -0.7467
 8725SOL     OW28616   0.301   4.310   1.292 -0.1386 -0.1659 -0.1508
 8725SOL    HW128617   0.260   4.307   1.206 -0.8753  2.0408  0.0511
 8725SOL    HW228618   0.381   4.361   1.278 -1.0654  1.6295  0.6859
 8726SOL     OW28619   3.597   6.293   1.363  0.6920 -0.3490  0.3008
 8726SOL    HW128620   3.587   6.253   1.277 -0.6599 -0.1849  0.3548
 8726SOL    HW228621   3.662   6.362   1.349  0.3998 -0.2364 -0.6354
 8727SOL     OW28622   5.108   5.445   5.852 -0.2912 -0.3722 -0.0571
 8727SOL    HW128623   5.080   5.516   5.910  0.2173  0.2545 -0.5610
 8727SOL    HW228624   5.199   5.430   5.876  0.5616  1.2665 -1.9944
 8728SOL     OW28625   0.796   4.648   1.674 -0.4198  0.2980 -0.3023
 8728SOL    HW128626   0.860   4.716   1.654 -0.0320  0.3191  0.9197
 8728SOL    HW228627   0.727   4.695   1.723  0.3292 -0.3201  1.4342
 8729SOL     OW28628   6.535   9.953   8.842  0.4070  0.4996 -0.4455
 8729SOL    HW128629   6.561   9.868   8.806 -0.3169 -0.5117  1.3232
 8729SOL    HW228630   6.592  10.016   8.798  2.0607 -1.0622 -0.6494
 8730SOL     OW28631   6.771   9.103   2.793  0.3632  0.4645 -0.2631
 8730SOL    HW128632   6.795   9.045   2.720 -0.1647  0.3053 -0.3151
 8730SOL    HW228633   6.732   9.179   2.750  1.0737  0.8653 -0.1950
 8731SOL     OW28634   8.500   0.357   4.902  0.2406  0.0436 -0.0163
 8731SOL    HW128635   8.577   0.378   4.849  0.7803 -0.7789  0.4015
 8731SOL    HW228636   8.432   0.336   4.838  0.7255 -0.4033 -0.4065
 8732SOL     OW28637   7.968   0.549   1.232  0.1300 -0.2628  0.7571
 8732SOL    HW128638   7.877   0.521   1.245 -0.1411  0.6570  0.9589
 8732SOL    HW228639   8.018   0.468   1.230 -0.8420 -0.8779 -0.5828
 8733SOL     OW28640   7.722   8.551   7.171  0.2471  0.8880  0.3157
 8733SOL    HW128641   7.733   8.573   7.079 -0.4724  0.6693  0.1662
 8733SOL    HW228642   7.728   8.634   7.217 -2.9777  1.6161 -0.2935
 8734SOL     OW28643   8.727   9.093   7.472  0.3909  0.0365 -0.5906
 8734SOL    HW128644   8.682   9.144   7.405  0.7529  0.4033 -0.5594
 8734SOL    HW228645   8.680   9.114   7.553  0.4610  0.2290 -0.5980
 8735SOL     OW28646   4.576   7.534  10.431 -0.2331  0.6021  0.2284
 8735SOL    HW128647   4.558   7.614  10.383 -0.5754  0.7706  0.6337
 8735SOL    HW228648   4.557   7.555  10.523 -1.2888 -0.2107  0.2238
 8736SOL     OW28649   1.039   0.823   7.385  0.0447 -0.1720 -0.0847
 8736SOL    HW128650   0.974   0.839   7.316  2.2245  3.1661 -1.6121
 8736SOL    HW228651   1.043   0.905   7.434  1.9857 -0.8241  0.9370
 8737SOL     OW28652   8.223   2.321   7.212 -0.5771 -0.4730  0.3180
 8737SOL    HW128653   8.208   2.408   7.248 -0.7219 -0.8885  1.3178
 8737SOL    HW228654   8.316   2.320   7.190 -0.6958  0.1171 -0.2326
 8738SOL     OW28655   6.583   7.366   5.277  0.0535  0.0974 -0.1923
 8738SOL    HW128656   6.583   7.355   5.182  1.3815 -1.6286 -0.0267
 8738SOL    HW228657   6.587   7.277   5.312 -0.5740  0.6904  1.5000
 8739SOL     OW28658   4.874   5.919   8.943  0.1565  0.3006  0.9691
 8739SOL    HW128659   4.904   5.998   8.990 -0.3280  0.6720  0.6630
 8739SOL    HW228660   4.790   5.944   8.905  0.3643 -0.1114  0.2054
 8740SOL     OW28661   3.159   1.771   7.259  0.0362 -0.1618 -0.0806
 8740SOL    HW128662   3.195   1.853   7.293 -4.1854  3.2994 -2.8233
 8740SOL    HW228663   3.199   1.762   7.172 -3.2271  2.3819 -2.1164
 8741SOL     OW28664   4.090   6.921   1.053 -1.3704  0.3192  0.1088
 8741SOL    HW128665   4.163   6.917   1.115 -1.6426 -1.9279  0.3974
 8741SOL    HW228666   4.094   7.009   1.016  0.8170  0.6166  0.8973
 8742SOL     OW28667   3.945   2.096   8.799  0.8169 -0.4570  0.3765
 8742SOL    HW128668   3.975   2.132   8.883  0.2781 -0.0460  0.3956
 8742SOL    HW228669   3.859   2.058   8.819  0.8032 -0.5915  0.0666
 8743SOL     OW28670   5.464   6.936   9.492 -0.2426 -0.2572  0.4338
 8743SOL    HW128671   5.516   6.981   9.425  0.4750 -0.2616  0.9729
 8743SOL    HW228672   5.527   6.914   9.560 -0.8141 -0.9839  0.7429
 8744SOL     OW28673   8.919   2.580   4.001 -0.2329  0.0769  0.2144
 8744SOL    HW128674   8.895   2.544   3.916  0.9202 -0.6520  0.1744
 8744SOL    HW228675   9.013   2.593   3.996 -0.0493 -0.5119  1.5629
 8745SOL     OW28676   1.262   2.282   7.994 -0.5140 -0.0142  0.0178
 8745SOL    HW128677   1.312   2.207   7.962 -0.5065 -0.4845  1.0841
 8745SOL    HW228678   1.223   2.251   8.076 -3.7516 -0.1558 -1.4362
 8746SOL     OW28679   7.304   4.567   8.159 -0.1330 -0.2978  0.2495
 8746SOL    HW128680   7.213   4.589   8.138 -0.4073 -0.2983  1.3456
 8746SOL    HW228681   7.339   4.528   8.079 -1.1104 -0.3276 -0.1779
 8747SOL     OW28682  10.248   5.323   7.538 -0.1905 -0.2054  0.3192
 8747SOL    HW128683  10.235   5.403   7.487 -2.1763 -0.1304  0.8609
 8747SOL    HW228684  10.282   5.259   7.476  0.1023  0.6758 -0.4324
 8748SOL     OW28685   2.668   5.380   5.666 -0.5032 -0.0621  0.1934
 8748SOL    HW128686   2.589   5.410   5.710  0.0594  2.4850 -0.3879
 8748SOL    HW228687   2.689   5.450   5.604  1.0222 -1.6545 -1.1921
 8749SOL     OW28688   7.459   7.617  10.170  0.6952  0.3371 -0.1216
 8749SOL    HW128689   7.429   7.708  10.177 -0.8489 -0.2810  2.3769
 8749SOL    HW228690   7.381   7.567  10.147  1.3113 -0.5037 -0.4526
 8750SOL     OW28691   1.060   2.654   4.128  0.3842 -0.2568 -0.3393
 8750SOL    HW128692   1.137   2.710   4.129  0.5334 -0.4539 -0.7123
 8750SOL    HW228693   1.062   2.609   4.213 -0.6395  1.5133  0.6831
 8751SOL     OW28694   8.939   5.117   9.365  0.3461  0.6408  0.4722
 8751SOL    HW128695   8.919   5.033   9.324 -1.7825  0.8939  0.8720
 8751SOL    HW228696   8.949   5.177   9.292  0.0356  0.3864  0.2142
 8752SOL     OW28697   6.049   9.268   2.085 -0.5911 -0.0906 -0.9205
 8752SOL    HW128698   6.004   9.189   2.116  0.3212 -0.5602 -0.7462
 8752SOL    HW228699   6.072   9.247   1.994 -1.1187  0.3287 -1.1559
 8753SOL     OW28700   9.908   6.781  10.470 -0.3311  0.0813  0.2228
 8753SOL    HW128701   9.945   6.821  10.549 -0.4010  0.3625  0.1144
 8753SOL    HW228702   9.869   6.854  10.422  0.1107 -0.0085 -0.2940
 8754SOL     OW28703   8.453   8.335   8.027 -0.1221 -0.1061  0.3724
 8754SOL    HW128704   8.419   8.373   8.108 -0.9648 -0.2035  0.0759
 8754SOL    HW228705   8.395   8.261   8.008  0.9878 -1.0246  0.4800
 8755SOL     OW28706   3.199   1.506  10.393  0.3245 -0.8993 -0.4297
 8755SOL    HW128707   3.210   1.440  10.462  0.1983 -1.1136 -0.6145
 8755SOL    HW228708   3.286   1.515  10.354  0.4529 -0.5975 -0.0822
 8756SOL     OW28709   1.456   2.426   3.481 -0.1155  0.0092 -0.7953
 8756SOL    HW128710   1.535   2.455   3.436  1.7108 -0.2299  1.9754
 8756SOL    HW228711   1.386   2.479   3.444  2.2272  4.3484  0.3336
 8757SOL     OW28712   8.305   8.114   9.986 -0.3591  0.3514 -0.4124
 8757SOL    HW128713   8.359   8.037   9.968 -1.0711  0.1232 -1.7333
 8757SOL    HW228714   8.367   8.182  10.009  0.2586 -0.7427  1.3940
 8758SOL     OW28715   5.719   1.185   4.544 -0.6981  0.2466 -0.2466
 8758SOL    HW128716   5.716   1.242   4.468 -0.0884 -1.9820 -2.0522
 8758SOL    HW228717   5.785   1.224   4.602 -0.7727  1.6706 -1.0775
 8759SOL     OW28718   6.074   8.094   5.689  0.2425 -0.2892 -0.7629
 8759SOL    HW128719   6.162   8.108   5.724  0.8722 -1.3128 -1.8645
 8759SOL    HW228720   6.016   8.140   5.751  1.5706  0.8221 -0.2872
 8760SOL     OW28721   5.826  10.314   6.876  0.1616  0.3690  0.1341
 8760SOL    HW128722   5.857  10.279   6.792  1.7647 -1.0800  1.2571
 8760SOL    HW228723   5.862  10.255   6.941 -0.3208  1.9519  1.9303
 8761SOL     OW28724   1.588   4.747   0.720 -0.0665  0.3807  0.1555
 8761SOL    HW128725   1.657   4.802   0.756  0.0147  1.2951 -1.3241
 8761SOL    HW228726   1.558   4.793   0.642 -0.5408 -1.2877 -0.7080
 8762SOL     OW28727   1.565   4.424   5.996 -0.4676  0.1932  0.2121
 8762SOL    HW128728   1.597   4.439   5.907 -0.4616 -1.1296 -0.0399
 8762SOL    HW228729   1.473   4.451   5.993 -1.0006 -1.5543 -0.7523
 8763SOL     OW28730   8.952   8.938   4.347  0.5355 -0.2308  0.4710
 8763SOL    HW128731   8.997   8.903   4.424  1.4560 -0.1642 -0.0284
 8763SOL    HW228732   8.865   8.898   4.351  0.7530 -0.6635  1.2372
 8764SOL     OW28733   5.642   1.050   1.192  0.3426 -0.1176  0.1081
 8764SOL    HW128734   5.553   1.049   1.228  0.4693 -0.5295  0.4152
 8764SOL    HW228735   5.635   1.002   1.110 -0.2556  2.0725 -1.1954
 8765SOL     OW28736   0.686   6.294   8.985 -0.1379  0.3354  0.6284
 8765SOL    HW128737   0.681   6.251   8.900  2.8624  0.9514  0.0448
 8765SOL    HW228738   0.722   6.227   9.044 -0.9060  0.3397  1.1275
 8766SOL     OW28739   2.612   9.842   1.602 -0.4556 -0.5238 -0.5719
 8766SOL    HW128740   2.670   9.859   1.676 -2.4363  0.9509  0.7384
 8766SOL    HW228741   2.626   9.750   1.581 -0.1202 -1.0992  1.9020
 8767SOL     OW28742   5.585   2.458   6.383  0.1016 -0.4827 -0.3845
 8767SOL    HW128743   5.524   2.529   6.404 -0.2660 -0.7434 -0.5474
 8767SOL    HW228744   5.647   2.458   6.455 -0.8865 -1.0861  0.4977
 8768SOL     OW28745   1.828   5.103   7.988 -0.0217  0.2792 -0.2201
 8768SOL    HW128746   1.868   5.109   7.901 -0.2628 -1.6312 -0.5282
 8768SOL    HW228747   1.892   5.141   8.047  0.7009  0.4807 -1.1096
 8769SOL     OW28748   5.824   0.478   0.008 -0.0838  0.5091  0.0659
 8769SOL    HW128749   5.895   0.474   0.073 -0.0548  0.2045  0.0136
 8769SOL    HW228750   5.785   0.565   0.022 -0.2716  0.3336  0.6959
 8770SOL     OW28751   6.816   5.289   7.769  0.0285 -0.1807  0.2333
 8770SOL    HW128752   6.736   5.245   7.741  1.2485 -1.8900 -0.7352
 8770SOL    HW228753   6.857   5.318   7.687  0.4322  0.6351  0.7123
 8771SOL     OW28754   5.728   1.229  10.023  0.1671 -0.0988  0.0301
 8771SOL    HW128755   5.683   1.292  10.078 -0.2565 -2.1174  2.1508
 8771SOL    HW228756   5.666   1.211   9.952 -0.1882  0.9396  0.0645
 8772SOL     OW28757   8.262   7.566   3.439 -0.0143 -0.3914 -0.2221
 8772SOL    HW128758   8.340   7.520   3.469  0.1682 -0.8377 -1.3177
 8772SOL    HW228759   8.290   7.608   3.357 -0.8458 -0.3113 -0.4730
 8773SOL     OW28760   1.871   7.926   2.148  0.2782 -0.6030  0.5636
 8773SOL    HW128761   1.784   7.919   2.108  0.1262  0.4589  0.6614
 8773SOL    HW228762   1.866   7.872   2.227  0.1800 -1.7014 -0.1773
 8774SOL     OW28763   6.849   0.977   4.714  0.4393  0.3080  0.7615
 8774SOL    HW128764   6.797   1.033   4.657 -0.0562  0.2797  1.1760
 8774SOL    HW228765   6.939   1.005   4.700  0.1541  1.6179  1.3903
 8775SOL     OW28766   7.577   0.192   2.224 -0.4060  0.5582  0.1927
 8775SOL    HW128767   7.596   0.265   2.284  0.5118 -1.7244  2.8823
 8775SOL    HW228768   7.660   0.176   2.179 -0.3026  0.4754  0.4122
 8776SOL     OW28769   5.163   0.051   7.371 -0.0648 -0.0516  0.1366
 8776SOL    HW128770   5.166  -0.040   7.341 -0.8076 -0.1710  0.4049
 8776SOL    HW228771   5.121   0.098   7.299  0.6216  0.1355 -0.1399
 8777SOL     OW28772   2.481   6.502   3.162  0.7052  0.0815 -0.3452
 8777SOL    HW128773   2.458   6.450   3.239 -1.5886 -0.6550 -1.4401
 8777SOL    HW228774   2.431   6.583   3.171  0.1103 -0.1768 -1.2325
 8778SOL     OW28775   5.305   5.749  10.033 -0.0507 -0.0744 -0.0109
 8778SOL    HW128776   5.274   5.686  10.097 -0.2098 -0.0277 -0.0413
 8778SOL    HW228777   5.366   5.700   9.978 -0.5918 -0.3422 -0.3734
 8779SOL     OW28778   1.126   8.191   6.908  0.3460  0.5149  0.1335
 8779SOL    HW128779   1.137   8.194   6.813 -2.7509 -0.7057 -0.3841
 8779SOL    HW228780   1.215   8.186   6.943  1.5329 -1.5755 -2.8108
 8780SOL     OW28781   7.786   4.305   9.983  0.4425  0.2713 -0.8437
 8780SOL    HW128782   7.823   4.253  10.054  0.8311  0.3819 -0.9623
 8780SOL    HW228783   7.692   4.290   9.989  0.5531 -0.4919 -0.9073
 8781SOL     OW28784   6.078   8.441   6.415 -0.0708 -0.3408  0.0241
 8781SOL    HW128785   6.138   8.515   6.415 -2.2969  1.5817  1.0121
 8781SOL    HW228786   6.089   8.402   6.502  0.1435 -0.3567 -0.0083
 8782SOL     OW28787   2.206   0.437   2.249 -0.4303 -0.0157 -0.5178
 8782SOL    HW128788   2.234   0.389   2.171  1.3112  0.5415 -0.2698
 8782SOL    HW228789   2.280   0.432   2.308 -0.9911  1.2441  0.3255
 8783SOL     OW28790   9.681   1.790   2.480  0.2999 -0.0209  0.8357
 8783SOL    HW128791   9.760   1.790   2.427 -0.3068 -0.8002 -0.1093
 8783SOL    HW228792   9.694   1.720   2.543 -1.0317 -2.6653 -1.5988
 8784SOL     OW28793   5.108   3.864   4.744  0.4296 -0.0255  0.1843
 8784SOL    HW128794   5.056   3.785   4.729  0.4624  0.1062 -0.6571
 8784SOL    HW228795   5.193   3.830   4.775  0.4436 -0.3196 -0.1689
 8785SOL     OW28796   2.640   5.630   8.570  0.1673  0.0975  0.0139
 8785SOL    HW128797   2.650   5.716   8.610 -2.4169  0.7589 -0.5735
 8785SOL    HW228798   2.548   5.626   8.543  0.8412 -1.7571 -2.4613
 8786SOL     OW28799   9.918   2.267   5.444 -0.6936  1.1288  0.0453
 8786SOL    HW128800   9.961   2.285   5.360 -1.2628  2.0820 -0.0533
 8786SOL    HW228801   9.964   2.323   5.507 -1.2706  1.5683  0.0800
 8787SOL     OW28802   5.118   9.841   6.200 -0.2515 -0.2346 -0.0854
 8787SOL    HW128803   5.029   9.812   6.179 -1.0506  1.3951  0.8684
 8787SOL    HW228804   5.138   9.800   6.284  0.3744 -1.4766 -0.8005
 8788SOL     OW28805   1.994   5.120   4.293 -0.2918  0.3926  0.2586
 8788SOL    HW128806   2.030   5.203   4.324  0.9224 -0.4167  1.1511
 8788SOL    HW228807   1.901   5.124   4.315  0.0850  0.8238  1.9464
 8789SOL     OW28808   9.962   9.889   3.343 -0.3383  0.1650  0.7219
 8789SOL    HW128809   9.939   9.921   3.430 -0.6301  0.2604  0.6124
 8789SOL    HW228810   9.902   9.935   3.284  0.6933  1.0575  0.3331
 8790SOL     OW28811   4.593   2.464   0.663 -0.7020 -0.1066 -0.0240
 8790SOL    HW128812   4.651   2.489   0.734 -2.0287  1.1037  0.6907
 8790SOL    HW228813   4.602   2.369   0.656  0.0186 -0.1466  1.2411
 8791SOL     OW28814   2.148   6.930   0.818 -0.3665  0.4876  0.2627
 8791SOL    HW128815   2.145   6.834   0.819  0.2829  0.4642  0.0987
 8791SOL    HW228816   2.065   6.956   0.777  0.5606 -0.0693 -2.1050
 8792SOL     OW28817   2.100   8.608   4.963 -0.4086  0.0782  0.0837
 8792SOL    HW128818   2.165   8.578   5.027 -0.5480  0.7343  0.5384
 8792SOL    HW228819   2.045   8.531   4.947 -0.4626 -0.0518  0.8699
 8793SOL     OW28820   7.909   3.000   9.060 -0.5625  0.3332 -0.3273
 8793SOL    HW128821   7.899   2.911   9.025 -0.1745 -0.2713  1.0113
 8793SOL    HW228822   7.830   3.046   9.032 -0.2157 -0.0650 -2.0678
 8794SOL     OW28823   6.830   2.712   2.168 -0.3415 -0.1993 -0.3618
 8794SOL    HW128824   6.802   2.647   2.104 -0.2853  0.9205 -1.5687
 8794SOL    HW228825   6.790   2.794   2.137 -0.4709  0.3361  1.1506
 8795SOL     OW28826   5.184   2.922   2.429 -0.0282  0.2313  0.0555
 8795SOL    HW128827   5.252   2.966   2.377  2.2339 -2.3494  0.5823
 8795SOL    HW228828   5.139   2.864   2.367 -0.4245  0.4934  0.0950
 8796SOL     OW28829   4.151   6.946   7.293  0.0386 -0.2510  0.2099
 8796SOL    HW128830   4.241   6.920   7.312  0.2687  1.5044  1.7930
 8796SOL    HW228831   4.097   6.890   7.347  0.1806 -1.0201 -0.4272
 8797SOL     OW28832   4.460   0.007   3.488 -0.3044 -0.0628 -0.7774
 8797SOL    HW128833   4.533  -0.050   3.510 -1.4005 -1.1479  0.1875
 8797SOL    HW228834   4.494   0.063   3.418  1.7335  0.1108  0.2601
 8798SOL     OW28835   6.812   2.132   5.731  0.1838 -0.4835  0.5874
 8798SOL    HW128836   6.834   2.038   5.736 -0.9902 -0.7331  1.3104
 8798SOL    HW228837   6.717   2.135   5.737  0.1874  0.7549  0.2777
 8799SOL     OW28838   7.339   6.917   2.074  0.2908 -0.1501 -0.3359
 8799SOL    HW128839   7.398   6.965   2.134 -0.4311 -0.0894  0.3435
 8799SOL    HW228840   7.370   6.827   2.078  0.3005 -0.1337  0.0876
 8800SOL     OW28841   6.366   6.771   8.781  0.4729 -0.3060 -0.1911
 8800SOL    HW128842   6.284   6.721   8.781 -0.4255  1.1139 -0.0188
 8800SOL    HW228843   6.356   6.835   8.851  0.4780  1.7793 -1.9521
 8801SOL     OW28844   0.470   6.931   8.763 -0.0590 -0.0239  0.2087
 8801SOL    HW128845   0.488   6.937   8.669 -0.6560 -0.1657  0.0840
 8801SOL    HW228846   0.378   6.908   8.768  0.3897 -1.8488  0.8030
 8802SOL     OW28847   8.652   3.120  10.126  0.0678 -0.5329 -0.1937
 8802SOL    HW128848   8.724   3.140  10.186 -0.7488  2.2764 -0.0026
 8802SOL    HW228849   8.694   3.095  10.044  1.3025  1.7073 -0.2963
 8803SOL     OW28850   1.515   5.658   9.405 -0.1914  0.3439  0.2828
 8803SOL    HW128851   1.551   5.685   9.321  0.4682 -0.4076  0.3125
 8803SOL    HW228852   1.519   5.736   9.460  0.7507  0.4539  0.0684
 8804SOL     OW28853   4.523   3.967   3.338 -0.2452 -0.2979  0.3986
 8804SOL    HW128854   4.539   3.917   3.418  0.9806 -0.0129  0.3528
 8804SOL    HW228855   4.608   3.968   3.293 -0.7172  0.2261 -0.5107
 8805SOL     OW28856   0.451  10.396   4.808 -0.3684 -0.4812 -0.1089
 8805SOL    HW128857   0.483  10.469   4.862 -0.7706  0.6744 -1.3695
 8805SOL    HW228858   0.479  10.318   4.855  0.0686  0.4766  1.3046
 8806SOL     OW28859   7.115  10.265   5.756 -0.2684  0.4993  0.1731
 8806SOL    HW128860   7.176  10.339   5.753  0.5980 -0.1096 -4.1574
 8806SOL    HW228861   7.168  10.191   5.784  0.0828  0.6629 -0.0494
 8807SOL     OW28862   1.437   9.462   9.802 -0.3813 -0.4955 -0.3989
 8807SOL    HW128863   1.458   9.368   9.799 -1.5196 -0.7619 -0.1257
 8807SOL    HW228864   1.397   9.476   9.887 -1.1252  0.0481 -0.8288
 8808SOL     OW28865   9.605   8.475   0.579  0.3008 -0.1879  0.1553
 8808SOL    HW128866   9.622   8.470   0.485 -1.5169 -0.5262 -0.1964
 8808SOL    HW228867   9.647   8.397   0.615 -0.0882 -0.7652 -0.5941
 8809SOL     OW28868   3.457   5.834   4.612 -0.5060 -0.5371 -0.2867
 8809SOL    HW128869   3.520   5.806   4.678  0.1350 -1.3435 -1.2101
 8809SOL    HW228870   3.486   5.791   4.531  0.1013  2.2045 -1.6556
 8810SOL     OW28871   9.131   5.681   8.274 -0.2454 -0.0841  0.3950
 8810SOL    HW128872   9.147   5.701   8.366 -0.0161 -0.2376  0.3910
 8810SOL    HW228873   9.045   5.717   8.255 -0.2587  0.0164  0.6502
 8811SOL     OW28874   3.637   9.280   7.179 -0.6249  0.7922  0.1416
 8811SOL    HW128875   3.578   9.327   7.120 -0.5038  0.5639 -0.1644
 8811SOL    HW228876   3.658   9.343   7.247  0.8105  1.7151 -1.1094
 8812SOL     OW28877   3.646   9.728   9.065 -0.4378 -0.5733  0.0306
 8812SOL    HW128878   3.611   9.728   8.976  0.6134 -0.6202 -0.4001
 8812SOL    HW228879   3.665   9.821   9.083  3.2746 -0.8637 -1.4560
 8813SOL     OW28880   9.937   0.252   7.940  0.5130 -0.0028 -0.5161
 8813SOL    HW128881   9.983   0.245   8.024 -0.5473  0.5536  0.1308
 8813SOL    HW228882   9.847   0.274   7.964 -0.3708 -2.0280 -1.6800
 8814SOL     OW28883   5.717   8.640  10.278  0.1210  0.0399 -0.0414
 8814SOL    HW128884   5.714   8.607  10.188 -1.0317 -0.5979  0.2078
 8814SOL    HW228885   5.708   8.734  10.270 -2.9165 -0.1870 -0.5151
 8815SOL     OW28886   1.220   2.466   9.472  0.3320  0.2107  0.1409
 8815SOL    HW128887   1.140   2.479   9.420  0.7286 -0.8465 -0.7661
 8815SOL    HW228888   1.251   2.555   9.489 -0.4620  0.6121 -0.4063
 8816SOL     OW28889   9.910   1.827   4.021 -0.1871  0.1922 -0.1340
 8816SOL    HW128890   9.848   1.755   4.032  0.5410 -0.4511 -0.1623
 8816SOL    HW228891   9.928   1.856   4.111 -0.4464  0.3200 -0.1206
 8817SOL     OW28892   3.622   8.568   4.274  0.2819 -0.8813 -0.5945
 8817SOL    HW128893   3.677   8.599   4.202  0.8103 -1.5073 -0.4679
 8817SOL    HW228894   3.666   8.599   4.353  1.2085 -2.5126 -0.4312
 8818SOL     OW28895   0.339   0.359   0.251  0.1268 -0.3898  0.0164
 8818SOL    HW128896   0.259   0.319   0.282  0.2263 -1.2565 -0.7867
 8818SOL    HW228897   0.363   0.422   0.319 -1.6854  0.5161 -0.1334
 8819SOL     OW28898   4.681   5.625   8.342 -0.4107  0.0951 -1.0567
 8819SOL    HW128899   4.665   5.532   8.361 -0.5432  0.0720 -1.2736
 8819SOL    HW228900   4.605   5.651   8.289 -1.0216  0.6633  0.0644
 8820SOL     OW28901   7.501   9.280   0.871 -0.6035  0.0696  0.0454
 8820SOL    HW128902   7.511   9.331   0.791 -0.9516  0.6353  0.3574
 8820SOL    HW228903   7.537   9.194   0.849 -0.9648  0.1267 -0.8072
 8821SOL     OW28904   3.650   3.932   2.010  0.1774 -0.4935  0.0048
 8821SOL    HW128905   3.665   4.025   2.023 -0.5136 -0.4560  0.5919
 8821SOL    HW228906   3.706   3.909   1.936  1.9773 -0.0717  1.1833
 8822SOL     OW28907   9.206   8.251   6.452 -0.4806  0.2683 -0.2402
 8822SOL    HW128908   9.133   8.234   6.393  0.2812 -0.4491 -0.9990
 8822SOL    HW228909   9.271   8.185   6.430  0.5920  1.1735  0.1117
 8823SOL     OW28910   9.837   1.377   2.457 -0.2305  0.2142 -0.0580
 8823SOL    HW128911   9.915   1.381   2.401 -0.0994  3.3590  0.1628
 8823SOL    HW228912   9.764   1.391   2.397 -0.3234  0.6868  0.1586
 8824SOL     OW28913   1.755   1.786   9.108 -0.4570 -0.2197  0.2081
 8824SOL    HW128914   1.786   1.814   9.194 -1.2127  0.4304  0.2766
 8824SOL    HW228915   1.676   1.837   9.093 -0.0104  0.1266 -1.1437
 8825SOL     OW28916   0.553   4.777   1.794 -0.0514  0.5910 -0.1666
 8825SOL    HW128917   0.563   4.801   1.886 -0.4865  0.3411 -0.0527
 8825SOL    HW228918   0.471   4.729   1.790  0.4975 -0.3552 -0.4895
 8826SOL     OW28919   7.283   9.000   6.746  0.2713 -0.2041  0.4913
 8826SOL    HW128920   7.281   9.075   6.805 -0.5232  1.0091 -1.0137
 8826SOL    HW228921   7.200   8.955   6.763 -0.0833  0.3006  0.0998
 8827SOL     OW28922   1.133   8.142  10.406  0.3763  0.0098  0.0661
 8827SOL    HW128923   1.058   8.196  10.384  0.5992 -0.2573 -1.5112
 8827SOL    HW228924   1.139   8.079  10.333  2.1753  0.1012  0.0912
 8828SOL     OW28925   7.284   7.958   9.444 -0.0297  0.3209 -0.1787
 8828SOL    HW128926   7.253   8.016   9.374  0.7475  1.5347  0.4572
 8828SOL    HW228927   7.379   7.960   9.437  0.0434  0.1328  0.6705
 8829SOL     OW28928   2.718   8.446   4.544 -0.2367  0.2825 -0.3375
 8829SOL    HW128929   2.693   8.534   4.518  1.9352  0.9143 -0.4434
 8829SOL    HW228930   2.777   8.458   4.619  0.1123 -1.0709 -0.3577
 8830SOL     OW28931   5.993   4.708   8.441 -0.3313 -0.1928  0.0098
 8830SOL    HW128932   5.922   4.693   8.504  1.0159 -0.8151  1.4307
 8830SOL    HW228933   6.072   4.711   8.494  0.6591  1.2576 -1.4551
 8831SOL     OW28934   4.255   8.763   3.354 -0.0175 -1.0693  0.2003
 8831SOL    HW128935   4.322   8.831   3.357 -0.6658 -0.3702 -0.5117
 8831SOL    HW228936   4.212   8.776   3.269 -1.7483 -0.8108  1.0693
 8832SOL     OW28937   4.679   2.260   5.120  0.4381  0.2812  0.0614
 8832SOL    HW128938   4.654   2.186   5.174  0.3475  1.1829  1.2996
 8832SOL    HW228939   4.604   2.275   5.062 -0.5761  0.9320  1.5028
 8833SOL     OW28940   0.322   3.964  10.161 -0.0293  0.6111 -0.3080
 8833SOL    HW128941   0.288   3.975  10.250 -0.7806 -0.0469 -0.4890
 8833SOL    HW228942   0.246   3.979  10.105 -0.2725 -1.6646 -0.6977
 8834SOL     OW28943   1.031   3.010   7.827 -0.0198  0.5725 -0.2941
 8834SOL    HW128944   1.077   2.926   7.832  2.0687  1.7162  0.8803
 8834SOL    HW228945   0.979   3.013   7.908 -0.2812  0.3231 -0.4503
 8835SOL     OW28946   9.142   6.319   7.571  0.3711 -0.0207  0.0454
 8835SOL    HW128947   9.075   6.331   7.503  0.5435 -0.9610 -0.3008
 8835SOL    HW228948   9.128   6.230   7.604  1.6856 -0.3796 -0.3091
 8836SOL     OW28949   5.337   2.826   9.828  0.1569  0.6293 -0.5734
 8836SOL    HW128950   5.346   2.894   9.760 -0.5979 -0.6051 -1.9730
 8836SOL    HW228951   5.272   2.862   9.889 -1.9934  0.3094 -2.5275
 8837SOL     OW28952  10.476   2.535   1.660 -0.2390  0.2068  0.3169
 8837SOL    HW128953  10.397   2.543   1.607 -0.3603 -0.5129  0.3709
 8837SOL    HW228954  10.478   2.615   1.713 -0.4685  0.6230 -0.2948
 8838SOL     OW28955   4.301   4.113   0.349  0.2035 -0.0025 -0.1768
 8838SOL    HW128956   4.322   4.199   0.313 -0.1775  0.1567 -0.0157
 8838SOL    HW228957   4.343   4.051   0.289  0.5993  0.2948 -0.2146
 8839SOL     OW28958   8.852   5.262   5.035 -0.2526 -0.4777  0.7416
 8839SOL    HW128959   8.925   5.295   4.982  0.0431 -0.3185  1.2497
 8839SOL    HW228960   8.800   5.211   4.973 -1.2523  1.6897 -0.3391
 8840SOL     OW28961   7.476   8.496   0.870 -0.2243  0.1957 -0.1189
 8840SOL    HW128962   7.421   8.509   0.792  1.2172 -0.5278 -1.3188
 8840SOL    HW228963   7.438   8.419   0.912 -1.5712  1.1228  0.4386
 8841SOL     OW28964   4.384   6.457   0.671 -0.1334  0.1871  0.3497
 8841SOL    HW128965   4.372   6.495   0.584 -0.1301 -0.2775  0.1425
 8841SOL    HW228966   4.296   6.432   0.699  0.0784 -1.6393 -0.4424
 8842SOL     OW28967   5.755   9.012   2.227 -0.0330  0.1783  0.2796
 8842SOL    HW128968   5.737   9.047   2.314  0.6779  0.6301  0.2490
 8842SOL    HW228969   5.836   8.963   2.237 -0.9291 -1.3639  0.2871
 8843SOL     OW28970   3.937   9.787   8.932  0.4857  0.4005  0.2328
 8843SOL    HW128971   3.979   9.863   8.892 -0.1951  1.0957  0.8104
 8843SOL    HW228972   3.968   9.787   9.023  0.3495  0.0893  0.2808
 8844SOL     OW28973   2.249   4.400   4.514  0.7529 -0.1440  0.2531
 8844SOL    HW128974   2.331   4.390   4.563 -0.3922 -2.6609  1.8310
 8844SOL    HW228975   2.186   4.432   4.578 -0.1348 -0.8296 -0.2449
 8845SOL     OW28976  10.126   8.603   4.139  0.4421 -0.4688 -0.0562
 8845SOL    HW128977  10.217   8.632   4.144 -0.0786  1.4989 -0.9744
 8845SOL    HW228978  10.105   8.606   4.045 -0.7121 -0.3953  0.1883
 8846SOL     OW28979   5.978   4.643   0.106 -0.4249  0.4633 -0.3610
 8846SOL    HW128980   5.939   4.582   0.169 -1.1862  0.4873 -0.8032
 8846SOL    HW228981   6.034   4.699   0.160 -0.5565  0.0685  0.2010
 8847SOL     OW28982   5.367   2.489   8.942  0.4259  0.4475 -0.7901
 8847SOL    HW128983   5.388   2.420   9.005  0.9704  1.2990 -0.0112
 8847SOL    HW228984   5.298   2.540   8.984  2.0446  2.1298  0.0075
 8848SOL     OW28985   8.771   5.020   5.589  0.7577 -0.4831  0.0285
 8848SOL    HW128986   8.706   5.045   5.655 -0.3304 -2.1760 -0.3496
 8848SOL    HW228987   8.833   5.093   5.588 -1.9026  1.9848 -0.6238
 8849SOL     OW28988   6.550   4.158   0.682 -0.6298 -0.2279 -0.0446
 8849SOL    HW128989   6.568   4.208   0.602 -1.9616  0.7520  0.2468
 8849SOL    HW228990   6.620   4.093   0.685  1.1453  1.5582 -0.4856
 8850SOL     OW28991   9.536   8.461   8.001  0.2479  0.3339 -0.0769
 8850SOL    HW128992   9.528   8.366   8.005  0.3291  0.3723  1.7765
 8850SOL    HW228993   9.558   8.479   7.910  1.1310 -1.4952 -0.2722
 8851SOL     OW28994   3.154   2.663   2.865  0.8599 -0.3587 -0.5836
 8851SOL    HW128995   3.081   2.725   2.857  0.2120 -1.0245  0.0971
 8851SOL    HW228996   3.223   2.701   2.810 -0.6936 -0.7767 -2.9909
 8852SOL     OW28997   4.574   7.280   4.743 -0.1409  0.2010  0.4750
 8852SOL    HW128998   4.568   7.220   4.669  0.7990  0.5734  0.0802
 8852SOL    HW228999   4.558   7.367   4.706 -1.5936  0.2071  1.0602
 8853SOL     OW29000   6.533   7.079   1.339  0.4442 -0.0919  0.6468
 8853SOL    HW129001   6.461   7.023   1.311  1.6165 -1.0366 -0.5954
 8853SOL    HW229002   6.598   7.019   1.375  1.1936  0.6057  0.4726
 8854SOL     OW29003   0.126   4.468   5.837 -0.1531  0.3338 -0.1478
 8854SOL    HW129004   0.052   4.468   5.777  0.3067 -0.9747 -0.7612
 8854SOL    HW229005   0.094   4.423   5.915 -0.1730  0.2565 -0.2002
 8855SOL     OW29006   5.382   8.803   5.061 -0.2187  0.0319 -0.3342
 8855SOL    HW129007   5.376   8.873   4.996  0.3249 -0.5089 -0.9845
 8855SOL    HW229008   5.384   8.722   5.010  1.6479 -0.3489  0.2541
 8856SOL     OW29009   9.689   5.681   2.252  0.5716  0.7589  0.0496
 8856SOL    HW129010   9.686   5.729   2.169  1.7853 -1.2744 -1.2772
 8856SOL    HW229011   9.740   5.737   2.310  0.4914  1.8280 -0.8726
 8857SOL     OW29012   1.419   2.543   1.938  0.1193 -0.3761  0.4984
 8857SOL    HW129013   1.401   2.484   1.865  0.2746  0.0715  0.0956
 8857SOL    HW229014   1.338   2.593   1.949  0.4842  0.3634 -0.1259
 8858SOL     OW29015   2.428   3.100   3.073 -0.2632  0.3554 -0.1199
 8858SOL    HW129016   2.357   3.124   3.132 -1.7316 -3.4441 -0.0602
 8858SOL    HW229017   2.434   3.174   3.012 -2.6105  1.8680  1.3018
 8859SOL     OW29018   7.750   7.490   3.324 -0.2614 -0.4054  0.5579
 8859SOL    HW129019   7.809   7.460   3.255 -1.3083 -0.4140 -0.3669
 8859SOL    HW229020   7.696   7.557   3.282 -3.5043 -3.0051  0.1644
 8860SOL     OW29021   8.331   3.559   7.572  0.3805 -0.0446 -0.2092
 8860SOL    HW129022   8.314   3.545   7.666  1.0555 -0.8726 -0.2028
 8860SOL    HW229023   8.245   3.550   7.531  0.1839 -0.3532  0.2576
 8861SOL     OW29024   5.072   2.521   6.974  0.1801 -0.0030 -0.1700
 8861SOL    HW129025   5.001   2.584   6.961  0.6790  0.9717  1.4707
 8861SOL    HW229026   5.029   2.447   7.017 -0.0122  0.2097  0.0131
 8862SOL     OW29027   9.550   6.219   0.747  0.1710  0.0065 -0.7408
 8862SOL    HW129028   9.538   6.163   0.824 -3.5620  0.7700 -0.5815
 8862SOL    HW229029   9.604   6.292   0.778  0.9277 -0.9974  0.3917
 8863SOL     OW29030   3.943   2.188   7.701  0.2595  0.4183  0.1444
 8863SOL    HW129031   3.916   2.208   7.611 -0.5953 -0.3278  0.2210
 8863SOL    HW229032   3.973   2.097   7.698 -0.6959  0.0665  0.7926
 8864SOL     OW29033   1.343  10.019   9.163 -0.1754  0.0257  0.2328
 8864SOL    HW129034   1.249  10.008   9.145 -0.2654 -0.9933  1.1723
 8864SOL    HW229035   1.386   9.997   9.080 -0.7551  0.3376 -0.1586
 8865SOL     OW29036   6.547   2.878   3.669  0.1145 -0.3863 -0.0480
 8865SOL    HW129037   6.470   2.928   3.694  1.6840  2.6935 -0.8866
 8865SOL    HW229038   6.520   2.826   3.593 -1.5444 -0.7974  0.7815
 8866SOL     OW29039   6.418   1.552   9.128  0.2483  0.2026 -0.2112
 8866SOL    HW129040   6.416   1.642   9.161  2.4972  0.4221 -0.4846
 8866SOL    HW229041   6.346   1.508   9.172 -0.5028  1.9826  0.4148
 8867SOL     OW29042   8.543   2.879   1.339  0.2380  0.5496  0.3491
 8867SOL    HW129043   8.504   2.896   1.425  1.1382 -0.7491  1.0605
 8867SOL    HW229044   8.503   2.798   1.310 -1.3348  1.8426 -1.3034
 8868SOL     OW29045   6.809   9.731   2.026  0.1748  0.3439 -0.3098
 8868SOL    HW129046   6.841   9.815   2.060 -2.0449  1.5861 -1.0639
 8868SOL    HW229047   6.800   9.746   1.932 -2.1075 -0.0295 -0.1954
 8869SOL     OW29048   4.664   1.985   2.481  0.3730  0.6427 -0.2220
 8869SOL    HW129049   4.654   1.977   2.576  0.4006 -0.5834 -0.3062
 8869SOL    HW229050   4.720   2.062   2.469  2.1180 -0.3972  0.8713
 8870SOL     OW29051   0.152   6.014   1.358  0.0537  0.0663  0.0790
 8870SOL    HW129052   0.180   6.042   1.445 -0.8386  0.1160  0.3591
 8870SOL    HW229053   0.101   5.934   1.374 -0.2527  0.1659 -0.3830
 8871SOL     OW29054   8.908   0.429   1.638  0.4733 -0.5124  0.5587
 8871SOL    HW129055   8.849   0.354   1.646 -0.7173  0.1996 -1.0740
 8871SOL    HW229056   8.959   0.411   1.559 -0.0034  0.4927  0.0096
 8872SOL     OW29057   2.569   2.600   5.664 -0.0619 -0.1149 -0.0438
 8872SOL    HW129058   2.529   2.674   5.709  1.4544 -0.6427  2.3389
 8872SOL    HW229059   2.649   2.636   5.625  0.2385 -0.2954  0.3944
 8873SOL     OW29060   4.463   3.678   5.890  0.3676 -0.8704 -0.4504
 8873SOL    HW129061   4.415   3.598   5.912 -1.1769 -0.7059 -2.8114
 8873SOL    HW229062   4.448   3.690   5.796  2.6902  0.8235 -0.6924
 8874SOL     OW29063   4.437   1.859   1.352  0.0311  0.0824 -0.1461
 8874SOL    HW129064   4.362   1.808   1.323  0.6628 -0.4537 -0.8773
 8874SOL    HW229065   4.508   1.795   1.362  0.9232  0.8307 -1.3682
 8875SOL     OW29066   1.331   6.732   1.473  0.1225  0.0967 -0.1570
 8875SOL    HW129067   1.363   6.642   1.484 -0.7864 -0.5331 -2.1426
 8875SOL    HW229068   1.257   6.738   1.533  0.7969 -0.1365  0.7161
 8876SOL     OW29069   7.084   8.447   1.342  0.4692 -0.1355 -0.0159
 8876SOL    HW129070   6.996   8.415   1.321  0.6058 -1.0637  0.7258
 8876SOL    HW229071   7.100   8.518   1.280 -0.7471 -0.0467 -0.2478
 8877SOL     OW29072   8.175   6.717   7.948 -0.3638 -0.4009 -0.1679
 8877SOL    HW129073   8.140   6.762   8.025  0.8797  0.2333  0.0611
 8877SOL    HW229074   8.270   6.731   7.954 -0.1821 -0.9887 -1.4115
 8878SOL     OW29075   3.723   6.107   2.740  0.3338 -0.4645 -0.2475
 8878SOL    HW129076   3.729   6.030   2.797 -0.7836 -0.6905 -0.4150
 8878SOL    HW229077   3.659   6.164   2.783 -2.6117 -1.7898 -2.4856
 8879SOL     OW29078   1.846   1.663   4.198  0.3104  0.2471 -0.3131
 8879SOL    HW129079   1.881   1.752   4.204  0.1492  0.2164  1.6295
 8879SOL    HW229080   1.800   1.661   4.114  1.2313  1.6400 -0.8915
 8880SOL     OW29081   1.842   4.571   5.815 -0.2882  0.6508  0.1253
 8880SOL    HW129082   1.770   4.630   5.835  0.1718  1.2853 -0.0690
 8880SOL    HW229083   1.913   4.600   5.871  0.0855  0.5801 -0.3042
 8881SOL     OW29084   0.075   5.630   9.371 -0.3471  0.0901  0.8139
 8881SOL    HW129085   0.033   5.552   9.335 -0.9928  0.4075  0.8659
 8881SOL    HW229086   0.005   5.695   9.377  0.3109  0.8803  0.1969
 8882SOL     OW29087   1.857   2.749   1.175 -0.1445  0.1785 -0.0930
 8882SOL    HW129088   1.844   2.840   1.145  0.2361  0.4951  0.6780
 8882SOL    HW229089   1.777   2.704   1.148 -0.4252  0.7881 -0.3151
 8883SOL     OW29090   8.704   0.977   3.071  0.0763  0.1646  0.2088
 8883SOL    HW129091   8.760   0.912   3.115 -0.8852 -0.5995  0.3260
 8883SOL    HW229092   8.701   0.949   2.980 -0.1460  0.1860  0.2094
 8884SOL     OW29093   8.604   2.553   6.636  0.2100 -0.2966  0.0828
 8884SOL    HW129094   8.681   2.604   6.611  0.3775 -0.0533  1.0461
 8884SOL    HW229095   8.573   2.514   6.554  0.1135  1.2804 -0.6658
 8885SOL     OW29096   4.205   4.674   7.977  0.3682  0.1728 -0.6168
 8885SOL    HW129097   4.243   4.611   7.916  0.0800 -0.9369  0.3062
 8885SOL    HW229098   4.177   4.747   7.922 -0.6156 -1.1390 -1.9456
 8886SOL     OW29099   5.804   9.087   8.222 -0.0904  0.3796  0.1351
 8886SOL    HW129100   5.853   9.059   8.144 -0.6287  2.8270 -1.1836
 8886SOL    HW229101   5.766   9.006   8.256  0.1909 -0.8105 -2.1494
 8887SOL     OW29102   6.159   5.174   0.885 -0.0461 -0.7465 -0.4794
 8887SOL    HW129103   6.232   5.224   0.849 -1.5321  1.6778 -0.3604
 8887SOL    HW229104   6.198   5.123   0.956  1.6196  0.0626 -0.7541
 8888SOL     OW29105   1.149   9.639  10.040 -0.2923 -0.2041  0.3913
 8888SOL    HW129106   1.063   9.597  10.051 -1.2789  1.7956  0.7654
 8888SOL    HW229107   1.176   9.661  10.129 -0.4698  1.1636  0.1262
 8889SOL     OW29108   1.425   4.034   0.796  0.2307  0.2879 -0.3568
 8889SOL    HW129109   1.447   4.122   0.825  0.4252  0.2402 -0.3633
 8889SOL    HW229110   1.472   3.975   0.855  2.0584  0.1858 -1.8132
 8890SOL     OW29111   7.221   3.367   3.583 -0.2106 -0.0096  0.3476
 8890SOL    HW129112   7.195   3.277   3.562  0.0676 -0.4844  1.8837
 8890SOL    HW229113   7.313   3.373   3.556 -0.6707  0.3244 -1.1911
 8891SOL     OW29114   3.376   7.788   5.342  0.2914 -0.7490  0.6297
 8891SOL    HW129115   3.324   7.722   5.296 -0.1123  0.3070 -0.4662
 8891SOL    HW229116   3.332   7.871   5.324  2.2123  0.1565 -0.1505
 8892SOL     OW29117   8.950   5.601   9.826  0.4545  0.0453 -0.5262
 8892SOL    HW129118   8.965   5.692   9.852  1.9404 -0.2115 -0.3804
 8892SOL    HW229119   8.882   5.606   9.760  0.3794  1.2507 -0.3823
 8893SOL     OW29120   2.547   3.631   4.882 -1.0725  0.3008 -0.1325
 8893SOL    HW129121   2.470   3.645   4.936 -1.1588  0.2920 -0.2529
 8893SOL    HW229122   2.513   3.626   4.792 -0.7873  1.5628 -0.3240
 8894SOL     OW29123   2.239   9.931   2.920 -0.2475 -0.3462 -0.1363
 8894SOL    HW129124   2.283   9.943   2.836  0.0421  0.4741  0.1206
 8894SOL    HW229125   2.307   9.948   2.985 -0.4235 -1.1412  0.2743
 8895SOL     OW29126   1.978   4.473   3.218 -0.3620 -0.4482 -0.4108
 8895SOL    HW129127   1.968   4.385   3.182  1.0064 -0.3326 -1.1577
 8895SOL    HW229128   2.033   4.462   3.296 -0.9873 -0.3641  0.0454
 8896SOL     OW29129   4.717   5.587   2.960 -0.5175 -0.1948 -0.5087
 8896SOL    HW129130   4.648   5.523   2.977  0.2266 -0.8453  0.0890
 8896SOL    HW229131   4.696   5.660   3.019 -0.2812 -0.7017  0.2117
 8897SOL     OW29132   5.454   6.659   2.849 -0.0878 -0.2636  0.0521
 8897SOL    HW129133   5.470   6.574   2.806  0.0312 -0.3420  0.2481
 8897SOL    HW229134   5.512   6.720   2.803  0.0261 -0.3440  0.0893
 8898SOL     OW29135   4.437  10.109   0.447  0.0015  0.0399  0.2577
 8898SOL    HW129136   4.392  10.166   0.509  1.8996 -0.1387  1.8908
 8898SOL    HW229137   4.526  10.102   0.481  0.9650 -0.5757 -2.1788
 8899SOL     OW29138   5.971  10.468   3.356 -0.0861  0.5009 -0.3425
 8899SOL    HW129139   5.949  10.469   3.263  1.3790  0.0200 -0.7332
 8899SOL    HW229140   5.904  10.413   3.396 -1.2195  1.3864 -0.9654
 8900SOL     OW29141   6.192   8.815   5.225  0.0920  0.5822  0.2785
 8900SOL    HW129142   6.171   8.811   5.318  0.7952 -1.7860  0.4166
 8900SOL    HW229143   6.190   8.723   5.196 -1.4151  1.3586 -2.3716
 8901SOL     OW29144   7.448   6.417   1.236  0.4365 -0.2144  0.3910
 8901SOL    HW129145   7.466   6.329   1.268  0.9969  0.1096  0.9911
 8901SOL    HW229146   7.534   6.460   1.235  0.3797 -0.0851 -1.1716
 8902SOL     OW29147   7.733   7.112   2.662 -0.0759  0.2437  0.4142
 8902SOL    HW129148   7.641   7.126   2.640  0.3584  1.1083 -1.0064
 8902SOL    HW229149   7.734   7.101   2.757 -1.8124 -1.2980  0.3079
 8903SOL     OW29150   4.764   9.120   1.094 -0.1319 -0.1155 -0.6153
 8903SOL    HW129151   4.755   9.061   1.019  2.9074 -0.9747 -0.4625
 8903SOL    HW229152   4.810   9.196   1.059 -2.0608  1.2455 -0.3355
 8904SOL     OW29153   1.642   6.770   1.978  0.2367  0.2484 -0.3028
 8904SOL    HW129154   1.700   6.741   1.908 -1.1368  0.8198 -1.7434
 8904SOL    HW229155   1.582   6.831   1.935 -0.4535  0.8687  1.4587
 8905SOL     OW29156   2.929   0.882   7.763 -0.1622  0.3066 -0.6777
 8905SOL    HW129157   2.883   0.904   7.845 -1.0179 -0.5046 -0.9249
 8905SOL    HW229158   3.009   0.935   7.766 -0.3664  0.5878  0.4972
 8906SOL     OW29159   7.775   6.990  10.228 -0.1212 -0.7463 -0.4858
 8906SOL    HW129160   7.832   6.944  10.290  0.9331 -0.0896 -0.9427
 8906SOL    HW229161   7.717   7.043  10.283 -0.7130 -1.8611  0.0067
 8907SOL     OW29162   8.798   0.774   4.583 -0.0692 -0.3411  0.3976
 8907SOL    HW129163   8.824   0.832   4.512 -1.6402  1.4650  1.2150
 8907SOL    HW229164   8.827   0.687   4.555  1.3690  0.6433 -1.3813
 8908SOL     OW29165  10.464   4.017   6.590 -0.2071 -0.5758  0.0386
 8908SOL    HW129166  10.426   4.083   6.533 -2.0265 -1.2329  0.4156
 8908SOL    HW229167  10.540   4.059   6.629  0.6159  0.1464 -2.2396
 8909SOL     OW29168   9.668   5.312   1.489  0.1877  0.0106  0.1327
 8909SOL    HW129169   9.616   5.354   1.420 -0.5663 -0.7043  0.2433
 8909SOL    HW229170   9.737   5.265   1.442 -0.1545 -0.2433 -0.1206
 8910SOL     OW29171   8.561  10.222   7.323  0.0102  0.2094 -0.2946
 8910SOL    HW129172   8.624  10.289   7.298 -0.4429  1.4682  1.7565
 8910SOL    HW229173   8.610  10.140   7.317  0.7338  0.7137 -2.2852
 8911SOL     OW29174   4.267   8.622   9.996  0.1822 -0.3004  0.3594
 8911SOL    HW129175   4.195   8.627  10.059 -1.0149 -0.1687 -0.9855
 8911SOL    HW229176   4.289   8.529   9.993 -3.1160 -1.2065 -2.5799
 8912SOL     OW29177   1.544   6.193   6.783  0.2730  0.2925  0.5081
 8912SOL    HW129178   1.511   6.186   6.872 -0.6778 -0.9039  0.0947
 8912SOL    HW229179   1.533   6.285   6.760 -1.8424  0.1382  0.7616
 8913SOL     OW29180   5.044   1.456   6.298 -0.0845 -0.2564 -0.4603
 8913SOL    HW129181   5.024   1.395   6.226 -1.7964  0.3776 -0.5649
 8913SOL    HW229182   5.139   1.457   6.302  0.0164 -1.6560 -1.5671
 8914SOL     OW29183   9.584   5.898   5.613 -0.3464 -0.1743 -0.5256
 8914SOL    HW129184   9.504   5.867   5.656 -0.2462  0.2231 -0.0461
 8914SOL    HW229185   9.568   5.990   5.595 -0.5391 -0.4292 -1.7138
 8915SOL     OW29186   7.626  10.292   2.182  0.1467 -0.4514 -0.2559
 8915SOL    HW129187   7.567  10.350   2.231  0.0606 -1.8407  1.3694
 8915SOL    HW229188   7.616  10.206   2.224  2.0231 -1.1231 -1.0676
 8916SOL     OW29189   6.260   0.524   0.106 -0.2463 -0.7520 -0.1050
 8916SOL    HW129190   6.229   0.485   0.188  0.8115  0.1593  0.7545
 8916SOL    HW229191   6.348   0.556   0.126 -0.9224  1.7576 -0.8572
 8917SOL     OW29192   5.938   0.412   4.075  0.1248  0.0424 -0.0111
 8917SOL    HW129193   5.947   0.436   4.167 -1.3163 -0.6919  0.3578
 8917SOL    HW229194   6.017   0.447   4.033  0.3120  1.2987  1.3000
 8918SOL     OW29195   3.662   4.613   7.464 -0.3760  0.1329  0.4181
 8918SOL    HW129196   3.704   4.583   7.384 -0.6412 -3.0760  1.3265
 8918SOL    HW229197   3.570   4.623   7.441 -0.3295 -0.0425  0.1506
 8919SOL     OW29198   3.886   1.520   6.146 -0.0883 -0.3738 -0.3397
 8919SOL    HW129199   3.814   1.515   6.083  0.2654 -2.0682 -0.6445
 8919SOL    HW229200   3.964   1.497   6.095  0.5764  0.6794  0.1642
 8920SOL     OW29201   0.164   4.441   0.423  0.2329  0.9563  0.2166
 8920SOL    HW129202   0.136   4.448   0.332  1.2820 -1.8615 -0.4217
 8920SOL    HW229203   0.260   4.435   0.418  0.4257  2.1180  1.6543
 8921SOL     OW29204   9.479   7.681   2.642 -0.0758 -0.1190  0.0909
 8921SOL    HW129205   9.497   7.715   2.554 -0.2719  0.4857  0.2799
 8921SOL    HW229206   9.483   7.758   2.699  0.9822 -0.6379  0.7599
 8922SOL     OW29207   4.413   2.083   4.036  0.0118  0.0868 -0.2604
 8922SOL    HW129208   4.469   2.041   3.971 -0.1025  0.3665 -0.5369
 8922SOL    HW229209   4.445   2.173   4.041  0.9636 -0.2910  1.1115
 8923SOL     OW29210   6.581   4.547   3.949 -0.3789 -0.1574 -0.2714
 8923SOL    HW129211   6.553   4.604   4.021  2.8053  3.5219 -1.5859
 8923SOL    HW229212   6.518   4.564   3.879 -0.3596  0.5660 -0.1233
 8924SOL     OW29213   4.427   3.017   8.115  0.7477  0.0232 -0.9474
 8924SOL    HW129214   4.478   2.936   8.115 -0.3006 -0.7166  1.0997
 8924SOL    HW229215   4.351   2.997   8.170  0.1367  2.2102 -0.9094
 8925SOL     OW29216   7.724   9.429   0.216  0.1287  0.1945  0.0678
 8925SOL    HW129217   7.771   9.348   0.234  0.2092  0.3483  0.5798
 8925SOL    HW229218   7.787   9.499   0.236  0.3700  0.3799 -1.2805
 8926SOL     OW29219   0.137   3.616   9.693  0.0335  0.1789  0.0353
 8926SOL    HW129220   0.077   3.671   9.743 -0.1525  0.5579 -0.5949
 8926SOL    HW229221   0.085   3.583   9.620  0.1739 -0.7547  0.3384
 8927SOL     OW29222   4.923   9.456   7.055 -0.5319  0.1334 -0.0368
 8927SOL    HW129223   4.864   9.388   7.024 -0.7212  0.6390 -0.8236
 8927SOL    HW229224   4.976   9.479   6.979 -1.8325  2.2605 -0.4089
 8928SOL     OW29225   4.083   4.865   2.363  0.3041 -0.6102  0.2861
 8928SOL    HW129226   4.026   4.810   2.310  0.2973 -1.4673  1.1442
 8928SOL    HW229227   4.028   4.937   2.392  0.6471  0.6440 -1.9446
 8929SOL     OW29228   5.841   2.662   6.411 -0.3300 -0.2882 -0.4981
 8929SOL    HW129229   5.851   2.757   6.407  0.8853 -0.3275  0.7974
 8929SOL    HW229230   5.849   2.633   6.320  1.6724  0.6701 -0.6832
 8930SOL     OW29231   9.355   5.699   1.580 -0.2204 -0.4979  0.7187
 8930SOL    HW129232   9.364   5.611   1.544 -0.6217  0.0761 -0.8381
 8930SOL    HW229233   9.427   5.706   1.643  0.4409 -1.5666  0.1132
 8931SOL     OW29234   2.659   4.313   7.660  0.0644 -0.0072 -0.1952
 8931SOL    HW129235   2.744   4.357   7.666 -0.5212  1.4083 -1.5566
 8931SOL    HW229236   2.617   4.330   7.745  0.8393 -0.1069  0.2187
 8932SOL     OW29237   6.913   6.074   7.261  0.4682 -0.0196  0.1626
 8932SOL    HW129238   6.961   6.134   7.319  1.9491 -0.7886 -0.2307
 8932SOL    HW229239   6.898   6.125   7.182  1.0706  0.0744  0.1057
 8933SOL     OW29240   1.928   0.639   0.160 -0.3956 -0.0490 -0.2679
 8933SOL    HW129241   1.863   0.706   0.180  1.3629  1.3326  1.1296
 8933SOL    HW229242   1.877   0.558   0.155 -2.0397  0.6643  2.5367
 8934SOL     OW29243   7.655   0.587   0.603  0.0120 -0.4872 -0.0095
 8934SOL    HW129244   7.632   0.680   0.611 -0.7705 -0.6043 -0.6989
 8934SOL    HW229245   7.742   0.580   0.642 -0.2007  0.4132  0.6462
 8935SOL     OW29246   5.782  10.264   8.255  0.0307  0.2470  0.5238
 8935SOL    HW129247   5.755  10.177   8.284 -0.2862  0.4805  0.9327
 8935SOL    HW229248   5.872  10.252   8.225 -1.0207 -0.9247 -2.5207
 8936SOL     OW29249   3.123   4.299   0.439 -0.3239 -0.2284  0.2345
 8936SOL    HW129250   3.065   4.236   0.396 -1.3775  0.5719  0.4493
 8936SOL    HW229251   3.084   4.311   0.526 -0.2028  0.7935  0.1577
 8937SOL     OW29252  10.430   1.035   2.105 -0.2156  0.6137  0.7529
 8937SOL    HW129253  10.339   1.031   2.134 -0.2677 -0.0426  0.5319
 8937SOL    HW229254  10.430   1.099   2.033 -0.4000  1.0011  1.0959
 8938SOL     OW29255   8.433   9.165   3.181  0.4734 -0.5900 -0.4072
 8938SOL    HW129256   8.369   9.214   3.232  0.5265  0.3509 -1.2071
 8938SOL    HW229257   8.514   9.172   3.231  0.5177  0.2932 -0.5852
 8939SOL     OW29258  10.013   8.281   3.878 -0.2621  0.4476 -0.5648
 8939SOL    HW129259  10.086   8.302   3.821 -0.2487 -0.8547 -1.0790
 8939SOL    HW229260  10.053   8.237   3.954 -0.4949 -0.4619 -0.9473
 8940SOL     OW29261   9.201   4.865   8.835  0.4992 -0.2997  0.1764
 8940SOL    HW129262   9.235   4.924   8.902 -0.8239  1.3571 -0.5394
 8940SOL    HW229263   9.277   4.812   8.810  1.9669  1.5936  0.3476
 8941SOL     OW29264   9.573   7.088   3.702 -0.0335 -0.2881  0.5566
 8941SOL    HW129265   9.534   7.141   3.632 -0.0907  0.4250  1.1165
 8941SOL    HW229266   9.512   7.097   3.775  0.1069 -0.9021  0.7580
 8942SOL     OW29267   2.803   4.889   7.695  0.5614 -0.0955 -0.4231
 8942SOL    HW129268   2.800   4.980   7.666 -2.9395 -0.1779 -0.7487
 8942SOL    HW229269   2.763   4.840   7.622 -0.7498 -1.3911  1.0903
 8943SOL     OW29270   5.345   6.064   1.933  0.4140 -0.3450  0.9754
 8943SOL    HW129271   5.267   6.079   1.881  2.5861 -0.1028 -2.5432
 8943SOL    HW229272   5.377   6.152   1.954 -0.6900 -0.4268  3.3559
 8944SOL     OW29273   0.968   0.176   0.940 -0.1082 -0.0382 -0.7124
 8944SOL    HW129274   0.909   0.189   1.014  0.2796  1.0224 -0.5759
 8944SOL    HW229275   1.023   0.102   0.967  0.7540  1.0092  0.5621
 8945SOL     OW29276   1.819   7.381   6.571  0.6834 -0.2895 -0.4178
 8945SOL    HW129277   1.731   7.345   6.555  0.8085 -1.0038  0.3897
 8945SOL    HW229278   1.813   7.420   6.659  1.1262 -0.1874 -0.4321
 8946SOL     OW29279   8.484   1.643   9.556 -0.1178 -0.2095  0.0597
 8946SOL    HW129280   8.411   1.694   9.591  0.2238  1.2012 -1.1984
 8946SOL    HW229281   8.444   1.580   9.497 -0.3529  0.5984 -0.6711
 8947SOL     OW29282   3.334   5.612   4.047 -0.1257  0.1557  0.1759
 8947SOL    HW129283   3.266   5.675   4.024 -1.7721 -2.4460 -3.0402
 8947SOL    HW229284   3.289   5.546   4.099  1.2958  0.9226  2.5238
 8948SOL     OW29285   2.776   6.359   8.656  0.3707 -0.2380  0.6192
 8948SOL    HW129286   2.759   6.432   8.716 -0.8783 -0.6399  0.7660
 8948SOL    HW229287   2.820   6.293   8.710  0.8444  0.1008  0.6569
 8949SOL     OW29288   3.989   3.391   2.242  0.0025 -0.1103  0.6732
 8949SOL    HW129289   3.918   3.455   2.251 -0.5415 -0.5683 -0.2411
 8949SOL    HW229290   4.060   3.427   2.296 -1.1276  0.0289  2.1333
 8950SOL     OW29291   9.191   3.447   8.770 -0.3215  0.2034 -0.5140
 8950SOL    HW129292   9.101   3.472   8.752 -1.0502 -0.1895  2.0731
 8950SOL    HW229293   9.186   3.402   8.855  2.1730 -0.7153 -0.7805
 8951SOL     OW29294   8.483   4.583   5.878  0.1129 -0.3795 -0.4353
 8951SOL    HW129295   8.556   4.645   5.889 -0.4465  0.2984 -0.4658
 8951SOL    HW229296   8.473   4.576   5.783 -0.1163 -0.1604 -0.4288
 8952SOL     OW29297   9.986   1.082   8.290  0.0961  0.4775  0.0111
 8952SOL    HW129298   9.894   1.089   8.314 -0.4778 -0.4008 -1.7621
 8952SOL    HW229299  10.023   1.168   8.313 -0.8980  0.4922  1.6976
 8953SOL     OW29300   4.801   1.696   2.432 -0.2427 -0.9052  0.1905
 8953SOL    HW129301   4.754   1.684   2.515 -1.2455  2.9815  0.3649
 8953SOL    HW229302   4.793   1.611   2.388 -2.8630 -2.0213  2.4688
 8954SOL     OW29303   6.576   6.689   4.792  0.4157  0.0800 -0.3009
 8954SOL    HW129304   6.646   6.627   4.772  0.2797 -0.2464  0.2444
 8954SOL    HW229305   6.512   6.677   4.722  0.1099 -0.8077  0.1301
 8955SOL     OW29306   8.611   6.730   9.980 -0.5396  0.4937  0.8697
 8955SOL    HW129307   8.635   6.787  10.052 -0.4567  1.3452  0.1813
 8955SOL    HW229308   8.673   6.656   9.987 -0.6218  0.4960  1.7325
 8956SOL     OW29309   7.521   3.946   6.378 -0.0303  0.4990  0.5716
 8956SOL    HW129310   7.513   3.994   6.460 -0.1791 -0.7478  1.3131
 8956SOL    HW229311   7.615   3.935   6.365  0.1456  2.8149 -0.7487
 8957SOL     OW29312   4.654   0.138   4.115 -0.3109 -0.8091  0.1612
 8957SOL    HW129313   4.561   0.132   4.093 -0.1455  0.2235 -0.9778
 8957SOL    HW229314   4.660   0.215   4.171 -0.4105 -2.1286  2.0648
 8958SOL     OW29315   0.182   1.068   9.154  0.3610 -0.2740 -0.6007
 8958SOL    HW129316   0.139   0.990   9.191  0.2354  0.0761  0.0109
 8958SOL    HW229317   0.217   1.114   9.231  1.0186 -0.0752 -1.0154
 8959SOL     OW29318   2.637   2.576   1.940  0.2054  0.0995  0.6362
 8959SOL    HW129319   2.632   2.537   1.852  0.5827  0.0426  0.6369
 8959SOL    HW229320   2.574   2.648   1.938  1.1106  0.8958 -0.0925
 8960SOL     OW29321   0.488   5.564   3.234 -0.1187  0.0955 -0.1919
 8960SOL    HW129322   0.435   5.490   3.265  0.9449 -0.8307 -0.5104
 8960SOL    HW229323   0.455   5.639   3.284 -2.4773 -0.1976 -1.1756
 8961SOL     OW29324   0.754   4.079   9.447 -0.1169 -0.3147 -0.0882
 8961SOL    HW129325   0.827   4.019   9.434 -0.4079 -0.6028 -0.4215
 8961SOL    HW229326   0.770   4.119   9.532  0.1199 -0.8031  0.0970
 8962SOL     OW29327   2.792  10.194   3.543  0.2040  0.5420 -0.3734
 8962SOL    HW129328   2.740  10.257   3.493 -1.5150 -1.4301 -1.2106
 8962SOL    HW229329   2.756  10.197   3.631 -0.0489  0.5519 -0.4766
 8963SOL     OW29330   7.976   7.308   0.438  0.2005 -0.0428  0.0749
 8963SOL    HW129331   7.934   7.357   0.367  0.9413 -1.0929 -1.1526
 8963SOL    HW229332   7.943   7.218   0.427 -0.2980 -0.0558  1.5817
 8964SOL     OW29333   9.580   2.659   2.367  0.0689  0.3818 -0.4010
 8964SOL    HW129334   9.522   2.725   2.328  0.5503  0.5626 -0.8170
 8964SOL    HW229335   9.521   2.590   2.396 -0.3669  0.6099 -0.7277
 8965SOL     OW29336   5.731   6.551   4.143 -0.4294 -0.7371  0.5379
 8965SOL    HW129337   5.718   6.464   4.181 -2.5149 -0.8616 -0.2958
 8965SOL    HW229338   5.735   6.535   4.048 -0.2326  0.0279  0.4091
 8966SOL     OW29339   8.986   9.307   6.373  0.0024  0.1653  0.6947
 8966SOL    HW129340   8.901   9.333   6.340  0.6637  2.9989  0.9769
 8966SOL    HW229341   9.038   9.387   6.371  3.5693 -1.8792 -2.0334
 8967SOL     OW29342   7.388   7.031   9.890 -0.3244  0.2478 -0.1290
 8967SOL    HW129343   7.312   7.060   9.839 -0.3865 -0.2091 -0.2930
 8967SOL    HW229344   7.361   6.948   9.929 -0.2525  0.5480  0.5919
 8968SOL     OW29345   2.508   2.794   8.008  0.0342  0.2481  0.0660
 8968SOL    HW129346   2.571   2.750   7.950  2.1567 -2.1531  3.8262
 8968SOL    HW229347   2.560   2.861   8.053 -1.2250  1.1412  0.2515
 8969SOL     OW29348   3.147   7.778   0.635  0.0175  0.5967 -0.0754
 8969SOL    HW129349   3.213   7.750   0.698  0.8637  2.1660 -0.2071
 8969SOL    HW229350   3.184   7.856   0.594 -1.6130  1.1098 -0.6733
 8970SOL     OW29351   4.106   9.904   9.571  0.2828  0.0119  0.1819
 8970SOL    HW129352   4.076   9.952   9.494  2.1060  1.3693  0.2617
 8970SOL    HW229353   4.111   9.969   9.641 -0.9289 -1.1122  1.3819
 8971SOL     OW29354   9.922   9.966  10.454  0.4452 -0.1009 -0.1286
 8971SOL    HW129355   9.979   9.892  10.476  0.3754  0.2454  1.3033
 8971SOL    HW229356   9.873   9.984  10.535  0.7779  1.7842 -0.2892
 8972SOL     OW29357   1.381   8.747   6.722  0.2335 -0.7500 -0.0249
 8972SOL    HW129358   1.378   8.694   6.801 -0.9651 -0.6688  0.0027
 8972SOL    HW229359   1.296   8.793   6.721  0.9032  0.5363 -0.4662
 8973SOL     OW29360   0.910   3.239  10.154 -0.2481  0.0472  0.1891
 8973SOL    HW129361   0.977   3.262  10.090 -1.2538  2.1102 -0.1883
 8973SOL    HW229362   0.959   3.210  10.231  1.0981  1.5378 -0.0676
 8974SOL     OW29363   5.916   5.872   7.015 -0.0955  0.2677 -0.0135
 8974SOL    HW129364   5.848   5.814   7.049 -2.6501  1.9962 -1.7336
 8974SOL    HW229365   5.913   5.857   6.920  1.3961  0.9896 -0.1920
 8975SOL     OW29366   0.290   8.778   4.507 -0.2070  0.4922  0.5936
 8975SOL    HW129367   0.318   8.731   4.585  1.2604  0.3010  0.0011
 8975SOL    HW229368   0.222   8.838   4.537 -2.0350 -1.8244  1.4109
 8976SOL     OW29369   4.256   9.200   0.726 -0.1203 -0.4100 -0.3193
 8976SOL    HW129370   4.226   9.110   0.737 -0.7085 -0.1303  0.4143
 8976SOL    HW229371   4.218   9.227   0.643 -2.9958  0.3256  1.1060
 8977SOL     OW29372   5.737   7.151   8.144 -0.2116 -0.3346  0.7926
 8977SOL    HW129373   5.661   7.176   8.198 -1.2591 -0.0114 -0.7695
 8977SOL    HW229374   5.798   7.224   8.154 -0.3179 -0.3516  1.6575
 8978SOL     OW29375   5.578   3.796   3.511 -0.0874 -0.2467  0.6875
 8978SOL    HW129376   5.623   3.792   3.427  0.8427  1.3095  1.0661
 8978SOL    HW229377   5.491   3.760   3.493  0.9260 -2.4081 -0.2902
 8979SOL     OW29378   3.406   9.615   1.517  0.8484 -0.3149 -0.1007
 8979SOL    HW129379   3.393   9.549   1.449 -0.4494 -1.9033  1.5706
 8979SOL    HW229380   3.448   9.688   1.472  0.3324 -1.3969 -2.5181
 8980SOL     OW29381   1.577   4.709   2.275  0.0592 -0.3960  0.1991
 8980SOL    HW129382   1.653   4.756   2.241 -0.0245  0.9074  1.7055
 8980SOL    HW229383   1.564   4.638   2.213  2.6852 -0.8587  0.0594
 8981SOL     OW29384   1.169   0.220  10.009  0.8131  0.2401 -0.2073
 8981SOL    HW129385   1.187   0.166   9.932  0.8149  2.0794 -1.5497
 8981SOL    HW229386   1.100   0.279   9.981 -0.0821  0.1223  1.6365
 8982SOL     OW29387   4.503   2.409   2.101  0.5029  0.1946  0.1219
 8982SOL    HW129388   4.419   2.405   2.147  0.0846 -2.0410 -0.6678
 8982SOL    HW229389   4.509   2.324   2.056  3.2617  0.2198  0.2829
 8983SOL     OW29390   2.874   4.641   1.619  0.3462 -0.1331 -0.4765
 8983SOL    HW129391   2.899   4.716   1.674 -1.2513  1.5427 -1.9184
 8983SOL    HW229392   2.796   4.606   1.661  0.6706 -0.5660 -0.2189
 8984SOL     OW29393   8.517   9.793   1.871  0.5061 -0.4062  0.2770
 8984SOL    HW129394   8.501   9.701   1.850 -3.5067  0.5018 -1.7612
 8984SOL    HW229395   8.468   9.808   1.952  0.2547  0.1368  0.0294
 8985SOL     OW29396   6.735  10.171   5.364  0.3375  0.2440  0.2493
 8985SOL    HW129397   6.820  10.214   5.372  0.3784  0.2083  0.0324
 8985SOL    HW229398   6.673  10.231   5.406  0.3511  0.6604 -0.3124
 8986SOL     OW29399   4.613   3.193   9.728 -0.5634  0.4094 -0.1720
 8986SOL    HW129400   4.649   3.141   9.656  0.0579 -0.4666  0.7456
 8986SOL    HW229401   4.649   3.152   9.807  1.2059  3.1287  0.5675
 8987SOL     OW29402  10.368   9.151   4.757  0.0814 -0.0827 -0.0852
 8987SOL    HW129403  10.447   9.113   4.795  2.0019  3.1930 -0.3681
 8987SOL    HW229404  10.323   9.191   4.832  0.3484  0.6368 -0.2939
 8988SOL     OW29405   0.906   9.057   2.464 -0.1003 -0.5871 -0.0734
 8988SOL    HW129406   0.984   9.078   2.414  0.5892  0.4964  1.3698
 8988SOL    HW229407   0.853   9.137   2.462  0.0258 -0.4531  1.0288
 8989SOL     OW29408   4.422   9.062   6.390 -0.8587  0.4222 -0.6535
 8989SOL    HW129409   4.450   8.984   6.438 -0.3129  1.0642  0.0951
 8989SOL    HW229410   4.482   9.068   6.316  0.4747  1.2840  0.4421
 8990SOL     OW29411   7.038   8.531   2.981  0.0113  0.2824 -0.0505
 8990SOL    HW129412   7.095   8.457   2.958 -0.5218 -0.0104 -0.4666
 8990SOL    HW229413   6.979   8.497   3.048  0.6044  0.7152  0.7098
 8991SOL     OW29414   5.135   6.811   8.565 -0.2077  0.4143  0.0302
 8991SOL    HW129415   5.193   6.883   8.589 -0.5333  1.9148 -3.2190
 8991SOL    HW229416   5.048   6.839   8.594 -0.3284  1.4023 -1.1995
 8992SOL     OW29417  10.068  10.069   6.198 -0.0632  0.4481  0.1651
 8992SOL    HW129418  10.091  10.076   6.291  3.0264 -0.6666 -0.3875
 8992SOL    HW229419  10.012   9.991   6.193 -0.5269  0.7052  1.0886
 8993SOL     OW29420   9.635   4.337   7.940  0.7282 -0.3284 -0.0674
 8993SOL    HW129421   9.569   4.397   7.905  2.7903  2.9833  1.2776
 8993SOL    HW229422   9.601   4.311   8.026  0.9278  1.0409  0.4470
 8994SOL     OW29423   4.354   4.485   6.328  0.0608  0.2424  0.2908
 8994SOL    HW129424   4.403   4.510   6.407  1.2566 -0.1115 -0.3231
 8994SOL    HW229425   4.287   4.425   6.360 -1.0799  1.9991  1.3841
 8995SOL     OW29426   2.259   6.299   6.643  0.2312 -0.5336  1.4658
 8995SOL    HW129427   2.182   6.275   6.696  0.4599 -3.0426  0.7748
 8995SOL    HW229428   2.223   6.318   6.556  0.2854 -0.4693  1.4571
 8996SOL     OW29429   9.645  10.034   1.159 -0.1475  1.1387 -0.7881
 8996SOL    HW129430   9.609   9.962   1.210  0.8694  2.1596  1.5062
 8996SOL    HW229431   9.735  10.008   1.138 -0.3846  0.9583 -1.6323
 8997SOL     OW29432   9.258   0.129   1.801  0.7609  0.5195  0.2264
 8997SOL    HW129433   9.182   0.186   1.813  0.3396  0.2395 -1.0255
 8997SOL    HW229434   9.277   0.133   1.708  2.5173  0.8546  0.5649
 8998SOL     OW29435   2.119   5.264   0.995 -0.5526 -0.0414 -0.4099
 8998SOL    HW129436   2.031   5.283   0.962 -0.8794 -2.8099 -1.3876
 8998SOL    HW229437   2.113   5.283   1.089 -1.5020  1.8700 -0.7929
 8999SOL     OW29438   6.749   5.465  10.265  0.0376 -0.6735  0.2487
 8999SOL    HW129439   6.702   5.534  10.313 -0.1899 -0.2510 -0.5523
 8999SOL    HW229440   6.727   5.481  10.174  1.4654 -0.6937 -0.1190
 9000SOL     OW29441   8.348   6.376  10.269  0.4083 -0.1940  0.1590
 9000SOL    HW129442   8.422   6.362  10.209 -1.1003 -0.6117 -1.7116
 9000SOL    HW229443   8.344   6.296  10.321  1.3308 -0.1182  0.3682
 9001SOL     OW29444   6.937   7.812   5.975  0.1419  0.2012  0.0281
 9001SOL    HW129445   6.884   7.890   5.990  1.8245  1.2802  0.5715
 9001SOL    HW229446   6.987   7.831   5.896  1.1779  0.0235  0.6292
 9002SOL     OW29447   1.332   7.086   5.961  0.4457  0.0428  0.1914
 9002SOL    HW129448   1.257   7.115   6.014  0.7508 -0.7037  1.0554
 9002SOL    HW229449   1.393   7.048   6.024  2.3120  2.0709 -0.2472
 9003SOL     OW29450   2.327   4.329   6.002  0.0234  0.7498  0.7103
 9003SOL    HW129451   2.385   4.388   6.050 -2.4696  3.9928  0.0871
 9003SOL    HW229452   2.343   4.349   5.909 -0.0519 -0.4860  0.4043
 9004SOL     OW29453   9.743   5.604   9.659  0.1995  0.6099 -0.2504
 9004SOL    HW129454   9.712   5.609   9.569  0.5055 -0.8690 -0.4709
 9004SOL    HW229455   9.837   5.621   9.653  0.6998 -1.9181 -0.6049
 9005SOL     OW29456   6.864   6.298   8.514  0.2980 -0.0174  0.0032
 9005SOL    HW129457   6.772   6.325   8.514  0.6006  1.0535 -0.4391
 9005SOL    HW229458   6.887   6.290   8.421  1.1360  1.4812  0.0615
 9006SOL     OW29459   5.158   3.853   2.453 -0.3673 -0.0892  0.2003
 9006SOL    HW129460   5.191   3.942   2.438 -0.4961 -0.2906 -1.4828
 9006SOL    HW229461   5.148   3.847   2.548  0.4787  1.3902  0.4211
 9007SOL     OW29462   6.836   7.702   4.650 -0.1768  0.4875 -0.6283
 9007SOL    HW129463   6.923   7.663   4.644  0.3768  1.4330  0.6932
 9007SOL    HW229464   6.778   7.630   4.675  0.6620  0.3168  0.9087
 9008SOL     OW29465   6.461   5.389  10.119 -0.1554  0.1656  0.4652
 9008SOL    HW129466   6.423   5.458  10.173  1.1289  0.9284  0.4278
 9008SOL    HW229467   6.422   5.401  10.032  2.1316  2.7199 -0.3413
 9009SOL     OW29468  10.214   1.672   9.586 -0.7778  0.6977  0.2800
 9009SOL    HW129469  10.174   1.751   9.551  0.6176  0.3828 -2.3661
 9009SOL    HW229470  10.144   1.607   9.586 -1.2314  1.1779 -0.4061
 9010SOL     OW29471   0.506   2.200   2.241  0.4010 -0.7503 -0.1215
 9010SOL    HW129472   0.449   2.155   2.303 -0.1123 -1.0725 -0.8113
 9010SOL    HW229473   0.578   2.138   2.226 -0.9965 -2.0180 -2.1268
 9011SOL     OW29474   0.491   4.262   3.203  0.2323 -0.2188  0.1186
 9011SOL    HW129475   0.584   4.285   3.198  0.7440 -2.0792  0.5405
 9011SOL    HW229476   0.482   4.184   3.149 -1.3028  0.4735 -0.7021
 9012SOL     OW29477   9.643   9.841   7.855  0.3756  0.2508  0.3827
 9012SOL    HW129478   9.603   9.833   7.768  0.2316  0.5366  0.4206
 9012SOL    HW229479   9.736   9.855   7.838  0.5683 -0.9929  0.3050
 9013SOL     OW29480   6.689   0.378   4.980  0.2509  0.1872 -0.8437
 9013SOL    HW129481   6.608   0.425   4.956 -0.5381 -0.8729 -0.3375
 9013SOL    HW229482   6.701   0.399   5.073 -0.4126 -1.0182 -0.4694
 9014SOL     OW29483   2.475   4.702   1.185  0.4701 -0.2006  0.1034
 9014SOL    HW129484   2.396   4.697   1.130 -0.1935 -0.3319  1.0391
 9014SOL    HW229485   2.515   4.785   1.163  2.2537 -1.7715 -3.2578
 9015SOL     OW29486   6.589   2.567   0.792  0.1371  0.0884 -0.0056
 9015SOL    HW129487   6.559   2.627   0.724 -0.8295  1.3136  1.4226
 9015SOL    HW229488   6.518   2.568   0.857  2.1549  1.1395  2.3178
 9016SOL     OW29489   4.359   1.621   7.938  0.2364  0.0344  0.7499
 9016SOL    HW129490   4.417   1.659   7.872 -0.2019  1.9136  1.3859
 9016SOL    HW229491   4.355   1.687   8.008 -0.2852 -1.3649  2.0986
 9017SOL     OW29492  10.186   7.221   6.463 -0.4469  0.0075 -0.5485
 9017SOL    HW129493  10.122   7.261   6.522  1.4253  0.9236  0.9899
 9017SOL    HW229494  10.231   7.295   6.422  1.9977 -0.4145  1.1492
 9018SOL     OW29495   1.969   9.828   1.391  0.0903  0.0430 -0.4249
 9018SOL    HW129496   2.026   9.801   1.320 -0.0069 -1.0746 -0.0909
 9018SOL    HW229497   1.922   9.749   1.416 -2.4242  1.1106 -1.4094
 9019SOL     OW29498   7.732  10.294   5.418  0.0861 -0.1485  0.6473
 9019SOL    HW129499   7.641  10.320   5.403  0.3083 -0.2293 -1.1014
 9019SOL    HW229500   7.739  10.284   5.513 -0.8753  2.9074  1.1395
 9020SOL     OW29501   2.743   4.610   8.589 -0.0705  0.0683 -0.1164
 9020SOL    HW129502   2.674   4.650   8.535 -0.0322  0.7299  0.3078
 9020SOL    HW229503   2.695   4.556   8.652 -0.2284  0.6760  0.3000
 9021SOL     OW29504   6.787   3.686   5.299 -0.5545  0.3859  0.2719
 9021SOL    HW129505   6.727   3.754   5.328  0.8589  1.0323  1.8629
 9021SOL    HW229506   6.745   3.604   5.324 -0.4222  0.8585  2.1899
 9022SOL     OW29507   1.688   0.032   9.765  0.0937 -0.3028 -0.3072
 9022SOL    HW129508   1.731   0.117   9.763  0.5213 -0.4622  0.9479
 9022SOL    HW229509   1.595   0.051   9.757  0.0084  0.4731  1.9546
 9023SOL     OW29510   4.769   3.745   2.651 -0.1814  0.3880 -0.3198
 9023SOL    HW129511   4.790   3.838   2.661 -0.9088  0.6883 -1.4080
 9023SOL    HW229512   4.674   3.740   2.664  0.1187 -0.5732  2.0547
 9024SOL     OW29513   9.102   4.490   0.746  0.0449  0.0877  0.0531
 9024SOL    HW129514   9.028   4.488   0.806  0.4841  1.4140  0.6907
 9024SOL    HW229515   9.067   4.529   0.666 -0.0226  0.4360  0.2495
 9025SOL     OW29516   0.673   3.888   3.060  0.2567  0.0308  0.2845
 9025SOL    HW129517   0.734   3.893   2.987  1.0932 -1.3603  0.8514
 9025SOL    HW229518   0.589   3.915   3.023  0.5823 -0.9810 -1.2918
 9026SOL     OW29519   5.995   1.184   8.873 -0.0737  0.2477 -0.4870
 9026SOL    HW129520   5.998   1.088   8.878 -1.1401  0.1751 -0.9751
 9026SOL    HW229521   6.056   1.213   8.941  1.2449 -0.7760 -1.1733
 9027SOL     OW29522   3.969   5.838   9.096  0.0067  0.1984  0.1157
 9027SOL    HW129523   4.054   5.799   9.116  0.3356 -0.3420 -2.0601
 9027SOL    HW229524   3.933   5.784   9.026 -1.0760  1.8000 -0.6356
 9028SOL     OW29525   6.135   0.737   3.211 -0.0125  0.2086  0.1044
 9028SOL    HW129526   6.040   0.733   3.212 -0.0124 -0.0816  1.3020
 9028SOL    HW229527   6.161   0.698   3.295  1.0489  2.2683  0.8050
 9029SOL     OW29528   4.942   2.633   4.779  0.2996 -0.9120  0.8002
 9029SOL    HW129529   4.970   2.708   4.726 -0.3553 -1.5634 -0.5122
 9029SOL    HW229530   4.913   2.671   4.861  0.4039  0.2346  0.3244
 9030SOL     OW29531   6.555  10.366   1.253  0.3230 -0.3440  0.4920
 9030SOL    HW129532   6.578  10.449   1.295 -0.9960  0.8099 -0.9470
 9030SOL    HW229533   6.468  10.381   1.215 -0.5812 -2.8363  1.3435
 9031SOL     OW29534   1.811   3.945   6.540 -0.6427  0.2900 -0.5679
 9031SOL    HW129535   1.769   3.867   6.505  1.6886 -0.7283 -1.2893
 9031SOL    HW229536   1.857   3.913   6.618  0.9568  0.7221 -1.2953
 9032SOL     OW29537   2.398   8.075   1.578  0.0942 -0.2924 -0.5481
 9032SOL    HW129538   2.426   7.985   1.594 -0.5108 -0.7288 -1.8711
 9032SOL    HW229539   2.397   8.084   1.483 -4.3355 -0.3780 -0.7148
 9033SOL     OW29540   7.557   4.275   7.422  0.4333 -0.0552  0.4022
 9033SOL    HW129541   7.603   4.260   7.339  0.8864  2.6529  0.0811
 9033SOL    HW229542   7.474   4.315   7.397 -0.5245 -1.4631  1.1893
 9034SOL     OW29543   0.708   4.578   6.445  0.0227 -0.1453  0.8490
 9034SOL    HW129544   0.674   4.556   6.532 -0.7397  0.5115  0.7352
 9034SOL    HW229545   0.803   4.576   6.455 -0.0340  0.9553  1.9862
 9035SOL     OW29546  10.391   2.229   1.123 -0.4553  0.0289  0.0701
 9035SOL    HW129547  10.323   2.187   1.069 -1.1019 -0.1039  0.9590
 9035SOL    HW229548  10.433   2.291   1.064 -0.3375 -0.9616 -0.9169
 9036SOL     OW29549   7.650   0.840   9.472  0.1176  0.5362 -0.4958
 9036SOL    HW129550   7.653   0.837   9.377  0.6081 -0.7658 -0.4680
 9036SOL    HW229551   7.741   0.843   9.499  0.1832 -2.0811 -0.0742
 9037SOL     OW29552   1.517   8.740   7.553 -0.1461  0.1918 -0.1081
 9037SOL    HW129553   1.593   8.782   7.514 -0.8006  1.0439 -0.5003
 9037SOL    HW229554   1.492   8.799   7.625 -0.8848  0.3284 -0.4644
 9038SOL     OW29555   6.565   6.973   2.784 -0.1589  0.1577  0.5673
 9038SOL    HW129556   6.572   7.066   2.766  1.0113 -0.1591 -0.7357
 9038SOL    HW229557   6.655   6.943   2.797 -0.5299 -0.7608  1.1606
 9039SOL     OW29558   2.995   8.773   3.162 -0.5868  0.0881 -0.0067
 9039SOL    HW129559   2.984   8.867   3.179 -0.0823  0.4397 -1.5152
 9039SOL    HW229560   2.937   8.756   3.087  0.8912 -0.3410 -1.0837
 9040SOL     OW29561   6.633   1.022   0.702 -0.3593 -0.2052 -0.0682
 9040SOL    HW129562   6.690   1.002   0.628 -0.8562  1.0599 -0.8194
 9040SOL    HW229563   6.692   1.024   0.778  0.1186 -1.7389 -0.3617
 9041SOL     OW29564   1.629   1.435   7.034 -0.2177  0.2882  0.1051
 9041SOL    HW129565   1.603   1.493   7.105 -0.8244  3.5859 -2.5454
 9041SOL    HW229566   1.715   1.468   7.007  0.4637 -1.5416 -0.0862
 9042SOL     OW29567   3.708   9.695   0.566 -0.1798  0.0315  0.2592
 9042SOL    HW129568   3.664   9.629   0.512  1.4125  0.2259 -1.3997
 9042SOL    HW229569   3.662   9.776   0.547  0.5097  0.1422 -1.0630
 9043SOL     OW29570   4.884   1.095   5.612  0.4512  0.4651  0.1256
 9043SOL    HW129571   4.806   1.095   5.667 -1.4946  1.2496 -2.4348
 9043SOL    HW229572   4.925   1.010   5.628 -2.0113 -0.8064  0.1723
 9044SOL     OW29573   9.789  10.057   1.794  0.8341  0.3803 -0.2968
 9044SOL    HW129574   9.731  10.024   1.862 -0.0818  0.6464 -0.9257
 9044SOL    HW229575   9.874  10.068   1.837  0.0968  1.2621  0.9932
 9045SOL     OW29576   0.618   0.625   6.448  0.2111 -0.2423 -0.2050
 9045SOL    HW129577   0.606   0.688   6.377 -1.2615 -0.8653 -0.5473
 9045SOL    HW229578   0.529   0.604   6.477  0.7451 -0.8280  1.0936
 9046SOL     OW29579   8.222   0.867   2.624  0.7109  0.3566 -0.0341
 9046SOL    HW129580   8.210   0.961   2.609  1.3635  0.5054  0.3227
 9046SOL    HW229581   8.208   0.826   2.539 -0.1298  0.7147 -0.0819
 9047SOL     OW29582   8.409   8.694   7.784 -0.2080 -0.2787  0.1383
 9047SOL    HW129583   8.461   8.748   7.844  1.2510 -2.8418  1.3559
 9047SOL    HW229584   8.422   8.734   7.698 -0.3518  2.0632  1.1422
 9048SOL     OW29585   5.262   5.352   0.689 -0.6405  0.1932  0.4725
 9048SOL    HW129586   5.251   5.445   0.673  3.0472  0.6333 -0.5769
 9048SOL    HW229587   5.313   5.320   0.614 -0.9625 -2.4654  1.2561
 9049SOL     OW29588   7.091  10.031   1.617 -1.0079 -0.2487 -0.3528
 9049SOL    HW129589   7.007  10.039   1.663  0.1641  2.4577  1.6183
 9049SOL    HW229590   7.102  10.115   1.573  1.2441 -0.0019  0.5676
 9050SOL     OW29591   9.341   7.976   5.905  0.6100 -0.4059  0.0826
 9050SOL    HW129592   9.362   8.026   5.826 -0.2191  0.0598  0.1476
 9050SOL    HW229593   9.307   7.892   5.872 -1.3347  0.4185 -0.1133
 9051SOL     OW29594   1.485   1.193   0.822 -0.1021  0.3761 -0.1397
 9051SOL    HW129595   1.483   1.237   0.737 -3.9411  0.6439 -0.0852
 9051SOL    HW229596   1.482   1.100   0.801 -0.1585  0.4182 -0.3182
 9052SOL     OW29597   1.316   1.896   1.005  0.0718  0.3380  0.1870
 9052SOL    HW129598   1.328   1.945   0.923  0.8130  0.7919  0.5644
 9052SOL    HW229599   1.365   1.945   1.070 -2.7355  1.5554  1.5389
 9053SOL     OW29600   7.021   8.228   4.191 -0.1029  0.3664 -0.4672
 9053SOL    HW129601   7.104   8.221   4.239  1.1415 -1.5040 -2.6601
 9053SOL    HW229602   6.980   8.142   4.203 -1.1309  0.8417 -0.4691
 9054SOL     OW29603   4.390   9.414   9.609 -0.3788 -0.1087  0.2073
 9054SOL    HW129604   4.361   9.454   9.527  0.3058 -1.0500 -0.5116
 9054SOL    HW229605   4.320   9.351   9.631  0.4252 -1.3924 -0.8023
 9055SOL     OW29606   5.163   7.603   1.711 -0.1378 -0.0163  0.3313
 9055SOL    HW129607   5.075   7.619   1.745 -0.8433 -3.2514  0.4235
 9055SOL    HW229608   5.162   7.641   1.623 -1.0040  1.4863  0.9557
 9056SOL     OW29609   6.532   8.742   7.114 -0.0075  0.6009 -0.4900
 9056SOL    HW129610   6.603   8.689   7.077  0.3291  1.5442 -1.2473
 9056SOL    HW229611   6.453   8.689   7.099  0.6160 -0.9689  1.3672
 9057SOL     OW29612   0.977   6.277  10.113 -0.0749  0.1503  0.7058
 9057SOL    HW129613   0.975   6.340  10.042 -1.2620  0.1080  0.6823
 9057SOL    HW229614   0.947   6.325  10.190  0.8290  0.0965  1.1031
 9058SOL     OW29615   3.817   3.904   1.541  0.6334  0.3792 -0.1050
 9058SOL    HW129616   3.913   3.912   1.547  0.5578  1.2430  0.0737
 9058SOL    HW229617   3.801   3.887   1.448  0.9830 -0.0785 -0.0839
 9059SOL     OW29618   2.771   6.192  10.120  0.2884 -0.1457 -0.0495
 9059SOL    HW129619   2.704   6.142  10.167 -0.0883 -0.6699 -1.0973
 9059SOL    HW229620   2.833   6.125  10.090  0.5581  0.1809 -0.2224
 9060SOL     OW29621   3.184   4.461   9.657  0.0153  0.1387  0.1695
 9060SOL    HW129622   3.170   4.504   9.573 -0.3897 -0.5109 -0.1030
 9060SOL    HW229623   3.278   4.446   9.662  0.0359  0.1429 -0.1928
 9061SOL     OW29624   8.162   2.130  10.326 -0.6356 -0.3043  0.7566
 9061SOL    HW129625   8.239   2.182  10.303 -2.5868  2.0089 -0.9512
 9061SOL    HW229626   8.198   2.056  10.376  2.6177  0.8607  0.3901
 9062SOL     OW29627   3.065   6.728   6.979 -0.3680 -0.5417 -0.2086
 9062SOL    HW129628   3.007   6.696   6.909  0.8127  0.4385 -1.7042
 9062SOL    HW229629   3.149   6.744   6.936  0.6203 -0.5561  1.6061
 9063SOL     OW29630   8.895   3.583   1.212 -0.0057  0.0734  0.0245
 9063SOL    HW129631   8.850   3.661   1.244 -0.6506 -0.1084 -0.4229
 9063SOL    HW229632   8.825   3.520   1.193  0.5615 -1.1570  1.7364
 9064SOL     OW29633   0.042   8.945   6.236 -0.5350 -0.3957 -0.0261
 9064SOL    HW129634   0.093   8.885   6.181  0.0656 -1.2899  1.4427
 9064SOL    HW229635   0.077   9.032   6.216  0.4719 -0.8343 -0.2241
 9065SOL     OW29636   2.729   1.566   2.868  0.4043  0.1907  0.2095
 9065SOL    HW129637   2.818   1.565   2.831  0.6651  1.5470  0.7353
 9065SOL    HW229638   2.733   1.633   2.937 -1.0042  0.1882  0.3097
 9066SOL     OW29639   0.602   5.536   7.824 -0.7473 -0.0269 -0.0414
 9066SOL    HW129640   0.625   5.450   7.859 -1.0662  0.0486  0.3618
 9066SOL    HW229641   0.516   5.522   7.783 -0.4945 -0.0547 -0.5749
 9067SOL     OW29642   4.078   2.910  10.417  0.0664  0.9974  0.0057
 9067SOL    HW129643   4.004   2.888  10.474 -1.0871 -0.3262 -1.8677
 9067SOL    HW229644   4.051   2.992  10.375 -0.6662  0.2338 -1.0900
 9068SOL     OW29645   2.152   2.311   8.371  0.7969 -0.4087 -0.0650
 9068SOL    HW129646   2.115   2.286   8.286  0.4808 -0.3233  0.0454
 9068SOL    HW229647   2.219   2.376   8.350 -0.6089  1.0856 -0.1231
 9069SOL     OW29648   3.822   5.999   3.399 -0.3568 -0.0913  0.5164
 9069SOL    HW129649   3.818   6.039   3.312  0.0457 -0.0180  0.5307
 9069SOL    HW229650   3.914   6.003   3.423 -0.2481 -1.3524  0.3763
 9070SOL     OW29651   9.346   4.830   7.827 -0.0604 -0.1120 -0.3651
 9070SOL    HW129652   9.419   4.809   7.886 -0.8067 -0.6555  0.3871
 9070SOL    HW229653   9.317   4.917   7.855 -1.0552 -0.7818  0.7651
 9071SOL     OW29654   5.063   6.196   3.753 -0.1157 -0.3358 -0.7720
 9071SOL    HW129655   5.098   6.136   3.819  0.8801  0.8128 -0.2198
 9071SOL    HW229656   4.993   6.242   3.797 -1.0834 -1.2714 -1.2895
 9072SOL     OW29657   6.791   1.779   0.425  1.6148  0.1060 -0.2352
 9072SOL    HW129658   6.807   1.689   0.453 -0.2179 -0.1647  0.0435
 9072SOL    HW229659   6.728   1.813   0.489 -0.8381  0.2506 -2.5489
 9073SOL     OW29660   2.314   9.004   6.732  0.0080  0.4509 -0.3985
 9073SOL    HW129661   2.315   9.028   6.825 -1.2617  0.6159 -0.4158
 9073SOL    HW229662   2.401   9.030   6.700  0.6437 -0.0664  0.8411
 9074SOL     OW29663   6.428   2.741   5.688 -0.2515  0.1697  0.8440
 9074SOL    HW129664   6.359   2.678   5.666 -0.0172  0.1590  0.1242
 9074SOL    HW229665   6.502   2.716   5.633 -0.1543  1.0843  0.5419
 9075SOL     OW29666   8.723   8.483   7.811 -0.0343  0.0347 -0.3136
 9075SOL    HW129667   8.810   8.448   7.830 -0.7964 -1.7451  0.1015
 9075SOL    HW229668   8.708   8.549   7.880  0.7518 -0.0494 -0.0515
 9076SOL     OW29669  10.275   3.113   5.314 -0.8943  0.1757  0.0097
 9076SOL    HW129670  10.255   3.038   5.369 -2.6005  1.1547  0.7917
 9076SOL    HW229671  10.258   3.083   5.224 -3.1456  0.0579  0.4207
 9077SOL     OW29672   3.630   7.102   1.457 -0.0932  1.2679  0.6723
 9077SOL    HW129673   3.658   7.019   1.418 -0.1764  2.1568 -1.3909
 9077SOL    HW229674   3.697   7.121   1.523  2.5721  1.7573 -1.9410
 9078SOL     OW29675   6.798   2.753   9.624 -0.0401  0.4205  0.1555
 9078SOL    HW129676   6.783   2.678   9.566 -0.4839 -0.4846  1.3864
 9078SOL    HW229677   6.824   2.824   9.565 -0.4736 -0.4488 -1.1416
 9079SOL     OW29678   5.636   8.291   2.610  0.0511 -0.3219 -0.0220
 9079SOL    HW129679   5.729   8.309   2.594  0.5245 -1.6950  0.9894
 9079SOL    HW229680   5.609   8.357   2.674  0.6610 -0.6562  0.5917
 9080SOL     OW29681   6.110   6.563   6.757  0.4911  0.0196 -0.3731
 9080SOL    HW129682   6.043   6.512   6.711  1.9149 -1.9257 -0.4195
 9080SOL    HW229683   6.181   6.574   6.693 -0.3052  3.4681 -0.8793
 9081SOL     OW29684   3.604   3.619   7.702 -0.4755 -0.3273  0.2322
 9081SOL    HW129685   3.539   3.667   7.650  1.1233  0.7709 -0.8214
 9081SOL    HW229686   3.554   3.546   7.739 -2.6029  1.1383  0.4913
 9082SOL     OW29687   1.535   3.636   6.741 -0.7270 -0.7138  0.5353
 9082SOL    HW129688   1.483   3.560   6.715 -1.3547  0.3153 -1.3850
 9082SOL    HW229689   1.481   3.682   6.805 -0.6143 -1.5378  1.2329
 9083SOL     OW29690   8.653   5.360  10.141  0.6288  0.1793  0.2240
 9083SOL    HW129691   8.621   5.432  10.195  0.4269 -0.3378  0.8114
 9083SOL    HW229692   8.741   5.387  10.114  0.1122  1.1473 -0.5274
 9084SOL     OW29693   5.057   3.877   0.154 -0.3475 -0.5902 -0.2959
 9084SOL    HW129694   5.063   3.963   0.113 -1.6952 -0.5486 -0.4349
 9084SOL    HW229695   4.988   3.832   0.106  1.1003 -2.1956 -0.9878
 9085SOL     OW29696   4.220   7.787   5.159  0.0073 -0.0097 -0.7347
 9085SOL    HW129697   4.180   7.849   5.219  0.8672  0.2383 -0.3961
 9085SOL    HW229698   4.312   7.814   5.155  0.4662 -1.4269 -0.3683
 9086SOL     OW29699   4.555   6.710   7.206 -0.1681  0.1692 -0.1505
 9086SOL    HW129700   4.490   6.731   7.273 -1.2693  0.3034 -1.2145
 9086SOL    HW229701   4.528   6.625   7.172  1.1401 -0.5071  0.4517
 9087SOL     OW29702   4.349   4.805   2.271  0.1805  0.5367  0.0783
 9087SOL    HW129703   4.256   4.799   2.293  0.4802 -0.4144  1.1715
 9087SOL    HW229704   4.381   4.876   2.326  0.3552  0.0035  0.6771
 9088SOL     OW29705   5.034   7.253   5.235 -0.2602 -0.4307 -0.2404
 9088SOL    HW129706   4.958   7.271   5.181  1.9829  1.9093 -2.9904
 9088SOL    HW229707   4.999   7.238   5.323 -3.7919  0.7779 -1.2878
 9089SOL     OW29708   7.625   9.593   3.846 -0.4130  0.3694 -1.0710
 9089SOL    HW129709   7.556   9.568   3.784 -0.1467  0.7680 -1.5383
 9089SOL    HW229710   7.690   9.523   3.840 -0.8674 -0.1113 -0.4772
 9090SOL     OW29711   2.853   2.573   5.731 -0.0157 -0.2012 -0.1425
 9090SOL    HW129712   2.837   2.655   5.777 -2.3491 -0.7718  0.2025
 9090SOL    HW229713   2.877   2.600   5.642 -0.3879  0.8596  0.0648
 9091SOL     OW29714   0.642   0.564   6.767  0.3577  0.0087  0.0904
 9091SOL    HW129715   0.705   0.560   6.695  0.0179 -0.4087 -0.1875
 9091SOL    HW229716   0.655   0.651   6.805 -0.6668  0.9462 -1.5868
 9092SOL     OW29717   4.013   3.717   1.871  0.5803  0.0504  0.0750
 9092SOL    HW129718   3.917   3.723   1.877  0.7010  1.6439  1.2070
 9092SOL    HW229719   4.029   3.637   1.821 -1.3194 -0.6838  0.5380
 9093SOL     OW29720   1.443   6.675   0.443 -0.0182  0.2381  0.5835
 9093SOL    HW129721   1.442   6.580   0.460 -1.1613  0.3217  1.1206
 9093SOL    HW229722   1.428   6.715   0.528  1.5353  0.9732  0.5495
 9094SOL     OW29723   9.275   8.832   7.491 -0.0319 -0.3877  0.0330
 9094SOL    HW129724   9.212   8.760   7.498 -0.1696 -0.2779 -0.0753
 9094SOL    HW229725   9.332   8.821   7.568 -0.2305 -0.4416  0.1728
 9095SOL     OW29726   2.961   1.898   4.602  0.1609 -0.0437  0.1295
 9095SOL    HW129727   3.056   1.898   4.590  0.0852 -1.8562 -0.9519
 9095SOL    HW229728   2.934   1.988   4.587  1.5740  0.2263 -1.0055
 9096SOL     OW29729   5.073   7.602   9.733  0.1561 -0.3984  0.2731
 9096SOL    HW129730   5.137   7.588   9.802  1.0710 -2.6870 -0.9089
 9096SOL    HW229731   5.093   7.534   9.668 -2.1644  0.1263 -1.1124
 9097SOL     OW29732   5.310   3.109   4.278  0.3923 -0.2843  0.0593
 9097SOL    HW129733   5.380   3.173   4.288 -0.8258  0.8999  1.5052
 9097SOL    HW229734   5.343   3.030   4.321  0.1361  0.8853  2.5805
 9098SOL     OW29735   8.681   3.691   6.145 -0.9474 -0.3845  0.3485
 9098SOL    HW129736   8.654   3.756   6.211 -2.6687 -1.0765  0.3623
 9098SOL    HW229737   8.600   3.649   6.118 -0.2836 -0.2153 -2.1630
 9099SOL     OW29738   9.861  10.140   0.914  0.2953  0.6041  0.3156
 9099SOL    HW129739   9.912  10.122   0.835  0.7498 -1.9300  1.0842
 9099SOL    HW229740   9.901  10.085   0.981 -1.6436  0.7614  1.6907
 9100SOL     OW29741   9.127   1.698   3.608  0.1088 -0.0072  0.6367
 9100SOL    HW129742   9.163   1.727   3.692 -0.2699  3.7294 -0.2757
 9100SOL    HW229743   9.032   1.714   3.616  0.2168  1.8250 -0.8424
 9101SOL     OW29744   8.924   2.966   5.518 -0.8312  0.6046  0.3559
 9101SOL    HW129745   8.852   2.957   5.579 -2.1454  1.4115 -1.0058
 9101SOL    HW229746   8.977   3.037   5.554 -0.7490  0.0700  1.3185
 9102SOL     OW29747   3.959   5.392   7.687 -0.1314 -0.0763 -0.7961
 9102SOL    HW129748   3.892   5.407   7.753  1.2866 -1.5244  1.0984
 9102SOL    HW229749   3.930   5.442   7.611 -2.4753  0.6602  0.4894
 9103SOL     OW29750   7.920   4.005   4.175  0.7570  0.1579  0.4944
 9103SOL    HW129751   7.899   4.064   4.247  1.9320  1.7375 -0.4144
 9103SOL    HW229752   7.837   3.994   4.128  0.3504  0.4190  1.1314
 9104SOL     OW29753   4.022   8.787   7.176  0.1336  1.3603 -0.0610
 9104SOL    HW129754   4.032   8.714   7.115  1.0125  0.2129  1.3693
 9104SOL    HW229755   3.958   8.845   7.135 -1.2198 -0.6146 -0.8770
 9105SOL     OW29756   0.836   1.465   5.324 -0.5513 -0.1309  0.0922
 9105SOL    HW129757   0.843   1.533   5.257 -0.2365  0.3796  0.6362
 9105SOL    HW229758   0.744   1.466   5.350 -0.2023  1.3374  1.3755
 9106SOL     OW29759   2.036   3.600   0.288  0.0700 -0.1890 -0.0033
 9106SOL    HW129760   1.969   3.612   0.221  0.2435  1.2018  0.0409
 9106SOL    HW229761   2.101   3.667   0.270  1.3954 -1.4122  0.0622
 9107SOL     OW29762   1.217   5.967   1.358  0.0028  0.3556  0.0316
 9107SOL    HW129763   1.257   5.981   1.444  0.5933 -1.0039  0.0076
 9107SOL    HW229764   1.244   5.878   1.334 -0.5972  0.5251 -1.3242
 9108SOL     OW29765   2.596  10.209   5.013 -0.2224 -0.0573  0.1327
 9108SOL    HW129766   2.648  10.277   4.969  0.1657 -0.2516  0.2860
 9108SOL    HW229767   2.597  10.234   5.105  1.4149 -1.2018  0.4729
 9109SOL     OW29768   3.016   4.715   3.026  0.4770  0.1810  0.5110
 9109SOL    HW129769   2.996   4.638   2.974  1.2306  0.0048  0.4811
 9109SOL    HW229770   2.931   4.743   3.060  0.3861 -1.7731  2.0893
 9110SOL     OW29771   1.361   3.645   1.041 -0.0959  0.6261 -0.6212
 9110SOL    HW129772   1.348   3.740   1.034  0.5559  0.6448 -1.7652
 9110SOL    HW229773   1.452   3.631   1.015  0.4948 -0.1081  1.6891
 9111SOL     OW29774   7.267   7.259   8.747  0.1653 -0.4078 -0.2829
 9111SOL    HW129775   7.239   7.244   8.657  0.6583 -0.2448 -0.4683
 9111SOL    HW229776   7.362   7.257   8.743  0.1990  0.1959  0.1297
 9112SOL     OW29777   7.539   8.890   7.568  0.1859  0.0350 -0.1853
 9112SOL    HW129778   7.560   8.983   7.557  3.2568  0.0550  3.7490
 9112SOL    HW229779   7.604   8.844   7.515  1.8178  0.2069  1.5740
 9113SOL     OW29780   2.885   2.659   6.553 -0.8821  0.3490  0.5505
 9113SOL    HW129781   2.903   2.609   6.473  0.3503  0.0097  1.0174
 9113SOL    HW229782   2.814   2.718   6.529 -1.4368 -0.6813 -0.4057
 9114SOL     OW29783   3.237  10.363   5.742  0.1433 -0.0723 -0.6860
 9114SOL    HW129784   3.203  10.436   5.691  0.0181 -1.3649 -2.5686
 9114SOL    HW229785   3.184  10.363   5.822  0.3708  2.0439 -0.4915
 9115SOL     OW29786   4.915   6.690   4.469 -0.1388 -0.2005 -0.1679
 9115SOL    HW129787   4.841   6.711   4.413 -0.1012  2.3811  0.6136
 9115SOL    HW229788   4.876   6.645   4.545 -0.7791  0.3133 -0.1889
 9116SOL     OW29789   7.715   2.950   3.810  0.2927 -0.2108  0.2578
 9116SOL    HW129790   7.743   2.968   3.900  2.3823  0.2369 -0.4317
 9116SOL    HW229791   7.787   2.902   3.771 -0.9068 -1.0780 -0.9989
 9117SOL     OW29792   0.973   6.538   0.457  0.1492 -0.4853  0.4200
 9117SOL    HW129793   0.911   6.607   0.479  2.4420  1.9963 -0.3358
 9117SOL    HW229794   0.937   6.497   0.378 -1.8791 -1.0842  1.5972
 9118SOL     OW29795   2.651   7.214   8.677 -0.2995  0.3588 -0.1500
 9118SOL    HW129796   2.701   7.235   8.598 -0.1324 -0.5270 -0.2871
 9118SOL    HW229797   2.570   7.175   8.645 -0.2200 -0.0312  0.1166
 9119SOL     OW29798   1.104   1.858   6.067 -0.2271 -0.0563 -0.0434
 9119SOL    HW129799   1.027   1.831   6.017 -0.5056  0.8393 -0.1116
 9119SOL    HW229800   1.110   1.953   6.054  0.1233  0.0837  1.0232
 9120SOL     OW29801   8.522   1.705   1.879  0.2066  0.4079  0.1845
 9120SOL    HW129802   8.539   1.778   1.819  1.9723  1.1456  1.4848
 9120SOL    HW229803   8.488   1.636   1.824  0.5285  1.5042 -1.4555
 9121SOL     OW29804   5.105   0.603   2.886 -0.1975 -0.4417  0.1518
 9121SOL    HW129805   5.040   0.565   2.828  0.9867 -1.1108 -0.7878
 9121SOL    HW229806   5.173   0.535   2.894  1.2669  0.8888 -0.4019
 9122SOL     OW29807   8.999   5.296  10.371  0.2455 -0.3589 -0.6950
 9122SOL    HW129808   9.064   5.269  10.435 -0.4418  0.7699  0.5193
 9122SOL    HW229809   9.044   5.288  10.287  2.6555  2.1515  0.1984
 9123SOL     OW29810   8.463   9.344   2.715 -0.1838  0.3477  0.1625
 9123SOL    HW129811   8.545   9.318   2.673 -0.0251 -0.4501  0.9296
 9123SOL    HW229812   8.400   9.349   2.644  0.3070  0.0276 -0.3052
 9124SOL     OW29813   3.964   9.553   6.358  0.4948 -0.3786  0.1222
 9124SOL    HW129814   4.047   9.540   6.405  1.2450 -0.8347 -1.2803
 9124SOL    HW229815   3.916   9.471   6.372  1.4473 -1.2270 -1.2739
 9125SOL     OW29816   9.004   3.218   9.861 -0.5849 -0.2671  0.0534
 9125SOL    HW129817   8.968   3.287   9.916 -1.5578 -0.0973 -0.7614
 9125SOL    HW229818   8.962   3.230   9.776  0.5441 -0.7933 -0.6103
 9126SOL     OW29819   0.199   1.586   0.900  0.0107 -0.2290 -0.4244
 9126SOL    HW129820   0.293   1.590   0.916 -0.1882  0.8652  0.7262
 9126SOL    HW229821   0.171   1.678   0.902 -1.3265 -0.6270  1.0555
 9127SOL     OW29822  10.331   3.688   5.696 -0.2057  0.4305 -0.6316
 9127SOL    HW129823  10.317   3.655   5.607  0.0919  0.9434 -0.8737
 9127SOL    HW229824  10.243   3.706   5.730 -0.5248 -2.2300  0.1537
 9128SOL     OW29825   2.591   5.854   5.445 -0.2771  0.1008  0.4336
 9128SOL    HW129826   2.685   5.867   5.457  0.4512 -1.8048 -2.3225
 9128SOL    HW229827   2.566   5.918   5.378 -0.6266 -0.3859  0.0982
 9129SOL     OW29828   6.193   2.534   6.007  0.3415  0.0965 -0.0257
 9129SOL    HW129829   6.180   2.589   5.930  1.5596 -0.4021 -0.6219
 9129SOL    HW229830   6.131   2.463   5.997 -0.3898  0.7034  0.1213
 9130SOL     OW29831   0.717   4.522   2.107 -0.2536 -0.0409 -0.3104
 9130SOL    HW129832   0.736   4.481   2.192 -1.1158  0.4960  0.1500
 9130SOL    HW229833   0.717   4.449   2.045 -2.1169 -0.8322  0.5529
 9131SOL     OW29834   5.215   3.109   7.598  0.3522  0.2060  0.1223
 9131SOL    HW129835   5.173   3.035   7.642  0.5883 -0.2482 -0.3983
 9131SOL    HW229836   5.309   3.094   7.611  0.4309 -0.0154 -0.6478
 9132SOL     OW29837   0.404   6.528   9.973 -0.1341  0.2905 -0.6367
 9132SOL    HW129838   0.429   6.436   9.976 -0.7214  0.1444  0.6269
 9132SOL    HW229839   0.445   6.566  10.051 -2.6946  0.3144  0.8062
 9133SOL     OW29840   4.290   1.387   8.425  0.0810  0.2036  0.2292
 9133SOL    HW129841   4.241   1.466   8.403  1.0453  0.8057  0.2256
 9133SOL    HW229842   4.321   1.354   8.340 -1.8949 -1.2669 -0.0037
 9134SOL     OW29843   0.192   5.309  10.175 -0.1429  0.3065 -0.2176
 9134SOL    HW129844   0.143   5.351  10.104 -1.4421  2.5483  1.8529
 9134SOL    HW229845   0.234   5.381  10.222 -0.3908 -0.8973  2.0348
 9135SOL     OW29846   9.375   2.244   2.575 -0.6243  0.0277  0.5040
 9135SOL    HW129847   9.437   2.180   2.540 -1.9929 -0.5048 -1.0785
 9135SOL    HW229848   9.352   2.210   2.662  2.7220  1.2951  2.0433
 9136SOL     OW29849   4.450   8.416   3.087 -0.2979  0.5386  0.4455
 9136SOL    HW129850   4.370   8.439   3.040 -2.4448 -2.4521  2.3083
 9136SOL    HW229851   4.504   8.372   3.021 -1.0288  0.8730 -0.4003
 9137SOL     OW29852   3.222   1.998   9.633  0.4238 -0.3375 -0.2608
 9137SOL    HW129853   3.274   2.061   9.582 -1.0361  1.5875  0.5044
 9137SOL    HW229854   3.131   2.018   9.611 -0.1628 -0.7833  1.5711
 9138SOL     OW29855   7.437   1.406   0.335  0.1343 -0.3937 -0.4845
 9138SOL    HW129856   7.398   1.334   0.386  0.3368 -0.4036 -0.3440
 9138SOL    HW229857   7.515   1.368   0.295  0.4842 -0.1359 -0.0580
 9139SOL     OW29858   2.254   2.447   4.929 -0.7848  0.0452 -0.0143
 9139SOL    HW129859   2.211   2.373   4.887  0.0971 -1.3607  1.4008
 9139SOL    HW229860   2.223   2.445   5.020 -1.3891  1.9611 -0.1380
 9140SOL     OW29861   8.949   4.245   0.251  0.0145 -0.2528  0.1087
 9140SOL    HW129862   8.857   4.238   0.225 -0.9378  0.1062  3.0175
 9140SOL    HW229863   8.997   4.194   0.186 -2.4377 -1.8929 -0.5126
 9141SOL     OW29864   0.034   3.872   9.365  0.3718 -0.7191 -0.4745
 9141SOL    HW129865   0.065   3.839   9.450 -0.5689  1.1818  0.6709
 9141SOL    HW229866  -0.059   3.889   9.379  0.5645  1.2877 -1.3362
 9142SOL     OW29867   5.842   1.958   6.565 -0.2130 -0.2173  0.5558
 9142SOL    HW129868   5.892   2.039   6.572  1.3375 -1.1214  0.2812
 9142SOL    HW229869   5.833   1.927   6.655 -1.0922  0.4071  0.6934
 9143SOL     OW29870   3.270   8.582   3.740 -0.6401 -0.0924 -0.5316
 9143SOL    HW129871   3.190   8.590   3.689 -0.2984 -2.2421 -1.4972
 9143SOL    HW229872   3.314   8.505   3.705  1.5248  0.6059  0.4423
 9144SOL     OW29873   1.133   9.317   9.341 -0.1611  0.2067 -0.1618
 9144SOL    HW129874   1.091   9.392   9.299  1.4388  0.2117 -1.8816
 9144SOL    HW229875   1.209   9.355   9.386 -1.4625  0.1054  2.3300
 9145SOL     OW29876   6.478   7.310   3.287 -0.2746  0.0829 -0.0603
 9145SOL    HW129877   6.515   7.384   3.240 -3.2552  1.4123 -0.5706
 9145SOL    HW229878   6.494   7.329   3.379  2.0822 -0.5134 -0.2958
 9146SOL     OW29879   4.801   6.196  10.329 -0.2854 -0.8302 -0.5230
 9146SOL    HW129880   4.873   6.259  10.333  0.6690 -1.8831  3.0403
 9146SOL    HW229881   4.840   6.117  10.292 -0.2967 -0.6679 -0.8873
 9147SOL     OW29882   7.820   3.312   5.834 -0.2120  0.1681 -0.8377
 9147SOL    HW129883   7.849   3.403   5.820  1.5821 -0.2241 -0.0275
 9147SOL    HW229884   7.736   3.321   5.879 -0.7633  1.4035 -2.0205
 9148SOL     OW29885   4.916   9.504   1.316  0.0225  0.1085 -0.2093
 9148SOL    HW129886   4.842   9.474   1.369 -1.9901  2.6299 -1.3810
 9148SOL    HW229887   4.929   9.595   1.343  2.6709 -0.2160 -0.1456
 9149SOL     OW29888   0.987   8.839   2.232  0.2118  0.7040 -0.2481
 9149SOL    HW129889   0.892   8.826   2.237  0.5305 -1.3816  2.1152
 9149SOL    HW229890   1.005   8.842   2.138 -1.9310 -1.6668 -0.8563
 9150SOL     OW29891   3.602   8.646   6.232  0.1293  0.1081  0.2263
 9150SOL    HW129892   3.654   8.605   6.302  0.1073 -0.3896 -0.0437
 9150SOL    HW229893   3.658   8.715   6.197  1.2716 -1.4258 -1.1232
 9151SOL     OW29894   3.715   9.794   6.904  0.0116  0.3642 -0.1306
 9151SOL    HW129895   3.780   9.766   6.839 -1.0704 -1.1099 -0.6310
 9151SOL    HW229896   3.754   9.770   6.988  0.6108  0.5691 -0.3440
 9152SOL     OW29897   8.717   3.280  10.423  0.0643  0.4415  0.9151
 9152SOL    HW129898   8.694   3.334  10.347  0.6789  0.0491  0.4525
 9152SOL    HW229899   8.633   3.245  10.453 -0.2903  1.2907  0.9458
 9153SOL     OW29900   0.281   9.037  10.317 -0.5359 -0.2549  0.2247
 9153SOL    HW129901   0.322   8.951  10.327 -0.1360 -0.3610 -1.9672
 9153SOL    HW229902   0.351   9.099  10.334 -0.1547 -0.4095 -0.7220
 9154SOL     OW29903   2.724   0.389   6.838 -0.1724  0.0870 -0.2020
 9154SOL    HW129904   2.819   0.381   6.828 -0.1425 -1.0722  0.7853
 9154SOL    HW229905   2.712   0.435   6.921 -0.4740 -1.1671  0.4655
 9155SOL     OW29906   3.700   4.211   2.058  0.0094  0.3426  0.1242
 9155SOL    HW129907   3.715   4.204   1.964  0.0696 -2.6902  0.2797
 9155SOL    HW229908   3.788   4.212   2.096  0.1563  4.5719  0.1712
 9156SOL     OW29909   2.525   8.034   0.799 -0.0028  0.2444 -0.0825
 9156SOL    HW129910   2.581   8.072   0.732 -0.1972 -0.6303 -0.7628
 9156SOL    HW229911   2.447   8.090   0.800 -0.1570  0.0491 -0.8542
 9157SOL     OW29912   3.103   4.965   3.628 -0.3050 -0.0905 -0.5325
 9157SOL    HW129913   3.124   4.926   3.712  0.4157  1.0867 -0.1413
 9157SOL    HW229914   3.140   4.904   3.563 -0.3679 -0.7117  0.0092
 9158SOL     OW29915   7.775   2.536   2.472 -0.5046 -0.6406  0.0245
 9158SOL    HW129916   7.825   2.587   2.408 -0.2632 -1.8961 -0.8288
 9158SOL    HW229917   7.720   2.601   2.516  1.3660  0.6759  0.5250
 9159SOL     OW29918   1.337   3.720   3.390 -0.1311 -0.3488  0.4665
 9159SOL    HW129919   1.267   3.729   3.455  0.0563  0.4256  0.5708
 9159SOL    HW229920   1.392   3.797   3.403 -0.2039 -0.0748 -0.7471
 9160SOL     OW29921   4.996   9.698   3.780 -0.0330 -0.1652 -0.0719
 9160SOL    HW129922   5.048   9.651   3.845 -0.7110 -1.0735 -0.1567
 9160SOL    HW229923   4.965   9.776   3.826  1.5599  0.5089 -0.0959
 9161SOL     OW29924   2.938   5.898   1.700  0.1483  0.1752  0.5409
 9161SOL    HW129925   2.924   5.972   1.759  0.2818  0.1255  0.6356
 9161SOL    HW229926   3.033   5.884   1.701  0.0658 -0.3768  0.9801
 9162SOL     OW29927   6.712   7.674   3.054 -0.4319 -0.4617 -0.1653
 9162SOL    HW129928   6.798   7.635   3.041 -0.1026  0.1983 -0.0047
 9162SOL    HW229929   6.682   7.639   3.138  0.7523  1.1854  1.0104
 9163SOL     OW29930   1.341   2.061   6.908 -0.1132  0.4930 -0.2509
 9163SOL    HW129931   1.303   1.985   6.953 -0.8345 -0.3287 -2.1369
 9163SOL    HW229932   1.311   2.052   6.817  0.5164  2.5787 -0.7093
 9164SOL     OW29933   7.286   3.378   7.038 -0.3386 -0.1227  0.0171
 9164SOL    HW129934   7.267   3.323   7.114 -1.4256  0.2943  0.0600
 9164SOL    HW229935   7.282   3.468   7.072 -0.3925  0.0484 -0.4343
 9165SOL     OW29936   9.049   9.894   2.120 -0.3985 -0.2089  0.4041
 9165SOL    HW129937   8.998   9.920   2.043  1.3019 -0.7493 -0.9703
 9165SOL    HW229938   8.988   9.902   2.193 -2.1461  0.1045 -1.0225
 9166SOL     OW29939   9.578   9.163   0.104  0.0057 -0.1544  0.5009
 9166SOL    HW129940   9.545   9.074   0.113  0.6349 -0.5194 -0.6945
 9166SOL    HW229941   9.580   9.180   0.010  0.7332  0.8043  0.6637
 9167SOL     OW29942   4.505   4.181   6.806 -0.7751 -0.5333 -0.0694
 9167SOL    HW129943   4.420   4.150   6.776 -0.8218 -1.0452  0.5720
 9167SOL    HW229944   4.534   4.114   6.868  1.4121 -1.9020 -2.3858
 9168SOL     OW29945   4.560   3.376   3.545  0.0494 -0.4692 -0.3236
 9168SOL    HW129946   4.626   3.331   3.493 -0.5158 -1.7028 -0.0110
 9168SOL    HW229947   4.609   3.442   3.594  0.6882  0.2056 -1.8152
 9169SOL     OW29948   3.050   6.772   0.665  0.1115  0.0747  0.1245
 9169SOL    HW129949   3.093   6.719   0.597  0.6133 -1.1135  1.3203
 9169SOL    HW229950   3.002   6.839   0.616  0.2371 -0.8976 -1.4133
 9170SOL     OW29951   9.996   0.990   1.504 -0.6151 -0.3381  0.1237
 9170SOL    HW129952   9.904   0.969   1.486  0.2423 -1.8661 -3.5949
 9170SOL    HW229953  10.026   1.033   1.424  1.3314  2.7725  2.3011
 9171SOL     OW29954   4.281   9.131   4.047 -0.2001  0.4375  0.2440
 9171SOL    HW129955   4.339   9.100   3.977 -0.4405  1.1158 -0.2751
 9171SOL    HW229956   4.306   9.223   4.058  0.1341  0.2272  1.3648
 9172SOL     OW29957   0.264   3.054   7.059 -0.2708  0.1940 -0.3951
 9172SOL    HW129958   0.351   3.062   7.022  0.1446 -0.7312  0.3479
 9172SOL    HW229959   0.272   2.987   7.127 -1.6700 -0.2682 -0.6480
 9173SOL     OW29960   1.139   4.528   2.703  0.2082 -0.2832  0.2158
 9173SOL    HW129961   1.209   4.483   2.655 -0.0427  1.4265 -1.9355
 9173SOL    HW229962   1.082   4.563   2.634 -1.2044  0.7675  1.8488
 9174SOL     OW29963   1.126   5.304   4.651  0.0605 -0.5136 -0.8603
 9174SOL    HW129964   1.170   5.270   4.729  0.4060 -1.5486 -1.4927
 9174SOL    HW229965   1.037   5.267   4.656 -0.9322  1.8118  0.5740
 9175SOL     OW29966   3.919   4.439   8.164  0.4855 -0.4698 -0.0172
 9175SOL    HW129967   3.886   4.363   8.213  1.5909 -0.1008  1.3873
 9175SOL    HW229968   3.999   4.408   8.122 -0.7512 -0.9358 -2.1230
 9176SOL     OW29969   6.518   6.240   8.166 -0.8149  0.6410 -0.5360
 9176SOL    HW129970   6.592   6.265   8.110 -0.5569 -1.1544 -1.0584
 9176SOL    HW229971   6.442   6.279   8.123 -0.2408  2.1315 -0.2425
 9177SOL     OW29972   8.747   4.078   4.142 -0.0333 -0.2714  0.1535
 9177SOL    HW129973   8.736   4.143   4.211 -1.8297 -1.0178  0.6371
 9177SOL    HW229974   8.744   3.994   4.188  0.3997 -0.7470 -0.6603
 9178SOL     OW29975   1.535   2.334   0.402  0.4284 -0.5953 -0.7936
 9178SOL    HW129976   1.612   2.385   0.377 -0.9864  1.4960 -1.2416
 9178SOL    HW229977   1.478   2.338   0.324 -0.3959 -1.5378 -0.2587
 9179SOL     OW29978   3.096   0.793   5.714  0.2709  0.9783  0.2353
 9179SOL    HW129979   3.140   0.877   5.725 -1.3759  1.7205  1.7849
 9179SOL    HW229980   3.010   0.806   5.755  0.8652 -2.1999  2.9072
 9180SOL     OW29981   2.044   4.392   7.817 -0.1703 -0.4817  0.2858
 9180SOL    HW129982   2.021   4.334   7.890 -0.4634  2.6501  2.9455
 9180SOL    HW229983   1.962   4.433   7.791  0.1837 -0.3676 -0.7012
 9181SOL     OW29984   0.441   0.644  10.490  0.1796 -0.0831  0.2897
 9181SOL    HW129985   0.382   0.572  10.469  0.3796 -0.3014  0.4653
 9181SOL    HW229986   0.515   0.602  10.535  1.2416 -0.0303 -1.3299
 9182SOL     OW29987   6.756   1.577   9.839  0.0666 -0.3777 -0.4128
 9182SOL    HW129988   6.817   1.635   9.794 -0.0285 -0.0647 -0.1464
 9182SOL    HW229989   6.735   1.509   9.775  0.2415 -0.1625 -0.7017
 9183SOL     OW29990   1.310   2.790   4.059  0.0304  0.1921  0.3277
 9183SOL    HW129991   1.403   2.801   4.078  0.5529 -1.0509 -1.3113
 9183SOL    HW229992   1.304   2.707   4.012 -1.9784  0.0185  0.7922
 9184SOL     OW29993   3.045   9.823   7.188 -0.3464 -0.1237  0.2180
 9184SOL    HW129994   2.969   9.833   7.131  0.2460  0.0733 -0.5701
 9184SOL    HW229995   3.091   9.746   7.152 -0.9498 -1.1856  1.6160
 9185SOL     OW29996   9.218   4.827  10.053  0.1256  0.7082 -0.4393
 9185SOL    HW129997   9.268   4.789  10.126  0.3157  0.7029 -0.5728
 9185SOL    HW229998   9.262   4.795   9.975 -0.6332 -0.0525 -0.5755
 9186SOL     OW29999  10.452   7.804   7.910  0.1846  0.4964 -0.2703
 9186SOL    HW130000  10.457   7.717   7.869 -0.0200  0.6416 -0.6013
 9186SOL    HW230001  10.360   7.829   7.903 -0.6872 -0.9846  3.3883
 9187SOL     OW30002   8.526   1.713   8.128 -0.5332  0.3584 -0.3958
 9187SOL    HW130003   8.508   1.771   8.054 -2.7288  2.0196  1.3076
 9187SOL    HW230004   8.496   1.627   8.098 -0.2886  0.7391 -1.8293
 9188SOL     OW30005   3.903   7.134   2.475  0.3227  0.1385 -0.0272
 9188SOL    HW130006   3.903   7.226   2.446  1.1419  0.4045  0.7579
 9188SOL    HW230007   3.941   7.086   2.401  0.9160  0.5840 -0.0171
 9189SOL     OW30008   8.653   0.201   5.688 -0.8070 -0.0403  0.2623
 9189SOL    HW130009   8.677   0.288   5.656 -0.1999 -0.3786 -0.2147
 9189SOL    HW230010   8.737   0.159   5.709 -0.7211 -1.9132 -3.1619
 9190SOL     OW30011   3.049   2.014   0.642  0.3207  0.0929 -0.3736
 9190SOL    HW130012   3.058   2.086   0.581 -3.1280  0.9822 -0.0471
 9190SOL    HW230013   3.021   2.055   0.724 -1.1257 -1.5032 -0.0082
 9191SOL     OW30014   7.517   1.589   7.702 -0.2387 -0.6679 -0.1898
 9191SOL    HW130015   7.539   1.654   7.768 -1.8362  0.4028 -0.6253
 9191SOL    HW230016   7.562   1.619   7.623 -1.5195  0.3907 -0.5729
 9192SOL     OW30017   2.022   2.798   0.846 -0.5069  0.2716  0.1796
 9192SOL    HW130018   2.075   2.789   0.925  1.0695  0.3660 -0.8222
 9192SOL    HW230019   2.071   2.750   0.778 -2.0202 -0.1508 -0.6572
 9193SOL     OW30020   9.205   0.306   8.847  0.3125 -0.3674  0.2524
 9193SOL    HW130021   9.256   0.229   8.821 -1.8827 -1.7303 -0.3142
 9193SOL    HW230022   9.161   0.279   8.928 -1.3311 -0.1607 -0.5359
 9194SOL     OW30023   1.562   0.092   0.938  0.0096 -0.2088 -0.3903
 9194SOL    HW130024   1.545   0.002   0.966 -0.0258  0.5344  2.2204
 9194SOL    HW230025   1.545   0.145   1.016  2.4583  1.8275 -1.1170
 9195SOL     OW30026   3.259   0.608   7.179 -0.0013  0.2766 -0.0056
 9195SOL    HW130027   3.273   0.662   7.257 -1.5374  0.6977  0.0254
 9195SOL    HW230028   3.344   0.605   7.136  1.6352 -2.1317  2.9962
 9196SOL     OW30029   2.487   3.401   4.405 -0.0459 -0.5037 -0.9234
 9196SOL    HW130030   2.516   3.447   4.326  2.0752  0.0292  0.0824
 9196SOL    HW230031   2.393   3.418   4.410 -0.0568  0.2391 -2.8002
 9197SOL     OW30032   4.022   1.101   6.082  0.3418  0.0737 -0.2807
 9197SOL    HW130033   4.014   1.173   6.144  2.0005  0.1452 -0.1181
 9197SOL    HW230034   4.104   1.117   6.037 -0.6189 -0.2072 -2.2418
 9198SOL     OW30035   8.391   0.690   8.101 -0.4656 -0.0092 -0.4376
 9198SOL    HW130036   8.471   0.640   8.118 -1.1348 -1.5154 -1.5335
 9198SOL    HW230037   8.406   0.733   8.017 -0.4365  0.5322 -0.1631
 9199SOL     OW30038   0.869   3.399   3.384  0.3868  0.1271  0.0839
 9199SOL    HW130039   0.798   3.346   3.348  0.5404 -0.2447  0.3167
 9199SOL    HW230040   0.927   3.415   3.309  1.2771 -1.5701  0.3537
 9200SOL     OW30041   3.175   4.462   6.379  0.5548 -0.0583 -0.1880
 9200SOL    HW130042   3.203   4.521   6.449 -0.7363 -0.2256  0.5037
 9200SOL    HW230043   3.079   4.461   6.385  0.2988  0.9836 -2.8435
 9201SOL     OW30044   1.392   1.124   9.701 -0.0393 -0.3358  0.0137
 9201SOL    HW130045   1.418   1.203   9.748 -2.3050 -0.3697  1.4973
 9201SOL    HW230046   1.371   1.155   9.613 -0.4533  0.6713  0.4451
 9202SOL     OW30047   5.048  10.254   4.959  0.0547 -0.0841  0.4082
 9202SOL    HW130048   4.963  10.257   4.915  0.2648  1.6245  0.0584
 9202SOL    HW230049   5.027  10.251   5.053 -0.3758 -0.9960  0.2949
 9203SOL     OW30050   9.369   7.206   1.913 -0.6202 -0.4695 -0.4244
 9203SOL    HW130051   9.422   7.153   1.972 -1.0897 -0.6647 -0.1644
 9203SOL    HW230052   9.382   7.167   1.827 -1.0486 -1.0973 -0.2213
 9204SOL     OW30053   2.444   3.518   8.362  0.4882 -0.6260 -0.2973
 9204SOL    HW130054   2.445   3.450   8.296  1.5743  0.4644 -1.4738
 9204SOL    HW230055   2.413   3.475   8.441  0.4761 -2.2976 -1.1748
 9205SOL     OW30056   9.017   3.111   2.534  0.3557 -0.6091  0.1834
 9205SOL    HW130057   8.967   3.190   2.513  0.7439 -0.1571  0.8958
 9205SOL    HW230058   9.109   3.137   2.524  0.5062 -0.7815  0.9935
 9206SOL     OW30059   1.524   7.119   2.364 -0.0229  0.4885  0.3143
 9206SOL    HW130060   1.510   7.210   2.337 -1.7876 -0.3885 -2.1137
 9206SOL    HW230061   1.578   7.082   2.294 -0.7772 -0.7641  0.3824
 9207SOL     OW30062   0.470   6.098   5.126  0.0947  0.5547  0.3164
 9207SOL    HW130063   0.469   6.003   5.117  0.8375  0.4692  1.0265
 9207SOL    HW230064   0.481   6.130   5.037  2.7368 -0.1245  0.3134
 9208SOL     OW30065   3.685   0.903   2.726 -0.3313  0.0149  0.0463
 9208SOL    HW130066   3.601   0.947   2.713  0.3849  1.8984  1.2386
 9208SOL    HW230067   3.743   0.941   2.661 -0.0432 -0.1885  0.1796
 9209SOL     OW30068   1.304   4.577   6.862  0.2512 -0.0123  0.2905
 9209SOL    HW130069   1.258   4.615   6.937  0.2073 -0.5800  0.5573
 9209SOL    HW230070   1.256   4.609   6.786 -2.5490 -2.9391  0.5895
 9210SOL     OW30071   5.914   6.416   6.585 -0.0078  0.4459  0.0623
 9210SOL    HW130072   5.899   6.461   6.502  0.6462  0.8690  0.1627
 9210SOL    HW230073   5.852   6.343   6.585 -0.0694  0.4935 -0.7523
 9211SOL     OW30074   4.974   6.187   4.988  0.0445 -0.7372  0.8099
 9211SOL    HW130075   4.952   6.173   5.080 -2.1377 -2.7384  0.0834
 9211SOL    HW230076   5.009   6.103   4.958 -0.4070 -0.4932 -0.4643
 9212SOL     OW30077   8.151   6.477   5.220 -0.1090 -0.5367 -0.4193
 9212SOL    HW130078   8.195   6.513   5.143 -1.7621  1.3032 -0.5746
 9212SOL    HW230079   8.219   6.425   5.263  1.7664  0.8884 -1.4606
 9213SOL     OW30080   0.882   7.906   2.667 -0.1834 -0.0600  0.4560
 9213SOL    HW130081   0.890   7.853   2.747 -0.5523 -0.6387  0.1204
 9213SOL    HW230082   0.905   7.995   2.694 -2.2100  0.1564  1.6804
 9214SOL     OW30083   5.966   3.197   6.557  0.4635  0.0956 -0.1636
 9214SOL    HW130084   6.046   3.193   6.608 -0.9197  0.7839  2.2332
 9214SOL    HW230085   5.917   3.118   6.584 -1.1446  1.4809  1.2032
 9215SOL     OW30086   5.986   8.819   6.595 -0.0388  0.4690 -0.4392
 9215SOL    HW130087   6.025   8.902   6.566  1.1146 -0.0230 -0.3569
 9215SOL    HW230088   5.941   8.842   6.677 -0.2920  1.1412 -0.7575
 9216SOL     OW30089   1.014   1.448   3.180 -0.3315 -0.1023  0.4531
 9216SOL    HW130090   1.020   1.354   3.166  1.2488  0.1244 -0.8324
 9216SOL    HW230091   0.924   1.471   3.157 -0.6233 -1.2471  0.4345
 9217SOL     OW30092  10.004  10.371   6.920  0.0385  0.3373  0.1752
 9217SOL    HW130093   9.915  10.389   6.890 -0.2244 -0.2736  0.5668
 9217SOL    HW230094   9.994  10.298   6.982  0.5812  1.3849  1.5517
 9218SOL     OW30095   8.904   6.654   0.274  1.0660  0.3251  0.8922
 9218SOL    HW130096   8.982   6.668   0.222  1.3446 -0.5493  1.0599
 9218SOL    HW230097   8.843   6.608   0.215  0.8032  0.6976  0.8682
 9219SOL     OW30098   9.541   9.972   7.184  0.7895 -0.2970 -0.0831
 9219SOL    HW130099   9.480   9.901   7.201  1.4327 -0.7763  0.2572
 9219SOL    HW230100   9.537   9.984   7.089 -0.5696  0.3618  0.0357
 9220SOL     OW30101   1.795   7.203   2.561  0.1487  0.4012 -0.2126
 9220SOL    HW130102   1.843   7.188   2.479 -1.4288 -0.5167 -1.0277
 9220SOL    HW230103   1.761   7.292   2.552 -0.9085 -0.0636 -1.0837
 9221SOL     OW30104   5.118   7.514   2.861  0.0594 -0.3966  0.1646
 9221SOL    HW130105   5.136   7.475   2.776 -1.8772  1.2949 -1.1222
 9221SOL    HW230106   5.023   7.516   2.867  0.1398  0.1184  2.1117
 9222SOL     OW30107   4.409   4.346   7.046  0.2246 -0.0092  0.0446
 9222SOL    HW130108   4.388   4.266   6.999  0.7616  0.4692 -1.0414
 9222SOL    HW230109   4.462   4.316   7.121  2.6726 -0.5135 -1.7494
 9223SOL     OW30110   0.406   7.825   3.060  0.2081  0.1894 -0.0319
 9223SOL    HW130111   0.431   7.900   3.007  0.7229 -0.8909 -1.3693
 9223SOL    HW230112   0.489   7.782   3.082  0.0637  0.9471  2.2143
 9224SOL     OW30113   5.666   2.843   4.870 -0.1659 -0.5495  0.2198
 9224SOL    HW130114   5.572   2.852   4.882 -0.2374  1.9435 -1.3756
 9224SOL    HW230115   5.704   2.863   4.956 -1.0424  1.6195  0.1556
 9225SOL     OW30116   9.350   6.133   5.890  0.0196  0.3882  0.0736
 9225SOL    HW130117   9.336   6.106   5.981 -2.0605  3.9062  0.9871
 9225SOL    HW230118   9.446   6.137   5.881  0.2824  0.3025  2.2451
 9226SOL     OW30119   4.154   0.056   8.509  0.1976 -0.4523 -0.4057
 9226SOL    HW130120   4.108   0.113   8.571  0.7214 -0.3238 -0.1250
 9226SOL    HW230121   4.236   0.035   8.554  1.1331  0.6204 -1.5300
 9227SOL     OW30122   7.628   8.058   0.623 -0.1876  0.0817 -0.6147
 9227SOL    HW130123   7.703   8.030   0.570 -1.0183 -1.5875 -0.9838
 9227SOL    HW230124   7.620   7.991   0.690 -0.6870  0.8476  0.1041
 9228SOL     OW30125   6.503   0.203   9.105 -0.0348 -0.3370 -0.1433
 9228SOL    HW130126   6.427   0.256   9.080 -0.9264 -1.6430 -0.3003
 9228SOL    HW230127   6.559   0.263   9.154  0.1372  1.3827 -2.3236
 9229SOL     OW30128   4.403   9.109   9.791  0.2978  0.5023 -0.4060
 9229SOL    HW130129   4.449   9.191   9.811 -0.4862  1.3408 -1.8676
 9229SOL    HW230130   4.442   9.079   9.709 -1.1693  0.8104 -1.2514
 9230SOL     OW30131   8.515   3.161   1.600  0.3966 -0.0428 -0.4924
 9230SOL    HW130132   8.492   3.224   1.669  0.1992 -0.5561 -0.0864
 9230SOL    HW230133   8.597   3.123   1.628  1.3854  1.2058 -1.5530
 9231SOL     OW30134   9.618   9.078   1.958 -0.4902 -0.2546  0.0393
 9231SOL    HW130135   9.576   9.060   2.042  1.2251 -1.0582  0.7750
 9231SOL    HW230136   9.621   8.993   1.914 -0.2559 -0.0824 -0.2820
 9232SOL     OW30137   6.608   4.959   5.956  0.1494  0.1981  0.6015
 9232SOL    HW130138   6.569   4.971   6.042 -2.8051 -0.1433 -0.5701
 9232SOL    HW230139   6.642   5.045   5.932 -1.7868  1.0904  0.8934
 9233SOL     OW30140   5.937   8.432   1.463  0.3916  0.0265 -0.3186
 9233SOL    HW130141   6.030   8.454   1.469  1.1727 -2.2305 -2.7882
 9233SOL    HW230142   5.905   8.480   1.386 -0.4058  0.3860  0.2144
 9234SOL     OW30143   4.916   4.888   8.321  0.4902  0.6144  0.1138
 9234SOL    HW130144   4.964   4.899   8.239 -1.4054 -0.9065 -1.3000
 9234SOL    HW230145   4.964   4.819   8.367  0.2950 -0.1443 -0.7902
 9235SOL     OW30146   0.899   5.336   6.699  0.3069  0.1396 -0.1570
 9235SOL    HW130147   0.832   5.376   6.756  0.3584 -0.2781  0.2006
 9235SOL    HW230148   0.982   5.365   6.736  0.3269  1.1640 -0.9692
 9236SOL     OW30149   6.719   8.939   8.772 -0.5548  0.2282  0.5775
 9236SOL    HW130150   6.665   8.860   8.764 -0.8459  0.1689  2.6013
 9236SOL    HW230151   6.711   8.982   8.687 -0.1730 -2.0309 -0.6633
 9237SOL     OW30152   8.920   0.522   4.560  0.4516 -0.2815 -0.1574
 9237SOL    HW130153   8.963   0.581   4.621  1.1202 -0.6034 -0.3094
 9237SOL    HW230154   8.914   0.439   4.607  0.4192 -0.3637 -0.3053
 9238SOL     OW30155   2.646   5.458   7.724  0.2633 -0.4556 -0.0403
 9238SOL    HW130156   2.730   5.416   7.704  0.9855  0.3781  1.0235
 9238SOL    HW230157   2.582   5.387   7.726  0.8451 -1.0396 -1.3908
 9239SOL     OW30158   0.063   7.663   2.814  0.1141  0.4266  0.3021
 9239SOL    HW130159   0.099   7.645   2.901  1.8062  0.9054 -0.2512
 9239SOL    HW230160  -0.012   7.720   2.831 -0.2908 -0.4064  1.5024
 9240SOL     OW30161   9.742  10.161   3.409  0.0361  0.2017 -0.2332
 9240SOL    HW130162   9.780  10.089   3.460  0.4534  0.0316 -0.7719
 9240SOL    HW230163   9.652  10.134   3.393 -0.6417  1.0263  1.8514
 9241SOL     OW30164   6.978   7.997   3.186  0.2763  0.0122 -0.0396
 9241SOL    HW130165   7.058   8.050   3.193  0.1712 -0.0468  3.4872
 9241SOL    HW230166   6.914   8.045   3.239 -1.5092 -0.8993 -1.2888
 9242SOL     OW30167   0.069   9.472   9.593  0.2726 -0.0828 -0.1449
 9242SOL    HW130168   0.083   9.456   9.686 -1.0963  0.2038  0.1345
 9242SOL    HW230169   0.125   9.547   9.573  1.5056 -0.8984  0.1437
 9243SOL     OW30170   6.542   9.326   8.277  0.1619 -0.3088 -0.7043
 9243SOL    HW130171   6.625   9.337   8.230  0.7385  2.9564  0.8100
 9243SOL    HW230172   6.562   9.351   8.367 -2.1432 -0.9821  0.0441
 9244SOL     OW30173   5.268   6.375   7.987  0.6039 -0.0490 -0.3053
 9244SOL    HW130174   5.343   6.426   7.958 -0.2377  0.6547 -1.3196
 9244SOL    HW230175   5.208   6.376   7.912 -0.8021  0.1844  0.7765
 9245SOL     OW30176   0.998   1.846   6.342 -0.2832 -0.3488 -0.1812
 9245SOL    HW130177   0.958   1.933   6.347  3.9370  1.8973 -0.5474
 9245SOL    HW230178   1.022   1.837   6.249 -0.8358 -2.0381 -0.1840
 9246SOL     OW30179   9.845   1.664   4.578  0.2300 -0.4475 -0.4991
 9246SOL    HW130180   9.832   1.749   4.536  1.0686 -0.3164 -0.5121
 9246SOL    HW230181   9.757   1.634   4.601  0.0084  1.0058  0.6673
 9247SOL     OW30182   4.086   1.903   4.001  0.0858  0.1026 -0.6593
 9247SOL    HW130183   4.140   1.972   4.039  1.6658 -1.5689  0.3027
 9247SOL    HW230184   4.146   1.855   3.944 -0.9910 -0.4597 -1.3399
 9248SOL     OW30185   0.728   9.247   8.919  0.1418 -0.1996 -0.1440
 9248SOL    HW130186   0.824   9.248   8.918  0.1471  0.2770  0.1405
 9248SOL    HW230187   0.705   9.235   9.011 -0.0500  1.7219  0.1039
 9249SOL     OW30188   1.527   3.762   9.466 -0.0151 -0.0488  0.4615
 9249SOL    HW130189   1.529   3.732   9.556  3.1703  1.4175  1.0380
 9249SOL    HW230190   1.519   3.857   9.473 -0.0150  0.0621 -0.8066
 9250SOL     OW30191   6.302   2.325   3.288 -0.1199 -0.1672 -0.3025
 9250SOL    HW130192   6.359   2.392   3.249  0.4692  0.0430  0.8766
 9250SOL    HW230193   6.235   2.308   3.221 -0.8828  2.3224 -0.2458
 9251SOL     OW30194   2.845   4.115  10.149 -0.1457 -0.1752 -0.5522
 9251SOL    HW130195   2.804   4.079  10.071  1.0944 -0.4687 -1.0860
 9251SOL    HW230196   2.938   4.096  10.139  0.1423  0.4955  0.6133
 9252SOL     OW30197   9.733  10.236   4.162  0.6623  0.2150  0.5041
 9252SOL    HW130198   9.828  10.243   4.151  0.6470 -0.8749 -0.5447
 9252SOL    HW230199   9.718  10.143   4.179 -0.1983  0.4184  0.8876
 9253SOL     OW30200   6.168   6.308   7.485 -0.0454  0.5747 -0.4277
 9253SOL    HW130201   6.086   6.357   7.493 -0.0571  0.6687 -1.0644
 9253SOL    HW230202   6.216   6.352   7.414  0.6897  0.7038  0.1412
 9254SOL     OW30203   3.093   0.729   3.295  0.0048 -0.2347 -0.0109
 9254SOL    HW130204   3.065   0.659   3.355 -0.5937 -1.1026 -1.2778
 9254SOL    HW230205   3.023   0.737   3.231  0.9540  0.1665 -1.0428
 9255SOL     OW30206   5.176   8.339   4.154 -0.6152 -0.1621 -0.1284
 9255SOL    HW130207   5.228   8.390   4.092 -0.4586  0.6168  0.6297
 9255SOL    HW230208   5.241   8.300   4.213 -0.8406  0.1342  0.3175
 9256SOL     OW30209   2.500   5.213   2.438  0.3677  0.1073  0.2271
 9256SOL    HW130210   2.442   5.145   2.405  1.2604 -0.4938 -0.1497
 9256SOL    HW230211   2.528   5.182   2.524  1.2342 -0.2976 -0.1916
 9257SOL     OW30212   7.045   0.716   4.199 -0.1131 -0.3510 -0.3963
 9257SOL    HW130213   7.074   0.798   4.159  1.5860 -1.0778 -0.7206
 9257SOL    HW230214   7.085   0.716   4.286 -2.8581  0.6816  0.9857
 9258SOL     OW30215   1.179   3.224   1.811 -0.1250  0.8665 -0.5235
 9258SOL    HW130216   1.156   3.215   1.903 -0.9674  2.7710 -0.4897
 9258SOL    HW230217   1.202   3.136   1.783 -0.8050  0.0746  1.2540
 9259SOL     OW30218   6.236   3.505   8.275 -0.3235 -0.5049  0.3782
 9259SOL    HW130219   6.149   3.522   8.241  0.1500 -1.7298 -1.5664
 9259SOL    HW230220   6.281   3.590   8.270 -1.4801  0.2596  1.8717
 9260SOL     OW30221   7.872   4.213   4.342  0.0664  0.0554  0.7995
 9260SOL    HW130222   7.936   4.276   4.376  0.2771  0.7473 -0.8114
 9260SOL    HW230223   7.796   4.223   4.399  1.0905 -0.2164  2.2607
 9261SOL     OW30224   8.257   2.520  10.366 -0.2186 -0.6120  0.4645
 9261SOL    HW130225   8.244   2.606  10.325  0.7700 -0.3532  0.6582
 9261SOL    HW230226   8.207   2.525  10.448  2.6352  1.1510  2.2753
 9262SOL     OW30227   8.198   6.938   0.079 -0.4180 -0.3905  0.3762
 9262SOL    HW130228   8.206   7.012   0.138 -1.4842  1.2462 -1.4263
 9262SOL    HW230229   8.268   6.878   0.106  2.2199  2.3961  0.2994
 9263SOL     OW30230   7.906   8.329   6.757 -0.8359  0.1747 -0.4118
 9263SOL    HW130231   7.849   8.259   6.725  0.6228 -1.4109  0.2772
 9263SOL    HW230232   7.995   8.294   6.745 -0.0303  2.1614 -0.5727
 9264SOL     OW30233   1.297   5.994   6.878  0.0365 -0.4063 -0.0229
 9264SOL    HW130234   1.249   5.919   6.914 -0.4748 -0.6479 -1.1789
 9264SOL    HW230235   1.359   6.018   6.947  0.3278 -1.9993  0.3058
 9265SOL     OW30236   1.750   4.377   8.201  0.2023  0.3131  0.5444
 9265SOL    HW130237   1.726   4.293   8.241  2.8910 -0.6037  0.4345
 9265SOL    HW230238   1.753   4.358   8.107  0.9298  0.4797  0.5283
 9266SOL     OW30239   9.073   4.840   9.647  0.1725 -0.5204  0.1290
 9266SOL    HW130240   8.981   4.864   9.657  0.4523  1.1415 -0.9239
 9266SOL    HW230241   9.114   4.871   9.727  0.2063  0.9510 -0.4328
 9267SOL     OW30242   0.237   6.252   9.935  0.2310  0.3877 -0.1071
 9267SOL    HW130243   0.189   6.302   9.869  1.4236  0.9207 -0.5852
 9267SOL    HW230244   0.187   6.171   9.945 -0.0568  0.3732 -1.5328
 9268SOL     OW30245   3.987   9.813   2.815  0.4045 -0.2480  0.0898
 9268SOL    HW130246   4.027   9.732   2.782  0.3304 -0.5580  0.7465
 9268SOL    HW230247   4.052   9.881   2.798  0.8427 -0.6007  0.3316
 9269SOL     OW30248   5.313   6.575   4.789 -0.0071 -0.2704 -0.5623
 9269SOL    HW130249   5.323   6.544   4.699 -0.6357 -2.0550 -0.0689
 9269SOL    HW230250   5.229   6.539   4.817  0.3493 -0.0476  0.8481
 9270SOL     OW30251   8.889   4.145   3.542  0.5510 -0.5737 -0.3808
 9270SOL    HW130252   8.953   4.128   3.472 -0.6030 -1.0692 -1.3451
 9270SOL    HW230253   8.820   4.195   3.500  0.8064  0.9559  0.9207
 9271SOL     OW30254   8.878   9.862   4.211 -0.3344  0.3554  0.0664
 9271SOL    HW130255   8.822   9.866   4.133 -0.1613  3.3004 -0.0334
 9271SOL    HW230256   8.818   9.873   4.284 -0.3551 -1.2112  0.3214
 9272SOL     OW30257   4.600   4.374   0.060 -0.4054 -0.0826 -0.3884
 9272SOL    HW130258   4.663   4.304   0.077 -1.7378 -1.1550  0.2936
 9272SOL    HW230259   4.603   4.386  -0.034 -0.1355 -1.0404 -0.5153
 9273SOL     OW30260   3.714   5.562   0.688  0.3867  0.5452  0.1025
 9273SOL    HW130261   3.779   5.625   0.720  2.6207 -0.6325 -1.7382
 9273SOL    HW230262   3.718   5.570   0.593 -1.1421 -0.5969 -0.0920
 9274SOL     OW30263   5.290   6.300   1.663 -0.1994 -0.3275  0.1112
 9274SOL    HW130264   5.358   6.260   1.609 -1.0060  2.2821 -3.1757
 9274SOL    HW230265   5.212   6.246   1.647  0.0394 -0.7537  0.3621
 9275SOL     OW30266   0.655   0.717   5.822  0.3954 -0.9801  0.8973
 9275SOL    HW130267   0.667   0.810   5.837  0.5223 -0.5889 -1.2665
 9275SOL    HW230268   0.683   0.675   5.903  3.6697  0.6731  0.7616
 9276SOL     OW30269   7.013   6.074   6.444  0.0223  0.4039 -0.0877
 9276SOL    HW130270   7.014   6.100   6.536 -1.3103 -0.3623  0.1716
 9276SOL    HW230271   7.094   6.109   6.408  3.4912 -3.7534  2.6105
 9277SOL     OW30272   9.304  10.298   0.883 -0.3553 -0.2615  0.6616
 9277SOL    HW130273   9.266  10.320   0.798 -0.5606 -0.7820  0.6125
 9277SOL    HW230274   9.306  10.381   0.931 -1.0824 -0.1279  0.4790
 9278SOL     OW30275   5.908   1.427   1.866  0.1892  0.7100 -0.1269
 9278SOL    HW130276   5.955   1.387   1.940  0.0869  0.0521 -0.4131
 9278SOL    HW230277   5.866   1.353   1.822 -0.4536  1.2049 -0.3462
 9279SOL     OW30278   5.132   1.615   8.998  0.9518 -0.1721 -0.0561
 9279SOL    HW130279   5.226   1.622   9.015  0.7941  4.7028  0.1619
 9279SOL    HW230280   5.092   1.633   9.083 -0.1297 -0.2429 -0.5409
 9280SOL     OW30281   4.522   1.877   4.737  0.0553  0.3213  0.1281
 9280SOL    HW130282   4.443   1.922   4.709  0.2159 -0.1049 -1.0561
 9280SOL    HW230283   4.589   1.904   4.674 -0.2267 -2.8014 -1.7193
 9281SOL     OW30284   6.397   0.776   7.975 -0.5876  0.2168  0.0238
 9281SOL    HW130285   6.351   0.836   7.918  0.4748  0.7437 -0.3136
 9281SOL    HW230286   6.369   0.689   7.947 -2.4700  0.5197  0.7999
 9282SOL     OW30287  10.102   2.179   8.421 -0.4817 -0.7837  0.1540
 9282SOL    HW130288  10.191   2.214   8.427 -0.9726  0.4419  0.6337
 9282SOL    HW230289  10.100   2.132   8.338  1.1185 -2.3239  0.9142
 9283SOL     OW30290   8.095   2.509   1.565  0.0626  0.1182  0.5351
 9283SOL    HW130291   8.072   2.602   1.562 -0.8947 -0.1295 -1.9582
 9283SOL    HW230292   8.188   2.508   1.588  0.7578  1.8886 -1.7996
 9284SOL     OW30293   9.037   3.920   0.643 -0.5571  0.6753 -0.1389
 9284SOL    HW130294   9.040   3.854   0.573 -1.1035 -0.0352  0.4840
 9284SOL    HW230295   8.946   3.950   0.643 -0.6278  0.4790  0.4270
 9285SOL     OW30296   2.592   7.134   6.539 -0.0815  0.3085  0.6647
 9285SOL    HW130297   2.619   7.070   6.605  0.1826  0.6982  0.9409
 9285SOL    HW230298   2.524   7.090   6.488  1.7391 -1.0798 -0.6936
 9286SOL     OW30299   2.463   8.566   5.602  0.9984 -0.1106  0.0095
 9286SOL    HW130300   2.478   8.480   5.641 -0.0479 -0.6624 -0.7434
 9286SOL    HW230301   2.384   8.599   5.646  1.4629  0.5241  0.3831
 9287SOL     OW30302   3.312  10.419   8.543  0.7175  0.0858 -0.0776
 9287SOL    HW130303   3.358  10.369   8.610  0.8443 -2.2291 -1.7555
 9287SOL    HW230304   3.315  10.363   8.465 -1.7699  1.4307 -1.2766
 9288SOL     OW30305   0.620  10.465   2.076 -0.0193 -0.5457  0.3176
 9288SOL    HW130306   0.650  10.375   2.087 -1.7006 -1.1098  0.5625
 9288SOL    HW230307   0.628  10.505   2.163 -0.6322 -0.9031  0.5389
 9289SOL     OW30308   3.081   1.009   8.218  0.3510 -0.2922 -0.5711
 9289SOL    HW130309   3.130   1.080   8.175  1.8258 -1.1143 -0.3235
 9289SOL    HW230310   3.011   0.988   8.156  0.5875  0.6074 -1.1715
 9290SOL     OW30311   6.359   4.040   4.449  0.3655  0.0579  0.4206
 9290SOL    HW130312   6.298   3.986   4.499 -1.0700 -0.9628 -2.2352
 9290SOL    HW230313   6.413   3.977   4.401  0.4033  0.9281 -0.7341
 9291SOL     OW30314   5.182   5.379   8.109  0.4176  0.3650  0.0359
 9291SOL    HW130315   5.183   5.470   8.138 -2.2691  0.3188  0.5587
 9291SOL    HW230316   5.158   5.329   8.187  2.0101 -0.8689 -0.2007
 9292SOL     OW30317   6.730   3.421   0.372 -0.2956 -0.5197 -0.5571
 9292SOL    HW130318   6.725   3.401   0.465  1.9387  0.1811 -0.2381
 9292SOL    HW230319   6.783   3.500   0.367 -2.7350  1.1562 -2.2651
 9293SOL     OW30320   7.578  10.449   9.433  0.0939 -0.4423 -0.1388
 9293SOL    HW130321   7.644  10.391   9.395 -1.0984 -0.2340 -2.7897
 9293SOL    HW230322   7.500  10.394   9.443 -0.0852 -0.0885  0.4343
 9294SOL     OW30323   5.593   6.588   5.273  0.2279 -0.0771  0.3939
 9294SOL    HW130324   5.555   6.552   5.193  0.0904  0.1703  0.3482
 9294SOL    HW230325   5.544   6.668   5.290 -3.3056 -2.5333  3.4939
 9295SOL     OW30326   0.816   3.225   0.032 -0.5312 -0.0893  0.2648
 9295SOL    HW130327   0.786   3.223   0.122  0.9229  0.4240  0.7977
 9295SOL    HW230328   0.817   3.133   0.004 -1.4212 -0.2090  0.5939
 9296SOL     OW30329   8.497   4.409   0.129 -0.4119  0.9935 -0.3050
 9296SOL    HW130330   8.540   4.492   0.107 -1.2595  1.6743  0.5039
 9296SOL    HW230331   8.502   4.405   0.224 -3.5071  1.9303  0.0039
 9297SOL     OW30332  10.372   9.958   0.606 -0.1484  0.4851  0.6025
 9297SOL    HW130333  10.347   9.974   0.697 -0.7544  0.3585  0.4630
 9297SOL    HW230334  10.455  10.004   0.596 -2.0544  4.1222  0.0612
 9298SOL     OW30335   1.794   4.833   4.231  0.5882  0.9849  0.0288
 9298SOL    HW130336   1.711   4.831   4.279 -0.9418  1.3463 -2.4248
 9298SOL    HW230337   1.840   4.755   4.262 -1.4679 -0.2738  0.1672
 9299SOL     OW30338   1.098   1.203   0.929 -0.2639 -0.7013 -0.3390
 9299SOL    HW130339   1.122   1.262   0.858 -1.7320  1.1824  0.6287
 9299SOL    HW230340   1.159   1.224   1.000 -0.3921 -0.7785 -0.2039
 9300SOL     OW30341   7.513  10.365   1.376 -0.8924  0.5020  0.0931
 9300SOL    HW130342   7.444  10.300   1.386  1.4971 -2.1680  0.4725
 9300SOL    HW230343   7.520  10.379   1.282  0.5405 -2.2793 -0.3242
 9301SOL     OW30344  10.166   8.683   6.913 -0.3752 -0.1908 -0.2192
 9301SOL    HW130345  10.124   8.708   6.995 -0.3091 -0.0165 -0.2366
 9301SOL    HW230346  10.187   8.590   6.923  0.9079  0.1590  0.5098
 9302SOL     OW30347   7.267   5.973   5.266  0.0594  0.2857  0.0415
 9302SOL    HW130348   7.302   6.039   5.326 -0.6407 -1.1965  2.2345
 9302SOL    HW230349   7.321   5.981   5.187  0.0004  3.3928  0.1999
 9303SOL     OW30350   2.085   7.883   8.072 -0.3158  0.5044  0.0090
 9303SOL    HW130351   2.013   7.838   8.028 -1.6905  1.9806  0.6557
 9303SOL    HW230352   2.056   7.892   8.163 -0.4534  3.2664 -0.2260
 9304SOL     OW30353   7.739   6.965   9.956  0.3944  0.0836 -0.0567
 9304SOL    HW130354   7.815   7.020   9.973  0.3445 -0.1871  1.1537
 9304SOL    HW230355   7.704   6.945  10.043 -1.1561  0.3358 -0.5813
 9305SOL     OW30356   5.742   8.964   3.638  0.5935 -0.0306 -0.0311
 9305SOL    HW130357   5.760   8.870   3.644  0.5618 -0.0343  0.0018
 9305SOL    HW230358   5.714   8.989   3.726 -0.9032 -0.2878 -0.4092
 9306SOL     OW30359   0.417   1.727   2.580 -0.2862 -0.1809  0.5584
 9306SOL    HW130360   0.390   1.641   2.611 -0.3713 -0.1270  0.6341
 9306SOL    HW230361   0.363   1.743   2.502  0.2776 -0.5298  0.0910
 9307SOL     OW30362   9.479   0.136   6.633 -0.2232 -0.1395  0.0054
 9307SOL    HW130363   9.387   0.156   6.647 -0.1904  1.0070 -1.2188
 9307SOL    HW230364   9.512   0.114   6.720 -1.5905 -0.3656  0.4958
 9308SOL     OW30365   1.303   7.556   7.932  0.2383  0.2754  0.3462
 9308SOL    HW130366   1.377   7.587   7.879  0.7222  0.4171  1.1025
 9308SOL    HW230367   1.244   7.517   7.868  0.3613  1.3207 -0.4405
 9309SOL     OW30368   1.202   4.915   7.396 -0.0022  0.1423  0.7971
 9309SOL    HW130369   1.230   4.825   7.380  0.2053  0.2498  0.5604
 9309SOL    HW230370   1.209   4.959   7.312  1.2830  0.7549  1.2028
 9310SOL     OW30371   0.600   9.566   5.520 -0.1273 -0.2320 -0.0683
 9310SOL    HW130372   0.528   9.513   5.555 -0.8907  2.8063  3.6291
 9310SOL    HW230373   0.679   9.523   5.551 -0.7167  0.5649  2.8253
 9311SOL     OW30374   9.370   2.141   0.973  0.1910 -0.3656  0.4093
 9311SOL    HW130375   9.426   2.106   0.905 -0.3163  0.3472 -0.3901
 9311SOL    HW230376   9.426   2.201   1.022  0.0211  0.7259 -0.6909
 9312SOL     OW30377   5.394   5.966   9.758  0.0002 -0.2207  0.5630
 9312SOL    HW130378   5.484   5.947   9.783  1.1581  0.2149 -2.7183
 9312SOL    HW230379   5.353   5.880   9.749  0.6324 -0.5100  0.3905
 9313SOL     OW30380   4.932   2.131   4.725  0.2239 -0.0547 -0.2838
 9313SOL    HW130381   4.916   2.132   4.819 -0.6970 -0.5789 -0.4178
 9313SOL    HW230382   4.931   2.038   4.701 -1.5444  0.1250 -1.0974
 9314SOL     OW30383   8.679   5.440   4.711  0.3119 -0.5090 -0.5758
 9314SOL    HW130384   8.673   5.347   4.690  1.9762 -0.8317  0.1564
 9314SOL    HW230385   8.755   5.472   4.661 -0.3475  0.5106 -0.9644
 9315SOL     OW30386   0.349   9.636   3.762 -0.3254  0.2137 -0.5560
 9315SOL    HW130387   0.292   9.618   3.687  0.8689 -0.0972 -1.4260
 9315SOL    HW230388   0.432   9.666   3.723 -0.0235  1.0804  0.6788
 9316SOL     OW30389   1.116   7.596   4.786  0.0846 -0.1433  0.5492
 9316SOL    HW130390   1.197   7.645   4.777  1.0168 -1.7515 -0.4323
 9316SOL    HW230391   1.097   7.596   4.880 -0.0083  2.0732  0.5878
 9317SOL     OW30392   8.633   3.156   6.888  0.4949  0.3240  0.2343
 9317SOL    HW130393   8.715   3.197   6.915  1.7695 -0.3013 -2.3947
 9317SOL    HW230394   8.640   3.066   6.920  0.4746  0.4885  0.7031
 9318SOL     OW30395   7.265   1.485   6.183 -0.9930 -0.0834  0.0525
 9318SOL    HW130396   7.328   1.467   6.113 -0.9135 -1.0073  0.3444
 9318SOL    HW230397   7.180   1.480   6.140 -0.9007  0.9299 -0.2931
 9319SOL     OW30398   9.420   8.616   6.992 -0.3097  0.1110 -0.4795
 9319SOL    HW130399   9.338   8.575   6.968 -0.7331  0.4008  0.4128
 9319SOL    HW230400   9.485   8.546   6.986 -0.7753 -0.3314 -0.3710
 9320SOL     OW30401   9.795   0.427   0.312 -0.2974  0.3176 -0.0898
 9320SOL    HW130402   9.767   0.505   0.359  1.8333  0.8527  0.3639
 9320SOL    HW230403   9.773   0.445   0.221 -0.1196  1.3156  0.0531
 9321SOL     OW30404   8.393   3.939   0.643 -0.1143 -0.0884  0.4922
 9321SOL    HW130405   8.461   3.883   0.681  0.0947 -0.1326  0.0709
 9321SOL    HW230406   8.435   3.976   0.565 -0.0261  1.1639  1.1106
 9322SOL     OW30407   8.326   7.141   2.958 -0.2627  0.2488  0.3032
 9322SOL    HW130408   8.270   7.172   3.030  0.6967  1.1768  0.6795
 9322SOL    HW230409   8.299   7.050   2.945 -2.9167  1.0655 -0.5822
 9323SOL     OW30410   8.083   0.304   1.170  0.1915 -0.4286  0.2902
 9323SOL    HW130411   8.139   0.327   1.096  0.2551 -2.6198 -0.4225
 9323SOL    HW230412   8.007   0.262   1.131  0.5400 -2.2556  1.4456
 9324SOL     OW30413   8.696   1.150   0.234 -0.3600  0.4195 -0.4186
 9324SOL    HW130414   8.777   1.103   0.255 -1.7016 -1.3762  1.0251
 9324SOL    HW230415   8.651   1.093   0.171 -2.2170 -0.5996  1.6972
 9325SOL     OW30416   7.492   9.381   0.622  1.0180 -0.1725  0.2011
 9325SOL    HW130417   7.491   9.298   0.574 -1.9164  0.6303 -1.4030
 9325SOL    HW230418   7.540   9.441   0.566 -1.6814  0.5397 -1.5683
 9326SOL     OW30419   7.495   3.116   9.146 -0.0312 -0.7060 -0.0061
 9326SOL    HW130420   7.468   3.179   9.212  0.0015  0.5536 -1.1492
 9326SOL    HW230421   7.558   3.060   9.191  2.1611  1.8513  0.3613
 9327SOL     OW30422   9.168   0.544   8.541 -0.8314  0.0935 -0.2721
 9327SOL    HW130423   9.128   0.522   8.626 -1.6162  0.7317 -0.4698
 9327SOL    HW230424   9.247   0.593   8.564 -1.1939  0.5152  0.0928
 9328SOL     OW30425  10.124   9.163   7.235 -0.7693  0.8532  0.1373
 9328SOL    HW130426  10.083   9.209   7.309 -2.0745  0.9044 -0.5803
 9328SOL    HW230427  10.052   9.149   7.174  0.4574  1.6295 -1.5471
 9329SOL     OW30428   7.012   8.358   4.932  0.0283  0.4352 -0.2401
 9329SOL    HW130429   7.018   8.317   5.018 -1.9558  2.4275  0.9342
 9329SOL    HW230430   7.020   8.452   4.948 -2.9222  1.0786 -1.8271
 9330SOL     OW30431   8.274   2.141   9.755  0.3193 -0.4408 -0.3382
 9330SOL    HW130432   8.192   2.091   9.760  0.4173 -0.5655  0.0763
 9330SOL    HW230433   8.254   2.214   9.697 -0.1885 -0.2796  0.0318
 9331SOL     OW30434   8.949   2.240   0.936 -0.2108  0.6129 -0.1336
 9331SOL    HW130435   9.007   2.268   1.007 -0.7469  0.1606  0.4923
 9331SOL    HW230436   9.007   2.231   0.861  0.8905 -1.5848  0.8876
 9332SOL     OW30437   1.264   0.998   0.321  0.4331  0.2087  0.6233
 9332SOL    HW130438   1.231   1.059   0.255  0.6275  0.0483  0.3791
 9332SOL    HW230439   1.272   1.051   0.400  0.8479  0.5601  0.3467
 9333SOL     OW30440   5.239   0.628   9.333 -0.2124  0.1437 -0.1581
 9333SOL    HW130441   5.272   0.576   9.259 -2.0534 -1.2770 -0.0388
 9333SOL    HW230442   5.194   0.565   9.389 -1.4457  1.6697  0.6454
 9334SOL     OW30443   4.487   1.915   3.796  0.6144  0.2748 -0.0539
 9334SOL    HW130444   4.499   1.927   3.701 -1.2220  0.0934 -0.3468
 9334SOL    HW230445   4.566   1.869   3.824  0.3509 -1.4482 -1.8700
 9335SOL     OW30446   6.341   7.358   6.583 -0.1143 -0.1387 -0.0359
 9335SOL    HW130447   6.311   7.448   6.596 -1.2691 -0.6611  1.1058
 9335SOL    HW230448   6.319   7.338   6.492 -2.6624 -0.2389  0.5337
 9336SOL     OW30449   4.509   9.143   4.354 -0.3268  0.3308  0.4106
 9336SOL    HW130450   4.424   9.137   4.396 -0.4475 -0.5101  0.0697
 9336SOL    HW230451   4.504   9.081   4.281  0.9098 -0.5175  0.9994
 9337SOL     OW30452   9.184   4.462   4.361  0.2454  0.1142 -0.3596
 9337SOL    HW130453   9.153   4.518   4.432  1.8621 -0.0468  0.5243
 9337SOL    HW230454   9.230   4.390   4.406  0.9049 -0.2343 -1.5453
 9338SOL     OW30455   0.142   9.731   2.265  0.0201 -0.0367  0.0507
 9338SOL    HW130456   0.149   9.759   2.357  0.4520  0.4054 -0.1144
 9338SOL    HW230457   0.199   9.791   2.217 -0.3668 -0.1340 -0.5389
 9339SOL     OW30458   9.542   0.693   4.946 -0.3221  0.4876  0.1836
 9339SOL    HW130459   9.600   0.670   5.019 -0.5900  1.0905  0.5955
 9339SOL    HW230460   9.556   0.786   4.932 -0.3433  0.3957 -0.4869
 9340SOL     OW30461   7.052   6.937   5.256  0.1299  0.7490 -0.0760
 9340SOL    HW130462   7.054   6.960   5.349 -1.4145 -0.6313  0.3338
 9340SOL    HW230463   7.103   6.855   5.250 -0.3762  0.4460 -0.3166
 9341SOL     OW30464   5.530   9.676   3.724  0.2157  0.0599  0.5539
 9341SOL    HW130465   5.581   9.644   3.798  0.5275  1.0109  0.7647
 9341SOL    HW230466   5.499   9.762   3.752 -1.1897 -0.3394  0.2803
 9342SOL     OW30467   3.895   8.661   6.301  0.3753 -0.5170  0.1116
 9342SOL    HW130468   3.931   8.613   6.375 -0.1200 -2.3252 -0.7819
 9342SOL    HW230469   3.945   8.630   6.226 -0.4951 -0.2154 -0.6062
 9343SOL     OW30470   0.746   7.600   1.119 -0.2054 -0.0932 -0.7166
 9343SOL    HW130471   0.774   7.585   1.209 -2.0930 -0.3050 -0.1278
 9343SOL    HW230472   0.782   7.526   1.070  1.2007  0.2516 -0.2463
 9344SOL     OW30473   7.350   6.546   1.450 -0.0240 -0.0018  0.1967
 9344SOL    HW130474   7.339   6.469   1.506  1.6364  0.0344  0.6434
 9344SOL    HW230475   7.382   6.511   1.367 -1.8724  0.0039 -0.5642
 9345SOL     OW30476   1.308   9.029   4.873 -0.2658  0.5568 -0.4343
 9345SOL    HW130477   1.400   9.005   4.885 -0.2887  0.7089  0.0698
 9345SOL    HW230478   1.260   8.949   4.895 -0.2064 -0.1249 -2.4886
 9346SOL     OW30479   2.801   0.846   4.855  0.1985  0.1589  0.3496
 9346SOL    HW130480   2.721   0.846   4.907  0.5451 -0.5397  0.8862
 9346SOL    HW230481   2.771   0.831   4.765 -0.3599  0.9733  0.3872
 9347SOL     OW30482   4.304   4.596   7.318 -0.9473  0.2966  0.4954
 9347SOL    HW130483   4.264   4.619   7.234  1.8215 -1.4634 -1.4847
 9347SOL    HW230484   4.230   4.572   7.374 -2.8145 -1.8407 -2.5801
 9348SOL     OW30485   2.089   8.730   0.089 -0.0117  0.3037  0.6192
 9348SOL    HW130486   2.160   8.742   0.152 -0.2814 -1.0276  1.2143
 9348SOL    HW230487   2.101   8.641   0.056 -1.2815  0.1203  0.5936
 9349SOL     OW30488   9.102   1.759   1.700  0.4356 -0.1517 -0.3763
 9349SOL    HW130489   9.196   1.745   1.706  0.4634  0.3582  0.4662
 9349SOL    HW230490   9.065   1.715   1.777  0.0099 -0.1329 -0.5631
 9350SOL     OW30491   4.950   6.049   5.700  0.0264  0.3621  0.3269
 9350SOL    HW130492   5.029   6.072   5.650  0.3166 -3.0303 -1.0543
 9350SOL    HW230493   4.958   5.954   5.715 -3.1753  0.1262  1.3018
 9351SOL     OW30494   6.066   5.844   8.112 -0.1313  0.1601 -0.2340
 9351SOL    HW130495   6.148   5.892   8.101 -0.0479  0.3681  1.1446
 9351SOL    HW230496   6.092   5.762   8.155 -0.6432  0.2540  0.2690
 9352SOL     OW30497  10.252   0.674   7.662  0.0710  0.0091  0.4169
 9352SOL    HW130498  10.304   0.752   7.679 -0.5774  0.1623  1.9017
 9352SOL    HW230499  10.258   0.623   7.743 -1.2767 -0.4379  0.2635
 9353SOL     OW30500   5.314   4.765   9.573  0.5806 -0.5404  0.4973
 9353SOL    HW130501   5.313   4.670   9.560 -0.8998 -0.5832  0.8203
 9353SOL    HW230502   5.275   4.801   9.493  1.3182 -0.1653  0.2865
 9354SOL     OW30503   7.046   4.125   9.151 -0.1194 -0.4873  0.5733
 9354SOL    HW130504   6.988   4.187   9.107  0.5096 -0.3641 -0.0978
 9354SOL    HW230505   7.060   4.163   9.238  1.0322  0.8534 -0.1374
 9355SOL     OW30506   6.993   6.303   3.204 -0.1360 -0.6369 -0.1066
 9355SOL    HW130507   7.087   6.304   3.221 -0.3334 -0.1710  1.0570
 9355SOL    HW230508   6.953   6.311   3.291 -1.2756 -2.4466 -0.4095
 9356SOL     OW30509   8.699   6.262   6.531  0.3229  0.2798  0.3418
 9356SOL    HW130510   8.654   6.181   6.509 -1.5349  1.1233  0.8495
 9356SOL    HW230511   8.714   6.257   6.626  0.1557  0.5501  0.3840
 9357SOL     OW30512   2.521   7.543   2.737 -0.0874 -0.0876 -0.3925
 9357SOL    HW130513   2.543   7.539   2.831 -0.9795  0.1758 -0.1638
 9357SOL    HW230514   2.456   7.613   2.731  1.6802  1.5643 -1.5584
 9358SOL     OW30515   8.489   2.508   6.167  0.0851 -0.3424  0.0981
 9358SOL    HW130516   8.511   2.451   6.241  1.0350  0.2442  0.2843
 9358SOL    HW230517   8.399   2.536   6.184 -0.9504 -2.8836 -0.7266
 9359SOL     OW30518   8.227   4.804   5.362 -0.0411 -0.3638  0.3082
 9359SOL    HW130519   8.199   4.867   5.295  1.4693  0.8177  0.7399
 9359SOL    HW230520   8.161   4.811   5.430 -0.8522 -0.5668 -0.4409
 9360SOL     OW30521   9.280   9.373   4.892 -0.3476 -0.5112  0.0242
 9360SOL    HW130522   9.299   9.452   4.842 -0.3611 -1.0533 -0.8643
 9360SOL    HW230523   9.297   9.301   4.831 -0.0850 -1.2082  0.8929
 9361SOL     OW30524  10.379   5.087   4.463 -0.0351 -0.1163 -0.3460
 9361SOL    HW130525  10.425   5.015   4.421  0.5445  0.7028 -1.1507
 9361SOL    HW230526  10.426   5.101   4.545  1.3962  0.8926 -1.2802
 9362SOL     OW30527   8.696   0.255   2.756 -0.7786  0.7685 -0.7243
 9362SOL    HW130528   8.736   0.340   2.735  1.6256  0.4633  2.0641
 9362SOL    HW230529   8.610   0.278   2.791 -0.5531  1.9736 -0.9051
 9363SOL     OW30530   7.732   3.913   8.671  0.2028 -0.2168  0.4198
 9363SOL    HW130531   7.717   3.908   8.766 -0.3189  0.2773  0.3682
 9363SOL    HW230532   7.720   3.824   8.640 -0.2945 -0.2621  0.7269
 9364SOL     OW30533   2.993   6.592   2.600  0.0428 -0.1830  0.0636
 9364SOL    HW130534   2.929   6.548   2.655 -0.8876 -0.1707 -0.9799
 9364SOL    HW230535   3.038   6.653   2.659 -1.1744  0.0966  0.7226
 9365SOL     OW30536   2.077   1.552   5.550 -0.1389  0.5274 -0.5414
 9365SOL    HW130537   1.996   1.543   5.500  0.3694 -0.8827 -1.1489
 9365SOL    HW230538   2.062   1.629   5.605 -2.0547  0.0405 -0.3134
 9366SOL     OW30539   9.860   4.427   1.811  0.0260  0.0244  0.6245
 9366SOL    HW130540   9.820   4.497   1.863 -2.8043 -1.2784  0.3865
 9366SOL    HW230541   9.893   4.472   1.733 -1.1331  1.1876  0.7660
 9367SOL     OW30542   8.666   8.000   4.361  0.1320 -0.3455  0.3627
 9367SOL    HW130543   8.734   8.041   4.414  0.4507 -0.6079  0.1587
 9367SOL    HW230544   8.679   8.036   4.273  0.4205 -0.8928  0.1811
 9368SOL     OW30545   9.479   5.798   0.749  0.1171 -0.3853  0.3759
 9368SOL    HW130546   9.476   5.869   0.814 -2.1156 -0.7097  0.7040
 9368SOL    HW230547   9.388   5.771   0.739  0.7460 -2.2305 -0.8551
 9369SOL     OW30548   8.898   2.651   1.106 -0.3092 -0.3635 -0.0604
 9369SOL    HW130549   8.860   2.590   1.043  1.6322  0.2367 -1.9595
 9369SOL    HW230550   8.956   2.706   1.053  0.6305  0.8797  2.1239
 9370SOL     OW30551   5.854   5.419   1.877  0.6062  0.7063  0.1524
 9370SOL    HW130552   5.791   5.480   1.915  1.1929  0.9511  0.7565
 9370SOL    HW230553   5.834   5.419   1.784  0.0008  1.1153  0.2751
 9371SOL     OW30554   5.677   4.750   7.900 -0.5888 -0.0903  0.1923
 9371SOL    HW130555   5.597   4.803   7.905 -0.6298 -0.2053  0.8742
 9371SOL    HW230556   5.666   4.683   7.967  1.2753  1.5778  2.3752
 9372SOL     OW30557   5.276   9.635   5.038 -0.3442  0.4529  0.4935
 9372SOL    HW130558   5.298   9.719   5.078 -1.7831  1.8933 -1.5613
 9372SOL    HW230559   5.209   9.597   5.096  0.3408  0.6664  1.4496
 9373SOL     OW30560  10.299   0.004   6.900 -0.4587  0.1587 -0.1687
 9373SOL    HW130561  10.298   0.050   6.984 -1.1592  1.0888 -0.6577
 9373SOL    HW230562  10.207  -0.020   6.885 -0.8033  2.1312 -1.7481
 9374SOL     OW30563   1.345   8.020   4.973  0.5828  0.5727  0.4712
 9374SOL    HW130564   1.302   8.071   4.904 -1.6933 -0.8416  0.7682
 9374SOL    HW230565   1.277   8.005   5.038  1.4367 -2.0075  0.8565
 9375SOL     OW30566   4.699   5.327   5.079 -0.4434  0.2465 -0.0689
 9375SOL    HW130567   4.659   5.243   5.057 -0.9298  0.5590 -0.4270
 9375SOL    HW230568   4.663   5.387   5.013  1.8357  0.2401 -1.4001
 9376SOL     OW30569   4.664   0.454   2.352 -0.3859 -0.7285 -0.3449
 9376SOL    HW130570   4.717   0.533   2.341 -0.5582 -0.4377  0.8072
 9376SOL    HW230571   4.727   0.386   2.377 -0.2579 -0.9356 -1.1958
 9377SOL     OW30572   2.253   4.164   8.439  0.2508 -0.7562 -0.1207
 9377SOL    HW130573   2.264   4.240   8.382 -2.0937 -0.6515 -0.5232
 9377SOL    HW230574   2.342   4.134   8.457  1.1282  0.1927 -2.5043
 9378SOL     OW30575   0.675  10.327  10.360  0.0120 -0.2532 -0.0141
 9378SOL    HW130576   0.697  10.396  10.424  0.2267 -0.1723 -0.1744
 9378SOL    HW230577   0.580  10.334  10.350 -0.3011 -1.4146  1.6284
 9379SOL     OW30578   1.409   8.589   9.947 -0.4592 -0.2563  0.9607
 9379SOL    HW130579   1.462   8.669   9.943 -1.4378  0.3963 -3.1373
 9379SOL    HW230580   1.460   8.529  10.002  3.0734  1.3327 -0.3058
 9380SOL     OW30581   4.059  10.461  10.011  0.2196 -0.0443 -0.0553
 9380SOL    HW130582   4.021  10.383  10.051  0.1703 -0.1047 -0.2155
 9380SOL    HW230583   4.055  10.528  10.078 -1.3079  0.3006 -0.4577
 9381SOL     OW30584   0.586   8.249   3.963  0.1478 -0.0772  0.3388
 9381SOL    HW130585   0.568   8.263   4.056  0.7652  2.5063  0.1232
 9381SOL    HW230586   0.649   8.317   3.940 -0.4787 -0.2488 -2.1353
 9382SOL     OW30587   8.815   0.178   7.684 -0.1503 -0.2689  0.4299
 9382SOL    HW130588   8.824   0.198   7.777  1.5460  0.5387  0.1417
 9382SOL    HW230589   8.893   0.217   7.644  0.0300 -2.0502 -1.1011
 9383SOL     OW30590   7.347   7.889   4.222 -0.0968 -0.3181 -0.4317
 9383SOL    HW130591   7.416   7.947   4.190 -1.5479  1.1483 -1.0271
 9383SOL    HW230592   7.394   7.811   4.252  2.0897  1.5826  1.5726
 9384SOL     OW30593   8.676   7.221  10.304  0.2687  0.1734 -0.5596
 9384SOL    HW130594   8.694   7.315  10.300  0.5307  0.1159 -0.8565
 9384SOL    HW230595   8.711   7.187  10.221  0.1882 -0.1874 -0.4472
 9385SOL     OW30596   7.882   8.922   2.156 -0.4406 -0.1167  0.4075
 9385SOL    HW130597   7.892   8.862   2.230 -0.8979  0.5725  1.0374
 9385SOL    HW230598   7.852   8.865   2.084 -1.5955 -0.5514  1.1947
 9386SOL     OW30599   3.872   0.887   1.590  0.3584  0.0094 -0.1692
 9386SOL    HW130600   3.937   0.825   1.555  1.0883 -0.0791  1.2695
 9386SOL    HW230601   3.800   0.831   1.621  0.4770 -0.0302  0.0331
 9387SOL     OW30602   6.294   7.881   7.978 -0.4738 -0.7877  0.0630
 9387SOL    HW130603   6.346   7.822   8.034 -0.8045  0.1576  1.4220
 9387SOL    HW230604   6.305   7.846   7.890  0.8697 -1.7708  0.5812
 9388SOL     OW30605   1.823   1.398   0.366  0.3080 -0.0776  0.1936
 9388SOL    HW130606   1.881   1.402   0.441 -2.2506 -0.8034  2.3532
 9388SOL    HW230607   1.871   1.443   0.296  2.2575  1.8421  2.5903
 9389SOL     OW30608   7.223   3.828   2.063 -0.4358 -0.0853 -0.0693
 9389SOL    HW130609   7.129   3.838   2.080 -0.7856 -1.6524 -0.9077
 9389SOL    HW230610   7.249   3.910   2.022 -1.1786  0.7950  1.1509
 9390SOL     OW30611   8.973   8.604   9.446 -0.2770 -0.6466 -0.3788
 9390SOL    HW130612   9.056   8.602   9.399  0.6202  0.5277  1.0828
 9390SOL    HW230613   8.995   8.638   9.533 -2.1832 -0.9263  0.2647
 9391SOL     OW30614   6.688   6.531   3.341 -0.0967 -0.3223 -0.7918
 9391SOL    HW130615   6.619   6.487   3.290 -0.9478  0.1194 -0.0501
 9391SOL    HW230616   6.745   6.460   3.371 -0.7783 -0.8028 -0.6078
 9392SOL     OW30617   6.260   9.746   9.904  0.0106 -0.4939  0.1450
 9392SOL    HW130618   6.314   9.810   9.951  0.5118 -0.7089 -0.1329
 9392SOL    HW230619   6.323   9.694   9.854 -0.4472 -0.8205 -0.0941
 9393SOL     OW30620   3.392   7.247   4.517 -0.3464 -0.3392  0.3568
 9393SOL    HW130621   3.408   7.199   4.436  1.1010  0.7417 -0.0410
 9393SOL    HW230622   3.319   7.306   4.496 -1.3597 -1.4840  0.5075
 9394SOL     OW30623   5.672   3.572   1.825 -1.1180 -0.2261 -0.0906
 9394SOL    HW130624   5.680   3.500   1.888 -1.5013 -0.1639  0.0324
 9394SOL    HW230625   5.633   3.643   1.875  0.7052  0.6258  0.2159
 9395SOL     OW30626   5.123   3.421   9.064 -0.2179  0.8554 -0.3165
 9395SOL    HW130627   5.138   3.393   9.154 -0.5781  0.4147 -0.3909
 9395SOL    HW230628   5.028   3.414   9.052 -0.1571  0.7876 -0.7688
 9396SOL     OW30629   9.720   1.005   1.478  0.4017 -0.2588 -0.3364
 9396SOL    HW130630   9.643   1.011   1.421 -1.2504  1.4427  1.8588
 9396SOL    HW230631   9.706   1.074   1.543  1.8938 -2.3428  2.4086
 9397SOL     OW30632   8.903   4.574  10.488 -0.4100  0.3336 -0.1093
 9397SOL    HW130633   8.923   4.535  10.573 -0.3895  0.0411 -0.2457
 9397SOL    HW230634   8.812   4.601  10.494 -0.4753  0.1085 -0.0706
 9398SOL     OW30635   8.461   1.317   8.585  0.1335  0.1250 -0.7786
 9398SOL    HW130636   8.474   1.399   8.634  0.9976  0.0402 -0.8512
 9398SOL    HW230637   8.473   1.248   8.650 -0.0314  0.0463 -0.8320
 9399SOL     OW30638   6.858   1.570   1.656  0.0953  0.4894  0.5518
 9399SOL    HW130639   6.847   1.647   1.600  1.7250  0.4844  0.1648
 9399SOL    HW230640   6.845   1.603   1.745 -1.5751  0.6920  0.2649
 9400SOL     OW30641   7.384   5.388   1.743 -0.0795 -0.2298  0.2277
 9400SOL    HW130642   7.346   5.476   1.753 -1.2327 -0.9453  2.8355
 9400SOL    HW230643   7.468   5.393   1.789  0.5894 -0.1407 -0.9399
 9401SOL     OW30644  10.349   2.638   1.179 -0.1779 -0.1431  0.2066
 9401SOL    HW130645  10.393   2.584   1.244  1.1562 -0.0002 -0.5533
 9401SOL    HW230646  10.282   2.581   1.141 -0.4210 -0.4758  1.1264
 9402SOL     OW30647   7.811   1.907   9.344  0.2249  0.0381 -0.2285
 9402SOL    HW130648   7.824   1.910   9.249  0.5573 -1.5740 -0.2666
 9402SOL    HW230649   7.717   1.917   9.357 -0.4041 -3.5203 -1.0464
 9403SOL     OW30650   5.921   8.087   8.864 -0.2377 -0.8828  0.6002
 9403SOL    HW130651   5.837   8.105   8.908  0.1221  0.5593  0.7259
 9403SOL    HW230652   5.986   8.092   8.934  0.1241 -0.4571  0.2364
 9404SOL     OW30653   1.396   9.019   6.944 -0.2306 -0.7728 -0.1579
 9404SOL    HW130654   1.429   9.063   7.022  0.0708  1.7493 -1.5964
 9404SOL    HW230655   1.416   8.926   6.958  3.8663  0.0697  0.8762
 9405SOL     OW30656  10.266   7.504   9.500  0.2005  0.2510 -0.3304
 9405SOL    HW130657  10.320   7.425   9.492  1.5996  1.3865 -3.5148
 9405SOL    HW230658  10.199   7.494   9.433 -0.8059  0.9272  0.5592
 9406SOL     OW30659   1.491   1.426   2.830  0.5220 -0.4984 -0.2138
 9406SOL    HW130660   1.531   1.510   2.808  0.9184 -1.1755 -2.3467
 9406SOL    HW230661   1.518   1.368   2.759 -3.1309 -1.3591 -1.0919
 9407SOL     OW30662   8.604   9.322   5.133 -0.4188  0.2496  0.0717
 9407SOL    HW130663   8.690   9.348   5.099  0.1412 -1.2004  0.3434
 9407SOL    HW230664   8.605   9.227   5.132 -2.7417  0.1397 -1.6921
 9408SOL     OW30665   7.565   0.837   6.735  0.5944 -0.4040 -0.0040
 9408SOL    HW130666   7.608   0.835   6.649 -0.0499 -1.7932 -0.3177
 9408SOL    HW230667   7.482   0.881   6.718  0.8589  0.1474  0.1092
 9409SOL     OW30668   6.565   8.494   9.627 -0.2045 -0.2494 -1.0787
 9409SOL    HW130669   6.532   8.523   9.712 -0.0527 -0.4047 -0.9636
 9409SOL    HW230670   6.552   8.399   9.628 -0.4246 -0.2215 -1.3287
 9410SOL     OW30671   8.793   3.900   2.330  0.9577  0.5392 -0.2707
 9410SOL    HW130672   8.826   3.837   2.266 -1.3791  0.0857 -1.1315
 9410SOL    HW230673   8.769   3.976   2.278  0.2717  0.6830  0.2432
 9411SOL     OW30674   2.096   5.009   4.881 -0.2941  0.3152  0.7082
 9411SOL    HW130675   2.059   5.001   4.793 -0.6554  0.1625  0.8729
 9411SOL    HW230676   2.027   5.051   4.933  0.5000  1.8891  0.5472
 9412SOL     OW30677   2.297   7.166   7.498  0.2966 -0.0153 -0.1379
 9412SOL    HW130678   2.290   7.260   7.511  1.4200  0.3461 -1.8580
 9412SOL    HW230679   2.257   7.128   7.576  0.0365  1.8709  0.6957
 9413SOL     OW30680   5.968   6.210   5.958 -0.0404  0.1798 -0.1728
 9413SOL    HW130681   6.019   6.242   6.032  0.8399 -2.0293  0.2329
 9413SOL    HW230682   5.900   6.155   5.996 -1.5647  1.5022 -0.8498
 9414SOL     OW30683   5.242  10.296   2.142  0.6964 -0.2827  0.0807
 9414SOL    HW130684   5.186  10.276   2.067 -0.3196  1.4864  0.3080
 9414SOL    HW230685   5.323  10.250   2.125 -0.4228 -2.0207 -0.8247
 9415SOL     OW30686   5.223   9.647   1.644 -0.7948  0.3219 -0.3366
 9415SOL    HW130687   5.293   9.623   1.705 -1.5943 -0.1889  0.3913
 9415SOL    HW230688   5.173   9.567   1.631 -2.1379  1.0004  0.3480
 9416SOL     OW30689   9.724   3.148   9.204  0.2003 -0.2208 -0.7681
 9416SOL    HW130690   9.776   3.149   9.284 -1.3556 -0.9695  0.3234
 9416SOL    HW230691   9.777   3.195   9.140  1.8947 -0.3923  0.4347
 9417SOL     OW30692   2.131   1.472   6.541  0.0459  0.6543  0.7251
 9417SOL    HW130693   2.186   1.510   6.610  1.4872 -1.7007  0.9868
 9417SOL    HW230694   2.076   1.408   6.587  0.3046 -0.2102 -0.1222
 9418SOL     OW30695   4.024   8.515   4.297 -0.1756 -0.0213  0.0968
 9418SOL    HW130696   4.008   8.471   4.214 -1.4466 -0.0511  0.3361
 9418SOL    HW230697   4.093   8.463   4.339 -1.5210 -1.7576  0.3087
 9419SOL     OW30698   0.312   1.111   6.418 -0.1013 -0.3040 -0.1303
 9419SOL    HW130699   0.381   1.161   6.463 -1.7135  0.2096  1.9306
 9419SOL    HW230700   0.299   1.158   6.336  1.9705 -0.4211 -0.5861
 9420SOL     OW30701  10.087   2.076   0.281 -0.0538  0.4442 -0.3230
 9420SOL    HW130702  10.072   2.101   0.190  1.1403 -1.5226 -1.0980
 9420SOL    HW230703  10.012   2.021   0.303  0.0456  0.2939 -0.3603
 9421SOL     OW30704   4.177  10.242   9.182  0.2756  0.1662  0.0318
 9421SOL    HW130705   4.234  10.239   9.105  0.3037  1.2005 -0.0040
 9421SOL    HW230706   4.229  10.286   9.249 -0.0397  0.0002  0.3911
 9422SOL     OW30707   3.485   6.568   5.603 -0.1015 -0.1256  0.0025
 9422SOL    HW130708   3.464   6.599   5.515 -0.3803  2.1456  0.7848
 9422SOL    HW230709   3.412   6.513   5.628 -1.0223  0.8507 -0.4656
 9423SOL     OW30710   2.454   5.379   0.445 -0.6244  0.3311  0.0959
 9423SOL    HW130711   2.548   5.365   0.451 -0.5728  0.9832  1.2976
 9423SOL    HW230712   2.418   5.294   0.420  0.1321 -0.4863  1.6187
 9424SOL     OW30713   0.485   1.220   9.750 -0.1377  0.1127 -0.2889
 9424SOL    HW130714   0.463   1.234   9.843 -1.2102  0.6756 -0.6108
 9424SOL    HW230715   0.578   1.241   9.744 -0.0173 -0.0672  0.6852
 9425SOL     OW30716   9.645   9.675   1.634  0.4072  0.1045  0.1029
 9425SOL    HW130717   9.627   9.767   1.613  1.5675  0.4237  0.3989
 9425SOL    HW230718   9.560   9.637   1.651 -0.0239  1.3691  0.9229
 9426SOL     OW30719   4.030   6.438   9.349  0.1632  0.6986  0.1590
 9426SOL    HW130720   3.980   6.440   9.431  1.8025  0.5440  1.2334
 9426SOL    HW230721   4.120   6.421   9.378  1.1935  2.9007 -1.4717
 9427SOL     OW30722   1.342   6.442   7.453  0.6925 -0.1341  0.0765
 9427SOL    HW130723   1.352   6.467   7.361  0.5405  0.8344  0.3166
 9427SOL    HW230724   1.253   6.471   7.476  1.3932  1.3554  1.0409
 9428SOL     OW30725  10.287   8.287   2.495  0.1518  0.1308 -0.0506
 9428SOL    HW130726  10.281   8.206   2.444  1.9927  0.6455 -1.1936
 9428SOL    HW230727  10.210   8.337   2.468 -0.4194 -0.7719 -0.1580
 9429SOL     OW30728   3.340   1.250   7.712  0.3801 -0.2628 -0.5142
 9429SOL    HW130729   3.390   1.288   7.784 -0.2020  1.1833 -0.8412
 9429SOL    HW230730   3.406   1.208   7.657  0.9074 -0.7893  0.4750
 9430SOL     OW30731   7.331   8.768   8.200  0.2105  0.0148  0.2003
 9430SOL    HW130732   7.400   8.785   8.265  1.9251 -1.3725 -1.1485
 9430SOL    HW230733   7.272   8.707   8.244  0.7355 -0.0518  0.8398
 9431SOL     OW30734   0.094   6.303   0.360 -0.0630 -0.3815  0.4968
 9431SOL    HW130735   0.121   6.239   0.425 -1.4337 -0.9074  0.5763
 9431SOL    HW230736  -0.000   6.314   0.374 -0.1953  0.2689 -0.7265
 9432SOL     OW30737   2.208   6.064   1.650  0.0324 -0.7021 -0.3817
 9432SOL    HW130738   2.228   6.045   1.742  1.1444 -0.0742 -0.4817
 9432SOL    HW230739   2.290   6.050   1.604  0.6801  2.9622 -0.6541
 9433SOL     OW30740   1.374   1.940   7.291 -0.0891 -0.3052 -0.3422
 9433SOL    HW130741   1.444   1.891   7.247  0.3420  0.3470 -0.3932
 9433SOL    HW230742   1.410   1.960   7.377 -0.6380 -0.9037  0.0366
 9434SOL     OW30743   1.466   7.262   7.372  0.6534  0.5330 -0.4499
 9434SOL    HW130744   1.519   7.195   7.329 -0.1215  0.1004 -0.7575
 9434SOL    HW230745   1.398   7.284   7.307 -1.1075 -0.7980  0.8249
 9435SOL     OW30746   3.543   0.828   1.261  0.1443  0.6457 -0.0117
 9435SOL    HW130747   3.450   0.831   1.240 -0.1501 -0.8543  0.9483
 9435SOL    HW230748   3.546   0.811   1.356  1.4112  2.8584  0.4216
 9436SOL     OW30749   5.681   2.267   6.182  0.7365  0.2699  0.5727
 9436SOL    HW130750   5.642   2.327   6.245  2.1151  0.3887  1.3671
 9436SOL    HW230751   5.671   2.311   6.097  1.3074  1.4364  1.0832
 9437SOL     OW30752   7.219   9.428   4.274  0.0709 -0.6261  0.4517
 9437SOL    HW130753   7.215   9.521   4.296 -3.0018 -0.3331 -0.8422
 9437SOL    HW230754   7.237   9.384   4.358 -0.7178  1.0211  1.5434
 9438SOL     OW30755   7.402   4.710   1.207 -0.1839 -0.0143  0.0190
 9438SOL    HW130756   7.314   4.695   1.241 -0.4446 -1.2967 -1.1421
 9438SOL    HW230757   7.457   4.650   1.257  0.1868  1.2529  1.2100
 9439SOL     OW30758   3.005   2.013   7.214  0.1563 -0.0429  0.2015
 9439SOL    HW130759   2.930   2.027   7.272  0.2649  0.9565  0.1195
 9439SOL    HW230760   3.032   1.923   7.231 -0.1000  0.0837  1.3699
 9440SOL     OW30761   0.387   7.946   7.394 -0.5065 -0.6779  1.0226
 9440SOL    HW130762   0.345   8.029   7.369 -1.4465  0.3206  5.1015
 9440SOL    HW230763   0.480   7.965   7.388 -0.6478 -0.4006 -0.9874
 9441SOL     OW30764   3.933   3.234   6.788 -0.3934 -0.4413  0.7659
 9441SOL    HW130765   4.012   3.218   6.736 -0.6162 -0.5345  0.4531
 9441SOL    HW230766   3.937   3.328   6.809 -0.2832 -0.4119  0.6143
 9442SOL     OW30767   6.161   2.397   9.371 -0.2618 -0.4490  0.0457
 9442SOL    HW130768   6.191   2.416   9.460  0.0339  0.0302 -0.1548
 9442SOL    HW230769   6.168   2.302   9.364  1.3623 -0.3625 -0.0380
 9443SOL     OW30770   9.100   0.947   5.332 -0.1584  0.5417  0.3482
 9443SOL    HW130771   9.042   1.000   5.387 -0.7453  0.1727  0.1011
 9443SOL    HW230772   9.086   0.981   5.244  0.4995  0.8834  0.3729
 9444SOL     OW30773   6.654   0.784   8.058  0.2082  0.2704 -0.3190
 9444SOL    HW130774   6.689   0.695   8.067 -0.5327  0.1662  2.2980
 9444SOL    HW230775   6.563   0.771   8.033 -0.4592  0.1409  1.9664
 9445SOL     OW30776   6.622   5.389   0.294 -0.2701  0.3142  0.4339
 9445SOL    HW130777   6.541   5.428   0.325 -0.7069  0.6503 -1.0721
 9445SOL    HW230778   6.686   5.459   0.298 -0.7017  0.8054 -0.8673
 9446SOL     OW30779   9.687   5.132   0.995 -0.3278  0.7960  0.5393
 9446SOL    HW130780   9.764   5.094   0.953  0.0660 -0.6718  2.4791
 9446SOL    HW230781   9.630   5.156   0.921  0.2566 -1.8005 -0.8942
 9447SOL     OW30782   1.306   4.167   5.724  0.1196  0.3616 -0.1790
 9447SOL    HW130783   1.245   4.197   5.791  1.6037  2.2811  0.4302
 9447SOL    HW230784   1.387   4.150   5.772  0.5852 -0.3637 -1.2027
 9448SOL     OW30785   9.631   9.129   7.331 -0.1809  0.6082  0.3269
 9448SOL    HW130786   9.663   9.145   7.242 -1.4202  0.4378 -0.1718
 9448SOL    HW230787   9.654   9.207   7.380  1.3124  0.3363  0.0970
 9449SOL     OW30788   7.735   4.515   6.594  0.3230 -0.0790 -0.7422
 9449SOL    HW130789   7.805   4.551   6.539  0.8515 -0.2307 -0.1790
 9449SOL    HW230790   7.688   4.592   6.626 -1.0464 -0.0099 -2.7040
 9450SOL     OW30791   8.511   6.105   6.398  0.2228 -0.3234  0.1286
 9450SOL    HW130792   8.488   6.057   6.477 -0.8765  1.2654  0.8240
 9450SOL    HW230793   8.433   6.156   6.377  1.4791  1.5241 -0.2856
 9451SOL     OW30794   3.805   2.354   1.307  0.0646 -0.6353 -0.0226
 9451SOL    HW130795   3.788   2.448   1.301 -0.4517 -0.5565  1.9961
 9451SOL    HW230796   3.758   2.316   1.233 -1.2605  0.5177  0.1866
 9452SOL     OW30797   2.848   1.137   1.637 -0.0909  0.0966 -0.6360
 9452SOL    HW130798   2.873   1.044   1.644 -0.3993  0.1013  0.7371
 9452SOL    HW230799   2.795   1.154   1.715  0.2617  1.5369 -0.6860
 9453SOL     OW30800   5.654   9.091   5.331  0.1826 -0.0253  0.7549
 9453SOL    HW130801   5.597   9.152   5.284  0.1198  0.0759  0.9604
 9453SOL    HW230802   5.625   9.005   5.303 -0.0843  0.0256  0.8701
 9454SOL     OW30803   8.293   2.858   8.551  0.6357 -0.1369  0.4478
 9454SOL    HW130804   8.304   2.768   8.520  0.1538  0.0043 -0.1594
 9454SOL    HW230805   8.381   2.896   8.547  0.5271  0.0070 -1.1887
 9455SOL     OW30806   4.741   1.218   4.174 -0.4692  0.1209  0.5815
 9455SOL    HW130807   4.665   1.162   4.190 -1.7004  1.6809  0.5259
 9455SOL    HW230808   4.793   1.211   4.254 -0.6613 -0.9621  0.6279
 9456SOL     OW30809   2.547   7.000   7.468  0.2175  0.4282 -0.9190
 9456SOL    HW130810   2.464   7.045   7.485 -1.1829 -1.3901 -2.4549
 9456SOL    HW230811   2.575   7.034   7.383  1.7052  1.8460  0.0742
 9457SOL     OW30812   4.270   6.149   4.918  0.0404 -0.2148 -0.2297
 9457SOL    HW130813   4.206   6.192   4.976  1.3698  0.1097  1.0499
 9457SOL    HW230814   4.244   6.057   4.918 -0.0946 -0.1920  0.7726
 9458SOL     OW30815   1.603   1.460   1.577  0.1607 -0.0967 -0.0452
 9458SOL    HW130816   1.611   1.512   1.497  1.4576  0.0467  0.1619
 9458SOL    HW230817   1.522   1.491   1.617  0.2862  0.9110 -0.5388
 9459SOL     OW30818   6.918   7.235   1.190 -0.3014 -0.2924 -0.1263
 9459SOL    HW130819   6.913   7.202   1.280 -0.9589  0.0534 -0.0287
 9459SOL    HW230820   6.831   7.218   1.154  0.3882 -1.7976 -1.1937
 9460SOL     OW30821   0.312  10.478   3.327 -0.0936 -0.2809 -0.3109
 9460SOL    HW130822   0.289  10.559   3.372  0.8444 -1.0083  1.5813
 9460SOL    HW230823   0.229  10.436   3.307 -0.5421  0.2193  0.4817
 9461SOL     OW30824   4.941   0.599   3.331  0.3954  0.4887 -0.5111
 9461SOL    HW130825   4.873   0.625   3.268  1.4978  0.3961 -1.8090
 9461SOL    HW230826   4.949   0.674   3.390 -0.4225  0.7378 -0.7090
 9462SOL     OW30827   0.474   3.172   5.774  0.0876  0.0894  0.2157
 9462SOL    HW130828   0.443   3.189   5.863 -1.1247 -1.8044  0.1999
 9462SOL    HW230829   0.532   3.246   5.755  0.2453  0.6311  2.4959
 9463SOL     OW30830   7.870   7.879   8.035  0.5368  0.0161  0.2580
 9463SOL    HW130831   7.827   7.946   7.983  0.7084 -0.9155 -1.1180
 9463SOL    HW230832   7.963   7.892   8.019  0.6849  0.6509  1.5197
 9464SOL     OW30833   0.597   3.133   6.755  0.6925  0.6652  0.1359
 9464SOL    HW130834   0.600   3.158   6.847 -1.2567 -1.4860  0.8753
 9464SOL    HW230835   0.504   3.138   6.731  0.8156 -1.2084 -0.9489
 9465SOL     OW30836   6.174   3.359   1.485 -0.0057 -0.0499  0.1003
 9465SOL    HW130837   6.183   3.283   1.428  0.0314 -1.2824  1.6597
 9465SOL    HW230838   6.262   3.395   1.493  0.3556 -1.0668  0.9089
 9466SOL     OW30839   4.317   3.006   4.728  0.2354 -0.1820 -0.0110
 9466SOL    HW130840   4.272   3.056   4.659  1.8130 -0.2324 -1.1193
 9466SOL    HW230841   4.386   2.958   4.682  1.1311 -0.4795  1.5695
 9467SOL     OW30842   2.684   2.977   4.303 -0.4361  0.6919  0.4351
 9467SOL    HW130843   2.608   2.937   4.262 -0.2237  0.5492  0.1808
 9467SOL    HW230844   2.759   2.944   4.254 -0.2240  1.0256  0.5267
 9468SOL     OW30845   9.442   7.412   3.849 -0.0906  0.0504 -0.2156
 9468SOL    HW130846   9.535   7.416   3.872 -0.1429 -1.3412  0.3473
 9468SOL    HW230847   9.412   7.329   3.888 -1.5396  0.4374 -0.4697
 9469SOL     OW30848   3.031   3.411   7.432  0.1683  0.4016 -0.8914
 9469SOL    HW130849   2.994   3.492   7.468  3.3395  1.8304 -0.5455
 9469SOL    HW230850   2.997   3.342   7.488  0.0795  1.8930  0.9918
 9470SOL     OW30851   6.522   6.435   2.539  0.1803 -0.2258 -0.1648
 9470SOL    HW130852   6.579   6.509   2.517 -1.0242  0.9887  0.6478
 9470SOL    HW230853   6.554   6.404   2.624 -0.3916  0.5150  0.3355
 9471SOL     OW30854   3.823   3.954   6.186 -0.6549  0.1807  0.6680
 9471SOL    HW130855   3.730   3.947   6.205 -0.5353  1.7990  2.1425
 9471SOL    HW230856   3.828   4.024   6.121 -0.6828 -2.2771 -2.1613
 9472SOL     OW30857   6.909   6.816   0.380 -0.4775  0.3299 -0.0292
 9472SOL    HW130858   6.959   6.750   0.428  0.0325 -1.1318 -2.4178
 9472SOL    HW230859   6.973   6.854   0.319 -1.6925  0.1063 -1.4924
 9473SOL     OW30860   7.210   6.731   5.263 -0.1718 -0.3097  0.5578
 9473SOL    HW130861   7.195   6.637   5.260  1.5809 -0.5999 -1.8398
 9473SOL    HW230862   7.271   6.743   5.337  0.7939 -1.2952 -0.0443
 9474SOL     OW30863   7.920   5.042   2.765  0.3006  0.4035 -0.0820
 9474SOL    HW130864   7.846   5.080   2.813 -0.3004  0.7797 -1.2755
 9474SOL    HW230865   7.997   5.080   2.807 -0.2115  0.8275  0.4970
 9475SOL     OW30866   5.796   1.486   9.249 -0.4102  0.3717  0.1770
 9475SOL    HW130867   5.800   1.556   9.314  0.5567 -0.3736  0.9528
 9475SOL    HW230868   5.793   1.405   9.301 -2.0908 -0.1569 -0.6930
 9476SOL     OW30869   8.324   2.379   6.826 -0.7434  0.4496  0.2653
 9476SOL    HW130870   8.415   2.403   6.843 -1.2030  1.5216  1.3456
 9476SOL    HW230871   8.329   2.295   6.780  0.7332 -0.9964  2.8665
 9477SOL     OW30872   0.199   7.023   9.089 -0.1193 -0.2026 -0.3142
 9477SOL    HW130873   0.105   7.040   9.091 -0.4412 -1.7227  1.5680
 9477SOL    HW230874   0.209   6.954   9.024 -0.3261 -0.0723 -0.4848
 9478SOL     OW30875   5.404   5.254   5.228  0.4111 -0.2515 -0.1419
 9478SOL    HW130876   5.467   5.284   5.162 -0.6149 -1.1135 -1.5615
 9478SOL    HW230877   5.322   5.297   5.204  0.2162  0.1208  1.1256
 9479SOL     OW30878   3.105   8.547   5.807 -0.4390 -0.8085 -0.0540
 9479SOL    HW130879   3.180   8.587   5.850  0.6150 -1.5906 -1.1186
 9479SOL    HW230880   3.107   8.455   5.834 -1.7580 -0.5793  0.9039
 9480SOL     OW30881   6.573   0.144   2.233 -0.2895  0.0917 -0.4838
 9480SOL    HW130882   6.535   0.207   2.294 -0.7036 -0.5046 -0.1157
 9480SOL    HW230883   6.658   0.123   2.272  0.8415  2.0214 -1.7112
 9481SOL     OW30884   4.009   1.048   0.361 -0.1958  0.0095  0.1767
 9481SOL    HW130885   4.099   1.078   0.372  0.8847 -1.9403 -2.3084
 9481SOL    HW230886   3.957   1.128   0.364  1.7093  1.3109  0.7491
 9482SOL     OW30887   7.799   1.415   2.578 -0.2870  0.2947  0.4348
 9482SOL    HW130888   7.748   1.419   2.497 -0.3175 -0.6579  0.3901
 9482SOL    HW230889   7.785   1.500   2.620 -1.8595  0.0759  0.4000
 9483SOL     OW30890   8.383   4.154   4.577  0.3446  0.0271  0.1968
 9483SOL    HW130891   8.310   4.093   4.589 -0.7922  0.8722 -1.8860
 9483SOL    HW230892   8.444   4.108   4.520 -0.6066  0.8064 -1.5414
 9484SOL     OW30893   2.438   0.398  10.263  0.0184 -0.5830  0.2979
 9484SOL    HW130894   2.516   0.362  10.307  0.2514  0.6720  0.9659
 9484SOL    HW230895   2.369   0.335  10.282  0.5688 -1.0402  0.8430
 9485SOL     OW30896   3.941   4.960   0.607  0.2447  0.0828 -0.2902
 9485SOL    HW130897   4.018   4.954   0.549 -0.8710  0.8500 -1.9076
 9485SOL    HW230898   3.866   4.964   0.548 -1.2525 -2.4705  1.2318
 9486SOL     OW30899   3.030   6.307   8.471 -0.1717  0.4174 -0.1987
 9486SOL    HW130900   3.075   6.375   8.522  0.9165 -1.2596  1.1814
 9486SOL    HW230901   2.987   6.252   8.537 -0.3595 -0.7112 -1.2272
 9487SOL     OW30902   3.027   0.982   0.669  0.1135 -0.6905 -0.0757
 9487SOL    HW130903   2.987   1.068   0.685 -1.2134 -1.4169  0.7140
 9487SOL    HW230904   3.115   0.990   0.705  0.3560  0.6326 -0.8962
 9488SOL     OW30905   5.137   4.301   6.004 -0.0903 -0.3931 -0.0946
 9488SOL    HW130906   5.114   4.363   6.073  0.8949 -0.1206 -0.0047
 9488SOL    HW230907   5.171   4.225   6.051 -0.5183 -0.6796 -0.2412
 9489SOL     OW30908   9.211   7.053   9.102 -0.5018 -0.1007  0.0559
 9489SOL    HW130909   9.261   7.041   9.022 -0.8784 -1.0068 -0.0595
 9489SOL    HW230910   9.149   7.123   9.082 -0.6896 -0.4217 -0.4975
 9490SOL     OW30911   5.413   8.666   2.102 -0.2129 -0.4016  0.8675
 9490SOL    HW130912   5.379   8.603   2.165 -0.8501 -0.0410  0.8998
 9490SOL    HW230913   5.473   8.616   2.048 -1.1324 -1.1807  0.5314
 9491SOL     OW30914   9.505   2.645  10.481 -0.0871 -0.1171 -0.0221
 9491SOL    HW130915   9.472   2.561  10.514  1.7455 -0.4431  1.1011
 9491SOL    HW230916   9.442   2.710  10.513 -2.0645 -1.0797 -1.6857
 9492SOL     OW30917   0.152   6.849   1.743 -0.6694  0.2087  0.2677
 9492SOL    HW130918   0.222   6.899   1.702  0.7103 -1.6375  0.2331
 9492SOL    HW230919   0.120   6.791   1.674 -1.3234  0.1054  0.6469
 9493SOL     OW30920  10.220   4.300   3.137 -0.1619 -0.5930 -0.6227
 9493SOL    HW130921  10.286   4.302   3.206 -0.7316  0.4707 -0.0732
 9493SOL    HW230922  10.221   4.210   3.104  0.0510 -1.1485  0.8364
 9494SOL     OW30923   0.366   0.611   6.542 -0.1223 -0.5258 -0.1707
 9494SOL    HW130924   0.336   0.531   6.585 -1.2703 -0.7550 -1.3371
 9494SOL    HW230925   0.305   0.623   6.469  0.6895  0.8233 -0.6547
 9495SOL     OW30926   9.879   0.698   8.760  0.2421  0.2207  0.0264
 9495SOL    HW130927   9.855   0.767   8.698 -0.4027  0.6635  0.7581
 9495SOL    HW230928   9.903   0.624   8.704 -0.0616  0.6972 -0.7557
 9496SOL     OW30929  10.210   3.832   7.601  0.4523 -0.1829  0.8111
 9496SOL    HW130930  10.293   3.880   7.597  0.6193 -0.5285 -0.1111
 9496SOL    HW230931  10.230   3.755   7.654  0.8947 -0.5642  0.1157
 9497SOL     OW30932   6.871   8.661   8.685  0.4186 -0.6214 -0.1860
 9497SOL    HW130933   6.870   8.667   8.781  0.1459  1.1125 -0.2519
 9497SOL    HW230934   6.782   8.686   8.659  0.2417 -1.9147 -0.8731
 9498SOL     OW30935   2.776   6.252   2.008 -0.3180  0.2508 -0.0174
 9498SOL    HW130936   2.725   6.214   2.079 -0.3196  1.7059  0.8137
 9498SOL    HW230937   2.867   6.239   2.035 -0.2387 -1.2246 -0.8908
 9499SOL     OW30938   2.287   6.640   5.444  0.3318 -0.2366  0.4461
 9499SOL    HW130939   2.319   6.666   5.530  2.8877  0.7298 -0.6651
 9499SOL    HW230940   2.245   6.719   5.409  0.8533 -0.0624  0.1869
 9500SOL     OW30941  10.481   2.132   1.373  0.0717 -0.2318 -0.0680
 9500SOL    HW130942  10.471   2.151   1.280  1.6435 -0.6209 -0.3523
 9500SOL    HW230943  10.530   2.050   1.375 -0.0905 -0.3164  1.1161
 9501SOL     OW30944  10.179  10.199   5.476 -0.4165  0.1426 -0.1594
 9501SOL    HW130945  10.141  10.281   5.447  0.9072  0.8366  0.0030
 9501SOL    HW230946  10.204  10.215   5.567 -1.1314 -0.8003  0.2219
 9502SOL     OW30947   3.645   5.934   4.162  0.9115 -0.0679 -0.1349
 9502SOL    HW130948   3.623   5.840   4.162 -0.5682  0.2383 -1.2960
 9502SOL    HW230949   3.740   5.936   4.155  0.9256 -1.4829 -0.7487
 9503SOL     OW30950   6.407   0.218   7.812 -0.2040 -0.2435  0.1720
 9503SOL    HW130951   6.437   0.210   7.721  0.1640 -0.9713  0.3469
 9503SOL    HW230952   6.323   0.172   7.813  0.1364 -0.8721  0.3543
 9504SOL     OW30953   2.983   1.371   4.420  0.3110 -0.5623  0.1535
 9504SOL    HW130954   3.018   1.305   4.480 -1.4005 -2.2605 -0.6389
 9504SOL    HW230955   2.941   1.435   4.478 -0.2004 -1.4916  0.8377
 9505SOL     OW30956   0.096   8.450   4.775  0.2681 -0.0526  0.1809
 9505SOL    HW130957   0.122   8.360   4.795 -1.3002 -0.4357  0.6683
 9505SOL    HW230958   0.055   8.481   4.856  1.9321  1.5763  0.4532
 9506SOL     OW30959  10.377   1.214   1.251  0.2041  0.1481 -0.4011
 9506SOL    HW130960  10.438   1.141   1.236 -1.0382 -0.9301 -0.4123
 9506SOL    HW230961  10.430   1.280   1.296  1.5229 -0.5006 -0.9253
 9507SOL     OW30962   5.691   9.056   7.906 -0.0067  0.3004 -0.1292
 9507SOL    HW130963   5.784   9.056   7.931 -0.3458 -0.0777  1.2204
 9507SOL    HW230964   5.673   9.147   7.882  0.8284  0.2735 -0.9048
 9508SOL     OW30965   1.079   3.230   9.939 -0.3972  0.2796 -0.8072
 9508SOL    HW130966   1.064   3.298   9.874  2.2351 -0.3972 -2.2425
 9508SOL    HW230967   1.045   3.150   9.899 -1.3738  0.3286 -0.1050
 9509SOL     OW30968   0.982   9.411   4.395  0.0044 -0.1158 -0.2291
 9509SOL    HW130969   0.919   9.340   4.389 -1.9950  1.3581  1.6210
 9509SOL    HW230970   0.930   9.491   4.388  2.1241  1.2568 -2.0583
 9510SOL     OW30971   5.527   3.763   0.684  0.3010  0.7175 -0.3981
 9510SOL    HW130972   5.453   3.761   0.744  0.4115  1.0130 -0.2524
 9510SOL    HW230973   5.495   3.718   0.605  0.4043 -0.3424  0.1539
 9511SOL     OW30974   9.183   3.143   5.490  0.0799  0.0656 -0.3896
 9511SOL    HW130975   9.191   3.080   5.562  1.2358  1.1031  0.4309
 9511SOL    HW230976   9.220   3.224   5.525 -0.6780  1.0004 -1.6794
 9512SOL     OW30977   5.344   6.835  10.126  0.0404  0.0115 -0.1585
 9512SOL    HW130978   5.318   6.756  10.080  0.1936 -0.2915  0.2709
 9512SOL    HW230979   5.346   6.903  10.058  0.3441 -0.4461 -0.6097
 9513SOL     OW30980   1.705   6.138   2.908 -0.4457  0.1124 -0.0396
 9513SOL    HW130981   1.796   6.144   2.936 -0.3215  0.7762 -0.5572
 9513SOL    HW230982   1.710   6.105   2.818 -0.6964  0.3890 -0.1586
 9514SOL     OW30983   2.649   3.407   7.351 -0.3803  0.2030  0.0781
 9514SOL    HW130984   2.655   3.329   7.406 -0.1327  0.3523  0.2641
 9514SOL    HW230985   2.570   3.452   7.382 -0.9171 -0.3186 -0.4882
 9515SOL     OW30986  10.178   8.602   4.964  0.2879 -0.2562 -0.4808
 9515SOL    HW130987  10.119   8.527   4.952  1.6074 -1.2818 -0.8093
 9515SOL    HW230988  10.261   8.572   4.928  0.8973  1.3222 -0.4347
 9516SOL     OW30989   4.765   3.694   0.287 -0.0378 -0.7242 -0.7297
 9516SOL    HW130990   4.735   3.608   0.258 -0.3663 -1.2627  1.0876
 9516SOL    HW230991   4.855   3.679   0.317 -0.1172 -0.4548 -0.3460
 9517SOL     OW30992  10.149   8.429   6.395 -0.9602 -0.8314 -0.4607
 9517SOL    HW130993  10.065   8.427   6.349 -1.0773 -0.8414 -0.2483
 9517SOL    HW230994  10.139   8.364   6.466 -1.8240  1.1528  1.3562
 9518SOL     OW30995   8.357   0.438   7.098 -0.4250 -0.2307  0.2503
 9518SOL    HW130996   8.404   0.519   7.079  1.5316 -1.5416 -0.7831
 9518SOL    HW230997   8.361   0.430   7.194 -0.0519  0.5531  0.3071
 9519SOL     OW30998   3.390   7.968   0.585  0.0121  0.3989  0.3009
 9519SOL    HW130999   3.442   8.036   0.629 -0.0991  1.7972 -1.5783
 9519SOL    HW231000   3.454   7.901   0.561  0.4194  0.6315  0.7192
 9520SOL     OW31001   2.342   4.251   6.377  0.2205  0.0519 -0.9771
 9520SOL    HW131002   2.318   4.170   6.422  1.1046  0.2851 -0.0242
 9520SOL    HW231003   2.286   4.254   6.300 -1.0193 -0.6138 -0.1325
 9521SOL     OW31004   4.366   1.206   3.459  0.0778  0.1817 -0.1837
 9521SOL    HW131005   4.345   1.248   3.543  0.1560  0.9176 -0.5195
 9521SOL    HW231006   4.445   1.155   3.477  0.8330  1.3285 -0.0904
 9522SOL     OW31007   5.391   4.503   9.544 -0.5678  0.3918 -0.3116
 9522SOL    HW131008   5.478   4.464   9.538 -0.3592  1.0216 -1.9551
 9522SOL    HW231009   5.335   4.444   9.492 -0.5958  1.2881 -1.3470
 9523SOL     OW31010   9.011   9.148   2.206  0.0654  0.4196  0.4759
 9523SOL    HW131011   9.028   9.122   2.116 -0.4735 -0.7785  0.6921
 9523SOL    HW231012   8.923   9.114   2.224 -1.3379  3.6115  0.3804
 9524SOL     OW31013   6.168   3.180   3.825 -0.0116 -0.8434  0.2000
 9524SOL    HW131014   6.084   3.150   3.791 -0.4167  1.2937 -0.8682
 9524SOL    HW231015   6.147   3.258   3.876  1.3917  0.3093 -0.9044
 9525SOL     OW31016   6.585   2.876   5.221  0.2976 -0.1647  0.0282
 9525SOL    HW131017   6.600   2.880   5.126 -1.3113 -0.6246 -0.2770
 9525SOL    HW231018   6.500   2.918   5.234  0.3774 -0.3352  1.2439
 9526SOL     OW31019   4.873   8.674   8.703  0.0288 -0.6403  0.3730
 9526SOL    HW131020   4.874   8.608   8.772  0.2181  0.1200  1.1172
 9526SOL    HW231021   4.946   8.649   8.646 -0.9132 -2.0017 -0.2801
 9527SOL     OW31022   8.007   6.064   7.204  0.4358 -0.4425 -0.0415
 9527SOL    HW131023   7.992   5.969   7.206  2.2873 -0.7791 -0.6626
 9527SOL    HW231024   8.102   6.073   7.206  0.2741  1.4518  1.0208
 9528SOL     OW31025   3.998   2.609   8.096 -0.2200 -0.4502  0.3814
 9528SOL    HW131026   4.048   2.683   8.129  1.1042 -1.6029  1.0509
 9528SOL    HW231027   4.059   2.561   8.040 -0.8706 -1.3524  0.4206
 9529SOL     OW31028   9.016   0.290   1.844  0.5615  0.6019  0.2522
 9529SOL    HW131029   8.975   0.335   1.771  0.0629 -0.4048 -0.0943
 9529SOL    HW231030   8.973   0.327   1.922 -0.7920 -0.2016 -0.0862
 9530SOL     OW31031   4.835   5.339   4.032 -0.3676  0.0408  0.7786
 9530SOL    HW131032   4.762   5.282   4.057 -0.6956  0.6547  1.2478
 9530SOL    HW231033   4.824   5.351   3.937 -0.3378 -0.6156  0.6922
 9531SOL     OW31034   3.453   5.241   0.234  0.2501  0.0416 -0.0077
 9531SOL    HW131035   3.447   5.301   0.308 -0.3107 -1.3600  1.1496
 9531SOL    HW231036   3.536   5.194   0.248 -0.7762 -1.6051  0.8937
 9532SOL     OW31037   2.485   9.333   0.273  0.0712  0.6024 -0.2368
 9532SOL    HW131038   2.545   9.323   0.200  2.2946  0.4986  1.4768
 9532SOL    HW231039   2.443   9.247   0.282 -2.0865  1.2545 -2.7559
 9533SOL     OW31040   5.699   5.582   1.005  0.0504 -0.0956  0.1996
 9533SOL    HW131041   5.772   5.642   1.018  0.1627 -0.6089  2.3040
 9533SOL    HW231042   5.632   5.612   1.065 -0.3057 -1.4142  0.4992
 9534SOL     OW31043   6.609   6.272  10.390  0.1685 -0.3275 -0.0317
 9534SOL    HW131044   6.519   6.288  10.418  0.1207  0.5602 -0.6441
 9534SOL    HW231045   6.637   6.355  10.350  0.5224 -1.2765 -1.8374
 9535SOL     OW31046   5.927   0.826   3.689 -0.4936  0.2060 -0.1055
 9535SOL    HW131047   5.926   0.843   3.595  0.4114 -1.5868 -0.4955
 9535SOL    HW231048   5.834   0.825   3.715 -0.7310  1.0469 -0.8968
 9536SOL     OW31049   7.564   5.012   4.466 -0.1330 -0.4431 -0.1342
 9536SOL    HW131050   7.628   5.080   4.446 -0.6587  0.1451  0.1458
 9536SOL    HW231051   7.490   5.059   4.504 -0.5194 -1.1709  0.0341
 9537SOL     OW31052   1.073  10.042   2.199 -0.4857 -0.4213 -0.1856
 9537SOL    HW131053   1.040  10.036   2.289  0.9579 -3.2955  0.2687
 9537SOL    HW231054   1.164  10.071   2.209 -0.7137  0.5862 -0.8679
 9538SOL     OW31055   3.516   0.204   5.859  0.1830 -0.4358 -0.1484
 9538SOL    HW131056   3.560   0.124   5.888  1.7315  0.8302  1.1906
 9538SOL    HW231057   3.429   0.198   5.896  1.3651  0.0209  2.9871
 9539SOL     OW31058   7.385   6.454   9.664 -0.3050  0.5606 -0.0811
 9539SOL    HW131059   7.423   6.420   9.584  0.7216  2.5627 -0.5257
 9539SOL    HW231060   7.330   6.527   9.635 -1.6250 -0.0080  0.8829
 9540SOL     OW31061   6.582   4.778  10.302  1.3985  0.0232 -0.7319
 9540SOL    HW131062   6.598   4.783  10.207 -1.8550 -0.2607 -1.4374
 9540SOL    HW231063   6.532   4.858  10.322  1.2449 -0.3715  0.5394
 9541SOL     OW31064   5.362   4.057   0.856 -0.1158 -0.0704  0.0053
 9541SOL    HW131065   5.279   4.101   0.873 -0.7069 -1.4277  0.8487
 9541SOL    HW231066   5.429   4.125   0.866 -1.0650  0.8576  0.1453
 9542SOL     OW31067   9.418   4.163   2.852 -0.2147  0.4536  0.2720
 9542SOL    HW131068   9.475   4.198   2.783  2.2313 -0.0874  1.8675
 9542SOL    HW231069   9.371   4.091   2.809 -0.3742  1.4633 -1.3488
 9543SOL     OW31070   6.549   9.508   8.936 -0.5066  0.3419  0.9419
 9543SOL    HW131071   6.630   9.547   8.968  0.1513 -0.7941  0.7193
 9543SOL    HW231072   6.569   9.415   8.927 -1.4549  0.2265 -0.2924
 9544SOL     OW31073   7.052   6.912   1.966 -0.0437  0.1168 -0.1939
 9544SOL    HW131074   7.009   6.900   2.050  1.3757  1.5846  0.8023
 9544SOL    HW231075   7.121   6.976   1.983  1.1221 -0.5163 -2.1856
 9545SOL     OW31076   5.217   0.424   9.787 -0.0593  0.2717  0.0002
 9545SOL    HW131077   5.232   0.476   9.866  0.0362 -0.9531  0.8282
 9545SOL    HW231078   5.128   0.444   9.761 -0.9116 -0.9744  1.7572
 9546SOL     OW31079   9.707   4.664   6.874 -0.7412 -0.3808  0.2524
 9546SOL    HW131080   9.680   4.683   6.963  0.6751  1.7296  0.2947
 9546SOL    HW231081   9.723   4.570   6.873  0.3712 -0.2661  2.5576
 9547SOL     OW31082   8.398   5.338   8.918 -0.5015  0.2173  0.4499
 9547SOL    HW131083   8.344   5.331   8.839 -0.8480  0.7340  0.6396
 9547SOL    HW231084   8.482   5.370   8.886 -0.4019 -0.2833  0.1962
 9548SOL     OW31085   7.843   9.093   5.408 -0.0763  0.0132 -0.5847
 9548SOL    HW131086   7.783   9.079   5.334  0.1001  1.7112 -1.0817
 9548SOL    HW231087   7.812   9.173   5.449 -0.8512 -1.4534  1.9217
 9549SOL     OW31088   8.619   2.473   3.091  0.2224  0.3339  0.2301
 9549SOL    HW131089   8.564   2.526   3.034 -1.0147 -0.0380  1.0376
 9549SOL    HW231090   8.644   2.533   3.162  1.0421  0.5583 -0.2404
 9550SOL     OW31091   9.770  10.018   0.192 -0.4891  0.1023  0.3489
 9550SOL    HW131092   9.699  10.067   0.151  0.8337  1.4648 -0.3950
 9550SOL    HW231093   9.812  10.081   0.250  1.8833  0.2584 -1.3779
 9551SOL     OW31094   8.089   3.635   7.796  0.2792 -0.0844  0.7282
 9551SOL    HW131095   8.107   3.587   7.877  1.0583 -0.3802  0.4009
 9551SOL    HW231096   8.004   3.603   7.767 -0.4439  0.7168  1.9118
 9552SOL     OW31097   0.363   6.900   2.080 -0.1105 -0.3223  0.1292
 9552SOL    HW131098   0.438   6.861   2.125  0.4276  0.8624  0.3252
 9552SOL    HW231099   0.339   6.975   2.136  0.5895  1.2107 -1.5135
 9553SOL     OW31100   4.798   9.130   8.112 -0.2321 -0.1837 -0.6046
 9553SOL    HW131101   4.815   9.107   8.204 -0.8905 -1.0504 -0.6852
 9553SOL    HW231102   4.805   9.225   8.110 -1.8811  0.0131  0.7199
 9554SOL     OW31103   9.922   2.733   9.863 -0.5605  0.3331  0.1926
 9554SOL    HW131104   9.927   2.654   9.918  0.1787  0.7244  0.7042
 9554SOL    HW231105   9.940   2.702   9.774 -2.1141 -0.3670  0.0780
 9555SOL     OW31106   9.105   1.654   7.919 -0.6819 -0.0045 -0.1835
 9555SOL    HW131107   9.148   1.716   7.860 -0.5046 -0.3610 -0.4295
 9555SOL    HW231108   9.088   1.577   7.865 -1.0061 -0.1298  0.0921
 9556SOL     OW31109   9.326   4.556   4.959  0.2056 -0.1897  0.3060
 9556SOL    HW131110   9.346   4.512   4.876 -0.5650  2.1217 -1.2120
 9556SOL    HW231111   9.237   4.529   4.981 -0.7959  1.5693 -1.3554
 9557SOL     OW31112   0.158   2.730  10.371  0.5377 -0.1577 -0.4448
 9557SOL    HW131113   0.138   2.783  10.448 -1.1636  0.6000 -1.3452
 9557SOL    HW231114   0.122   2.779  10.298  2.0452 -0.8960 -1.7439
 9558SOL     OW31115   3.959   7.604   6.997 -0.0450 -0.5615 -0.2719
 9558SOL    HW131116   4.004   7.653   6.928 -1.1650  1.3660  0.2743
 9558SOL    HW231117   3.968   7.659   7.075 -0.4774 -1.7482  0.6422
 9559SOL     OW31118   1.989   0.268   0.286  0.5323  0.0910 -0.6476
 9559SOL    HW131119   1.932   0.339   0.256  1.1143  1.5348  1.4168
 9559SOL    HW231120   1.948   0.188   0.252  0.4617  1.3992 -4.0244
 9560SOL     OW31121   0.771   8.473   0.722 -0.1832  0.1451 -0.0718
 9560SOL    HW131122   0.692   8.527   0.722  0.7025  1.5178 -0.9561
 9560SOL    HW231123   0.843   8.535   0.705  1.0057 -1.1558 -0.0085
 9561SOL     OW31124   1.210   4.574   0.531 -0.0889  0.5359  0.2739
 9561SOL    HW131125   1.262   4.610   0.459  0.9279  0.6947  1.0761
 9561SOL    HW231126   1.193   4.648   0.589 -1.5444  0.5698 -0.1410
 9562SOL     OW31127   2.561   2.300   1.564 -0.3382  0.4491 -0.6154
 9562SOL    HW131128   2.501   2.252   1.620  1.6510 -0.1924  1.0777
 9562SOL    HW231129   2.558   2.253   1.480 -0.0098 -1.4065  0.3619
 9563SOL     OW31130   2.369   2.509   5.899  0.0960 -0.6821 -0.6481
 9563SOL    HW131131   2.352   2.415   5.904  0.2845 -0.6438  1.3267
 9563SOL    HW231132   2.362   2.540   5.989  2.2761  0.7882 -0.9036
 9564SOL     OW31133   3.746   7.382   1.838  0.1723 -0.2161 -0.3330
 9564SOL    HW131134   3.683   7.331   1.787  0.3751 -0.4111 -0.3900
 9564SOL    HW231135   3.760   7.461   1.786  1.2600 -0.9332 -1.1621
 9565SOL     OW31136   9.064   6.696   8.757  0.2724  0.2254 -0.3416
 9565SOL    HW131137   9.108   6.724   8.837 -1.0709 -1.0131  0.8734
 9565SOL    HW231138   9.044   6.778   8.711  0.6399  0.9827  0.8108
 9566SOL     OW31139   9.546   2.573   5.731  0.0567  0.5548  0.6380
 9566SOL    HW131140   9.590   2.584   5.816  0.3267 -0.2498  0.6138
 9566SOL    HW231141   9.617   2.554   5.670 -0.1629  0.8894  0.2782
 9567SOL     OW31142   6.577   4.638   6.581 -0.2565 -0.5173  0.2699
 9567SOL    HW131143   6.534   4.616   6.499  1.3441  0.8145 -0.9803
 9567SOL    HW231144   6.666   4.603   6.572 -0.3367 -1.2651  1.8950
 9568SOL     OW31145   1.348   9.878   0.630 -0.1065 -0.0901  0.3346
 9568SOL    HW131146   1.259   9.848   0.611 -0.2919  0.6067  0.0469
 9568SOL    HW231147   1.396   9.799   0.652 -0.2860 -0.7599 -1.4763
 9569SOL     OW31148   0.754   5.239   6.142  0.1063 -0.1741  0.1453
 9569SOL    HW131149   0.836   5.274   6.177  0.5937  0.6056 -1.6791
 9569SOL    HW231150   0.765   5.144   6.146  1.3013 -0.0854 -0.4839
 9570SOL     OW31151   2.186   6.766   2.634 -0.0054 -0.1952  0.3528
 9570SOL    HW131152   2.174   6.674   2.611 -0.1026 -0.5065  1.5829
 9570SOL    HW231153   2.208   6.765   2.727  0.1296  1.0234  0.3540
 9571SOL     OW31154   3.117   7.986   5.804  0.0082  0.5595 -0.5312
 9571SOL    HW131155   3.063   7.914   5.772  1.8760 -0.5715 -1.2793
 9571SOL    HW231156   3.199   7.945   5.832  0.1693  2.0947  1.5167
 9572SOL     OW31157   7.617   8.566  10.433  0.0116 -0.4396 -0.0861
 9572SOL    HW131158   7.592   8.658  10.440  0.2706 -0.4545  1.4260
 9572SOL    HW231159   7.547   8.526  10.382 -1.1073  0.2472  0.8676
 9573SOL     OW31160   1.935   3.290   2.116 -0.3445  0.2710  0.5866
 9573SOL    HW131161   1.881   3.290   2.195 -1.3075 -0.0807 -0.0475
 9573SOL    HW231162   2.015   3.335   2.142 -1.1747  1.3329  1.4069
 9574SOL     OW31163   4.864   8.700   9.919  0.2026 -0.3197  0.5893
 9574SOL    HW131164   4.845   8.777   9.973  0.1456 -1.5297  2.3712
 9574SOL    HW231165   4.779   8.672   9.887  0.3759  1.2410 -1.4059
 9575SOL     OW31166   3.852   4.426   5.074 -0.4278  0.2884  0.3316
 9575SOL    HW131167   3.921   4.411   5.009 -0.3838 -0.0780  0.4576
 9575SOL    HW231168   3.777   4.377   5.041  0.2018 -1.6323  1.5600
 9576SOL     OW31169   6.960   4.073   4.565 -0.8697 -0.4864 -0.4074
 9576SOL    HW131170   6.896   4.010   4.599  0.2252 -3.2984 -3.0854
 9576SOL    HW231171   6.916   4.113   4.489 -0.1597 -1.0385 -1.1243
 9577SOL     OW31172  10.252   4.396   8.943 -0.5281  0.1278 -0.1182
 9577SOL    HW131173  10.216   4.466   8.997  1.1150  0.7809  0.1772
 9577SOL    HW231174  10.338   4.378   8.981 -0.7753 -1.8466 -0.3772
 9578SOL     OW31175   3.013   0.394   6.844  0.0983 -0.0347  0.1192
 9578SOL    HW131176   3.046   0.481   6.824  0.7946 -0.0757  1.0363
 9578SOL    HW231177   3.020   0.387   6.939  0.3431 -1.2041  0.0311
 9579SOL     OW31178   0.867   4.679   5.826  0.5434  0.0549 -0.3378
 9579SOL    HW131179   0.805   4.737   5.782 -1.3865 -1.5011  0.1440
 9579SOL    HW231180   0.833   4.672   5.916  1.5168 -0.7403 -0.0102
 9580SOL     OW31181   0.874   8.532   6.148 -0.7688  0.9682 -0.0298
 9580SOL    HW131182   0.964   8.523   6.118 -0.8289  0.2009 -0.0129
 9580SOL    HW231183   0.880   8.528   6.243 -1.0277 -1.5914 -0.0611
 9581SOL     OW31184   5.384   7.218   6.973  0.0857  0.0053 -0.4022
 9581SOL    HW131185   5.346   7.140   7.014  2.4447 -0.3261  1.3867
 9581SOL    HW231186   5.420   7.187   6.890 -1.2009 -0.2087 -0.9080
 9582SOL     OW31187   9.573   4.171   2.482 -0.2322  0.0163  0.3904
 9582SOL    HW131188   9.654   4.132   2.513 -0.2321  0.2374  0.6721
 9582SOL    HW231189   9.518   4.097   2.456 -0.6662 -0.2519  1.9562
 9583SOL     OW31190   4.100   9.480   0.483 -0.3559  0.4599 -0.0492
 9583SOL    HW131191   4.101   9.386   0.497 -1.2664  0.4537 -0.0055
 9583SOL    HW231192   4.032   9.495   0.418 -2.6192  1.3663  2.3646
 9584SOL     OW31193   0.573   1.773   1.215  0.5993 -0.0898  0.6894
 9584SOL    HW131194   0.659   1.805   1.188  0.6337 -0.4517  0.3419
 9584SOL    HW231195   0.578   1.768   1.310  1.9728 -2.7496  0.5878
 9585SOL     OW31196   1.333   1.435   6.091  0.1395 -0.2844 -0.0181
 9585SOL    HW131197   1.415   1.446   6.043 -0.5202  1.0223 -0.9149
 9585SOL    HW231198   1.310   1.523   6.119 -1.9005 -0.2869 -1.4475
 9586SOL     OW31199   1.605   0.147   5.766  0.0874  0.1778  0.5286
 9586SOL    HW131200   1.552   0.212   5.720  0.6812  0.4785  0.2487
 9586SOL    HW231201   1.654   0.103   5.696  0.5177  0.1974  0.8133
 9587SOL     OW31202   7.575   9.808   5.978  0.4743  0.6624  0.2351
 9587SOL    HW131203   7.624   9.743   6.028 -0.9577  0.5533  1.5879
 9587SOL    HW231204   7.641   9.872   5.951  1.7161 -0.7050 -0.1146
 9588SOL     OW31205   4.489   2.135   9.882 -0.7183 -0.4821  0.4388
 9588SOL    HW131206   4.490   2.164   9.973  0.7542  0.9291  0.0148
 9588SOL    HW231207   4.571   2.086   9.871 -0.5808 -0.1144 -0.2696
 9589SOL     OW31208   8.013   3.489   6.283  0.6620 -0.1401 -0.2882
 9589SOL    HW131209   7.934   3.445   6.249 -0.9271  2.4022 -0.1463
 9589SOL    HW231210   7.985   3.527   6.366  2.7341 -1.0388  0.8820
 9590SOL     OW31211  10.211   1.534   1.832 -0.6989  0.5123 -0.3082
 9590SOL    HW131212  10.280   1.563   1.891  0.6269 -1.0384 -1.0476
 9590SOL    HW231213  10.256   1.511   1.751 -1.7460 -2.5122 -0.1494
 9591SOL     OW31214   9.450   9.764   0.373  0.2446 -0.9658 -0.4206
 9591SOL    HW131215   9.507   9.757   0.296 -0.7863 -2.4778 -1.0883
 9591SOL    HW231216   9.481   9.695   0.432  1.6616  0.8001  1.0259
 9592SOL     OW31217   9.188   2.880   7.863 -0.5227  0.1102 -0.3460
 9592SOL    HW131218   9.158   2.794   7.834  0.1545  0.5107 -2.3155
 9592SOL    HW231219   9.115   2.939   7.843 -0.6479  0.1643  0.2260
 9593SOL     OW31220   0.170   6.985   6.178 -0.1976  0.2294  0.1642
 9593SOL    HW131221   0.126   7.068   6.191  0.6855  0.6979  0.2202
 9593SOL    HW231222   0.195   6.985   6.085  0.9260  0.6021  0.4523
 9594SOL     OW31223   3.180   6.912   9.474  0.0727  0.4307 -0.4412
 9594SOL    HW131224   3.115   6.957   9.419 -0.2392  2.2194  1.2479
 9594SOL    HW231225   3.227   6.983   9.517  0.8620 -0.8756  0.9330
 9595SOL     OW31226   8.493   4.241   5.002  0.1441  0.2685 -0.0200
 9595SOL    HW131227   8.492   4.280   4.915  0.8801 -0.0258 -0.1692
 9595SOL    HW231228   8.510   4.148   4.986 -2.6176 -0.3612  0.2475
 9596SOL     OW31229   6.070   1.354   2.310  0.0454  0.2275 -0.2549
 9596SOL    HW131230   6.075   1.429   2.251 -0.2963  0.3720 -0.1015
 9596SOL    HW231231   6.035   1.284   2.255 -2.5287  0.9636  0.3155
 9597SOL     OW31232   6.496   6.433   1.242  0.2555  0.6415  0.3988
 9597SOL    HW131233   6.458   6.351   1.273  0.1649  0.8312  0.7919
 9597SOL    HW231234   6.425   6.497   1.250  0.4718  0.8636  0.5628
 9598SOL     OW31235   6.885   9.535   7.507  0.0603  0.3315  0.0759
 9598SOL    HW131236   6.813   9.536   7.444 -0.3290  2.6179  0.4586
 9598SOL    HW231237   6.842   9.542   7.592  0.6561 -0.8881  0.4974
 9599SOL     OW31238   3.316   7.608   7.023 -0.0758  0.0111 -0.3042
 9599SOL    HW131239   3.354   7.598   6.935 -0.3709  0.0213 -0.4335
 9599SOL    HW231240   3.222   7.596   7.010 -0.0679 -0.5402  0.1029
 9600SOL     OW31241   4.484   1.927   0.332  0.1949  0.0284 -0.1147
 9600SOL    HW131242   4.401   1.913   0.286 -0.1683 -3.0749  1.1775
 9600SOL    HW231243   4.462   1.915   0.424  1.8932  0.2948  0.3576
 9601SOL     OW31244   6.085   8.657   1.828  0.0184  0.2287 -0.3433
 9601SOL    HW131245   6.144   8.731   1.841  1.9658 -0.8681 -2.3173
 9601SOL    HW231246   6.027   8.683   1.756  0.9501 -0.2600 -1.2921
 9602SOL     OW31247   1.555   1.550   6.622 -0.3043 -0.1859 -0.2906
 9602SOL    HW131248   1.481   1.490   6.634 -0.3083 -0.0014  0.7475
 9602SOL    HW231249   1.564   1.593   6.707 -0.6481  1.7032 -1.1665
 9603SOL     OW31250   5.492   6.088   4.061  0.1338 -0.3287 -0.8419
 9603SOL    HW131251   5.420   6.045   4.108  0.8659 -0.3997  0.2424
 9603SOL    HW231252   5.481   6.060   3.971 -1.9823  0.7106 -0.9743
 9604SOL     OW31253   8.059  10.001   5.107  0.1389 -0.0838 -0.1935
 9604SOL    HW131254   8.145  10.003   5.147  0.8874  0.3570 -1.7440
 9604SOL    HW231255   8.007  10.062   5.159  1.3514  1.2442 -0.4876
 9605SOL     OW31256   7.235   8.239   7.797 -0.2727 -0.0608  0.2297
 9605SOL    HW131257   7.263   8.272   7.711  1.0166  0.0396  0.6768
 9605SOL    HW231258   7.148   8.201   7.780  0.2931 -0.7637 -1.2949
 9606SOL     OW31259   1.386   3.255   0.210  0.5268  0.5279  0.2926
 9606SOL    HW131260   1.338   3.191   0.157  0.3730  0.7673  0.1357
 9606SOL    HW231261   1.420   3.317   0.146  1.3099  0.1922  0.3793
 9607SOL     OW31262   0.309   9.215   2.337 -0.4492 -0.1118  0.1144
 9607SOL    HW131263   0.237   9.160   2.370  0.2939 -0.2928  1.5280
 9607SOL    HW231264   0.310   9.290   2.396 -0.5715  0.7680 -0.9689
 9608SOL     OW31265   1.770   9.497   3.670 -0.1574 -0.3630 -0.2141
 9608SOL    HW131266   1.814   9.417   3.641 -0.7115 -0.5321 -0.6195
 9608SOL    HW231267   1.693   9.466   3.717 -0.5848 -0.0750 -0.7078
 9609SOL     OW31268   5.455   3.932   2.247 -0.6678  0.6686  0.2327
 9609SOL    HW131269   5.401   3.886   2.183 -1.4802  0.8260  0.7744
 9609SOL    HW231270   5.407   3.922   2.330 -1.5219  3.4631  0.1805
 9610SOL     OW31271   6.779   9.124   5.301  0.5226 -0.5607 -0.0383
 9610SOL    HW131272   6.802   9.132   5.208  1.6661  0.1863  0.2955
 9610SOL    HW231273   6.846   9.175   5.347 -0.5375 -0.1962  1.1431
 9611SOL     OW31274   1.607   9.888   5.412  0.3408  0.3334 -0.0127
 9611SOL    HW131275   1.646   9.831   5.478  0.8925  2.5618  1.7321
 9611SOL    HW231276   1.609   9.838   5.331  0.8192 -2.0488  1.3926
 9612SOL     OW31277   9.054   6.651   5.478  0.3555 -1.0743 -0.1673
 9612SOL    HW131278   8.997   6.635   5.404 -0.6362  0.0535  0.3294
 9612SOL    HW231279   9.020   6.594   5.547  0.8395 -1.5953 -0.3499
 9613SOL     OW31280   0.679  10.217   2.124 -0.4167 -0.0859 -0.3042
 9613SOL    HW131281   0.769  10.220   2.091 -0.5040 -0.4299 -0.5834
 9613SOL    HW231282   0.671  10.129   2.163 -0.0257  0.6255  1.4844
 9614SOL     OW31283   4.376   8.310   4.897 -0.3513 -0.2511  0.0161
 9614SOL    HW131284   4.341   8.397   4.917 -0.0957 -0.0980 -0.2082
 9614SOL    HW231285   4.344   8.255   4.969 -0.8313 -0.0539 -0.0398
 9615SOL     OW31286   6.164   9.466   4.637 -0.1299  0.1085  0.1132
 9615SOL    HW131287   6.094   9.442   4.698 -0.0092 -2.5153 -0.6435
 9615SOL    HW231288   6.155   9.403   4.565  1.1039  1.7073 -1.5205
 9616SOL     OW31289   0.362   5.101   7.789  0.3405  0.0538  0.9469
 9616SOL    HW131290   0.403   5.020   7.819 -0.1556 -0.9707 -0.9631
 9616SOL    HW231291   0.400   5.116   7.702 -2.6158 -0.4630 -0.5395
 9617SOL     OW31292   8.668   4.742   4.690 -0.7585 -0.4544 -0.1399
 9617SOL    HW131293   8.709   4.701   4.613 -1.2823  1.1492 -1.3429
 9617SOL    HW231294   8.734   4.735   4.759  2.3615  3.1867 -2.2953
 9618SOL     OW31295   9.890   6.730   2.721  0.4610  0.2262  0.3374
 9618SOL    HW131296   9.930   6.801   2.771  1.3477 -0.7670  1.0715
 9618SOL    HW231297   9.891   6.761   2.630  1.7636  0.7317  0.5060
 9619SOL     OW31298   1.040   3.436   8.672  0.5250 -0.5837  0.0406
 9619SOL    HW131299   1.036   3.531   8.676  0.7014 -0.6184  3.1595
 9619SOL    HW231300   0.949   3.407   8.674  0.5046 -0.5148  0.0839
 9620SOL     OW31301   4.636  10.441   6.371 -0.0514  0.1675  0.0647
 9620SOL    HW131302   4.634  10.429   6.466  0.7925 -0.9018 -0.0337
 9620SOL    HW231303   4.572  10.378   6.338  0.6143 -0.3902 -0.1568
 9621SOL     OW31304   5.200   5.603   1.170  0.1855  0.8803  0.2530
 9621SOL    HW131305   5.177   5.696   1.181 -0.3636  0.9997 -1.5849
 9621SOL    HW231306   5.163   5.561   1.248 -1.7625  1.8667 -0.0547
 9622SOL     OW31307  10.002   0.282   2.655  0.1703 -0.4145  0.2557
 9622SOL    HW131308  10.050   0.360   2.626  0.7805 -1.0212 -0.3958
 9622SOL    HW231309  10.066   0.212   2.654 -0.5580 -1.0960  0.0852
 9623SOL     OW31310   8.076   7.401   8.889  0.5558  0.1420 -0.2564
 9623SOL    HW131311   8.074   7.412   8.794  1.1473  1.1015 -0.1757
 9623SOL    HW231312   8.156   7.446   8.916  1.5555 -1.9808  0.4878
 9624SOL     OW31313   5.460   3.671   6.121 -0.2347 -0.1169  0.2445
 9624SOL    HW131314   5.545   3.682   6.078  0.3709  0.8038  1.5986
 9624SOL    HW231315   5.411   3.613   6.063  0.8808  0.2992 -1.1691
 9625SOL     OW31316   8.814   9.877   8.715  0.0416  0.6410  0.5690
 9625SOL    HW131317   8.801   9.812   8.784  0.2763  0.4050  0.3930
 9625SOL    HW231318   8.852   9.953   8.760 -2.4413  1.5938  1.2143
 9626SOL     OW31319   9.490   5.406   3.973  0.2537  0.6721 -0.5768
 9626SOL    HW131320   9.564   5.462   3.951 -0.3085  2.1487  1.1041
 9626SOL    HW231321   9.505   5.326   3.922  2.1260  1.5536 -1.5084
 9627SOL     OW31322   9.405   3.973   2.400 -0.0928 -0.0458  0.0135
 9627SOL    HW131323   9.395   3.880   2.380  0.0297  0.2897 -1.7659
 9627SOL    HW231324   9.324   4.014   2.371 -0.5284  0.3110  1.6298
 9628SOL     OW31325   8.071   5.144   1.353 -0.2259  0.1465 -0.1681
 9628SOL    HW131326   8.068   5.234   1.385 -1.4548  0.6971 -1.7140
 9628SOL    HW231327   7.980   5.114   1.357 -0.1086 -0.4054 -1.3269
 9629SOL     OW31328   9.867   5.076   3.036  0.6377 -0.2762  0.0001
 9629SOL    HW131329   9.848   5.064   2.943  0.0063 -0.6508  0.1670
 9629SOL    HW231330   9.938   5.015   3.054 -0.2926 -1.3596  0.0981
 9630SOL     OW31331   7.226   3.079   6.491 -0.7126 -0.2537 -0.1377
 9630SOL    HW131332   7.265   3.018   6.553 -2.1294  0.5010  1.5812
 9630SOL    HW231333   7.277   3.160   6.502 -0.5644 -0.3003 -0.4500
 9631SOL     OW31334   5.176   2.670   0.421 -0.4228  0.2412 -0.0372
 9631SOL    HW131335   5.223   2.741   0.377 -1.2266  0.7557 -0.0938
 9631SOL    HW231336   5.092   2.665   0.375 -0.2302 -1.0159 -0.2865
 9632SOL     OW31337   9.335   5.873   3.606 -0.1110 -0.0243  0.2474
 9632SOL    HW131338   9.281   5.795   3.604 -0.0478 -0.0616 -0.9089
 9632SOL    HW231339   9.273   5.946   3.602 -0.1505 -0.0144  0.9020
 9633SOL     OW31340   1.760   9.448   2.711  0.3572  0.6874  0.0108
 9633SOL    HW131341   1.843   9.406   2.734  0.2709  0.7469  0.4426
 9633SOL    HW231342   1.737   9.412   2.626  0.9987  0.9288 -0.2689
 9634SOL     OW31343   1.754   0.404   0.133  0.0705  0.2712  0.9774
 9634SOL    HW131344   1.668   0.401   0.173 -0.2422 -0.5974  0.2475
 9634SOL    HW231345   1.740   0.380   0.041  0.9334  1.1509  0.5867
 9635SOL     OW31346   7.433   8.542   5.713 -0.3005 -0.2076  1.1886
 9635SOL    HW131347   7.526   8.545   5.692 -0.5961 -0.7001 -0.2513
 9635SOL    HW231348   7.430   8.503   5.801  0.7662 -1.6366  0.6299
 9636SOL     OW31349   6.666   1.731   8.157 -0.6390 -0.2523 -0.6318
 9636SOL    HW131350   6.722   1.753   8.083  1.2936  0.2733  0.8956
 9636SOL    HW231351   6.658   1.635   8.153 -1.3906 -0.1631 -2.0357
 9637SOL     OW31352   1.228   5.621   2.641  0.3497  0.5439 -0.4765
 9637SOL    HW131353   1.149   5.647   2.689 -1.5712  1.3024 -3.7045
 9637SOL    HW231354   1.219   5.526   2.630  0.8961  0.3354  0.7141
 9638SOL     OW31355  10.450   3.972   4.891  0.2702  0.1388  0.9721
 9638SOL    HW131356  10.449   4.036   4.962  4.6430  1.2677  0.3401
 9638SOL    HW231357  10.518   3.909   4.918  0.3935 -0.7053 -1.1633
 9639SOL     OW31358   8.165  10.071   6.291  0.4674 -0.0604  0.0840
 9639SOL    HW131359   8.109  10.046   6.365  1.2982  0.0057  0.7545
 9639SOL    HW231360   8.114  10.136   6.244 -0.1453 -0.2187  0.5122
 9640SOL     OW31361   5.275   0.447   4.591  0.6482 -0.2567 -0.0303
 9640SOL    HW131362   5.355   0.455   4.643  0.4483 -0.6727  0.3455
 9640SOL    HW231363   5.209   0.414   4.652  0.6976 -1.9131 -0.7944
 9641SOL     OW31364   5.004   9.427   2.999 -0.0694  0.1839 -0.4507
 9641SOL    HW131365   4.974   9.459   3.084 -1.6288  0.9855 -1.2725
 9641SOL    HW231366   4.930   9.378   2.963  0.6686 -0.3967 -1.2329
 9642SOL     OW31367   2.288   1.257   4.705  0.3127 -0.1163 -0.1752
 9642SOL    HW131368   2.352   1.318   4.669  2.0194 -2.0956 -0.7147
 9642SOL    HW231369   2.332   1.217   4.779  0.3118 -2.4958 -1.3486
 9643SOL     OW31370   1.687   9.527   8.117  0.3426 -0.5393  0.8185
 9643SOL    HW131371   1.645   9.444   8.098  0.7829 -0.4939 -0.4771
 9643SOL    HW231372   1.681   9.576   8.035  2.4039 -0.3325  0.7377
 9644SOL     OW31373   0.023   1.760   6.281 -0.0329 -0.2608 -0.4740
 9644SOL    HW131374   0.016   1.778   6.187 -2.7820  2.0301  0.0482
 9644SOL    HW231375  -0.066   1.771   6.314  0.8171 -1.2240  2.4172
 9645SOL     OW31376   5.947   1.666   1.460 -0.0059 -0.7750 -0.2448
 9645SOL    HW131377   6.025   1.610   1.464  0.4044 -0.1480  1.3599
 9645SOL    HW231378   5.923   1.680   1.552 -1.8844 -0.7506 -0.6934
 9646SOL     OW31379   1.129   5.992   8.121 -0.1259  0.1518 -0.6905
 9646SOL    HW131380   1.136   6.076   8.076  3.2451 -0.4736 -1.5831
 9646SOL    HW231381   1.137   6.014   8.214  1.1228  0.8523 -0.9349
 9647SOL     OW31382   9.522   1.805   5.964 -0.5834 -0.5864  0.3769
 9647SOL    HW131383   9.433   1.770   5.961 -0.4906 -0.8501  0.6842
 9647SOL    HW231384   9.526   1.865   5.889 -0.7487 -1.2126 -0.1487
 9648SOL     OW31385   9.792   8.654   3.303 -0.5098 -0.2269  0.1130
 9648SOL    HW131386   9.725   8.588   3.286 -1.7856  0.7993  0.9478
 9648SOL    HW231387   9.768   8.728   3.247 -1.9622  1.3237  2.5570
 9649SOL     OW31388   7.774   1.631   2.758 -0.1627  0.1584 -0.1059
 9649SOL    HW131389   7.681   1.643   2.735 -0.0885  0.5530 -0.2079
 9649SOL    HW231390   7.804   1.719   2.783  0.3381  0.1459 -0.6447
 9650SOL     OW31391   7.668   5.172   3.332 -0.1102 -0.0986 -0.0541
 9650SOL    HW131392   7.756   5.203   3.356  0.8544 -2.3296 -0.4472
 9650SOL    HW231393   7.609   5.221   3.389  1.4198  1.1477  0.5357
 9651SOL     OW31394   5.776   3.145   4.243  0.0419 -0.4614 -0.2491
 9651SOL    HW131395   5.689   3.130   4.206 -0.1946 -1.2842  0.5711
 9651SOL    HW231396   5.822   3.062   4.229 -0.4188 -1.2220  2.1498
 9652SOL     OW31397   1.630   1.672   2.686 -0.1301 -0.3155 -0.2701
 9652SOL    HW131398   1.721   1.652   2.667  0.0847  0.9610 -0.6482
 9652SOL    HW231399   1.632   1.725   2.766 -0.4387  0.6682 -0.9004
 9653SOL     OW31400   3.711   5.127   3.552 -0.3042  0.2156 -0.6707
 9653SOL    HW131401   3.760   5.080   3.620 -0.2856 -1.4021 -1.7402
 9653SOL    HW231402   3.696   5.214   3.589  0.4272 -0.3422  1.0528
 9654SOL     OW31403   0.648   8.106   4.251 -0.3090  0.5228  0.1346
 9654SOL    HW131404   0.722   8.044   4.249 -1.9561 -1.7613  2.5157
 9654SOL    HW231405   0.591   8.077   4.181 -1.1321 -0.8820  1.3154
 9655SOL     OW31406   5.324   0.965   8.068  0.4780 -0.1649  0.0043
 9655SOL    HW131407   5.369   0.936   8.148 -0.1219  0.3669  0.5422
 9655SOL    HW231408   5.252   0.903   8.057  0.7000 -0.3803 -0.2665
 9656SOL     OW31409   4.143   4.502   5.717  0.2590 -0.1883 -0.7869
 9656SOL    HW131410   4.151   4.596   5.734  0.0846  0.1679 -2.4737
 9656SOL    HW231411   4.194   4.461   5.787  0.9388  1.1851 -0.4221
 9657SOL     OW31412   2.098   1.564   3.126  0.4413  0.0623  0.4950
 9657SOL    HW131413   2.062   1.510   3.055 -2.0067  0.2385  1.4793
 9657SOL    HW231414   2.127   1.644   3.083 -1.3953  0.3518 -0.3169
 9658SOL     OW31415   8.443   6.493   1.608  0.2778 -0.1813 -0.1026
 9658SOL    HW131416   8.381   6.555   1.568  1.8291  1.0404 -0.7452
 9658SOL    HW231417   8.525   6.510   1.562  1.0941 -1.7534  0.7235
 9659SOL     OW31418   2.899   8.194   3.842 -0.1991 -0.0254 -0.1423
 9659SOL    HW131419   2.868   8.182   3.932  1.7695 -0.8453  0.4737
 9659SOL    HW231420   2.878   8.285   3.821 -0.7139  0.1677  1.1132
 9660SOL     OW31421   0.803   7.702   7.500  0.2519 -0.2231  0.3325
 9660SOL    HW131422   0.782   7.753   7.578  0.2779  0.9950 -0.4302
 9660SOL    HW231423   0.880   7.745   7.463  0.1084 -0.6402 -0.4888
 9661SOL     OW31424   8.649   5.126   2.654  0.0441  0.6078 -0.7558
 9661SOL    HW131425   8.665   5.173   2.736  1.7036 -0.2553 -0.5475
 9661SOL    HW231426   8.728   5.074   2.640 -1.5841 -1.9414 -1.0897
 9662SOL     OW31427   7.522   3.063   6.526 -0.3608 -0.0887  0.1284
 9662SOL    HW131428   7.481   3.146   6.549  0.0246  0.8218 -2.2202
 9662SOL    HW231429   7.616   3.083   6.523 -0.1864 -0.8380  0.3233
 9663SOL     OW31430   8.065   2.029   6.841  0.2453  0.1140 -0.2625
 9663SOL    HW131431   8.155   2.000   6.858  1.1367  2.7951  0.1465
 9663SOL    HW231432   8.058   2.113   6.886 -2.6226 -0.1651 -0.0023
 9664SOL     OW31433   1.231   9.796   4.852  0.0951  0.0441 -0.0908
 9664SOL    HW131434   1.282   9.808   4.772 -1.1704  2.2321 -0.6349
 9664SOL    HW231435   1.297   9.780   4.920  1.3483  0.6890 -1.1207
 9665SOL     OW31436   6.080   5.204   3.017 -0.2030  0.2044 -0.2389
 9665SOL    HW131437   6.132   5.262   2.961 -0.2719  1.5519  1.0099
 9665SOL    HW231438   6.117   5.218   3.105 -1.8226  0.2012  0.4679
 9666SOL     OW31439   6.013   6.857   8.091  0.1485  0.0995  0.1112
 9666SOL    HW131440   6.106   6.868   8.073  0.4737 -1.7256  0.4558
 9666SOL    HW231441   5.998   6.907   8.171  0.4386  1.7180 -0.7976
 9667SOL     OW31442   3.603   2.650   2.404  0.3971  0.4464  0.2125
 9667SOL    HW131443   3.685   2.622   2.445 -0.4701  0.4022  2.0253
 9667SOL    HW231444   3.588   2.586   2.334  1.6550  0.1837  0.1598
 9668SOL     OW31445   3.563   2.600   7.956  0.2740  0.0731  0.4156
 9668SOL    HW131446   3.646   2.638   7.984  0.7170 -1.9056  2.0053
 9668SOL    HW231447   3.529   2.662   7.890  1.9187  2.0329  1.3032
 9669SOL     OW31448   1.086   1.259  10.334 -0.2848  0.2683  0.0280
 9669SOL    HW131449   0.995   1.287  10.320 -0.0116  0.9589 -0.4373
 9669SOL    HW231450   1.136   1.341  10.335  0.1810 -0.0045  1.5825
 9670SOL     OW31451   8.955   7.196   6.662  0.8081  0.1370 -0.2172
 9670SOL    HW131452   8.938   7.277   6.613  0.6654  0.0321 -0.3376
 9670SOL    HW231453   8.895   7.132   6.626 -1.5054  0.8193  2.1339
 9671SOL     OW31454   7.749   4.470   8.262  0.6653  0.2827  0.1799
 9671SOL    HW131455   7.749   4.466   8.166 -0.2652 -2.9160  0.2020
 9671SOL    HW231456   7.657   4.461   8.286  0.8432  1.4306  1.4127
 9672SOL     OW31457   3.806   2.099   9.581  0.4123 -0.0856  0.0528
 9672SOL    HW131458   3.722   2.090   9.626  0.3618  0.5846  0.0963
 9672SOL    HW231459   3.842   2.010   9.581  0.3050 -0.1481  1.2142
 9673SOL     OW31460   5.383   9.673   1.186 -0.0198 -0.3378 -0.6999
 9673SOL    HW131461   5.479   9.674   1.181  0.0411 -1.5381 -0.0930
 9673SOL    HW231462   5.354   9.710   1.102  0.9664  0.3697 -0.7460
 9674SOL     OW31463   2.420   0.670   4.606  0.1888 -0.0350  0.0521
 9674SOL    HW131464   2.446   0.613   4.534  0.5339  1.2007 -0.8402
 9674SOL    HW231465   2.387   0.749   4.563 -1.1007  0.1087  1.2428
 9675SOL     OW31466   4.192   4.897   0.972  0.0947 -0.2592 -0.0914
 9675SOL    HW131467   4.112   4.869   0.927  0.7551 -0.5247 -1.1371
 9675SOL    HW231468   4.184   4.862   1.060 -0.4458 -1.2195 -0.5090
 9676SOL     OW31469   4.977   5.438   9.595  0.5974  0.1578  0.6518
 9676SOL    HW131470   5.061   5.394   9.604  0.4123  0.0054  1.7519
 9676SOL    HW231471   4.997   5.522   9.553  1.4707  0.6517  1.9950
 9677SOL     OW31472   0.482   6.325   7.475  0.1154  0.0473  0.8414
 9677SOL    HW131473   0.499   6.318   7.381  1.3546  0.3168  1.0276
 9677SOL    HW231474   0.432   6.406   7.484  2.5573  1.6815  0.6823
 9678SOL     OW31475   2.130   3.104   0.948  0.9419  0.8095 -0.0995
 9678SOL    HW131476   2.065   3.174   0.959 -0.0704 -0.0857 -0.2303
 9678SOL    HW231477   2.083   3.024   0.972  1.4101 -0.0851 -1.9730
 9679SOL     OW31478   5.411   1.512  10.004  0.0659 -0.2923  0.1162
 9679SOL    HW131479   5.493   1.520  10.051 -1.2357 -1.1409  2.7149
 9679SOL    HW231480   5.360   1.588  10.031  0.2043  0.6497 -2.0730
 9680SOL     OW31481  10.334   5.284   7.046 -0.0666 -0.4449  0.0074
 9680SOL    HW131482  10.251   5.237   7.045 -0.0644 -0.7750  3.3560
 9680SOL    HW231483  10.400   5.216   7.063  0.9217 -0.1345 -2.2192
 9681SOL     OW31484   6.747   6.983   3.133 -0.2278 -0.3645 -0.1341
 9681SOL    HW131485   6.654   6.960   3.128 -0.5215  0.5574  0.7283
 9681SOL    HW231486   6.792   6.899   3.131 -1.0670 -0.8191 -0.7688
 9682SOL     OW31487   0.211   6.275   2.592 -0.4975 -0.7695  0.6672
 9682SOL    HW131488   0.235   6.244   2.680  1.5140  0.9741  0.8261
 9682SOL    HW231489   0.259   6.358   2.583 -2.3533  0.1579 -1.2809
 9683SOL     OW31490   9.603   5.586   5.189 -0.6746 -0.3590  0.4646
 9683SOL    HW131491   9.555   5.617   5.112 -1.8555 -1.1794  0.8577
 9683SOL    HW231492   9.545   5.601   5.263 -0.0749 -0.7742  1.0393
 9684SOL     OW31493   4.854   7.267   0.521  0.4042 -0.7991 -0.3209
 9684SOL    HW131494   4.873   7.174   0.535  1.9386 -0.3539  0.7515
 9684SOL    HW231495   4.821   7.271   0.431 -2.1217 -2.6972  0.4090
 9685SOL     OW31496   0.626   1.117   4.716  0.3951 -0.2976  0.0394
 9685SOL    HW131497   0.596   1.208   4.713 -1.9165 -0.8957  1.5899
 9685SOL    HW231498   0.714   1.119   4.679 -0.8178  1.9979 -3.2819
 9686SOL     OW31499   6.676   4.490   4.705  0.1010 -0.6289 -0.3876
 9686SOL    HW131500   6.604   4.427   4.709  0.0629 -0.5284  0.7749
 9686SOL    HW231501   6.751   4.439   4.673 -0.1824 -1.0221 -0.4274
 9687SOL     OW31502   0.005   9.408   5.257  0.1459  0.1008  0.0654
 9687SOL    HW131503  -0.014   9.441   5.169  0.0612 -2.8123 -1.1157
 9687SOL    HW231504  -0.081   9.393   5.296  0.1581 -0.3710 -0.0858
 9688SOL     OW31505  10.485   7.814   6.615 -0.4719  0.4502  0.0032
 9688SOL    HW131506  10.490   7.908   6.633 -0.1758  0.5991 -0.8090
 9688SOL    HW231507  10.576   7.785   6.612 -0.5282  0.3489 -0.8092
 9689SOL     OW31508   2.029   3.192   2.538 -0.0245  0.1838  0.0994
 9689SOL    HW131509   1.953   3.213   2.485  0.0049 -0.5632 -0.2580
 9689SOL    HW231510   2.104   3.212   2.483  0.0006 -1.0887 -0.3676
 9690SOL     OW31511  10.405   5.214   2.347 -0.1292  0.6497 -0.1807
 9690SOL    HW131512  10.333   5.256   2.301 -1.3364 -2.5575 -1.5355
 9690SOL    HW231513  10.363   5.159   2.413  0.8818 -1.8584 -1.4741
 9691SOL     OW31514   8.751   6.104   8.896 -0.3269 -0.0235  0.8602
 9691SOL    HW131515   8.743   6.125   8.803 -2.2733 -1.0631  0.7391
 9691SOL    HW231516   8.830   6.150   8.924  0.4002  0.1933 -1.3294
 9692SOL     OW31517   6.155   9.613   8.265  0.1948  0.0564 -0.0094
 9692SOL    HW131518   6.139   9.687   8.206 -0.1367 -0.2644 -0.3253
 9692SOL    HW231519   6.100   9.631   8.341 -1.0061 -0.5598 -0.6846
 9693SOL     OW31520   0.086   7.165   4.426  0.6986  0.4044  0.2949
 9693SOL    HW131521   0.078   7.141   4.334  0.0019  0.5645  0.3079
 9693SOL    HW231522   0.149   7.103   4.462 -0.3660 -0.8297  0.1241
 9694SOL     OW31523   1.455   5.917   7.974  0.2119  0.0034 -0.4699
 9694SOL    HW131524   1.476   5.998   8.018 -2.1829 -0.5170  1.8771
 9694SOL    HW231525   1.408   5.944   7.894  0.7293  0.9188 -0.4708
 9695SOL     OW31526   9.841   9.935   4.799 -0.0821  0.1122 -0.9132
 9695SOL    HW131527   9.806  10.020   4.825  1.9853  0.2263  2.1027
 9695SOL    HW231528   9.928   9.932   4.839  0.2185 -3.1474 -1.5041
 9696SOL     OW31529   4.191   6.628   1.182 -0.2102  0.2746 -0.0315
 9696SOL    HW131530   4.154   6.675   1.257  1.2644 -0.2880  1.0888
 9696SOL    HW231531   4.246   6.693   1.138  1.7642 -0.2933  1.4708
 9697SOL     OW31532   4.736   0.186   2.731 -0.6311 -0.0044 -0.0770
 9697SOL    HW131533   4.660   0.128   2.726 -1.7509  1.2396  1.5450
 9697SOL    HW231534   4.767   0.178   2.821  0.6326  0.1913 -0.4690
 9698SOL     OW31535   0.411   0.700   7.272  0.3543 -0.2608 -0.2808
 9698SOL    HW131536   0.506   0.711   7.258  0.4758 -0.1583  0.5831
 9698SOL    HW231537   0.384   0.639   7.203  1.2579 -1.1723  0.1474
 9699SOL     OW31538   0.064   7.577   0.300 -0.3299  0.1538  0.8295
 9699SOL    HW131539   0.051   7.656   0.248  0.4211  0.2515  0.7888
 9699SOL    HW231540   0.018   7.508   0.251  0.8605  0.1249 -0.2733
 9700SOL     OW31541   7.773   8.278   2.927 -0.4507 -0.2061  0.2603
 9700SOL    HW131542   7.729   8.240   2.851  0.4061 -0.9048  0.0952
 9700SOL    HW231543   7.853   8.227   2.936 -0.1212  0.4384  1.1119
 9701SOL     OW31544   7.852  10.245   4.002 -0.1722 -0.5486  0.5372
 9701SOL    HW131545   7.932  10.267   4.051  1.4936 -1.2911 -1.6481
 9701SOL    HW231546   7.828  10.158   4.034  0.2206 -0.5619  0.8111
 9702SOL     OW31547   4.244   4.428   4.461  0.1485 -0.4969 -0.2541
 9702SOL    HW131548   4.326   4.461   4.425 -0.0386  0.6975  0.3602
 9702SOL    HW231549   4.182   4.500   4.449 -0.5336 -0.9879  0.2408
 9703SOL     OW31550   0.480   3.472   1.276  0.2660  0.0090 -0.0246
 9703SOL    HW131551   0.411   3.464   1.210  0.9405  1.5829 -0.9912
 9703SOL    HW231552   0.484   3.386   1.317 -2.1505 -0.1805 -0.0361
 9704SOL     OW31553   6.395   7.188   9.866  0.2075  0.1934  0.0871
 9704SOL    HW131554   6.449   7.138   9.805  0.9183  0.1503  0.7393
 9704SOL    HW231555   6.437   7.176   9.951 -0.9024  0.0577  0.6368
 9705SOL     OW31556   3.051   3.192   5.516  0.1784  0.2539  0.0499
 9705SOL    HW131557   3.028   3.110   5.473 -0.3037  0.9936 -1.1488
 9705SOL    HW231558   3.024   3.181   5.608 -1.2636 -0.3753 -0.4296
 9706SOL     OW31559   8.931   7.164   5.569 -0.0771 -0.1022 -0.2815
 9706SOL    HW131560   8.986   7.211   5.506  1.6098 -0.9369  0.4980
 9706SOL    HW231561   8.991   7.102   5.611 -1.5614 -0.8142  0.8630
 9707SOL     OW31562   7.021   5.002   8.160  0.3662  0.1251  0.4413
 9707SOL    HW131563   7.046   4.914   8.131 -2.2264 -0.9287  1.1440
 9707SOL    HW231564   6.997   5.047   8.079  0.0906 -0.3923  0.2260
 9708SOL     OW31565   6.274   2.163   3.505 -0.7495  0.0723 -0.2332
 9708SOL    HW131566   6.201   2.205   3.551  0.9639  2.2698  0.7222
 9708SOL    HW231567   6.279   2.210   3.421 -2.2791 -2.1976 -1.6938
 9709SOL     OW31568   5.116   8.028   7.486  0.3450 -0.0359 -0.1695
 9709SOL    HW131569   5.134   8.111   7.531 -0.4073 -1.5148  3.2331
 9709SOL    HW231570   5.199   8.004   7.445  1.1242  1.4609  0.4439
 9710SOL     OW31571   1.501   1.040  10.342 -0.3953 -0.0547  0.1939
 9710SOL    HW131572   1.454   1.045  10.259 -0.5404  0.8717  0.3219
 9710SOL    HW231573   1.433   1.053  10.408 -0.4676 -1.8884  0.5232
 9711SOL     OW31574   8.049   4.577   6.849 -0.5072 -0.4075 -0.0972
 9711SOL    HW131575   7.953   4.567   6.852 -0.5169 -0.5372 -0.7428
 9711SOL    HW231576   8.065   4.657   6.899 -0.9474 -0.4287  0.0879
 9712SOL     OW31577   2.519   4.453   4.932  0.1259 -0.4606 -0.1488
 9712SOL    HW131578   2.559   4.538   4.950 -1.7724  0.8116 -1.5057
 9712SOL    HW231579   2.453   4.443   5.001  0.9359 -1.2760  0.5225
 9713SOL     OW31580   5.836  10.419   0.766  0.0271 -0.4795 -0.5759
 9713SOL    HW131581   5.809  10.510   0.754  1.7566  0.4234  1.7271
 9713SOL    HW231582   5.759  10.368   0.740 -1.4728  1.6600 -0.6358
 9714SOL     OW31583   8.719   5.993   4.814 -0.3930 -0.1327 -0.0637
 9714SOL    HW131584   8.685   5.922   4.759  0.0315  0.0443 -0.5629
 9714SOL    HW231585   8.805   5.963   4.842  0.6634  0.9803 -1.9007
 9715SOL     OW31586   1.812   5.700   1.971  0.2325  0.0609 -0.4961
 9715SOL    HW131587   1.822   5.693   2.066  2.5434 -2.7300 -0.8136
 9715SOL    HW231588   1.726   5.662   1.954 -0.3072  0.8032  0.4659
 9716SOL     OW31589   0.995   1.507   7.507  0.2657 -0.2442 -0.5792
 9716SOL    HW131590   0.939   1.565   7.455 -1.5321 -1.8956 -0.5668
 9716SOL    HW231591   0.995   1.546   7.594  0.6918  0.7756 -1.0099
 9717SOL     OW31592   4.985   8.699   7.960  0.3325 -0.2303 -0.0344
 9717SOL    HW131593   4.939   8.690   8.044  1.4637  1.0383  0.7590
 9717SOL    HW231594   4.966   8.788   7.931 -0.8126 -0.9364 -1.6459
 9718SOL     OW31595   5.117   2.695   2.797 -0.4916  0.7368  0.1441
 9718SOL    HW131596   5.049   2.698   2.730 -1.6583  0.3772  1.2563
 9718SOL    HW231597   5.069   2.695   2.880  0.8373 -0.4459  0.9717
 9719SOL     OW31598   4.875   0.905   5.284  0.1846 -0.8951 -0.4920
 9719SOL    HW131599   4.815   0.836   5.258  0.9522 -0.7678 -2.7905
 9719SOL    HW231600   4.951   0.859   5.319  0.5748 -1.2330 -1.7455
 9720SOL     OW31601   7.656   9.831   4.331 -0.5096 -0.0561 -0.1748
 9720SOL    HW131602   7.562   9.835   4.314 -0.6161 -0.4551  0.3058
 9720SOL    HW231603   7.672   9.740   4.357  0.0703 -0.0842 -0.6001
 9721SOL     OW31604   8.888   4.574   4.480 -0.3212 -0.0290 -0.0585
 9721SOL    HW131605   8.924   4.535   4.401  1.1038  1.1227 -0.0183
 9721SOL    HW231606   8.965   4.600   4.531 -1.1446  2.5991  0.0010
 9722SOL     OW31607   1.694   5.610   8.864 -0.3622  0.0663  0.2305
 9722SOL    HW131608   1.708   5.700   8.835 -0.1688  0.2237  0.8010
 9722SOL    HW231609   1.663   5.618   8.954 -0.4588 -0.4354  0.2449
 9723SOL     OW31610   5.866   0.223   8.350  0.1594 -0.3147  0.1084
 9723SOL    HW131611   5.791   0.171   8.319  0.2096 -0.0436 -0.4947
 9723SOL    HW231612   5.846   0.312   8.320  0.8230 -0.2840 -0.2544
 9724SOL     OW31613   6.889   8.291   4.471  0.1962 -0.5466 -0.1143
 9724SOL    HW131614   6.907   8.289   4.377 -0.1125 -1.5489 -0.1632
 9724SOL    HW231615   6.953   8.353   4.506 -0.0605  0.2790 -1.0570
 9725SOL     OW31616  10.222   5.768   3.175 -0.0649  0.1383 -0.6105
 9725SOL    HW131617  10.186   5.811   3.097  0.5204  0.4764 -0.6965
 9725SOL    HW231618  10.182   5.815   3.248 -1.6769 -1.0497 -0.6747
 9726SOL     OW31619   0.308   8.987   3.349 -0.4516  0.0178 -0.4799
 9726SOL    HW131620   0.218   9.002   3.379  0.2155  3.4581  0.3072
 9726SOL    HW231621   0.358   8.975   3.430  0.1980  1.2246 -0.6784
 9727SOL     OW31622   9.684   3.816   6.416  0.1146 -0.3658 -0.1374
 9727SOL    HW131623   9.778   3.800   6.425 -0.1540 -0.9386  1.9641
 9727SOL    HW231624   9.680   3.901   6.372  1.5993 -0.3087 -0.2441
 9728SOL     OW31625   2.261   1.551   7.393  0.4101 -0.1241  0.2935
 9728SOL    HW131626   2.236   1.638   7.424  2.9092  0.3814  1.1088
 9728SOL    HW231627   2.215   1.491   7.451 -1.5385  0.5883 -0.4263
 9729SOL     OW31628   3.257   5.733   0.748  0.4479  0.5478  0.4061
 9729SOL    HW131629   3.296   5.656   0.707 -1.9790 -1.2292  1.2077
 9729SOL    HW231630   3.297   5.737   0.835 -0.6126 -0.9231  1.0134
 9730SOL     OW31631   5.732   0.546   4.995  0.3124 -0.2733  0.3154
 9730SOL    HW131632   5.719   0.626   4.944 -0.5278 -1.3137 -1.1674
 9730SOL    HW231633   5.818   0.514   4.967  0.1884 -0.4367  0.1188
 9731SOL     OW31634   6.669   2.106   6.771 -0.0757  0.3564  0.0787
 9731SOL    HW131635   6.587   2.092   6.818 -0.4485  1.7614 -0.1204
 9731SOL    HW231636   6.719   2.026   6.786 -0.2150  0.6792  2.8284
 9732SOL     OW31637   5.128   7.042   8.368  0.5525  0.1314 -0.0536
 9732SOL    HW131638   5.045   7.083   8.344 -0.2274 -0.2956  1.7342
 9732SOL    HW231639   5.103   6.958   8.406  1.8337 -0.0939  0.3484
 9733SOL     OW31640   5.611   3.820   9.545 -0.3833  0.2888  0.0559
 9733SOL    HW131641   5.550   3.879   9.500 -0.7458  0.1631  0.3740
 9733SOL    HW231642   5.567   3.735   9.543 -1.5352  0.7198  2.6859
 9734SOL     OW31643   9.354   8.851   6.325 -0.1747  0.2154  0.2920
 9734SOL    HW131644   9.387   8.805   6.402 -0.8284  0.4359  0.7118
 9734SOL    HW231645   9.261   8.829   6.321  0.2302 -1.5365 -1.6753
 9735SOL     OW31646   9.881   2.115   3.130  0.0529 -0.3452 -0.3096
 9735SOL    HW131647   9.916   2.189   3.082 -0.2244 -0.7378 -1.1389
 9735SOL    HW231648   9.794   2.101   3.092 -0.5393 -0.1145  0.9058
 9736SOL     OW31649   6.367   8.236   4.225 -0.2910  0.7176 -0.0071
 9736SOL    HW131650   6.394   8.222   4.316 -2.0934 -1.2076  0.3152
 9736SOL    HW231651   6.290   8.292   4.231 -0.9488 -0.1281 -0.2231
 9737SOL     OW31652   3.723   1.866   8.271 -0.6503  0.1059  0.1829
 9737SOL    HW131653   3.694   1.948   8.230  0.6514  0.4854 -0.0046
 9737SOL    HW231654   3.718   1.883   8.365  4.9595  2.5459  0.3963
 9738SOL     OW31655   4.370   4.291   0.153 -0.0726  0.0759 -0.3537
 9738SOL    HW131656   4.450   4.322   0.111  0.0013 -1.5959 -1.5509
 9738SOL    HW231657   4.299   4.322   0.097 -0.3893  2.1399  1.0675
 9739SOL     OW31658   0.826   8.805   8.814  0.1529  0.0180  0.1453
 9739SOL    HW131659   0.867   8.719   8.801 -2.1097 -1.2281  0.6522
 9739SOL    HW231660   0.789   8.826   8.728 -0.2385 -0.0634  0.2913
 9740SOL     OW31661   0.193   7.363   2.359  0.5987  0.0294 -0.1100
 9740SOL    HW131662   0.105   7.354   2.395  0.4382 -0.3762 -0.5844
 9740SOL    HW231663   0.189   7.444   2.308  1.4642  1.8643  2.5218
 9741SOL     OW31664   8.065   0.489   8.601 -0.4522 -0.1581 -0.7142
 9741SOL    HW131665   8.031   0.504   8.689  0.7827  0.2698 -0.2904
 9741SOL    HW231666   8.050   0.572   8.555 -0.9794 -0.3382 -0.8673
 9742SOL     OW31667   9.149   2.927   2.313 -0.4018  0.9958 -0.2392
 9742SOL    HW131668   9.137   2.945   2.220 -1.1136  0.4774 -0.2508
 9742SOL    HW231669   9.158   3.014   2.353  2.1176  1.1844 -1.0451
 9743SOL     OW31670   2.486   2.006   8.877  0.1876  0.4794  0.0849
 9743SOL    HW131671   2.528   2.010   8.792  2.2398 -1.9731  0.8651
 9743SOL    HW231672   2.549   2.048   8.937 -0.4699  0.6674  0.6605
 9744SOL     OW31673   3.981   6.205   4.873  0.0908  0.4865  0.1459
 9744SOL    HW131674   3.958   6.156   4.952  2.5631 -2.4309 -0.7736
 9744SOL    HW231675   3.938   6.158   4.802 -0.6473  2.0280 -0.4859
 9745SOL     OW31676   1.516   3.230   1.942 -0.1135 -0.7102  0.1772
 9745SOL    HW131677   1.532   3.156   1.884 -0.1503 -0.2592 -0.4196
 9745SOL    HW231678   1.428   3.214   1.977  0.1164 -1.2481  0.5147
 9746SOL     OW31679   9.819   8.921   2.385  0.2240  0.1807 -0.0858
 9746SOL    HW131680   9.871   8.845   2.411 -0.6991 -0.6078 -0.4812
 9746SOL    HW231681   9.828   8.982   2.458  1.5579  0.0049 -0.0755
 9747SOL     OW31682   1.496   6.495   5.349 -0.5364  0.2403 -0.0584
 9747SOL    HW131683   1.401   6.503   5.347 -0.6529 -0.1212  2.0150
 9747SOL    HW231684   1.523   6.549   5.423  0.8446  0.1159 -0.4486
 9748SOL     OW31685   0.072   7.993   2.979  0.3076  0.1056  0.1893
 9748SOL    HW131686   0.054   8.085   2.961 -0.3243  0.0403  0.4793
 9748SOL    HW231687   0.109   7.992   3.067 -1.5209 -0.1010  0.9968
 9749SOL     OW31688  10.444   3.090   2.218  0.4166  0.0023 -0.2638
 9749SOL    HW131689  10.417   2.999   2.209  0.9319 -0.4811  2.1173
 9749SOL    HW231690  10.405   3.135   2.144 -0.9479 -1.9142 -0.7838
 9750SOL     OW31691   0.997   1.788   3.225  0.0811 -0.0338  0.1010
 9750SOL    HW131692   0.927   1.724   3.213 -1.1159  0.8996  1.6556
 9750SOL    HW231693   0.972   1.861   3.169  0.4208 -0.1653 -0.2194
 9751SOL     OW31694   1.492   5.418   2.991 -0.0313  0.2101  0.2421
 9751SOL    HW131695   1.428   5.412   2.920 -2.2713  2.2289  1.9275
 9751SOL    HW231696   1.475   5.342   3.046 -0.0762  0.0526  0.0112
 9752SOL     OW31697   6.837   4.868   2.692  0.2945  0.2814  0.2306
 9752SOL    HW131698   6.911   4.926   2.670  1.1122 -0.9545 -0.4456
 9752SOL    HW231699   6.804   4.902   2.775  1.0162  1.4503  0.0735
 9753SOL     OW31700   6.868   4.034   2.668  0.2077 -0.1370  0.4919
 9753SOL    HW131701   6.782   4.073   2.680 -0.3177 -1.0633 -0.1098
 9753SOL    HW231702   6.917   4.058   2.746 -0.7290  0.0593  1.0322
 9754SOL     OW31703   1.879   4.406   1.374  0.2063  0.4429  0.4932
 9754SOL    HW131704   1.884   4.448   1.460 -0.1749 -1.8613  1.7059
 9754SOL    HW231705   1.786   4.407   1.352  0.2202  0.3868  0.4330
 9755SOL     OW31706   7.650   1.418   2.351  0.2288 -0.1283 -0.1382
 9755SOL    HW131707   7.571   1.420   2.298  0.0590  0.1793  0.1190
 9755SOL    HW231708   7.722   1.423   2.287  0.0468 -0.5169 -0.3763
 9756SOL     OW31709   1.970   4.346   2.555  1.0380  0.2862 -0.5310
 9756SOL    HW131710   1.944   4.362   2.645  1.6944  0.9187 -0.4415
 9756SOL    HW231711   1.914   4.402   2.502  0.2413 -0.5275 -0.5780
 9757SOL     OW31712   0.693   5.724   6.909  0.0995 -0.2916  0.1716
 9757SOL    HW131713   0.660   5.783   6.841  2.4334  0.9743  0.0187
 9757SOL    HW231714   0.632   5.736   6.982 -0.5874  0.8726 -0.5535
 9758SOL     OW31715   3.963   0.675   1.263  0.4397  0.8184  0.2843
 9758SOL    HW131716   4.047   0.721   1.262  0.2793  1.0933 -1.1233
 9758SOL    HW231717   3.934   0.674   1.172 -0.1264 -1.0389  0.4367
 9759SOL     OW31718   4.270   7.698   1.604  0.6182 -0.4869  0.1813
 9759SOL    HW131719   4.289   7.777   1.553 -0.4125 -0.8891 -0.8515
 9759SOL    HW231720   4.262   7.629   1.539 -1.0883 -0.9523  0.8486
 9760SOL     OW31721   0.177   9.573   7.076 -0.4368 -0.1216  0.1675
 9760SOL    HW131722   0.147   9.497   7.025 -0.1192 -0.4879  0.5141
 9760SOL    HW231723   0.128   9.647   7.041 -1.0836 -0.5633  0.1335
 9761SOL     OW31724   6.785   7.225   8.952  0.2332 -0.3178 -0.3895
 9761SOL    HW131725   6.808   7.137   8.981  1.4231  0.2195  0.4072
 9761SOL    HW231726   6.859   7.279   8.979 -0.3495  0.8885 -1.1000
 9762SOL     OW31727   6.871   2.288   6.790 -0.1029 -0.3359  0.6817
 9762SOL    HW131728   6.927   2.253   6.720 -0.6988  1.9118 -1.0353
 9762SOL    HW231729   6.797   2.228   6.793  0.1139 -0.6901 -0.3926
 9763SOL     OW31730   0.194   7.019   7.312 -0.1512  0.4295  0.0431
 9763SOL    HW131731   0.135   6.997   7.239 -0.5118  0.9134  0.1791
 9763SOL    HW231732   0.197   7.115   7.312 -0.6875  0.4667  1.0744
 9764SOL     OW31733   0.694   7.704   0.638 -0.2411 -0.0550 -0.2512
 9764SOL    HW131734   0.633   7.637   0.608 -0.0005  0.0894 -1.0915
 9764SOL    HW231735   0.674   7.715   0.731 -0.2443 -1.3222 -0.0834
 9765SOL     OW31736   6.789   7.891   3.416 -0.6442 -0.7115 -0.4521
 9765SOL    HW131737   6.701   7.898   3.381 -0.5785  0.3778 -0.4593
 9765SOL    HW231738   6.825   7.980   3.407 -0.2260 -0.6578  1.2963
 9766SOL     OW31739   8.222   0.420   3.876 -0.2809  0.2530 -0.0255
 9766SOL    HW131740   8.141   0.400   3.829 -1.0995 -0.0216  1.4652
 9766SOL    HW231741   8.194   0.436   3.966  1.5028 -1.4463  0.8928
 9767SOL     OW31742   1.530   4.637   5.662 -0.7083  0.0163 -0.1459
 9767SOL    HW131743   1.468   4.638   5.589  1.1394 -0.0154 -1.7595
 9767SOL    HW231744   1.474   4.645   5.740 -2.8911 -1.7884 -1.4100
 9768SOL     OW31745  10.030   1.729   1.874 -0.3604 -0.5097  0.1816
 9768SOL    HW131746  10.070   1.646   1.852  1.3492  0.0887  0.8982
 9768SOL    HW231747  10.083   1.764   1.946 -1.7417  0.6622  0.6913
 9769SOL     OW31748  10.484   5.940   1.006 -0.7081  0.4984 -0.2749
 9769SOL    HW131749  10.466   6.019   0.956 -1.4317 -0.6590 -1.9273
 9769SOL    HW231750  10.554   5.896   0.957  0.1246  0.3835  0.9584
 9770SOL     OW31751   9.775   4.810   9.967 -0.2998 -0.0428 -0.2086
 9770SOL    HW131752   9.835   4.751   9.921 -1.1423 -0.9234 -0.1956
 9770SOL    HW231753   9.742   4.868   9.898  0.3862  0.3039 -0.2537
 9771SOL     OW31754   8.364   4.276   1.283  0.3785 -0.0370  0.4210
 9771SOL    HW131755   8.421   4.305   1.354 -0.8278 -2.8809  2.7874
 9771SOL    HW231756   8.277   4.269   1.323 -0.1290 -2.8268 -0.9154
 9772SOL     OW31757  10.138   1.017   5.930 -0.0490 -0.7480 -0.5908
 9772SOL    HW131758  10.087   0.937   5.941 -0.5332 -0.3953 -0.2661
 9772SOL    HW231759  10.077   1.088   5.950  0.9070 -0.3639  1.1273
 9773SOL     OW31760   9.724   9.555   9.438  0.1279 -0.0598 -0.0480
 9773SOL    HW131761   9.659   9.551   9.368  0.1770 -2.0179 -0.0556
 9773SOL    HW231762   9.726   9.465   9.473 -0.8703  1.0843  3.3546
 9774SOL     OW31763   8.395   6.788   0.226 -0.5992 -0.4536 -0.7040
 9774SOL    HW131764   8.428   6.703   0.198 -1.0130 -0.5041 -1.0505
 9774SOL    HW231765   8.375   6.777   0.319 -0.6479 -0.7315 -0.7467
 9775SOL     OW31766   0.611   2.638   0.906 -0.1048  0.2361 -0.6506
 9775SOL    HW131767   0.661   2.667   0.983 -0.0963  2.6771 -1.5033
 9775SOL    HW231768   0.527   2.610   0.942  0.4361 -0.1407  0.3821
 9776SOL     OW31769   2.573   8.440  10.223  0.2405 -0.1945 -0.1323
 9776SOL    HW131770   2.567   8.417  10.316  1.1678  0.6928  0.1609
 9776SOL    HW231771   2.524   8.522  10.215 -1.2997 -1.1345 -0.7788
 9777SOL     OW31772   7.766   1.884   0.585  0.5015  0.2632 -0.8443
 9777SOL    HW131773   7.696   1.919   0.640  0.3984 -1.5119  0.2157
 9777SOL    HW231774   7.733   1.799   0.556  2.0772 -0.4645 -0.5742
 9778SOL     OW31775   1.617  10.476   2.815  0.2724  0.0676 -0.5604
 9778SOL    HW131776   1.569  10.394   2.826  0.9811 -0.2468  0.2634
 9778SOL    HW231777   1.690  10.453   2.758 -1.0251  0.7595 -2.6415
 9779SOL     OW31778   9.962   9.360   7.995  0.2431  0.2241 -0.1176
 9779SOL    HW131779   9.909   9.282   8.010  0.2647  0.3693  0.7525
 9779SOL    HW231780  10.014   9.370   8.074  0.1387  1.2010 -0.1529
 9780SOL     OW31781   2.008   4.971   5.261 -0.3047  0.3584  0.0511
 9780SOL    HW131782   1.979   5.063   5.268  1.1472  0.7627  1.2717
 9780SOL    HW231783   1.929   4.923   5.235 -1.1881  1.8933 -0.2275
 9781SOL     OW31784   6.945   5.548   6.491  0.2128 -0.2942  0.1023
 9781SOL    HW131785   6.993   5.626   6.462  0.4592 -0.9511 -1.3857
 9781SOL    HW231786   6.948   5.489   6.415  0.4383 -1.9501  1.3473
 9782SOL     OW31787   9.635   9.192   2.695  0.1895 -0.2610  0.2224
 9782SOL    HW131788   9.636   9.169   2.787  0.3711  0.5265  0.4233
 9782SOL    HW231789   9.604   9.282   2.693 -0.1341 -0.3805 -0.5130
 9783SOL     OW31790   0.503   6.847   8.495  0.2657  0.1026  0.1247
 9783SOL    HW131791   0.557   6.796   8.436 -0.2301 -0.4732  0.1498
 9783SOL    HW231792   0.447   6.900   8.438  0.4433  0.2549  0.0916
 9784SOL     OW31793   2.020   1.701   1.694  0.4079  0.0254 -0.0149
 9784SOL    HW131794   2.036   1.608   1.708 -0.4709 -0.0496  0.6348
 9784SOL    HW231795   2.097   1.745   1.730  0.4274 -0.4183  0.4984
 9785SOL     OW31796   1.416   6.120   8.297  0.7758  0.2183 -0.1117
 9785SOL    HW131797   1.496   6.131   8.350  0.5008 -1.0084  0.5995
 9785SOL    HW231798   1.389   6.030   8.314 -1.2241  0.8552  0.2989
 9786SOL     OW31799   7.304   1.798   9.814  0.3705  1.1503  0.8659
 9786SOL    HW131800   7.251   1.878   9.812 -1.6482  0.0737 -4.0961
 9786SOL    HW231801   7.382   1.819   9.764  0.3962  0.3774  0.5645
 9787SOL     OW31802   3.047   4.682   3.840  0.2560 -0.2013  0.4883
 9787SOL    HW131803   3.019   4.641   3.759  1.1642 -0.2066  0.1690
 9787SOL    HW231804   3.116   4.624   3.874 -0.0813 -0.1776  1.2410
 9788SOL     OW31805   1.598   3.220   9.557  0.3202  0.0883  0.1933
 9788SOL    HW131806   1.524   3.271   9.524 -0.9615 -2.2296 -0.8266
 9788SOL    HW231807   1.653   3.206   9.480  0.7337  0.0789  0.4896
 9789SOL     OW31808   7.362   6.396   0.957 -0.2306 -0.3657 -0.5421
 9789SOL    HW131809   7.279   6.354   0.933 -0.3653 -0.8210  0.6200
 9789SOL    HW231810   7.364   6.389   1.053  1.4600 -0.9593 -0.6007
 9790SOL     OW31811   2.304   2.836   5.657 -0.2110  0.2040  0.2243
 9790SOL    HW131812   2.281   2.745   5.640  3.5535 -0.8359 -0.3300
 9790SOL    HW231813   2.312   2.876   5.570  0.7448  0.2568  0.3230
 9791SOL     OW31814   3.186   0.698   0.810 -1.4541 -0.6774  0.2126
 9791SOL    HW131815   3.189   0.637   0.737 -2.3969 -1.2350  0.6252
 9791SOL    HW231816   3.263   0.754   0.798 -1.1482 -1.2861 -0.7375
 9792SOL     OW31817   1.477   6.324   3.738 -0.0390  0.4175  0.0774
 9792SOL    HW131818   1.433   6.409   3.735 -0.6221  0.1052 -0.2330
 9792SOL    HW231819   1.502   6.313   3.830  1.4371  1.6272 -0.1343
 9793SOL     OW31820   1.545   8.562   8.345 -0.2809 -0.5481 -0.0271
 9793SOL    HW131821   1.574   8.576   8.435 -1.3291  1.0147  0.1071
 9793SOL    HW231822   1.452   8.542   8.353 -0.5974  0.5002 -0.7821
 9794SOL     OW31823   4.893   1.855   4.671  0.4530 -0.6908  0.4690
 9794SOL    HW131824   4.822   1.898   4.622  0.2807  1.1935  2.2378
 9794SOL    HW231825   4.929   1.792   4.609 -1.0595  0.1370 -1.3837
 9795SOL     OW31826   1.711   5.316   5.666  0.0517 -0.8507 -0.5216
 9795SOL    HW131827   1.802   5.297   5.687  0.4434 -0.4532 -1.7848
 9795SOL    HW231828   1.670   5.333   5.751  0.7021 -2.8088  0.2507
 9796SOL     OW31829   6.674   4.952   7.015 -0.0537 -0.4136 -0.2858
 9796SOL    HW131830   6.607   5.005   7.058  1.2227  1.6847 -0.7457
 9796SOL    HW231831   6.638   4.932   6.929 -1.7271 -2.8239  0.8574
 9797SOL     OW31832   5.153   0.175   8.784  0.1134 -0.4599  0.1847
 9797SOL    HW131833   5.172   0.269   8.792 -1.3026 -0.2073  0.9735
 9797SOL    HW231834   5.237   0.135   8.763  0.6458  1.0433 -0.7052
 9798SOL     OW31835   9.471   4.595   0.831 -0.1390 -0.1880 -0.3267
 9798SOL    HW131836   9.511   4.652   0.896  1.2843  0.3991 -1.6523
 9798SOL    HW231837   9.467   4.509   0.873 -1.6812  0.6718  1.4478
 9799SOL     OW31838   6.201   5.886   4.549 -0.2351 -0.3115  0.1567
 9799SOL    HW131839   6.206   5.794   4.523 -0.8318 -0.1103 -0.6944
 9799SOL    HW231840   6.192   5.934   4.467  1.0318  0.5945  0.5207
 9800SOL     OW31841   2.590  10.010   1.873 -0.1206 -0.5062  0.3182
 9800SOL    HW131842   2.659   9.963   1.919  1.5309 -0.0659 -1.5862
 9800SOL    HW231843   2.629  10.096   1.853 -2.9288  1.8014  3.5046
 9801SOL     OW31844   4.932  10.211   0.682 -0.4585 -0.4658 -0.4714
 9801SOL    HW131845   5.014  10.177   0.718 -0.4229 -0.6364 -0.7112
 9801SOL    HW231846   4.913  10.154   0.607 -0.5246 -0.1086 -0.7320
 9802SOL     OW31847   4.717   9.553   7.445  0.2525 -0.0842 -0.2602
 9802SOL    HW131848   4.724   9.574   7.352  1.2855  3.6328  0.4976
 9802SOL    HW231849   4.631   9.512   7.454 -0.6452  1.1066 -2.6508
 9803SOL     OW31850   2.026   6.741   2.929  0.1853 -0.0454 -0.0355
 9803SOL    HW131851   1.986   6.782   3.006 -1.4963  0.6073 -1.2002
 9803SOL    HW231852   1.952   6.709   2.878  1.2031  0.1751 -1.7230
 9804SOL     OW31853   5.186   1.853   0.563  0.5122 -0.1090  0.5671
 9804SOL    HW131854   5.232   1.926   0.606 -0.9340  1.6134 -0.6887
 9804SOL    HW231855   5.119   1.827   0.626  1.8712 -1.3348  1.5862
 9805SOL     OW31856   8.372   3.223   8.851 -0.1489 -0.5839  0.1621
 9805SOL    HW131857   8.277   3.218   8.840 -0.0564  0.3428 -1.3277
 9805SOL    HW231858   8.392   3.316   8.852  0.9449 -0.7128 -2.0644
 9806SOL     OW31859   5.491   6.356   1.361  0.6287 -0.3225  0.5744
 9806SOL    HW131860   5.432   6.411   1.309  1.2196 -0.2060  0.0070
 9806SOL    HW231861   5.461   6.267   1.346 -1.3689 -0.1218  2.7864
 9807SOL     OW31862   8.101   8.936   7.863 -0.3058  0.0739 -0.6046
 9807SOL    HW131863   8.082   8.939   7.769  1.0961 -0.5405 -0.9269
 9807SOL    HW231864   8.048   8.862   7.895 -0.8224  0.3147 -0.8924
 9808SOL     OW31865   3.788   3.152   7.940  0.6327 -0.6390 -0.7493
 9808SOL    HW131866   3.812   3.193   7.857 -2.7969 -0.1832 -1.6550
 9808SOL    HW231867   3.800   3.222   8.005  1.2943 -0.3277 -1.1914
 9809SOL     OW31868   9.759   5.864   0.303 -0.1342  0.2855 -0.2037
 9809SOL    HW131869   9.811   5.797   0.260  1.6079  2.0687 -1.0279
 9809SOL    HW231870   9.814   5.896   0.374  0.0225  2.3058 -1.1655
 9810SOL     OW31871   5.298   9.241   6.337  0.1528 -0.0789 -0.1381
 9810SOL    HW131872   5.285   9.323   6.386 -1.6810 -0.9816  1.0190
 9810SOL    HW231873   5.370   9.198   6.382 -0.6543 -0.2926  1.0087
 9811SOL     OW31874   6.891   5.647   2.399  0.0105  0.2056 -0.3105
 9811SOL    HW131875   6.917   5.556   2.389 -0.1476  0.1887 -0.5954
 9811SOL    HW231876   6.809   5.644   2.449  0.5344  0.2586  0.5757
 9812SOL     OW31877   0.495   3.237   1.838  0.3177 -0.1005 -0.1951
 9812SOL    HW131878   0.527   3.183   1.766 -1.2929 -2.2344  0.5749
 9812SOL    HW231879   0.445   3.307   1.796 -0.3570 -1.1523 -1.1876
 9813SOL     OW31880   2.878   1.962   1.652  0.2891 -0.0054  0.4858
 9813SOL    HW131881   2.794   1.917   1.654  0.2180  0.1377  0.7722
 9813SOL    HW231882   2.877   2.018   1.730  0.1993  0.8258 -0.1047
 9814SOL     OW31883   8.922   0.029   1.341  0.2231  0.1391  0.0355
 9814SOL    HW131884   8.963   0.005   1.423 -1.3116 -0.8425  0.5442
 9814SOL    HW231885   8.905  -0.054   1.296  0.4594  0.6219 -0.9978
 9815SOL     OW31886   7.792   5.137   4.345  0.4674  0.0634 -0.3550
 9815SOL    HW131887   7.733   5.133   4.269 -0.4076  1.2262  0.2441
 9815SOL    HW231888   7.879   5.154   4.307 -0.0361  1.1155 -1.0750
 9816SOL     OW31889   7.842   4.073   7.844  0.3972 -0.4433  0.3288
 9816SOL    HW131890   7.796   4.030   7.772  1.0006 -1.2942  0.4300
 9816SOL    HW231891   7.854   4.163   7.815  1.7488 -1.0612 -1.2227
 9817SOL     OW31892   2.005   1.248   8.530  0.3668 -0.4350 -0.2213
 9817SOL    HW131893   2.020   1.168   8.480 -1.6634 -0.0042 -1.6798
 9817SOL    HW231894   2.055   1.315   8.483  0.4580 -0.4928 -0.2056
 9818SOL     OW31895   3.623   1.458   5.580  0.6762 -0.1962 -0.3016
 9818SOL    HW131896   3.654   1.528   5.637 -0.5055  1.1656 -1.2512
 9818SOL    HW231897   3.691   1.448   5.514  1.1801 -0.4516  0.2538
 9819SOL     OW31898   2.092   5.897   9.632 -0.0569  0.5271 -0.2357
 9819SOL    HW131899   2.149   5.822   9.650 -0.6820  0.2758  0.7519
 9819SOL    HW231900   2.061   5.925   9.717 -1.6150  0.5015 -0.7660
 9820SOL     OW31901   7.654   5.608   6.681 -0.0179  0.2493 -0.2012
 9820SOL    HW131902   7.574   5.621   6.732  0.0902 -0.9940  0.3231
 9820SOL    HW231903   7.683   5.520   6.704  1.7968  0.8460  0.0174
 9821SOL     OW31904   0.510   5.698   4.315 -0.3715  0.2084 -0.0929
 9821SOL    HW131905   0.493   5.686   4.222  0.9409 -0.7178 -0.2301
 9821SOL    HW231906   0.424   5.684   4.356 -1.2154  1.7259 -1.2005
 9822SOL     OW31907   3.751   2.918   7.785 -0.3174  0.1462  0.0183
 9822SOL    HW131908   3.722   2.853   7.848 -0.3311  1.8427  1.8888
 9822SOL    HW231909   3.753   3.000   7.835 -0.4806  1.6259 -2.2443
 9823SOL     OW31910   8.655   4.652   8.534 -0.0491  0.6097 -0.6437
 9823SOL    HW131911   8.604   4.681   8.459 -0.1793  0.5279 -0.5873
 9823SOL    HW231912   8.719   4.722   8.548  0.3363  0.3706 -1.1723
 9824SOL     OW31913   4.120   6.747   4.995 -0.2443 -0.5831  0.2252
 9824SOL    HW131914   4.044   6.738   4.938 -1.1567 -0.9583  1.4320
 9824SOL    HW231915   4.100   6.824   5.049 -1.3044 -2.4092  2.6585
 9825SOL     OW31916   5.856   1.385   3.211 -0.0853  0.4396 -0.1072
 9825SOL    HW131917   5.925   1.371   3.146  0.4592  0.1876  0.5117
 9825SOL    HW231918   5.838   1.479   3.208  0.2144  0.4894 -0.3441
 9826SOL     OW31919   3.496   0.345   9.576  0.1448 -0.2885  0.2484
 9826SOL    HW131920   3.489   0.256   9.610  0.2064 -0.3910  0.0010
 9826SOL    HW231921   3.545   0.335   9.494  0.5691  0.0313  0.4612
 9827SOL     OW31922   7.094   7.910   0.584 -0.1836 -0.4767  0.0556
 9827SOL    HW131923   7.165   7.920   0.522 -0.6021  0.1448 -0.3319
 9827SOL    HW231924   7.022   7.874   0.533 -0.3013 -0.6549  0.3408
 9828SOL     OW31925   3.913   6.006   7.592  0.2541  0.7213  0.4845
 9828SOL    HW131926   3.967   6.063   7.647  0.5746  1.9001 -0.9721
 9828SOL    HW231927   3.975   5.961   7.535 -0.1033 -0.0807  0.7141
 9829SOL     OW31928   3.355   9.186   0.799  0.6565  0.6036 -1.0337
 9829SOL    HW131929   3.401   9.172   0.717  0.6518  1.3232 -1.1723
 9829SOL    HW231930   3.391   9.269   0.832 -0.8659  1.4423 -1.3839
 9830SOL     OW31931   5.779   2.742   1.011  0.0300 -0.1547 -0.2907
 9830SOL    HW131932   5.697   2.714   0.969 -0.2314  0.2495 -0.0610
 9830SOL    HW231933   5.756   2.751   1.104  0.4208 -0.3618 -0.1761
 9831SOL     OW31934  10.432   1.720   2.973 -0.1176 -0.2027 -0.2410
 9831SOL    HW131935  10.420   1.647   3.033 -0.5031  1.3231  1.6422
 9831SOL    HW231936  10.526   1.737   2.973 -0.1845  0.2407  0.5475
 9832SOL     OW31937   4.732   6.464   1.045  0.1629 -0.5063 -0.4929
 9832SOL    HW131938   4.649   6.508   1.028  0.2724 -0.3262 -0.5673
 9832SOL    HW231939   4.778   6.466   0.961  0.6428  0.2507 -0.2281
 9833SOL     OW31940   3.558   2.728   0.277  0.2591 -0.5950 -0.5212
 9833SOL    HW131941   3.487   2.728   0.212 -0.3325  0.1873  0.1011
 9833SOL    HW231942   3.629   2.681   0.234 -0.0741 -0.0023 -1.7909
 9834SOL     OW31943   5.968   0.309   9.590 -0.8936 -0.0637 -0.1746
 9834SOL    HW131944   6.000   0.225   9.557 -1.3414 -0.5660  0.6421
 9834SOL    HW231945   5.876   0.293   9.610 -0.6168  0.1728  1.4284
 9835SOL     OW31946   7.497   7.677   0.564 -0.2309  0.5077 -0.4493
 9835SOL    HW131947   7.498   7.742   0.494 -1.3934 -0.6260 -1.5813
 9835SOL    HW231948   7.407   7.679   0.597 -0.2596 -0.4307 -0.4343
 9836SOL     OW31949   2.649   8.770   4.123  0.3540 -0.1556  0.1119
 9836SOL    HW131950   2.708   8.732   4.058 -0.9861  0.2462 -1.3994
 9836SOL    HW231951   2.567   8.783   4.076 -0.6698  0.1504  1.9109
 9837SOL     OW31952   4.061   7.006   6.754 -0.3909  0.2512  0.4670
 9837SOL    HW131953   4.150   7.012   6.789  1.0358 -0.9034 -2.6002
 9837SOL    HW231954   4.053   7.080   6.694 -0.5301 -0.9656 -1.0860
 9838SOL     OW31955   4.692   4.481   3.453 -0.1813  0.1724 -0.6598
 9838SOL    HW131956   4.697   4.499   3.359  2.7888 -0.0811 -0.6555
 9838SOL    HW231957   4.762   4.535   3.491  1.9746 -3.2521  0.7092
 9839SOL     OW31958   1.181   7.506   7.429 -0.6136  0.5688 -0.4939
 9839SOL    HW131959   1.116   7.454   7.476 -1.2919  0.6815 -1.2678
 9839SOL    HW231960   1.191   7.586   7.482 -1.6475  0.8652 -0.7136
 9840SOL     OW31961   2.179   4.678   2.610 -0.0085  0.9191  0.1444
 9840SOL    HW131962   2.104   4.730   2.640 -0.2186  0.7919 -0.1508
 9840SOL    HW231963   2.165   4.592   2.648 -1.0302  0.3421 -1.4230
 9841SOL     OW31964   8.470   2.662   4.794  0.0985 -0.2238  0.1404
 9841SOL    HW131965   8.556   2.668   4.835  1.3455 -1.5156 -2.0461
 9841SOL    HW231966   8.487   2.622   4.709 -2.7649 -1.0788 -0.1480
 9842SOL     OW31967   1.346   5.733   1.301  0.1158 -0.1905  0.3904
 9842SOL    HW131968   1.407   5.724   1.229 -0.6529 -1.3477 -0.1508
 9842SOL    HW231969   1.397   5.711   1.379  0.3262 -1.4771 -0.0897
 9843SOL     OW31970   5.906   4.381   3.290 -0.5747  0.5068 -0.0955
 9843SOL    HW131971   5.857   4.423   3.219 -1.2973  0.9766  0.6647
 9843SOL    HW231972   5.840   4.363   3.357 -0.0992 -0.9458  0.0155
 9844SOL     OW31973  10.174   1.765  10.313  0.3307 -0.0324 -0.4806
 9844SOL    HW131974  10.117   1.781  10.238  0.6724  0.6794 -0.5914
 9844SOL    HW231975  10.239   1.835  10.310  1.5366 -1.1124 -0.6461
 9845SOL     OW31976   4.922   1.393   3.345  0.2335 -0.5215 -0.2204
 9845SOL    HW131977   4.831   1.398   3.375  0.4386 -0.2845  0.3647
 9845SOL    HW231978   4.916   1.398   3.250 -0.4649 -1.7243 -0.2685
 9846SOL     OW31979   2.975   1.016   9.228 -0.8618 -0.1428 -0.8813
 9846SOL    HW131980   3.065   1.038   9.250 -0.4494 -0.7430 -1.8871
 9846SOL    HW231981   2.929   1.100   9.224 -0.4549  0.1340  0.0244
 9847SOL     OW31982   8.003   7.118   9.293 -0.2316 -0.0001 -0.1753
 9847SOL    HW131983   7.990   7.179   9.221 -0.6002 -1.4313 -1.3614
 9847SOL    HW231984   7.942   7.147   9.361 -0.5725  0.7809 -0.8034
 9848SOL     OW31985   1.628   7.898   2.739  0.7557  0.3055  0.0215
 9848SOL    HW131986   1.668   7.971   2.692 -1.4562  2.3146  1.0809
 9848SOL    HW231987   1.572   7.855   2.675 -0.0356  1.2519  0.0699
 9849SOL     OW31988   1.766   7.577   4.644 -0.0051  0.5652  0.0441
 9849SOL    HW131989   1.758   7.624   4.561 -1.9881 -0.0867 -0.2013
 9849SOL    HW231990   1.784   7.486   4.619  0.9056  0.6333  0.4053
 9850SOL     OW31991   8.604   8.318   6.634 -1.0585 -0.2372 -0.3120
 9850SOL    HW131992   8.637   8.345   6.720 -0.9483 -1.8069  0.1683
 9850SOL    HW231993   8.641   8.382   6.573 -2.0475  1.5590  0.9143
 9851SOL     OW31994   5.898   3.911   5.266  0.2576 -0.4106 -0.0144
 9851SOL    HW131995   5.986   3.922   5.301  0.0167  0.9274  0.2268
 9851SOL    HW231996   5.846   3.880   5.340 -0.2874  2.5825  0.9732
 9852SOL     OW31997   6.077   4.874   9.194 -0.0219 -0.0716  0.6198
 9852SOL    HW131998   6.055   4.790   9.236  0.3132  0.0322  1.0106
 9852SOL    HW231999   6.016   4.881   9.121 -2.0267  0.7033  2.2900
 9853SOL     OW32000   0.998   0.826   2.860 -0.4307  0.0236 -0.2449
 9853SOL    HW132001   0.963   0.915   2.855  0.7631  0.4711 -1.0468
 9853SOL    HW232002   1.087   0.833   2.825 -1.3191 -2.0354 -3.2852
 9854SOL     OW32003   3.454   8.227   7.358 -0.1570  0.1587 -0.1123
 9854SOL    HW132004   3.542   8.195   7.339 -0.5042 -1.5129  0.8635
 9854SOL    HW232005   3.467   8.300   7.419  0.5792  0.4344 -0.5944
 9855SOL     OW32006   6.263   7.858   6.687  0.1674 -0.6642 -0.1095
 9855SOL    HW132007   6.291   7.916   6.615 -0.3288 -0.4394 -0.1256
 9855SOL    HW232008   6.330   7.869   6.754 -0.7544  1.2414  0.5839
 9856SOL     OW32009  10.166   4.646   5.607 -1.1445 -0.4246  0.0959
 9856SOL    HW132010  10.140   4.699   5.682  1.1334 -1.7234  1.9708
 9856SOL    HW232011  10.251   4.680   5.581 -0.2932 -2.1887  0.4217
 9857SOL     OW32012   8.688  10.219   7.648  0.2599  0.7102  0.2972
 9857SOL    HW132013   8.747  10.198   7.576 -1.4568 -0.4577 -0.8325
 9857SOL    HW232014   8.679  10.314   7.645  0.8420  0.7446 -0.5126
 9858SOL     OW32015   5.869   8.739   2.623  0.6493  0.5932  0.1196
 9858SOL    HW132016   5.847   8.833   2.621 -1.1799  0.2031 -1.7446
 9858SOL    HW232017   5.941   8.730   2.561  2.1914  0.9969  1.7723
 9859SOL     OW32018   3.733   9.228   0.884 -0.5988 -0.3952  0.0863
 9859SOL    HW132019   3.705   9.147   0.929 -2.3962 -0.6575 -1.3488
 9859SOL    HW232020   3.812   9.255   0.930  0.9881 -3.7938 -0.2843
 9860SOL     OW32021   9.709   2.912   5.038 -0.0908 -0.1129  0.1201
 9860SOL    HW132022   9.731   2.998   5.074  0.2491 -0.0471 -0.2361
 9860SOL    HW232023   9.696   2.929   4.944  0.4189 -0.5347 -0.0240
 9861SOL     OW32024   0.844   3.453   9.994  0.1990 -0.0466  0.0962
 9861SOL    HW132025   0.840   3.541  10.032 -2.3120  0.4450 -1.0909
 9861SOL    HW232026   0.854   3.394  10.069 -0.5986  1.1192  1.1479
 9862SOL     OW32027   2.782   5.907   6.078 -0.1216  0.8556 -0.2678
 9862SOL    HW132028   2.770   5.812   6.076  0.4015  0.7623  0.3490
 9862SOL    HW232029   2.701   5.943   6.042 -1.6714  0.2410  2.3186
 9863SOL     OW32030   9.058   2.198   3.802 -0.0863  0.0894 -0.4896
 9863SOL    HW132031   8.964   2.199   3.818 -0.2077  1.2056 -1.1434
 9863SOL    HW232032   9.074   2.116   3.756 -0.6346 -0.3815  0.1316
 9864SOL     OW32033   1.239   5.479   9.094 -0.6108 -0.0758  0.3298
 9864SOL    HW132034   1.149   5.482   9.128 -0.5121  0.0931  0.5765
 9864SOL    HW232035   1.235   5.416   9.022 -0.8911 -0.1975  0.4494
 9865SOL     OW32036   4.782   0.491   7.329  0.9461 -0.3485 -0.2377
 9865SOL    HW132037   4.695   0.520   7.357  1.3109 -1.3985  2.2399
 9865SOL    HW232038   4.764   0.420   7.267  0.0064 -1.0440  0.7947
 9866SOL     OW32039   3.412   6.514   8.292 -0.7034 -0.0438  0.6051
 9866SOL    HW132040   3.438   6.464   8.369 -1.3238 -1.3420 -0.0048
 9866SOL    HW232041   3.338   6.466   8.255 -1.5220  1.4984  0.1535
 9867SOL     OW32042   1.505   1.678   3.078 -0.5791 -0.1421 -0.0795
 9867SOL    HW132043   1.415   1.657   3.055 -0.5839 -1.9059  1.3040
 9867SOL    HW232044   1.516   1.641   3.166  1.3582  0.4579 -0.0291
 9868SOL     OW32045   8.426   1.500   7.166  0.4557  0.2874 -0.6239
 9868SOL    HW132046   8.400   1.497   7.074  1.2076  1.4672 -0.8968
 9868SOL    HW232047   8.416   1.591   7.191  1.4621  0.2181  0.0954
 9869SOL     OW32048   1.224   1.531   2.821  0.4074 -0.4419  0.7409
 9869SOL    HW132049   1.305   1.490   2.791  1.3397 -0.5412  3.1663
 9869SOL    HW232050   1.155   1.470   2.794  1.2825 -1.1572  0.0453
 9870SOL     OW32051   7.919   2.517   4.910  0.6850  0.2017 -0.1431
 9870SOL    HW132052   7.924   2.480   4.998 -1.9812 -0.2488 -0.0969
 9870SOL    HW232053   7.841   2.572   4.911  0.4638  0.0102 -2.2833
 9871SOL     OW32054   4.913   8.811   5.968  0.1949 -0.7157 -0.8095
 9871SOL    HW132055   4.866   8.865   5.905 -3.2375 -1.7203  0.6475
 9871SOL    HW232056   4.863   8.729   5.972  0.3579 -0.8365  2.8949
 9872SOL     OW32057   1.274   6.984   6.361  0.3386  0.0838  0.0338
 9872SOL    HW132058   1.256   7.035   6.440  2.5728  1.8541 -0.4849
 9872SOL    HW232059   1.320   6.907   6.392 -0.3350 -0.1212  0.5681
 9873SOL     OW32060   5.995   7.764   2.227 -0.4500  0.2918 -0.4811
 9873SOL    HW132061   5.920   7.797   2.177  0.1151  0.5142 -1.1841
 9873SOL    HW232062   5.979   7.796   2.316 -1.0579  0.5635 -0.6773
 9874SOL     OW32063   2.587   3.873   9.270 -0.4244  0.2964 -0.7072
 9874SOL    HW132064   2.575   3.889   9.364  2.1004  1.9846 -0.5584
 9874SOL    HW232065   2.609   3.780   9.265  1.5366  0.5901  0.7448
 9875SOL     OW32066   4.478   6.453   1.754  0.0099 -0.1416  0.4414
 9875SOL    HW132067   4.477   6.549   1.748 -2.1106 -0.0808  1.0184
 9875SOL    HW232068   4.518   6.424   1.673 -0.2688  1.2212 -0.2123
 9876SOL     OW32069   9.673   5.880  10.075 -0.6882  0.2777 -0.3050
 9876SOL    HW132070   9.579   5.892  10.081 -0.7692 -0.2671 -0.4281
 9876SOL    HW232071   9.705   5.888  10.165 -0.7135  1.4925 -0.3857
 9877SOL     OW32072   6.430   7.218   3.948 -0.0505 -0.3448 -0.4627
 9877SOL    HW132073   6.472   7.166   4.016  0.6517  0.9711  0.1481
 9877SOL    HW232074   6.349   7.250   3.988 -1.1113 -1.9252 -1.2493
 9878SOL     OW32075   1.693   2.934   9.503  0.0495  0.1583 -0.6676
 9878SOL    HW132076   1.657   2.995   9.567  1.3866  1.6553 -1.2712
 9878SOL    HW232077   1.636   2.942   9.427 -0.5714 -0.3950 -0.2759
 9879SOL     OW32078   6.485   9.747   9.314 -0.1110  0.4834  0.6897
 9879SOL    HW132079   6.432   9.685   9.263 -3.9285  3.3418  0.7721
 9879SOL    HW232080   6.551   9.778   9.252 -1.2370 -0.0878 -0.8599
 9880SOL     OW32081   1.885   1.846   7.253 -0.2653 -0.4173  0.2640
 9880SOL    HW132082   1.878   1.782   7.324  1.5380 -0.4327  0.4710
 9880SOL    HW232083   1.911   1.927   7.296  2.7319 -0.8815 -0.5068
 9881SOL     OW32084   7.652   1.437   6.776 -0.3148  0.2881 -0.5822
 9881SOL    HW132085   7.729   1.482   6.811  1.6602 -1.0601 -2.9097
 9881SOL    HW232086   7.639   1.363   6.836  3.0035 -1.9902 -2.3773
 9882SOL     OW32087   6.314   6.595   3.829  0.2671  0.0562 -1.1136
 9882SOL    HW132088   6.342   6.609   3.919 -0.1681 -0.5224 -0.8804
 9882SOL    HW232089   6.229   6.552   3.837  0.6245 -0.7955 -1.8010
 9883SOL     OW32090   4.566  10.019   9.828 -0.1531  0.0602  0.5272
 9883SOL    HW132091   4.573  10.106   9.867  1.8243  0.1042  0.1948
 9883SOL    HW232092   4.607  10.028   9.742 -0.3064 -1.0940  0.3198
 9884SOL     OW32093   5.845   4.098   0.903  0.3139  0.2244 -0.4137
 9884SOL    HW132094   5.906   4.099   0.977 -1.4798 -1.1944  1.1779
 9884SOL    HW232095   5.888   4.151   0.836  2.4430  0.7793  1.2807
 9885SOL     OW32096   9.733   1.192   1.677  0.1974 -0.4557  0.1018
 9885SOL    HW132097   9.811   1.240   1.650  0.5285 -1.3550 -0.5792
 9885SOL    HW232098   9.759   1.148   1.758 -0.1896  0.6873  0.8762
 9886SOL     OW32099   4.447   3.960   4.440  0.3452 -0.0446  0.6232
 9886SOL    HW132100   4.440   3.901   4.365  1.4296  1.3413 -0.6534
 9886SOL    HW232101   4.443   3.903   4.516 -1.4419 -1.4533 -0.4448
 9887SOL     OW32102   4.722   8.619   0.018 -0.6972  0.1852  0.2772
 9887SOL    HW132103   4.744   8.619   0.111 -0.8389  2.5852  0.3570
 9887SOL    HW232104   4.803   8.594  -0.026 -0.4174 -0.1974  0.9902
 9888SOL     OW32105   1.511   9.275   7.063 -0.0505 -0.2016  0.2586
 9888SOL    HW132106   1.446   9.342   7.043 -0.5021 -0.9723 -1.0071
 9888SOL    HW232107   1.552   9.304   7.144  1.3440  2.7624 -1.3447
 9889SOL     OW32108   1.345   3.193   3.650  0.3054  0.1494 -0.2504
 9889SOL    HW132109   1.302   3.279   3.652  0.1519  0.1118 -1.4311
 9889SOL    HW232110   1.279   3.135   3.611  0.4911 -0.4634  0.3355
 9890SOL     OW32111   1.541   6.890   1.688  0.4537  0.1971 -0.0343
 9890SOL    HW132112   1.551   6.923   1.598  0.8413 -0.3461 -0.1971
 9890SOL    HW232113   1.525   6.796   1.678  4.5468 -0.7427  0.5270
 9891SOL     OW32114   2.823   8.235   8.160  0.3187  0.1298  0.4234
 9891SOL    HW132115   2.837   8.180   8.083  0.6475 -1.3858  1.5300
 9891SOL    HW232116   2.730   8.227   8.179  0.6705 -1.5668  1.6455
 9892SOL     OW32117   2.234   7.463   3.837 -0.0166  0.3311 -0.1803
 9892SOL    HW132118   2.241   7.558   3.850  0.6179  0.0981  1.4313
 9892SOL    HW232119   2.155   7.438   3.885 -0.6212  0.1219 -1.2486
 9893SOL     OW32120   3.348   7.551   3.416 -0.2933  0.2672  0.0540
 9893SOL    HW132121   3.255   7.526   3.409 -0.5837  0.7784  1.6198
 9893SOL    HW232122   3.394   7.468   3.422 -0.8179  0.0099  0.7359
 9894SOL     OW32123   7.964   4.449   4.422 -0.4149 -0.8405 -0.2303
 9894SOL    HW132124   7.917   4.472   4.502 -1.0313 -1.8808 -0.2753
 9894SOL    HW232125   7.926   4.505   4.354  1.2665  1.2868  0.4642
 9895SOL     OW32126   3.383  10.024   5.486 -0.0153  0.7354  0.7032
 9895SOL    HW132127   3.372  10.119   5.487 -0.7255  0.6601  0.9084
 9895SOL    HW232128   3.317   9.993   5.424  0.0179  0.3559  0.8555
 9896SOL     OW32129   8.054   6.450   3.497 -0.4515 -0.1350  0.7372
 9896SOL    HW132130   7.962   6.461   3.471 -1.2466 -0.0305  3.3078
 9896SOL    HW232131   8.076   6.533   3.540  0.9008 -0.1334  0.0871
 9897SOL     OW32132   0.311   3.160   9.476  0.2491  0.1135 -0.4552
 9897SOL    HW132133   0.288   3.080   9.429  1.4023 -0.1075 -0.6767
 9897SOL    HW232134   0.228   3.194   9.508 -0.3285 -0.8198 -0.9243
 9898SOL     OW32135   1.430   1.633  10.056 -0.0454 -0.3702  0.2970
 9898SOL    HW132136   1.449   1.558  10.112  1.7628 -0.0875  0.1194
 9898SOL    HW232137   1.388   1.696  10.114  1.2221 -0.3319  1.2204
 9899SOL     OW32138   5.056   4.164   4.056 -0.1367  0.2358 -0.5105
 9899SOL    HW132139   5.087   4.075   4.039 -1.1183 -0.2355  0.0900
 9899SOL    HW232140   4.969   4.152   4.093  0.2854  1.3846  0.9516
 9900SOL     OW32141   1.821   4.537   0.865  0.1473 -0.0899 -1.0740
 9900SOL    HW132142   1.784   4.624   0.848 -0.9736 -0.5226 -0.8844
 9900SOL    HW232143   1.872   4.548   0.945 -0.0798  0.3744 -0.9899
 9901SOL     OW32144   7.536   2.643   8.109  0.3526 -0.3731 -0.5461
 9901SOL    HW132145   7.611   2.689   8.074  0.5811 -0.2880  0.0542
 9901SOL    HW232146   7.461   2.697   8.083  0.3651 -1.0907 -2.2191
 9902SOL     OW32147   7.876   2.672   6.498  0.4194 -0.7560  0.1382
 9902SOL    HW132148   7.873   2.597   6.437  0.4612 -0.3205 -0.4087
 9902SOL    HW232149   7.878   2.632   6.585  1.4634 -1.4142 -0.1702
 9903SOL     OW32150   9.326  10.429   3.715  0.4092 -0.1591 -0.6464
 9903SOL    HW132151   9.370  10.485   3.779 -1.3517  0.7854 -0.1907
 9903SOL    HW232152   9.397  10.391   3.663  1.7839  0.5001  0.6707
 9904SOL     OW32153   6.803   3.545   9.767  0.6545  0.0986  0.2660
 9904SOL    HW132154   6.831   3.603   9.838  3.4409 -1.9357  1.0097
 9904SOL    HW232155   6.875   3.549   9.704 -0.1594 -0.7829 -0.7468
 9905SOL     OW32156   8.759   1.542  10.046 -0.1662  0.5600 -0.2515
 9905SOL    HW132157   8.678   1.532   9.996 -1.3627  1.7965  1.3216
 9905SOL    HW232158   8.811   1.605   9.995 -0.3810  0.1278 -1.0258
 9906SOL     OW32159   9.066   9.520   1.239 -0.3400 -0.1003  0.6248
 9906SOL    HW132160   9.118   9.587   1.284 -2.6138  0.9503  1.8818
 9906SOL    HW232161   9.067   9.546   1.147  0.4687  0.4672  0.7833
 9907SOL     OW32162   3.491   3.484   5.601  0.0718 -0.7868 -0.9805
 9907SOL    HW132163   3.549   3.415   5.633 -0.5919 -2.1185 -2.5164
 9907SOL    HW232164   3.425   3.438   5.550 -2.6651  0.5842  1.0439
 9908SOL     OW32165   4.787   2.147   2.185 -0.2270  0.6359  0.0878
 9908SOL    HW132166   4.713   2.091   2.161 -0.8186  0.9127  1.2030
 9908SOL    HW232167   4.807   2.196   2.105 -0.6459 -0.1109 -0.4906
 9909SOL     OW32168   1.874   8.710   5.191  0.3755 -0.2211 -0.3143
 9909SOL    HW132169   1.932   8.663   5.131 -0.5700 -1.1777 -0.5154
 9909SOL    HW232170   1.796   8.654   5.197 -0.3602  0.8409  0.2486
 9910SOL     OW32171   2.457   0.864   2.879 -0.4503 -0.0872 -0.1399
 9910SOL    HW132172   2.437   0.955   2.904  1.5873  0.0250  1.4849
 9910SOL    HW232173   2.375   0.817   2.890 -0.9339  1.0733  1.7089
 9911SOL     OW32174   8.149   5.706   3.769  0.1380 -0.1790 -0.0355
 9911SOL    HW132175   8.177   5.797   3.781  0.1354 -0.4815  2.7369
 9911SOL    HW232176   8.222   5.654   3.801  0.4822 -1.2628 -2.3534
 9912SOL     OW32177   9.803   9.127   9.075  0.2395 -0.2668 -0.2736
 9912SOL    HW132178   9.824   9.037   9.099 -0.3042  0.1296  1.8228
 9912SOL    HW232179   9.829   9.180   9.150 -2.2371  0.9697 -0.1825
 9913SOL     OW32180   8.889   6.735   0.731 -0.4440  0.0570  0.3131
 9913SOL    HW132181   8.828   6.702   0.665 -0.7016 -3.9356  2.2200
 9913SOL    HW232182   8.833   6.776   0.797 -0.4069  1.7889 -0.6790
 9914SOL     OW32183   8.769   9.294   4.477  0.2499 -0.0034 -0.0569
 9914SOL    HW132184   8.852   9.282   4.430  0.4133  0.7172  0.0294
 9914SOL    HW232185   8.709   9.328   4.411  0.5946  1.4158  0.3079
 9915SOL     OW32186   3.571   9.934   5.687  0.5232  0.3682 -0.2929
 9915SOL    HW132187   3.508   9.955   5.617  0.5183 -0.7887 -0.6694
 9915SOL    HW232188   3.587  10.017   5.731  0.3252  1.0824 -1.5147
 9916SOL     OW32189   9.823   2.151   4.521 -0.3723 -0.0846  0.2161
 9916SOL    HW132190   9.898   2.173   4.576  0.2209  1.2078 -1.0457
 9916SOL    HW232191   9.817   2.224   4.459 -0.6657 -1.7419 -1.7829
 9917SOL     OW32192   8.859   3.279   9.370  0.4333  0.1664  0.1119
 9917SOL    HW132193   8.873   3.185   9.360 -0.9358 -0.3266  2.1899
 9917SOL    HW232194   8.812   3.305   9.290  0.8016 -0.9100 -0.4701
 9918SOL     OW32195   1.588   1.748   8.869 -0.0481 -0.0053  0.0770
 9918SOL    HW132196   1.598   1.834   8.828 -0.4556  0.0482  0.0833
 9918SOL    HW232197   1.555   1.693   8.799 -1.6815  0.3152  0.5606
 9919SOL     OW32198   5.223   8.009   4.933  0.1354 -0.6137  0.1126
 9919SOL    HW132199   5.227   8.037   4.841  0.3894 -1.7204 -0.2322
 9919SOL    HW232200   5.181   7.923   4.930 -0.4209 -0.3911  1.1096
 9920SOL     OW32201   7.309   1.888   8.578  0.2525  0.3288  0.3271
 9920SOL    HW132202   7.369   1.821   8.544 -0.2163  0.8740 -1.6987
 9920SOL    HW232203   7.240   1.838   8.622 -0.7061 -0.6719 -2.1439
 9921SOL     OW32204   3.756   1.546   3.473  0.3991 -0.3048 -0.2893
 9921SOL    HW132205   3.827   1.554   3.536 -0.3047 -0.3003  0.5116
 9921SOL    HW232206   3.693   1.488   3.515 -0.6387  0.6651 -0.4654
 9922SOL     OW32207   9.106   8.160   4.530 -0.0498  0.5566  0.7752
 9922SOL    HW132208   9.109   8.131   4.621  2.0274 -2.1205 -0.0062
 9922SOL    HW232209   9.161   8.238   4.527 -2.2652  2.2937  2.1835
 9923SOL     OW32210   5.784  10.380   5.658 -0.2033  0.4782  0.0443
 9923SOL    HW132211   5.873  10.351   5.678  0.3493  1.3567 -1.0368
 9923SOL    HW232212   5.794  10.437   5.581 -1.3846  2.4458  1.2677
 9924SOL     OW32213   4.744   3.342   3.129  0.5601  0.1846  0.1196
 9924SOL    HW132214   4.821   3.331   3.073  0.3726  0.5669 -0.2200
 9924SOL    HW232215   4.692   3.263   3.115  0.5252  0.2688 -0.2365
 9925SOL     OW32216   9.752   0.157   7.658  0.3244 -0.9265 -0.2549
 9925SOL    HW132217   9.736   0.098   7.732 -1.0996  0.3713  0.5176
 9925SOL    HW232218   9.847   0.166   7.655  0.4173 -0.9570  1.4707
 9926SOL     OW32219   5.217   3.723   0.441  0.1058 -0.1593 -0.2211
 9926SOL    HW132220   5.249   3.778   0.512  1.2874  0.2073 -0.9949
 9926SOL    HW232221   5.293   3.671   0.414 -0.2901 -0.2359 -1.2590
 9927SOL     OW32222   9.764  10.159   4.510 -0.2053  0.0831 -0.4281
 9927SOL    HW132223   9.844  10.167   4.458  1.5226  0.1345  2.0157
 9927SOL    HW232224   9.750  10.065   4.519  0.3050  0.0499  0.1032
 9928SOL     OW32225   0.674   2.615   7.898 -0.0836 -0.3055  0.4582
 9928SOL    HW132226   0.669   2.582   7.808  0.7697 -0.1922  0.3622
 9928SOL    HW232227   0.652   2.540   7.953 -0.9190 -0.2948  0.1509
 9929SOL     OW32228  10.080   9.173  10.319 -0.2958  0.0840  0.4715
 9929SOL    HW132229  10.050   9.097  10.268  0.3286 -0.7149  1.2423
 9929SOL    HW232230  10.167   9.147  10.350 -0.5442  0.6574  1.7003
 9930SOL     OW32231   5.163   1.003   5.332 -0.0075 -0.5112  0.2972
 9930SOL    HW132232   5.073   1.036   5.328  0.1816  0.3492  2.2227
 9930SOL    HW232233   5.171   0.946   5.256 -1.4576  1.1865 -1.2149
 9931SOL     OW32234  10.386   8.032   3.511  0.6931  0.2740  0.5769
 9931SOL    HW132235  10.463   7.976   3.501  0.4598 -0.4689  2.4924
 9931SOL    HW232236  10.417   8.105   3.564 -0.0418 -0.3677  1.9399
 9932SOL     OW32237   3.420   4.496   9.153 -1.0088 -0.3563 -0.3140
 9932SOL    HW132238   3.428   4.424   9.215 -0.2095 -1.2705 -1.4456
 9932SOL    HW232239   3.327   4.499   9.132 -0.9795 -1.4119 -0.6519
 9933SOL     OW32240   3.208   7.327  10.147  0.4442 -0.0821 -0.2374
 9933SOL    HW132241   3.142   7.391  10.175  0.1759  0.1955 -1.4572
 9933SOL    HW232242   3.282   7.381  10.119  0.3686 -0.3198 -0.8998
 9934SOL     OW32243   3.950   7.480   1.219  0.4256 -0.4563  0.7384
 9934SOL    HW132244   4.033   7.486   1.171  0.1174  0.0812  0.2631
 9934SOL    HW232245   3.937   7.387   1.234  0.8553 -0.5797  0.3553
 9935SOL     OW32246   7.108   8.788  10.112  0.9294  0.1613 -0.2390
 9935SOL    HW132247   7.059   8.870  10.116  0.4414 -0.0572 -1.3432
 9935SOL    HW232248   7.186   8.810  10.061  1.9870  0.4834  1.4270
 9936SOL     OW32249   3.152   8.241   5.543  0.5190 -0.4133  0.6407
 9936SOL    HW132250   3.119   8.310   5.486  0.6701  0.1482  1.2118
 9936SOL    HW232251   3.075   8.188   5.565  0.2196  0.1560  0.9787
 9937SOL     OW32252   8.172   2.178   9.343  0.2026  0.6871 -0.1895
 9937SOL    HW132253   8.177   2.083   9.349  0.0124  0.6206 -0.9847
 9937SOL    HW232254   8.090   2.196   9.297 -0.7324  1.3223  1.6157
 9938SOL     OW32255   2.327   5.094   3.034  0.7405 -0.0378  0.4156
 9938SOL    HW132256   2.269   5.052   3.099 -0.1345  2.2904  1.2473
 9938SOL    HW232257   2.341   5.026   2.968 -0.5737 -1.6266  1.6516
 9939SOL     OW32258  10.254   5.182   6.071  0.4057  0.1434 -0.2781
 9939SOL    HW132259  10.173   5.132   6.060  0.4908  0.4129 -2.6074
 9939SOL    HW232260  10.226   5.263   6.112  0.1779 -1.4335  3.0091
 9940SOL     OW32261   1.261   9.623   7.591 -0.0557 -0.1108 -0.5366
 9940SOL    HW132262   1.266   9.606   7.685 -1.1405 -0.8523 -0.5961
 9940SOL    HW232263   1.188   9.685   7.582 -1.3398 -1.6105 -1.0400
 9941SOL     OW32264   1.109   3.809   1.870 -0.0255 -0.0335 -0.2571
 9941SOL    HW132265   1.166   3.782   1.942  0.6256  1.3814 -0.2018
 9941SOL    HW232266   1.025   3.828   1.912  0.4972  1.2814  0.2424
 9942SOL     OW32267   4.695   7.759   4.289 -0.0097 -0.0739  0.4325
 9942SOL    HW132268   4.634   7.755   4.363 -0.1247  0.1652  0.3496
 9942SOL    HW232269   4.680   7.678   4.241 -1.5233  0.7674 -0.5951
 9943SOL     OW32270   6.412   5.460   5.605 -0.4797 -0.7833  0.0427
 9943SOL    HW132271   6.327   5.503   5.598 -0.3647 -0.7288 -1.3819
 9943SOL    HW232272   6.464   5.518   5.662 -0.9175 -0.0074 -0.3336
 9944SOL     OW32273   8.016   2.553   4.662 -0.1666 -0.1379 -0.5398
 9944SOL    HW132274   8.009   2.526   4.754  1.6270 -0.9906 -0.6221
 9944SOL    HW232275   7.972   2.638   4.658  0.2652  0.1901  1.2280
 9945SOL     OW32276   4.612   4.570   5.441 -0.1340 -0.0727  0.1359
 9945SOL    HW132277   4.652   4.619   5.370  0.9693  2.1343  2.1240
 9945SOL    HW232278   4.521   4.556   5.414  0.5120 -0.2400 -2.0795
 9946SOL     OW32279   1.674   6.009   0.706  0.1090 -0.7536  0.4405
 9946SOL    HW132280   1.755   5.979   0.747 -0.0645 -0.3752  1.0791
 9946SOL    HW232281   1.624   5.929   0.690  1.3369 -1.1818 -1.6207
 9947SOL     OW32282   1.696   8.068   6.263  0.4234  0.2044 -0.5118
 9947SOL    HW132283   1.710   7.980   6.228  1.4045  0.2971 -0.3896
 9947SOL    HW232284   1.640   8.055   6.339  2.0023 -0.5549  0.5736
 9948SOL     OW32285   7.962   5.172   3.655 -0.7515 -0.2397 -0.4965
 9948SOL    HW132286   8.038   5.150   3.708 -1.1062 -0.2000  0.0301
 9948SOL    HW232287   7.995   5.171   3.565  0.0024  0.3667 -0.2342
 9949SOL     OW32288   5.025   4.788   1.559 -0.2281  0.6618  0.4168
 9949SOL    HW132289   5.033   4.869   1.508 -1.1813  2.3019  2.6922
 9949SOL    HW232290   5.064   4.809   1.643  0.7223 -1.7449  0.6481
 9950SOL     OW32291   7.055   9.831   5.026 -0.1930 -0.1424 -0.6938
 9950SOL    HW132292   7.048   9.924   5.051  0.4090 -0.7425  2.0662
 9950SOL    HW232293   6.972   9.793   5.055  0.2511 -0.7692 -0.2360
 9951SOL     OW32294   5.394   2.628   9.671 -0.1266  0.1644  0.3341
 9951SOL    HW132295   5.406   2.707   9.617  0.5272 -0.8418 -1.0595
 9951SOL    HW232296   5.354   2.660   9.751 -1.2053  1.7283 -0.7705
 9952SOL     OW32297   3.642   3.768  10.394 -0.0252  0.3368  0.3575
 9952SOL    HW132298   3.648   3.689  10.448  1.0386  0.9525  1.1677
 9952SOL    HW232299   3.648   3.735  10.304  0.4443 -0.5126  0.6875
 9953SOL     OW32300   5.839   0.707   8.169 -0.4289 -0.0642  0.3341
 9953SOL    HW132301   5.925   0.735   8.138  0.2208 -1.4298  0.8021
 9953SOL    HW232302   5.798   0.667   8.092  0.8423 -2.6732  0.8797
 9954SOL     OW32303   0.237   6.577   3.088  0.0009  0.1125 -0.1888
 9954SOL    HW132304   0.203   6.575   3.177 -0.4176 -0.9024 -0.3543
 9954SOL    HW232305   0.197   6.654   3.048  0.1287  0.5230  0.4730
 9955SOL     OW32306   1.178   8.394   2.493  0.0938  0.1698 -0.5282
 9955SOL    HW132307   1.127   8.388   2.412  0.4163 -0.1199 -0.7155
 9955SOL    HW232308   1.199   8.488   2.501 -0.6729  0.3295 -0.3127
 9956SOL     OW32309   6.897   7.041   6.628  0.1573  0.4251 -0.0101
 9956SOL    HW132310   6.849   7.016   6.707  0.7844  2.7244  1.1829
 9956SOL    HW232311   6.903   7.137   6.633  1.0939  0.5508 -2.3547
 9957SOL     OW32312   8.738   3.423   5.650 -0.3264  0.2258  0.7270
 9957SOL    HW132313   8.782   3.368   5.586 -0.9262 -0.9737  1.3083
 9957SOL    HW232314   8.787   3.409   5.731  0.9130  2.3348  0.4012
 9958SOL     OW32315   7.555  10.138   2.617  0.0167 -0.0647 -0.5340
 9958SOL    HW132316   7.523  10.224   2.591 -0.4646 -0.1935 -0.3846
 9958SOL    HW232317   7.524  10.127   2.707  2.1699  0.6234  0.3459
 9959SOL     OW32318   7.243   9.581   3.176 -0.1466 -0.4974 -0.0672
 9959SOL    HW132319   7.324   9.626   3.153 -0.5823  0.2553 -0.1947
 9959SOL    HW232320   7.258   9.490   3.154  1.2780 -0.6896  1.5280
 9960SOL     OW32321  10.353   3.636   3.651  0.0872 -0.4452 -0.3922
 9960SOL    HW132322  10.372   3.728   3.668 -1.7902 -0.3551  1.8836
 9960SOL    HW232323  10.263   3.636   3.619  0.4959 -1.4198 -1.5809
 9961SOL     OW32324   5.940   1.342   6.458 -0.0172  0.5605  0.3646
 9961SOL    HW132325   5.976   1.274   6.401 -1.5852 -0.1391  0.1690
 9961SOL    HW232326   5.970   1.424   6.418 -1.3633  0.1147 -1.7194
 9962SOL     OW32327   5.071   5.305   2.408 -0.3674  0.1596 -0.3351
 9962SOL    HW132328   5.119   5.224   2.396  0.0621  0.5590 -1.4356
 9962SOL    HW232329   4.979   5.281   2.393 -0.1751 -0.0092 -1.3255
 9963SOL     OW32330   1.527   9.286   0.739  0.3797  0.0810  0.3198
 9963SOL    HW132331   1.503   9.194   0.726  0.2506  0.1938 -0.2698
 9963SOL    HW232332   1.505   9.328   0.656 -0.3891  0.8205  0.8771
 9964SOL     OW32333   3.987   7.224   5.901 -0.5766  0.7732 -0.1175
 9964SOL    HW132334   4.052   7.285   5.866 -1.6492  1.8318 -0.3176
 9964SOL    HW232335   4.035   7.142   5.912  0.3683  1.0314 -1.9237
 9965SOL     OW32336   8.507   3.457   7.387  0.2432  0.2029 -0.7163
 9965SOL    HW132337   8.549   3.386   7.437 -1.0575 -0.8319 -1.0505
 9965SOL    HW232338   8.431   3.481   7.440 -1.3376 -1.1246 -2.2833
 9966SOL     OW32339   0.975   8.421   3.275 -0.0249 -0.4632 -0.4654
 9966SOL    HW132340   0.971   8.377   3.360 -0.0654  0.2920 -0.0677
 9966SOL    HW232341   0.883   8.433   3.250 -0.0166 -0.3163 -0.4235
 9967SOL     OW32342   8.939   1.921   5.362 -0.0711  0.2005 -0.2385
 9967SOL    HW132343   9.024   1.893   5.396  0.2745  0.6516 -0.7232
 9967SOL    HW232344   8.897   1.840   5.333  0.9360  0.1640 -1.6709
 9968SOL     OW32345   3.595   4.003   1.303  0.4638  0.2319  0.4188
 9968SOL    HW132346   3.648   3.938   1.257  0.1930  0.9100 -0.9289
 9968SOL    HW232347   3.506   3.988   1.270  0.0478  0.0178  1.5939
 9969SOL     OW32348   9.069   2.296   7.899 -0.2690 -0.2034  0.0221
 9969SOL    HW132349   9.119   2.336   7.971  0.2448  3.3701 -2.0574
 9969SOL    HW232350   9.093   2.204   7.902  4.4053  0.7511  0.8643
 9970SOL     OW32351   3.768   6.950   6.236 -0.8114 -0.1054  0.1512
 9970SOL    HW132352   3.675   6.936   6.255 -1.0867  2.7210  1.3958
 9970SOL    HW232353   3.769   7.021   6.172  0.5096 -0.6305 -0.4528
 9971SOL     OW32354   5.008   1.781   0.777 -0.7696  0.5361  0.0288
 9971SOL    HW132355   5.021   1.857   0.834  1.0480  0.6308 -0.4563
 9971SOL    HW232356   4.977   1.712   0.836 -0.1176  0.9830  0.9166
 9972SOL     OW32357   9.676   2.892   8.775 -0.4574 -0.1612  0.5597
 9972SOL    HW132358   9.594   2.844   8.774  0.2369 -1.4347  1.5862
 9972SOL    HW232359   9.705   2.893   8.684 -2.0959  1.2512 -0.0000
 9973SOL     OW32360   1.680   4.140   9.256 -0.1055  0.7723 -0.2561
 9973SOL    HW132361   1.639   4.221   9.225 -1.2031 -0.0658 -1.0991
 9973SOL    HW232362   1.681   4.083   9.180  0.7636  0.0226  0.2995
 9974SOL     OW32363   1.184   0.432   0.398 -0.1586  0.2278  0.0107
 9974SOL    HW132364   1.208   0.466   0.312  0.8007 -0.8344 -0.1734
 9974SOL    HW232365   1.089   0.428   0.397 -0.1455 -0.2878 -1.2198
 9975SOL     OW32366   6.726   0.087   9.951  0.4298  0.0883  0.1587
 9975SOL    HW132367   6.806   0.083   9.899  1.0595  0.9722  1.0158
 9975SOL    HW232368   6.729   0.174   9.992  0.2302 -0.7706  2.0759
 9976SOL     OW32369   5.641  10.164   4.438  0.3153 -0.4600  0.4096
 9976SOL    HW132370   5.554  10.149   4.474  0.1012  1.0361  0.5553
 9976SOL    HW232371   5.685  10.079   4.446 -1.8121 -1.8939 -1.6687
 9977SOL     OW32372   2.809   1.106   3.974  0.4891  0.0741  0.6956
 9977SOL    HW132373   2.843   1.162   3.904  1.6370 -0.4814  0.7742
 9977SOL    HW232374   2.827   1.154   4.054  1.3073 -0.2972  0.7502
 9978SOL     OW32375   3.736   9.645   4.417  0.2222 -0.2146  0.2210
 9978SOL    HW132376   3.667   9.586   4.389  0.9371 -0.4525 -1.1125
 9978SOL    HW232377   3.695   9.731   4.421 -0.0073 -0.2379 -1.2226
 9979SOL     OW32378   3.570   3.715   6.334 -0.1734 -0.1956  0.4325
 9979SOL    HW132379   3.622   3.746   6.409 -1.8722 -1.2433  2.1390
 9979SOL    HW232380   3.494   3.772   6.333 -1.2363 -1.5541  0.9320
 9980SOL     OW32381   1.750   9.863   0.315  0.1741  0.2664  0.2616
 9980SOL    HW132382   1.786   9.861   0.403  0.4307 -0.8649  0.1488
 9980SOL    HW232383   1.657   9.844   0.327  0.3395 -0.6014  0.2438
 9981SOL     OW32384   2.698   6.311   6.439  0.0033 -0.1530  0.2839
 9981SOL    HW132385   2.710   6.298   6.345  0.3896  0.4934  0.2366
 9981SOL    HW232386   2.741   6.236   6.480  0.7477  0.0989 -0.0249
 9982SOL     OW32387   2.738   2.945   4.593  0.1807  0.9338 -0.0529
 9982SOL    HW132388   2.686   2.926   4.515  0.3131  1.1306 -0.1899
 9982SOL    HW232389   2.828   2.951   4.560  0.5528 -1.1210  0.4241
 9983SOL     OW32390   2.436   6.804   6.972  0.3167  0.6548 -0.4023
 9983SOL    HW132391   2.357   6.757   6.998  1.1710  0.8623  2.9231
 9983SOL    HW232392   2.452   6.774   6.882 -2.7332 -0.4119 -0.7312
 9984SOL     OW32393   2.657   3.498   9.796 -0.4824  0.2429  0.2571
 9984SOL    HW132394   2.661   3.517   9.890 -0.5171 -1.0942  0.5486
 9984SOL    HW232395   2.654   3.584   9.755 -1.0380  0.8548  1.5054
 9985SOL     OW32396   4.521   9.814   0.982  0.2544 -0.2240  0.2954
 9985SOL    HW132397   4.472   9.773   0.911 -0.7663  1.4617 -0.0423
 9985SOL    HW232398   4.552   9.741   1.035 -0.7525 -1.4415 -0.7147
 9986SOL     OW32399   0.062   3.147  10.094  0.1407  0.2518  0.2284
 9986SOL    HW132400   0.091   3.177  10.008 -0.1194 -0.1185  0.0058
 9986SOL    HW232401   0.113   3.067  10.109 -0.9959 -0.6149 -0.3308
 9987SOL     OW32402   8.286   5.448   6.513 -0.9559 -0.3657  0.3012
 9987SOL    HW132403   8.246   5.411   6.435 -0.2492  1.0020 -0.7573
 9987SOL    HW232404   8.220   5.506   6.550 -0.3533  1.1350 -0.8919
 9988SOL     OW32405   5.802   6.025  10.003 -0.2537  0.2976 -0.3735
 9988SOL    HW132406   5.760   6.044  10.087 -3.2854  1.0233 -1.9281
 9988SOL    HW232407   5.846   6.107   9.980 -1.0806  0.7646 -0.3514
 9989SOL     OW32408   6.102   5.174   5.921 -0.4037  0.0572 -0.8653
 9989SOL    HW132409   6.174   5.198   5.862 -0.6728 -0.4021 -1.3916
 9989SOL    HW232410   6.041   5.247   5.916 -0.9874 -0.4815 -2.0818
 9990SOL     OW32411   7.857   9.124   2.768  0.5553 -0.5325 -0.7092
 9990SOL    HW132412   7.929   9.157   2.715  0.2634  0.0717 -0.7421
 9990SOL    HW232413   7.843   9.192   2.834 -0.5356 -0.2328 -1.2258
 9991SOL     OW32414   7.579   7.124   3.991 -0.1741 -0.6330 -0.5082
 9991SOL    HW132415   7.664   7.121   4.035 -0.5319 -0.2015  0.2240
 9991SOL    HW232416   7.591   7.187   3.920 -0.3796  0.8279  0.7068
 9992SOL     OW32417   4.434   7.083   1.346 -0.8945 -0.1476  0.3999
 9992SOL    HW132418   4.426   7.141   1.422 -0.1558  0.0953  0.3086
 9992SOL    HW232419   4.442   7.143   1.271 -2.0265 -0.3844  0.0672
 9993SOL     OW32420   5.049   1.624   2.589 -0.4235 -0.4598 -0.5986
 9993SOL    HW132421   4.956   1.649   2.588  0.2932  2.9040  1.1605
 9993SOL    HW232422   5.078   1.639   2.499 -0.8997  2.1244 -0.4221
 9994SOL     OW32423   8.125   6.523   7.179  0.5677  0.4967 -0.0437
 9994SOL    HW132424   8.051   6.487   7.130 -0.1995 -0.1720  1.5369
 9994SOL    HW232425   8.166   6.584   7.118 -2.6913  2.7221 -0.2868
 9995SOL     OW32426   3.385   5.995   6.075  0.6172  0.0462 -0.1048
 9995SOL    HW132427   3.362   5.911   6.036  0.1461 -0.2135  0.7084
 9995SOL    HW232428   3.309   6.051   6.059 -0.2111 -0.4906  1.6399
 9996SOL     OW32429   2.488   8.666   3.704 -0.8314  0.3258 -0.5573
 9996SOL    HW132430   2.572   8.668   3.659 -0.2046  0.3149  0.5546
 9996SOL    HW232431   2.501   8.725   3.779 -1.0498 -1.3890  0.8905
 9997SOL     OW32432   9.022   0.505   4.037  0.8874  0.4314  0.2065
 9997SOL    HW132433   9.010   0.574   3.972  2.5219  1.5301  1.0210
 9997SOL    HW232434   8.958   0.526   4.106  1.7167  1.4719  0.6901
 9998SOL     OW32435   1.880   6.626   6.853 -0.0608 -0.6606 -0.8589
 9998SOL    HW132436   1.895   6.721   6.847  0.1504 -0.6070  0.2725
 9998SOL    HW232437   1.882   6.608   6.947  0.2277 -1.8489 -1.0859
 9999SOL     OW32438   6.729   3.809   2.776  0.3132  0.2980  0.0924
 9999SOL    HW132439   6.797   3.815   2.709  0.7710 -0.3220  0.4865
 9999SOL    HW232440   6.771   3.840   2.856  0.3458 -0.6624  0.4717
10000SOL     OW32441   7.606  10.098   9.289  0.2687  0.2930 -0.6505
10000SOL    HW132442   7.581  10.006   9.284 -0.6205  0.5634 -1.5258
10000SOL    HW232443   7.693  10.102   9.249  0.2727 -0.1575 -0.6850
10001SOL     OW32444   6.718   0.184   2.935  0.0485 -0.3519 -0.1795
10001SOL    HW132445   6.636   0.231   2.953  0.5599  1.5269 -2.2712
10001SOL    HW232446   6.776   0.210   3.007 -0.5831 -0.1503  0.2735
10002SOL     OW32447  10.390  10.333   4.779 -0.3742 -0.9272  0.3645
10002SOL    HW132448  10.382  10.251   4.828 -0.1267 -1.4808 -0.5072
10002SOL    HW232449  10.484  10.352   4.779 -0.3455 -1.0564 -0.0939
10003SOL     OW32450   5.971   8.445   0.791  0.0242 -0.0386 -0.2839
10003SOL    HW132451   5.884   8.414   0.764  1.3439 -1.2051 -3.6023
10003SOL    HW232452   5.984   8.405   0.877 -1.8415 -1.6386 -0.6682
10004SOL     OW32453   3.648   0.298   9.358 -0.6414 -0.1519 -0.1160
10004SOL    HW132454   3.693   0.383   9.354 -1.6121  0.3596 -0.2595
10004SOL    HW232455   3.718   0.234   9.340  0.3350  0.5227  1.1527
10005SOL     OW32456   1.886   0.605   4.811 -0.8305  0.7820 -1.0633
10005SOL    HW132457   1.815   0.558   4.854 -0.4190  0.2973 -0.9052
10005SOL    HW232458   1.887   0.691   4.854  0.4450 -0.1326  0.9184
10006SOL     OW32459   7.894   1.702   9.958  0.2545 -0.1017  0.3619
10006SOL    HW132460   7.812   1.720  10.004 -0.4302  0.2586 -0.9463
10006SOL    HW232461   7.930   1.789   9.939 -1.0749 -0.0349 -2.4911
10007SOL     OW32462   0.533   8.346   1.092  0.7146 -0.3300  0.2209
10007SOL    HW132463   0.618   8.385   1.111  0.6815 -0.4315  0.5729
10007SOL    HW232464   0.496   8.325   1.177  0.7520 -1.1776  0.0429
10008SOL     OW32465   6.533   1.371   6.991  1.0199 -0.5485 -0.0854
10008SOL    HW132466   6.554   1.448   6.939 -1.0100 -0.3741 -0.7297
10008SOL    HW232467   6.477   1.404   7.062  0.6632 -1.3186  0.0044
10009SOL     OW32468   5.740   4.164   8.858  0.1715  0.3955 -0.8040
10009SOL    HW132469   5.813   4.137   8.802  0.9097  1.7097 -0.5278
10009SOL    HW232470   5.693   4.083   8.876  2.9168 -0.9687  0.9518
10010SOL     OW32471   3.834   1.676   8.126 -0.1356 -0.1526  0.3903
10010SOL    HW132472   3.777   1.599   8.115 -0.6183  0.3873 -1.2114
10010SOL    HW232473   3.783   1.737   8.178 -1.0630  0.3289 -1.0392
10011SOL     OW32474   4.563   8.244   8.785  0.3890  0.5523 -0.0382
10011SOL    HW132475   4.582   8.228   8.693  0.7041  0.8774 -0.0317
10011SOL    HW232476   4.580   8.160   8.828  1.7025  0.7887 -0.0545
10012SOL     OW32477   8.258  10.417   5.913  0.3197 -0.3048  0.2348
10012SOL    HW132478   8.283  10.325   5.918 -1.4222 -0.8889 -1.0338
10012SOL    HW232479   8.266  10.439   5.820 -2.5939 -0.2230 -0.0879
10013SOL     OW32480   5.439   5.030   0.544  0.2576 -0.0726  0.0813
10013SOL    HW132481   5.444   5.088   0.620  1.1298 -3.4751  2.8546
10013SOL    HW232482   5.528   4.999   0.531 -0.3045 -1.4466 -0.7463
10014SOL     OW32483   7.484   8.631   4.130  0.3675  0.0468  0.0647
10014SOL    HW132484   7.514   8.541   4.139 -1.7088 -0.6086  1.1077
10014SOL    HW232485   7.500   8.652   4.037  0.3031 -1.6172 -0.3599
10015SOL     OW32486   4.194   4.400   5.452  0.3556  0.1093 -0.0006
10015SOL    HW132487   4.145   4.467   5.500  1.5055  1.2816 -0.4090
10015SOL    HW232488   4.210   4.331   5.516  0.3320  0.8505  0.8186
10016SOL     OW32489   7.861   2.094   7.368 -0.3769  0.0351 -0.4930
10016SOL    HW132490   7.878   2.015   7.420 -0.6967  0.1783 -0.1664
10016SOL    HW232491   7.942   2.145   7.374 -0.0345 -0.4414 -1.0183
10017SOL     OW32492   6.142   0.567   0.908 -0.4602 -0.5046 -0.4550
10017SOL    HW132493   6.118   0.493   0.965  0.9702 -1.3532 -0.9239
10017SOL    HW232494   6.091   0.640   0.943  1.0759 -0.7296  2.6237
10018SOL     OW32495   1.263   9.647  10.289 -0.4555 -0.0799 -0.6047
10018SOL    HW132496   1.266   9.573  10.350 -1.2139 -0.1477 -0.6417
10018SOL    HW232497   1.230   9.720  10.341 -0.5626  0.0091 -0.7982
10019SOL     OW32498   9.792   0.432   2.924 -0.1429 -0.6064 -0.1179
10019SOL    HW132499   9.847   0.503   2.891 -1.8750 -0.1958 -2.3274
10019SOL    HW232500   9.703   0.468   2.923 -0.6647 -1.5621  2.4598
10020SOL     OW32501   7.791   9.316   6.489  0.1643  0.5664 -0.1413
10020SOL    HW132502   7.786   9.223   6.469 -0.0018  0.6788 -0.6230
10020SOL    HW232503   7.798   9.319   6.585  0.7413  0.0395 -0.1587
10021SOL     OW32504   5.344   7.883   7.224  0.0360  0.3244 -0.0287
10021SOL    HW132505   5.406   7.955   7.230  0.1774  0.1634  0.5623
10021SOL    HW232506   5.337   7.850   7.314 -0.9674  0.3897 -0.0741
10022SOL     OW32507   3.214   0.645   1.684 -0.4553  0.2778 -0.1772
10022SOL    HW132508   3.193   0.642   1.777 -0.6726  0.3092 -0.2262
10022SOL    HW232509   3.167   0.571   1.646  0.5768 -0.4714 -0.0721
10023SOL     OW32510   1.682   2.452   6.712  0.0928  0.1555 -0.3700
10023SOL    HW132511   1.632   2.432   6.791  0.4398  0.3370 -0.0983
10023SOL    HW232512   1.717   2.368   6.683 -1.4534 -0.1932 -1.3301
10024SOL     OW32513   6.249   8.201   3.226 -0.3975 -0.8228  0.5707
10024SOL    HW132514   6.333   8.228   3.187 -0.4013 -1.8035 -0.1613
10024SOL    HW232515   6.251   8.105   3.221 -1.8529 -0.8332 -0.0677
10025SOL     OW32516   4.388   4.132   2.784  0.1328 -0.2287  0.0955
10025SOL    HW132517   4.363   4.183   2.707  1.6484 -0.4352 -0.5589
10025SOL    HW232518   4.468   4.173   2.816  0.0580 -0.7409  0.9818
10026SOL     OW32519   2.929   8.393   6.637  0.3715  0.3515 -0.0017
10026SOL    HW132520   2.940   8.473   6.688 -1.1122  0.9112 -0.5155
10026SOL    HW232521   2.856   8.347   6.680  0.6656 -0.3184 -0.2063
10027SOL     OW32522   6.744   7.212   8.265 -0.1430 -0.7363 -0.1725
10027SOL    HW132523   6.732   7.300   8.229  0.6819 -0.4800  0.1614
10027SOL    HW232524   6.683   7.208   8.339 -1.4754 -1.0888 -1.2418
10028SOL     OW32525   7.532   8.245   5.909  0.2051  0.6912  0.2761
10028SOL    HW132526   7.520   8.162   5.954 -0.5384  1.3157  1.2872
10028SOL    HW232527   7.484   8.236   5.827 -0.0285  0.1877  0.4663
10029SOL     OW32528   4.859   0.929   2.757 -0.9366 -0.3982 -0.2965
10029SOL    HW132529   4.809   0.906   2.835 -0.7391  0.0294 -0.0418
10029SOL    HW232530   4.853   0.851   2.701 -1.6216 -0.4675 -0.1370
10030SOL     OW32531   9.485   6.631   3.166 -0.1192 -0.2071 -0.6973
10030SOL    HW132532   9.427   6.696   3.126  1.0275  1.1725 -0.1947
10030SOL    HW232533   9.567   6.677   3.180  0.3730 -1.4437  0.7617
10031SOL     OW32534   6.882   0.087   8.156  0.2395 -0.8014  0.4761
10031SOL    HW132535   6.925   0.141   8.222 -0.2509 -0.2186  0.3293
10031SOL    HW232536   6.835   0.021   8.207 -2.3542  1.2246  0.9418
10032SOL     OW32537   1.697   4.970   9.923  0.4547  0.0618  0.3152
10032SOL    HW132538   1.708   4.881   9.956  0.9257 -0.6981 -1.7538
10032SOL    HW232539   1.674   4.959   9.831 -1.4488  2.0485  0.4646
10033SOL     OW32540   3.155   4.471   5.550 -0.4050 -0.1244  0.3709
10033SOL    HW132541   3.138   4.393   5.497 -1.6554 -0.8139  1.7216
10033SOL    HW232542   3.077   4.525   5.539 -0.7589 -0.3510  1.5920
10034SOL     OW32543   8.710   1.555   1.753 -0.4261  0.4912  0.3503
10034SOL    HW132544   8.699   1.601   1.837 -0.3403  0.6306  0.2865
10034SOL    HW232545   8.792   1.507   1.764  0.3637  1.6745 -0.1753
10035SOL     OW32546   9.277   9.585   9.251 -0.3031 -0.3780  0.2122
10035SOL    HW132547   9.308   9.560   9.337 -0.4387 -0.1727  0.3208
10035SOL    HW232548   9.316   9.521   9.191 -1.4286 -1.4626  0.5988
10036SOL     OW32549   7.391   4.799   6.029 -0.5966  0.3120  0.1256
10036SOL    HW132550   7.376   4.861   6.101 -3.1969 -1.2647  1.0950
10036SOL    HW232551   7.474   4.756   6.052  0.1143  1.8630  0.5953
10037SOL     OW32552   3.144   2.076   4.332  0.0721  0.7319 -0.1220
10037SOL    HW132553   3.131   1.983   4.346 -2.0188  1.2792  2.3777
10037SOL    HW232554   3.096   2.095   4.252 -3.3399  0.2558  1.6099
10038SOL     OW32555   4.458   8.831   5.854 -0.0673 -0.5799  0.5951
10038SOL    HW132556   4.370   8.869   5.852  0.3039  0.3485 -2.2725
10038SOL    HW232557   4.451   8.749   5.806  1.1324  1.0126 -2.5827
10039SOL     OW32558   9.601   2.839   0.218  0.2312 -0.2084 -0.5188
10039SOL    HW132559   9.520   2.868   0.260  0.0368 -0.2273 -0.8805
10039SOL    HW232560   9.660   2.914   0.227 -0.1864  0.2213 -1.2216
10040SOL     OW32561   7.890   2.210   3.652 -0.3240 -0.1595 -0.4183
10040SOL    HW132562   7.938   2.272   3.596 -1.1896 -0.7547 -1.8962
10040SOL    HW232563   7.957   2.165   3.702  0.5404  0.0123 -1.4003
10041SOL     OW32564   7.960   9.058   5.698 -0.0136 -0.4231  0.5093
10041SOL    HW132565   7.953   9.053   5.603  2.0687  0.2759  0.2705
10041SOL    HW232566   7.892   9.119   5.724 -1.5501 -1.7090 -0.3558
10042SOL     OW32567   4.872   4.383   0.335  0.1061  0.2064  0.1010
10042SOL    HW132568   4.816   4.325   0.387 -0.3918  0.2955 -0.3243
10042SOL    HW232569   4.833   4.382   0.248  1.4895 -0.7070 -0.5385
10043SOL     OW32570   5.704   4.839   2.965 -0.0105  0.0172 -0.3736
10043SOL    HW132571   5.760   4.903   2.920  0.0063 -0.3720 -0.9181
10043SOL    HW232572   5.662   4.889   3.035 -1.1033  1.0004 -1.6683
10044SOL     OW32573   1.848   6.820   6.264  0.7557 -0.0908 -0.3667
10044SOL    HW132574   1.775   6.758   6.252 -0.9489  1.1496  2.5618
10044SOL    HW232575   1.893   6.788   6.342  0.6526  1.5702  0.3987
10045SOL     OW32576   3.967  10.417   9.322 -0.6140 -0.1454  0.2174
10045SOL    HW132577   4.015  10.379   9.249  1.5147  1.5845  0.6463
10045SOL    HW232578   3.886  10.450   9.282 -0.5143 -1.1697 -0.9115
10046SOL     OW32579   1.050   1.250   6.283 -0.3874  0.1776 -0.0249
10046SOL    HW132580   1.094   1.222   6.203 -0.7128  0.7343 -0.4056
10046SOL    HW232581   1.049   1.173   6.339 -1.1144 -0.5317 -0.9831
10047SOL     OW32582   0.253   9.653   9.535 -0.6074  0.0484 -0.1484
10047SOL    HW132583   0.296   9.724   9.488 -1.1402 -0.2081 -1.0381
10047SOL    HW232584   0.299   9.649   9.619  0.0517  0.8122 -0.4583
10048SOL     OW32585   3.544   0.544   9.102  0.2092 -0.1136  0.0404
10048SOL    HW132586   3.468   0.487   9.090 -0.3728  0.7092 -0.2164
10048SOL    HW232587   3.508   0.632   9.108  1.1966  0.3690 -0.8509
10049SOL     OW32588   5.574   3.271   9.818 -0.0423  0.0543 -0.0032
10049SOL    HW132589   5.556   3.277   9.725  0.2552 -0.9778 -0.1370
10049SOL    HW232590   5.662   3.308   9.828  0.5209 -1.1392 -0.3595
10050SOL     OW32591   5.201   0.537   3.177  0.2395  0.3757 -0.1895
10050SOL    HW132592   5.118   0.570   3.211  1.2742  1.5338  1.4034
10050SOL    HW232593   5.199   0.558   3.084 -0.9739  0.9867 -0.0527
10051SOL     OW32594   1.863   0.847   5.904 -0.1294 -0.1725  0.0573
10051SOL    HW132595   1.858   0.800   5.987  0.6683 -1.5651 -0.6351
10051SOL    HW232596   1.783   0.823   5.857  0.1502 -0.6555 -0.1859
10052SOL     OW32597   0.827   3.905   3.280 -1.0523 -0.6495  0.2178
10052SOL    HW132598   0.831   3.820   3.324  0.7650 -1.8804 -2.0841
10052SOL    HW232599   0.777   3.888   3.200 -0.8290  0.5181 -0.1895
10053SOL     OW32600   2.051   1.183   1.495  0.8410 -0.0039  0.2552
10053SOL    HW132601   2.074   1.096   1.463 -0.1865 -0.5369  0.9049
10053SOL    HW232602   2.031   1.234   1.417 -2.0170 -1.3886 -0.0410
10054SOL     OW32603   2.401   5.802   8.710  0.2767 -0.3601  0.2679
10054SOL    HW132604   2.365   5.886   8.682  0.1175 -0.0927  1.2394
10054SOL    HW232605   2.450   5.822   8.789 -0.2890 -1.2729  0.8707
10055SOL     OW32606   1.994   1.328   2.460  0.3575  0.3438  0.4326
10055SOL    HW132607   1.989   1.377   2.378 -1.5989  0.4439  0.5475
10055SOL    HW232608   1.934   1.254   2.447  1.8161 -0.9999  0.9497
10056SOL     OW32609   0.406   6.749   7.588  0.2142 -0.0033  0.2786
10056SOL    HW132610   0.493   6.742   7.627 -0.7219 -0.8303  2.3478
10056SOL    HW232611   0.377   6.838   7.609  0.0896 -0.1279  0.6344
10057SOL     OW32612   1.861   9.060   0.749 -0.3536 -0.1971  0.3149
10057SOL    HW132613   1.766   9.047   0.751 -0.6071  1.1039 -1.4156
10057SOL    HW232614   1.877   9.115   0.672  1.9485 -1.4759 -0.2258
10058SOL     OW32615   8.327   9.668   9.976 -0.0002 -0.2024 -0.2578
10058SOL    HW132616   8.374   9.739   9.931 -1.3278  0.3755 -0.7698
10058SOL    HW232617   8.348   9.681  10.069 -0.8447  1.3438 -0.2606
10059SOL     OW32618   8.579   2.761   6.170 -0.1003  0.1148  0.0971
10059SOL    HW132619   8.554   2.668   6.169  0.9715 -0.2172  1.0561
10059SOL    HW232620   8.586   2.785   6.078 -3.9271  0.3004 -0.2967
10060SOL     OW32621   2.585   2.551   1.658  0.1868 -0.2960 -0.9693
10060SOL    HW132622   2.569   2.599   1.576  0.3214 -1.2501 -1.5692
10060SOL    HW232623   2.600   2.461   1.630  1.9799 -0.3239 -0.0370
10061SOL     OW32624   1.159   0.870   5.134 -0.0725 -0.1686  0.5730
10061SOL    HW132625   1.154   0.964   5.117  1.0597  0.0343  1.2138
10061SOL    HW232626   1.233   0.840   5.081 -0.0867 -0.5891  0.7882
10062SOL     OW32627   0.610   9.183   0.300  0.0873  0.0032 -0.0466
10062SOL    HW132628   0.596   9.124   0.226 -1.9896  0.6898 -0.2721
10062SOL    HW232629   0.650   9.128   0.368  0.9863 -0.8979 -1.2659
10063SOL     OW32630   3.508   6.411   0.050 -0.0128 -0.5553 -0.0020
10063SOL    HW132631   3.426   6.453   0.027 -0.0447 -1.0873 -0.9471
10063SOL    HW232632   3.553   6.400  -0.034 -0.9439 -4.3433 -0.1983
10064SOL     OW32633   0.965   9.057   8.006 -0.2258  0.3081 -0.0597
10064SOL    HW132634   0.963   9.123   8.076 -2.9467 -0.6125  0.8806
10064SOL    HW232635   0.883   9.009   8.017  0.9497 -2.2680 -1.6555
10065SOL     OW32636   6.225   2.902   2.984  0.2323  0.7641 -0.2563
10065SOL    HW132637   6.295   2.914   2.921 -0.0187  1.6788 -0.3725
10065SOL    HW232638   6.179   2.986   2.985 -0.4195  0.4088  0.3465
10066SOL     OW32639   5.988   5.422   8.066  0.3365 -0.6621  0.1634
10066SOL    HW132640   5.906   5.454   8.104  0.0843  0.1971 -1.0291
10066SOL    HW232641   6.021   5.358   8.129 -0.1306  0.5814  1.7282
10067SOL     OW32642   9.430   3.112   1.560 -0.2092  0.1441  0.4527
10067SOL    HW132643   9.523   3.126   1.579  0.3821 -1.3620 -1.0388
10067SOL    HW232644   9.426   3.024   1.522 -2.3239  0.0025  0.8444
10068SOL     OW32645   8.799   5.524   3.149 -0.3993  0.1316  0.0032
10068SOL    HW132646   8.766   5.449   3.100 -1.3051 -0.3122  1.2315
10068SOL    HW232647   8.722   5.561   3.193 -0.0639  2.0903 -0.9278
10069SOL     OW32648   8.767   7.316   9.425 -0.2693 -0.3368  0.3451
10069SOL    HW132649   8.675   7.297   9.408 -0.5148 -1.1663  2.3436
10069SOL    HW232650   8.781   7.402   9.386 -2.1085  0.1556  0.6817
10070SOL     OW32651   7.004   4.969   6.562 -0.2329  0.3881 -0.0839
10070SOL    HW132652   6.974   4.948   6.474 -1.6381 -0.0402  0.4838
10070SOL    HW232653   6.955   4.912   6.620  1.7788 -0.4501  0.9144
10071SOL     OW32654   6.184   3.448   9.839 -0.8001 -0.0980  0.1650
10071SOL    HW132655   6.196   3.356   9.816 -1.8496 -0.2276  0.0752
10071SOL    HW232656   6.222   3.455   9.927  3.3172  0.4270 -1.4534
10072SOL     OW32657   2.615   7.042   0.050  0.2943 -0.3621  0.5849
10072SOL    HW132658   2.692   7.004   0.093 -0.2503 -1.4902  0.5988
10072SOL    HW232659   2.542   6.986   0.078 -0.3058 -0.2068 -0.6038
10073SOL     OW32660   5.552   7.844   2.162 -0.2353 -0.3014 -0.3895
10073SOL    HW132661   5.497   7.814   2.090 -0.7796  1.3989 -0.7207
10073SOL    HW232662   5.642   7.833   2.130 -0.4154 -1.2821 -0.5880
10074SOL     OW32663   4.225   4.360   0.509  0.3157 -1.0665 -0.3287
10074SOL    HW132664   4.316   4.330   0.501  1.2710  1.3416  0.4911
10074SOL    HW232665   4.195   4.321   0.591  0.1170 -2.9513 -1.2570
10075SOL     OW32666  10.345   5.603   0.746  0.1954  0.6567 -0.3207
10075SOL    HW132667  10.296   5.565   0.674 -0.0348 -0.6803  0.5086
10075SOL    HW232668  10.388   5.680   0.708 -0.2795  0.2438 -1.7533
10076SOL     OW32669   7.359   4.853   0.969 -0.1625  0.7598 -0.2828
10076SOL    HW132670   7.279   4.894   1.000  1.2036  3.7281 -0.2812
10076SOL    HW232671   7.386   4.795   1.039 -1.4122  1.0467  0.4573
10077SOL     OW32672   1.035   9.476   7.431 -0.2695  0.3613  0.6666
10077SOL    HW132673   1.081   9.394   7.414  0.2054  1.0244 -1.5708
10077SOL    HW232674   1.052   9.495   7.523 -0.2682 -1.9481  1.1964
10078SOL     OW32675   7.059   1.484   4.646  0.2060 -0.2765  0.1083
10078SOL    HW132676   7.032   1.575   4.661 -0.3699 -0.4701  0.3061
10078SOL    HW232677   7.068   1.448   4.734 -0.6603 -0.7108  0.0325
10079SOL     OW32678  10.014   3.943   2.393 -0.0493 -0.9650  0.0825
10079SOL    HW132679   9.980   3.994   2.319  0.6863  1.0992  1.1129
10079SOL    HW232680  10.006   4.001   2.468 -1.2919 -3.2016  1.7981
10080SOL     OW32681   3.977   5.607   3.169 -0.1935 -0.2983  0.1032
10080SOL    HW132682   4.011   5.642   3.086 -1.0157 -1.3307 -0.7027
10080SOL    HW232683   3.896   5.563   3.144  0.2110 -1.7533  1.2641
10081SOL     OW32684   9.166   3.688   7.196 -0.5607  0.0618 -0.0461
10081SOL    HW132685   9.241   3.629   7.193  0.0057  0.7914 -0.3832
10081SOL    HW232686   9.192   3.764   7.145 -1.1371  0.7847  0.6952
10082SOL     OW32687   2.859   3.556   3.202  0.3232  0.2610 -0.3472
10082SOL    HW132688   2.881   3.525   3.114 -0.3243  1.4583 -0.9632
10082SOL    HW232689   2.906   3.639   3.210  0.3658  0.1603  0.4329
10083SOL     OW32690   3.072   5.690   2.076 -0.5085  0.8858 -0.2715
10083SOL    HW132691   3.009   5.626   2.045  0.4191 -0.6913  0.9647
10083SOL    HW232692   3.080   5.674   2.170  1.9435  0.7953 -0.4220
10084SOL     OW32693   7.611   6.649   9.857 -0.4171 -0.0471  0.5906
10084SOL    HW132694   7.685   6.657   9.918  1.9896  0.2616 -2.1901
10084SOL    HW232695   7.597   6.555   9.849  0.6054 -0.1693  0.1247
10085SOL     OW32696   2.107   0.037   7.249  0.8429  0.6718  0.2564
10085SOL    HW132697   2.139   0.038   7.339  1.2119  1.7398  0.1268
10085SOL    HW232698   2.123   0.125   7.216 -1.3849  0.9996 -0.1356
10086SOL     OW32699   6.865  10.193   4.266 -0.0626 -0.4090  0.0728
10086SOL    HW132700   6.811  10.205   4.188 -1.0224 -0.4277  0.7208
10086SOL    HW232701   6.886  10.100   4.266 -2.1965 -0.9549  1.1639
10087SOL     OW32702   4.694   3.427   4.675  0.4279 -0.0670 -0.1698
10087SOL    HW132703   4.783   3.422   4.710  0.4116  0.3739 -0.0590
10087SOL    HW232704   4.704   3.470   4.590  0.3254 -0.0435 -0.1698
10088SOL     OW32705  10.302   1.146   0.959  0.7753 -0.0771  0.1713
10088SOL    HW132706  10.386   1.153   1.005  1.8216 -0.8000 -1.5198
10088SOL    HW232707  10.279   1.237   0.938  0.8545  0.1657  1.1030
10089SOL     OW32708   2.032   1.772   3.321  0.2425  0.5063 -0.3866
10089SOL    HW132709   2.111   1.795   3.370 -0.4778 -0.0800  1.0928
10089SOL    HW232710   2.043   1.679   3.299  0.3042  0.6214 -0.8566
10090SOL     OW32711   7.543   6.885   9.181 -0.0912  0.0359  0.6568
10090SOL    HW132712   7.620   6.837   9.212 -0.0869  0.3565  1.1502
10090SOL    HW232713   7.531   6.955   9.245 -1.9108 -1.1089  1.6733
10091SOL     OW32714   7.948   3.738   9.182  0.3158 -0.6829 -0.0400
10091SOL    HW132715   7.854   3.753   9.173  0.2916  0.0979  1.1867
10091SOL    HW232716   7.989   3.812   9.137  0.2840  0.0109  1.0152
10092SOL     OW32717   4.145   3.017   3.120 -0.5300  0.2649 -0.1219
10092SOL    HW132718   4.207   2.972   3.063  0.1576  0.0473  0.7805
10092SOL    HW232719   4.183   3.011   3.207 -1.8867 -0.0017  0.4840
10093SOL     OW32720   9.930   2.336   3.014  0.2629  0.2302 -0.2547
10093SOL    HW132721   9.940   2.413   3.071  0.6738  0.9350 -1.2476
10093SOL    HW232722   9.909   2.373   2.928 -0.3282 -0.8146 -0.5742
10094SOL     OW32723   9.982   8.156   8.242  0.2536 -0.6129 -0.4772
10094SOL    HW132724   9.976   8.241   8.285  1.2191 -1.0733  0.6108
10094SOL    HW232725  10.036   8.172   8.164 -0.7323  0.0359 -1.0482
10095SOL     OW32726   9.011   7.121   1.334  0.3474  0.0729 -0.1733
10095SOL    HW132727   9.029   7.075   1.416  1.6737  0.7378 -0.0639
10095SOL    HW232728   8.950   7.064   1.287  1.8474 -1.7591 -0.0095
10096SOL     OW32729  10.293   7.105   7.127  0.0252 -0.6335  0.1526
10096SOL    HW132730  10.332   7.048   7.061 -2.2591 -2.3671  0.1481
10096SOL    HW232731  10.233   7.162   7.077  1.0053  0.6344  0.3668
10097SOL     OW32732   6.915   5.417   7.981 -0.2152 -0.1307 -0.1199
10097SOL    HW132733   6.990   5.458   7.938 -0.1530 -0.5125 -0.3777
10097SOL    HW232734   6.860   5.386   7.909 -1.6592  1.9550 -0.0164
10098SOL     OW32735   0.760   3.309   0.646 -0.0512 -0.4460 -0.4469
10098SOL    HW132736   0.695   3.245   0.673 -0.0389 -0.8095 -1.2528
10098SOL    HW232737   0.739   3.327   0.554  0.2393  0.3416 -0.3662
10099SOL     OW32738   9.346   2.301   7.707  0.5350 -0.6946 -0.0663
10099SOL    HW132739   9.367   2.323   7.798 -0.0567  1.6964 -0.4317
10099SOL    HW232740   9.420   2.249   7.677  0.3743 -2.2223  1.9816
10100SOL     OW32741   2.397   7.728   5.833  0.1562  0.0151 -0.7281
10100SOL    HW132742   2.331   7.690   5.891  1.0740 -1.2272 -0.4656
10100SOL    HW232743   2.348   7.786   5.775 -0.9800  0.1237  0.3067
10101SOL     OW32744   7.439   5.761   6.567  0.5747  0.1192 -0.2965
10101SOL    HW132745   7.350   5.778   6.596  0.1009 -0.5126 -1.3180
10101SOL    HW232746   7.457   5.671   6.595  0.8094  0.1640 -0.2997
10102SOL     OW32747   5.773   4.675   8.626  0.3361 -0.4202  0.1900
10102SOL    HW132748   5.738   4.757   8.661 -0.4656 -0.0808 -1.3501
10102SOL    HW232749   5.786   4.620   8.704 -1.0163  0.4446  1.0656
10103SOL     OW32750   9.578   3.483   9.217  0.9595  0.1577  0.3484
10103SOL    HW132751   9.637   3.538   9.268  0.5732 -0.0196  0.9999
10103SOL    HW232752   9.497   3.480   9.269  1.1650 -1.4751  0.6202
10104SOL     OW32753   1.817   6.475   6.558  1.1397 -0.8693 -0.7331
10104SOL    HW132754   1.786   6.402   6.504 -2.9564  0.3658 -0.3596
10104SOL    HW232755   1.792   6.452   6.647  2.0711 -0.0958 -0.2558
10105SOL     OW32756   1.172   3.899   2.364 -0.4298  0.1993  0.5422
10105SOL    HW132757   1.220   3.884   2.282 -1.8016 -1.7456  0.0245
10105SOL    HW232758   1.178   3.816   2.411 -1.5850  0.5681  1.3887
10106SOL     OW32759   0.233   4.556   2.316  0.5849 -0.4975 -0.2814
10106SOL    HW132760   0.265   4.509   2.239 -0.0899  0.2318 -1.0262
10106SOL    HW232761   0.138   4.557   2.306  0.4215 -1.0020  0.9410
10107SOL     OW32762   9.357   6.269   6.369 -0.2615  0.3999  0.4214
10107SOL    HW132763   9.283   6.330   6.363  0.6853  1.8597  2.5127
10107SOL    HW232764   9.432   6.324   6.389  0.8991 -1.3303  1.0453
10108SOL     OW32765   2.231   8.005   2.242  0.0343 -0.3376  0.6538
10108SOL    HW132766   2.312   8.057   2.236  0.4678 -1.0672  0.0091
10108SOL    HW232767   2.174   8.043   2.175 -0.0916  0.0410  0.9667
10109SOL     OW32768   6.949   7.527   1.179  0.3194  0.6445  0.0084
10109SOL    HW132769   7.043   7.533   1.194  0.3247  0.1827  0.1837
10109SOL    HW232770   6.930   7.433   1.183  0.4208  0.3320 -3.3881
10110SOL     OW32771   8.683   2.444   2.623 -0.2268 -0.3117 -0.7200
10110SOL    HW132772   8.720   2.532   2.624 -3.5244  1.2584 -0.8210
10110SOL    HW232773   8.690   2.416   2.533  1.4542 -0.4749 -0.5611
10111SOL     OW32774   5.807   8.550   5.720 -0.2790  0.1815 -0.1941
10111SOL    HW132775   5.847   8.609   5.656 -1.0057  2.7132  1.4907
10111SOL    HW232776   5.713   8.554   5.701 -0.4208  0.3435  0.4920
10112SOL     OW32777   9.590   1.911   1.845 -0.0379 -0.2230 -0.2861
10112SOL    HW132778   9.536   1.976   1.800  0.3524  0.4702  0.2325
10112SOL    HW232779   9.580   1.932   1.938  0.5911 -0.5051 -0.1506
10113SOL     OW32780   2.734   4.254   1.573  0.4932 -0.3494  0.6019
10113SOL    HW132781   2.680   4.321   1.615  0.8919  0.0488  0.4872
10113SOL    HW232782   2.730   4.179   1.633 -1.0237 -0.7127  0.0969
10114SOL     OW32783   5.384   0.119   4.958  0.7394 -0.0773 -0.2253
10114SOL    HW132784   5.365   0.062   4.883 -0.1501 -2.1046  1.4585
10114SOL    HW232785   5.475   0.101   4.979 -0.0433 -2.5147  1.5060
10115SOL     OW32786   8.412   0.004   4.300  0.1805  0.1541  0.8237
10115SOL    HW132787   8.425   0.060   4.223 -1.6667  0.9366  1.0228
10115SOL    HW232788   8.364  -0.072   4.266  0.7479 -0.2580  0.9375
10116SOL     OW32789   2.654   2.889   0.638  0.3717  0.5307 -0.3206
10116SOL    HW132790   2.622   2.843   0.561  0.9708 -0.0434 -0.2355
10116SOL    HW232791   2.723   2.946   0.605 -0.0765  1.0503 -0.3614
10117SOL     OW32792   2.532   6.260   1.241 -0.2639  0.3847  0.3045
10117SOL    HW132793   2.595   6.191   1.265  0.4440 -0.2548 -2.9400
10117SOL    HW232794   2.498   6.232   1.156 -2.8890  2.1728  0.6653
10118SOL     OW32795   7.651   0.165   1.702 -0.3678  0.4228 -0.2309
10118SOL    HW132796   7.646   0.243   1.646  0.0105  0.6754  0.0773
10118SOL    HW232797   7.682   0.096   1.645  1.3863  1.0016 -0.0304
10119SOL     OW32798   1.514   6.049   7.035  0.2683 -0.3919 -0.1224
10119SOL    HW132799   1.538   6.084   7.121  0.8186 -1.9453  0.3853
10119SOL    HW232800   1.578   5.980   7.018  0.0777 -0.2149 -1.7263
10120SOL     OW32801   9.861   2.967   0.893  0.1507 -0.3316  0.0895
10120SOL    HW132802   9.794   3.031   0.914  0.5139  0.1733 -0.2563
10120SOL    HW232803   9.836   2.932   0.808 -0.2270 -0.8981  0.4289
10121SOL     OW32804   4.885   9.445   9.773  0.4052 -0.7155  0.1849
10121SOL    HW132805   4.861   9.519   9.830  0.8571 -0.1299 -0.3643
10121SOL    HW232806   4.886   9.482   9.685  1.5071 -1.1569 -0.0084
10122SOL     OW32807   2.778   1.253   7.208 -0.0668 -0.8999  0.5335
10122SOL    HW132808   2.801   1.197   7.282  1.2442 -0.2857  0.6087
10122SOL    HW232809   2.862   1.277   7.169 -0.7265 -1.3317 -1.2604
10123SOL     OW32810   9.284   3.521   3.287  0.2627  0.4393 -0.3690
10123SOL    HW132811   9.293   3.427   3.306  1.8824  0.8680  1.2699
10123SOL    HW232812   9.197   3.528   3.246  0.1089 -1.7624 -0.5797
10124SOL     OW32813   5.002   9.807   1.137  0.1733 -0.1879 -0.5173
10124SOL    HW132814   4.913   9.810   1.173 -0.0440 -0.1441 -1.0548
10124SOL    HW232815   5.058   9.796   1.214  0.0204  3.4518  0.2981
10125SOL     OW32816   0.924  10.401   6.796 -0.0154 -0.0004  0.1794
10125SOL    HW132817   1.007  10.445   6.813  0.4944 -0.4937 -0.9049
10125SOL    HW232818   0.864  10.435   6.863  1.1285  0.1378  1.1729
10126SOL     OW32819   2.340   5.718   1.761 -0.1332  0.3056  0.2396
10126SOL    HW132820   2.394   5.773   1.818  1.9733 -1.5499  0.1631
10126SOL    HW232821   2.250   5.734   1.791  0.5069  2.6235  1.1637
10127SOL     OW32822   6.354   4.270   7.463 -0.0156  0.4289  0.0045
10127SOL    HW132823   6.381   4.178   7.463  1.5999  0.8862 -0.4496
10127SOL    HW232824   6.273   4.270   7.411  1.5849 -0.3443 -2.7155
10128SOL     OW32825   7.659   7.345   5.068  0.0960  0.2020  0.3049
10128SOL    HW132826   7.711   7.314   4.993 -0.2462 -0.6181  0.3973
10128SOL    HW232827   7.699   7.303   5.144  1.2910  2.0761  0.7822
10129SOL     OW32828   3.639   0.475   2.291 -0.0763 -0.2355  0.4199
10129SOL    HW132829   3.617   0.384   2.273 -0.8947 -0.3615  1.9369
10129SOL    HW232830   3.702   0.498   2.222 -0.4930 -1.6662 -0.4918
10130SOL     OW32831   9.968   1.295   9.445  0.2399  0.0879  0.1537
10130SOL    HW132832   9.992   1.369   9.390  1.2095  0.0626  0.5183
10130SOL    HW232833  10.044   1.237   9.443  0.3579  0.1516  1.6108
10131SOL     OW32834   5.985   9.968   3.587 -0.1822  0.6823 -0.5554
10131SOL    HW132835   5.944   9.944   3.670  2.2281 -0.0319  0.4945
10131SOL    HW232836   6.029   9.889   3.558  2.7027  2.0285 -0.2046
10132SOL     OW32837   7.484   2.809   7.604  0.1740 -0.0483  0.4799
10132SOL    HW132838   7.394   2.830   7.630  0.2435  0.4619  0.3252
10132SOL    HW232839   7.482   2.808   7.508  0.3107 -0.1219  0.4778
10133SOL     OW32840   2.705   4.136   6.876  0.1951  0.5539  0.5084
10133SOL    HW132841   2.675   4.177   6.795  0.0521 -0.2587  0.1408
10133SOL    HW232842   2.625   4.116   6.925  0.2465  0.4828  0.5647
10134SOL     OW32843   8.407   8.901   6.130  0.6110 -0.0917  0.3135
10134SOL    HW132844   8.397   8.850   6.210  0.1216 -0.2957  0.1269
10134SOL    HW232845   8.336   8.870   6.073  1.3582 -0.4188 -0.4536
10135SOL     OW32846   8.042   7.071   5.480  0.8973  0.1269 -0.3817
10135SOL    HW132847   7.991   6.991   5.482  0.8767  0.0971 -1.4854
10135SOL    HW232848   8.050   7.097   5.572 -0.6250 -0.1553 -0.1399
10136SOL     OW32849   5.524   4.682   2.836 -0.1805 -0.3046  0.3161
10136SOL    HW132850   5.580   4.712   2.908 -0.5777 -0.0585  0.5278
10136SOL    HW232851   5.585   4.647   2.771  0.3488  1.3088 -0.1251
10137SOL     OW32852   4.603   6.795   6.286 -0.1334  0.2681 -0.3268
10137SOL    HW132853   4.653   6.777   6.366  1.0412  2.1679 -0.5724
10137SOL    HW232854   4.670   6.820   6.222 -1.3059  2.0732 -0.9096
10138SOL     OW32855   0.536   6.217   1.303  0.1726  0.1297 -0.3050
10138SOL    HW132856   0.523   6.122   1.306  2.9231 -0.3219  0.8564
10138SOL    HW232857   0.568   6.234   1.214 -1.0096  0.1017 -0.7455
10139SOL     OW32858   1.930   8.966   8.657 -0.3688  0.2991 -0.4395
10139SOL    HW132859   1.986   8.960   8.734  0.7640  2.2181 -1.0366
10139SOL    HW232860   1.860   8.904   8.673 -0.1790  0.6441  2.1435
10140SOL     OW32861   4.518   8.740   3.081  0.5572  0.2295 -0.0468
10140SOL    HW132862   4.581   8.668   3.074 -0.8900 -1.7688  4.0768
10140SOL    HW232863   4.542   8.785   3.162 -1.8614  0.8466  0.4013
10141SOL     OW32864   5.050   0.476   2.614  0.1631  0.2895 -0.0870
10141SOL    HW132865   5.071   0.391   2.651 -2.2856  0.0518  0.9380
10141SOL    HW232866   5.071   0.467   2.521  0.1821 -1.3532  0.0415
10142SOL     OW32867   1.860   4.676   8.730  0.0076 -0.1006  0.3511
10142SOL    HW132868   1.779   4.722   8.704  0.0564 -0.5058 -0.5708
10142SOL    HW232869   1.895   4.642   8.648 -0.5253 -2.6067  1.0770
10143SOL     OW32870   4.041   2.061   0.361  0.1515 -0.1812 -0.1684
10143SOL    HW132871   4.090   2.102   0.290 -1.0525  1.0113 -0.3454
10143SOL    HW232872   3.956   2.039   0.323  0.6358 -2.7129 -0.0180
10144SOL     OW32873   4.174   1.299   8.671 -0.2179  0.1769 -0.1174
10144SOL    HW132874   4.214   1.319   8.586 -1.6073 -0.5814 -0.9816
10144SOL    HW232875   4.215   1.217   8.697 -0.4059 -0.0376 -0.4807
10145SOL     OW32876   5.342   0.466   5.603  0.1322  0.5406  0.2131
10145SOL    HW132877   5.313   0.380   5.571  1.4800  0.1649 -0.0841
10145SOL    HW232878   5.386   0.447   5.685  0.4020  0.9485  0.1632
10146SOL     OW32879   0.974   4.293   1.247 -0.0826 -0.1421 -0.2359
10146SOL    HW132880   0.903   4.251   1.199  0.0217 -0.6566  0.0542
10146SOL    HW232881   0.953   4.387   1.243  0.4297 -0.0806 -2.0706
10147SOL     OW32882   3.749  10.406   2.532  0.0768 -0.0609  0.0998
10147SOL    HW132883   3.716  10.477   2.587 -1.4552 -1.0216  0.4790
10147SOL    HW232884   3.763  10.447   2.446 -2.1539  0.4366 -0.0869
10148SOL     OW32885   5.712   4.804   3.454  0.4572  0.0210  0.1950
10148SOL    HW132886   5.713   4.897   3.473 -0.4449 -0.0031  0.4193
10148SOL    HW232887   5.803   4.783   3.430  0.6130  0.9957 -0.1119
10149SOL     OW32888   6.886   5.887   3.139 -0.5065  0.4596  0.0351
10149SOL    HW132889   6.981   5.900   3.147 -0.6653  1.4737  0.4967
10149SOL    HW232890   6.864   5.825   3.208 -0.1730  0.1935 -0.0949
10150SOL     OW32891   5.469  10.266   1.873  0.7902  0.0418 -0.1238
10150SOL    HW132892   5.539  10.302   1.819  1.1460 -1.9875 -1.1366
10150SOL    HW232893   5.423  10.206   1.815 -0.2067 -0.5650  1.2376
10151SOL     OW32894   9.498   9.357   1.924 -0.2128  0.3799  0.0070
10151SOL    HW132895   9.560   9.427   1.906  1.3846 -1.2794 -1.3915
10151SOL    HW232896   9.547   9.276   1.908 -2.2933 -1.0596  0.3956
10152SOL     OW32897   9.740  10.198   7.534  0.5284  0.0590  0.4073
10152SOL    HW132898   9.798  10.218   7.460  0.5307 -0.3405  0.2973
10152SOL    HW232899   9.681  10.273   7.540 -1.2759 -1.0600 -1.7325
10153SOL     OW32900  10.351   7.013   9.954 -0.1679  0.2391 -0.1768
10153SOL    HW132901  10.344   6.989   9.861 -0.7939 -2.7097  0.5344
10153SOL    HW232902  10.426   7.073   9.958 -1.3764  2.1588 -2.8154
10154SOL     OW32903   3.959   8.277   2.937 -1.1897 -0.3481 -0.3165
10154SOL    HW132904   3.903   8.309   3.008 -0.3985  1.6743 -0.5307
10154SOL    HW232905   3.975   8.185   2.958 -2.6975 -0.3667  0.9562
10155SOL     OW32906   9.305   0.377   2.140 -0.2050  0.3608  0.2213
10155SOL    HW132907   9.380   0.434   2.123  0.7695 -1.1106 -0.6289
10155SOL    HW232908   9.343   0.297   2.176 -1.4128 -0.2532  0.1879
10156SOL     OW32909   5.429   1.020   9.643 -0.2295  0.4419  0.2985
10156SOL    HW132910   5.520   1.047   9.660  0.1391 -1.4221  1.6239
10156SOL    HW232911   5.399   0.983   9.726 -0.7559 -2.7545 -1.1438
10157SOL     OW32912   0.837   8.622   6.750  0.3157  0.0745  0.1263
10157SOL    HW132913   0.908   8.678   6.781  2.1516 -0.6995 -2.3923
10157SOL    HW232914   0.809   8.662   6.668 -0.3368 -1.1052 -0.2543
10158SOL     OW32915   9.788   4.938   5.850  0.3391 -0.3007 -0.2235
10158SOL    HW132916   9.701   4.973   5.869  0.2844 -0.7711  0.4406
10158SOL    HW232917   9.777   4.889   5.768 -0.5362 -2.1183  0.9176
10159SOL     OW32918   6.219   5.189   4.582 -0.0952 -0.5994  0.5611
10159SOL    HW132919   6.304   5.232   4.585 -0.5578  0.2603  1.8325
10159SOL    HW232920   6.237   5.099   4.612  0.3051 -0.3247  1.1552
10160SOL     OW32921   8.917   4.086   2.685 -0.1421 -0.1245 -0.4102
10160SOL    HW132922   8.888   4.175   2.669 -0.5353 -0.4779 -1.8114
10160SOL    HW232923   8.838   4.032   2.677  0.0968 -0.6054  0.3677
10161SOL     OW32924   8.448   9.160   8.968  0.4815  0.2653  0.0520
10161SOL    HW132925   8.385   9.228   8.992  0.1294 -1.0353  3.3100
10161SOL    HW232926   8.397   9.079   8.969  1.6006 -0.4700 -0.2351
10162SOL     OW32927   8.251   5.583  10.167  0.2772 -0.2072 -0.5183
10162SOL    HW132928   8.298   5.521  10.224  1.6091  1.4282  0.2420
10162SOL    HW232929   8.191   5.528  10.116 -0.0119 -1.9019  1.5127
10163SOL     OW32930   6.782   3.035  10.383  0.2231 -0.1475 -0.0226
10163SOL    HW132931   6.865   2.994  10.359  0.4720  1.1015 -1.4894
10163SOL    HW232932   6.804   3.090  10.458  0.8418  0.4475 -0.6162
10164SOL     OW32933   5.564   8.541   5.314 -0.0862 -0.7246 -0.3371
10164SOL    HW132934   5.485   8.493   5.290  0.0295 -0.1830 -1.9406
10164SOL    HW232935   5.631   8.507   5.255  0.1412  0.9289 -1.0814
10165SOL     OW32936   9.811   0.819   3.289 -0.3291  0.3113  0.0011
10165SOL    HW132937   9.857   0.887   3.241 -0.6110 -0.5609 -1.5696
10165SOL    HW232938   9.866   0.741   3.281 -1.1774 -0.2703 -0.3303
10166SOL     OW32939   9.437   8.369   3.576  0.7113  0.7871 -0.0409
10166SOL    HW132940   9.441   8.285   3.531  0.5673  0.4704  0.5357
10166SOL    HW232941   9.445   8.348   3.669 -0.6611  1.2791  0.2103
10167SOL     OW32942   2.602   7.733   0.393  0.5780  0.4310  0.2258
10167SOL    HW132943   2.590   7.732   0.488  0.9047  1.6504  0.3041
10167SOL    HW232944   2.582   7.823   0.368  1.4415  0.3733 -0.7322
10168SOL     OW32945   8.197   4.417  10.081  0.3641  0.4486  0.0747
10168SOL    HW132946   8.104   4.438  10.075 -0.5070 -3.2138 -2.1767
10168SOL    HW232947   8.215   4.414  10.175 -2.2061 -0.3189  0.6120
10169SOL     OW32948   0.945   0.639   8.632 -0.6813  0.4309 -0.1202
10169SOL    HW132949   0.879   0.697   8.595 -0.9169 -0.7935 -1.7000
10169SOL    HW232950   0.895   0.562   8.662 -0.0696 -0.1768 -0.6343
10170SOL     OW32951   6.904   2.426   7.162  0.2912 -0.1837 -0.6133
10170SOL    HW132952   6.977   2.401   7.105  1.5861 -1.0007  1.2961
10170SOL    HW232953   6.915   2.520   7.177  0.0346  0.0020 -1.5401
10171SOL     OW32954   3.387   8.898   9.893 -0.2985  0.0702 -0.5853
10171SOL    HW132955   3.471   8.916   9.934 -0.3964 -1.1706  0.2118
10171SOL    HW232956   3.402   8.912   9.800  0.6634  0.3070 -0.4043
10172SOL     OW32957   1.087   2.545   6.680  0.8534  0.1037  0.0949
10172SOL    HW132958   1.102   2.514   6.591  0.4500  1.3404 -0.4242
10172SOL    HW232959   0.995   2.572   6.681  0.9202  0.3354  0.8164
10173SOL     OW32960   3.721   1.985   5.858 -0.1010  0.4467 -0.1670
10173SOL    HW132961   3.657   2.042   5.815  0.7662  0.0492 -2.1373
10173SOL    HW232962   3.768   2.042   5.918  1.7280  2.3408 -3.1009
10174SOL     OW32963   4.490   7.011   2.341  0.7464 -0.4345 -0.1039
10174SOL    HW132964   4.540   7.027   2.420  0.6498 -3.0461  0.5712
10174SOL    HW232965   4.430   7.085   2.335  0.4669 -0.3677  2.5078
10175SOL     OW32966   3.827   7.378   2.404  0.1905 -0.4786 -0.5132
10175SOL    HW132967   3.781   7.352   2.325  1.0339 -0.3962 -1.0445
10175SOL    HW232968   3.765   7.433   2.451 -0.1343 -0.0936 -1.3738
10176SOL     OW32969   4.755   5.836   8.480 -0.4791 -0.5213  0.6593
10176SOL    HW132970   4.737   5.768   8.415 -1.1603 -1.0124  1.3477
10176SOL    HW232971   4.779   5.788   8.559 -0.2754  0.0558  0.9521
10177SOL     OW32972   5.101   1.461  10.332  0.5476  0.2196  0.0241
10177SOL    HW132973   5.076   1.444  10.423 -1.8015  0.0528 -0.6036
10177SOL    HW232974   5.144   1.380  10.304 -0.4310 -0.4489  0.4223
10178SOL     OW32975   7.695   3.377   3.993 -0.3529 -0.4434  0.8588
10178SOL    HW132976   7.657   3.405   4.077  0.4462  1.5960  0.6128
10178SOL    HW232977   7.623   3.335   3.947 -1.0849 -0.6874  2.1536
10179SOL     OW32978   4.711   2.856   4.896 -0.5401  0.1890  0.1309
10179SOL    HW132979   4.753   2.942   4.896  0.6935 -0.3346 -2.0849
10179SOL    HW232980   4.622   2.873   4.868  0.0647  0.6401 -1.6129
10180SOL     OW32981   9.293   9.942   7.791  0.3956  0.1600  0.0118
10180SOL    HW132982   9.322  10.022   7.747 -1.4452  0.0049 -1.5846
10180SOL    HW232983   9.353   9.875   7.760  1.6379  0.7862  0.9681
10181SOL     OW32984   9.032   0.972   7.590  0.3556 -0.0766  0.1159
10181SOL    HW132985   8.981   0.984   7.510  0.4235  1.3271  0.2508
10181SOL    HW232986   9.033   0.878   7.605 -2.4305 -0.1580  0.2543
10182SOL     OW32987   9.649   6.604   2.659 -0.1666 -0.6822  0.3856
10182SOL    HW132988   9.717   6.669   2.673 -2.3957  2.2277 -1.3140
10182SOL    HW232989   9.685   6.546   2.592  1.2542 -0.3271  0.7960
10183SOL     OW32990  10.270   2.929   1.533  0.0762 -0.4585  0.0934
10183SOL    HW132991  10.316   2.903   1.453  0.0627 -1.1645  0.3105
10183SOL    HW232992  10.244   3.019   1.517  0.8278 -0.3120 -0.3598
10184SOL     OW32993   4.312   0.156   1.369  0.2544  0.1508  0.9243
10184SOL    HW132994   4.223   0.130   1.346 -0.3381  3.0520 -0.5498
10184SOL    HW232995   4.314   0.154   1.465 -1.2871 -0.2362  0.9749
10185SOL     OW32996   5.678   7.870   6.137 -0.2527  0.0866  0.1043
10185SOL    HW132997   5.743   7.933   6.169 -0.2016  0.1909 -0.2019
10185SOL    HW232998   5.709   7.846   6.049  0.0467 -0.8056  0.4415
10186SOL     OW32999   8.985   4.720   2.713  0.2162  0.6348 -0.1919
10186SOL    HW133000   8.994   4.698   2.806 -0.0430 -0.0948 -0.3408
10186SOL    HW233001   8.892   4.713   2.696  0.1298  1.7711 -0.2690
10187SOL     OW33002   0.370   8.830   2.337  0.1282  0.3967 -0.2730
10187SOL    HW133003   0.420   8.908   2.363 -2.0115  1.7622  0.0600
10187SOL    HW233004   0.355   8.842   2.243  0.4569 -0.0195 -0.3782
10188SOL     OW33005   7.993   4.663   0.403 -0.1883 -0.1191  0.2111
10188SOL    HW133006   7.962   4.661   0.312  0.1039  2.6336 -0.0221
10188SOL    HW233007   7.973   4.575   0.436 -5.5764  0.3587 -0.7759
10189SOL     OW33008   7.974   0.278   2.010  0.4649 -0.0148  0.0106
10189SOL    HW133009   7.945   0.313   2.095 -0.3920 -1.2281  0.2474
10189SOL    HW233010   7.929   0.332   1.946 -0.5406 -0.3961  0.3667
10190SOL     OW33011   8.998   0.124   3.916 -0.1117 -0.0868  0.3247
10190SOL    HW133012   8.996   0.109   3.822  1.1858 -0.0452  0.2728
10190SOL    HW233013   9.050   0.052   3.951  0.3575  0.5067  0.8702
10191SOL     OW33014   3.858  10.253   3.657  0.2038  0.5429  0.1551
10191SOL    HW133015   3.771  10.213   3.654  0.4649 -0.2140  1.5173
10191SOL    HW233016   3.850  10.333   3.606 -0.9214 -0.1923 -0.8877
10192SOL     OW33017   4.411   8.272   9.450  0.0241  0.1134  0.1548
10192SOL    HW133018   4.399   8.365   9.471 -0.1024 -0.5729  3.8537
10192SOL    HW233019   4.321   8.238   9.446  0.0995 -0.0573 -0.0750
10193SOL     OW33020   8.440   0.788   0.294  0.6072  0.1482 -0.2544
10193SOL    HW133021   8.386   0.717   0.328  0.8541  0.2575  0.3696
10193SOL    HW233022   8.378   0.859   0.276  0.6019  0.4656  0.9676
10194SOL     OW33023   4.355   2.586   4.389  0.3463  0.0615 -0.2653
10194SOL    HW133024   4.437   2.542   4.410  1.2360  1.0868 -1.5198
10194SOL    HW233025   4.334   2.636   4.468  0.7065 -0.5099  0.2038
10195SOL     OW33026   7.795   6.354   8.606 -0.2323 -0.1900 -0.1150
10195SOL    HW133027   7.718   6.342   8.660 -0.4080  0.0971 -0.3016
10195SOL    HW233028   7.840   6.430   8.644  0.5160 -0.9901  0.6397
10196SOL     OW33029   6.082   6.744   3.246 -0.5166 -0.7931 -0.0636
10196SOL    HW133030   6.043   6.708   3.326  1.3666 -0.3482  1.1212
10196SOL    HW233031   6.120   6.827   3.274 -0.2925 -0.3676 -1.5734
10197SOL     OW33032   3.603   9.224   3.008  0.0349 -0.3025 -1.1111
10197SOL    HW133033   3.510   9.228   2.989  0.2755  0.4566 -2.2788
10197SOL    HW233034   3.608   9.204   3.102 -1.2970  0.1427 -0.9235
10198SOL     OW33035   9.892   5.730   8.820  0.5429  0.7030  0.2720
10198SOL    HW133036   9.840   5.695   8.748  0.0843  0.9092  0.4961
10198SOL    HW233037   9.968   5.672   8.825  1.1338  1.3247 -1.0648
10199SOL     OW33038   3.482   2.756   6.594 -0.1884  0.3701 -0.2800
10199SOL    HW133039   3.410   2.739   6.533 -1.9864  0.4583  1.7365
10199SOL    HW233040   3.471   2.691   6.663  1.2047  0.9099  0.4745
10200SOL     OW33041   1.720   0.771   0.302 -0.5379 -0.5115 -0.0780
10200SOL    HW133042   1.690   0.840   0.242 -1.4285 -1.3451 -0.6175
10200SOL    HW233043   1.640   0.738   0.343 -0.0127 -0.5079  0.9832
10201SOL     OW33044   8.656   1.174   9.455 -0.4810 -0.7493  0.1357
10201SOL    HW133045   8.640   1.102   9.395  1.0193 -0.5486 -0.5765
10201SOL    HW233046   8.733   1.218   9.418 -1.4332  1.3123  0.4522
10202SOL     OW33047   3.979   1.230   3.538  0.6696 -0.0490  0.0834
10202SOL    HW133048   3.898   1.214   3.490  0.7352  1.1739 -0.4760
10202SOL    HW233049   4.011   1.143   3.561 -0.3792 -0.5762 -0.3971
10203SOL     OW33050  10.146   0.335   2.350 -0.0017  0.8406 -0.0756
10203SOL    HW133051  10.228   0.355   2.304  1.0446  1.9053  2.1433
10203SOL    HW233052  10.151   0.383   2.432 -1.6274 -1.2255  1.3618
10204SOL     OW33053   6.317   1.555   2.215 -0.7270  0.1565  0.2211
10204SOL    HW133054   6.284   1.625   2.271 -2.5374  0.1475 -0.7491
10204SOL    HW233055   6.394   1.593   2.172 -1.8874  1.7249 -0.5643
10205SOL     OW33056   6.776   5.508   9.356  0.2638 -0.0320  0.2163
10205SOL    HW133057   6.711   5.445   9.388  0.1211 -0.0181 -0.0523
10205SOL    HW233058   6.737   5.594   9.372  0.6203  0.0063  0.9438
10206SOL     OW33059   1.842   9.339   2.218 -0.0162 -0.3171 -0.3990
10206SOL    HW133060   1.910   9.272   2.214  0.0793 -0.1637 -2.8031
10206SOL    HW233061   1.890   9.420   2.235  0.1719 -0.4657 -0.2051
10207SOL     OW33062   6.612   6.215   8.420  0.0948 -0.5945 -0.1740
10207SOL    HW133063   6.546   6.285   8.421  0.8663  0.2521 -2.2089
10207SOL    HW233064   6.634   6.206   8.328  1.9142 -1.7369  0.3443
10208SOL     OW33065   6.983   3.347   8.742  0.0154  0.2545  0.0721
10208SOL    HW133066   7.056   3.404   8.719 -0.4063 -0.0657 -2.3886
10208SOL    HW233067   7.021   3.281   8.799  1.9360 -0.4961 -1.9418
10209SOL     OW33068   9.167   4.261   9.898  0.3674 -0.6176  0.5495
10209SOL    HW133069   9.168   4.313   9.818  1.5413 -1.4964 -0.0321
10209SOL    HW233070   9.127   4.178   9.872  1.9834 -1.4203  0.5002
10210SOL     OW33071   7.548   0.693   3.575 -0.2735 -0.3154 -0.0756
10210SOL    HW133072   7.504   0.715   3.657 -1.0012 -1.8294 -0.0334
10210SOL    HW233073   7.557   0.777   3.529  0.3455  0.5854  1.6183
10211SOL     OW33074   6.728   4.973   8.094  0.2460  0.2953  0.1958
10211SOL    HW133075   6.721   5.057   8.138  0.3962  0.3540  0.1067
10211SOL    HW233076   6.791   4.987   8.023  0.8963 -0.0963  0.6750
10212SOL     OW33077   8.822   7.911   4.933  0.0820 -0.4679  0.1954
10212SOL    HW133078   8.848   7.977   4.869 -2.1077 -0.5256 -0.8561
10212SOL    HW233079   8.898   7.902   4.991  1.3809  1.0758 -1.1647
10213SOL     OW33080  10.166   8.182   6.150 -0.3543 -0.8972 -0.0939
10213SOL    HW133081  10.071   8.190   6.161 -0.3313 -0.6332 -0.0869
10213SOL    HW233082  10.177   8.100   6.100 -0.5703 -1.0490  0.1074
10214SOL     OW33083   8.393   5.431   0.754  0.3051  0.0380  0.0432
10214SOL    HW133084   8.347   5.416   0.671  1.3669 -0.5049 -0.4636
10214SOL    HW233085   8.328   5.475   0.809  0.0842  1.9615 -1.6401
10215SOL     OW33086   2.792   3.120   8.885  0.1222 -0.0450  0.2706
10215SOL    HW133087   2.764   3.071   8.808  0.4061 -1.4593  1.0206
10215SOL    HW233088   2.738   3.199   8.884 -2.4913 -1.6830  0.5452
10216SOL     OW33089   4.762   9.039   4.005  0.0606  0.2460 -0.6604
10216SOL    HW133090   4.809   9.114   4.042 -1.9132  1.6587 -0.7957
10216SOL    HW233091   4.802   8.963   4.045  1.3060  1.4519  0.5029
10217SOL     OW33092   4.726   5.505   9.710 -0.7932  0.0018 -0.3211
10217SOL    HW133093   4.802   5.474   9.662  0.6840  3.1644 -0.2241
10217SOL    HW233094   4.711   5.438   9.777  1.5717 -0.9505 -0.6590
10218SOL     OW33095   3.495  10.368   5.647 -0.4088 -0.1942  0.0171
10218SOL    HW133096   3.406  10.356   5.681 -1.9423  0.4466 -3.3716
10218SOL    HW233097   3.510  10.462   5.653 -0.1612 -0.2394  0.1008
10219SOL     OW33098   7.432   0.583   1.307  0.1934  0.6201 -0.2077
10219SOL    HW133099   7.356   0.550   1.355  0.9423 -0.5390  0.2212
10219SOL    HW233100   7.473   0.646   1.367 -0.0619  0.7671 -0.1857
10220SOL     OW33101   8.388   2.165   3.798  0.1455  0.2719 -0.6378
10220SOL    HW133102   8.296   2.156   3.822  0.0680 -2.0497 -1.5900
10220SOL    HW233103   8.389   2.231   3.728 -0.8320  0.0917 -0.8305
10221SOL     OW33104   8.596   0.048   8.292  0.2206 -0.4259 -0.4606
10221SOL    HW133105   8.504   0.063   8.271  0.1013 -1.0537 -0.3964
10221SOL    HW233106   8.619  -0.031   8.244  0.6639 -0.4107 -0.2787
10222SOL     OW33107   1.622   3.743   0.367 -0.4138  0.9953  0.5085
10222SOL    HW133108   1.620   3.828   0.323  0.1034  2.1109  2.5486
10222SOL    HW233109   1.641   3.763   0.458  0.7283 -1.4042  0.8644
10223SOL     OW33110   1.506   2.964  10.466  0.2733 -0.0902 -0.0637
10223SOL    HW133111   1.489   3.043  10.415  1.5872 -0.2151 -0.7332
10223SOL    HW233112   1.433   2.906  10.445  0.6448 -0.0382 -1.6128
10224SOL     OW33113   9.315   1.605   8.924 -0.4950 -0.2665  0.9879
10224SOL    HW133114   9.237   1.550   8.935 -2.5608  2.2788  0.0831
10224SOL    HW233115   9.284   1.693   8.943  1.5663  1.1658 -1.7254
10225SOL     OW33116   7.832   5.645   3.651 -0.0631 -0.5192  0.5187
10225SOL    HW133117   7.852   5.613   3.739  0.2190 -0.1334  0.5996
10225SOL    HW233118   7.916   5.646   3.606 -0.1101 -0.1581  0.4335
10226SOL     OW33119   9.288   6.522   6.878  0.0535 -1.0264 -0.0941
10226SOL    HW133120   9.330   6.575   6.946 -1.0049 -0.3965  0.0998
10226SOL    HW233121   9.288   6.433   6.914  1.6893 -1.1565 -0.3484
10227SOL     OW33122   9.656   0.206   2.001 -0.1562  0.4196  0.0160
10227SOL    HW133123   9.673   0.281   2.059  1.5726 -0.6813  1.0152
10227SOL    HW233124   9.586   0.158   2.044 -0.8637  1.1204 -0.3226
10228SOL     OW33125  10.155   4.809   6.056 -0.4762  0.0973 -0.2042
10228SOL    HW133126  10.131   4.893   6.018  0.1650  0.8375  0.9637
10228SOL    HW233127  10.076   4.780   6.102  0.0574  1.3641  1.6036
10229SOL     OW33128   7.304   1.642   0.338 -0.6209  0.1629  0.4598
10229SOL    HW133129   7.376   1.580   0.333 -0.6329  0.0399  1.5920
10229SOL    HW233130   7.230   1.597   0.298  0.0816  0.5686 -1.4013
10230SOL     OW33131   0.005  10.092   2.489 -0.2593  0.0812  0.3779
10230SOL    HW133132   0.043  10.004   2.487 -0.8395 -0.1767 -0.8506
10230SOL    HW233133   0.063  10.143   2.545 -1.5237 -1.7950  3.6871
10231SOL     OW33134   6.838   5.422   8.783  0.0894 -0.7541  0.0497
10231SOL    HW133135   6.745   5.401   8.769  0.2790 -0.5887 -1.6331
10231SOL    HW233136   6.850   5.411   8.877 -1.6286 -0.8212  0.3048
10232SOL     OW33137   3.314   9.870   7.090  0.7407  0.1487  0.2429
10232SOL    HW133138   3.265   9.913   7.160 -2.3446 -1.6930 -0.6110
10232SOL    HW233139   3.304   9.776   7.108 -0.2373 -0.3940 -2.6271
10233SOL     OW33140   0.129   5.241   5.131  0.0077 -0.1339  0.0826
10233SOL    HW133141   0.184   5.185   5.186  0.4801  0.9454  0.7196
10233SOL    HW233142   0.051   5.257   5.184 -0.7053 -1.2017 -0.6003
10234SOL     OW33143   2.179   6.122   7.410  0.3019 -0.2446  0.1721
10234SOL    HW133144   2.166   6.195   7.348  0.9345  0.1590  0.5092
10234SOL    HW233145   2.217   6.052   7.357 -3.4310 -1.6531 -0.9812
10235SOL     OW33146  10.448   7.365   2.491 -0.1827 -0.0805  0.0526
10235SOL    HW133147  10.412   7.400   2.572 -0.8972  1.1423 -0.7808
10235SOL    HW233148  10.469   7.274   2.512 -1.5291 -0.1441  1.2498
10236SOL     OW33149   4.821   0.595   7.017  0.2199  0.0979  0.6260
10236SOL    HW133150   4.773   0.527   7.063 -0.6606 -0.1271 -0.5864
10236SOL    HW233151   4.855   0.551   6.939 -0.8553  1.1526 -0.4765
10237SOL     OW33152   5.485   3.553   4.066 -0.1568  0.4655 -0.0552
10237SOL    HW133153   5.447   3.613   4.002 -0.0934 -0.9864 -1.5175
10237SOL    HW233154   5.580   3.564   4.055 -0.1467  0.5115  0.0800
10238SOL     OW33155   1.562   6.715   8.031 -0.3692 -0.0890 -0.0897
10238SOL    HW133156   1.649   6.753   8.049 -0.4238 -0.5208  1.2331
10238SOL    HW233157   1.575   6.661   7.953  0.0611  1.4407 -1.1095
10239SOL     OW33158   6.056   1.846   5.157  0.6217 -0.0485  0.3681
10239SOL    HW133159   5.984   1.898   5.192  1.7780 -0.4369  3.7159
10239SOL    HW233160   6.023   1.813   5.073 -1.6849  2.6156  0.0652
10240SOL     OW33161   3.249   6.826   5.193 -0.2739  0.2249 -0.4127
10240SOL    HW133162   3.250   6.909   5.240 -1.9063 -0.2997  0.6501
10240SOL    HW233163   3.216   6.848   5.106 -0.4400  0.7441 -0.2223
10241SOL     OW33164   2.308   2.695   2.196 -0.2637 -0.0812  0.1345
10241SOL    HW133165   2.392   2.707   2.240 -0.7236  0.9616  0.7706
10241SOL    HW233166   2.292   2.779   2.152 -1.2820 -0.0211  0.5920
10242SOL     OW33167   4.541   2.309   0.372  0.1324 -0.3472 -0.5177
10242SOL    HW133168   4.518   2.393   0.412  3.5481  0.0713  0.8799
10242SOL    HW233169   4.463   2.285   0.321 -0.8100  3.8789 -1.4525
10243SOL     OW33170   7.199   9.315   0.626 -0.5532  0.2102  0.1562
10243SOL    HW133171   7.286   9.330   0.663 -1.5298  1.8951  2.0092
10243SOL    HW233172   7.148   9.277   0.699 -1.4077 -0.6509 -0.8567
10244SOL     OW33173   7.702   6.854   6.338  0.3729  0.2811  0.3021
10244SOL    HW133174   7.709   6.910   6.260 -2.7327 -0.9027 -0.9967
10244SOL    HW233175   7.684   6.915   6.410  0.5676  1.2061 -0.4143
10245SOL     OW33176   9.288   4.067   9.003  0.0629 -0.7203 -0.3047
10245SOL    HW133177   9.194   4.053   9.011 -0.4286  2.1986 -0.0272
10245SOL    HW233178   9.299   4.105   8.916  0.4846  1.8961  0.7972
10246SOL     OW33179   8.589   9.872   7.905  0.6379 -0.2880  0.1854
10246SOL    HW133180   8.583   9.779   7.927 -0.1262 -0.0243  1.1571
10246SOL    HW233181   8.666   9.903   7.953  1.0165 -0.4527 -0.3047
10247SOL     OW33182   5.228   6.168   9.938  0.2919  0.6150  0.1615
10247SOL    HW133183   5.241   6.163  10.032  1.8102  0.3915 -0.0376
10247SOL    HW233184   5.311   6.140   9.900 -0.3082  0.6356 -1.2520
10248SOL     OW33185   4.520   1.857   2.283  0.0720  0.7125 -0.0390
10248SOL    HW133186   4.573   1.895   2.353 -0.6652 -0.0441  0.9573
10248SOL    HW233187   4.558   1.771   2.267 -0.0378  0.7050 -0.2706
10249SOL     OW33188   7.817   2.257   6.938  0.0603  0.3308 -0.1042
10249SOL    HW133189   7.776   2.317   6.876  1.0202  2.2960  1.0805
10249SOL    HW233190   7.908   2.286   6.943  0.4225 -0.9021  0.9338
10250SOL     OW33191   4.135   9.438  10.468  0.0693  0.2154 -0.3483
10250SOL    HW133192   4.089   9.382  10.405  0.3575  0.0186 -0.3883
10250SOL    HW233193   4.116   9.398  10.553  1.4741 -0.8508 -0.4817
10251SOL     OW33194   7.418   3.651   5.223  0.3957 -0.0779 -0.0468
10251SOL    HW133195   7.353   3.713   5.255  0.6473  0.9634 -1.4936
10251SOL    HW233196   7.476   3.703   5.168  0.9058 -1.4989 -0.8953
10252SOL     OW33197   2.744   6.035   1.397  0.6521  0.2430 -0.5454
10252SOL    HW133198   2.742   5.957   1.453 -0.7737  1.3757  1.0740
10252SOL    HW233199   2.837   6.044   1.373  0.7932 -2.2337 -1.2727
10253SOL     OW33200   3.431   0.925   9.530  0.4002 -0.5170 -0.1615
10253SOL    HW133201   3.524   0.943   9.540  0.2158  0.0293  0.6426
10253SOL    HW233202   3.427   0.833   9.502  1.1746 -0.5261 -0.2503
10254SOL     OW33203   2.051   2.494   9.475  0.0580  0.5401  0.1458
10254SOL    HW133204   2.031   2.545   9.397 -0.6647  0.0792  0.0286
10254SOL    HW233205   2.143   2.470   9.465  0.0647  0.7854 -0.3860
10255SOL     OW33206   5.780   6.960   2.912 -0.0303 -0.3114 -0.7742
10255SOL    HW133207   5.867   6.964   2.952  0.1649  2.3352 -1.2559
10255SOL    HW233208   5.720   6.987   2.981 -0.1181  0.5632 -1.1731
10256SOL     OW33209   7.566   9.140   6.960 -0.5073  0.3440 -0.2049
10256SOL    HW133210   7.573   9.181   6.874 -0.4771  0.3860 -0.1825
10256SOL    HW233211   7.509   9.198   7.010 -0.7175  0.1936 -0.2724
10257SOL     OW33212   2.438   6.331   5.935  0.5027  0.1220  0.1004
10257SOL    HW133213   2.381   6.300   6.006  1.2078 -0.7592  0.3058
10257SOL    HW233214   2.523   6.344   5.977  1.3390 -1.8511 -0.8272
10258SOL     OW33215   8.444   0.578   3.011  0.1538  0.1066 -0.4550
10258SOL    HW133216   8.405   0.652   2.965 -0.2046  0.2288  0.0452
10258SOL    HW233217   8.539   0.589   2.999  0.1983  1.4998  0.9082
10259SOL     OW33218   0.893   0.769   3.556 -0.4985  0.0009  0.2700
10259SOL    HW133219   0.957   0.840   3.563  0.0792 -0.5005  0.1655
10259SOL    HW233220   0.810   0.808   3.585  0.1459  0.2703  1.8529
10260SOL     OW33221   7.008   8.682   2.020  0.0515  0.3678  0.1614
10260SOL    HW133222   6.930   8.675   1.965  0.6367  1.4323 -0.8403
10260SOL    HW233223   7.021   8.593   2.055 -1.4414  0.1233  0.1486
10261SOL     OW33224   1.025   2.827   1.019 -0.4768  0.2596 -0.1025
10261SOL    HW133225   1.042   2.734   1.031 -0.2592  0.3511  0.3131
10261SOL    HW233226   0.929   2.835   1.025 -0.5940 -0.0823 -1.2306
10262SOL     OW33227   6.994   8.034   9.577  0.4681  0.1757 -0.1530
10262SOL    HW133228   7.082   8.001   9.560 -0.0287  0.2652 -3.6256
10262SOL    HW233229   7.005   8.128   9.590  0.9306  0.1178 -0.1185
10263SOL     OW33230   0.056   1.421   2.609 -0.0483 -0.1414  0.7032
10263SOL    HW133231   0.071   1.327   2.620  1.0588 -0.0020  0.5122
10263SOL    HW233232  -0.022   1.439   2.661 -0.1024 -1.1121  0.9865
10264SOL     OW33233   0.537   1.967   1.935  0.7909  0.6478  0.1494
10264SOL    HW133234   0.584   1.968   2.018 -0.5012  1.3401  0.9048
10264SOL    HW233235   0.450   1.934   1.957 -0.3351  2.9743 -0.4553
10265SOL     OW33236   1.342   4.227   0.169  0.0285  0.0395 -0.1973
10265SOL    HW133237   1.322   4.139   0.139 -3.1928  0.4528  0.4366
10265SOL    HW233238   1.341   4.221   0.265 -0.4124  0.7796 -0.1478
10266SOL     OW33239   6.644   1.661   2.708 -0.1183  1.1193 -0.7225
10266SOL    HW133240   6.619   1.570   2.697  0.1639  0.7892  1.0291
10266SOL    HW233241   6.721   1.672   2.652  1.5583 -0.5404  1.1170
10267SOL     OW33242   1.740   5.002   1.572  0.2501 -0.1296  0.0785
10267SOL    HW133243   1.831   5.021   1.547  1.1559 -4.6030 -0.7850
10267SOL    HW233244   1.742   5.001   1.667  1.6064 -1.7498  0.0842
10268SOL     OW33245   5.562   6.343   6.736 -0.1068  0.1662 -0.3555
10268SOL    HW133246   5.630   6.277   6.722 -1.9743 -2.4781  1.9505
10268SOL    HW233247   5.559   6.355   6.831 -1.4200  1.8675 -0.5705
10269SOL     OW33248   4.810   8.791   3.529 -1.1634 -0.2490  0.3259
10269SOL    HW133249   4.719   8.777   3.557 -0.7615 -1.4142  1.1055
10269SOL    HW233250   4.861   8.780   3.609 -0.2084 -1.0962 -0.3837
10270SOL     OW33251   6.115   9.434  10.085  0.5992  0.5446 -0.3297
10270SOL    HW133252   6.160   9.396  10.161 -2.3462 -0.9357  0.8380
10270SOL    HW233253   6.154   9.390  10.010  1.2504 -0.5272  0.5986
10271SOL     OW33254   1.519   9.208   2.661  0.0961  0.2072  0.2288
10271SOL    HW133255   1.578   9.258   2.604  0.2144  0.5800  0.6779
10271SOL    HW233256   1.565   9.126   2.677  0.1234  0.1571 -0.0998
10272SOL     OW33257   9.384   5.080   9.967  0.7538 -0.3241  0.2681
10272SOL    HW133258   9.348   4.991   9.957  0.4385 -0.3076  1.2130
10272SOL    HW233259   9.432   5.095   9.886  1.0758 -1.4835  0.2297
10273SOL     OW33260   6.112   8.057   3.760  0.1477  0.4979 -0.2600
10273SOL    HW133261   6.039   8.118   3.767 -0.7856 -0.6959  1.0228
10273SOL    HW233262   6.182   8.107   3.718 -1.1734  1.8755 -0.9276
10274SOL     OW33263   3.911  10.246   1.961  0.1467 -0.2712 -0.2766
10274SOL    HW133264   3.968  10.177   1.994  1.3306  0.5307 -0.5748
10274SOL    HW233265   3.933  10.322   2.014  1.2542  0.7402 -2.0846
10275SOL     OW33266  10.032   5.197   8.209  0.1236  0.5913 -0.1257
10275SOL    HW133267  10.006   5.207   8.118  0.3034  1.5297 -0.0840
10275SOL    HW233268  10.083   5.116   8.211 -2.3795 -1.1068 -0.2895
10276SOL     OW33269  10.462   6.570  10.044  0.0795 -0.4110 -0.1578
10276SOL    HW133270  10.421   6.628  10.108  2.4654  2.1611 -0.7034
10276SOL    HW233271  10.515   6.510  10.095 -0.2285 -0.2382  0.3680
10277SOL     OW33272   5.349   6.725   2.541 -0.0165  0.3494 -0.5536
10277SOL    HW133273   5.291   6.657   2.576 -0.2136  1.2132  0.8547
10277SOL    HW233274   5.407   6.678   2.481 -0.5033 -0.9645 -0.0321
10278SOL     OW33275   1.331   8.072   5.953 -0.5296  0.0611  0.0342
10278SOL    HW133276   1.417   8.075   5.911  0.3035  1.2045  1.7103
10278SOL    HW233277   1.336   8.137   6.023 -1.6926 -1.9803  2.1640
10279SOL     OW33278   3.976   4.965   8.924  1.2093  0.1043  0.1865
10279SOL    HW133279   3.987   4.879   8.963  0.6955  0.2292  0.6258
10279SOL    HW233280   4.001   5.026   8.993  1.4495  0.3077 -0.0792
10280SOL     OW33281  10.125   5.534   6.001  0.0720  0.3094 -0.1128
10280SOL    HW133282  10.150   5.483   6.079 -0.3593 -3.5808 -2.2512
10280SOL    HW233283  10.029   5.530   6.001  0.0721  0.1959 -0.8493
10281SOL     OW33284   8.754   9.988   4.779 -0.2532 -0.4624 -0.4419
10281SOL    HW133285   8.797   9.909   4.810 -1.5569 -0.1408  2.4806
10281SOL    HW233286   8.807  10.060   4.814 -1.9244 -0.0845  1.4754
10282SOL     OW33287   0.710   2.106   1.601  0.1467 -0.3090 -0.0254
10282SOL    HW133288   0.655   2.154   1.663  0.0042  1.2617 -1.2894
10282SOL    HW233289   0.654   2.037   1.566  0.3430 -1.4515  1.8014
10283SOL     OW33290   9.062   5.374   6.314  0.9913 -0.3360 -0.1317
10283SOL    HW133291   9.131   5.342   6.257  1.8225 -1.0401  1.2180
10283SOL    HW233292   9.107   5.400   6.394 -0.2566 -0.4472  0.6311
10284SOL     OW33293   2.747  10.002   9.461  0.0471 -0.3022  0.0202
10284SOL    HW133294   2.651  10.003   9.455  0.0163  0.2588  0.4673
10284SOL    HW233295   2.776  10.024   9.373 -0.2409 -0.3812 -0.0953
10285SOL     OW33296   8.479   4.067   1.121  0.4317 -0.2851 -0.4957
10285SOL    HW133297   8.410   4.111   1.171 -0.5128 -2.4574  0.2449
10285SOL    HW233298   8.515   4.136   1.064 -1.8254  1.1126 -0.3723
10286SOL     OW33299   2.039   1.636   8.485  0.1084  0.2237 -0.5242
10286SOL    HW133300   2.035   1.704   8.418  1.6091 -0.6353 -1.5506
10286SOL    HW233301   1.965   1.579   8.466 -0.4064  0.8556 -0.4470
10287SOL     OW33302   8.458   5.687   5.097 -0.2125  0.6009  0.1672
10287SOL    HW133303   8.501   5.608   5.064  0.4637  0.2565  1.7602
10287SOL    HW233304   8.385   5.701   5.038 -1.0297 -1.8687  0.4820
10288SOL     OW33305   5.273   4.996   1.684  0.4468 -0.6902  0.1492
10288SOL    HW133306   5.202   4.956   1.734 -0.4856 -0.8329 -1.2554
10288SOL    HW233307   5.265   5.090   1.704  0.1886 -0.7590  0.3891
10289SOL     OW33308   5.478   4.088   1.526 -0.0961 -0.6518 -0.0825
10289SOL    HW133309   5.384   4.100   1.539  0.2038  0.9744  0.9063
10289SOL    HW233310   5.488   4.076   1.432 -1.1691  0.8957 -0.4395
10290SOL     OW33311   2.340   7.602   6.146 -0.1380 -0.2847 -0.1416
10290SOL    HW133312   2.298   7.622   6.230  1.4716 -0.2652  0.7071
10290SOL    HW233313   2.395   7.679   6.128  1.5219 -1.3456  0.1398
10291SOL     OW33314   2.958   8.364   2.936  0.1414  0.1056  0.2398
10291SOL    HW133315   3.048   8.377   2.964 -0.2807  4.5627  0.2578
10291SOL    HW233316   2.963   8.366   2.840  0.1429 -0.2805  0.2336
10292SOL     OW33317   1.531   9.352   7.304  0.3385 -0.5365  0.5342
10292SOL    HW133318   1.469   9.424   7.312  1.8595  1.0340 -0.8346
10292SOL    HW233319   1.609   9.381   7.351  1.8705 -0.1148 -2.0768
10293SOL     OW33320   7.943   1.234   7.187 -0.0128 -0.4992 -0.3218
10293SOL    HW133321   7.868   1.181   7.211  2.2104 -2.2440  3.8300
10293SOL    HW233322   8.016   1.172   7.181  1.7652  1.4801 -0.4149
10294SOL     OW33323   9.272   5.062   3.565 -0.2786  0.3489 -0.1801
10294SOL    HW133324   9.354   5.017   3.543 -0.2896 -0.4560  1.2615
10294SOL    HW233325   9.296   5.154   3.569  0.9308  0.0233  1.5379
10295SOL     OW33326   4.497   1.959   4.300  0.3959 -0.5019 -0.1938
10295SOL    HW133327   4.450   2.024   4.247  1.6993  0.6491 -0.0052
10295SOL    HW233328   4.460   1.875   4.273  0.0731  0.1514 -1.9530
10296SOL     OW33329   2.546  10.000  10.355 -0.3982 -0.1085 -0.1114
10296SOL    HW133330   2.488   9.952  10.298  0.6312  0.6158 -1.8501
10296SOL    HW233331   2.537   9.958  10.441  0.2012 -3.1470 -1.4337
10297SOL     OW33332   2.721   0.012  10.320  0.3583 -0.2358 -0.4488
10297SOL    HW133333   2.635   0.048  10.299 -0.7206 -2.1089  0.4428
10297SOL    HW233334   2.703  -0.079  10.345  2.6462 -0.7683 -0.5188
10298SOL     OW33335   7.440   4.910   2.313  0.0603 -0.1261 -0.4164
10298SOL    HW133336   7.406   4.857   2.241 -0.1465  0.2657 -0.6086
10298SOL    HW233337   7.376   4.981   2.322  0.2074 -0.0440  0.0005
10299SOL     OW33338   8.906   3.322   5.414 -0.0443  0.3963  0.4515
10299SOL    HW133339   9.000   3.305   5.404 -0.0622  0.9501 -0.8974
10299SOL    HW233340   8.898   3.416   5.398 -0.8641  0.2944  0.2569
10300SOL     OW33341   8.456   3.669   1.389  0.3093  0.5746 -0.3741
10300SOL    HW133342   8.371   3.632   1.412  1.1838 -2.6408 -1.6780
10300SOL    HW233343   8.507   3.666   1.470 -0.2226  0.6761 -0.0347
10301SOL     OW33344   3.693   5.944   3.622  0.5651 -0.4707  0.6046
10301SOL    HW133345   3.742   5.998   3.685 -0.6101  0.6427  0.5940
10301SOL    HW233346   3.731   5.966   3.537  0.9222 -0.6096  0.7242
10302SOL     OW33347   8.955   7.782   2.767  0.0952 -0.2698  0.2457
10302SOL    HW133348   8.876   7.812   2.722 -1.3017 -0.1567  2.6455
10302SOL    HW233349   8.936   7.692   2.793  0.5679 -0.0996  1.2275
10303SOL     OW33350  10.090   2.904   4.885 -0.2243 -0.1247  0.1073
10303SOL    HW133351  10.122   2.870   4.801  0.2249 -0.8688  0.5656
10303SOL    HW233352  10.005   2.943   4.864  0.1035  0.1409 -0.7825
10304SOL     OW33353   4.851   2.600   2.848  0.6207  0.2780 -0.5788
10304SOL    HW133354   4.763   2.634   2.832  0.9512  1.4815  0.0587
10304SOL    HW233355   4.864   2.534   2.779 -1.0569 -0.4813 -0.2180
10305SOL     OW33356  10.090   0.065   9.780  0.1191 -0.7475 -0.2702
10305SOL    HW133357  10.059   0.024   9.699 -2.1930  0.3864 -0.0290
10305SOL    HW233358  10.082  -0.003   9.847  2.7287 -1.9341 -1.0062
10306SOL     OW33359   9.659   3.300   8.261  0.0662 -0.2337 -0.0927
10306SOL    HW133360   9.583   3.255   8.224 -1.3422  0.9380  1.2226
10306SOL    HW233361   9.681   3.366   8.195 -2.0858  1.4801  0.7709
10307SOL     OW33362   4.567   6.870   9.995 -0.1868 -0.3345  0.5104
10307SOL    HW133363   4.499   6.895   9.931  0.3739 -1.6730 -0.6692
10307SOL    HW233364   4.521   6.868  10.079 -2.1103 -2.9341 -0.4847
10308SOL     OW33365   6.459   3.931   5.105  0.1709  0.2555  0.8428
10308SOL    HW133366   6.389   3.984   5.067  1.3113  2.0297  1.0941
10308SOL    HW233367   6.468   3.856   5.045 -1.3802  0.4092  0.3917
10309SOL     OW33368   9.808   1.642   8.784  0.1551 -0.2679 -0.3901
10309SOL    HW133369   9.789   1.659   8.876  1.7157 -0.9232  0.1062
10309SOL    HW233370   9.837   1.550   8.782  0.5399 -0.1470 -1.4505
10310SOL     OW33371   0.415   4.798   8.131 -0.4351  0.4666  0.2898
10310SOL    HW133372   0.399   4.713   8.171 -2.2534  0.7481  0.2225
10310SOL    HW233373   0.348   4.855   8.168  1.8027  2.3711  1.6728
10311SOL     OW33374   5.905   8.355   9.646  0.3271 -0.1525  0.0892
10311SOL    HW133375   5.963   8.347   9.571 -1.2370 -1.1642 -1.0798
10311SOL    HW233376   5.909   8.270   9.689 -0.1938 -0.1945  0.0621
10312SOL     OW33377   7.378   2.365   2.550  0.0165  0.2749 -0.2339
10312SOL    HW133378   7.346   2.285   2.592  2.2757 -0.3384  0.4453
10312SOL    HW233379   7.367   2.348   2.456  0.8294 -1.0396 -0.1223
10313SOL     OW33380   6.178   4.290   6.891  0.1688 -0.5163  0.1685
10313SOL    HW133381   6.170   4.196   6.878 -0.0762 -0.8199  2.1918
10313SOL    HW233382   6.146   4.328   6.809 -0.4630 -2.1632 -0.4000
10314SOL     OW33383   3.224   6.447   2.766 -0.9234 -0.0676 -0.2755
10314SOL    HW133384   3.272   6.413   2.691  0.8825 -1.3712  1.3754
10314SOL    HW233385   3.140   6.402   2.763 -0.8352 -0.1857 -1.4340
10315SOL     OW33386   2.832   5.931   2.807  0.4211 -0.3059 -0.2351
10315SOL    HW133387   2.863   5.858   2.861 -0.5061 -0.4266  0.1414
10315SOL    HW233388   2.810   5.892   2.723 -0.3156 -0.5008  0.0497
10316SOL     OW33389   6.705   5.135   0.218 -0.8434  0.2525 -0.1008
10316SOL    HW133390   6.629   5.101   0.170 -0.4436 -0.3418 -0.3156
10316SOL    HW233391   6.680   5.225   0.241 -1.0446  0.5403 -1.4071
10317SOL     OW33392   5.772   5.787   6.080 -0.2985 -0.3256  0.1012
10317SOL    HW133393   5.776   5.701   6.122 -0.3161 -0.0833  0.6156
10317SOL    HW233394   5.803   5.847   6.148 -1.8727  0.2778  0.3401
10318SOL     OW33395   5.652   7.145   9.306  0.0482 -0.3104  0.2286
10318SOL    HW133396   5.738   7.106   9.321 -0.4218 -1.2912  0.4371
10318SOL    HW233397   5.661   7.235   9.337  1.5478  0.2105 -1.4953
10319SOL     OW33398   8.282   7.500   9.585  0.1013 -0.2684  0.7989
10319SOL    HW133399   8.303   7.586   9.549 -1.2680  0.1592  0.9764
10319SOL    HW233400   8.358   7.446   9.563  0.2885  0.5682 -0.7075
10320SOL     OW33401   9.973   2.604   0.811  0.2826  0.2127 -0.2731
10320SOL    HW133402  10.005   2.675   0.867 -0.7932  1.5698 -1.3017
10320SOL    HW233403   9.925   2.546   0.870  0.4914  0.7832  0.4647
10321SOL     OW33404   8.883   5.913   6.642  0.3920 -0.4010  0.4383
10321SOL    HW133405   8.927   5.953   6.566 -0.5544  2.6698  1.3646
10321SOL    HW233406   8.896   5.976   6.713 -1.9998 -1.3454  1.8173
10322SOL     OW33407   5.902   2.247   3.403  0.2238  0.0342  0.3092
10322SOL    HW133408   5.814   2.267   3.371 -0.0473  0.5093  1.2833
10322SOL    HW233409   5.908   2.152   3.398 -1.0135 -0.1646  1.8116
10323SOL     OW33410   5.982   3.504   8.171  0.6223 -0.4116 -0.1670
10323SOL    HW133411   5.959   3.414   8.191 -0.2855  0.0983  1.2494
10323SOL    HW233412   5.939   3.523   8.088 -1.5057 -0.4802  0.8526
10324SOL     OW33413   6.200   1.480   2.544 -0.0351 -0.0667  0.2101
10324SOL    HW133414   6.226   1.437   2.462  3.1600  0.7807  0.6614
10324SOL    HW233415   6.130   1.540   2.518  0.6824 -0.0311 -1.8551
10325SOL     OW33416   5.512   0.453   8.027  0.4813 -0.7999 -0.6754
10325SOL    HW133417   5.482   0.513   8.095 -2.4622 -2.1341 -0.6289
10325SOL    HW233418   5.535   0.373   8.074 -0.1164 -1.2222 -1.0764
10326SOL     OW33419   5.251   0.065   3.756  0.2869 -0.1901 -0.2898
10326SOL    HW133420   5.160   0.079   3.783  0.0474 -0.6296 -0.8614
10326SOL    HW233421   5.300   0.133   3.802  0.0304 -1.4420  2.0233
10327SOL     OW33422   4.012   2.902   4.423  0.8820 -0.2199 -0.4265
10327SOL    HW133423   3.937   2.910   4.482  1.2459 -0.2285  0.0463
10327SOL    HW233424   3.976   2.863   4.343  0.5393 -1.0324  0.1123
10328SOL     OW33425   9.462   7.958   4.680 -0.4066  0.6556  0.5937
10328SOL    HW133426   9.399   8.018   4.722 -1.3966  0.6920 -0.8583
10328SOL    HW233427   9.440   7.962   4.587  0.6977 -0.6026  0.2493
10329SOL     OW33428   1.389   9.940   4.638  0.7943 -0.6811  0.2935
10329SOL    HW133429   1.398  10.004   4.709 -1.9083  2.0576 -1.5657
10329SOL    HW233430   1.466   9.953   4.583 -0.5599  2.5527 -1.0596
10330SOL     OW33431   1.416   3.442   2.830  0.0510  0.1771  0.2838
10330SOL    HW133432   1.407   3.358   2.876 -0.7012  0.0751 -0.0356
10330SOL    HW233433   1.426   3.418   2.738  0.3546  0.4231  0.2525
10331SOL     OW33434   5.060   4.426   7.045 -0.2791  0.0052 -0.0902
10331SOL    HW133435   5.035   4.450   6.956 -2.4559 -1.1457  0.1507
10331SOL    HW233436   5.020   4.340   7.059  2.1720 -1.0378  1.1383
10332SOL     OW33437   4.870   9.301   3.471 -0.0317  0.1324 -1.0131
10332SOL    HW133438   4.841   9.210   3.460 -1.4581  0.0994  1.9719
10332SOL    HW233439   4.942   9.296   3.533 -2.2038  1.1495  1.7911
10333SOL     OW33440   6.402   7.255   0.589 -0.3812  0.1527 -0.0997
10333SOL    HW133441   6.487   7.250   0.545  0.9185 -0.4293  2.3524
10333SOL    HW233442   6.408   7.332   0.645 -1.2810 -0.2285  0.5432
10334SOL     OW33443   9.306   1.033   7.906  0.3776 -0.7730  0.5827
10334SOL    HW133444   9.333   1.119   7.873  0.5637 -1.0321  0.0528
10334SOL    HW233445   9.372   1.010   7.970  0.3769 -0.5618  0.6599
10335SOL     OW33446   6.665   1.039   1.722 -0.2129 -0.6184 -0.3593
10335SOL    HW133447   6.709   1.105   1.670  2.4105 -0.9458  1.2921
10335SOL    HW233448   6.652   1.079   1.807 -0.8191 -1.4241 -0.0525
10336SOL     OW33449   0.135   6.706   9.845  0.4823  0.2849  0.4408
10336SOL    HW133450   0.065   6.675   9.902  0.4113  1.1720  0.8520
10336SOL    HW233451   0.095   6.711   9.758  0.3658 -0.2992  0.4551
10337SOL     OW33452   0.475   8.897   2.843  0.2794 -0.5444 -0.0065
10337SOL    HW133453   0.442   8.808   2.843  1.8485 -1.1764  1.2446
10337SOL    HW233454   0.398   8.952   2.832 -0.8979 -1.9959  0.7189
10338SOL     OW33455   5.358   3.069   4.750 -0.8695 -0.7624 -0.5239
10338SOL    HW133456   5.420   3.075   4.822 -1.6054 -0.3644  0.0955
10338SOL    HW233457   5.410   3.041   4.675  0.5701  2.0372 -0.6921
10339SOL     OW33458   1.505   2.612   7.077 -0.3512  0.0254 -0.0640
10339SOL    HW133459   1.512   2.573   7.165 -0.5381 -0.8018 -0.4080
10339SOL    HW233460   1.439   2.680   7.086  0.3819  0.6755  0.6857
10340SOL     OW33461   7.679   2.720   8.599  0.2268 -0.4314 -0.9097
10340SOL    HW133462   7.617   2.769   8.545  1.6073  1.4007 -0.9394
10340SOL    HW233463   7.719   2.658   8.538  0.5236  0.4268 -1.6185
10341SOL     OW33464   3.453   2.020   9.444  0.2083  0.5168  0.2692
10341SOL    HW133465   3.519   1.954   9.467 -0.9579 -0.6485  0.3906
10341SOL    HW233466   3.448   2.016   9.349  2.3698  2.7100 -0.0353
10342SOL     OW33467   4.993   8.766   8.328  0.1688  0.3538  0.4438
10342SOL    HW133468   5.052   8.807   8.265 -0.1585 -0.5299 -0.4563
10342SOL    HW233469   5.049   8.743   8.402  0.8046  0.2219 -0.0688
10343SOL     OW33470   1.430   0.441   0.493  0.0508  0.7471  0.2444
10343SOL    HW133471   1.432   0.398   0.578  1.5987 -1.6809 -0.9003
10343SOL    HW233472   1.338   0.442   0.468 -0.3655  1.0911  1.7351
10344SOL     OW33473   6.510   4.805  10.038  0.1552  0.1589 -0.3880
10344SOL    HW133474   6.533   4.754   9.960  1.6735  1.2033 -0.6547
10344SOL    HW233475   6.473   4.886  10.003 -1.8078 -0.4804  0.0354
10345SOL     OW33476   9.636   0.509   7.017 -0.0620  0.8954  0.2241
10345SOL    HW133477   9.558   0.455   7.032  0.3490  0.4562  0.8337
10345SOL    HW233478   9.692   0.457   6.960 -0.4983  1.5021 -0.8019
10346SOL     OW33479   4.019   0.035   5.452  0.2951 -0.7986 -0.2364
10346SOL    HW133480   3.989  -0.013   5.375 -1.0547 -2.4092  1.2134
10346SOL    HW233481   4.068  -0.029   5.503  0.5489  0.0340  0.5895
10347SOL     OW33482   5.948   5.147   1.488  0.2799  0.1858  0.0225
10347SOL    HW133483   6.038   5.133   1.516  0.5942  1.6645 -0.1335
10347SOL    HW233484   5.947   5.120   1.396  0.1987 -1.1425  0.4049
10348SOL     OW33485   2.973   6.584   6.612 -0.3503  0.4696 -0.2009
10348SOL    HW133486   2.890   6.623   6.640 -0.5957  0.7036 -1.2073
10348SOL    HW233487   2.948   6.502   6.569 -0.0580  0.4895 -0.4142
10349SOL     OW33488   3.885   9.677   2.572  0.5551 -0.3244 -0.1089
10349SOL    HW133489   3.934   9.599   2.543  0.0953 -0.9886  0.8467
10349SOL    HW233490   3.864   9.659   2.664  1.6812  1.5605  0.5737
10350SOL     OW33491   9.154   5.781   6.397  0.0320 -0.0689 -0.3871
10350SOL    HW133492   9.076   5.790   6.342 -0.4326  0.1320  0.2916
10350SOL    HW233493   9.180   5.872   6.416 -0.1797 -0.1304  0.2274
10351SOL     OW33494   9.975   3.178   3.016 -0.6612 -0.1956 -0.0414
10351SOL    HW133495  10.003   3.102   3.068 -0.2006 -0.3490 -0.5020
10351SOL    HW233496   9.990   3.151   2.925  1.1820  1.0565 -0.1649
10352SOL     OW33497   9.499   3.201   5.590  0.0957  0.2736 -0.0855
10352SOL    HW133498   9.554   3.223   5.515  0.1322 -1.4507 -0.6158
10352SOL    HW233499   9.526   3.112   5.614  0.6617  1.0565  2.5241
10353SOL     OW33500   9.995   7.520   7.433  0.1193  0.2618 -0.0605
10353SOL    HW133501   9.994   7.614   7.415 -1.4520  0.1950 -0.4890
10353SOL    HW233502   9.964   7.512   7.524 -1.0325  0.1104 -0.4503
10354SOL     OW33503  10.316   9.206   6.591  0.6949 -0.3387  0.0695
10354SOL    HW133504  10.362   9.288   6.605  1.0950 -0.6184  0.4203
10354SOL    HW233505  10.383   9.145   6.560  0.6123 -0.8006  0.7611
10355SOL     OW33506   0.588   2.177   8.274  0.0489 -0.5492 -0.0474
10355SOL    HW133507   0.635   2.100   8.242  0.9041 -0.4859  0.9803
10355SOL    HW233508   0.500   2.169   8.237  0.8430 -0.6840 -2.0372
10356SOL     OW33509   7.426   7.962   3.252 -0.0182  0.3182  0.1319
10356SOL    HW133510   7.503   7.997   3.296  0.3771  0.0025 -0.3068
10356SOL    HW233511   7.371   7.929   3.324  2.3984 -3.9420  0.3158
10357SOL     OW33512   6.663   4.853   0.319  0.6792  0.4896 -0.0293
10357SOL    HW133513   6.585   4.905   0.298  0.3274  0.1184  0.3502
10357SOL    HW233514   6.656   4.776   0.263  1.6189  1.2060 -1.1933
10358SOL     OW33515   5.012   7.965   1.075 -0.5019 -0.0217  0.0497
10358SOL    HW133516   5.094   8.006   1.101  1.0831 -2.5914 -0.5238
10358SOL    HW233517   5.015   7.962   0.980 -2.7192  2.4680 -0.2160
10359SOL     OW33518   3.695   9.121   0.628  0.0910  0.0478 -0.5520
10359SOL    HW133519   3.617   9.079   0.665  1.8014 -1.6274  1.4502
10359SOL    HW233520   3.730   9.174   0.701  0.4842  1.2981 -1.6149
10360SOL     OW33521   6.770   6.028  10.305  0.1996 -0.1833  0.2115
10360SOL    HW133522   6.702   6.091  10.327  1.9365  1.3562  1.3505
10360SOL    HW233523   6.782   5.977  10.385  0.6717 -0.1813  0.1407
10361SOL     OW33524  10.481  10.268   9.790 -0.2232  0.3227  0.0795
10361SOL    HW133525  10.567  10.239   9.821  0.3276  2.5186  0.7918
10361SOL    HW233526  10.498  10.301   9.701 -0.2709  0.8730  0.2684
10362SOL     OW33527   9.534   4.011   8.517 -0.6551  0.1221  0.3790
10362SOL    HW133528   9.554   4.099   8.548  1.5436 -0.2023  0.0187
10362SOL    HW233529   9.609   3.958   8.543 -1.4858 -1.4440 -0.2637
10363SOL     OW33530   4.664   0.761   9.980  0.1503 -0.7053 -0.3590
10363SOL    HW133531   4.743   0.715  10.009  1.2165  1.9590  1.2725
10363SOL    HW233532   4.605   0.757  10.056  0.0058  0.0671 -0.4222
10364SOL     OW33533   0.121   0.191   7.987  0.2552  0.1893  0.0622
10364SOL    HW133534   0.177   0.268   7.996  1.6812 -0.6391 -1.3916
10364SOL    HW233535   0.163   0.124   8.039 -1.9360  0.7525  2.8464
10365SOL     OW33536   6.001   3.934   5.610  0.3007  0.0017 -0.0716
10365SOL    HW133537   6.067   3.914   5.542 -0.4953 -0.7773 -0.6377
10365SOL    HW233538   5.986   4.028   5.602 -0.2596 -0.1834 -1.4332
10366SOL     OW33539   9.171   2.884   1.289  0.5706  0.0416  0.1991
10366SOL    HW133540   9.120   2.865   1.368  0.7316  2.6850  1.0455
10366SOL    HW233541   9.126   2.959   1.249  0.2853 -1.4389 -2.4761
10367SOL     OW33542   6.011   0.728   9.265 -0.0248 -0.0497 -0.5803
10367SOL    HW133543   5.996   0.782   9.343 -0.1948 -0.2397 -0.4820
10367SOL    HW233544   5.924   0.716   9.227  0.1127  0.4217 -1.0502
10368SOL     OW33545   3.351   1.744   2.363  0.0782 -0.2037  0.0872
10368SOL    HW133546   3.333   1.818   2.422  1.1367  1.5143 -1.6060
10368SOL    HW233547   3.427   1.700   2.401  0.6845  0.8188  0.0993
10369SOL     OW33548   4.173   4.599   6.166  0.0803  0.0889 -0.3812
10369SOL    HW133549   4.242   4.558   6.218 -0.4718  1.3575  1.4497
10369SOL    HW233550   4.213   4.616   6.081  2.9773  3.1018  1.3699
10370SOL     OW33551   3.229   9.924   1.908 -0.0941  0.5153 -0.5991
10370SOL    HW133552   3.198   9.974   1.832  1.4232 -0.0369 -1.6569
10370SOL    HW233553   3.321   9.950   1.917  0.2289 -0.7176 -0.0603
10371SOL     OW33554   9.264  10.043  10.226  0.5664  0.1218 -0.1219
10371SOL    HW133555   9.265  10.051  10.131 -0.9187  0.7631 -0.1054
10371SOL    HW233556   9.180  10.080  10.253  0.8754 -0.2188  1.4297
10372SOL     OW33557   8.982   3.682  10.263  0.6425  0.4737 -0.1102
10372SOL    HW133558   9.001   3.664  10.356 -0.5140 -0.4176 -0.0277
10372SOL    HW233559   9.058   3.733  10.233  0.7270  1.3636  1.4935
10373SOL     OW33560   0.129   8.216   2.311  0.3412  0.5606 -0.1692
10373SOL    HW133561   0.148   8.141   2.367 -0.4643  0.3710 -0.1435
10373SOL    HW233562   0.186   8.204   2.235 -0.6610 -0.7489 -0.7421
10374SOL     OW33563   0.755   4.337   7.778 -0.1071 -0.6246 -0.3176
10374SOL    HW133564   0.783   4.267   7.838  2.1164 -0.9269 -1.5713
10374SOL    HW233565   0.737   4.292   7.695  0.7876  0.1709 -0.9746
10375SOL     OW33566   0.215   1.102   0.473  0.5182  0.5401  0.5448
10375SOL    HW133567   0.291   1.045   0.460  1.0705  1.3733  0.0543
10375SOL    HW233568   0.152   1.074   0.407  0.1743 -0.4983  1.2833
10376SOL     OW33569  10.110   5.224   5.313  0.0847 -0.1529 -0.2117
10376SOL    HW133570  10.155   5.205   5.230  0.1931  0.7603 -0.3726
10376SOL    HW233571  10.181   5.247   5.373 -0.0128 -0.6239  0.0828
10377SOL     OW33572   3.294   3.788   4.068  0.4362 -0.9687 -0.2255
10377SOL    HW133573   3.356   3.861   4.060 -0.2947 -0.3495 -0.4243
10377SOL    HW233574   3.219   3.826   4.115 -0.3183 -1.3492 -1.0977
10378SOL     OW33575   7.861   2.267   0.679 -0.4636  0.1361 -0.1477
10378SOL    HW133576   7.956   2.270   0.687 -0.3221  0.5034 -1.5721
10378SOL    HW233577   7.839   2.343   0.625 -1.6197  0.3047  0.5141
10379SOL     OW33578   2.670   8.824   3.536  0.2841  0.8172 -0.1904
10379SOL    HW133579   2.666   8.851   3.627 -1.6406  0.2880 -0.0789
10379SOL    HW233580   2.761   8.841   3.510  0.8198  1.1574  1.7443
10380SOL     OW33581   3.956   7.146   4.847  0.6587  0.1046  0.2260
10380SOL    HW133582   3.969   7.124   4.939  1.9476 -0.9784 -0.1868
10380SOL    HW233583   3.986   7.068   4.799 -0.0557  0.6179 -1.1099
10381SOL     OW33584   7.081   6.782   2.308 -0.5632  0.0186  0.0478
10381SOL    HW133585   7.062   6.707   2.252  0.8036 -0.7823  0.6150
10381SOL    HW233586   7.020   6.850   2.278 -1.8560 -1.2973 -0.4564
10382SOL     OW33587   6.592   3.517   2.604 -0.3642  0.3647  0.3422
10382SOL    HW133588   6.672   3.489   2.648 -1.2310 -1.0232  1.1124
10382SOL    HW233589   6.540   3.557   2.673 -0.0285  2.0562 -0.3255
10383SOL     OW33590   7.031   7.565   0.813 -0.5174 -0.1109 -0.2252
10383SOL    HW133591   7.049   7.495   0.877 -1.8946 -0.5807 -0.3280
10383SOL    HW233592   7.016   7.518   0.731 -1.2718  0.3168 -0.3356
10384SOL     OW33593   2.132   1.364   3.315 -0.0679 -0.0005  0.6329
10384SOL    HW133594   2.139   1.438   3.255  0.9075 -0.2864  0.3709
10384SOL    HW233595   2.161   1.289   3.264  1.5854 -0.1220  1.6688
10385SOL     OW33596   8.286  10.290   4.686  0.4029 -1.2832  0.2397
10385SOL    HW133597   8.295  10.243   4.603 -0.0501 -0.1908 -0.4351
10385SOL    HW233598   8.198  10.268   4.716 -0.7326  0.9344 -1.2457
10386SOL     OW33599   8.889   7.632   1.251  0.0769 -0.2429 -0.5139
10386SOL    HW133600   8.945   7.607   1.325 -2.6243  0.4692  1.9853
10386SOL    HW233601   8.905   7.565   1.185  1.4047 -1.9375  1.3820
10387SOL     OW33602   0.476   0.126   4.136 -0.3963 -0.1066 -0.5169
10387SOL    HW133603   0.410   0.184   4.100 -2.4392 -1.7847  0.3180
10387SOL    HW233604   0.473   0.142   4.231 -0.7337 -1.2763 -0.3145
10388SOL     OW33605   7.909   0.127   8.825 -0.5779  0.2943 -0.3849
10388SOL    HW133606   7.843   0.194   8.806 -1.0388 -0.1969 -0.5712
10388SOL    HW233607   7.957   0.161   8.900 -1.0448  0.6666 -0.2473
10389SOL     OW33608   5.811   5.563   6.231  0.2294 -0.0986 -0.7266
10389SOL    HW133609   5.716   5.571   6.239  0.3245  2.2043 -1.1612
10389SOL    HW233610   5.843   5.563   6.321 -0.1293 -0.0295 -0.5978
10390SOL     OW33611   2.944   1.860   5.030 -0.0348  1.0793 -0.0819
10390SOL    HW133612   3.033   1.852   5.066  0.2074  2.7152 -0.2548
10390SOL    HW233613   2.893   1.900   5.100 -0.1551  1.9512 -0.6534
10391SOL     OW33614   2.752   6.634   8.244 -0.0879 -0.0777  0.0397
10391SOL    HW133615   2.663   6.662   8.267  0.1962  2.1028 -1.1831
10391SOL    HW233616   2.803   6.649   8.323 -0.6241 -0.3336  0.4353
10392SOL     OW33617   8.316   9.888   3.327 -0.2083  0.0178  0.3355
10392SOL    HW133618   8.290   9.874   3.236  0.1298 -0.2980  0.2827
10392SOL    HW233619   8.251   9.948   3.362 -0.8014 -0.4853  0.1140
10393SOL     OW33620   3.863   6.052   0.748  0.6313 -0.3993  0.4706
10393SOL    HW133621   3.948   6.080   0.714  1.8053  0.2485  3.5614
10393SOL    HW233622   3.801   6.117   0.715  1.4681 -0.3330 -1.0561
10394SOL     OW33623   2.895   2.857   4.182  0.2256  0.0026 -0.7141
10394SOL    HW133624   2.920   2.764   4.184  0.5250  0.0927 -0.1634
10394SOL    HW233625   2.905   2.882   4.090 -2.1500 -1.1256 -1.3649
10395SOL     OW33626   9.064  10.269   7.963  0.9405  0.0195 -0.0907
10395SOL    HW133627   9.149  10.245   8.001  0.3483 -0.5601  0.8943
10395SOL    HW233628   9.019  10.314   8.034  1.0271  1.8068 -1.1029
10396SOL     OW33629   0.502   1.813   8.416  0.3774 -0.1989 -0.7089
10396SOL    HW133630   0.457   1.894   8.394  1.1972 -0.1868 -2.5005
10396SOL    HW233631   0.432   1.755   8.446 -0.2965  0.9623  0.0569
10397SOL     OW33632   0.696   1.414   2.134  0.1950 -0.9318 -0.0278
10397SOL    HW133633   0.785   1.431   2.164  0.3402  2.4549 -1.8746
10397SOL    HW233634   0.702   1.414   2.038 -1.8492  0.1868 -0.2242
10398SOL     OW33635   0.427   7.369   4.623  0.0273 -0.5266  0.1412
10398SOL    HW133636   0.340   7.392   4.655  0.8358  0.7955  1.5538
10398SOL    HW233637   0.457   7.299   4.683  1.5449  1.9537  2.5301
10399SOL     OW33638   7.347   2.697   1.614  0.4413 -0.1644 -0.1062
10399SOL    HW133639   7.331   2.631   1.547  1.9346 -1.0585  0.3743
10399SOL    HW233640   7.428   2.670   1.656  0.7588  1.6324  0.5411
10400SOL     OW33641   4.333   5.695   8.035  0.8787 -0.1823  0.5364
10400SOL    HW133642   4.246   5.703   7.995  0.8615 -2.9161 -0.1579
10400SOL    HW233643   4.384   5.766   7.996 -0.2997 -0.2092 -1.1552
10401SOL     OW33644   1.049   0.350   6.723  0.3822  0.4091 -0.1643
10401SOL    HW133645   1.057   0.394   6.808  0.4047  0.7056 -0.3203
10401SOL    HW233646   0.987   0.404   6.674  0.5313  0.3557 -0.4134
10402SOL     OW33647   1.048   8.827   8.641  0.3949 -0.0115  0.7129
10402SOL    HW133648   0.965   8.779   8.644  1.2962 -1.6627  0.9065
10402SOL    HW233649   1.088   8.800   8.558  0.4929  1.2250  0.3427
10403SOL     OW33650   8.668   4.849   1.111  0.0619 -0.3284  0.2578
10403SOL    HW133651   8.618   4.896   1.178  0.2093 -0.7571  0.6698
10403SOL    HW233652   8.753   4.894   1.108  0.9356 -1.7578  2.0541
10404SOL     OW33653   8.549   4.360   1.906 -0.2693  0.2508  0.1992
10404SOL    HW133654   8.633   4.345   1.950  0.2682 -1.0375 -1.2190
10404SOL    HW233655   8.563   4.440   1.854  0.7508 -1.0039 -1.5415
10405SOL     OW33656   0.403   6.190   2.266  0.0587  0.9569  0.2237
10405SOL    HW133657   0.464   6.166   2.196 -0.2021 -0.2162  0.3864
10405SOL    HW233658   0.435   6.144   2.343 -0.4403  1.1542  0.5548
10406SOL     OW33659   4.065   9.845   1.333 -0.0222  0.7785 -0.4520
10406SOL    HW133660   4.084   9.865   1.424  0.4892  0.0977 -0.4001
10406SOL    HW233661   4.151   9.833   1.292 -0.2657  0.0106 -0.7664
10407SOL     OW33662   7.681   3.954   4.067 -0.4541  0.1625 -0.3145
10407SOL    HW133663   7.625   3.878   4.049  1.2645 -1.0304 -0.9887
10407SOL    HW233664   7.673   4.009   3.989  0.6939 -0.9393 -1.2532
10408SOL     OW33665   6.987   9.997   6.433  0.0637  0.2114  0.0851
10408SOL    HW133666   6.964   9.940   6.506  0.2087 -1.5936 -1.2027
10408SOL    HW233667   6.948  10.081   6.455 -0.0768 -0.3286  2.1149
10409SOL     OW33668   1.405   6.563   3.020 -0.3491  0.4067  0.1757
10409SOL    HW133669   1.455   6.486   2.992 -1.6583  0.2377 -1.9300
10409SOL    HW233670   1.424   6.571   3.114 -1.0738 -3.1965  0.7823
10410SOL     OW33671   1.218   5.588   9.432  0.1840  0.2675  0.2342
10410SOL    HW133672   1.287   5.639   9.475  0.5104 -0.1833  0.2521
10410SOL    HW233673   1.257   5.502   9.419  0.9580  0.9694 -3.0084
10411SOL     OW33674   3.197   9.035   6.698  0.0034 -0.1480  0.6632
10411SOL    HW133675   3.139   8.980   6.644  1.0310 -0.8977  0.2985
10411SOL    HW233676   3.161   9.028   6.786  0.7787 -2.4284  0.8739
10412SOL     OW33677   0.944   2.289   5.781 -0.2659 -0.3273 -0.4151
10412SOL    HW133678   1.002   2.364   5.766  2.5948 -2.5347 -1.4788
10412SOL    HW233679   0.877   2.296   5.714  0.0199  1.2039 -0.5718
10413SOL     OW33680   8.562   0.394   1.635 -0.0934 -0.2978  0.3622
10413SOL    HW133681   8.547   0.438   1.552 -2.5086 -0.6909  0.5140
10413SOL    HW233682   8.604   0.311   1.611  0.7086  0.2832 -0.2881
10414SOL     OW33683   3.477   3.672   9.063 -0.0119 -0.0679  0.0824
10414SOL    HW133684   3.529   3.675   8.982 -1.4658 -1.9198 -0.9891
10414SOL    HW233685   3.389   3.697   9.036 -0.5263 -0.7337  1.1075
10415SOL     OW33686   9.574   2.626   3.875  0.4934 -0.4859  0.2237
10415SOL    HW133687   9.515   2.674   3.932  2.4825  1.4765  0.7538
10415SOL    HW233688   9.583   2.681   3.798 -1.1764 -2.5204 -1.5780
10416SOL     OW33689   7.381   5.173   4.589  0.1742 -0.0461  0.5622
10416SOL    HW133690   7.362   5.263   4.616 -2.6074  0.4817 -2.4574
10416SOL    HW233691   7.312   5.121   4.630 -0.5750 -0.1136 -0.7176
10417SOL     OW33692   9.056   2.488   4.529  0.1595 -0.0903 -0.0878
10417SOL    HW133693   9.002   2.505   4.452  0.2947  0.6022 -0.0347
10417SOL    HW233694   9.145   2.476   4.494  0.1152 -0.4005 -0.0969
10418SOL     OW33695   1.051   3.966   5.028 -0.0821  0.1700  0.5491
10418SOL    HW133696   0.959   3.991   5.027 -0.5389 -1.3918  0.1240
10418SOL    HW233697   1.061   3.913   5.107  0.4581  0.3512  0.6070
10419SOL     OW33698   3.179   6.084   9.768  0.1017  0.5703 -0.3637
10419SOL    HW133699   3.245   6.034   9.817 -2.4328 -1.5561  1.1577
10419SOL    HW233700   3.141   6.143   9.833 -2.5510 -1.5137  0.1721
10420SOL     OW33701   8.167   1.091   6.609  0.7920  0.4271 -0.3466
10420SOL    HW133702   8.152   1.110   6.516  1.7324  0.6762 -0.4626
10420SOL    HW233703   8.081   1.070   6.643  0.8168 -3.1334 -2.0304
10421SOL     OW33704   8.523   7.539   0.651 -0.3391  0.1384 -0.3547
10421SOL    HW133705   8.448   7.489   0.684  0.0109 -0.3687 -0.3091
10421SOL    HW233706   8.485   7.602   0.591 -1.5418  3.6617  3.6211
10422SOL     OW33707   9.202   0.135   1.509 -0.1570  0.2919 -0.0099
10422SOL    HW133708   9.160   0.221   1.502  0.2739  0.5282  0.2719
10422SOL    HW233709   9.136   0.080   1.551 -1.2865 -0.1210 -2.1525
10423SOL     OW33710   8.502   2.858   6.525  0.2901 -0.5650  1.1319
10423SOL    HW133711   8.492   2.942   6.479 -1.6946 -1.3860 -0.0541
10423SOL    HW233712   8.592   2.832   6.508 -0.2384 -0.6633 -2.1621
10424SOL     OW33713   9.242   3.170   0.725 -0.3807  0.0173  0.2961
10424SOL    HW133714   9.241   3.255   0.770  0.1304 -0.0743  0.4796
10424SOL    HW233715   9.158   3.130   0.748 -0.0786 -0.0810  1.2712
10425SOL     OW33716   2.437   1.553   9.281  0.0080 -0.3612  0.2265
10425SOL    HW133717   2.383   1.499   9.340 -1.8462  1.2877  0.1363
10425SOL    HW233718   2.478   1.617   9.338 -0.4376  0.1768 -0.0497
10426SOL     OW33719   1.533  10.291   3.361 -0.4239  0.3035  0.2322
10426SOL    HW133720   1.464  10.331   3.308 -0.8579  0.6119  1.0146
10426SOL    HW233721   1.558  10.358   3.424 -2.2970 -1.0575  2.6320
10427SOL     OW33722   5.939   1.360   2.920  0.6109  0.1731 -0.3535
10427SOL    HW133723   6.001   1.290   2.941  0.6571  0.0905 -0.7672
10427SOL    HW233724   5.866   1.315   2.877  0.7210  0.3987 -0.7815
10428SOL     OW33725   4.735   1.228   6.928 -0.5889 -0.1712 -0.1012
10428SOL    HW133726   4.788   1.164   6.977 -1.5858 -0.4646  0.6285
10428SOL    HW233727   4.697   1.283   6.996  2.1103  2.7922 -0.7644
10429SOL     OW33728   1.478   8.850   0.471 -0.3363  0.6446  0.1186
10429SOL    HW133729   1.551   8.820   0.525 -1.7666  0.8719  2.3270
10429SOL    HW233730   1.429   8.770   0.452  0.0744  0.5888 -0.7555
10430SOL     OW33731   4.304   4.614   9.800 -0.1606 -0.4614  0.2600
10430SOL    HW133732   4.383   4.639   9.847  0.0789 -0.8255  0.0457
10430SOL    HW233733   4.310   4.661   9.717 -0.0288 -0.7173  0.1255
10431SOL     OW33734   0.988   7.147   4.538  0.5016  0.5242  0.6046
10431SOL    HW133735   1.042   7.215   4.577  1.3135  0.3962 -0.2447
10431SOL    HW233736   1.046   7.071   4.531  0.1288  0.2831 -0.0296
10432SOL     OW33737   3.147   8.965   4.174 -0.2723 -0.2426  0.1560
10432SOL    HW133738   3.095   8.986   4.251  0.7513 -2.5621  1.6080
10432SOL    HW233739   3.197   8.888   4.200  1.6368  0.1039 -2.1840
10433SOL     OW33740   6.762  10.070   8.693 -0.6966  0.6736 -0.1441
10433SOL    HW133741   6.792  10.072   8.602  0.5713  0.4879  0.2556
10433SOL    HW233742   6.739  10.160   8.712  0.3873  0.9759 -0.2184
10434SOL     OW33743  10.361  10.061   8.014 -0.3683 -0.3974  0.0907
10434SOL    HW133744  10.415  10.010   8.075  0.3584  0.1084 -0.1112
10434SOL    HW233745  10.342  10.142   8.061  2.2102  1.0747 -1.1336
10435SOL     OW33746   7.487   7.250   1.934  0.1906 -0.3216 -0.3998
10435SOL    HW133747   7.553   7.185   1.910  1.1203  0.7051 -0.6726
10435SOL    HW233748   7.531   7.334   1.927 -0.8744  0.3345  0.3578
10436SOL     OW33749   2.472   6.667   5.702 -0.0142 -0.0578 -0.2620
10436SOL    HW133750   2.563   6.661   5.673 -0.3415  0.5218 -1.4710
10436SOL    HW233751   2.443   6.576   5.709  0.2683 -0.2224 -1.1603
10437SOL     OW33752   5.505   6.424   0.194 -0.3401  0.0245  0.2829
10437SOL    HW133753   5.467   6.512   0.190  1.3867  0.7510 -0.9042
10437SOL    HW233754   5.540   6.418   0.283 -1.5629  0.0273  0.7906
10438SOL     OW33755   2.924   9.168   4.874  0.4250 -0.0071  0.6020
10438SOL    HW133756   2.968   9.229   4.932  0.0274 -0.2931  1.2215
10438SOL    HW233757   2.865   9.118   4.931 -0.4133  0.0999 -0.1336
10439SOL     OW33758   6.580   5.639   6.974  0.5227 -0.3863  0.7067
10439SOL    HW133759   6.494   5.599   6.958  0.9334 -1.1139  0.3083
10439SOL    HW233760   6.613   5.596   7.053  2.0230 -2.6593 -1.0423
10440SOL     OW33761   6.240   3.560   5.900  0.1739  0.1409  0.0603
10440SOL    HW133762   6.312   3.623   5.891 -0.3714  0.5943 -1.5693
10440SOL    HW233763   6.172   3.592   5.840 -0.0987 -2.0125 -0.8914
10441SOL     OW33764   9.955   5.795   6.838  0.5785  0.6760  0.3201
10441SOL    HW133765  10.043   5.779   6.873  1.7183 -0.6567 -2.7625
10441SOL    HW233766   9.900   5.730   6.881  0.9873  1.7001  2.4943
10442SOL     OW33767   7.002   4.235   4.120  0.1729 -0.5487 -0.0962
10442SOL    HW133768   7.064   4.234   4.047 -0.1418  0.6789 -0.3975
10442SOL    HW233769   7.053   4.201   4.194  1.5203  1.2360 -0.1247
10443SOL     OW33770   3.749   5.576   3.618 -0.6231  0.0532  0.0940
10443SOL    HW133771   3.731   5.624   3.537 -1.3228 -1.7595 -0.8838
10443SOL    HW233772   3.839   5.599   3.640 -0.9604  1.8617 -0.2491
10444SOL     OW33773   5.606   9.329   7.823 -0.2116  0.5591  0.1286
10444SOL    HW133774   5.696   9.349   7.795 -0.5132  0.7355 -0.7459
10444SOL    HW233775   5.559   9.313   7.742 -1.0194  0.6411  0.5725
10445SOL     OW33776   3.743   6.780   5.051 -0.0192  0.1021  0.0269
10445SOL    HW133777   3.698   6.729   5.118  1.8794  0.0702  1.3498
10445SOL    HW233778   3.704   6.751   4.968 -1.0496 -1.2855  0.9497
10446SOL     OW33779   1.224   8.888   2.315  0.0069  0.3457  0.2195
10446SOL    HW133780   1.252   8.811   2.364 -0.3792 -0.7397 -1.1964
10446SOL    HW233781   1.132   8.872   2.295  0.3326  0.3800 -1.4716
10447SOL     OW33782   5.532   3.043   1.172 -0.1321 -0.1153  0.7944
10447SOL    HW133783   5.510   2.987   1.246  1.8308 -1.0772  0.7107
10447SOL    HW233784   5.607   3.094   1.203 -1.3004  1.8747  0.5493
10448SOL     OW33785   1.565   5.697   8.590 -0.2535 -0.6673  0.2699
10448SOL    HW133786   1.636   5.634   8.591  0.8691  0.5590  1.2047
10448SOL    HW233787   1.501   5.662   8.652  1.2286  0.0171  2.2778
10449SOL     OW33788   0.353   3.932   2.397 -0.2040 -0.3597 -0.5359
10449SOL    HW133789   0.301   3.854   2.378  0.4674 -0.8658 -0.3344
10449SOL    HW233790   0.352   3.982   2.316 -1.7976  0.1204 -0.2580
10450SOL     OW33791   7.410   2.667   9.043 -0.2836 -0.7660 -0.0005
10450SOL    HW133792   7.467   2.640   9.116  0.2420 -0.1234 -0.1638
10450SOL    HW233793   7.397   2.587   8.993  0.7681 -0.8652 -0.1504
10451SOL     OW33794   6.636   2.855   9.946 -0.3726  0.0907  0.3368
10451SOL    HW133795   6.640   2.909  10.026 -0.2348 -0.1131  0.4692
10451SOL    HW233796   6.727   2.829   9.931 -0.7213 -2.2127  1.7190
10452SOL     OW33797   1.503   1.503   9.522 -0.2069  0.0891 -0.5873
10452SOL    HW133798   1.597   1.496   9.505 -0.1177 -1.7226  0.3658
10452SOL    HW233799   1.461   1.485   9.438  0.2884 -0.0681 -0.8000
10453SOL     OW33800   4.967   8.277   1.494  0.2984  0.0779  0.3128
10453SOL    HW133801   4.972   8.316   1.581 -0.7304 -0.1451  0.4849
10453SOL    HW233802   4.972   8.352   1.434 -1.7482  0.5551  0.6418
10454SOL     OW33803   3.253   6.656   5.906  0.2215 -0.0640  0.2392
10454SOL    HW133804   3.182   6.675   5.845 -0.2397  0.3692  0.8873
10454SOL    HW233805   3.225   6.698   5.988  1.5096  0.6210  0.3486
10455SOL     OW33806   1.493   2.849   9.744  0.7268 -0.1111  0.3046
10455SOL    HW133807   1.430   2.785   9.779 -0.4071 -0.0041 -1.4314
10455SOL    HW233808   1.578   2.807   9.756  0.1042 -1.4441  0.2594
10456SOL     OW33809   4.949   5.476  10.158 -0.2895 -0.5191 -0.0045
10456SOL    HW133810   4.910   5.516  10.236  0.1018 -3.0573  1.6204
10456SOL    HW233811   5.042   5.494  10.167 -0.4380  0.8457 -0.9681
10457SOL     OW33812   8.667   9.203   6.641 -0.3191 -0.0546  0.2041
10457SOL    HW133813   8.639   9.119   6.603 -2.1523  0.1905  0.9035
10457SOL    HW233814   8.591   9.232   6.693  0.4994  1.7567  0.4509
10458SOL     OW33815   5.251   1.944   4.591 -0.3442 -0.5422  0.1781
10458SOL    HW133816   5.237   1.897   4.509 -0.0701 -0.7404  0.2457
10458SOL    HW233817   5.284   1.878   4.651  1.3752  0.0177 -0.1093
10459SOL     OW33818   5.601   8.277   4.100 -0.0119 -0.2058 -0.2072
10459SOL    HW133819   5.690   8.247   4.117 -0.0816 -0.0634  0.4408
10459SOL    HW233820   5.570   8.221   4.028  0.1908 -1.0420  0.3406
10460SOL     OW33821   8.818   6.160   5.521 -0.8224  0.0833  0.3926
10460SOL    HW133822   8.894   6.133   5.469 -1.5961  0.1160 -0.8189
10460SOL    HW233823   8.846   6.152   5.612 -0.2139 -2.5275  0.0620
10461SOL     OW33824   0.810   3.759   6.270 -0.3145  0.6600 -0.2566
10461SOL    HW133825   0.779   3.734   6.183 -2.0601 -2.1115  1.0024
10461SOL    HW233826   0.732   3.793   6.314 -1.3297 -3.8910  2.1025
10462SOL     OW33827   8.227   8.424   4.180 -0.4432  0.2540 -0.1857
10462SOL    HW133828   8.212   8.364   4.107 -3.0791 -1.8927  1.8906
10462SOL    HW233829   8.140   8.460   4.199  0.3361  1.4159  1.3536
10463SOL     OW33830   6.184   7.934   4.819  0.4406 -0.3041 -0.3462
10463SOL    HW133831   6.141   8.018   4.835  0.2702 -0.4194 -0.1835
10463SOL    HW233832   6.204   7.901   4.907  0.2029 -0.5869 -0.3977
10464SOL     OW33833   7.274  10.398   1.731 -0.6514  0.1918 -0.2444
10464SOL    HW133834   7.304  10.446   1.654  2.6243 -1.2785 -0.0500
10464SOL    HW233835   7.332  10.428   1.801 -0.6916 -1.6677  0.6251
10465SOL     OW33836   8.613   0.192   0.678  0.1354 -0.2583 -0.0238
10465SOL    HW133837   8.558   0.261   0.716  0.0387 -0.4180  0.1298
10465SOL    HW233838   8.551   0.136   0.632 -0.0961 -1.4568  1.6555
10466SOL     OW33839   2.850   7.048   7.507 -0.5121  0.2610 -0.4264
10466SOL    HW133840   2.904   6.971   7.488 -2.3655 -1.8226  2.1118
10466SOL    HW233841   2.761   7.015   7.508 -1.4595  2.6652 -0.1043
10467SOL     OW33842   2.373   7.921   1.999  0.3163  0.0629 -0.4477
10467SOL    HW133843   2.386   8.002   1.949 -0.4608  1.2287  1.1529
10467SOL    HW233844   2.413   7.853   1.945 -0.8706  1.1745 -2.8474
10468SOL     OW33845   8.318   7.163   7.633 -0.0700 -0.5711  0.0456
10468SOL    HW133846   8.254   7.118   7.578 -1.0220  0.4946  0.2446
10468SOL    HW233847   8.265   7.217   7.692  0.9545 -1.1070  1.5101
10469SOL     OW33848   1.484   0.654   4.288 -0.2170 -0.0143 -0.1392
10469SOL    HW133849   1.416   0.711   4.253 -1.3587 -0.6830  0.9248
10469SOL    HW233850   1.492   0.583   4.225  0.5379  0.8002 -0.9902
10470SOL     OW33851   7.055   7.224  10.072  0.4645 -0.3449 -0.5946
10470SOL    HW133852   7.061   7.245   9.979  0.8154  1.1408 -0.2654
10470SOL    HW233853   7.059   7.129  10.076  0.0368 -0.4457 -2.1247
10471SOL     OW33854   2.213   9.205   8.026 -0.1957  0.2083 -0.2913
10471SOL    HW133855   2.172   9.127   7.989 -1.5782 -0.0451  1.6411
10471SOL    HW233856   2.235   9.181   8.116 -2.4480  2.5868  1.0296
10472SOL     OW33857   2.148   2.478   3.018 -0.4783  0.0120 -0.4163
10472SOL    HW133858   2.230   2.440   3.049 -0.3818  1.9543  2.0360
10472SOL    HW233859   2.174   2.545   2.955  0.0746  1.6763  1.4537
10473SOL     OW33860   6.535   6.401   6.016  0.2518  0.0257 -0.0512
10473SOL    HW133861   6.586   6.480   6.037  2.1666 -1.0178 -0.4868
10473SOL    HW233862   6.577   6.366   5.937 -1.8758 -0.3221 -1.0937
10474SOL     OW33863   0.550   0.281   6.568  0.0056  0.0344 -0.3352
10474SOL    HW133864   0.639   0.316   6.560  0.3204 -0.3916  1.0525
10474SOL    HW233865   0.527   0.253   6.480  1.7964 -1.1120 -0.4852
10475SOL     OW33866  10.112   1.145   1.303 -0.0479  0.6416 -0.4199
10475SOL    HW133867  10.206   1.166   1.302 -0.0664  0.7250 -0.8367
10475SOL    HW233868  10.069   1.228   1.283 -0.1167  0.2445 -2.1397
10476SOL     OW33869   3.126   8.853   3.571  0.3710  0.4487  0.4978
10476SOL    HW133870   3.187   8.877   3.501 -1.3622  0.5005 -1.0654
10476SOL    HW233871   3.181   8.841   3.648  2.0559  3.2916 -0.1296
10477SOL     OW33872   2.328   3.846   3.165 -0.1950  0.0533  0.6367
10477SOL    HW133873   2.294   3.929   3.198 -1.1395  0.1958 -0.6081
10477SOL    HW233874   2.314   3.850   3.070  2.8890 -0.0882  0.0581
10478SOL     OW33875  10.377   6.131   2.109 -0.3544  0.0375  0.3683
10478SOL    HW133876  10.390   6.226   2.119  1.7173  0.0961 -1.8499
10478SOL    HW233877  10.457   6.093   2.144 -0.8749 -0.8774  0.5883
10479SOL     OW33878   2.839   9.886   0.186  0.1883  0.0830  0.3395
10479SOL    HW133879   2.773   9.954   0.202 -3.4094 -1.7585 -4.3257
10479SOL    HW233880   2.912   9.933   0.146 -0.4565  1.6323  0.9043
10480SOL     OW33881   8.773   5.629   3.491 -0.2664  0.2275  0.4971
10480SOL    HW133882   8.811   5.714   3.469 -0.9154  0.6687  1.0470
10480SOL    HW233883   8.844   5.566   3.475  0.4976  0.9591  0.9020
10481SOL     OW33884   9.296   3.589   8.370  0.2252 -0.4474 -0.2906
10481SOL    HW133885   9.299   3.508   8.319 -2.1530  0.5176 -2.1705
10481SOL    HW233886   9.315   3.658   8.306 -0.8481  0.6657  0.5536
10482SOL     OW33887   5.877   9.782   6.828 -0.0991  0.6046  0.2819
10482SOL    HW133888   5.971   9.792   6.843 -0.2787  2.1190  0.5313
10482SOL    HW233889   5.867   9.794   6.733 -0.0843  0.8069  0.3061
10483SOL     OW33890   7.582   2.422   2.744 -0.0295 -0.2643 -0.2643
10483SOL    HW133891   7.656   2.479   2.723 -0.1798  0.2451  0.5441
10483SOL    HW233892   7.508   2.461   2.697 -0.0364 -0.0596 -0.0839
10484SOL     OW33893   2.544   2.101   9.162  0.5390 -0.0603  0.1528
10484SOL    HW133894   2.559   2.192   9.186  1.2354 -0.0310 -0.3324
10484SOL    HW233895   2.519   2.058   9.243  0.7601  0.4526  0.4963
10485SOL     OW33896   4.410   5.248   0.198 -0.0512  0.0698  0.7514
10485SOL    HW133897   4.498   5.278   0.221 -0.0773  0.7615 -0.0203
10485SOL    HW233898   4.420   5.153   0.188  0.7004  0.1907  0.2703
10486SOL     OW33899   5.706   5.928   8.204  0.3614  0.1835  0.7686
10486SOL    HW133900   5.787   5.885   8.234 -1.4884 -2.2643  2.6991
10486SOL    HW233901   5.677   5.875   8.129 -0.1084  0.2393  0.9098
10487SOL     OW33902   9.337   0.491   4.479  0.1294  0.8619  0.0665
10487SOL    HW133903   9.372   0.488   4.568 -1.2774  1.9810  0.6913
10487SOL    HW233904   9.413   0.509   4.423  0.9578  0.5301  1.0644
10488SOL     OW33905   9.836   6.886   5.687 -0.0848 -0.7018  0.0827
10488SOL    HW133906   9.863   6.812   5.742  2.0994  0.4129  0.6158
10488SOL    HW233907   9.777   6.937   5.744  3.0968  1.1068  2.0847
10489SOL     OW33908   4.388   3.701   8.041  0.2919 -0.0810 -0.3488
10489SOL    HW133909   4.460   3.721   7.981  0.2442  0.1581 -0.3280
10489SOL    HW233910   4.426   3.641   8.105  0.7330  0.7558  0.1956
10490SOL     OW33911   8.751   5.496   3.876 -0.8752  0.1356  0.1807
10490SOL    HW133912   8.673   5.463   3.921 -0.5820 -1.4566 -0.3925
10490SOL    HW233913   8.770   5.429   3.810  1.1622  0.3201  0.5085
10491SOL     OW33914   7.428   7.354   9.842  0.3114 -0.0642 -0.0202
10491SOL    HW133915   7.493   7.289   9.815  0.2120  0.1593 -0.8278
10491SOL    HW233916   7.478   7.433   9.861  0.1585  0.7482 -2.6210
10492SOL     OW33917  10.182   6.093   4.592 -0.8478  0.2811 -0.4102
10492SOL    HW133918  10.134   6.011   4.591 -0.4182  0.0314 -0.7038
10492SOL    HW233919  10.146   6.141   4.667  0.4799 -1.1406  1.2071
10493SOL     OW33920   4.554   1.484   4.169 -0.3527 -0.5385  0.1963
10493SOL    HW133921   4.605   1.483   4.250  3.5331  0.2199 -1.9969
10493SOL    HW233922   4.536   1.391   4.152  1.5308 -0.9836  0.4120
10494SOL     OW33923   3.968   3.269   9.025  0.2481  0.0933 -0.2921
10494SOL    HW133924   3.988   3.209   9.097  0.4147  0.3585 -0.1155
10494SOL    HW233925   3.873   3.270   9.019  0.1584  1.3076  0.9797
10495SOL     OW33926   8.510   2.086   1.058  0.0377  0.5112  0.2018
10495SOL    HW133927   8.452   2.137   1.001  0.3116  0.3183 -0.2506
10495SOL    HW233928   8.590   2.074   1.007  0.2084  0.1590  0.5458
10496SOL     OW33929   0.880   0.063   4.078  0.2185  0.2449  0.0653
10496SOL    HW133930   0.852   0.044   3.988  2.2890 -0.7077 -0.4490
10496SOL    HW233931   0.910   0.154   4.074  2.6462 -0.5089 -0.9398
10497SOL     OW33932   3.957   9.440   6.862  0.1656  0.2619 -0.5265
10497SOL    HW133933   3.921   9.374   6.920  3.0690  0.2841  1.5078
10497SOL    HW233934   4.035   9.399   6.824 -0.0330  1.2841 -2.1630
10498SOL     OW33935   4.329   8.421   6.449  0.1678  0.4694 -0.0245
10498SOL    HW133936   4.405   8.371   6.478 -0.5498  0.2898  1.6509
10498SOL    HW233937   4.273   8.357   6.404  0.5300  0.3857 -0.3576
10499SOL     OW33938   9.835   4.288   7.144 -0.6931 -0.1406  0.1499
10499SOL    HW133939   9.761   4.241   7.184 -0.4349 -0.1244  0.6597
10499SOL    HW233940   9.912   4.242   7.177 -0.3414  1.6685  2.0938
10500SOL     OW33941   6.111   9.092   5.885  0.1218  0.2034 -0.3787
10500SOL    HW133942   6.149   9.040   5.815  0.3885  0.9882 -0.8373
10500SOL    HW233943   6.064   9.029   5.939  0.5296 -0.5204 -0.8458
10501SOL     OW33944   9.968   5.937   4.345  0.4096 -0.6132 -0.5063
10501SOL    HW133945  10.023   5.919   4.421 -0.2050 -0.7531 -0.0846
10501SOL    HW233946   9.983   5.864   4.286 -0.2491 -1.2933  0.1473
10502SOL     OW33947   9.149   3.375   2.701  0.1795 -0.3290 -0.7307
10502SOL    HW133948   9.126   3.367   2.794  0.6931  0.3787 -0.5394
10502SOL    HW233949   9.243   3.357   2.698  0.5153  1.2818 -0.8653
10503SOL     OW33950   9.004   6.600   1.762  0.1458 -0.1882  0.0322
10503SOL    HW133951   9.011   6.638   1.850  2.8625  1.9578 -0.9822
10503SOL    HW233952   9.070   6.530   1.761  0.9664  0.5776 -0.6167
10504SOL     OW33953   9.572   3.277   0.143  0.0390  0.3373  0.1879
10504SOL    HW133954   9.536   3.311   0.061  0.6310  0.1970 -0.1408
10504SOL    HW233955   9.542   3.338   0.210 -2.4244 -0.8279  0.2344
10505SOL     OW33956   9.766   5.157   1.263 -0.0707 -0.3250 -0.4431
10505SOL    HW133957   9.794   5.113   1.183  2.2462 -0.2428  0.2503
10505SOL    HW233958   9.793   5.098   1.333 -0.0949  0.6091  0.3709
10506SOL     OW33959   6.346   4.304   4.385 -0.0248  0.5596  0.2787
10506SOL    HW133960   6.440   4.322   4.386  0.0094  0.4691 -0.5208
10506SOL    HW233961   6.339   4.211   4.405  0.0482  0.6076  0.5239
10507SOL     OW33962  10.285   0.091   4.833  0.2462 -0.3458  0.3179
10507SOL    HW133963  10.332   0.009   4.813  0.1906  0.1944 -2.4832
10507SOL    HW233964  10.195   0.063   4.848  0.3966 -0.8787  0.2688
10508SOL     OW33965   3.652   4.067   8.631 -0.2251 -0.2625 -0.0466
10508SOL    HW133966   3.599   3.992   8.659 -1.2495  0.6114  0.4164
10508SOL    HW233967   3.624   4.084   8.541 -0.0338 -0.3982 -0.1321
10509SOL     OW33968   6.218   2.087   0.920  0.3901  0.1420 -0.1303
10509SOL    HW133969   6.283   2.156   0.932  1.0895 -0.4850 -0.2335
10509SOL    HW233970   6.186   2.098   0.830  0.5806  0.2598 -0.1823
10510SOL     OW33971   7.609   1.718   3.149 -0.0534 -0.8656 -0.0865
10510SOL    HW133972   7.684   1.723   3.090 -1.2393 -0.7448 -1.6542
10510SOL    HW233973   7.642   1.671   3.225  1.5202 -1.1188 -0.8735
10511SOL     OW33974   6.337   5.453   5.982 -0.1923 -0.7607  0.4272
10511SOL    HW133975   6.244   5.445   6.005 -0.1522  0.0871  0.9321
10511SOL    HW233976   6.357   5.373   5.934 -1.6888 -0.1040 -1.4538
10512SOL     OW33977   9.250   4.818   1.801 -0.2655  0.3182  0.4295
10512SOL    HW133978   9.261   4.781   1.713 -0.8106  1.5229 -0.1524
10512SOL    HW233979   9.159   4.801   1.824 -0.2686  0.4991  0.5518
10513SOL     OW33980   7.852   2.666   2.218 -0.6306  0.2052 -0.3348
10513SOL    HW133981   7.770   2.710   2.238 -0.9968 -0.3346 -0.6161
10513SOL    HW233982   7.876   2.697   2.131 -2.1589 -1.9390 -1.6097
10514SOL     OW33983   1.536   2.085   5.553  0.3789 -0.0368  0.1525
10514SOL    HW133984   1.481   2.006   5.559  1.6709 -0.9618  0.2502
10514SOL    HW233985   1.495   2.137   5.485 -0.3603 -0.9184 -0.1041
10515SOL     OW33986   7.360   0.529   7.969 -0.5155  0.1053 -0.3925
10515SOL    HW133987   7.441   0.564   8.005 -1.2568  0.0789  1.4010
10515SOL    HW233988   7.316   0.606   7.931  1.3407 -0.2264 -3.6353
10516SOL     OW33989   1.669   9.193   6.418 -0.2560 -0.2127 -0.0654
10516SOL    HW133990   1.624   9.273   6.390  0.0382 -0.1356 -0.3341
10516SOL    HW233991   1.706   9.157   6.337  3.0853  1.5496  0.5058
10517SOL     OW33992   0.917   4.368   7.468 -0.1892  0.3325 -0.0760
10517SOL    HW133993   0.964   4.407   7.541 -1.2922  0.4984  0.5679
10517SOL    HW233994   0.983   4.358   7.399  0.9836 -0.3032  1.1037
10518SOL     OW33995   1.997   3.648   1.098  0.1227 -0.0972 -0.2699
10518SOL    HW133996   2.075   3.703   1.101 -1.6500  2.5549  0.2245
10518SOL    HW233997   2.001   3.607   1.011  1.1443  1.4026 -0.9840
10519SOL     OW33998   9.183   9.531   8.225 -0.5740  0.3481 -0.0821
10519SOL    HW133999   9.173   9.625   8.208 -1.0030  0.1876 -0.7395
10519SOL    HW234000   9.189   9.491   8.138  1.6178 -0.0396  0.1980
10520SOL     OW34001   7.442   4.288   4.023 -0.0708  0.0980 -0.1063
10520SOL    HW134002   7.395   4.350   4.079  0.4664  1.6236 -1.2490
10520SOL    HW234003   7.533   4.319   4.025  0.2665 -0.8436 -0.4695
10521SOL     OW34004   5.551   6.149   2.457  0.2090 -0.8324 -0.6660
10521SOL    HW134005   5.635   6.162   2.413  0.4915  0.1512  0.1388
10521SOL    HW234006   5.574   6.132   2.548 -0.5156  1.8073  0.0914
10522SOL     OW34007   8.977   4.885   0.020 -0.0402  0.2316  0.1954
10522SOL    HW134008   8.936   4.936  -0.050  1.4345  0.4468 -0.5551
10522SOL    HW234009   8.909   4.823   0.048 -1.4518  1.7668  0.2792
10523SOL     OW34010   4.697   7.353   1.955 -1.0252  0.4161  0.4068
10523SOL    HW134011   4.667   7.443   1.959  0.0997  0.8248 -0.0251
10523SOL    HW234012   4.618   7.300   1.970 -2.0246  1.4202 -1.1566
10524SOL     OW34013   2.545   9.439   5.841  0.0621 -0.2870  0.2706
10524SOL    HW134014   2.481   9.484   5.896  0.1587 -0.6891  0.7129
10524SOL    HW234015   2.615   9.413   5.901  0.3689 -0.3640 -0.1123
10525SOL     OW34016   5.831   2.407   0.418  0.1617 -0.2684  0.1412
10525SOL    HW134017   5.923   2.392   0.397  0.5379  2.8699 -0.9709
10525SOL    HW234018   5.789   2.428   0.334 -0.7645  1.6343  1.0007
10526SOL     OW34019  10.393   0.980   5.841 -0.0936  0.1998 -0.2824
10526SOL    HW134020  10.299   0.996   5.851 -0.6781 -1.6145 -2.2308
10526SOL    HW234021  10.420   1.039   5.771  0.4388  1.2753  0.7893
10527SOL     OW34022   0.486   6.724   4.852 -0.5982  0.3567  0.0842
10527SOL    HW134023   0.410   6.736   4.795 -0.8374  1.0044  0.5228
10527SOL    HW234024   0.449   6.696   4.936 -0.3966  1.0014  0.4003
10528SOL     OW34025   5.322   0.314   0.131  0.5544 -0.0413  0.0561
10528SOL    HW134026   5.313   0.219   0.142  2.1462 -0.0976  1.2583
10528SOL    HW234027   5.236   0.348   0.153 -0.6119 -1.2767 -2.1729
10529SOL     OW34028   8.503   0.735   6.051 -0.0855  0.0306 -0.1057
10529SOL    HW134029   8.514   0.708   6.143 -0.5187  0.1006 -0.0345
10529SOL    HW234030   8.572   0.687   6.005  0.4490  0.3678  0.3284
10530SOL     OW34031   8.730   9.055   9.265  0.5988  0.1385 -0.1077
10530SOL    HW134032   8.680   9.033   9.344 -1.9080 -1.0946 -1.9135
10530SOL    HW234033   8.677   9.121   9.220  2.0028  0.8523 -0.8025
10531SOL     OW34034   1.340   5.516   5.007  0.4233 -0.5445  0.0550
10531SOL    HW134035   1.415   5.484   4.957  1.9554  3.1546 -0.2999
10531SOL    HW234036   1.365   5.502   5.098  0.7964 -0.8291 -0.0850
10532SOL     OW34037   5.928   3.051   3.808 -0.1961  0.6965  0.0037
10532SOL    HW134038   5.885   3.005   3.880  0.8799  0.4431  0.5023
10532SOL    HW234039   5.891   3.012   3.729 -1.5974  1.1731  0.3950
10533SOL     OW34040   7.524   1.626   1.131  0.6695  0.0034  0.4295
10533SOL    HW134041   7.551   1.688   1.063  1.4948 -0.7107  0.0906
10533SOL    HW234042   7.525   1.677   1.212 -1.1103  1.0902 -0.1532
10534SOL     OW34043   8.177   7.218   3.178 -0.2563  0.8871  0.0231
10534SOL    HW134044   8.231   7.170   3.242  2.0173  0.8525 -1.7964
10534SOL    HW234045   8.140   7.291   3.228 -3.1089 -2.0404  2.6895
10535SOL     OW34046   0.560   3.201   5.295  0.5349  0.1075 -0.2747
10535SOL    HW134047   0.537   3.155   5.375  0.7620 -0.7417 -0.6886
10535SOL    HW234048   0.601   3.282   5.325 -1.1510  0.7212  0.4619
10536SOL     OW34049   9.205   1.039   1.101  0.1854  0.2002 -0.3339
10536SOL    HW134050   9.252   0.971   1.052 -1.6918 -0.9967 -0.6088
10536SOL    HW234051   9.114   1.028   1.074 -0.7056  0.5378  2.2671
10537SOL     OW34052   0.099   7.373   8.289  0.4401 -0.3303  0.5717
10537SOL    HW134053   0.171   7.436   8.292  0.4464 -0.2890 -0.0989
10537SOL    HW234054   0.126   7.309   8.223  0.3334 -0.9196  1.0929
10538SOL     OW34055   7.516   1.613   6.991  0.3058  0.0408 -0.3041
10538SOL    HW134056   7.503   1.647   7.080  0.7281  1.4401 -0.7558
10538SOL    HW234057   7.465   1.670   6.935  1.2140  0.0895 -1.1141
10539SOL     OW34058   4.376   8.465   1.212  0.1909  0.1189  0.4003
10539SOL    HW134059   4.439   8.525   1.174  0.8354  0.0050  1.2571
10539SOL    HW234060   4.418   8.432   1.291  0.2102 -2.1070 -0.4655
10540SOL     OW34061   1.226   3.705   3.133  0.0112 -0.0294 -0.0355
10540SOL    HW134062   1.293   3.666   3.077  0.4049 -0.9302  1.0304
10540SOL    HW234063   1.268   3.714   3.219 -0.9081  0.3516  0.3907
10541SOL     OW34064   5.637   0.164   4.709  0.3163  0.2436 -0.4711
10541SOL    HW134065   5.718   0.144   4.754  1.0572  0.7778 -1.5320
10541SOL    HW234066   5.604   0.080   4.679  0.5229  0.0383 -0.1255
10542SOL     OW34067   9.186   2.234   5.960 -0.4689  0.4018 -0.3214
10542SOL    HW134068   9.214   2.314   6.005 -0.4944  0.7566 -0.9306
10542SOL    HW234069   9.240   2.165   5.998  1.4818  1.1144 -1.6831
10543SOL     OW34070   4.921   8.544   3.402 -0.1564 -0.0141 -0.3672
10543SOL    HW134071   4.873   8.625   3.421 -0.2436 -0.2541  0.4896
10543SOL    HW234072   4.854   8.484   3.369 -0.0342  0.3545 -1.3226
10544SOL     OW34073   3.781   7.603   3.404  0.2499  0.3982  0.4575
10544SOL    HW134074   3.851   7.542   3.428  0.3827  0.9711  1.5893
10544SOL    HW234075   3.703   7.548   3.397  0.7608 -0.2326 -0.7189
10545SOL     OW34076   9.876   3.123   3.416 -0.5604  0.2406  0.0309
10545SOL    HW134077   9.959   3.077   3.429 -0.1163  1.2005  0.8234
10545SOL    HW234078   9.901   3.204   3.371 -0.7169  1.4850  2.0233
10546SOL     OW34079   4.059   8.215   5.754  0.0968 -0.0020  0.2704
10546SOL    HW134080   3.995   8.156   5.794 -0.3354 -0.5981 -1.2536
10546SOL    HW234081   4.006   8.288   5.721  0.1659 -0.5256 -1.0478
10547SOL     OW34082   2.971   2.045   9.560  0.4121 -0.2934 -0.8184
10547SOL    HW134083   2.942   2.001   9.481 -0.0427 -0.6657 -0.4477
10547SOL    HW234084   2.893   2.049   9.616  0.2742  1.5038 -1.0668
10548SOL     OW34085   7.949   9.435   9.916 -0.1084  0.0333  0.1934
10548SOL    HW134086   7.951   9.471   9.827 -0.9798  0.5940  0.3953
10548SOL    HW234087   7.857   9.418   9.933  0.1648 -1.1907  0.5612
10549SOL     OW34088   8.938   2.417   6.529 -0.5462  0.2213 -0.2921
10549SOL    HW134089   8.969   2.383   6.613  0.0400  1.4456  0.0129
10549SOL    HW234090   8.921   2.339   6.476 -0.1006 -0.5513  0.6704
10550SOL     OW34091   7.287   1.814   5.562  0.1067 -0.2161  0.1750
10550SOL    HW134092   7.315   1.888   5.616  0.5836 -0.8992  0.8969
10550SOL    HW234093   7.199   1.837   5.533  0.2341  0.6143  0.4275
10551SOL     OW34094   4.746   0.243   1.147  0.6842 -0.4899 -0.8121
10551SOL    HW134095   4.660   0.217   1.180  0.4265  0.1614 -0.9475
10551SOL    HW234096   4.788   0.161   1.123 -0.3857 -0.7533 -1.9268
10552SOL     OW34097   7.413   0.797   5.298 -0.2081  0.0578 -0.0451
10552SOL    HW134098   7.467   0.875   5.312  1.5036 -1.4825  2.8193
10552SOL    HW234099   7.469   0.737   5.249 -0.5074 -0.4060  0.1708
10553SOL     OW34100   9.706   1.988   7.897 -0.5363  0.0123  0.1804
10553SOL    HW134101   9.675   2.002   7.808 -2.5541 -0.1832  0.8004
10553SOL    HW234102   9.703   2.074   7.939  0.4171  0.1070  0.0731
10554SOL     OW34103   0.809   2.010   6.829  0.3947 -0.2256  0.2519
10554SOL    HW134104   0.743   1.958   6.783  1.3657 -0.7351 -0.5786
10554SOL    HW234105   0.829   2.082   6.769  3.4175 -2.1859 -1.2905
10555SOL     OW34106   5.354   3.778   0.873  0.4380 -0.0932 -0.7084
10555SOL    HW134107   5.378   3.745   0.960 -1.2577  0.3676 -0.0076
10555SOL    HW234108   5.361   3.873   0.881  0.1898 -0.0468 -1.0377
10556SOL     OW34109   4.989   1.681   4.471  1.0708  0.2997 -0.1108
10556SOL    HW134110   5.080   1.656   4.486  0.8850 -1.1013 -1.0873
10556SOL    HW234111   4.944   1.598   4.451 -0.4387  0.9493  0.4376
10557SOL     OW34112   1.983   2.312  10.333  0.5692  0.2831 -0.5733
10557SOL    HW134113   1.928   2.375  10.287 -0.4404  0.0793  0.2995
10557SOL    HW234114   1.971   2.230  10.285  0.4792  0.3517 -0.6680
10558SOL     OW34115   7.069   2.573   7.597  0.1027 -0.0963 -0.4134
10558SOL    HW134116   6.976   2.599   7.601 -0.1049 -0.8552 -0.1727
10558SOL    HW234117   7.082   2.543   7.507 -0.0382 -0.5178 -0.2978
10559SOL     OW34118   7.353   8.131   8.338  0.1483  0.3443  0.3857
10559SOL    HW134119   7.370   8.211   8.387  0.2361  0.6816 -0.1824
10559SOL    HW234120   7.317   8.162   8.254  0.0550 -0.2152  0.2148
10560SOL     OW34121   6.525   1.206   4.767  0.1850 -0.0906  0.4106
10560SOL    HW134122   6.501   1.195   4.859 -0.2967  0.1168  0.3128
10560SOL    HW234123   6.477   1.137   4.722  1.1411 -0.7825  0.4212
10561SOL     OW34124   7.391   1.382   6.898  0.0612 -0.1844  0.0623
10561SOL    HW134125   7.475   1.419   6.923  0.5504 -0.9389 -0.4008
10561SOL    HW234126   7.399   1.289   6.921  0.2236 -0.7377 -2.0258
10562SOL     OW34127   6.474   6.855   7.540 -0.1253 -0.7015 -0.0898
10562SOL    HW134128   6.555   6.874   7.492 -0.1234  0.7990  0.4448
10562SOL    HW234129   6.415   6.927   7.517  0.3453  0.9168  3.1908
10563SOL     OW34130   0.493   6.591   1.240  0.1602 -0.0164  0.0463
10563SOL    HW134131   0.529   6.571   1.326 -0.5663 -0.6791  0.2111
10563SOL    HW234132   0.421   6.652   1.258 -0.7543 -1.0657  0.0469
10564SOL     OW34133   5.245   2.552   2.236 -0.4915  0.4677 -0.3834
10564SOL    HW134134   5.216   2.640   2.214 -0.8821  0.7314  1.0482
10564SOL    HW234135   5.171   2.496   2.211 -0.5220  0.6288 -0.6552
10565SOL     OW34136   0.227   4.369   6.837 -0.3075  0.5010 -0.4365
10565SOL    HW134137   0.293   4.390   6.771  0.7548  0.6979  0.6454
10565SOL    HW234138   0.209   4.453   6.880  2.5836 -0.2603  2.6766
10566SOL     OW34139   1.243   5.269   1.711 -0.3373  0.2883 -0.1872
10566SOL    HW134140   1.174   5.318   1.667 -0.7248 -0.0500  0.0340
10566SOL    HW234141   1.320   5.326   1.706 -0.8534  1.0638  0.3260
10567SOL     OW34142   2.337   8.728   6.933  0.3249  0.4892  0.4001
10567SOL    HW134143   2.263   8.779   6.899  0.8712  0.2483 -1.2336
10567SOL    HW234144   2.335   8.646   6.883 -0.5022 -1.1511  2.9329
10568SOL     OW34145   3.055   3.841   7.068 -0.1028  0.4834  0.1135
10568SOL    HW134146   2.966   3.825   7.038 -0.6474  3.1151  0.1722
10568SOL    HW234147   3.080   3.924   7.028  1.5005  0.9143  1.8711
10569SOL     OW34148   9.003   2.631   3.512  0.0128 -0.1486  0.1847
10569SOL    HW134149   9.004   2.621   3.417 -1.1795  0.6493  0.0628
10569SOL    HW234150   8.977   2.723   3.525 -0.9364 -0.5623  1.2811
10570SOL     OW34151   1.486   3.485   1.256 -0.3220  0.3538 -0.0225
10570SOL    HW134152   1.513   3.566   1.299 -0.5594 -1.0481  2.9585
10570SOL    HW234153   1.481   3.509   1.163  3.2582  2.7732  0.2038
10571SOL     OW34154   5.110   2.608   5.780  0.7240 -0.1611  0.0235
10571SOL    HW134155   5.151   2.604   5.867 -1.4466  0.8730  1.1523
10571SOL    HW234156   5.034   2.664   5.792 -0.7495 -1.5798 -2.1001
10572SOL     OW34157   3.966   9.775   6.201  0.6394 -0.2579  0.1058
10572SOL    HW134158   3.996   9.688   6.227 -1.1470 -1.3738 -1.2949
10572SOL    HW234159   3.890   9.792   6.256 -1.4226 -1.4034 -2.1622
10573SOL     OW34160   8.939   3.427  10.032  0.3991  0.1049  0.0947
10573SOL    HW134161   8.946   3.500   9.972  0.4533  1.2158  1.4085
10573SOL    HW234162   8.924   3.467  10.118 -2.0405 -1.4851  0.5082
10574SOL     OW34163   9.575   4.327   8.590 -0.0707 -0.3651  0.5045
10574SOL    HW134164   9.606   4.348   8.678  3.5760 -0.6636 -0.5768
10574SOL    HW234165   9.643   4.359   8.532 -2.8332  0.7864 -2.3896
10575SOL     OW34166   5.946   2.407   5.940  0.1236  0.1406 -0.5769
10575SOL    HW134167   5.860   2.399   5.899 -0.1704  0.8171 -0.1230
10575SOL    HW234168   5.989   2.323   5.924  0.2368  0.5575 -2.7302
10576SOL     OW34169   5.323   9.142   7.387 -0.0485 -0.0062 -0.2979
10576SOL    HW134170   5.311   9.202   7.461 -0.4360 -0.7173  0.2305
10576SOL    HW234171   5.344   9.058   7.428  0.2490 -0.2932 -1.0204
10577SOL     OW34172   4.159   6.002   6.057 -0.5553 -0.0677  0.4067
10577SOL    HW134173   4.170   5.924   6.112  1.4456 -1.0505 -1.2490
10577SOL    HW234174   4.136   5.967   5.971  2.5027  0.9029 -0.9482
10578SOL     OW34175   1.877   2.539   2.269 -0.2085 -0.0824  0.4913
10578SOL    HW134176   1.962   2.499   2.287  0.3218  0.4878 -0.6111
10578SOL    HW234177   1.815   2.466   2.268  0.4779 -0.6707  0.1027
10579SOL     OW34178   9.601   6.658   5.093  0.3384  0.0938 -0.3154
10579SOL    HW134179   9.678   6.640   5.148 -0.0304  1.7323  0.8066
10579SOL    HW234180   9.529   6.615   5.137  0.2468  0.3821 -0.1838
10580SOL     OW34181   1.596   1.788   7.203 -0.2345 -0.5650 -0.0903
10580SOL    HW134182   1.691   1.776   7.192 -0.0674 -1.2388  1.7048
10580SOL    HW234183   1.579   1.759   7.292 -2.0217  0.3347 -0.1015
10581SOL     OW34184   7.377   7.519   5.964 -0.0479  0.3308 -0.2206
10581SOL    HW134185   7.396   7.449   5.902 -0.8834  0.2631 -0.4176
10581SOL    HW234186   7.281   7.526   5.963  0.0374  1.7185 -0.4767
10582SOL     OW34187   5.242   0.520   1.875 -0.3509  0.2475 -0.1977
10582SOL    HW134188   5.268   0.598   1.924  1.4127 -0.1996 -0.3467
10582SOL    HW234189   5.266   0.447   1.931 -1.2354 -0.2189 -0.4053
10583SOL     OW34190   5.344   5.875   5.475  0.4693 -0.2456 -0.2188
10583SOL    HW134191   5.377   5.882   5.564 -2.1210  3.5010  0.6750
10583SOL    HW234192   5.407   5.922   5.421  1.1111 -0.9549 -0.1036
10584SOL     OW34193   6.766   8.434   1.294  0.0529  0.0327 -0.8437
10584SOL    HW134194   6.794   8.500   1.358 -1.3928 -0.8086  0.7189
10584SOL    HW234195   6.691   8.474   1.250  0.0276 -0.0410 -0.8666
10585SOL     OW34196   6.423  10.221   1.959  0.1615  0.1016 -0.2352
10585SOL    HW134197   6.473  10.150   1.919  1.6428  0.8849  0.1508
10585SOL    HW234198   6.423  10.291   1.895 -1.1091 -0.1309 -0.5260
10586SOL     OW34199  10.042   8.652   1.590 -1.0744  0.0221 -0.4206
10586SOL    HW134200  10.110   8.595   1.626 -0.4049  0.9515 -0.1417
10586SOL    HW234201   9.976   8.593   1.555 -0.7788 -0.9082  0.5484
10587SOL     OW34202   6.066   9.144   8.780  1.0996 -0.3536 -0.3492
10587SOL    HW134203   5.993   9.129   8.840  1.2941  0.5911  0.1526
10587SOL    HW234204   6.084   9.059   8.740  0.0466 -0.6905 -0.1108
10588SOL     OW34205   7.501   3.542   0.972  0.1871 -0.0248  0.5824
10588SOL    HW134206   7.546   3.599   0.909  0.0610  1.4155  1.7234
10588SOL    HW234207   7.419   3.588   0.990  0.6323  0.1087  2.4745
10589SOL     OW34208   0.919   2.548   9.020 -0.3996  0.2845  0.3075
10589SOL    HW134209   0.986   2.484   8.996 -1.3084  0.2286 -2.3336
10589SOL    HW234210   0.859   2.498   9.077 -0.4086 -0.8821 -0.6757
10590SOL     OW34211   0.663   5.362   4.459  0.1300 -0.1596  0.0236
10590SOL    HW134212   0.692   5.452   4.468  1.0342 -0.3571 -0.7762
10590SOL    HW234213   0.595   5.365   4.391 -2.0546  0.3439  2.0810
10591SOL     OW34214   6.238   6.341   8.181  0.5946 -0.0695 -0.6457
10591SOL    HW134215   6.194   6.405   8.125 -3.1563 -0.2605  1.7429
10591SOL    HW234216   6.276   6.393   8.251 -0.0736 -0.2103 -0.1662
10592SOL     OW34217   6.239   1.630   6.162 -0.2361  0.4946  0.4467
10592SOL    HW134218   6.172   1.679   6.115 -1.2655  1.2585  2.5766
10592SOL    HW234219   6.301   1.603   6.095 -2.2250  0.4799 -1.5047
10593SOL     OW34220   8.443   5.841   7.093  0.3179  0.3977 -0.5232
10593SOL    HW134221   8.479   5.786   7.022  0.2953 -0.1066 -0.1514
10593SOL    HW234222   8.469   5.796   7.173  1.0183  1.3800 -0.1790
10594SOL     OW34223   0.731   0.683   7.919 -0.6513 -0.2087  0.5344
10594SOL    HW134224   0.738   0.606   7.975 -0.2563 -0.0940  0.6411
10594SOL    HW234225   0.807   0.737   7.941 -0.9678  0.2481  0.5122
10595SOL     OW34226   3.264   4.811   0.106  0.5568  0.4974 -0.1097
10595SOL    HW134227   3.342   4.860   0.081  0.7601  0.2960  0.1175
10595SOL    HW234228   3.296   4.746   0.169  0.5522 -0.8764 -1.4520
10596SOL     OW34229   2.483   0.483   0.816  0.8071  0.1753  0.7490
10596SOL    HW134230   2.469   0.444   0.903 -0.5574  1.9247  1.3816
10596SOL    HW234231   2.548   0.553   0.832  1.7318 -0.5003  0.0286
10597SOL     OW34232   7.750   4.361   7.930  0.4209 -0.0416  0.0829
10597SOL    HW134233   7.732   4.404   7.846 -1.4075 -2.4504 -0.8812
10597SOL    HW234234   7.843   4.373   7.944  0.7889  0.4019 -2.3376
10598SOL     OW34235   2.728   9.758   6.225 -0.0563 -0.5978  0.5901
10598SOL    HW134236   2.698   9.816   6.295 -2.0166 -1.8106  0.8083
10598SOL    HW234237   2.815   9.729   6.254  0.6566  1.5528  0.8421
10599SOL     OW34238   3.439   3.480   7.383  0.7787 -0.0490  0.0911
10599SOL    HW134239   3.382   3.465   7.458 -0.4769 -0.0341 -0.8280
10599SOL    HW234240   3.422   3.406   7.325  0.4573  0.8099 -0.9337
10600SOL     OW34241   3.695   1.524   7.203  0.6715 -0.2336 -0.2059
10600SOL    HW134242   3.642   1.583   7.257 -1.1601 -0.6181 -1.5142
10600SOL    HW234243   3.728   1.579   7.132 -0.9510 -0.6715 -1.3669
10601SOL     OW34244   8.493   6.812   5.858 -0.0303  0.0961 -0.5902
10601SOL    HW134245   8.587   6.832   5.860  0.0101 -0.1001 -0.5064
10601SOL    HW234246   8.462   6.833   5.946 -0.3497  1.5098 -1.0137
10602SOL     OW34247   4.247   2.252   5.662  0.0050 -0.2501 -0.7771
10602SOL    HW134248   4.214   2.281   5.576 -0.4141 -0.5660 -0.7226
10602SOL    HW234249   4.248   2.332   5.715 -0.5932 -0.2173 -0.8073
10603SOL     OW34250   3.207   3.267   4.731  0.4538  0.8367 -0.0275
10603SOL    HW134251   3.207   3.244   4.824  0.9295 -0.7987 -0.3933
10603SOL    HW234252   3.116   3.257   4.703  0.4600  0.4536  0.0809
10604SOL     OW34253   5.878   5.716   7.833  0.2295  0.1062  0.4914
10604SOL    HW134254   5.857   5.714   7.740 -0.0485 -0.5383  0.5593
10604SOL    HW234255   5.930   5.795   7.845 -1.6311  1.4146  0.2003
10605SOL     OW34256   5.593   3.083   2.056 -0.3111 -0.3699  0.2650
10605SOL    HW134257   5.585   3.113   1.965 -0.9832 -1.7810 -0.1670
10605SOL    HW234258   5.637   3.155   2.101  2.1329 -0.5417 -1.6554
10606SOL     OW34259   0.918   8.770   9.769 -0.0689 -0.2985 -0.1328
10606SOL    HW134260   0.867   8.817   9.703 -0.6369 -0.5037  0.1609
10606SOL    HW234261   0.858   8.706   9.807 -0.0095  0.3733  1.1682
10607SOL     OW34262   0.094   2.705   8.683  0.3126  0.0423 -0.6782
10607SOL    HW134263   0.021   2.703   8.744 -0.0868 -1.1533 -1.1657
10607SOL    HW234264   0.119   2.798   8.678 -0.5850  0.3447  0.1612
10608SOL     OW34265   2.693   1.613   8.311 -0.2553 -0.4550 -0.5696
10608SOL    HW134266   2.700   1.522   8.283 -0.1434 -0.3803 -0.7897
10608SOL    HW234267   2.641   1.656   8.243 -2.3939 -0.8536  0.7229
10609SOL     OW34268   6.464   3.373   1.512 -0.2627  0.0664 -0.2837
10609SOL    HW134269   6.556   3.369   1.536 -0.0763  1.6417 -0.6690
10609SOL    HW234270   6.464   3.376   1.416 -0.8056 -1.4905 -0.3626
10610SOL     OW34271   8.186   5.649   0.016  0.7142  0.0109  0.0707
10610SOL    HW134272   8.134   5.600  -0.048  1.1038  0.8109 -0.8938
10610SOL    HW234273   8.135   5.646   0.096  0.0683 -0.7756 -0.3583
10611SOL     OW34274   2.966   2.447   3.421  0.1540 -0.1340 -0.2659
10611SOL    HW134275   2.993   2.369   3.374 -0.6031 -0.0714 -0.8332
10611SOL    HW234276   2.892   2.419   3.474 -0.8623  0.4172 -1.3343
10612SOL     OW34277   7.583   4.260   1.662  0.1389 -0.4179  0.1392
10612SOL    HW134278   7.672   4.296   1.664  0.7117 -1.8120  0.3730
10612SOL    HW234279   7.527   4.338   1.655  1.3950  0.4329 -1.0328
10613SOL     OW34280   0.976  10.457   3.456 -0.0780 -0.0325  0.3619
10613SOL    HW134281   0.910  10.492   3.514  0.3168  0.8102  0.3210
10613SOL    HW234282   0.928  10.432   3.377 -0.5050 -0.5050  0.7658
10614SOL     OW34283   8.378   3.692   8.978 -0.2263  0.1568  0.1277
10614SOL    HW134284   8.351   3.760   8.916  0.5724 -0.2697 -0.7122
10614SOL    HW234285   8.429   3.739   9.044  1.1072  0.2787 -0.9473
10615SOL     OW34286   1.623   7.163   7.146  0.7830 -0.2044 -0.1672
10615SOL    HW134287   1.701   7.110   7.160 -0.1260 -1.2284  1.2972
10615SOL    HW234288   1.551   7.101   7.149 -0.1702  0.8358 -0.6630
10616SOL     OW34289   2.515   3.921   9.541 -0.6969 -0.1475  0.4723
10616SOL    HW134290   2.426   3.888   9.557 -2.0575  2.2603 -1.3355
10616SOL    HW234291   2.513   4.011   9.574  0.1694  0.8288 -1.8940
10617SOL     OW34292   0.792   6.425   6.381 -0.4452  0.1597 -0.1608
10617SOL    HW134293   0.783   6.431   6.286 -1.2901  0.2653 -0.0881
10617SOL    HW234294   0.759   6.509   6.413  0.5850  0.4426  0.1934
10618SOL     OW34295   1.704   5.222   1.409 -0.0680  0.0812 -0.1242
10618SOL    HW134296   1.789   5.263   1.395 -0.2564  1.0425  1.2975
10618SOL    HW234297   1.721   5.152   1.472  0.1763 -1.8254 -2.2233
10619SOL     OW34298   7.400   8.490   4.880  0.1957 -0.7176 -0.0043
10619SOL    HW134299   7.319   8.507   4.832  0.3014  2.0014  0.6030
10619SOL    HW234300   7.381   8.414   4.935 -2.4895  0.7290  1.2241
10620SOL     OW34301   0.545   8.276   6.324 -0.2265 -0.4041 -0.2415
10620SOL    HW134302   0.603   8.205   6.354  1.1411 -0.5721 -3.0145
10620SOL    HW234303   0.543   8.337   6.398  0.9225 -1.9140  1.1301
10621SOL     OW34304   7.417   5.907   7.616 -0.0220 -0.2948  0.6340
10621SOL    HW134305   7.487   5.846   7.593 -0.7566 -1.2161  0.7249
10621SOL    HW234306   7.371   5.863   7.689 -0.0519  0.7768  1.2746
10622SOL     OW34307   9.711   6.847   4.882 -0.1926 -0.3054 -0.6335
10622SOL    HW134308   9.660   6.924   4.855  1.9872  1.0585 -1.1110
10622SOL    HW234309   9.668   6.817   4.961 -1.1970  1.3547 -0.4910
10623SOL     OW34310   3.817   3.279  10.482 -0.2624  0.0075 -0.8105
10623SOL    HW134311   3.828   3.249  10.572 -2.2899 -0.3522 -0.6345
10623SOL    HW234312   3.761   3.356  10.489 -0.3649  0.0371 -1.7665
10624SOL     OW34313   3.939   7.255   3.627 -0.1023 -0.3245 -0.2395
10624SOL    HW134314   3.921   7.171   3.584  0.9255  0.1947 -1.7734
10624SOL    HW234315   3.988   7.305   3.562 -0.8228  1.5390  0.5856
10625SOL     OW34316   7.640   1.063   4.254  0.4869 -0.1732 -0.2215
10625SOL    HW134317   7.632   1.000   4.181 -3.4191  0.2512 -0.3675
10625SOL    HW234318   7.592   1.140   4.224  1.0116  1.0131  1.8339
10626SOL     OW34319   9.043   5.286   2.959 -0.1965 -0.3032 -0.6380
10626SOL    HW134320   9.048   5.193   2.981 -0.7344 -0.4757 -1.2166
10626SOL    HW234321   8.951   5.299   2.935 -0.2206  0.4735 -0.1319
10627SOL     OW34322   5.200   3.644   6.815 -0.3068  0.1083 -0.2081
10627SOL    HW134323   5.111   3.641   6.780 -0.3084  1.0910 -0.3080
10627SOL    HW234324   5.197   3.588   6.893 -0.4959 -1.4630 -1.3016
10628SOL     OW34325   4.756   6.035   9.665 -0.7075  0.1620  0.3592
10628SOL    HW134326   4.802   6.118   9.666  0.1214 -0.2897  1.0074
10628SOL    HW234327   4.666   6.057   9.641  0.0861  0.9296 -2.2461
10629SOL     OW34328   8.941   5.189   2.676 -0.6648  0.2349 -0.1375
10629SOL    HW134329   8.976   5.274   2.648  0.7565 -0.4531 -0.5612
10629SOL    HW234330   8.959   5.186   2.770 -1.0683  0.5506 -0.0457
10630SOL     OW34331   3.915   9.390   8.440  0.0749 -0.1554  0.2170
10630SOL    HW134332   3.911   9.305   8.397  0.8857 -1.1040  1.9185
10630SOL    HW234333   4.007   9.416   8.433 -0.2567  0.8358 -0.7101
10631SOL     OW34334   3.747   8.101   2.205 -0.5358  0.2072 -0.4354
10631SOL    HW134335   3.836   8.117   2.173  0.4434 -2.5158  0.5879
10631SOL    HW234336   3.755   8.105   2.301 -1.9285  1.5308 -0.3251
10632SOL     OW34337   6.073   1.437   0.637 -0.6323  0.2509 -0.1450
10632SOL    HW134338   6.103   1.358   0.594 -0.5330  0.5290 -0.5902
10632SOL    HW234339   6.039   1.407   0.722  1.1907 -0.0329  0.5161
10633SOL     OW34340   0.207   5.976   0.815 -0.6020 -0.0050 -0.0208
10633SOL    HW134341   0.175   6.050   0.763 -0.5134  1.5205  1.9924
10633SOL    HW234342   0.242   6.016   0.894  1.4729 -2.0672  0.1790
10634SOL     OW34343   6.511   6.029   6.275  0.3370 -0.4649  0.5630
10634SOL    HW134344   6.464   6.112   6.271  0.3027 -0.5479 -1.6027
10634SOL    HW234345   6.600   6.054   6.302 -0.0355  0.0916  1.3052
10635SOL     OW34346   7.974   6.842   8.123  0.5893  0.5539 -0.2085
10635SOL    HW134347   7.923   6.901   8.067 -0.5462 -0.0633  0.1453
10635SOL    HW234348   7.940   6.858   8.211 -0.7703 -1.6406 -0.2804
10636SOL     OW34349   2.222   0.784   6.498  0.0741  0.0239 -0.1532
10636SOL    HW134350   2.229   0.857   6.559 -0.2080  0.3169 -0.4738
10636SOL    HW234351   2.194   0.823   6.416  1.9095 -0.1413 -0.9170
10637SOL     OW34352   5.497   2.723   3.057  0.0393  0.1487 -0.2353
10637SOL    HW134353   5.498   2.683   2.970  0.0179 -0.1247 -0.1109
10637SOL    HW234354   5.483   2.816   3.041  1.2046  0.2806 -0.5999
10638SOL     OW34355   9.234   5.395   9.373  0.2207  0.5166 -0.5149
10638SOL    HW134356   9.158   5.401   9.431  1.5323 -1.9927  1.6154
10638SOL    HW234357   9.299   5.454   9.412  0.6062 -0.0939 -0.2194
10639SOL     OW34358   1.093   2.690   0.636 -0.4358 -0.6414  0.1154
10639SOL    HW134359   1.162   2.646   0.685 -2.2160 -1.0784  2.3893
10639SOL    HW234360   1.085   2.638   0.555  3.2479  0.6933 -1.3262
10640SOL     OW34361   0.084   4.547  10.442 -0.4494  0.1051 -0.2139
10640SOL    HW134362   0.091   4.546  10.346  2.4817 -0.2065 -0.1008
10640SOL    HW234363   0.068   4.456  10.465 -0.8980  0.1350 -0.4054
10641SOL     OW34364   8.956   3.111   5.158  0.0045  0.0648  0.0877
10641SOL    HW134365   8.879   3.087   5.209 -0.2047  0.3195 -0.1026
10641SOL    HW234366   8.926   3.183   5.102 -0.1565 -1.1272 -1.4134
10642SOL     OW34367   6.094   4.054   7.126 -0.0135 -0.6753 -0.2616
10642SOL    HW134368   6.013   4.005   7.139 -0.4769 -0.5562 -2.2983
10642SOL    HW234369   6.111   4.047   7.032 -0.0145  2.8893 -0.6685
10643SOL     OW34370   2.961   7.984   3.712  0.8965  0.2478  0.9474
10643SOL    HW134371   2.947   8.026   3.627 -0.9628 -1.2433  0.4243
10643SOL    HW234372   2.956   8.055   3.776 -0.0357  1.1005 -0.0415
10644SOL     OW34373   5.238  10.344   5.162  0.9090  0.0938 -0.6233
10644SOL    HW134374   5.333  10.330   5.164  0.6236 -2.5506 -1.5367
10644SOL    HW234375   5.214  10.334   5.070 -0.4625 -1.1408 -0.1653
10645SOL     OW34376  10.211   1.261   0.601 -0.2763 -0.1330  0.4711
10645SOL    HW134377  10.163   1.244   0.520  1.0837 -0.3394 -0.3101
10645SOL    HW234378  10.224   1.174   0.639  1.3755 -0.3308 -0.4520
10646SOL     OW34379  10.024   7.378   1.677 -0.0383  0.8351 -0.2042
10646SOL    HW134380  10.067   7.332   1.605 -1.2199  0.3484 -0.6180
10646SOL    HW234381   9.941   7.332   1.689 -0.4390  1.7341  0.5938
10647SOL     OW34382   1.610   6.089   1.084 -0.0102 -0.4365 -0.3700
10647SOL    HW134383   1.551   6.019   1.059  2.1302 -3.5081  2.3026
10647SOL    HW234384   1.563   6.138   1.152 -0.9574 -0.2376 -1.1618
10648SOL     OW34385   0.082   9.655   6.107 -0.5231 -0.8913 -0.3262
10648SOL    HW134386   0.047   9.744   6.106 -0.1860 -0.7271  0.6873
10648SOL    HW234387   0.111   9.642   6.198  4.2502 -0.0942 -1.4614
10649SOL     OW34388   7.316   5.506   4.886 -0.1284 -0.5863  0.2693
10649SOL    HW134389   7.347   5.522   4.797  1.3662 -1.5988  0.5799
10649SOL    HW234390   7.386   5.458   4.929 -1.1190 -0.7754  1.7933
10650SOL     OW34391   9.360   1.183   7.537 -0.0160 -0.0313 -0.0349
10650SOL    HW134392   9.407   1.259   7.570 -0.7149  0.5687 -0.3719
10650SOL    HW234393   9.350   1.199   7.443 -0.2111 -0.5113 -0.1028
10651SOL     OW34394  10.302   0.797   0.154  0.2942 -0.2696  0.2917
10651SOL    HW134395  10.357   0.718   0.150 -1.0296 -1.3117  1.4765
10651SOL    HW234396  10.301   0.831   0.065  3.1969  0.0675  0.3028
10652SOL     OW34397   6.715  10.349   1.804 -0.0225  0.4166  0.3888
10652SOL    HW134398   6.758  10.428   1.838  0.1732 -0.4702  2.3674
10652SOL    HW234399   6.621  10.368   1.812  0.0077  0.8875 -0.2833
10653SOL     OW34400   4.681   6.417   9.688  0.3388  0.4376 -0.5650
10653SOL    HW134401   4.724   6.389   9.769 -2.7476  1.7499  1.7724
10653SOL    HW234402   4.656   6.508   9.705 -0.8374  0.6063 -2.8347
10654SOL     OW34403   2.814   8.903   0.929 -0.7814  0.0221  0.0659
10654SOL    HW134404   2.774   8.829   0.884  0.5700 -0.5344 -0.2745
10654SOL    HW234405   2.741   8.948   0.972 -1.8596 -0.4572 -1.2111
10655SOL     OW34406   8.765   7.428   3.615 -0.2585  0.1314  0.3349
10655SOL    HW134407   8.856   7.459   3.620 -0.4793  1.1200 -1.0800
10655SOL    HW234408   8.773   7.333   3.609  0.9458  0.2947 -2.8832
10656SOL     OW34409   3.164   6.338   3.708 -0.1121  0.0330 -0.1046
10656SOL    HW134410   3.220   6.268   3.742 -0.3561  0.1450  0.5597
10656SOL    HW234411   3.131   6.304   3.625 -1.3481 -1.2834  0.8495
10657SOL     OW34412   7.101   3.478   0.868  0.5128  0.3893  0.3841
10657SOL    HW134413   7.054   3.395   0.881 -1.5256  1.3892 -0.2345
10657SOL    HW234414   7.148   3.465   0.785  1.1114 -0.5173  0.8477
10658SOL     OW34415   8.414   6.743   3.638 -0.3558 -0.1937 -0.4623
10658SOL    HW134416   8.341   6.732   3.698 -0.8155 -0.3878 -1.0407
10658SOL    HW234417   8.445   6.654   3.621  0.2528 -0.0891  0.0572
10659SOL     OW34418   3.412   4.215   5.634 -0.6154 -0.2214 -0.4963
10659SOL    HW134419   3.504   4.190   5.635 -0.5676 -0.1224 -1.3751
10659SOL    HW234420   3.410   4.297   5.585 -1.2533 -0.6005 -1.1164
10660SOL     OW34421   3.039   5.955   0.407  0.3874  0.1804 -0.1243
10660SOL    HW134422   2.977   5.995   0.347 -0.5161  1.0759  1.3432
10660SOL    HW234423   3.124   5.990   0.380  0.2767 -0.9342 -2.0505
10661SOL     OW34424   4.018   2.015   7.969  0.3727 -0.0342  0.5249
10661SOL    HW134425   3.953   2.032   8.037  0.9958 -0.6347  1.2917
10661SOL    HW234426   4.037   2.101   7.931 -2.0565 -0.0344 -0.8652
10662SOL     OW34427   5.520   7.064   6.039 -0.0602  0.0180 -0.2966
10662SOL    HW134428   5.570   7.144   6.020  0.8079 -0.0684  1.3914
10662SOL    HW234429   5.512   7.063   6.135 -0.1374 -1.8653 -0.2802
10663SOL     OW34430   5.399   9.077   6.732 -0.4859 -0.3740  0.1083
10663SOL    HW134431   5.387   9.165   6.768 -0.1909 -0.6374  0.8645
10663SOL    HW234432   5.324   9.065   6.675 -0.1731  0.6353 -0.5544
10664SOL     OW34433   5.302   1.750   4.787 -0.2178 -0.0944  0.6906
10664SOL    HW134434   5.362   1.818   4.818 -0.4016 -0.4750  1.9454
10664SOL    HW234435   5.353   1.669   4.793 -0.5627 -0.2984  0.9318
10665SOL     OW34436   7.466  10.294   8.837  0.1096 -0.2729  0.7358
10665SOL    HW134437   7.395  10.264   8.780  1.2871 -1.5085 -0.1398
10665SOL    HW234438   7.426  10.298   8.924 -1.3173  0.1762  0.0993
10666SOL     OW34439   9.648   0.054   1.339 -0.2807  0.6296 -0.5446
10666SOL    HW134440   9.565   0.101   1.349 -0.9064 -0.7342  1.3415
10666SOL    HW234441   9.630  -0.013   1.274 -0.3385  1.0132 -0.9245
10667SOL     OW34442   4.988   1.935   3.024 -0.2369 -0.2221  0.1594
10667SOL    HW134443   5.040   1.897   2.952 -0.3919 -0.5184  0.2053
10667SOL    HW234444   4.949   1.860   3.068 -1.3518  0.0312 -0.3562
10668SOL     OW34445   6.835   7.880   2.123 -0.1211 -0.5918 -0.0852
10668SOL    HW134446   6.793   7.912   2.044 -0.1854  0.6801  0.4411
10668SOL    HW234447   6.777   7.811   2.156 -0.2977 -0.8457 -0.9144
10669SOL     OW34448   0.640   3.070   0.696  0.1861  0.7159  0.4032
10669SOL    HW134449   0.724   3.038   0.730 -0.0217  0.3436  0.5726
10669SOL    HW234450   0.619   3.010   0.624 -0.1316  0.5575  0.6234
10670SOL     OW34451   8.312   6.161   8.578 -0.5663 -0.4574 -0.3224
10670SOL    HW134452   8.313   6.212   8.497  1.8283 -1.5896 -1.0926
10670SOL    HW234453   8.351   6.219   8.644  0.4031 -0.6211 -0.7447
10671SOL     OW34454   1.855   3.993   7.186  0.1317 -0.2744 -0.0747
10671SOL    HW134455   1.897   3.941   7.118 -1.3166  0.1352 -1.3201
10671SOL    HW234456   1.854   3.936   7.263 -0.5597 -1.7239 -1.1301
10672SOL     OW34457   1.315   9.225   8.917 -0.4867  0.3755 -0.3207
10672SOL    HW134458   1.291   9.151   8.861  0.2665  0.1579 -0.3607
10672SOL    HW234459   1.285   9.200   9.004  0.3491 -0.2637 -0.2115
10673SOL     OW34460   9.652   5.558   7.199  0.6948  0.2839 -0.2165
10673SOL    HW134461   9.592   5.524   7.266  2.9620 -1.1943  1.1915
10673SOL    HW234462   9.595   5.604   7.138 -1.7817 -0.3912  1.4108
10674SOL     OW34463   0.539   9.401   6.126 -0.5670 -0.2350 -0.2978
10674SOL    HW134464   0.575   9.483   6.160 -0.4107 -0.1303 -0.7131
10674SOL    HW234465   0.553   9.406   6.032  0.1866 -1.0917 -0.2483
10675SOL     OW34466   1.211   2.353   4.369  0.0453  0.4295 -0.0772
10675SOL    HW134467   1.155   2.290   4.324  0.4327 -1.0549  1.4160
10675SOL    HW234468   1.154   2.429   4.384 -1.0122 -0.3179 -0.2235
10676SOL     OW34469   5.940   8.041   1.861  0.1167 -0.2833 -0.4952
10676SOL    HW134470   5.856   8.084   1.850 -0.2348 -1.1948 -1.6120
10676SOL    HW234471   5.993   8.073   1.788  0.4035 -0.4677 -0.3691
10677SOL     OW34472   4.881   7.432   8.192  0.3598 -0.5291  0.3137
10677SOL    HW134473   4.829   7.508   8.166  1.4373  0.6824  1.5369
10677SOL    HW234474   4.877   7.373   8.117 -1.1529  0.3701 -0.3593
10678SOL     OW34475   9.173   6.163  10.339  0.0257 -0.6312  0.7508
10678SOL    HW134476   9.153   6.077  10.376 -1.3111 -0.5055  0.3673
10678SOL    HW234477   9.211   6.212  10.412  2.5251 -2.0665  0.5327
10679SOL     OW34478   3.248   7.230   7.462 -0.4772  0.1701 -0.0860
10679SOL    HW134479   3.237   7.136   7.468 -0.7599  0.2982  2.5503
10679SOL    HW234480   3.162   7.262   7.435 -0.4207 -0.2955 -0.8393
10680SOL     OW34481   7.142   9.513   9.676  0.0171 -0.0374  0.0911
10680SOL    HW134482   7.076   9.557   9.623 -1.0257 -1.0515  0.5055
10680SOL    HW234483   7.215   9.498   9.616 -0.2982  0.7022 -0.4874
10681SOL     OW34484   9.656   9.151   5.871  0.1199  0.2187 -0.0189
10681SOL    HW134485   9.733   9.095   5.882 -0.9343 -1.1896  0.5378
10681SOL    HW234486   9.582   9.093   5.889 -1.2483  0.8044 -3.2333
10682SOL     OW34487   1.430   3.880   0.090 -0.0220  0.0112 -0.1630
10682SOL    HW134488   1.509   3.913   0.133 -1.1093  1.1664  1.0415
10682SOL    HW234489   1.387   3.958   0.054 -2.0002 -0.1501  1.6365
10683SOL     OW34490   3.557   0.964   0.470  0.0012 -0.4603 -0.1382
10683SOL    HW134491   3.502   1.002   0.402 -1.3370 -4.1167 -1.3260
10683SOL    HW234492   3.644   0.957   0.430  0.0324  0.3187 -0.2371
10684SOL     OW34493   1.263   1.902   3.144 -0.6057  0.0069  0.3267
10684SOL    HW134494   1.173   1.923   3.117 -1.6331 -1.7818  2.0517
10684SOL    HW234495   1.255   1.815   3.184  1.5987  0.5571  2.1087
10685SOL     OW34496   6.088   5.528   2.352  0.6512  0.4102 -0.0571
10685SOL    HW134497   6.145   5.510   2.426  1.7221  0.3462 -0.8580
10685SOL    HW234498   6.000   5.511   2.384  1.1384 -0.2063  1.0110
10686SOL     OW34499   9.141   9.162   4.545  0.2834 -0.0665  0.6507
10686SOL    HW134500   9.225   9.166   4.591  0.2372  1.6739  0.6614
10686SOL    HW234501   9.164   9.144   4.454  0.6666  0.3276  0.6676
10687SOL     OW34502   4.797   8.680   2.796 -0.7148 -0.1535  0.0213
10687SOL    HW134503   4.819   8.590   2.772 -4.1073 -0.7734 -1.2743
10687SOL    HW234504   4.852   8.734   2.739  2.8981 -1.1906  2.2223
10688SOL     OW34505   1.445  10.277   3.936  0.0156 -0.1039 -0.0757
10688SOL    HW134506   1.420  10.191   3.971 -0.6433 -0.0729 -0.4486
10688SOL    HW234507   1.393  10.339   3.988  0.9032  0.1150  0.5698
10689SOL     OW34508   3.267   1.115   1.037 -0.2732 -0.0549  0.2281
10689SOL    HW134509   3.283   1.210   1.037  2.3854 -0.4106  1.1095
10689SOL    HW234510   3.264   1.091   1.130 -0.7156 -0.8837  0.0113
10690SOL     OW34511   2.234   5.115   7.794 -0.4461 -0.5106  0.0006
10690SOL    HW134512   2.186   5.032   7.797  0.9875 -1.3547  1.4763
10690SOL    HW234513   2.325   5.089   7.779  0.0181  0.8046  0.4077
10691SOL     OW34514   5.557   6.055   8.947  0.5631  0.4990  0.2477
10691SOL    HW134515   5.481   6.019   8.992  0.1942 -0.2962 -0.9571
10691SOL    HW234516   5.614   6.087   9.017  0.7429 -2.1317  1.4187
10692SOL     OW34517   1.814   5.454   4.991 -0.1113 -0.3390 -0.1837
10692SOL    HW134518   1.826   5.538   4.948 -0.6732 -0.1428  0.0347
10692SOL    HW234519   1.720   5.450   5.010  0.2533  0.0136  1.9095
10693SOL     OW34520   4.297   6.366   2.608 -0.6809 -0.3908 -0.0516
10693SOL    HW134521   4.344   6.425   2.550 -1.1184  1.1610  1.1069
10693SOL    HW234522   4.273   6.291   2.552  0.6594  0.0975 -1.3292
10694SOL     OW34523   7.875   4.255   8.429  0.1588 -0.9110 -0.4422
10694SOL    HW134524   7.836   4.179   8.384  0.7730 -0.9393 -0.9361
10694SOL    HW234525   7.822   4.330   8.399 -0.0595 -1.0591 -0.4317
10695SOL     OW34526   7.227   1.657   9.510 -0.1879 -0.1609  0.4035
10695SOL    HW134527   7.230   1.630   9.418  1.7299 -0.0464  0.3848
10695SOL    HW234528   7.147   1.709   9.517 -0.8893 -0.9932 -0.9442
10696SOL     OW34529  10.183   1.806   2.105  0.0378 -0.0310 -0.3695
10696SOL    HW134530  10.257   1.746   2.114  0.6047  0.5029 -1.2431
10696SOL    HW234531  10.209   1.884   2.154  0.1705  0.2401 -0.8545
10697SOL     OW34532   5.413   3.204   1.421 -0.2947  0.1569  0.2073
10697SOL    HW134533   5.371   3.230   1.504 -0.0584 -1.3030  0.8321
10697SOL    HW234534   5.497   3.249   1.421 -0.7669  1.0559  0.2098
10698SOL     OW34535   5.995   2.421   0.184  0.6339  0.7244 -0.3648
10698SOL    HW134536   6.058   2.356   0.152 -0.2374 -0.1748 -0.2889
10698SOL    HW234537   5.963   2.465   0.105  2.2807  2.1024 -0.3270
10699SOL     OW34538   9.677   1.830   8.449  0.2656 -0.1728 -0.5482
10699SOL    HW134539   9.591   1.863   8.423  0.2092 -0.3516 -0.5909
10699SOL    HW234540   9.665   1.735   8.458  1.1064 -0.5869 -3.1720
10700SOL     OW34541   2.084   9.002   1.765 -0.2841 -0.5873  0.0730
10700SOL    HW134542   2.037   8.920   1.779  1.0412 -1.4468 -0.3497
10700SOL    HW234543   2.052   9.034   1.681 -0.1074 -1.1759 -0.2215
10701SOL     OW34544   4.083   0.055   9.554 -0.0934  0.4003 -0.2768
10701SOL    HW134545   4.018   0.121   9.529 -3.4273 -2.4607  0.0239
10701SOL    HW234546   4.072  -0.015   9.490  0.7479 -1.3506  1.3756
10702SOL     OW34547   1.315   4.370   2.563  0.0332  0.0726 -0.0192
10702SOL    HW134548   1.331   4.398   2.472 -0.2288 -0.4800 -0.2431
10702SOL    HW234549   1.323   4.275   2.560 -1.2607 -0.0537  0.2754
10703SOL     OW34550   3.895   2.771   1.054 -0.1102  0.4092  0.2881
10703SOL    HW134551   3.825   2.835   1.057  1.0259  1.8028 -1.0515
10703SOL    HW234552   3.953   2.802   0.984  4.5063  2.1923  4.2920
10704SOL     OW34553  10.296  10.111   6.086 -0.1998  0.0638  0.1689
10704SOL    HW134554  10.203  10.102   6.104 -0.3174 -0.0482 -0.4489
10704SOL    HW234555  10.339  10.101   6.171 -0.9112  3.0730  0.9850
10705SOL     OW34556   8.318   3.121   7.612  0.0671 -0.4848  0.5613
10705SOL    HW134557   8.363   3.169   7.682  0.6736  0.9817 -0.7528
10705SOL    HW234558   8.331   3.029   7.633  3.3154 -0.1570  0.5794
10706SOL     OW34559   1.297   1.249   8.965 -0.1457  0.6070 -0.2829
10706SOL    HW134560   1.316   1.157   8.945 -0.9536  0.0007  1.4779
10706SOL    HW234561   1.306   1.254   9.060 -2.1840  1.8245 -0.0910
10707SOL     OW34562   1.068   6.883   2.228 -0.0176 -0.3791  0.2842
10707SOL    HW134563   1.076   6.805   2.174  0.7694 -1.8089  2.3543
10707SOL    HW234564   1.158   6.907   2.249 -0.2991 -1.2532  2.7754
10708SOL     OW34565   1.374   0.298   5.615  0.5606 -0.3651  0.8226
10708SOL    HW134566   1.412   0.385   5.605  0.9270 -0.6431 -0.2964
10708SOL    HW234567   1.341   0.276   5.528  0.4526 -1.3293  1.1000
10709SOL     OW34568   8.081   2.606   7.784 -0.3087  0.3555  0.2565
10709SOL    HW134569   8.041   2.693   7.789  0.3860  0.7320 -0.5424
10709SOL    HW234570   8.017   2.553   7.738 -0.5038  0.5822  0.2628
10710SOL     OW34571   2.962   7.274   3.468  0.1233 -0.3769 -0.6898
10710SOL    HW134572   2.964   7.207   3.400 -0.2164  0.0841 -1.1608
10710SOL    HW234573   3.039   7.255   3.522 -1.2220 -2.5977  0.6167
10711SOL     OW34574   7.946   0.463   7.422 -0.4299  0.2118  0.3998
10711SOL    HW134575   7.945   0.545   7.473 -2.5574  0.9163 -0.6726
10711SOL    HW234576   7.856   0.429   7.429 -0.2227 -0.7589 -1.1691
10712SOL     OW34577   0.554   7.398   3.935  0.8457  0.2426 -0.2384
10712SOL    HW134578   0.537   7.354   3.852  0.9338  0.2060 -0.2369
10712SOL    HW234579   0.488   7.364   3.995  1.3409 -0.3908 -0.0522
10713SOL     OW34580   2.526   6.487   3.495 -0.7011  0.2265  0.4473
10713SOL    HW134581   2.538   6.538   3.575 -0.6467  0.5028  0.2649
10713SOL    HW234582   2.436   6.504   3.469 -0.3531  1.1533 -0.2373
10714SOL     OW34583  10.065   9.647   3.273 -0.2067  0.0589 -1.1881
10714SOL    HW134584  10.017   9.729   3.283 -1.4330 -0.7819  0.1337
10714SOL    HW234585  10.124   9.663   3.199  0.0424  2.3207 -0.5656
10715SOL     OW34586   8.894   8.782   8.151  0.0093  0.5260  0.1099
10715SOL    HW134587   8.876   8.854   8.212 -0.2032  2.2335 -1.8521
10715SOL    HW234588   8.808   8.741   8.136  0.1266 -0.1654  1.2089
10716SOL     OW34589   2.496   3.727   1.291  0.1799  0.3294 -0.0566
10716SOL    HW134590   2.555   3.791   1.331 -0.1165  0.6241 -0.0851
10716SOL    HW234591   2.547   3.647   1.286  0.3970  0.4339  0.4252
10717SOL     OW34592   0.506   3.652   5.989  0.3020 -0.3203 -0.3796
10717SOL    HW134593   0.536   3.561   5.993  1.5145  0.0491 -0.6048
10717SOL    HW234594   0.420   3.652   6.032  1.7990 -0.9370  2.8621
10718SOL     OW34595   1.831   5.833   5.796  0.1807  0.4323  0.0572
10718SOL    HW134596   1.894   5.904   5.810 -1.8086  2.5735 -1.2286
10718SOL    HW234597   1.759   5.873   5.747 -0.0647 -3.0103 -2.8123
10719SOL     OW34598   7.483   0.312   3.527  0.0674 -0.7544  0.2455
10719SOL    HW134599   7.455   0.388   3.579 -0.9535 -2.4752  2.3367
10719SOL    HW234600   7.577   0.327   3.513  0.2685  0.0633  2.1219
10720SOL     OW34601   0.621  10.413   4.595  0.5659 -0.6358 -0.1949
10720SOL    HW134602   0.547  10.405   4.655  1.0173  0.1711  0.4812
10720SOL    HW234603   0.614  10.501   4.558  1.9142 -0.0321  0.8855
10721SOL     OW34604   4.182   6.654   3.480 -0.1470  0.0215 -0.4567
10721SOL    HW134605   4.222   6.738   3.501 -1.6713  0.4267  1.0587
10721SOL    HW234606   4.088   6.670   3.486 -0.5046 -1.4246 -1.6976
10722SOL     OW34607   9.838   0.218   6.014  0.2335  0.3321  1.2029
10722SOL    HW134608   9.857   0.238   6.105  1.1278  0.8033  0.9178
10722SOL    HW234609   9.923   0.220   5.970 -0.4691  3.7859 -0.3478
10723SOL     OW34610   5.802   5.706   8.377 -0.0369 -0.0839 -0.3196
10723SOL    HW134611   5.714   5.675   8.356  0.3134  0.1982 -2.3643
10723SOL    HW234612   5.824   5.661   8.458 -1.5466 -1.1818 -0.4741
10724SOL     OW34613   8.735   6.850   9.381  0.1653  0.2301 -0.1588
10724SOL    HW134614   8.815   6.800   9.367  0.2096  0.0688  0.6275
10724SOL    HW234615   8.763   6.929   9.426 -0.1475  0.0111  0.4452
10725SOL     OW34616   9.002   9.968   2.661  0.2439  0.6364 -0.1537
10725SOL    HW134617   8.938   9.996   2.595 -0.2652  1.3855  0.6289
10725SOL    HW234618   9.080   9.945   2.610 -0.7642 -0.7334 -1.1755
10726SOL     OW34619   0.297   3.027  10.229 -0.2151  0.8016 -0.0274
10726SOL    HW134620   0.264   3.072  10.307 -0.2851  0.7588 -0.0327
10726SOL    HW234621   0.348   2.954  10.263  0.3760  1.2100 -0.0017
10727SOL     OW34622   4.130   5.723   6.120  0.8494 -0.1780  0.2524
10727SOL    HW134623   4.067   5.669   6.074  0.0742  0.5032  0.4884
10727SOL    HW234624   4.121   5.698   6.212  0.9751 -0.1382  0.2759
10728SOL     OW34625   1.741   0.538   8.453  0.6227 -0.2754  0.0811
10728SOL    HW134626   1.670   0.506   8.508  0.3085 -1.0665 -0.7700
10728SOL    HW234627   1.821   0.511   8.499  0.4407  1.2717  1.4388
10729SOL     OW34628   6.777   7.660   4.099  0.0761 -0.4466 -0.1569
10729SOL    HW134629   6.717   7.641   4.027 -1.6080 -1.0214  1.3157
10729SOL    HW234630   6.723   7.652   4.177  1.1179  2.8746  1.0762
10730SOL     OW34631   3.747   9.471   9.092  0.4357 -0.1291  0.4511
10730SOL    HW134632   3.826   9.488   9.144  1.3848  0.0902 -0.9890
10730SOL    HW234633   3.698   9.553   9.094  0.6121 -0.0298  0.7569
10731SOL     OW34634   4.369  10.439  10.068 -0.5807 -0.0241  0.0999
10731SOL    HW134635   4.296  10.411  10.013 -1.1320  2.2200 -0.3987
10731SOL    HW234636   4.390  10.527  10.038 -0.8249  1.2974  3.3716
10732SOL     OW34637   2.682   9.006   4.267 -0.6159  0.2649  0.0492
10732SOL    HW134638   2.678   8.920   4.225 -0.1476  0.2126  0.1011
10732SOL    HW234639   2.753   9.052   4.221 -0.7517  0.5652  0.1325
10733SOL     OW34640   2.414   4.539   3.271  0.1792  0.2379  0.2365
10733SOL    HW134641   2.373   4.467   3.224 -0.4276  0.4293  0.4595
10733SOL    HW234642   2.499   4.505   3.299  0.2015 -0.1405 -0.2924
10734SOL     OW34643   9.781   2.726   5.285 -0.1814 -0.4280 -0.6882
10734SOL    HW134644   9.726   2.803   5.269 -2.3667 -1.8340 -0.1850
10734SOL    HW234645   9.743   2.657   5.232  1.4012 -1.3475 -0.6815
10735SOL     OW34646   5.240   6.064   9.101  1.0602  0.6609 -0.3187
10735SOL    HW134647   5.221   6.142   9.152  1.1364  0.4303  0.0681
10735SOL    HW234648   5.206   6.083   9.014 -1.2653  0.1645  0.3893
10736SOL     OW34649   5.989   2.884   8.500  0.1534  0.3428 -0.4474
10736SOL    HW134650   5.925   2.944   8.538 -0.1709  0.6660 -1.4635
10736SOL    HW234651   5.989   2.905   8.406  0.8669 -0.4747 -0.6454
10737SOL     OW34652   2.236   6.994   3.685  0.1224 -0.0060  0.2290
10737SOL    HW134653   2.308   6.934   3.708  0.4084  0.1216 -0.3001
10737SOL    HW234654   2.197   7.018   3.769 -0.9436 -2.0863  0.3861
10738SOL     OW34655   1.690   5.014   8.673  0.9705 -0.2588 -0.3083
10738SOL    HW134656   1.721   4.963   8.598 -0.1909 -0.7681 -0.4617
10738SOL    HW234657   1.693   5.105   8.643 -0.9589 -0.5569 -1.5659
10739SOL     OW34658   0.136   1.434  10.125 -0.0498 -0.2594 -0.4277
10739SOL    HW134659   0.075   1.364  10.104 -0.0265  0.0248 -1.4852
10739SOL    HW234660   0.086   1.493  10.183 -1.0197  0.3072 -1.7935
10740SOL     OW34661   9.640   4.840   7.893  0.4187 -0.1826  0.5502
10740SOL    HW134662   9.696   4.883   7.829 -2.2397  0.9866 -1.1565
10740SOL    HW234663   9.668   4.748   7.893  1.7914  0.2076 -0.7744
10741SOL     OW34664   3.249   5.341   8.808  0.4250  0.0337 -0.1280
10741SOL    HW134665   3.262   5.400   8.734  1.1440 -0.5231 -0.4567
10741SOL    HW234666   3.212   5.261   8.770 -1.6531  0.6623  0.4679
10742SOL     OW34667   1.930   3.925   3.654  0.4517  0.6972 -0.1571
10742SOL    HW134668   1.886   4.009   3.666 -0.8932 -0.1612  1.1895
10742SOL    HW234669   2.003   3.945   3.595  0.0562  2.7571 -0.0256
10743SOL     OW34670   4.089   5.567   6.348  0.1252 -0.2026  0.4338
10743SOL    HW134671   4.155   5.500   6.331  1.5012  0.6037  2.2553
10743SOL    HW234672   4.014   5.518   6.381  0.6558 -0.9414  0.5773
10744SOL     OW34673   9.327   7.691   7.529 -0.0361  0.3085  0.2915
10744SOL    HW134674   9.385   7.616   7.539  1.1991  1.5173  3.7642
10744SOL    HW234675   9.241   7.659   7.558  0.2582 -0.0146  0.8155
10745SOL     OW34676   9.158   8.953   0.170 -0.0074 -0.3608  0.1205
10745SOL    HW134677   9.253   8.954   0.161  0.0664 -1.4805  0.7593
10745SOL    HW234678   9.132   9.044   0.150  1.1882 -0.0096  0.0806
10746SOL     OW34679   6.091   6.169   4.020  0.2720  0.4076 -0.0319
10746SOL    HW134680   6.070   6.137   4.107  1.1571 -2.1700 -0.6494
10746SOL    HW234681   6.187   6.166   4.016  0.3154  1.8518 -0.6382
10747SOL     OW34682   3.516   1.796   4.128 -0.4368  0.2545  0.3657
10747SOL    HW134683   3.565   1.744   4.192 -1.3685 -1.5880 -0.3542
10747SOL    HW234684   3.549   1.885   4.140  0.4479 -0.2830  2.3975
10748SOL     OW34685   5.400   1.435   9.361  0.0432 -0.1659  0.3247
10748SOL    HW134686   5.453   1.510   9.334  0.1408 -0.2638  0.2459
10748SOL    HW234687   5.429   1.416   9.450 -1.0648  0.8709  0.9307
10749SOL     OW34688   7.190   2.207   2.049  0.3009  0.1525 -0.0160
10749SOL    HW134689   7.164   2.203   1.957  1.0155  1.1780 -0.2794
10749SOL    HW234690   7.260   2.142   2.057  1.6325  1.4342 -0.7062
10750SOL     OW34691   6.189   3.560   0.345 -0.6499  0.2051  0.3851
10750SOL    HW134692   6.241   3.564   0.425 -0.1289  1.0459  0.0222
10750SOL    HW234693   6.200   3.646   0.305 -2.8162  0.6485  0.5985
10751SOL     OW34694   7.465   7.877   2.996 -0.2967 -0.1746 -0.2136
10751SOL    HW134695   7.411   7.811   2.953 -0.3922 -1.3057  1.5481
10751SOL    HW234696   7.428   7.886   3.084 -0.3129  2.3027 -0.3812
10752SOL     OW34697   9.644   7.952   8.235 -0.3974  0.3515  0.0301
10752SOL    HW134698   9.608   7.863   8.240 -0.4914  0.2727 -1.4809
10752SOL    HW234699   9.738   7.939   8.226 -0.4243  0.3905 -0.3277
10753SOL     OW34700   9.151   0.476   7.479  0.2193  0.0549  0.1795
10753SOL    HW134701   9.138   0.401   7.537  1.6947 -1.0973 -0.9039
10753SOL    HW234702   9.157   0.438   7.392  1.4712  1.3876 -0.3526
10754SOL     OW34703   9.828   7.714   6.571  0.4141  0.1524 -0.2176
10754SOL    HW134704   9.876   7.759   6.640  0.7758 -1.1406  0.3964
10754SOL    HW234705   9.894   7.696   6.503  0.3236  0.3221 -0.3516
10755SOL     OW34706   0.802   2.739   8.455 -0.0986 -0.1029 -0.3673
10755SOL    HW134707   0.879   2.758   8.401 -0.1454 -0.6950 -0.6422
10755SOL    HW234708   0.727   2.764   8.400 -0.1381 -0.5056 -0.4989
10756SOL     OW34709   4.107   4.894   0.366  0.2451 -0.3662  0.2487
10756SOL    HW134710   4.195   4.883   0.403  0.5905  0.4224 -0.3023
10756SOL    HW234711   4.092   4.814   0.317 -0.2906 -1.5176  2.1637
10757SOL     OW34712  10.317   5.175   5.090 -0.1111 -0.3369 -0.1002
10757SOL    HW134713  10.353   5.103   5.039  0.8177  0.5938 -0.7960
10757SOL    HW234714  10.345   5.254   5.044 -0.1305  0.5070  1.2715
10758SOL     OW34715   5.011   6.931   1.357 -0.3662  0.5180 -0.3683
10758SOL    HW134716   4.981   6.990   1.426  0.3872  2.0066 -1.2811
10758SOL    HW234717   5.024   6.847   1.402 -1.7564  0.9190  0.8889
10759SOL     OW34718   4.211   0.297   2.327  0.5715 -0.3262  0.1599
10759SOL    HW134719   4.191   0.225   2.387  0.7000  0.2874  0.9562
10759SOL    HW234720   4.253   0.364   2.382  0.5024  0.3389 -0.5722
10760SOL     OW34721   9.897   4.245   0.839 -0.3287 -0.2377  0.2075
10760SOL    HW134722   9.913   4.317   0.777 -0.9948 -0.5123 -0.2958
10760SOL    HW234723   9.966   4.182   0.820  0.1035  0.1520  0.4719
10761SOL     OW34724   9.091   4.518  10.304 -0.5655  0.1263  0.1155
10761SOL    HW134725   9.051   4.468  10.234  0.0546 -0.4716  0.1751
10761SOL    HW234726   9.019   4.540  10.363 -1.0132  0.2492 -0.4746
10762SOL     OW34727  10.094   7.092   1.040  0.3739  0.7261 -0.1030
10762SOL    HW134728  10.028   7.157   1.066  0.7114  1.2439 -0.5105
10762SOL    HW234729  10.095   7.029   1.112  0.3336  1.4042  0.5111
10763SOL     OW34730   8.241   3.686   9.711  0.2927 -0.3390  0.0827
10763SOL    HW134731   8.191   3.742   9.651  0.6148 -0.5264 -0.3704
10763SOL    HW234732   8.201   3.599   9.701  0.3015 -0.3549  0.1899
10764SOL     OW34733   5.759   1.652   0.843  0.0361 -0.3594  0.0106
10764SOL    HW134734   5.835   1.631   0.898  0.2037 -1.0200 -0.4617
10764SOL    HW234735   5.764   1.746   0.829  0.5627 -0.3441  0.2858
10765SOL     OW34736   2.340   2.942   6.465 -0.3150 -0.0283 -0.4284
10765SOL    HW134737   2.281   3.011   6.495 -0.6620 -0.6355  0.3277
10765SOL    HW234738   2.427   2.972   6.491 -0.5864 -0.4393  1.0542
10766SOL     OW34739   2.024   8.155   2.052 -0.7011 -0.6496  0.5707
10766SOL    HW134740   2.046   8.233   2.103 -0.3892 -0.9832  0.9607
10766SOL    HW234741   1.933   8.135   2.077 -0.2942 -1.2826  1.6493
10767SOL     OW34742   7.993   1.466   1.012 -0.4237 -0.1331 -0.2712
10767SOL    HW134743   7.908   1.448   1.052 -0.5999  4.4140  2.0931
10767SOL    HW234744   8.056   1.432   1.075 -0.5456 -0.1893 -0.1782
10768SOL     OW34745  10.275   9.858   5.852  0.1204 -0.5290 -0.3056
10768SOL    HW134746  10.297   9.881   5.942 -0.4681  0.5962 -0.4324
10768SOL    HW234747  10.224   9.777   5.860  0.0953 -0.4505  0.3742
10769SOL     OW34748   7.881   4.250   5.144  0.0350  0.2088  0.6346
10769SOL    HW134749   7.917   4.337   5.160 -0.0578  0.4514 -0.4239
10769SOL    HW234750   7.958   4.196   5.122 -0.1515  0.6284 -1.2045
10770SOL     OW34751   5.465   9.938   3.705 -0.2632 -0.6637  0.0998
10770SOL    HW134752   5.455   9.960   3.613  1.4477 -1.3559 -0.2844
10770SOL    HW234753   5.508  10.014   3.744 -0.5805 -0.5533  0.2371
10771SOL     OW34754  10.308   5.819   7.196 -0.5838  0.4222  0.3275
10771SOL    HW134755  10.369   5.893   7.195  0.1107 -0.1465  0.0979
10771SOL    HW234756  10.256   5.831   7.276  0.7090  0.1999  1.2200
10772SOL     OW34757   0.677   9.389   1.378 -0.6056 -0.1490  0.3850
10772SOL    HW134758   0.765   9.413   1.351 -1.0754  0.2115 -0.9057
10772SOL    HW234759   0.660   9.444   1.454 -0.0812  0.5091  0.0397
10773SOL     OW34760   4.749   6.024   6.639 -0.1044 -0.0964 -0.0013
10773SOL    HW134761   4.693   5.953   6.670  0.6617 -0.3439  0.8608
10773SOL    HW234762   4.825   6.021   6.697  0.9341  0.0466 -1.3369
10774SOL     OW34763   4.230   6.628   1.861 -0.7152 -0.5896 -0.0728
10774SOL    HW134764   4.263   6.538   1.866 -1.5326 -0.8464  0.9535
10774SOL    HW234765   4.235   6.660   1.951  1.9534  1.3098 -0.7556
10775SOL     OW34766   1.788   3.161   7.084 -0.4067  0.7099  0.2860
10775SOL    HW134767   1.857   3.226   7.093 -0.5835  1.0823 -0.8158
10775SOL    HW234768   1.753   3.149   7.172  2.2117 -0.8006  1.2469
10776SOL     OW34769   9.289   2.888   6.267  0.8187 -0.1508 -0.1627
10776SOL    HW134770   9.214   2.878   6.327  0.3142  1.6387 -0.4411
10776SOL    HW234771   9.272   2.825   6.197 -0.9197  0.8079 -0.6671
10777SOL     OW34772   6.925   5.935   1.556 -0.0757 -0.4328  0.4777
10777SOL    HW134773   6.969   5.875   1.495 -0.7969  0.1453 -0.6388
10777SOL    HW234774   6.997   5.980   1.601  0.4761 -0.4023 -0.4209
10778SOL     OW34775   2.334   5.953   7.259 -0.0948  0.3628 -0.2260
10778SOL    HW134776   2.369   6.043   7.256  0.6296  0.0812 -0.4185
10778SOL    HW234777   2.408   5.900   7.287  0.1444 -0.4897 -2.2624
10779SOL     OW34778   8.786   2.683   2.624  0.1815  0.5935 -0.0757
10779SOL    HW134779   8.824   2.750   2.682 -0.6116 -1.3157  2.8720
10779SOL    HW234780   8.759   2.732   2.546 -0.7830  3.8543  2.0602
10780SOL     OW34781   5.578   1.367   9.100 -0.6916 -0.1249 -0.1262
10780SOL    HW134782   5.617   1.334   9.019 -0.7166 -1.8901  0.5308
10780SOL    HW234783   5.635   1.438   9.127 -0.9541  0.8284 -1.9336
10781SOL     OW34784   4.954   7.488   9.113 -0.6596 -0.2740 -0.1549
10781SOL    HW134785   5.003   7.409   9.092 -0.2566 -0.6552  1.9945
10781SOL    HW234786   4.872   7.479   9.065 -0.3014 -1.6243 -0.5523
10782SOL     OW34787   4.990   0.851   6.520  0.1176 -0.5250  0.1181
10782SOL    HW134788   5.058   0.836   6.454 -0.1499  0.4095 -0.3856
10782SOL    HW234789   4.940   0.770   6.521 -0.6866 -0.1012 -1.8141
10783SOL     OW34790   6.550   5.124   4.645 -0.0422 -0.2426 -1.0119
10783SOL    HW134791   6.544   5.127   4.549  1.9021  1.6370 -1.1333
10783SOL    HW234792   6.516   5.208   4.674 -3.4625 -1.8868  0.2643
10784SOL     OW34793   8.447   8.461   6.239  0.2101  0.2026  0.0411
10784SOL    HW134794   8.418   8.430   6.153  0.8995 -0.1837 -0.0646
10784SOL    HW234795   8.394   8.539   6.256 -0.4685 -0.1542 -0.3918
10785SOL     OW34796   1.211   5.806   1.788  0.1608 -0.7124 -0.3216
10785SOL    HW134797   1.204   5.718   1.751 -1.4531 -0.4598 -0.6851
10785SOL    HW234798   1.126   5.822   1.829 -0.3383  1.4009 -1.9804
10786SOL     OW34799  10.116   8.106   5.226  0.3740  0.2151  0.4552
10786SOL    HW134800  10.083   8.038   5.167  2.4864 -0.0094 -0.5439
10786SOL    HW234801  10.148   8.057   5.302  0.9737  0.1576  0.1734
10787SOL     OW34802   8.155   1.469  10.302  0.4787  0.8456  0.5879
10787SOL    HW134803   8.206   1.478  10.222 -0.5808 -0.0566 -0.2320
10787SOL    HW234804   8.219   1.470  10.373  1.7831 -1.3088 -0.4415
10788SOL     OW34805   2.335   5.957   9.207 -1.0135  0.7816 -0.0012
10788SOL    HW134806   2.375   5.917   9.284  0.1096 -0.6892 -1.2663
10788SOL    HW234807   2.408   5.999   9.161 -0.8884 -1.4965 -2.0838
10789SOL     OW34808   7.052   0.052   6.846 -0.4349 -0.0807 -0.6146
10789SOL    HW134809   7.010   0.064   6.932  0.8515 -0.5124  0.1062
10789SOL    HW234810   7.100   0.134   6.831  1.0838 -0.7865  0.1209
10790SOL     OW34811   7.186   1.393   5.770 -0.5075  0.6506 -1.1615
10790SOL    HW134812   7.255   1.438   5.721 -1.2217  1.4865 -1.4260
10790SOL    HW234813   7.134   1.349   5.704 -0.0087 -0.3311 -0.9288
10791SOL     OW34814   0.969   2.387   8.680 -0.0702  0.2041  0.1003
10791SOL    HW134815   0.885   2.387   8.727 -0.2870  0.3506 -0.2874
10791SOL    HW234816   0.993   2.480   8.674  0.4777  0.1159  0.8455
10792SOL     OW34817   6.006   3.801   0.873  0.0910 -0.3077 -0.2183
10792SOL    HW134818   6.004   3.708   0.895 -0.5455 -0.6372 -1.5663
10792SOL    HW234819   5.925   3.816   0.824  1.0122  0.5625 -1.5301
10793SOL     OW34820   9.162   0.291   8.427  0.2570  0.5211  0.2331
10793SOL    HW134821   9.096   0.291   8.358  0.2282  2.2307  0.2167
10793SOL    HW234822   9.117   0.330   8.503 -0.3769 -3.1925  1.9715
10794SOL     OW34823   9.309   4.023  10.309 -0.2869 -0.2527  0.4360
10794SOL    HW134824   9.222   4.065  10.308 -0.6971 -1.0828  0.1969
10794SOL    HW234825   9.312   3.977  10.393  0.6115  1.1346  1.1988
10795SOL     OW34826   8.977   4.798   6.061 -0.1397  0.4583 -0.6889
10795SOL    HW134827   9.039   4.867   6.084 -0.2230  0.8347 -1.5545
10795SOL    HW234828   8.989   4.731   6.128  0.2494  1.1259 -0.0876
10796SOL     OW34829   9.445   4.329   9.728  0.1180 -0.4995  0.3766
10796SOL    HW134830   9.464   4.244   9.767 -2.5564 -1.2490  0.2251
10796SOL    HW234831   9.388   4.309   9.654  0.7816  1.3316 -0.6950
10797SOL     OW34832   3.254   0.885   7.908 -0.2188 -0.3382 -0.3107
10797SOL    HW134833   3.315   0.920   7.973 -1.3170  1.4103 -0.1577
10797SOL    HW234834   3.203   0.820   7.957 -0.8604  0.7729  0.5596
10798SOL     OW34835   9.192   9.875   8.788  0.1950 -0.1371  0.1484
10798SOL    HW134836   9.168   9.900   8.699  0.1850 -1.2610 -0.1775
10798SOL    HW234837   9.134   9.927   8.844  0.5168  0.9210 -0.4719
10799SOL     OW34838   0.247  10.062   5.960 -0.3262  0.2126 -0.2580
10799SOL    HW134839   0.319  10.019   5.914  1.3066  1.7525  0.6801
10799SOL    HW234840   0.214  10.126   5.897 -2.3447 -1.8725 -1.4320
10800SOL     OW34841   1.716   3.344   7.380  0.2523 -0.4435 -0.0994
10800SOL    HW134842   1.627   3.347   7.415  0.2699 -2.7483  0.2907
10800SOL    HW234843   1.722   3.421   7.324 -1.2347  0.9590  1.5386
10801SOL     OW34844   7.527   4.478   8.584  0.0305 -0.3380  0.2004
10801SOL    HW134845   7.532   4.385   8.605 -1.2442 -0.2498  1.0033
10801SOL    HW234846   7.517   4.481   8.489 -0.0725 -1.0372  0.1873
10802SOL     OW34847   5.415   6.546   4.470 -0.1049 -0.0076  0.0671
10802SOL    HW134848   5.492   6.598   4.445 -0.3842 -0.3212 -1.5406
10802SOL    HW234849   5.346   6.612   4.483 -0.0579  0.1370 -0.4041
10803SOL     OW34850   5.060   0.108   9.675 -0.3798  0.8673 -0.3631
10803SOL    HW134851   5.110   0.140   9.750  0.4639  0.3031 -0.6659
10803SOL    HW234852   5.087   0.164   9.602 -0.9376  1.1895 -0.3310
10804SOL     OW34853   4.018   3.071   5.816  0.0065 -0.4157 -0.3455
10804SOL    HW134854   4.065   3.015   5.755  2.5299  1.7601 -0.5848
10804SOL    HW234855   3.927   3.067   5.788  0.7152 -1.3664 -2.7042
10805SOL     OW34856   5.254   2.156   6.204  0.8368  0.0322  0.1676
10805SOL    HW134857   5.283   2.239   6.241 -1.5305  1.0118  0.0400
10805SOL    HW234858   5.305   2.090   6.250  2.7211  1.5197  0.3354
10806SOL     OW34859   8.767   9.857   0.085 -1.0823 -0.1511 -0.1757
10806SOL    HW134860   8.693   9.901   0.045 -0.2999 -0.0492 -1.5768
10806SOL    HW234861   8.736   9.768   0.102 -1.9290  0.2629  0.5017
10807SOL     OW34862   0.006   2.313   4.862 -0.3278 -0.2903  0.3184
10807SOL    HW134863   0.071   2.349   4.924  0.6350  2.0994 -1.8810
10807SOL    HW234864   0.039   2.226   4.842  0.7902 -0.1116  1.1944
10808SOL     OW34865   7.553   6.063   0.450 -0.3432  0.1888 -0.6907
10808SOL    HW134866   7.509   6.146   0.435 -1.7336 -0.0675  1.5800
10808SOL    HW234867   7.493   6.013   0.505  1.5576 -1.3129  0.1550
10809SOL     OW34868   2.596   5.623   9.355 -0.1325 -0.6727 -0.0399
10809SOL    HW134869   2.511   5.666   9.360 -0.2223 -0.9857  2.7448
10809SOL    HW234870   2.576   5.529   9.356  0.2379 -0.7503  1.4120
10810SOL     OW34871   7.716   6.353   0.728  0.0490  0.0506  0.0375
10810SOL    HW134872   7.736   6.390   0.642 -0.9216 -2.9013 -1.5540
10810SOL    HW234873   7.664   6.421   0.772 -1.1065  0.8634 -2.4519
10811SOL     OW34874   2.460   5.492   3.571 -0.2177  0.0352 -0.2703
10811SOL    HW134875   2.486   5.501   3.663 -1.1391  2.1272 -0.1498
10811SOL    HW234876   2.384   5.549   3.562  0.4028  0.6177 -2.5468
10812SOL     OW34877   2.287   5.854   4.136 -0.5112 -0.0195 -0.2879
10812SOL    HW134878   2.317   5.812   4.217 -1.2444 -2.4695 -1.1944
10812SOL    HW234879   2.192   5.843   4.138 -0.4024 -2.1496 -2.4494
10813SOL     OW34880   7.343   6.405   2.160  0.3219 -0.3404  0.0201
10813SOL    HW134881   7.348   6.379   2.068  0.3805  0.9646 -0.3577
10813SOL    HW234882   7.258   6.371   2.190  0.4484 -1.0592 -0.4096
10814SOL     OW34883   5.989   4.669   1.765  0.3279  0.3537  0.6300
10814SOL    HW134884   5.926   4.599   1.780  0.2256  0.4718  0.7638
10814SOL    HW234885   5.936   4.749   1.770  0.1469  0.3707 -1.0933
10815SOL     OW34886   5.592   5.353   1.952  0.0618  0.1634  0.3278
10815SOL    HW134887   5.611   5.439   1.916 -1.0588  0.7691  1.1050
10815SOL    HW234888   5.645   5.347   2.031  0.7126 -0.1808 -0.1291
10816SOL     OW34889   7.372   0.147   6.983 -0.4987 -0.4147  0.0755
10816SOL    HW134890   7.334   0.230   6.954  2.7874  1.0426 -0.4601
10816SOL    HW234891   7.358   0.147   7.078 -1.8439 -0.0240 -0.0942
10817SOL     OW34892   1.852   8.890   4.244 -0.0729  0.0163  0.3902
10817SOL    HW134893   1.883   8.811   4.200  0.3432 -0.6632  1.8578
10817SOL    HW234894   1.894   8.962   4.196 -0.3552 -0.6436 -0.8801
10818SOL     OW34895   0.596   2.062   9.138 -1.2006 -0.4488  0.0500
10818SOL    HW134896   0.667   2.028   9.193  0.4395  0.7291 -1.2562
10818SOL    HW234897   0.570   1.988   9.084 -0.2993 -0.6578 -0.1127
10819SOL     OW34898   9.069   3.106   8.214 -0.3395  0.2036 -0.2444
10819SOL    HW134899   9.100   3.140   8.298 -0.4414  0.3489 -0.2663
10819SOL    HW234900   8.974   3.108   8.221 -0.3543  0.7803 -0.5885
10820SOL     OW34901   8.310   3.044   3.490  0.1536 -0.8021 -0.2332
10820SOL    HW134902   8.294   3.135   3.513  3.4537  0.1495 -1.1416
10820SOL    HW234903   8.332   3.001   3.573 -1.6777 -0.9211  0.2363
10821SOL     OW34904   8.272   8.080   7.679 -0.2408 -0.1583 -0.6944
10821SOL    HW134905   8.180   8.099   7.698 -0.1415 -0.4057  0.0766
10821SOL    HW234906   8.269   8.000   7.626 -0.4566 -0.2630 -0.5257
10822SOL     OW34907   5.265   2.774   6.255  0.2599  0.6061 -0.0439
10822SOL    HW134908   5.244   2.708   6.189  1.9690  0.4415 -0.4668
10822SOL    HW234909   5.296   2.850   6.204  0.5234  0.8816  0.5221
10823SOL     OW34910   1.326  10.198   1.539  0.1730  0.0228 -0.0487
10823SOL    HW134911   1.248  10.150   1.511 -0.0320  0.2507  0.1213
10823SOL    HW234912   1.399  10.142   1.514 -0.0336 -0.0673 -0.4583
10824SOL     OW34913   1.401   1.034   5.285  0.1738 -0.4816 -0.0285
10824SOL    HW134914   1.395   1.129   5.292 -1.8716 -0.6169  0.6882
10824SOL    HW234915   1.477   1.019   5.228 -0.1725  1.6036 -1.1429
10825SOL     OW34916   2.262   4.073   3.268 -0.1352 -0.5932 -0.0620
10825SOL    HW134917   2.310   4.117   3.338 -3.2419  0.8338  1.3285
10825SOL    HW234918   2.252   4.140   3.200 -0.8224 -0.6161  0.0126
10826SOL     OW34919   8.200   8.673   3.815 -0.2738  0.1640 -0.6788
10826SOL    HW134920   8.144   8.604   3.850 -2.3107 -0.0284 -3.8798
10826SOL    HW234921   8.139   8.734   3.772  1.7687  1.6482 -1.6444
10827SOL     OW34922   4.790   3.071   3.894  0.2886  0.1914  0.0173
10827SOL    HW134923   4.738   3.078   3.974  0.3253  0.3115  0.0302
10827SOL    HW234924   4.726   3.056   3.825  0.1808  0.9564 -0.0589
10828SOL     OW34925   8.237   3.831   4.924 -0.3811 -0.5202 -0.5511
10828SOL    HW134926   8.180   3.760   4.894 -1.0261  0.5995 -2.1204
10828SOL    HW234927   8.321   3.815   4.880 -0.2807 -0.7357 -0.2841
10829SOL     OW34928   4.202  10.073   6.241  0.1836  0.1763  0.8653
10829SOL    HW134929   4.291  10.044   6.259  0.3589 -1.3797 -1.9786
10829SOL    HW234930   4.201  10.092   6.147 -2.2983  0.8696  0.9598
10830SOL     OW34931   6.568   6.001   0.703 -0.1546 -0.5780 -0.4326
10830SOL    HW134932   6.655   6.020   0.670 -1.1189  0.8745 -2.3239
10830SOL    HW234933   6.564   6.046   0.788  0.8364 -0.4237 -0.4633
10831SOL     OW34934   1.086   5.814   7.862  0.2802 -0.0409  0.1231
10831SOL    HW134935   1.063   5.907   7.861 -1.0621 -0.3518  0.6372
10831SOL    HW234936   1.119   5.798   7.950 -1.4736 -0.4812  0.7420
10832SOL     OW34937   0.262  10.003   2.251  0.0267 -0.4455  0.4726
10832SOL    HW134938   0.322  10.077   2.250 -1.7126  1.0420 -0.2127
10832SOL    HW234939   0.280   9.958   2.334  3.2076 -1.1377 -0.4702
10833SOL     OW34940   4.594   4.949   8.563  0.0596 -0.0471 -0.7399
10833SOL    HW134941   4.546   5.028   8.537  0.6062  0.9963  1.2111
10833SOL    HW234942   4.595   4.894   8.485 -1.2741  1.4138 -1.8341
10834SOL     OW34943   1.562  10.434   7.570  0.1509 -0.7084  0.2960
10834SOL    HW134944   1.550  10.352   7.619 -0.9590 -0.4365  0.5078
10834SOL    HW234945   1.519  10.500   7.623  1.1292  0.0501  0.1731
10835SOL     OW34946   5.617   9.639   0.811 -0.4898 -0.1501 -0.4741
10835SOL    HW134947   5.687   9.585   0.847 -1.5845 -1.2117  0.1445
10835SOL    HW234948   5.662   9.704   0.757  0.9405 -0.9477 -0.2956
10836SOL     OW34949   3.652   4.373   3.809  0.5665 -0.4143 -0.2050
10836SOL    HW134950   3.633   4.424   3.729  2.2139  2.5998  1.1594
10836SOL    HW234951   3.578   4.313   3.816 -0.6648  0.5761 -2.9340
10837SOL     OW34952   9.069  10.144   0.942  0.7891  0.2174 -0.6432
10837SOL    HW134953   9.126  10.220   0.952 -0.6384  1.6376 -2.4767
10837SOL    HW234954   9.013  10.166   0.868  0.1215 -2.5328 -1.0726
10838SOL     OW34955   6.783   9.050   4.808 -0.1431 -0.2046 -0.1892
10838SOL    HW134956   6.809   9.094   4.727 -1.4793  2.4844  0.7191
10838SOL    HW234957   6.720   8.983   4.780  0.1212  0.0546 -1.4577
10839SOL     OW34958   4.872   7.816   1.527 -0.6525  0.3376 -0.4196
10839SOL    HW134959   4.945   7.832   1.586 -0.7183  1.3382 -0.5874
10839SOL    HW234960   4.884   7.879   1.456 -0.5913 -0.8051 -1.4717
10840SOL     OW34961   5.272   3.807   6.612  0.1074 -0.7590 -0.0440
10840SOL    HW134962   5.242   3.739   6.672 -0.2342 -1.2638 -0.7652
10840SOL    HW234963   5.267   3.766   6.525  2.3039 -0.6437 -0.2623
10841SOL     OW34964   2.955   1.122   7.409  0.4944  0.4431  0.7900
10841SOL    HW134965   2.963   1.190   7.476  2.0641  0.9212  0.1481
10841SOL    HW234966   3.038   1.123   7.363  0.1869 -1.2639  0.1178
10842SOL     OW34967   8.584   7.310   8.620 -0.0712  0.0925 -0.0570
10842SOL    HW134968   8.643   7.326   8.546 -0.9157  1.6916 -0.4185
10842SOL    HW234969   8.502   7.281   8.580  0.0117 -0.7671  0.3683
10843SOL     OW34970   1.201  10.162   1.219  1.0461  0.5535  0.6138
10843SOL    HW134971   1.291  10.135   1.201  0.4712 -0.8599 -0.3172
10843SOL    HW234972   1.159  10.083   1.253 -0.3603  0.5961 -0.8939
10844SOL     OW34973   5.809   2.397   6.553 -0.5168  0.1435 -0.5024
10844SOL    HW134974   5.868   2.457   6.508 -2.4114  1.8295 -0.9012
10844SOL    HW234975   5.825   2.412   6.646 -0.4849  0.7495 -0.6054
10845SOL     OW34976   0.161   2.690   7.465 -0.3220 -0.2953 -0.4657
10845SOL    HW134977   0.166   2.712   7.372  0.2747 -0.2129 -0.4169
10845SOL    HW234978   0.157   2.595   7.467 -1.6887 -0.2587 -0.6262
10846SOL     OW34979   5.986   4.428   7.058  0.1248 -0.7569  0.4235
10846SOL    HW134980   6.051   4.397   6.995  0.3162 -1.9372  1.1789
10846SOL    HW234981   5.914   4.365   7.051 -1.1801  0.7508 -0.6988
10847SOL     OW34982   4.238  10.426   9.759  0.1842  0.5944 -0.1323
10847SOL    HW134983   4.197  10.471   9.685  0.3062  0.6879 -0.1430
10847SOL    HW234984   4.171  10.425   9.827 -0.5204 -0.9575 -0.7980
10848SOL     OW34985   7.908   9.171   8.061 -0.1439 -0.2465 -0.1970
10848SOL    HW134986   7.885   9.093   8.010  1.6968 -2.4492  2.0744
10848SOL    HW234987   8.004   9.174   8.057  0.1755 -0.8935  3.3883
10849SOL     OW34988   0.782   6.663   3.195 -0.1563  0.3238  0.0852
10849SOL    HW134989   0.769   6.572   3.221 -2.5747  0.1470 -1.4256
10849SOL    HW234990   0.835   6.658   3.115 -0.9579  0.1657 -0.4439
10850SOL     OW34991   2.354   4.345   5.142  0.4711 -0.1749 -0.0101
10850SOL    HW134992   2.338   4.386   5.227  1.8747  0.5346 -0.0662
10850SOL    HW234993   2.406   4.267   5.162 -0.9589 -1.1816 -0.0474
10851SOL     OW34994   4.427   8.826   9.333  0.0172 -0.2030  0.2108
10851SOL    HW134995   4.408   8.774   9.255  1.7126 -1.5610  0.6500
10851SOL    HW234996   4.359   8.801   9.396  0.9710 -2.2143  0.5259
10852SOL     OW34997   4.329   6.075   8.222 -0.2324 -0.4841 -0.4959
10852SOL    HW134998   4.310   6.000   8.279 -0.7116  0.8392  1.1720
10852SOL    HW234999   4.423   6.091   8.234 -0.0621 -1.0012 -1.1041
10853SOL     OW35000   7.679   7.766   2.207  0.3222  0.0677 -0.0369
10853SOL    HW135001   7.600   7.818   2.198 -1.1419 -2.2090 -1.0991
10853SOL    HW235002   7.731   7.787   2.129 -0.1011  0.1632 -0.2928
10854SOL     OW35003   6.142   1.066   4.232 -0.0226 -0.4988  0.1304
10854SOL    HW135004   6.057   1.056   4.275  0.1414 -0.8367  0.3789
10854SOL    HW235005   6.140   1.003   4.160 -0.1888 -0.1306 -0.1879
10855SOL     OW35006  10.019   0.170   3.413 -0.8094 -0.3143  0.3845
10855SOL    HW135007   9.940   0.165   3.360 -2.1073  0.8083  2.0718
10855SOL    HW235008   9.994   0.130   3.497  1.0468 -1.7178  0.3362
10856SOL     OW35009   3.704   5.803   8.749 -0.0756 -0.1386 -0.2456
10856SOL    HW135010   3.703   5.839   8.660 -0.0325 -1.4782 -0.8084
10856SOL    HW235011   3.796   5.787   8.768  0.0010  0.8858  0.3881
10857SOL     OW35012   9.331   1.234   9.079  0.2225 -0.2499  0.1395
10857SOL    HW135013   9.352   1.295   9.149  0.6129 -1.6220  1.2847
10857SOL    HW235014   9.409   1.179   9.071 -0.3926 -1.0864 -0.3110
10858SOL     OW35015   1.150   2.179   0.039  0.1395 -0.7384 -0.8923
10858SOL    HW135016   1.160   2.240  -0.034 -0.0619 -1.4963 -1.5615
10858SOL    HW235017   1.055   2.168   0.049  0.1832 -1.2994 -1.0751
10859SOL     OW35018   5.158   9.702   1.334  0.0179 -0.1896 -0.1576
10859SOL    HW135019   5.156   9.647   1.413 -2.1507  1.2784  0.9060
10859SOL    HW235020   5.251   9.710   1.314  0.9323  1.2596  3.6861
10860SOL     OW35021   2.146   7.675   7.362  0.1756 -0.3642 -0.2529
10860SOL    HW135022   2.119   7.766   7.351 -1.9729 -0.5389  2.5062
10860SOL    HW235023   2.159   7.643   7.272  1.1049  2.6256 -1.2928
10861SOL     OW35024   0.920   5.222   2.162 -0.1348  0.0412 -0.1848
10861SOL    HW135025   1.001   5.234   2.113 -0.3575 -0.6875 -0.7597
10861SOL    HW235026   0.853   5.267   2.111 -0.1065  0.6012  0.2634
10862SOL     OW35027   9.605   0.022   9.740  0.6195 -0.1350 -0.7180
10862SOL    HW135028   9.600   0.007   9.835  3.2421  0.8277 -0.3404
10862SOL    HW235029   9.519  -0.002   9.708 -0.4336 -0.3067  1.9430
10863SOL     OW35030   0.844   8.864   6.354 -0.0970 -0.5147 -0.0102
10863SOL    HW135031   0.818   8.903   6.438 -1.9503 -0.2115 -0.6715
10863SOL    HW235032   0.803   8.777   6.354 -0.1968 -0.4721 -0.6373
10864SOL     OW35033   0.841   4.356   0.679  0.1530  0.6490 -0.0320
10864SOL    HW135034   0.904   4.328   0.613 -0.2106 -1.8853  0.5807
10864SOL    HW235035   0.823   4.448   0.658  3.7059  1.3966 -0.4591
10865SOL     OW35036   8.356   7.457   3.140  0.1297 -0.2121 -0.4312
10865SOL    HW135037   8.352   7.520   3.068  0.3245  0.3651  0.0623
10865SOL    HW235038   8.336   7.373   3.098 -1.8546  0.3939 -0.8067
10866SOL     OW35039   4.443   5.892   7.251  0.1125 -0.1732 -0.4664
10866SOL    HW135040   4.524   5.933   7.219 -0.7480  1.2948 -0.8477
10866SOL    HW235041   4.374   5.927   7.194 -0.6474 -2.5311 -1.0918
10867SOL     OW35042   6.970   6.722   0.782  0.5645 -0.1535  0.4773
10867SOL    HW135043   6.962   6.646   0.725  0.6250 -0.1625  0.4811
10867SOL    HW235044   7.027   6.693   0.853 -0.4359 -0.5022  1.1517
10868SOL     OW35045   7.864  10.105   9.127 -0.0441 -0.3280  0.1123
10868SOL    HW135046   7.816  10.149   9.057  0.3692 -0.7502 -0.4447
10868SOL    HW235047   7.948  10.150   9.132  0.3546 -0.9918 -0.4141
10869SOL     OW35048   5.386   0.552   7.790  0.8582  0.0421 -0.4126
10869SOL    HW135049   5.326   0.624   7.808 -0.1175 -0.7833 -0.2923
10869SOL    HW235050   5.415   0.522   7.876 -0.2161 -0.9186 -0.3669
10870SOL     OW35051   9.132   1.746   8.730 -0.1229  0.3466  0.6033
10870SOL    HW135052   9.111   1.653   8.725 -3.0220  0.9606 -1.1730
10870SOL    HW235053   9.079   1.779   8.802  0.2397  0.7830  0.6732
10871SOL     OW35054   6.801   0.058   2.337 -0.1924  0.0978 -0.6983
10871SOL    HW135055   6.823   0.043   2.429 -2.1178 -0.8826 -0.3534
10871SOL    HW235056   6.878   0.103   2.301  1.3049 -1.0048  0.9630
10872SOL     OW35057   6.234   6.666   0.437 -0.0558 -0.4146 -0.5470
10872SOL    HW135058   6.327   6.687   0.445 -0.1833 -0.4697  1.8838
10872SOL    HW235059   6.195   6.743   0.397  1.1520 -0.8079 -2.5825
10873SOL     OW35060   7.401  10.102   5.672  0.4353  0.1160 -0.6638
10873SOL    HW135061   7.496  10.101   5.659  0.6701  0.0806  0.8687
10873SOL    HW235062   7.389  10.134   5.762 -0.9284 -1.1498 -0.3480
10874SOL     OW35063  10.243   6.678   3.332 -0.1853 -0.1753 -0.2046
10874SOL    HW135064  10.196   6.705   3.410  1.2200  0.4459  0.4627
10874SOL    HW235065  10.334   6.666   3.361  0.3676  0.0755 -1.7316
10875SOL     OW35066   0.632   5.156   4.889 -0.6554  0.5666  0.1468
10875SOL    HW135067   0.691   5.091   4.851 -0.6689  0.4529  0.3177
10875SOL    HW235068   0.683   5.196   4.960 -0.6556  0.7251  0.0592
10876SOL     OW35069   8.985   3.910   6.127  0.3296  0.1274 -0.2950
10876SOL    HW135070   8.917   3.915   6.060  0.0332  1.3450  0.0568
10876SOL    HW235071   9.045   3.982   6.106  0.2106  0.5587  0.7481
10877SOL     OW35072   7.686   1.540   4.664  0.4939 -0.2483  0.2484
10877SOL    HW135073   7.606   1.529   4.717 -0.6202  0.7807 -1.1464
10877SOL    HW235074   7.746   1.587   4.722 -0.7553  1.0088  0.5879
10878SOL     OW35075   7.536   5.404   1.214 -0.4025 -0.2277  0.4059
10878SOL    HW135076   7.610   5.359   1.173  0.1908  0.9478  0.1598
10878SOL    HW235077   7.521   5.356   1.296 -0.1678 -1.2240 -0.1144
10879SOL     OW35078   8.763   6.141   7.567 -0.0254 -0.3518 -0.5923
10879SOL    HW135079   8.811   6.203   7.513 -0.6660 -0.5702 -1.4381
10879SOL    HW235080   8.709   6.091   7.505 -0.9777 -0.4382  0.2687
10880SOL     OW35081   5.357   9.919   6.075  0.3681 -0.3222  0.3827
10880SOL    HW135082   5.271   9.889   6.105 -0.7230  1.2115 -1.0303
10880SOL    HW235083   5.374   9.867   5.996  0.9282 -0.8498  0.8326
10881SOL     OW35084   4.096   1.146   6.921 -0.2135 -0.7963 -0.1772
10881SOL    HW135085   4.005   1.120   6.909 -0.4259 -0.6163  0.9602
10881SOL    HW235086   4.147   1.072   6.887 -0.7441 -0.4962 -1.7384
10882SOL     OW35087   6.767   4.089   7.776 -0.2607 -0.3062  0.3371
10882SOL    HW135088   6.699   4.156   7.773  2.2438  2.5013  0.7344
10882SOL    HW235089   6.805   4.097   7.863  1.3067 -0.9366 -0.2539
10883SOL     OW35090   5.316   0.495   0.994  0.3504 -0.1485 -0.0506
10883SOL    HW135091   5.395   0.546   1.012  1.4889 -1.2409 -1.6326
10883SOL    HW235092   5.337   0.407   1.024 -0.4287 -0.3706 -0.1371
10884SOL     OW35093  10.391   8.259   5.723  0.0955 -0.2244  0.0508
10884SOL    HW135094  10.312   8.263   5.777 -0.1095  0.7483 -0.3078
10884SOL    HW235095  10.457   8.308   5.772  0.7179 -1.6129  0.6868
10885SOL     OW35096   3.641   6.363   4.780  0.4879  0.0175 -0.3010
10885SOL    HW135097   3.622   6.289   4.722  0.1128 -0.4494  0.4134
10885SOL    HW235098   3.607   6.337   4.865 -1.3670  1.7477 -0.4387
10886SOL     OW35099   7.855   4.040   1.706  0.3529 -0.3319  0.1187
10886SOL    HW135100   7.819   4.011   1.622 -0.1457 -1.3204  0.6594
10886SOL    HW235101   7.785   4.025   1.769  0.9250 -0.1328  0.8123
10887SOL     OW35102   6.302   0.998   0.865  0.1112 -0.0293 -0.0132
10887SOL    HW135103   6.220   1.039   0.836  0.5466  0.4199 -0.6160
10887SOL    HW235104   6.305   0.915   0.817  2.0453  1.7680 -3.3374
10888SOL     OW35105   4.707   5.044   9.393  0.3343  0.0737 -0.1422
10888SOL    HW135106   4.723   5.105   9.321 -0.7478  0.4733 -0.0623
10888SOL    HW235107   4.789   4.995   9.402  1.4117  1.8601  0.1514
10889SOL     OW35108   4.429   7.962   2.567 -0.5637 -0.5109 -0.0442
10889SOL    HW135109   4.455   8.037   2.514  2.0869  1.0073  3.0953
10889SOL    HW235110   4.511   7.928   2.603 -2.0372 -2.5080  1.6624
10890SOL     OW35111   7.357   7.643   1.484 -0.1190  0.3225  0.5182
10890SOL    HW135112   7.425   7.611   1.425  0.6099  0.5940  1.1973
10890SOL    HW235113   7.349   7.576   1.552 -0.9124  0.0396  0.1618
10891SOL     OW35114   8.035   9.777   5.558 -0.1257  0.1501  0.6188
10891SOL    HW135115   8.003   9.719   5.488  0.2928 -0.5765  1.0158
10891SOL    HW235116   8.027   9.724   5.637  0.0759  0.7176  1.0207
10892SOL     OW35117   2.470   7.247   3.406  0.1147  0.8287 -0.0611
10892SOL    HW135118   2.398   7.234   3.468 -0.3592 -0.9184 -0.8940
10892SOL    HW235119   2.439   7.207   3.325  1.6166  0.9963 -0.7509
10893SOL     OW35120   5.705   1.816   5.462  0.2356  0.0747  0.0762
10893SOL    HW135121   5.662   1.789   5.543 -0.8018 -2.7774 -1.2823
10893SOL    HW235122   5.794   1.839   5.488 -0.3440  0.2246  2.1281
10894SOL     OW35123   3.677   7.836   3.083  0.0100 -0.4073  0.0376
10894SOL    HW135124   3.591   7.819   3.120 -0.6308  0.3287 -1.0307
10894SOL    HW235125   3.739   7.808   3.150 -1.0712  0.9698  1.6883
10895SOL     OW35126   4.917   9.031   4.637  0.2369  0.4292 -0.2098
10895SOL    HW135127   4.908   8.985   4.720 -0.0607  1.4876  0.3698
10895SOL    HW235128   4.844   9.000   4.583 -0.5767  0.9757  0.5485
10896SOL     OW35129   6.571   5.931   9.532  0.5883 -0.1176 -0.0739
10896SOL    HW135130   6.518   5.998   9.573 -0.4077 -0.8678 -0.0987
10896SOL    HW235131   6.661   5.963   9.541  0.0368  2.3046 -2.0755
10897SOL     OW35132   3.359   7.130   7.934 -0.5455 -0.3327  0.3055
10897SOL    HW135133   3.408   7.207   7.905 -0.1464 -1.1762 -1.4054
10897SOL    HW235134   3.285   7.126   7.873  0.4432 -2.3115 -0.8507
10898SOL     OW35135   3.854   4.969   7.703 -0.1962  0.1437 -0.2844
10898SOL    HW135136   3.930   5.027   7.699  1.7161 -2.1753  0.1984
10898SOL    HW235137   3.837   4.957   7.796 -0.2829 -0.3599 -0.3584
10899SOL     OW35138   7.635   1.667   3.853  0.3959  0.0390  0.5562
10899SOL    HW135139   7.718   1.683   3.897 -0.9104  1.1364  2.7824
10899SOL    HW235140   7.658   1.664   3.760  2.7645  1.3832  1.0133
10900SOL     OW35141   0.084   5.236   9.157  0.0917  0.0325  0.6384
10900SOL    HW135142   0.116   5.234   9.248 -1.7512  1.0011  1.3637
10900SOL    HW235143   0.119   5.316   9.121 -1.2242  0.9768  1.3601
10901SOL     OW35144   4.672   0.319   9.178  0.3113 -0.1355 -0.2140
10901SOL    HW135145   4.582   0.285   9.175 -0.3126  0.9860  2.6092
10901SOL    HW235146   4.663   0.413   9.165  1.1028 -0.0224  0.0041
10902SOL     OW35147   3.482   3.221   7.702  0.0206  0.1865  0.0382
10902SOL    HW135148   3.549   3.203   7.636 -1.2645 -1.4052 -0.9011
10902SOL    HW235149   3.423   3.284   7.660  0.4778  0.9831  0.5700
10903SOL     OW35150  10.098   7.813   4.816  0.0082  0.3819  0.4025
10903SOL    HW135151  10.142   7.809   4.731  0.8239 -4.1326  0.7845
10903SOL    HW235152  10.005   7.804   4.795  0.2275 -1.0324 -0.0955
10904SOL     OW35153   7.073   7.012   6.966  0.3027 -0.1705 -0.1163
10904SOL    HW135154   7.140   7.076   6.940  0.7435 -0.6512 -0.1806
10904SOL    HW235155   6.993   7.043   6.923  0.7870 -0.3777 -1.2105
10905SOL     OW35156   0.087   0.771   7.959 -0.4289 -0.0016  0.5130
10905SOL    HW135157   0.163   0.830   7.957  0.2888 -0.9075  0.3199
10905SOL    HW235158   0.116   0.693   7.911 -0.4069 -1.6303  2.9861
10906SOL     OW35159   0.745   5.808   8.311 -0.5904  0.6763  0.3819
10906SOL    HW135160   0.839   5.793   8.300 -0.0268  2.4255  2.1372
10906SOL    HW235161   0.704   5.727   8.282  1.4531 -0.1835 -0.3125
10907SOL     OW35162   4.285   4.747   1.401  0.5356  0.4080  1.1409
10907SOL    HW135163   4.366   4.730   1.353  0.8493  0.2188  1.7286
10907SOL    HW235164   4.304   4.824   1.455 -0.0141  1.0047  0.5170
10908SOL     OW35165   6.674   5.202   9.953  0.1585 -0.2735 -0.3631
10908SOL    HW135166   6.602   5.140   9.958 -0.7626  0.7323 -0.7352
10908SOL    HW235167   6.718   5.195  10.038 -1.2183  0.0872  0.4103
10909SOL     OW35168   9.632   4.654   1.387 -0.3511 -0.5789  0.5963
10909SOL    HW135169   9.571   4.627   1.318  1.4511 -0.7250 -1.0235
10909SOL    HW235170   9.609   4.746   1.405 -0.3398 -0.2746 -0.8181
10910SOL     OW35171  10.365   2.453   0.744 -1.0262  0.0569 -0.0661
10910SOL    HW135172  10.411   2.468   0.827 -0.9947  1.5172 -0.3214
10910SOL    HW235173  10.350   2.358   0.742 -0.4455 -0.0919  1.2919
10911SOL     OW35174   7.350   3.805   5.927  0.0622  0.0835 -0.6428
10911SOL    HW135175   7.440   3.779   5.944 -0.5357 -2.1426 -0.5969
10911SOL    HW235176   7.340   3.803   5.832 -0.1194 -0.3436 -0.6160
10912SOL     OW35177   4.794   5.064   3.907  0.2571 -0.3297 -0.3269
10912SOL    HW135178   4.873   5.118   3.900  0.5476 -0.7806 -0.5674
10912SOL    HW235179   4.796   5.009   3.828 -1.2608  0.9291 -1.2934
10913SOL     OW35180   2.629   6.089   2.180 -0.2883 -0.3929  0.3555
10913SOL    HW135181   2.663   6.000   2.179 -0.3677 -0.4479  1.2606
10913SOL    HW235182   2.591   6.099   2.268  1.0092  1.0027  0.7973
10914SOL     OW35183   3.728   1.036   6.212  0.5222  0.0989  0.5817
10914SOL    HW135184   3.747   1.105   6.148 -0.3724 -0.1760 -0.0085
10914SOL    HW235185   3.662   1.076   6.270  0.6514  0.0292  0.7796
10915SOL     OW35186   4.908   3.566   6.038 -0.4194 -0.7050 -0.6529
10915SOL    HW135187   4.960   3.498   6.082  0.0232 -0.4668 -0.8047
10915SOL    HW235188   4.817   3.545   6.061 -0.2513 -1.0680 -0.3075
10916SOL     OW35189   3.072   4.388   7.619 -0.4693 -0.7094  0.7302
10916SOL    HW135190   3.105   4.305   7.586 -0.0115  0.0476 -0.8246
10916SOL    HW235191   3.145   4.449   7.612 -0.6611 -0.2470  2.2633
10917SOL     OW35192   0.908   9.622   2.264  0.4783  0.3791 -0.1223
10917SOL    HW135193   0.837   9.579   2.218  0.2012  1.4933 -0.7872
10917SOL    HW235194   0.988   9.578   2.234  0.2093  0.3743 -0.8345
10918SOL     OW35195   1.328   3.673   2.424 -0.3305 -0.2462 -0.2846
10918SOL    HW135196   1.401   3.716   2.467  0.0776 -1.0003 -0.1991
10918SOL    HW235197   1.273   3.641   2.495  1.0591 -2.7174 -0.2179
10919SOL     OW35198  10.259   5.744   1.810 -0.1750 -0.4454 -0.2444
10919SOL    HW135199  10.219   5.726   1.725  0.2618 -0.6852 -0.4038
10919SOL    HW235200  10.352   5.755   1.790 -0.0530 -0.6245  0.2188
10920SOL     OW35201   6.382  10.120   0.880  0.3324  0.3418 -0.2435
10920SOL    HW135202   6.429  10.080   0.807  1.1580  0.5484  0.1572
10920SOL    HW235203   6.357  10.207   0.848 -0.9628 -0.2509 -0.9165
10921SOL     OW35204   4.045   4.485   6.664 -0.8463  0.0856 -0.5991
10921SOL    HW135205   3.972   4.529   6.620 -1.9795 -1.1071 -0.0104
10921SOL    HW235206   4.034   4.393   6.641 -0.5052 -0.3438  0.8224
10922SOL     OW35207   2.727   6.671   1.366  0.5839  0.1402 -0.1772
10922SOL    HW135208   2.775   6.602   1.322  0.7139  1.0091 -1.4575
10922SOL    HW235209   2.793   6.736   1.390  0.7882 -1.0275  2.8865
10923SOL     OW35210   6.026   0.471   3.732  0.2257 -0.3619 -0.5811
10923SOL    HW135211   6.005   0.467   3.638 -0.4854 -0.4434 -0.4186
10923SOL    HW235212   6.030   0.565   3.752 -1.1744 -0.3307 -0.3561
10924SOL     OW35213   8.665   9.240   3.867 -0.2493  0.1187  0.1103
10924SOL    HW135214   8.577   9.242   3.903 -0.7715  1.0247 -1.1352
10924SOL    HW235215   8.660   9.179   3.793  0.4901 -0.7579  0.7586
10925SOL     OW35216   7.842   1.081   8.582  0.4766 -0.4072 -0.3809
10925SOL    HW135217   7.837   1.106   8.490  0.4003  1.2352  0.0348
10925SOL    HW235218   7.923   1.121   8.614 -0.8862  1.5093  0.9038
10926SOL     OW35219   4.815   7.205   1.347  0.0355  0.7526  0.3874
10926SOL    HW135220   4.877   7.269   1.314 -0.2257  1.4415  1.1857
10926SOL    HW235221   4.792   7.237   1.434  1.1232 -1.2702  1.4946
10927SOL     OW35222   2.912   5.991   2.441 -0.6372  0.1938 -0.2724
10927SOL    HW135223   3.003   5.983   2.470 -0.3840 -1.4731 -1.3336
10927SOL    HW235224   2.895   6.085   2.440  1.5722  0.6594 -1.4122
10928SOL     OW35225   6.932   3.841   2.956  0.1193  0.0218  0.1670
10928SOL    HW135226   6.920   3.748   2.974 -1.0080 -0.1834 -1.4050
10928SOL    HW235227   7.027   3.852   2.946  0.4627 -0.5225  2.3026
10929SOL     OW35228   8.171   3.395   9.542  0.1731 -0.9207 -0.4460
10929SOL    HW135229   8.186   3.337   9.468 -0.3254  0.3052 -1.5529
10929SOL    HW235230   8.111   3.462   9.509  1.3351  0.6889  0.5117
10930SOL     OW35231   3.637   5.889   1.820  0.4268 -0.5394  0.1882
10930SOL    HW135232   3.659   5.975   1.783 -0.8243 -0.1467  0.3184
10930SOL    HW235233   3.681   5.887   1.905  2.0918 -0.8456 -0.6385
10931SOL     OW35234   3.634   6.455   7.040 -0.3359 -0.2695  0.4851
10931SOL    HW135235   3.625   6.392   6.968  0.8558 -0.5782  0.5897
10931SOL    HW235236   3.547   6.458   7.080 -0.9907 -0.1744 -0.8957
10932SOL     OW35237   6.276   0.809   3.585 -0.5770 -0.0862 -0.3226
10932SOL    HW135238   6.198   0.838   3.633 -0.2368  0.9665 -0.3881
10932SOL    HW235239   6.347   0.861   3.622 -0.3133  0.8277 -2.0229
10933SOL     OW35240   0.751   2.344   3.320 -0.3217 -0.0182  0.0165
10933SOL    HW135241   0.659   2.369   3.328 -0.7320 -1.0843 -1.0210
10933SOL    HW235242   0.775   2.311   3.406 -1.3363 -1.0074 -0.0513
10934SOL     OW35243   2.010   2.336   7.489 -0.2977 -0.2390  0.2744
10934SOL    HW135244   2.025   2.261   7.547  1.8766 -1.9840 -2.3199
10934SOL    HW235245   1.987   2.297   7.404  2.0027  1.8987 -1.4626
10935SOL     OW35246   9.576   1.363   8.792 -0.0475 -0.6301 -0.8152
10935SOL    HW135247   9.593   1.370   8.886 -0.0413 -2.1890 -0.6821
10935SOL    HW235248   9.572   1.269   8.775  1.8000 -0.4581 -2.6952
10936SOL     OW35249   0.405   1.280   1.799 -0.3584  0.6316 -0.1773
10936SOL    HW135250   0.330   1.223   1.812 -0.0596  0.1625 -0.4508
10936SOL    HW235251   0.371   1.369   1.810 -1.4360  0.5619 -2.3587
10937SOL     OW35252   2.649   1.973   8.639 -0.4288  0.3996 -0.2024
10937SOL    HW135253   2.673   1.910   8.571 -1.0956  0.1182 -0.1924
10937SOL    HW235254   2.715   1.961   8.707  0.2003  0.6295 -0.7586
10938SOL     OW35255   1.227   1.352   2.438 -0.1479 -0.3773 -0.5756
10938SOL    HW135256   1.304   1.405   2.417 -0.0006  0.1812  1.2121
10938SOL    HW235257   1.263   1.273   2.479 -0.5220  0.4039  1.3443
10939SOL     OW35258   6.251   6.489   7.244 -0.6383 -0.0576 -0.2348
10939SOL    HW135259   6.222   6.500   7.153 -0.2611  0.1357 -0.3327
10939SOL    HW235260   6.198   6.552   7.293  0.2761  0.9926 -0.5497
10940SOL     OW35261   0.747   1.371   0.351  0.0239  0.0835  0.1196
10940SOL    HW135262   0.805   1.446   0.340  0.4366 -0.1434  0.7483
10940SOL    HW235263   0.659   1.409   0.347  0.2045  0.4541 -0.6130
10941SOL     OW35264   0.277   7.126   1.146 -0.3441 -0.1757 -0.2241
10941SOL    HW135265   0.326   7.052   1.110 -0.6552 -0.6564  0.3135
10941SOL    HW235266   0.247   7.095   1.232 -0.4919  0.5722  0.0034
10942SOL     OW35267   3.148   3.338   4.406 -0.1378  0.0363 -0.3260
10942SOL    HW135268   3.145   3.432   4.387 -0.1585 -0.1975 -1.5712
10942SOL    HW235269   3.228   3.308   4.363  0.3932 -0.3568  0.8980
10943SOL     OW35270   0.594   0.900   9.568  0.3975 -0.2701 -0.4435
10943SOL    HW135271   0.542   0.980   9.553 -1.7389 -1.5566 -0.3031
10943SOL    HW235272   0.566   0.869   9.654  2.4820 -0.3115  0.2776
10944SOL     OW35273   8.613  10.120   6.788  0.9435  0.0776  1.1893
10944SOL    HW135274   8.528  10.097   6.824 -0.1150 -0.0935 -1.2730
10944SOL    HW235275   8.613  10.216   6.785 -0.1428  0.0596 -0.8707
10945SOL     OW35276   5.485   4.674   5.639 -0.8668 -0.5480  0.3577
10945SOL    HW135277   5.549   4.719   5.694  1.4045 -0.5332 -2.0880
10945SOL    HW235278   5.492   4.582   5.664 -0.0566 -0.5101  0.2826
10946SOL     OW35279   2.019   9.510   1.350  0.0901 -0.1527 -0.1000
10946SOL    HW135280   2.050   9.422   1.330  2.2224  0.6736 -0.7086
10946SOL    HW235281   2.092   9.567   1.326  0.2424  1.5220  3.5531
10947SOL     OW35282   7.165   1.951   6.932 -0.5421 -0.2182 -0.0174
10947SOL    HW135283   7.166   2.025   6.872  0.7083  0.9762  1.4029
10947SOL    HW235284   7.229   1.889   6.896 -0.0263  0.3535 -0.0924
10948SOL     OW35285   2.349  10.105   4.021 -0.6374  0.2136 -0.0827
10948SOL    HW135286   2.364  10.022   3.976 -0.4681  0.1027  0.1784
10948SOL    HW235287   2.303  10.082   4.101  0.8074  0.1909  0.7734
10949SOL     OW35288   6.381   1.383   3.268 -0.2153  0.0286  0.2650
10949SOL    HW135289   6.337   1.464   3.294  0.1553  0.0159  0.9570
10949SOL    HW235290   6.373   1.326   3.345  1.6594  0.2939  0.6932
10950SOL     OW35291   6.177   2.248   9.925 -0.4317 -0.1225 -0.3184
10950SOL    HW135292   6.198   2.234  10.017 -0.6619  1.6205  0.0272
10950SOL    HW235293   6.257   2.225   9.878  0.3656  0.8792  0.5046
10951SOL     OW35294   1.893   2.102   1.534 -0.0048  0.4180  0.1126
10951SOL    HW135295   1.865   2.177   1.586 -0.4293  1.9653 -2.1724
10951SOL    HW235296   1.819   2.042   1.536  0.9271 -0.8231  3.2879
10952SOL     OW35297   0.172   0.169   9.228  0.1896  0.5535 -0.1104
10952SOL    HW135298   0.216   0.176   9.313  1.2570  1.5455 -0.6962
10952SOL    HW235299   0.089   0.216   9.240  0.6242  1.2653  0.2162
10953SOL     OW35300   8.769   6.513   9.934 -0.2472 -0.1337  0.4359
10953SOL    HW135301   8.854   6.534   9.897  0.0847 -0.9746  0.7107
10953SOL    HW235302   8.722   6.468   9.865 -0.1370 -0.4723  0.5813
10954SOL     OW35303   8.439   9.717   4.584  0.0236  0.3102  0.2069
10954SOL    HW135304   8.436   9.805   4.622  0.6204 -0.3289  1.8405
10954SOL    HW235305   8.357   9.676   4.610  0.4176 -0.1211  0.7947
10955SOL     OW35306   4.547   4.438   7.772  0.7367 -0.1758  0.1814
10955SOL    HW135307   4.568   4.407   7.860 -1.1075  2.0233  1.5172
10955SOL    HW235308   4.598   4.519   7.761  0.7107 -0.2567 -0.6378
10956SOL     OW35309   5.253   5.801   2.062 -0.3226  0.2562 -0.1594
10956SOL    HW135310   5.322   5.750   2.105 -0.2095  0.2925 -0.2985
10956SOL    HW235311   5.300   5.866   2.010 -0.4533 -0.1045 -0.7286
10957SOL     OW35312   7.347   5.928   0.538 -0.2550  0.1336  0.2514
10957SOL    HW135313   7.300   5.848   0.564 -1.3822  1.3063  2.0253
10957SOL    HW235314   7.278   5.993   0.525  0.6169  0.7598 -1.6295
10958SOL     OW35315   1.953   2.973   4.453 -0.0367  0.0678 -0.0328
10958SOL    HW135316   1.883   2.932   4.503  0.4706 -0.5527  0.1787
10958SOL    HW235317   1.920   2.975   4.363 -0.3436 -0.1923  0.0715
10959SOL     OW35318   5.016   9.195   7.540  0.0666  0.3421  0.0606
10959SOL    HW135319   4.952   9.245   7.489  1.5616  1.0223 -1.2088
10959SOL    HW235320   5.019   9.110   7.497 -0.4744  0.0588  0.5596
10960SOL     OW35321   5.220   3.222   8.802  0.6495  0.0584  0.6315
10960SOL    HW135322   5.271   3.258   8.874  1.0934 -1.7731  1.3080
10960SOL    HW235323   5.129   3.228   8.832  0.7733  0.0076  1.0293
10961SOL     OW35324   8.792   3.942   5.946 -0.4887 -0.2168  0.4622
10961SOL    HW135325   8.741   3.992   6.010 -0.8310  0.2197 -0.1449
10961SOL    HW235326   8.729   3.881   5.907 -0.1493 -0.8936  0.9551
10962SOL     OW35327   1.404   3.756   4.283  0.0750 -0.2235  0.0025
10962SOL    HW135328   1.444   3.711   4.357  0.6120 -0.6093 -0.5201
10962SOL    HW235329   1.354   3.689   4.238 -0.5902  0.1003  0.2362
10963SOL     OW35330   1.073   8.991  10.110  0.3689 -0.2274 -0.2709
10963SOL    HW135331   1.081   8.966  10.018  1.1876 -3.7641  0.6308
10963SOL    HW235332   1.148   8.949  10.153 -1.1205 -0.4116  2.3212
10964SOL     OW35333   6.541   3.630   0.338 -0.4971  0.1705 -0.9374
10964SOL    HW135334   6.452   3.607   0.367 -2.1237  2.0432 -3.8993
10964SOL    HW235335   6.589   3.547   0.341 -1.7202 -0.5793  2.4373
10965SOL     OW35336   1.243   5.140   1.408 -0.2510  0.7133 -0.0820
10965SOL    HW135337   1.319   5.126   1.464 -0.0646 -1.1615 -0.7275
10965SOL    HW235338   1.196   5.212   1.449  0.5501  0.2449  1.7560
10966SOL     OW35339   7.960   6.900   3.017  0.0128  0.3974  0.5706
10966SOL    HW135340   7.932   6.827   2.961  0.0883  0.9258 -0.1715
10966SOL    HW235341   7.897   6.901   3.089 -2.0329  1.6688 -1.1419
10967SOL     OW35342   1.392   6.040   4.409 -0.4674 -0.0916 -0.3499
10967SOL    HW135343   1.298   6.034   4.427 -0.8586  1.1693 -1.7729
10967SOL    HW235344   1.433   6.031   4.495 -1.8243 -1.5642  0.1817
10968SOL     OW35345   6.848   0.208  10.358  0.7561 -0.1936 -0.1326
10968SOL    HW135346   6.904   0.132  10.376  1.5310  0.0845 -1.2353
10968SOL    HW235347   6.901   0.283  10.385  0.2650 -0.0084  0.3202
10969SOL     OW35348  10.064   0.541   2.099  0.3462 -0.5432  0.5763
10969SOL    HW135349  10.121   0.486   2.153 -0.6777 -1.5002  0.7114
10969SOL    HW235350   9.981   0.544   2.146 -0.6380 -1.5475 -0.9911
10970SOL     OW35351   4.469   6.471   6.849  0.5656  0.2795 -0.2327
10970SOL    HW135352   4.514   6.457   6.932 -1.2920  0.0404  0.7978
10970SOL    HW235353   4.397   6.531   6.871 -0.4742 -0.4623 -1.4583
10971SOL     OW35354   5.184   6.788   2.181  0.7040  0.0473 -0.2594
10971SOL    HW135355   5.169   6.858   2.245  1.2441  1.6181 -1.7721
10971SOL    HW235356   5.273   6.803   2.150 -0.0585  0.3132 -2.5013
10972SOL     OW35357   4.175   7.682   3.553 -0.1805 -0.1096 -0.0302
10972SOL    HW135358   4.128   7.765   3.560  0.8715  0.4400  0.6910
10972SOL    HW235359   4.128   7.623   3.611 -0.8406  0.0231 -0.4245
10973SOL     OW35360   1.634   4.438   2.623  0.0332 -0.0398  0.3847
10973SOL    HW135361   1.630   4.404   2.533 -1.1228  2.0824 -0.4355
10973SOL    HW235362   1.543   4.433   2.653  0.1611  0.6381  0.8839
10974SOL     OW35363   0.178   6.348   9.310  0.5870  0.3049 -0.3782
10974SOL    HW135364   0.216   6.420   9.359  1.0142 -1.9380  2.8943
10974SOL    HW235365   0.252   6.293   9.285  0.0450 -0.9187  0.5856
10975SOL     OW35366   6.283   6.853   7.759  0.1337 -0.0104 -0.3525
10975SOL    HW135367   6.338   6.850   7.681 -0.6756  1.6868 -1.0482
10975SOL    HW235368   6.330   6.910   7.820  0.6359 -1.1156  0.3151
10976SOL     OW35369   8.779   9.006   2.275  0.3108 -0.1470 -0.1250
10976SOL    HW135370   8.810   8.948   2.206 -1.5104 -0.3646 -0.8143
10976SOL    HW235371   8.756   8.948   2.348 -1.6308 -0.3726 -0.8602
10977SOL     OW35372   9.273   0.514   6.906  0.2134  0.1160 -0.2874
10977SOL    HW135373   9.345   0.452   6.912  1.8740  1.9165 -0.4974
10977SOL    HW235374   9.252   0.536   6.997 -0.7767 -1.1391 -0.1924
10978SOL     OW35375   9.350   9.161   4.700 -0.3963  0.0678  0.0988
10978SOL    HW135376   9.379   9.072   4.678 -1.8361 -0.1687 -1.0257
10978SOL    HW235377   9.429   9.215   4.690  0.2450 -0.9060 -0.3243
10979SOL     OW35378   2.692   7.494   6.120  0.1131  0.4176  0.7406
10979SOL    HW135379   2.768   7.521   6.070 -0.5980  1.0097 -0.0412
10979SOL    HW235380   2.625   7.475   6.055 -0.8725  1.3215  1.4547
10980SOL     OW35381   0.934   1.891   8.620  0.3179  0.7065  0.2201
10980SOL    HW135382   0.846   1.856   8.605  0.6218  0.1047 -0.2083
10980SOL    HW235383   0.932   1.925   8.709 -0.9809  2.6071 -0.4491
10981SOL     OW35384   4.478   6.243   0.288  0.7622 -0.2124 -0.1703
10981SOL    HW135385   4.500   6.259   0.380 -0.0797  0.3862 -0.0578
10981SOL    HW235386   4.383   6.258   0.284  0.8636  0.1778 -1.2212
10982SOL     OW35387   8.462   3.666   0.933 -0.4114 -0.1736  0.2452
10982SOL    HW135388   8.529   3.727   0.901  1.6840 -1.5130  1.8121
10982SOL    HW235389   8.406   3.720   0.988  0.6218  0.6212  0.5526
10983SOL     OW35390   3.837   3.030   9.771 -0.5383 -0.1168  0.4055
10983SOL    HW135391   3.898   3.069   9.834 -1.8565 -0.7984  2.1890
10983SOL    HW235392   3.894   2.982   9.710  0.7481 -0.3580  1.7264
10984SOL     OW35393   0.476   1.709   4.472  0.2498 -0.2053 -0.0566
10984SOL    HW135394   0.555   1.737   4.518  0.3958  0.7316 -0.8418
10984SOL    HW235395   0.477   1.760   4.390 -1.2182 -0.1014 -0.0290
10985SOL     OW35396   5.293   0.727   5.276 -0.1011  0.1399 -0.0591
10985SOL    HW135397   5.318   0.716   5.184  1.6467  1.6943  0.1761
10985SOL    HW235398   5.200   0.708   5.278  0.0669 -1.1089 -1.9336
10986SOL     OW35399   1.412   6.763   3.594  0.3756  0.0945  0.6196
10986SOL    HW135400   1.489   6.735   3.544 -0.0074 -0.0504  0.0939
10986SOL    HW235401   1.382   6.684   3.638 -0.3997 -0.2475 -0.4521
10987SOL     OW35402  10.150   7.180  10.010  0.1598 -0.1405  0.2566
10987SOL    HW135403  10.141   7.236   9.933  0.6291  0.5265  0.6674
10987SOL    HW235404  10.210   7.111   9.983 -0.6170 -0.6089 -0.3338
10988SOL     OW35405   1.000   7.057   1.596  0.2719 -0.7122  0.3648
10988SOL    HW135406   1.018   6.994   1.666  0.4845  0.7040  1.6536
10988SOL    HW235407   0.943   7.122   1.637  1.7936  1.0814 -0.2166
10989SOL     OW35408   6.390   4.944   5.776 -0.8514 -0.2470  0.1689
10989SOL    HW135409   6.392   4.859   5.733  0.8146  1.0683 -2.5802
10989SOL    HW235410   6.476   4.953   5.817 -1.2320 -0.0889  0.9727
10990SOL     OW35411   6.444   3.634   3.754 -0.2778  0.2454 -0.0175
10990SOL    HW135412   6.387   3.691   3.806 -0.4049 -1.2027  1.5165
10990SOL    HW235413   6.464   3.561   3.813  1.9509 -0.0372 -1.0417
10991SOL     OW35414   4.540   2.814   0.856  0.0943  0.6078 -0.0439
10991SOL    HW135415   4.534   2.753   0.782 -1.3063  0.6206  0.0420
10991SOL    HW235416   4.538   2.758   0.934 -0.1166  0.6951  0.0145
10992SOL     OW35417   9.502   2.346   7.916 -0.5372  0.1384  0.2268
10992SOL    HW135418   9.597   2.335   7.923 -0.3073  1.1851 -0.8198
10992SOL    HW235419   9.482   2.419   7.976 -0.6102  0.1997  0.1288
10993SOL     OW35420   0.487   1.533   3.560 -0.1911  0.4181  0.1460
10993SOL    HW135421   0.481   1.500   3.649 -2.1810  0.5251  0.1057
10993SOL    HW235422   0.567   1.495   3.524  2.1243  2.3967  2.7489
10994SOL     OW35423   8.206   2.035   0.930 -0.3725 -0.1404 -0.1539
10994SOL    HW135424   8.161   2.036   1.015  0.1288 -0.9104  0.1257
10994SOL    HW235425   8.137   2.012   0.867 -0.3738 -1.3725  0.2794
10995SOL     OW35426   3.251   1.406   7.505 -0.1368 -0.1438 -0.2765
10995SOL    HW135427   3.228   1.322   7.464  0.3297  0.1507 -1.1633
10995SOL    HW235428   3.276   1.382   7.594  0.3809 -1.0033 -0.6381
10996SOL     OW35429   0.018   7.481   2.069 -0.1016  0.3981 -0.9859
10996SOL    HW135430   0.058   7.415   2.012  1.2326 -0.9967  1.4005
10996SOL    HW235431   0.093   7.524   2.112 -0.9979 -0.2424  1.4054
10997SOL     OW35432   1.184   4.637   6.599  0.5974  0.7307 -0.4382
10997SOL    HW135433   1.121   4.597   6.539  0.2282 -0.2986  0.5935
10997SOL    HW235434   1.238   4.692   6.544  0.6185 -0.5973 -1.8153
10998SOL     OW35435   9.446   3.373   7.357 -0.1622  0.1678  0.4466
10998SOL    HW135436   9.538   3.364   7.335 -0.5455 -1.2625 -0.7462
10998SOL    HW235437   9.404   3.298   7.314 -1.9971  1.2958  0.1657
10999SOL     OW35438   7.561   2.572   1.753 -0.1603  1.0057 -0.2190
10999SOL    HW135439   7.570   2.477   1.758  0.7118  0.9117 -2.4094
10999SOL    HW235440   7.536   2.599   1.841  1.5719 -1.0603  1.0028
11000SOL     OW35441   9.140   5.472   4.590 -0.5172 -0.1565  0.3463
11000SOL    HW135442   9.195   5.419   4.533  0.8316  1.6023 -0.0973
11000SOL    HW235443   9.201   5.537   4.628 -2.0952  1.2219  0.6452
11001SOL     OW35444   6.533   8.007   9.131  0.4016  0.3315 -0.4183
11001SOL    HW135445   6.454   7.968   9.094  1.8242 -0.1887 -3.1585
11001SOL    HW235446   6.604   7.948   9.105  1.8410  1.3714  0.9517
11002SOL     OW35447   6.964   2.737   6.362 -0.2249 -0.5495 -0.6507
11002SOL    HW135448   6.948   2.674   6.292  0.1357 -1.3822 -0.0034
11002SOL    HW235449   6.956   2.686   6.443 -1.7235  0.6220 -0.0168
11003SOL     OW35450   4.030   6.626  10.330 -0.5522 -0.1429 -0.5374
11003SOL    HW135451   3.962   6.688  10.302 -0.0520  0.0543 -1.3494
11003SOL    HW235452   3.988   6.541  10.323 -1.4417  0.1085  1.1588
11004SOL     OW35453   0.679   9.746   0.435 -0.1565  0.4281 -0.2534
11004SOL    HW135454   0.648   9.790   0.355 -0.2853  2.1243  0.6880
11004SOL    HW235455   0.624   9.668   0.442  0.6298 -0.4264 -2.4300
11005SOL     OW35456   2.602   4.184   2.321  0.0930  0.5360  0.7621
11005SOL    HW135457   2.632   4.231   2.243 -0.5705  0.8937  0.7205
11005SOL    HW235458   2.640   4.096   2.311  1.7639  1.1691  1.0857
11006SOL     OW35459   4.051   7.735   6.804 -0.1005  0.3132 -0.1313
11006SOL    HW135460   4.050   7.830   6.817 -0.2824  0.1571  1.1345
11006SOL    HW235461   4.086   7.723   6.716 -0.5196  1.5714 -0.4947
11007SOL     OW35462   4.147   5.759   4.531  0.6419  0.1990 -0.5010
11007SOL    HW135463   4.128   5.759   4.438 -2.5857  0.8681  0.0397
11007SOL    HW235464   4.193   5.842   4.547  2.7696 -0.6665 -1.6421
11008SOL     OW35465   5.380   3.903   5.016 -0.2368 -0.0652  0.6880
11008SOL    HW135466   5.393   3.994   4.988 -0.5344 -0.2155  0.0593
11008SOL    HW235467   5.445   3.890   5.085 -0.3125  0.6801  0.9015
11009SOL     OW35468   5.358   8.480   5.144 -0.1060 -0.3049  0.9687
11009SOL    HW135469   5.313   8.417   5.089  1.2319 -2.1977  1.9173
11009SOL    HW235470   5.298   8.496   5.217  0.5431 -2.5947  2.0854
11010SOL     OW35471   4.898   3.834   5.989 -0.0007  0.5264 -0.1302
11010SOL    HW135472   4.813   3.878   5.999 -0.0018  0.4309  0.3221
11010SOL    HW235473   4.879   3.741   5.998  0.1686  0.5122  0.0993
11011SOL     OW35474   4.014   1.009   8.522 -0.9795  0.2330  0.1683
11011SOL    HW135475   3.991   1.102   8.530  1.8672  0.9515  1.1672
11011SOL    HW235476   3.987   0.971   8.606 -0.1481  0.6682  0.6414
11012SOL     OW35477   4.759   6.611   5.315  0.2885 -0.5852  0.0406
11012SOL    HW135478   4.773   6.521   5.286 -2.4583 -0.5312 -1.8247
11012SOL    HW235479   4.783   6.664   5.239  2.6515  0.4290  1.3730
11013SOL     OW35480   6.267   1.736   8.318  0.5628 -0.7178  0.2212
11013SOL    HW135481   6.337   1.784   8.364  1.4638 -1.1232 -0.6777
11013SOL    HW235482   6.188   1.755   8.368  0.6653  2.5523 -0.6649
11014SOL     OW35483   7.023   9.277   1.160 -0.6408  0.2147 -0.2573
11014SOL    HW135484   7.059   9.189   1.167  1.3045  0.9483 -0.4245
11014SOL    HW235485   7.060   9.313   1.079 -0.4812  1.5524  0.3682
11015SOL     OW35486   1.708   3.692   8.262  0.7088  0.0975 -0.2225
11015SOL    HW135487   1.652   3.681   8.186  1.3104  1.3286 -0.8700
11015SOL    HW235488   1.766   3.616   8.261  0.4565 -0.0886 -0.7620
11016SOL     OW35489   8.683   3.010   7.932 -0.0918  0.2218 -0.1908
11016SOL    HW135490   8.602   3.017   7.983  0.4009  0.3313  0.6012
11016SOL    HW235491   8.667   2.936   7.873 -0.6468  0.0258  0.1877
11017SOL     OW35492   7.756   6.949   5.825  0.1929  0.3960 -0.3860
11017SOL    HW135493   7.749   6.942   5.730  1.0878 -3.9040 -0.3349
11017SOL    HW235494   7.666   6.960   5.856  0.0535  4.2402 -1.6457
11018SOL     OW35495  10.148   7.397   7.897  0.0046  0.1727  0.1293
11018SOL    HW135496  10.124   7.377   7.806 -0.1365 -0.7231  0.3489
11018SOL    HW235497  10.238   7.368   7.905 -0.4593 -1.2135  0.6791
11019SOL     OW35498   5.569   3.383   1.636 -0.1294 -0.5756  0.4800
11019SOL    HW135499   5.486   3.405   1.593 -0.5085 -1.6898  0.6191
11019SOL    HW235500   5.581   3.452   1.702 -0.8770 -0.3303  0.3643
11020SOL     OW35501   0.125  10.346   6.035 -0.3378 -0.3416  0.3106
11020SOL    HW135502   0.041  10.390   6.050  0.1780  0.7520  0.0935
11020SOL    HW235503   0.107  10.254   6.052 -1.6321 -0.1522  0.0935
11021SOL     OW35504   4.572   7.060  10.343  0.3649  0.0312  0.2033
11021SOL    HW135505   4.507   7.002  10.304  0.2520  0.5622 -0.4233
11021SOL    HW235506   4.551   7.146  10.308  1.5433  0.1701 -0.1958
11022SOL     OW35507   2.924   5.657   3.229 -0.2576  0.2525 -0.3287
11022SOL    HW135508   2.969   5.725   3.279  0.6432 -0.2488 -0.4535
11022SOL    HW235509   2.936   5.577   3.280 -0.9792  0.1054 -0.3809
11023SOL     OW35510   9.781  10.487   9.016 -0.8314 -0.7234 -0.0459
11023SOL    HW135511   9.873  10.488   9.043 -1.1344 -1.3552  1.0548
11023SOL    HW235512   9.734  10.450   9.091 -2.1755  0.9234 -0.0234
11024SOL     OW35513   2.230   8.785   2.026  0.4158  0.1026 -0.6059
11024SOL    HW135514   2.281   8.862   2.001  0.2387  0.2245 -0.5973
11024SOL    HW235515   2.291   8.712   2.016  0.7912  0.3195  0.0624
11025SOL     OW35516   6.182   4.453   3.732 -0.3951  1.1967  0.0364
11025SOL    HW135517   6.180   4.405   3.649 -1.0140  1.9940 -0.4259
11025SOL    HW235518   6.095   4.491   3.740 -1.0036 -0.4586  2.0415
11026SOL     OW35519   3.528   3.059   3.765  0.3852 -0.1943 -0.5158
11026SOL    HW135520   3.615   3.018   3.771  0.1338 -1.0312 -2.0648
11026SOL    HW235521   3.546   3.153   3.764  1.2423 -0.3477 -0.4874
11027SOL     OW35522   6.516   4.252   4.955 -0.2876  0.1764 -0.0937
11027SOL    HW135523   6.611   4.255   4.961 -0.2736 -0.7146  0.2730
11027SOL    HW235524   6.499   4.206   4.872 -0.4132  0.9928 -0.5343
11028SOL     OW35525   6.364   4.891   3.626  0.5834  0.6198  0.4725
11028SOL    HW135526   6.392   4.802   3.647 -0.2503 -0.1895 -1.5726
11028SOL    HW235527   6.283   4.903   3.678 -0.0756 -0.3681 -0.2963
11029SOL     OW35528   3.691   0.974   9.572  0.2151 -0.1004 -0.4718
11029SOL    HW135529   3.764   0.913   9.568 -0.5027 -0.9834 -0.3548
11029SOL    HW235530   3.718   1.040   9.636  0.5550 -0.8934  0.2096
11030SOL     OW35531   1.402   3.352   9.450  0.1776  0.1610  0.0081
11030SOL    HW135532   1.358   3.418   9.503  0.4609  2.0234 -1.8993
11030SOL    HW235533   1.336   3.285   9.434 -1.5769  2.0747 -1.4138
11031SOL     OW35534   2.669   1.261   7.577 -0.1043 -0.3468  0.2936
11031SOL    HW135535   2.754   1.305   7.566 -0.5519  1.0270  1.8880
11031SOL    HW235536   2.686   1.196   7.645  0.0707 -1.3158 -0.6528
11032SOL     OW35537   7.773   3.525   6.929  0.3622  0.4794 -0.6838
11032SOL    HW135538   7.756   3.518   7.023  0.1635  0.6680 -0.7035
11032SOL    HW235539   7.856   3.481   6.916 -0.4071 -1.0304 -0.6686
11033SOL     OW35540   9.283   4.388   0.339 -0.0512  0.0091 -0.2137
11033SOL    HW135541   9.204   4.432   0.370  0.6701  0.3245  1.2511
11033SOL    HW235542   9.354   4.430   0.387  1.2069  0.8296 -2.6443
11034SOL     OW35543   2.907   3.337   5.135 -0.4322  0.2431 -0.3570
11034SOL    HW135544   2.889   3.245   5.158  0.6672 -0.0885 -0.7548
11034SOL    HW235545   2.822   3.380   5.141 -0.7811 -0.5644  0.9205
11035SOL     OW35546   8.411   9.642   5.006 -0.1314 -0.3214 -0.2571
11035SOL    HW135547   8.500   9.629   5.039 -1.4781 -0.3031  4.0071
11035SOL    HW235548   8.408   9.735   4.983  0.6175  0.0265  0.9246
11036SOL     OW35549   6.113   4.629   8.231 -0.3561 -0.6927 -0.3888
11036SOL    HW135550   6.063   4.626   8.313  0.4257 -0.2358  0.1168
11036SOL    HW235551   6.051   4.660   8.166 -1.4878 -2.7176 -0.3621
11037SOL     OW35552   6.280   8.162   8.590 -0.2185 -0.5854  0.2990
11037SOL    HW135553   6.293   8.068   8.603  1.6584 -0.3876  0.0191
11037SOL    HW235554   6.350   8.204   8.640 -2.0987  0.7914  1.9738
11038SOL     OW35555   2.724   1.777   1.156  0.5460  0.2560 -0.1712
11038SOL    HW135556   2.629   1.785   1.153  0.4699 -0.4081  0.2949
11038SOL    HW235557   2.755   1.864   1.181  0.2925  1.4579 -3.4388
11039SOL     OW35558   2.923   3.324   0.660 -0.0114  0.1185  0.3788
11039SOL    HW135559   2.955   3.394   0.604 -0.2080 -0.4569 -0.4711
11039SOL    HW235560   2.878   3.369   0.731  1.3187  0.8910  0.7615
11040SOL     OW35561   7.514   0.710   0.346  0.3365 -0.2307  0.7710
11040SOL    HW135562   7.583   0.647   0.368 -0.2293 -0.7884  0.9746
11040SOL    HW235563   7.561   0.785   0.311  1.1150 -0.2576  1.7024
11041SOL     OW35564   7.837   6.063   8.977  0.4085  0.6355  0.2109
11041SOL    HW135565   7.843   5.979   8.931  1.6481  0.8565 -0.0564
11041SOL    HW235566   7.863   6.128   8.912  0.9361  1.0752  0.8473
11042SOL     OW35567   3.439   7.474   0.873 -0.1337  0.6050  0.7797
11042SOL    HW135568   3.479   7.387   0.881 -0.8003  0.2223  0.0356
11042SOL    HW235569   3.502   7.525   0.821 -0.2818  0.2181  0.2207
11043SOL     OW35570   5.163   1.190  10.186  0.0594 -0.4119 -0.5826
11043SOL    HW135571   5.109   1.152  10.256  0.0101  0.7462  0.0471
11043SOL    HW235572   5.253   1.173  10.213  0.0401  0.0250 -0.2299
11044SOL     OW35573   8.366   9.930   8.608  0.3467 -0.1591  0.1585
11044SOL    HW135574   8.449   9.884   8.615 -0.6223 -1.8461  1.5317
11044SOL    HW235575   8.389  10.021   8.588  2.4575 -0.6827  0.0401
11045SOL     OW35576   2.100   3.965   4.242  0.0911  0.5398 -0.1982
11045SOL    HW135577   2.135   4.016   4.315 -1.9741  0.6820  0.7539
11045SOL    HW235578   2.077   4.031   4.176  1.4367  0.4527 -0.7874
11046SOL     OW35579   6.111   6.479   0.945  0.5056  0.1700  0.5580
11046SOL    HW135580   6.046   6.549   0.945  1.2971  0.9038  0.5734
11046SOL    HW235581   6.152   6.484   0.859  0.1645 -0.6623  0.3328
11047SOL     OW35582   8.636   5.936   6.785  0.1468  0.1831  0.3072
11047SOL    HW135583   8.715   5.927   6.731  0.1776  1.4570  0.1144
11047SOL    HW235584   8.571   5.975   6.727 -0.7339 -1.1236  0.3898
11048SOL     OW35585   9.464   7.912   9.178  0.2094 -0.0278 -0.0762
11048SOL    HW135586   9.520   7.938   9.105  0.5021  1.0231  0.5040
11048SOL    HW235587   9.395   7.859   9.138  1.0271 -0.4639 -0.9422
11049SOL     OW35588   0.818   3.262   8.620  0.3833 -0.4728  0.2762
11049SOL    HW135589   0.783   3.182   8.659 -2.4220 -0.2067 -1.4076
11049SOL    HW235590   0.856   3.235   8.537  0.2263 -0.2083  0.1127
11050SOL     OW35591   2.176   7.238   5.691 -0.0001  0.2450 -0.2377
11050SOL    HW135592   2.173   7.285   5.608 -0.5479  0.5304 -0.0570
11050SOL    HW235593   2.224   7.158   5.671 -1.6746 -0.5630 -1.2828
11051SOL     OW35594   2.045   7.910   0.105 -0.1144 -0.1491 -0.1222
11051SOL    HW135595   2.030   7.998   0.139  1.1549 -0.4909  1.4649
11051SOL    HW235596   1.963   7.863   0.123 -0.5928  0.5442 -0.4596
11052SOL     OW35597   8.113   0.557   1.503  0.9223 -0.0525 -0.0112
11052SOL    HW135598   8.021   0.573   1.485  0.6463  0.4228  1.7066
11052SOL    HW235599   8.124   0.462   1.494  0.1540 -0.1718  0.3041
11053SOL     OW35600   3.814   8.392   8.391  0.2814 -0.4567 -0.6590
11053SOL    HW135601   3.738   8.334   8.402  0.1045 -0.0141  0.6156
11053SOL    HW235602   3.781   8.466   8.340 -0.1438 -0.2952 -0.1617
11054SOL     OW35603   6.834   1.443   2.278  0.0004  0.5322  0.1043
11054SOL    HW135604   6.921   1.440   2.318 -0.4705 -0.4875  1.1114
11054SOL    HW235605   6.774   1.439   2.352 -0.9961 -4.4108 -0.5939
11055SOL     OW35606   3.033   1.939   5.785 -0.0100 -0.2604 -0.3372
11055SOL    HW135607   3.033   1.901   5.873  0.5954  0.9028  0.1848
11055SOL    HW235608   3.001   2.029   5.798  1.9632  0.5940 -0.9681
11056SOL     OW35609   7.568   3.384   7.443  0.3161  0.4209 -0.0921
11056SOL    HW135610   7.566   3.448   7.372 -2.0068  0.7337  0.1803
11056SOL    HW235611   7.480   3.388   7.482  0.8026 -1.3652  1.3384
11057SOL     OW35612   6.892   8.812   4.474 -0.1416  0.5225  0.4357
11057SOL    HW135613   6.986   8.798   4.487  0.0051 -0.2369 -1.2543
11057SOL    HW235614   6.873   8.772   4.390 -2.1950 -0.2167  1.1919
11058SOL     OW35615   7.738   7.515   7.704  0.1263 -0.3605  0.1490
11058SOL    HW135616   7.671   7.552   7.647  0.6049  0.9608  0.4112
11058SOL    HW235617   7.812   7.499   7.646  0.1069 -0.3796  0.1297
11059SOL     OW35618   9.169   6.339   4.007  0.0421 -0.0792  0.0890
11059SOL    HW135619   9.223   6.397   4.060 -1.8172 -1.2756  3.6453
11059SOL    HW235620   9.205   6.251   4.022 -1.2179 -0.5754  0.3458
11060SOL     OW35621   2.413   7.257   3.757 -0.1166 -0.1698 -0.1436
11060SOL    HW135622   2.335   7.205   3.737 -0.0233 -0.6294  0.6393
11060SOL    HW235623   2.378   7.336   3.800 -0.1048 -1.1812  1.8809
11061SOL     OW35624   5.518   4.575  10.400 -0.2732 -0.4756 -0.1374
11061SOL    HW135625   5.522   4.553  10.307  1.1902  0.5366 -0.3388
11061SOL    HW235626   5.594   4.532  10.439 -1.2288 -1.4244  0.7304
11062SOL     OW35627   0.636   5.001   3.648 -0.4389  0.3119  0.2052
11062SOL    HW135628   0.675   4.948   3.579  0.8358  0.2912  0.9164
11062SOL    HW235629   0.597   5.076   3.603  0.0386  0.1026 -0.5608
11063SOL     OW35630   2.893   5.766   7.373  0.0850  0.2680  0.2711
11063SOL    HW135631   2.976   5.790   7.413 -0.3452 -0.4420  1.6454
11063SOL    HW235632   2.827   5.787   7.440 -0.4379 -3.5057  1.1509
11064SOL     OW35633   1.213   2.240   2.315 -0.5939  0.2637  0.3827
11064SOL    HW135634   1.202   2.227   2.221 -2.5809  2.1328  0.2859
11064SOL    HW235635   1.166   2.321   2.334 -1.6090 -0.8596  3.2339
11065SOL     OW35636   2.659   8.672   4.394 -0.1083  0.4369 -0.2537
11065SOL    HW135637   2.653   8.649   4.301  1.1399 -0.0304 -0.2435
11065SOL    HW235638   2.741   8.721   4.401 -0.7816  1.5119  0.4118
11066SOL     OW35639   9.249   1.146   5.091  0.1983  0.0056  0.5470
11066SOL    HW135640   9.155   1.127   5.086  0.1363  0.4356 -0.1325
11066SOL    HW235641   9.290   1.069   5.051  0.2179 -0.7017  1.8599
11067SOL     OW35642   3.573   9.158   4.291 -0.4901 -0.1458 -0.5512
11067SOL    HW135643   3.618   9.083   4.329  0.1263  1.3270  1.8370
11067SOL    HW235644   3.641   9.204   4.242 -0.0831  0.4113  0.4896
11068SOL     OW35645   9.600   4.054   5.079  0.0686 -0.5145 -1.0199
11068SOL    HW135646   9.605   4.127   5.141 -0.1056 -1.4894  0.2065
11068SOL    HW235647   9.544   4.085   5.009 -1.6383 -0.1108  0.4389
11069SOL     OW35648   2.000   0.865   8.717  0.3259 -1.1910 -0.0815
11069SOL    HW135649   2.053   0.821   8.651 -0.8347  0.0407 -1.9485
11069SOL    HW235650   1.922   0.894   8.669  0.1013  1.0513  1.4804
11070SOL     OW35651   2.353   6.155   5.518  0.2559 -0.2534 -0.3325
11070SOL    HW135652   2.366   6.146   5.423  1.2383  0.7593 -0.3156
11070SOL    HW235653   2.328   6.247   5.529  1.8969  0.1151  0.5508
11071SOL     OW35654   7.197   2.575   1.329  0.2362 -0.1487 -0.0741
11071SOL    HW135655   7.103   2.559   1.318  0.1190 -0.9315  1.6507
11071SOL    HW235656   7.214   2.657   1.283 -1.6863  1.0280  1.1863
11072SOL     OW35657   6.642   7.407   6.484 -0.3748  0.9619 -0.1712
11072SOL    HW135658   6.735   7.427   6.492 -0.3516  0.2840  1.4761
11072SOL    HW235659   6.599   7.473   6.538 -0.6757 -0.0424  0.8477
11073SOL     OW35660   1.994   7.034   5.501 -0.3289 -0.0137 -0.6317
11073SOL    HW135661   1.975   6.944   5.526 -2.8988 -0.1952 -2.6769
11073SOL    HW235662   1.989   7.084   5.582  0.6326 -1.6138  0.4513
11074SOL     OW35663   9.955   2.650   0.243  0.4524 -0.1224  0.1443
11074SOL    HW135664   9.881   2.641   0.183  0.4265  0.1019  0.1394
11074SOL    HW235665   9.931   2.599   0.320  0.4213 -0.2924  0.0219
11075SOL     OW35666   3.177   3.481   9.972 -0.4840  0.3045  0.3703
11075SOL    HW135667   3.086   3.463   9.950 -0.2231 -1.0494  0.3139
11075SOL    HW235668   3.199   3.415  10.038 -0.6949  3.0766  3.4464
11076SOL     OW35669   3.579   3.301   2.481 -0.5669 -0.1478 -0.2271
11076SOL    HW135670   3.644   3.311   2.412 -0.2805 -3.2378 -0.5575
11076SOL    HW235671   3.629   3.301   2.563 -0.5735  0.7890 -0.2191
11077SOL     OW35672  10.101   7.613   3.585 -0.2296 -0.0718  0.3372
11077SOL    HW135673  10.139   7.695   3.615 -0.6916 -0.0674  0.9308
11077SOL    HW235674  10.175   7.553   3.579 -0.0584  0.0699  1.0217
11078SOL     OW35675   0.871   6.359   8.220 -0.3556  0.3138 -0.2948
11078SOL    HW135676   0.814   6.297   8.174  0.9424 -0.7972 -0.4500
11078SOL    HW235677   0.950   6.363   8.166  1.0369 -0.6653  1.5522
11079SOL     OW35678   3.471   5.980   5.589 -0.6163  0.2289 -0.4524
11079SOL    HW135679   3.440   5.889   5.591  2.4422 -0.9784 -1.0678
11079SOL    HW235680   3.486   6.002   5.681  1.8848 -1.2917 -0.3770
11080SOL     OW35681   3.396   4.146   5.899  0.4622  0.0958 -0.1313
11080SOL    HW135682   3.391   4.238   5.924 -0.8291 -0.1416  0.5634
11080SOL    HW235683   3.378   4.146   5.805  0.9226  0.5843 -0.2251
11081SOL     OW35684   9.268   2.495   5.715  0.0326  0.4914 -0.1296
11081SOL    HW135685   9.236   2.545   5.640 -1.3521  2.4719  1.6329
11081SOL    HW235686   9.358   2.525   5.727  0.4180 -0.1858 -1.2410
11082SOL     OW35687   4.515   9.392   5.385 -0.0951  0.5966 -0.4566
11082SOL    HW135688   4.586   9.421   5.328  2.4475 -2.0434  1.1290
11082SOL    HW235689   4.509   9.298   5.370 -2.9723  0.6103 -0.0832
11083SOL     OW35690   3.591   5.657   4.141 -0.0355  0.3209 -0.1052
11083SOL    HW135691   3.629   5.600   4.073  0.4899 -0.7421  1.0433
11083SOL    HW235692   3.498   5.662   4.119  0.0510 -0.3524 -0.6706
11084SOL     OW35693   2.119   0.191   1.778 -0.2578 -0.4845  0.0524
11084SOL    HW135694   2.052   0.125   1.761 -0.0769 -1.0172  1.2642
11084SOL    HW235695   2.097   0.225   1.865 -0.5207  1.2885 -0.6786
11085SOL     OW35696   8.074   3.150   7.671  0.4743  0.1474  0.3834
11085SOL    HW135697   8.051   3.104   7.590 -0.2928  0.2646  0.5189
11085SOL    HW235698   8.167   3.170   7.662  1.3640 -3.0889  1.1313
11086SOL     OW35699   0.809   5.364   5.765  0.3254  0.2035 -0.1350
11086SOL    HW135700   0.754   5.289   5.745  1.4020 -0.2961 -1.3341
11086SOL    HW235701   0.747   5.431   5.796 -0.6722 -1.0531  0.6899
11087SOL     OW35702   5.478  10.421   0.653 -0.2185 -0.3239  0.0399
11087SOL    HW135703   5.460  10.515   0.658 -0.5162 -0.2577 -1.6008
11087SOL    HW235704   5.395  10.380   0.677  0.0125 -0.1842  1.1046
11088SOL     OW35705   8.611   8.770   7.594  0.3566 -0.3405  0.5321
11088SOL    HW135706   8.588   8.855   7.633  0.8785  0.1651 -0.2293
11088SOL    HW235707   8.706   8.773   7.585  0.3287 -0.8171  0.0512
11089SOL     OW35708   5.882   4.323   8.630  0.5796 -0.2820  0.1277
11089SOL    HW135709   5.877   4.227   8.628 -1.7877 -0.1980 -0.5342
11089SOL    HW235710   5.971   4.343   8.601  0.8315 -2.2589 -0.6060
11090SOL     OW35711   1.583   3.247   5.639  0.2816 -0.4402  0.1705
11090SOL    HW135712   1.524   3.172   5.642 -0.2719 -0.1289 -1.4902
11090SOL    HW235713   1.527   3.322   5.654  0.5293 -0.2496  0.1525
11091SOL     OW35714   8.439  10.022   5.566 -0.0870 -0.2490 -0.3226
11091SOL    HW135715   8.396  10.102   5.595  0.6375  0.0565 -0.0624
11091SOL    HW235716   8.508  10.051   5.507 -1.0205 -0.8165 -1.7424
11092SOL     OW35717   6.909   7.986   4.260 -0.3452 -0.4812 -0.2977
11092SOL    HW135718   6.875   7.973   4.348  0.9637  0.4810  0.4038
11092SOL    HW235719   6.836   7.968   4.202 -1.6513  0.2639  1.0582
11093SOL     OW35720   8.574   5.183  10.341 -0.6774 -0.8962 -0.2899
11093SOL    HW135721   8.520   5.136  10.278 -1.8377  0.4079 -0.3247
11093SOL    HW235722   8.623   5.246  10.288  0.7844 -1.9401 -0.2332
11094SOL     OW35723   0.792   2.426   1.403 -0.1779 -0.1746  0.4154
11094SOL    HW135724   0.821   2.344   1.362  1.2116  1.0385 -1.2154
11094SOL    HW235725   0.701   2.411   1.427  0.5997 -2.8462  2.0192
11095SOL     OW35726   8.503   2.567  10.109  0.3243 -0.2691  0.0734
11095SOL    HW135727   8.577   2.589  10.053 -0.0836 -0.6135 -0.6162
11095SOL    HW235728   8.437   2.533  10.049  0.3149 -1.8036  0.9095
11096SOL     OW35729   3.553   0.355   7.134 -0.1010 -0.1383  0.2916
11096SOL    HW135730   3.464   0.351   7.100  0.1017 -0.9573 -0.1823
11096SOL    HW235731   3.543   0.353   7.229 -0.5678 -1.1690  0.2400
11097SOL     OW35732   9.211   4.304   1.160  0.7851  0.0804 -0.0066
11097SOL    HW135733   9.208   4.351   1.077  0.6859 -0.1124 -0.1143
11097SOL    HW235734   9.237   4.215   1.135 -1.6058 -0.6366 -0.1266
11098SOL     OW35735   2.138   7.385   2.441 -0.1413  0.0106  0.1156
11098SOL    HW135736   2.155   7.443   2.515 -0.2616  0.6465 -0.3449
11098SOL    HW235737   2.092   7.310   2.479 -0.9074  0.6914  0.5810
11099SOL     OW35738   9.573   3.914  10.172 -0.2325 -0.0340 -0.2738
11099SOL    HW135739   9.603   3.925  10.262 -0.4390 -0.7004 -0.1196
11099SOL    HW235740   9.497   3.972  10.165 -0.1316  0.1274 -0.0665
11100SOL     OW35741   1.089   8.659   1.748  0.0189 -0.1324  0.1397
11100SOL    HW135742   1.019   8.595   1.740 -1.1547  1.1000  0.2043
11100SOL    HW235743   1.116   8.653   1.839  0.3053 -0.8964  0.0176
11101SOL     OW35744   3.867   9.807   5.307  0.2735  0.3043  0.0406
11101SOL    HW135745   3.896   9.875   5.367  0.6733  0.4340 -0.2958
11101SOL    HW235746   3.927   9.734   5.323  1.2733  0.8239 -1.1605
11102SOL     OW35747   3.094   3.101   3.347  0.4268 -0.2659 -0.0554
11102SOL    HW135748   3.045   3.181   3.361 -0.6816 -0.8245 -0.6048
11102SOL    HW235749   3.157   3.098   3.419  0.8952  1.3770 -0.3559
11103SOL     OW35750   6.324   3.091   9.132 -0.4284  0.0390  0.3854
11103SOL    HW135751   6.257   3.026   9.109  1.2740 -1.2459 -1.2313
11103SOL    HW235752   6.404   3.040   9.145  1.2819  1.8066 -2.1886
11104SOL     OW35753   2.242   5.664   1.217  0.2890  0.2269 -0.1866
11104SOL    HW135754   2.297   5.607   1.163  0.4418  1.0127 -0.8809
11104SOL    HW235755   2.297   5.685   1.293  0.9869  1.0243 -0.8859
11105SOL     OW35756   0.186   6.401   2.872 -0.4668 -0.8289 -0.5119
11105SOL    HW135757   0.237   6.442   2.802 -1.4278 -1.7662 -1.8122
11105SOL    HW235758   0.203   6.455   2.949 -1.6756  2.0034 -2.1174
11106SOL     OW35759   2.774   5.231  10.308  1.0351  0.1523  0.8420
11106SOL    HW135760   2.734   5.272  10.385 -1.4538 -0.0083 -0.2496
11106SOL    HW235761   2.788   5.304  10.247 -0.4593 -0.1454  0.0965
11107SOL     OW35762   7.177   5.253   7.214 -0.0984  0.4870 -0.0909
11107SOL    HW135763   7.145   5.273   7.302 -0.0814 -0.1891  0.0749
11107SOL    HW235764   7.129   5.174   7.189  0.7394  0.0195 -0.2260
11108SOL     OW35765   8.442   4.805   4.876 -0.2351 -0.0511 -0.2116
11108SOL    HW135766   8.435   4.711   4.893 -2.6796 -0.5625 -3.1863
11108SOL    HW235767   8.532   4.817   4.846  0.4913 -1.1596  1.4185
11109SOL     OW35768   0.429   8.947   4.106  0.6473  0.4287  0.4278
11109SOL    HW135769   0.345   8.982   4.135  0.1478 -0.3148 -0.0905
11109SOL    HW235770   0.465   8.904   4.184  1.3212  2.1185  1.1055
11110SOL     OW35771   1.768   0.181   3.767  0.3512 -0.1870  0.0075
11110SOL    HW135772   1.711   0.104   3.766 -3.3535  2.1251  2.6861
11110SOL    HW235773   1.811   0.178   3.853 -0.5507  1.0592  0.5448
11111SOL     OW35774   9.801   4.072   2.885  0.4028  0.3482 -0.1037
11111SOL    HW135775   9.765   4.128   2.816 -2.7802  0.3269  1.3806
11111SOL    HW235776   9.827   4.132   2.954 -0.0069  0.1656  0.2086
11112SOL     OW35777   4.981   6.181   0.360  0.0706 -0.6353 -0.4908
11112SOL    HW135778   4.979   6.176   0.264 -1.3386 -1.2957 -0.4546
11112SOL    HW235779   4.930   6.259   0.381  0.5115 -0.4021 -0.2822
11113SOL     OW35780  10.146   0.585   8.914 -0.2657  0.6801 -0.1554
11113SOL    HW135781  10.145   0.637   8.833 -0.6247  1.1596  0.1508
11113SOL    HW235782  10.066   0.611   8.960 -1.5397 -1.6006 -0.8954
11114SOL     OW35783  10.183   7.074   3.158  0.2126 -0.5028  0.1155
11114SOL    HW135784  10.198   7.001   3.218  3.1766 -0.0783  0.0506
11114SOL    HW235785  10.214   7.151   3.206  2.1195 -0.0827 -1.6413
11115SOL     OW35786   6.613   4.629   2.808  0.0489 -0.3640  0.3363
11115SOL    HW135787   6.548   4.695   2.782 -0.0332 -1.0072 -1.1744
11115SOL    HW235788   6.686   4.680   2.843 -0.0247  0.5317 -0.7806
11116SOL     OW35789  10.054   3.279   8.361 -0.0631  0.3011  0.1764
11116SOL    HW135790  10.120   3.343   8.386 -0.0463 -0.0970  1.2037
11116SOL    HW235791   9.970   3.320   8.383 -0.0438 -0.0918  1.0166
11117SOL     OW35792  10.268   7.115   6.069  0.2435  0.1096  0.6088
11117SOL    HW135793  10.194   7.159   6.110  0.4608  0.6098  0.4684
11117SOL    HW235794  10.345   7.166   6.096  0.6264 -0.8162  1.3424
11118SOL     OW35795   5.738   5.151  10.364  0.1712 -0.2984 -0.1201
11118SOL    HW135796   5.728   5.172  10.271 -1.7378 -1.6813 -0.2940
11118SOL    HW235797   5.736   5.235  10.408  1.7844  0.4336 -1.3568
11119SOL     OW35798   5.515   8.025   0.635 -0.0019  0.0945  0.0881
11119SOL    HW135799   5.516   7.939   0.678 -0.1291 -0.1735 -0.4390
11119SOL    HW235800   5.564   8.012   0.554  1.6551  1.0108  0.9112
11120SOL     OW35801   3.411  10.044   4.769 -0.3461 -0.0248  0.4653
11120SOL    HW135802   3.359  10.102   4.824  1.5216  0.2780  2.0090
11120SOL    HW235803   3.496  10.088   4.761  0.1819 -1.1847 -0.7397
11121SOL     OW35804   5.105   6.045   1.751  0.5542  0.1163 -0.3672
11121SOL    HW135805   5.082   5.966   1.702  0.8261 -0.9007  1.0861
11121SOL    HW235806   5.035   6.054   1.816  1.4951  0.0043  0.6828
11122SOL     OW35807   2.979   2.382   1.266 -0.5273  0.3600 -0.0431
11122SOL    HW135808   3.000   2.324   1.339  3.2362  1.7745  0.2268
11122SOL    HW235809   2.969   2.468   1.305  1.2516  1.0894 -1.0824
11123SOL     OW35810   9.160   6.979   9.833  0.2151 -0.6722  0.5814
11123SOL    HW135811   9.167   6.886   9.854 -1.6039 -0.6062  1.6040
11123SOL    HW235812   9.070   7.002   9.852  0.2121  0.9762 -1.1244
11124SOL     OW35813   8.779   1.419   0.297  0.4047  0.5447  0.0538
11124SOL    HW135814   8.821   1.358   0.237  0.0932  0.5607 -0.1850
11124SOL    HW235815   8.813   1.505   0.272 -1.0670  0.7820 -1.3089
11125SOL     OW35816   7.543   3.051   2.530 -0.4903 -0.5283 -0.0623
11125SOL    HW135817   7.618   3.093   2.488 -0.2076  1.3204  2.0670
11125SOL    HW235818   7.481   3.034   2.459  2.0736 -2.6039 -1.9701
11126SOL     OW35819  10.192  10.174   2.092  0.2218 -0.2373 -0.2654
11126SOL    HW135820  10.111  10.215   2.123 -0.3360 -0.8702 -0.8291
11126SOL    HW235821  10.220  10.119   2.165  0.8026  0.8759  0.3740
11127SOL     OW35822  10.220   4.167   0.765  0.0456 -0.2117 -0.4561
11127SOL    HW135823  10.242   4.217   0.844  0.3139 -0.4319 -0.3904
11127SOL    HW235824  10.303   4.160   0.718  0.6838 -2.9544  0.8553
11128SOL     OW35825   9.478   8.113   7.934 -0.2755  0.7359 -0.1820
11128SOL    HW135826   9.559   8.117   7.884 -0.3371  0.3613 -0.3195
11128SOL    HW235827   9.425   8.047   7.888 -0.0506 -0.1498  0.7790
11129SOL     OW35828  10.422   5.780   2.459  0.0831  0.3587  0.7420
11129SOL    HW135829  10.509   5.820   2.456 -0.1654  0.8722  0.0787
11129SOL    HW235830  10.366   5.842   2.412 -0.5668 -0.1526  0.8332
11130SOL     OW35831   2.881   4.472   5.422  0.3001  0.0357  0.7005
11130SOL    HW135832   2.913   4.514   5.342 -0.3541 -1.2455 -0.2790
11130SOL    HW235833   2.926   4.387   5.423  0.1492 -0.0407  1.6018
11131SOL     OW35834   6.905   4.365   0.538 -0.1455  0.2323  0.0773
11131SOL    HW135835   6.866   4.418   0.607 -0.8810 -0.2029  0.0056
11131SOL    HW235836   6.999   4.384   0.544 -0.1109 -0.2594  1.5933
11132SOL     OW35837   7.192   5.132   8.366 -0.0270  0.1324 -0.4958
11132SOL    HW135838   7.155   5.130   8.278  1.9160 -1.9406 -1.3817
11132SOL    HW235839   7.178   5.043   8.400  1.2632  0.2207  0.3387
11133SOL     OW35840   4.612   2.477   0.155 -0.1399 -0.3141 -0.1685
11133SOL    HW135841   4.679   2.426   0.201  0.3117  1.7007  1.5654
11133SOL    HW235842   4.538   2.480   0.216 -0.9633 -0.6245 -1.1245
11134SOL     OW35843   9.095   3.731   0.440  0.3604 -0.3972 -0.2035
11134SOL    HW135844   9.059   3.762   0.357  2.4926 -2.9962 -2.2633
11134SOL    HW235845   9.190   3.738   0.430  0.6884  0.2002  2.4867
11135SOL     OW35846   3.085   4.867   0.396 -0.6495 -0.2524  0.0457
11135SOL    HW135847   3.178   4.890   0.402 -0.3828 -1.4453  1.0044
11135SOL    HW235848   3.054   4.911   0.317  0.1324  2.1344  0.9771
11136SOL     OW35849  10.137   4.612   8.414  0.0607 -0.2292 -0.0017
11136SOL    HW135850  10.184   4.573   8.341 -0.0067 -0.1903 -0.0653
11136SOL    HW235851  10.206   4.653   8.467  0.1380 -0.4753  0.0923
11137SOL     OW35852   7.002   2.987   9.597  0.2714  0.0302 -0.2496
11137SOL    HW135853   6.941   3.048   9.639  2.9829  2.3754  0.6474
11137SOL    HW235854   6.997   3.009   9.504 -1.9710 -1.6031 -0.6157
11138SOL     OW35855   1.107   0.592   4.305  0.2666  0.0547  0.2724
11138SOL    HW135856   1.166   0.649   4.255 -0.3799  0.4406 -0.0550
11138SOL    HW235857   1.166   0.544   4.364  1.1151 -0.8114 -1.2089
11139SOL     OW35858   7.005   7.870   7.899  0.3501 -0.0304 -0.0296
11139SOL    HW135859   6.919   7.844   7.933 -0.2525  0.2629 -1.2785
11139SOL    HW235860   7.017   7.816   7.820  1.1312  0.2255 -0.0948
11140SOL     OW35861   4.842   1.290   1.954 -0.2687 -0.1526 -0.4188
11140SOL    HW135862   4.747   1.289   1.953 -0.2934  1.1324 -0.0509
11140SOL    HW235863   4.865   1.266   2.044 -0.2127 -0.9652 -0.6344
11141SOL     OW35864   5.493   7.801   6.800 -0.4176 -0.0419 -0.1807
11141SOL    HW135865   5.535   7.717   6.779 -4.4240 -2.7209  1.3237
11141SOL    HW235866   5.455   7.831   6.718 -1.1840 -1.1811 -0.2639
11142SOL     OW35867   2.456   9.927   0.755  0.9691  0.5956  0.0643
11142SOL    HW135868   2.497   9.841   0.745 -0.0906  0.0714  0.1321
11142SOL    HW235869   2.530   9.988   0.759  1.7172 -0.0224 -2.4112
11143SOL     OW35870   1.970   1.388  10.303 -0.1027  0.4307  0.4048
11143SOL    HW135871   2.031   1.354  10.237  0.1928  1.7572 -0.0394
11143SOL    HW235872   1.999   1.348  10.385  0.8470  0.3727  0.0611
11144SOL     OW35873   3.001  10.099   7.229 -0.7940 -0.3929 -0.1017
11144SOL    HW135874   3.003  10.007   7.202 -0.4648 -0.4103 -0.0112
11144SOL    HW235875   3.087  10.115   7.267 -0.4291  0.2812 -1.1753
11145SOL     OW35876   3.513   3.126   9.235 -0.1978  0.6703  0.6187
11145SOL    HW135877   3.487   3.042   9.274  2.9491 -0.1996  1.1474
11145SOL    HW235878   3.505   3.112   9.141 -1.0386  0.2844  0.7404
11146SOL     OW35879   6.201   6.465  10.115 -0.0895  0.4132  0.5954
11146SOL    HW135880   6.200   6.420  10.031  2.0849 -0.3513  0.9388
11146SOL    HW235881   6.182   6.397  10.180 -2.3504  1.1008  0.7659
11147SOL     OW35882   1.048   7.233   7.921  0.3346  0.3072 -0.3271
11147SOL    HW135883   1.060   7.138   7.912 -0.7379  0.1348 -0.1495
11147SOL    HW235884   1.038   7.247   8.015 -2.1097  0.2055 -0.4953
11148SOL     OW35885   8.468   1.523   2.709 -0.0161 -0.6606  0.5396
11148SOL    HW135886   8.481   1.609   2.748 -3.1813 -0.6266  1.8593
11148SOL    HW235887   8.517   1.526   2.627 -1.5617  3.1601 -0.4734
11149SOL     OW35888   6.556   2.788   2.255 -0.2707  0.1944  0.2676
11149SOL    HW135889   6.623   2.841   2.298  1.0313 -0.3996 -0.9487
11149SOL    HW235890   6.547   2.711   2.312 -1.1483  1.0255  1.2960
11150SOL     OW35891   7.683   1.690   1.961 -0.0369  0.4099  0.2957
11150SOL    HW135892   7.726   1.773   1.978 -0.5695  0.6608  0.4173
11150SOL    HW235893   7.710   1.667   1.871 -0.9551  1.3810 -0.2507
11151SOL     OW35894   2.921   7.163   6.387 -0.7504 -0.0571  0.2472
11151SOL    HW135895   2.859   7.208   6.445 -2.2360 -1.5708 -0.0732
11151SOL    HW235896   2.878   7.165   6.302 -0.7791 -1.8683  0.1925
11152SOL     OW35897   8.365   9.887   4.910  0.0099  0.3192  0.4646
11152SOL    HW135898   8.400   9.913   4.824 -0.5753 -3.1251 -0.9640
11152SOL    HW235899   8.272   9.909   4.906  0.1761  1.1226  0.6915
11153SOL     OW35900   9.631   8.644   0.111  0.1921 -0.0486 -0.2037
11153SOL    HW135901   9.694   8.600   0.054  0.0926  0.5861 -0.8213
11153SOL    HW235902   9.682   8.674   0.186  0.3816 -0.6335 -0.0975
11154SOL     OW35903   8.198   1.568   6.553 -0.2135  0.4285  0.2832
11154SOL    HW135904   8.251   1.502   6.599  1.3886 -0.0773 -2.1080
11154SOL    HW235905   8.166   1.625   6.623  1.1246 -0.9267  2.1233
11155SOL     OW35906   7.550   7.723   5.886 -0.1392  0.1995  0.4746
11155SOL    HW135907   7.631   7.693   5.928  0.2410  0.8229  0.1978
11155SOL    HW235908   7.484   7.658   5.912  1.1715 -2.5382 -2.3423
11156SOL     OW35909   5.871   6.967   5.284 -0.2881  0.0402 -0.5096
11156SOL    HW135910   5.791   7.007   5.317  0.4848  1.2647 -0.0481
11156SOL    HW235911   5.934   6.977   5.356  0.3598 -0.6800 -0.9598
11157SOL     OW35912   8.404   4.941   2.827  0.0453 -0.3976 -0.2600
11157SOL    HW135913   8.405   5.036   2.825 -1.2687 -0.3177 -2.9465
11157SOL    HW235914   8.353   4.918   2.905 -0.7090  1.1471 -0.2707
11158SOL     OW35915   7.071   6.874   3.853 -0.3226  0.4315  0.3296
11158SOL    HW135916   7.063   6.846   3.762  0.6810 -0.9615  0.6399
11158SOL    HW235917   7.095   6.967   3.847  1.2165  0.0177 -0.8937
11159SOL     OW35918   2.345   1.918   7.163 -0.2304 -0.0374  0.1463
11159SOL    HW135919   2.275   1.933   7.098 -0.1230  1.0210  0.2524
11159SOL    HW235920   2.340   1.995   7.221 -0.8722 -1.3550  1.9209
11160SOL     OW35921   9.347   5.408   1.559  0.0162 -0.0848  0.5842
11160SOL    HW135922   9.429   5.365   1.586 -0.1827 -1.3918 -0.7480
11160SOL    HW235923   9.283   5.382   1.625  0.4362  0.0940  1.0681
11161SOL     OW35924   1.663   3.890   5.947  0.8268 -0.3152  0.4034
11161SOL    HW135925   1.706   3.821   5.896  1.0913  0.5649 -0.5922
11161SOL    HW235926   1.603   3.843   6.005 -2.7748 -1.3508 -3.5818
11162SOL     OW35927   6.002   9.349   1.104  0.3993  0.0338 -0.0108
11162SOL    HW135928   6.025   9.258   1.126 -1.2487 -0.4746 -0.2398
11162SOL    HW235929   5.988   9.391   1.189  0.1242 -0.2175  0.0690
11163SOL     OW35930   3.375   8.619   1.899  0.3197 -1.2860  0.0344
11163SOL    HW135931   3.417   8.623   1.986 -0.5440  0.7733  0.4218
11163SOL    HW235932   3.410   8.696   1.853 -1.4708 -0.6719 -0.3542
11164SOL     OW35933   0.041   3.969   1.887 -0.1217  0.4932 -0.0381
11164SOL    HW135934  -0.003   4.052   1.902 -1.4545 -0.2387  0.2712
11164SOL    HW235935   0.134   3.991   1.881 -0.4827  2.0357 -0.3234
11165SOL     OW35936   8.954   1.270   4.822  0.5272 -0.3432 -0.9128
11165SOL    HW135937   8.877   1.271   4.880  1.7343 -1.5807  0.8487
11165SOL    HW235938   9.002   1.349   4.845 -0.7714  1.1430 -2.9563
11166SOL     OW35939   2.645   5.950   7.018  0.1312  0.3660  0.7353
11166SOL    HW135940   2.713   6.009   7.052  1.1518  0.7551 -1.7943
11166SOL    HW235941   2.655   5.871   7.072  2.1318  0.6771  0.9185
11167SOL     OW35942   3.811   2.767   0.083  0.2151  0.1145  0.4018
11167SOL    HW135943   3.761   2.847   0.068 -0.7092 -0.6605 -0.8654
11167SOL    HW235944   3.767   2.701   0.030  2.1143 -0.8026 -0.1286
11168SOL     OW35945   0.739   2.054   3.966 -0.7816  0.0117 -0.1914
11168SOL    HW135946   0.705   2.105   3.892 -1.8215  0.0991  0.3253
11168SOL    HW235947   0.776   2.119   4.025 -0.2214 -0.0303 -0.4929
11169SOL     OW35948   1.349   4.087   6.077 -0.6055 -0.1298 -0.4860
11169SOL    HW135949   1.399   4.122   6.151 -3.5694  3.1055  0.2896
11169SOL    HW235950   1.404   4.104   6.001  0.6730  0.6452  0.5624
11170SOL     OW35951   7.788   9.623   9.778  0.1481 -0.2622 -0.3680
11170SOL    HW135952   7.762   9.632   9.870 -0.7469 -0.5562 -0.5854
11170SOL    HW235953   7.825   9.709   9.756  1.0993 -0.4357  0.4810
11171SOL     OW35954   4.500   7.623   0.182 -0.1132  0.2949  0.3959
11171SOL    HW135955   4.472   7.714   0.171  0.0566  0.2020 -0.8848
11171SOL    HW235956   4.441   7.588   0.249 -1.2670  0.8866 -0.2869
11172SOL     OW35957   1.422   6.710  10.074  0.3803  0.1343 -0.0071
11172SOL    HW135958   1.390   6.783  10.127  1.7704  0.6919  0.1287
11172SOL    HW235959   1.344   6.658  10.054 -0.1614 -0.3573  2.9254
11173SOL     OW35960   5.040   8.773   7.030 -0.3519  0.3570 -0.6296
11173SOL    HW135961   5.021   8.760   6.938  0.5184 -0.0967 -0.7623
11173SOL    HW235962   5.136   8.783   7.034 -0.2396 -0.8023  0.3345
11174SOL     OW35963   9.862   8.098   6.975  0.0302 -0.6813  0.2015
11174SOL    HW135964   9.787   8.049   7.010  0.4026  1.2012  4.1912
11174SOL    HW235965   9.938   8.059   7.019  0.9174  0.1916 -0.5185
11175SOL     OW35966   4.806  10.021   1.573  0.2414 -0.4535  0.1389
11175SOL    HW135967   4.780  10.093   1.516  2.0383  0.3825  0.3032
11175SOL    HW235968   4.849  10.063   1.647 -1.6706 -1.5316  1.9919
11176SOL     OW35969   2.531   6.562   2.864  0.1231  0.6292 -0.3855
11176SOL    HW135970   2.530   6.500   2.937 -0.4740  1.7640  0.6025
11176SOL    HW235971   2.439   6.588   2.853 -0.0525 -0.6374 -2.5567
11177SOL     OW35972   4.782   8.544   7.224 -0.0975 -0.2528  0.6743
11177SOL    HW135973   4.873   8.525   7.246  0.9982  1.3839 -1.9252
11177SOL    HW235974   4.764   8.627   7.268  1.8213  2.5918 -3.2793
11178SOL     OW35975   4.617   0.032   2.398  1.0738 -0.1195 -0.3719
11178SOL    HW135976   4.524   0.049   2.416  0.6414  0.2539 -2.6892
11178SOL    HW235977   4.619  -0.059   2.367  1.4829 -0.1165 -0.3534
11179SOL     OW35978   6.450   2.569   2.826  0.0317  0.0987  0.8673
11179SOL    HW135979   6.357   2.591   2.821  0.1617  0.5016 -0.2131
11179SOL    HW235980   6.458   2.488   2.776  0.4423  0.7576 -0.1696
11180SOL     OW35981   9.207   0.799   6.639  0.0026  0.0792  1.0531
11180SOL    HW135982   9.112   0.801   6.634 -0.1681 -0.6224  3.0269
11180SOL    HW235983   9.228   0.706   6.649  1.1929 -0.2107 -2.5822
11181SOL     OW35984   5.605   3.360   3.179  0.1442 -0.0798  0.7780
11181SOL    HW135985   5.679   3.410   3.147  0.0625  0.0174  0.7422
11181SOL    HW235986   5.530   3.394   3.131  0.1349 -0.4502  0.5222
11182SOL     OW35987   3.119   8.205   0.724 -1.0576 -0.2030  0.3669
11182SOL    HW135988   3.210   8.220   0.698 -1.0202 -0.9641  0.0138
11182SOL    HW235989   3.120   8.118   0.764 -1.3367  0.4720  1.8762
11183SOL     OW35990   0.981   6.542   2.631  0.2839 -0.4994 -0.9083
11183SOL    HW135991   1.028   6.460   2.619 -1.4289 -1.7110  0.1659
11183SOL    HW235992   1.040   6.597   2.683  2.0270 -0.4638 -2.8344
11184SOL     OW35993   7.049   3.959   8.906  0.1230 -0.0009 -0.7341
11184SOL    HW135994   6.982   3.981   8.841  0.0119  2.3485  0.0900
11184SOL    HW235995   7.018   4.001   8.987  1.3929 -0.9397  0.2701
11185SOL     OW35996   6.850   7.138   4.217 -0.3572 -0.3816  0.0056
11185SOL    HW135997   6.903   7.058   4.211  1.4815  0.8718 -2.6274
11185SOL    HW235998   6.909   7.202   4.256 -1.3317  0.1019  0.7241
11186SOL     OW35999  10.150   2.467   6.348 -0.1166 -0.2216 -0.9961
11186SOL    HW136000  10.180   2.411   6.276  0.3183 -0.5671 -0.5484
11186SOL    HW236001  10.076   2.420   6.386  0.6123 -0.7807 -0.2514
11187SOL     OW36002   2.743   8.389   4.886 -0.1026  0.3633  0.3457
11187SOL    HW136003   2.808   8.336   4.932  0.1933 -1.1042 -1.6180
11187SOL    HW236004   2.789   8.470   4.865  0.5132  0.0634  0.5103
11188SOL     OW36005   6.559   7.203   8.495  0.3528  0.2122  0.1053
11188SOL    HW136006   6.521   7.140   8.556  0.4490 -0.9806 -1.0261
11188SOL    HW236007   6.640   7.232   8.538 -1.2897  2.1597  2.1506
11189SOL     OW36008   3.842   2.186   6.256 -0.2451 -0.5437  0.8114
11189SOL    HW136009   3.775   2.122   6.278 -0.3135 -1.1353 -0.9227
11189SOL    HW236010   3.813   2.224   6.173  0.4226  0.8559  1.1826
11190SOL     OW36011   8.372   7.421   7.257 -0.0073 -0.0703 -0.3585
11190SOL    HW136012   8.301   7.466   7.303  0.0817 -0.4407  0.1509
11190SOL    HW236013   8.443   7.485   7.255  1.1279 -1.0040  2.8107
11191SOL     OW36014   8.702  10.275  10.390 -0.0912 -0.0445 -0.3458
11191SOL    HW136015   8.637  10.207  10.374 -1.9978  1.2367  1.2686
11191SOL    HW236016   8.749  10.246  10.468 -1.3988  0.7401  0.7801
11192SOL     OW36017   5.127   8.919   0.152  0.4894 -0.0840  0.4087
11192SOL    HW136018   5.055   8.958   0.103  0.6775  1.4036  1.2487
11192SOL    HW236019   5.103   8.827   0.162 -1.7190  0.5332  1.3624
11193SOL     OW36020   3.229   7.761   1.388  0.1655  0.5622  0.1687
11193SOL    HW136021   3.202   7.796   1.473 -1.7209  1.8622 -0.8874
11193SOL    HW236022   3.158   7.701   1.363  0.1817  0.9632 -0.9085
11194SOL     OW36023   1.371   2.266   4.153  0.0015 -0.0263  0.1248
11194SOL    HW136024   1.348   2.326   4.224  0.2844  1.0159 -0.6396
11194SOL    HW236025   1.301   2.200   4.155 -1.1953  1.1907  0.0064
11195SOL     OW36026  10.233   9.503   6.434  0.2906  0.4170  0.5524
11195SOL    HW136027  10.210   9.438   6.368 -0.0969  1.2542 -0.1489
11195SOL    HW236028  10.320   9.475   6.465  0.7265  0.3225 -0.7000
11196SOL     OW36029   5.199   0.438   0.563 -0.2935 -0.0160 -0.7290
11196SOL    HW136030   5.272   0.466   0.507 -1.4788  1.6060 -1.5557
11196SOL    HW236031   5.238   0.429   0.650  1.4551 -1.9471 -1.6283
11197SOL     OW36032  10.054   3.675   2.357 -0.3996 -0.2526  0.6979
11197SOL    HW136033  10.148   3.660   2.354 -0.1441  1.2787 -2.0847
11197SOL    HW236034  10.045   3.764   2.390 -0.6543  0.5224 -1.3177
11198SOL     OW36035   2.896   8.834   5.248  0.4895 -0.2320  0.0934
11198SOL    HW136036   2.848   8.807   5.326 -0.8803  1.6263 -0.0378
11198SOL    HW236037   2.987   8.843   5.278  0.0641  0.0602  1.3820
11199SOL     OW36038   7.804   9.656  10.068  0.1048 -0.3308 -0.4039
11199SOL    HW136039   7.806   9.653  10.164 -1.0875  2.2485 -0.2047
11199SOL    HW236040   7.728   9.603  10.044 -0.6114  0.3818  0.2224
11200SOL     OW36041   8.103   7.522   9.791  0.5474 -0.2650  0.3509
11200SOL    HW136042   8.176   7.503   9.732  0.0129 -2.0147  0.1805
11200SOL    HW236043   8.036   7.561   9.735  1.6488  2.2675  0.6864
11201SOL     OW36044   4.303   8.798   4.184  0.5402  0.1981 -0.4197
11201SOL    HW136045   4.331   8.748   4.260 -1.0445  1.0589  0.7886
11201SOL    HW236046   4.374   8.861   4.170  0.7075  0.2423  0.5482
11202SOL     OW36047   4.252   8.471   6.767 -0.2125 -0.1626  0.3299
11202SOL    HW136048   4.210   8.394   6.729 -0.3269  0.5233 -0.9944
11202SOL    HW236049   4.309   8.504   6.698  2.4647 -0.9728  2.0193
11203SOL     OW36050   8.628   4.891   2.112  0.5594  0.0497 -0.2379
11203SOL    HW136051   8.649   4.925   2.198 -0.8017  2.2808 -0.6957
11203SOL    HW236052   8.689   4.935   2.053 -1.4150  2.1883 -0.8762
11204SOL     OW36053  10.067   6.000   1.017  0.5849 -0.2329  0.8030
11204SOL    HW136054  10.145   6.046   1.047  0.6364  1.6009 -1.7497
11204SOL    HW236055  10.096   5.911   0.999  1.9021  0.2230  0.6267
11205SOL     OW36056   7.305   8.232   0.427  0.0129 -0.0939 -0.4175
11205SOL    HW136057   7.339   8.216   0.515 -2.2707  0.3464  0.6208
11205SOL    HW236058   7.270   8.148   0.399 -1.0968  0.2217 -0.0230
11206SOL     OW36059   8.703   5.117   9.768 -0.4302 -0.4880  0.6444
11206SOL    HW136060   8.681   5.139   9.678 -1.1795 -0.7040  0.7701
11206SOL    HW236061   8.649   5.174   9.822  1.0360  0.6533  0.9863
11207SOL     OW36062   4.432   9.821   5.968 -0.8182 -0.5096 -0.2718
11207SOL    HW136063   4.384   9.896   6.004  0.9194  0.6861 -0.3054
11207SOL    HW236064   4.418   9.751   6.031 -1.0563  0.3694  0.6873
11208SOL     OW36065   5.992   0.265   1.660  0.2166  0.2039 -0.7146
11208SOL    HW136066   6.008   0.353   1.695  0.0179  0.9083 -2.2985
11208SOL    HW236067   6.071   0.215   1.685 -0.0926  0.5189  1.0334
11209SOL     OW36068  10.172   6.237   6.705  0.3879 -0.0632  0.1425
11209SOL    HW136069  10.204   6.222   6.616 -0.2709 -1.3328  0.1064
11209SOL    HW236070  10.095   6.182   6.713  0.6682 -0.2835  1.6443
11210SOL     OW36071   1.088   1.736   0.058  0.2804 -0.7903  0.4578
11210SOL    HW136072   1.169   1.787   0.062  0.0983 -0.5383  1.2750
11210SOL    HW236073   1.087   1.698  -0.030  0.9808 -0.3025  0.2318
11211SOL     OW36074   9.831   6.268  10.414 -0.1692 -0.1879  0.0098
11211SOL    HW136075   9.846   6.248  10.321 -1.4472  0.4345 -0.3637
11211SOL    HW236076   9.766   6.339  10.412 -0.3938 -0.3420  1.3902
11212SOL     OW36077   8.194   0.258   0.858 -0.1770  0.4333 -0.1386
11212SOL    HW136078   8.129   0.296   0.798 -0.2738  2.9175  1.3874
11212SOL    HW236079   8.278   0.270   0.813 -0.2674  2.0895  0.0562
11213SOL     OW36080   5.240   7.537   0.711 -0.3944  0.0176 -0.3249
11213SOL    HW136081   5.245   7.569   0.621 -1.2170  2.4251  0.4195
11213SOL    HW236082   5.186   7.458   0.705  1.9162 -1.5611 -2.2648
11214SOL     OW36083   6.771   5.161   9.565 -0.5971  0.6119  0.1298
11214SOL    HW136084   6.847   5.182   9.511 -0.7494 -0.9297 -0.7408
11214SOL    HW236085   6.699   5.207   9.524 -0.7396 -0.6709 -1.1184
11215SOL     OW36086   7.373   4.480   6.674  0.6955  0.5359  0.0967
11215SOL    HW136087   7.398   4.472   6.582  1.8001 -1.4845  0.5061
11215SOL    HW236088   7.406   4.566   6.700  1.6779  0.5311 -1.0293
11216SOL     OW36089   9.031   1.349   7.883 -0.0956 -0.3180  0.1781
11216SOL    HW136090   9.095   1.295   7.930  1.6401  0.6049 -1.0266
11216SOL    HW236091   9.036   1.319   7.793 -1.1095  0.0263  0.0024
11217SOL     OW36092   8.969   3.052   7.794  0.1842  0.6814 -0.1482
11217SOL    HW136093   8.879   3.072   7.817  0.4573 -0.0347  1.6354
11217SOL    HW236094   8.966   3.034   7.700 -1.4088  1.2787 -0.2350
11218SOL     OW36095   3.169   1.458   3.172  0.3952  0.3261 -0.5810
11218SOL    HW136096   3.183   1.363   3.166 -1.7832 -0.0289 -1.1519
11218SOL    HW236097   3.179   1.478   3.265 -3.6689 -1.4278  0.4787
11219SOL     OW36098   9.689   7.745   5.945  0.1225 -0.2921 -0.5879
11219SOL    HW136099   9.766   7.728   5.891  0.2542  0.1493 -0.5413
11219SOL    HW236100   9.661   7.659   5.974 -0.4671 -0.6157 -2.0650
11220SOL     OW36101   0.388   9.170   0.679  0.5228 -0.0963  0.0481
11220SOL    HW136102   0.478   9.201   0.681  0.8605 -0.9446 -0.9380
11220SOL    HW236103   0.337   9.242   0.716  1.6467  0.1946  1.0921
11221SOL     OW36104   9.856   4.457   0.634  0.6383 -0.0998  0.5393
11221SOL    HW136105   9.813   4.537   0.664 -0.0043 -0.0878 -0.3828
11221SOL    HW236106   9.930   4.489   0.581  2.3169 -0.1042  2.7052
11222SOL     OW36107   4.598   5.062  10.416 -0.1047  0.0757 -0.0932
11222SOL    HW136108   4.631   5.057  10.506  1.4087 -0.6943 -0.6654
11222SOL    HW236109   4.670   5.030  10.362 -1.7102 -1.4524 -1.4448
11223SOL     OW36110   7.051   3.813   4.998 -0.0322  0.3529 -0.0318
11223SOL    HW136111   6.958   3.835   5.004 -0.0959 -0.0015  0.3335
11223SOL    HW236112   7.096   3.894   5.021 -0.2483  0.5158 -0.1720
11224SOL     OW36113   1.250   8.394   1.461 -0.1042 -0.9181  0.2603
11224SOL    HW136114   1.334   8.358   1.490 -0.1797 -0.9561  0.4268
11224SOL    HW236115   1.211   8.325   1.408 -0.8190 -1.5688  1.5963
11225SOL     OW36116  10.354  10.061  10.013 -0.1767  0.3397  0.4509
11225SOL    HW136117  10.388  10.116   9.942 -1.0225  0.3617  0.0633
11225SOL    HW236118  10.272  10.103  10.040 -1.8386 -1.7168 -1.1143
11226SOL     OW36119   0.389   6.594   7.374 -0.0942 -0.2183  0.3025
11226SOL    HW136120   0.399   6.640   7.457 -1.3823  0.3224  0.1758
11226SOL    HW236121   0.295   6.583   7.363  0.0106  0.2304 -1.3651
11227SOL     OW36122  10.097   8.220   6.570  0.4768 -0.0792 -0.8275
11227SOL    HW136123  10.048   8.146   6.534  0.1080  0.0449 -0.5796
11227SOL    HW236124  10.096   8.206   6.665  1.2758 -0.2960 -0.8437
11228SOL     OW36125   2.741   6.636   8.532 -0.2184 -0.2486  0.4538
11228SOL    HW136126   2.789   6.554   8.541  0.1215 -0.0600  0.3756
11228SOL    HW236127   2.677   6.634   8.604 -0.1393 -0.5315  0.5176
11229SOL     OW36128   2.155   7.606   5.920 -0.7369 -0.4976 -0.2421
11229SOL    HW136129   2.143   7.591   5.827 -0.1559 -0.1470 -0.3856
11229SOL    HW236130   2.192   7.524   5.953  1.8953  0.3020 -0.9101
11230SOL     OW36131   5.534   3.129   6.201  0.3123  0.0422  0.9045
11230SOL    HW136132   5.533   3.130   6.296 -0.1940  0.8836  0.9090
11230SOL    HW236133   5.524   3.221   6.176 -1.3790 -0.3157  0.0503
11231SOL     OW36134   0.214   7.793   2.326 -0.1275  0.1331  0.0831
11231SOL    HW136135   0.214   7.756   2.415 -0.8477  0.7433  0.3456
11231SOL    HW236136   0.202   7.887   2.339 -1.4683  0.0986 -0.7060
11232SOL     OW36137   3.864   8.973   7.064 -0.3517  0.6344  0.0700
11232SOL    HW136138   3.901   9.053   7.027 -0.5015 -0.0831 -1.7479
11232SOL    HW236139   3.770   8.989   7.068 -0.5649  0.0781 -1.6988
11233SOL     OW36140   0.337   1.481   2.592 -0.0240  0.4960 -0.1519
11233SOL    HW136141   0.389   1.416   2.639  0.1328 -0.0473 -1.0552
11233SOL    HW236142   0.247   1.453   2.603 -0.1808  1.5373  1.5684
11234SOL     OW36143   1.989   4.136   7.981  0.0224  0.0390 -0.3785
11234SOL    HW136144   2.078   4.155   8.011  0.0945  0.3540 -0.7907
11234SOL    HW236145   1.953   4.079   8.049  0.7377 -0.5757 -0.4978
11235SOL     OW36146   8.151   5.509   1.315 -0.5512 -0.6576  0.2521
11235SOL    HW136147   8.126   5.595   1.280 -0.8614 -0.7948  0.1334
11235SOL    HW236148   8.231   5.487   1.268 -0.2653 -0.2688  0.5474
11236SOL     OW36149   0.116   4.033   5.333 -0.0719  0.5333 -0.1885
11236SOL    HW136150   0.150   3.947   5.357  2.3386  1.3844 -0.2931
11236SOL    HW236151   0.034   4.014   5.286 -0.8386 -1.5265  1.7938
11237SOL     OW36152   9.814   5.353   2.429 -0.1346 -0.0457  0.1306
11237SOL    HW136153   9.785   5.380   2.341  1.3756  0.0665 -0.3646
11237SOL    HW236154   9.763   5.275   2.447  1.3056 -1.5997 -1.9936
11238SOL     OW36155   6.354   1.678   5.654 -0.0933 -0.0277  0.0694
11238SOL    HW136156   6.308   1.672   5.569 -1.0931 -2.0452  0.6680
11238SOL    HW236157   6.284   1.673   5.719  0.7424  0.4020  1.0279
11239SOL     OW36158   9.654   2.864   3.739 -0.1201 -0.0083  0.8089
11239SOL    HW136159   9.742   2.827   3.738  1.5807  3.6131 -0.9541
11239SOL    HW236160   9.632   2.876   3.647 -1.0299  2.0161  1.2234
11240SOL     OW36161   9.228   4.765   9.408  0.5104  0.3324  0.0899
11240SOL    HW136162   9.254   4.851   9.375  1.1331  0.0120 -0.2780
11240SOL    HW236163   9.170   4.784   9.482 -0.7345  1.0627 -1.0544
11241SOL     OW36164   9.041   9.609   1.557 -0.8288  0.0492  0.2751
11241SOL    HW136165   9.098   9.649   1.491 -2.5516  0.9510 -0.7378
11241SOL    HW236166   9.073   9.643   1.640  1.1699 -0.8273 -0.0798
11242SOL     OW36167   5.152   5.076   7.173  0.8789  0.1671  0.1181
11242SOL    HW136168   5.233   5.027   7.180  1.5001  0.8351 -1.7589
11242SOL    HW236169   5.084   5.009   7.169  1.4773 -0.4557  0.1803
11243SOL     OW36170   4.842   8.324   6.608  0.2826 -0.3133  0.4849
11243SOL    HW136171   4.864   8.408   6.568 -2.9935 -0.2193 -1.5828
11243SOL    HW236172   4.834   8.343   6.702 -1.5299  2.0962 -0.0403
11244SOL     OW36173   0.376   8.615   3.768  0.4311  0.4828  0.0144
11244SOL    HW136174   0.452   8.656   3.809  0.1162  1.0578  0.0428
11244SOL    HW236175   0.383   8.523   3.791  1.1140  0.5349  0.0223
11245SOL     OW36176   7.402   3.404   6.363  0.0195 -0.0012 -0.1226
11245SOL    HW136177   7.315   3.441   6.374  0.1885  0.0280  1.1819
11245SOL    HW236178   7.460   3.479   6.357 -0.0402 -0.0188 -1.0832
11246SOL     OW36179   8.102   9.430   5.261 -0.3750  0.1384 -0.7624
11246SOL    HW136180   8.189   9.391   5.269 -0.5700 -0.1979 -0.2049
11246SOL    HW236181   8.066   9.394   5.180 -0.1089  0.0403 -0.8360
11247SOL     OW36182   6.212   8.074   8.219 -0.3706  0.4474 -0.1007
11247SOL    HW136183   6.124   8.041   8.238 -1.6452  3.2607 -0.6571
11247SOL    HW236184   6.231   8.041   8.131 -0.2322 -1.2888  0.5344
11248SOL     OW36185   3.675   4.583   9.604 -0.2295  0.4048  0.2676
11248SOL    HW136186   3.645   4.618   9.520  1.7007  0.2420 -0.5286
11248SOL    HW236187   3.751   4.636   9.627 -0.5460  0.2502  1.7767
11249SOL     OW36188   6.276   9.656   7.482 -0.1699 -0.1347 -0.2361
11249SOL    HW136189   6.298   9.727   7.542 -1.1041 -1.0885  1.2878
11249SOL    HW236190   6.318   9.681   7.399  1.8185  0.8389  0.9892
11250SOL     OW36191   1.179   8.219   7.765  0.4129  0.4963  0.1794
11250SOL    HW136192   1.228   8.301   7.776 -1.4457  1.6361  0.3702
11250SOL    HW236193   1.096   8.234   7.811 -0.8208 -0.7250 -1.5169
11251SOL     OW36194   1.972   1.616   6.087  0.5525 -0.3930  0.4901
11251SOL    HW136195   1.899   1.673   6.112  1.7350  0.7197  1.5611
11251SOL    HW236196   1.992   1.566   6.166  1.7102  0.1902  0.5847
11252SOL     OW36197   0.679   2.511   1.819  0.5644  0.1944  0.5243
11252SOL    HW136198   0.664   2.588   1.764  0.7943  0.5672  0.9756
11252SOL    HW236199   0.639   2.439   1.771  2.6986  0.0754 -1.2744
11253SOL     OW36200   1.533   4.418   0.087 -0.1856 -0.1613  0.4513
11253SOL    HW136201   1.538   4.424  -0.009 -1.2813 -1.0336  0.3204
11253SOL    HW236202   1.470   4.348   0.103 -0.1841  0.1313  1.8200
11254SOL     OW36203  10.325   0.412   8.997 -0.1459 -1.1595 -0.2865
11254SOL    HW136204  10.313   0.395   9.090  2.7741 -0.3721  0.3279
11254SOL    HW236205  10.265   0.484   8.978  0.0642 -0.5260  1.2828
11255SOL     OW36206   6.519   5.014   8.353 -0.0238  0.4476 -0.2527
11255SOL    HW136207   6.466   5.006   8.432 -0.1623  0.3701 -0.3528
11255SOL    HW236208   6.480   5.088   8.305  1.1543  1.6641  0.5937
11256SOL     OW36209   0.449   7.922   0.578  0.1758  0.6157  0.0469
11256SOL    HW136210   0.415   7.836   0.604 -0.7660  1.3607  1.4128
11256SOL    HW236211   0.487   7.958   0.658  1.3197  1.1524 -0.7045
11257SOL     OW36212   7.789   7.327   5.795 -0.7158 -0.5156  0.6131
11257SOL    HW136213   7.775   7.334   5.700  1.2410  0.9786  0.3678
11257SOL    HW236214   7.866   7.271   5.803  1.3370  2.1869  1.0376
11258SOL     OW36215   2.188   1.901   9.285 -0.3350 -0.0426 -0.2423
11258SOL    HW136216   2.191   1.996   9.298 -3.2601  0.2543 -0.9166
11258SOL    HW236217   2.183   1.865   9.374 -2.7525  0.7536  0.0160
11259SOL     OW36218   7.481   7.283   8.022  0.6136  0.2548 -0.0144
11259SOL    HW136219   7.470   7.199   8.066  0.4275  0.2495 -0.0692
11259SOL    HW236220   7.409   7.337   8.054 -0.9153 -0.4704 -1.9934
11260SOL     OW36221   1.645   0.605   9.085  0.2810  0.0958 -0.2442
11260SOL    HW136222   1.680   0.664   9.018 -0.4816  0.2742 -0.4909
11260SOL    HW236223   1.550   0.605   9.071  0.1062  0.1387  0.8317
11261SOL     OW36224   5.786   2.885   2.589  0.1889 -0.3779 -0.4208
11261SOL    HW136225   5.703   2.896   2.635 -0.2978 -2.7568 -0.6194
11261SOL    HW236226   5.762   2.847   2.504  1.3235  1.1616 -1.5015
11262SOL     OW36227   3.303   6.191   9.083  0.4505  0.3629 -0.4036
11262SOL    HW136228   3.289   6.098   9.095  0.9809  0.1941 -1.0392
11262SOL    HW236229   3.351   6.198   9.000  0.0389  1.2250 -0.5866
11263SOL     OW36230   5.097   8.932   5.697 -0.1653 -0.1946  0.4318
11263SOL    HW136231   5.067   8.842   5.708  2.1918 -1.3366 -1.5457
11263SOL    HW236232   5.069   8.977   5.777  0.9135 -3.3606  2.7690
11264SOL     OW36233   1.080   3.329   3.998 -0.2163 -0.6298  0.3693
11264SOL    HW136234   1.136   3.331   4.076 -1.0325 -0.4475  0.9633
11264SOL    HW236235   1.079   3.420   3.968 -0.9511 -0.4475  0.9204
11265SOL     OW36236   1.777  10.137   7.535 -0.1760 -0.5060  0.3302
11265SOL    HW136237   1.848  10.085   7.573  1.2077  0.3248 -0.9955
11265SOL    HW236238   1.776  10.217   7.587 -1.4246 -1.2641  1.5299
11266SOL     OW36239   0.459   6.406   9.071 -0.2820  0.1572 -0.1127
11266SOL    HW136240   0.453   6.453   9.154 -1.4433 -1.9225  1.0750
11266SOL    HW236241   0.552   6.413   9.047  0.0191  1.0609  1.1918
11267SOL     OW36242   2.860   9.149   3.766 -0.1230 -0.2636  0.3110
11267SOL    HW136243   2.798   9.134   3.695 -0.2016  1.5544 -0.0424
11267SOL    HW236244   2.891   9.061   3.789  2.6640 -0.9351 -4.4161
11268SOL     OW36245   2.283   1.405   5.137  0.2626 -0.0154  0.0369
11268SOL    HW136246   2.375   1.386   5.121  0.0708  1.1132 -3.0019
11268SOL    HW236247   2.282   1.499   5.156 -0.1844 -0.2435  1.2271
11269SOL     OW36248   8.458   7.120   6.776  0.0051  0.4031  0.0946
11269SOL    HW136249   8.502   7.194   6.735  0.8741  0.1345  0.5150
11269SOL    HW236250   8.462   7.138   6.870  1.1119 -0.6232  0.2789
11270SOL     OW36251   6.823   9.710   5.134 -0.1485 -0.0843 -0.3310
11270SOL    HW136252   6.833   9.632   5.080 -0.8600 -2.1759  2.3540
11270SOL    HW236253   6.774   9.771   5.078 -0.4590 -1.9024 -2.1820
11271SOL     OW36254   1.792   4.010   2.951  0.1610 -0.1959 -0.5083
11271SOL    HW136255   1.813   3.971   3.036  1.3182 -0.1989 -0.7891
11271SOL    HW236256   1.825   3.948   2.887 -1.3086 -0.5248 -0.9941
11272SOL     OW36257   3.615   8.603   5.578 -0.1623 -0.1393  0.2969
11272SOL    HW136258   3.618   8.665   5.651 -2.8448  1.4846 -0.8112
11272SOL    HW236259   3.548   8.539   5.603  1.1154 -1.4406  0.5277
11273SOL     OW36260   2.029   2.611   4.272 -0.1620 -0.1160  0.7750
11273SOL    HW136261   1.956   2.550   4.263  0.4189 -0.6569 -0.5636
11273SOL    HW236262   2.065   2.618   4.183  0.4917  1.2959  1.1163
11274SOL     OW36263   5.479   3.922   2.741 -0.7223 -0.2500 -0.1014
11274SOL    HW136264   5.565   3.947   2.774 -0.6086  0.5600 -0.9561
11274SOL    HW236265   5.479   3.827   2.745  0.3315 -0.2753 -0.3526
11275SOL     OW36266   4.146   6.304   5.167  0.1485 -0.0671 -0.1722
11275SOL    HW136267   4.135   6.209   5.170  0.6962 -0.1166  0.8029
11275SOL    HW236268   4.210   6.322   5.236  0.9532  0.8874 -1.1314
11276SOL     OW36269   9.848   5.403   6.103 -0.5162  0.3946 -0.3250
11276SOL    HW136270   9.855   5.361   6.017  1.0808 -0.2849  0.0985
11276SOL    HW236271   9.784   5.473   6.090 -0.0751  0.5214 -2.1636
11277SOL     OW36272   6.907   8.951   6.530 -0.2160  0.6698 -0.4196
11277SOL    HW136273   6.984   8.970   6.477 -0.3615  0.4394 -0.7129
11277SOL    HW236274   6.879   8.864   6.503 -0.1007  0.4155  0.2674
11278SOL     OW36275   1.333   5.586   9.735  0.1182 -0.3248  0.7640
11278SOL    HW136276   1.396   5.541   9.791 -1.4454 -0.4813  2.4996
11278SOL    HW236277   1.256   5.529   9.735 -0.0408 -0.1830 -1.3605
11279SOL     OW36278   8.216   9.611   7.650  0.3240 -0.1960 -0.1984
11279SOL    HW136279   8.199   9.570   7.734  1.6610  0.3332  0.3496
11279SOL    HW236280   8.280   9.554   7.607  0.2301 -0.0554 -0.5358
11280SOL     OW36281   7.585   6.294   7.515  0.3908  0.5066 -0.6232
11280SOL    HW136282   7.580   6.244   7.434 -0.1443  0.4517 -0.5576
11280SOL    HW236283   7.582   6.386   7.487  1.2386  0.5133 -0.7333
11281SOL     OW36284   5.392   7.928  10.284 -0.1639 -0.0820  0.1965
11281SOL    HW136285   5.416   7.983  10.359  0.5679 -0.0795 -0.0273
11281SOL    HW236286   5.299   7.944  10.271  0.2260  1.9990 -0.5567
11282SOL     OW36287  10.168   4.922  10.485 -0.2197  0.3960 -0.2111
11282SOL    HW136288  10.210   5.007  10.498  0.0978  0.6028 -2.2403
11282SOL    HW236289  10.240   4.859  10.482 -0.3866  0.1707  0.3545
11283SOL     OW36290   7.072   3.380   9.348 -0.1689  0.3323  0.3054
11283SOL    HW136291   7.042   3.297   9.311  1.4301 -0.1814  0.0728
11283SOL    HW236292   7.137   3.412   9.285  0.9125  0.5940  1.5113
11284SOL     OW36293   0.970   3.881   5.709 -0.1442  0.1083 -0.1232
11284SOL    HW136294   0.935   3.899   5.622 -0.8642 -1.5541 -0.2029
11284SOL    HW236295   0.969   3.966   5.753 -0.0412  0.9186 -1.6249
11285SOL     OW36296   8.344   1.908   1.290 -0.0621  0.3832  0.0548
11285SOL    HW136297   8.277   1.967   1.325  0.8021 -0.1810  2.9101
11285SOL    HW236298   8.420   1.964   1.273 -0.6262  0.7341 -1.5513
11286SOL     OW36299   8.875   7.334   8.105 -0.1251 -0.5608 -0.0464
11286SOL    HW136300   8.904   7.361   8.192 -1.0987  0.6988 -0.0805
11286SOL    HW236301   8.798   7.279   8.121  0.2771 -1.1403 -0.0822
11287SOL     OW36302   7.237   7.764   5.016  0.7413  0.2699 -0.3008
11287SOL    HW136303   7.190   7.684   4.994 -0.6474  1.0293 -0.1779
11287SOL    HW236304   7.193   7.833   4.966 -0.7337  1.6200  2.6153
11288SOL     OW36305   8.698   0.876   5.098  0.0028 -0.2159  0.0047
11288SOL    HW136306   8.761   0.879   5.026 -0.0176  0.0607 -0.0034
11288SOL    HW236307   8.618   0.841   5.059 -0.7019  1.9935 -0.6488
11289SOL     OW36308   0.778   4.333   4.960  0.3178  0.1078  0.4235
11289SOL    HW136309   0.693   4.323   5.003  0.3095 -0.1079  0.3569
11289SOL    HW236310   0.841   4.335   5.032  0.1546  1.5028  0.5525
11290SOL     OW36311  10.480   5.622   3.866 -0.2038 -0.4473 -0.3019
11290SOL    HW136312  10.436   5.596   3.946  1.0835 -0.7547  0.3344
11290SOL    HW236313  10.570   5.591   3.877  1.0181  2.7640 -0.1947
11291SOL     OW36314   1.395   9.783   3.174  0.3646  0.3479 -0.1340
11291SOL    HW136315   1.355   9.870   3.161 -1.4078  0.0006  2.2810
11291SOL    HW236316   1.366   9.732   3.098 -0.4882  1.2427 -0.4296
11292SOL     OW36317   2.510   6.847   5.377  0.0602 -0.4428  0.1556
11292SOL    HW136318   2.464   6.766   5.356  0.1131 -0.1538 -1.1900
11292SOL    HW236319   2.492   6.905   5.302  0.6507  0.5098  0.7254
11293SOL     OW36320   3.115   1.314   8.703 -0.0604 -0.0731  0.1188
11293SOL    HW136321   3.137   1.233   8.657  2.0335  1.5659 -2.0275
11293SOL    HW236322   3.021   1.322   8.693 -0.0794 -1.4008 -1.1810
11294SOL     OW36323  10.024   8.950  10.149 -0.0081 -1.0001 -0.5804
11294SOL    HW136324   9.995   8.859  10.151 -0.5227 -0.8283  0.0255
11294SOL    HW236325   9.974   8.990  10.078  0.9365 -1.4163 -1.5027
11295SOL     OW36326   0.295   6.883  10.114 -0.1227  0.0746  0.0830
11295SOL    HW136327   0.209   6.881  10.072  0.4563  1.9017 -1.3460
11295SOL    HW236328   0.354   6.912  10.044  1.4708 -0.0927  1.3260
11296SOL     OW36329  10.427   8.375   7.282  0.4057 -0.1517  0.0093
11296SOL    HW136330  10.407   8.444   7.220  0.1716  0.2166  0.4848
11296SOL    HW236331  10.465   8.421   7.357 -1.9440 -0.2426  1.3372
11297SOL     OW36332  10.290  10.005   1.688  0.1270 -0.2100 -0.5103
11297SOL    HW136333  10.312   9.944   1.759  1.2498  1.2140  0.4150
11297SOL    HW236334  10.369  10.009   1.635  0.2238  0.7778 -0.2966
11298SOL     OW36335   3.790   0.008   9.867  0.5969  0.5476  0.1197
11298SOL    HW136336   3.725   0.078   9.872  1.7776  1.8075 -1.1780
11298SOL    HW236337   3.864   0.041   9.919  1.1871  0.3245 -0.5581
11299SOL     OW36338   5.810   4.509   5.717  0.1763  0.1811  0.3205
11299SOL    HW136339   5.722   4.500   5.682  1.2512 -1.2993 -2.2726
11299SOL    HW236340   5.810   4.458   5.798 -1.3206  0.2050  0.3526
11300SOL     OW36341   3.098   1.246   2.701  0.1381 -0.1569 -0.0774
11300SOL    HW136342   3.163   1.215   2.765 -0.4841  0.4894  0.8965
11300SOL    HW236343   3.036   1.174   2.693  0.4855 -0.4322 -0.3393
11301SOL     OW36344   2.447   6.210   7.176 -0.7415  0.1879  0.2838
11301SOL    HW136345   2.533   6.204   7.219  0.0440  1.7414 -0.9342
11301SOL    HW236346   2.442   6.301   7.146 -1.9984 -0.3620 -1.3397
11302SOL     OW36347   1.799   0.642   2.764 -0.5217 -0.2920  0.0276
11302SOL    HW136348   1.873   0.601   2.809 -0.2296  0.0534 -0.1317
11302SOL    HW236349   1.778   0.582   2.692 -1.0225 -0.8715  0.6427
11303SOL     OW36350   6.326   7.599   9.994  0.2308  0.1290  0.4972
11303SOL    HW136351   6.251   7.652  10.020 -0.3405  0.1286 -1.0558
11303SOL    HW236352   6.379   7.591  10.073 -0.6937  1.3168  1.2561
11304SOL     OW36353   4.565   9.035   6.051 -0.8379 -0.1466 -0.0818
11304SOL    HW136354   4.567   8.980   6.129 -2.7056  0.0023  0.1285
11304SOL    HW236355   4.546   8.974   5.980 -1.9768  0.0655  0.0182
11305SOL     OW36356   8.184   7.270   0.590 -0.0790  0.1836  0.2618
11305SOL    HW136357   8.108   7.284   0.533 -1.0687  0.1994  1.5430
11305SOL    HW236358   8.259   7.293   0.535 -0.9611 -0.2197 -1.1645
11306SOL     OW36359   3.654   0.738   7.950 -0.1669 -0.1989  0.7447
11306SOL    HW136360   3.580   0.769   8.003  0.2484  0.1436  1.1422
11306SOL    HW236361   3.628   0.650   7.922 -0.9597  0.1324  0.4044
11307SOL     OW36362   3.450   5.827   5.220  0.3453  0.0497 -0.6750
11307SOL    HW136363   3.528   5.780   5.192  0.6472  0.7787 -1.0736
11307SOL    HW236364   3.388   5.817   5.148  0.3852  0.2044 -0.7310
11308SOL     OW36365   7.607   5.459   7.083 -0.4088  0.0485  0.4881
11308SOL    HW136366   7.571   5.420   7.162 -0.1093  0.0946  0.6451
11308SOL    HW236367   7.672   5.522   7.114 -1.1928  0.9996  0.2612
11309SOL     OW36368   4.496   6.147   6.532 -0.4619 -0.3537  0.0133
11309SOL    HW136369   4.462   6.058   6.522 -2.5703  0.2181  1.2850
11309SOL    HW236370   4.579   6.137   6.579 -1.3641 -1.5990  1.4190
11310SOL     OW36371   5.849   8.438   8.982  0.3990  0.6517 -0.1288
11310SOL    HW136372   5.835   8.359   9.035  0.7553  0.1331 -0.7887
11310SOL    HW236373   5.932   8.473   9.012  0.7903  0.1417 -0.5954
11311SOL     OW36374   2.785   7.817   3.270 -0.0768 -0.2030 -0.0397
11311SOL    HW136375   2.776   7.908   3.297 -0.6855 -1.0446  2.9382
11311SOL    HW236376   2.879   7.804   3.256 -0.1448  1.2564 -2.2561
11312SOL     OW36377   2.449   6.816   0.119  0.4128 -0.3313  0.5104
11312SOL    HW136378   2.394   6.781   0.049  0.0635  0.2360  0.4955
11312SOL    HW236379   2.404   6.793   0.200 -0.2057  0.6914  0.4805
11313SOL     OW36380   4.526   5.700   2.127  0.2363  0.2692  0.9897
11313SOL    HW136381   4.604   5.751   2.103  0.4553  0.1873  1.5115
11313SOL    HW236382   4.469   5.762   2.171 -0.1759  0.4249  0.2422
11314SOL     OW36383   8.125   0.687  10.153  0.8931  0.4936 -0.2128
11314SOL    HW136384   8.091   0.606  10.193  1.8161  0.2924  0.2059
11314SOL    HW236385   8.066   0.704  10.080 -0.2207  0.2808  0.6009
11315SOL     OW36386   1.529   0.285   1.536 -0.9366 -0.0672 -1.1835
11315SOL    HW136387   1.447   0.328   1.512 -0.4453  1.1537 -0.7216
11315SOL    HW236388   1.567   0.258   1.452 -0.6838  1.4781 -1.5802
11316SOL     OW36389  10.147   1.810   8.003  0.6186  0.0029  0.3087
11316SOL    HW136390  10.173   1.719   7.984  1.9602  0.3243  0.5109
11316SOL    HW236391  10.162   1.857   7.921 -1.7602 -0.2509 -0.3592
11317SOL     OW36392  10.315   6.752   3.786  0.3785 -0.3789  0.3580
11317SOL    HW136393  10.388   6.811   3.805 -0.2423  0.0789  1.3837
11317SOL    HW236394  10.270   6.741   3.870 -0.4527 -1.0362 -0.1571
11318SOL     OW36395   6.825   8.870   5.431  0.3949  0.1712  0.1497
11318SOL    HW136396   6.761   8.811   5.392  1.8376 -0.2436 -1.6902
11318SOL    HW236397   6.784   8.956   5.427 -0.6136 -0.2840  0.3455
11319SOL     OW36398   9.459   0.635   0.206  0.1999 -0.4581 -0.1140
11319SOL    HW136399   9.380   0.690   0.200  1.7991  2.1577  0.8280
11319SOL    HW236400   9.451   0.574   0.133 -2.2993  0.2190 -0.5293
11320SOL     OW36401   8.280   3.184   8.158  0.2980 -0.3952  0.3635
11320SOL    HW136402   8.366   3.140   8.163  1.4847  1.5750 -1.3473
11320SOL    HW236403   8.217   3.112   8.162  2.0536 -2.0234  0.3666
11321SOL     OW36404   2.291   8.474   6.072 -0.4746 -0.1462 -0.2633
11321SOL    HW136405   2.349   8.546   6.045 -2.8651  0.8323 -3.3463
11321SOL    HW236406   2.331   8.396   6.033 -0.5634  0.3245 -1.3292
11322SOL     OW36407   4.015   6.838   7.495  0.0618  0.0638 -0.2868
11322SOL    HW136408   3.926   6.805   7.503 -0.4712  1.4825 -0.0652
11322SOL    HW236409   4.019   6.913   7.553  0.8276  1.1673 -1.6807
11323SOL     OW36410   2.289   5.552   9.644  0.0165 -0.0395 -0.5511
11323SOL    HW136411   2.304   5.567   9.551  0.9459 -1.5741 -0.6675
11323SOL    HW236412   2.371   5.515   9.676 -0.8333 -1.0279  0.5437
11324SOL     OW36413   4.880   8.792   4.155  0.2126  0.3339  0.3222
11324SOL    HW136414   4.834   8.711   4.133 -0.3460  0.4239  1.0962
11324SOL    HW236415   4.900   8.784   4.248 -0.8588  1.5509  0.6861
11325SOL     OW36416   1.068   5.946   4.122 -0.6175 -0.7755 -0.1769
11325SOL    HW136417   1.043   5.860   4.089 -1.3993 -0.4344 -0.4912
11325SOL    HW236418   1.078   6.000   4.043 -0.7475 -0.4210  0.0471
11326SOL     OW36419   9.868   7.327   0.823  0.0469 -0.7019 -0.3343
11326SOL    HW136420   9.947   7.362   0.783 -0.0256  0.1484  0.2363
11326SOL    HW236421   9.802   7.394   0.809 -0.3958 -1.1059 -0.2154
11327SOL     OW36422   8.483   3.553   2.271  0.0697 -0.2394 -0.1258
11327SOL    HW136423   8.530   3.630   2.302  1.8467 -0.7449 -1.4698
11327SOL    HW236424   8.438   3.582   2.191  0.2011 -0.4359 -0.2709
11328SOL     OW36425   2.703   4.363   9.828  0.3718  0.0775  0.0507
11328SOL    HW136426   2.749   4.281   9.808  2.8161  1.3232  0.1033
11328SOL    HW236427   2.768   4.431   9.811 -1.3928  1.9901  0.5541
11329SOL     OW36428   7.320  10.101   9.015  0.0450 -0.6700 -0.0529
11329SOL    HW136429   7.390  10.095   8.950 -0.6878 -0.5383 -0.8700
11329SOL    HW236430   7.264  10.025   8.996 -0.9024  0.1118 -0.4522
11330SOL     OW36431   5.865   9.391   5.363 -0.6649  0.5101 -0.3227
11330SOL    HW136432   5.803   9.387   5.436 -0.1014  0.4392  0.1514
11330SOL    HW236433   5.881   9.299   5.341 -2.6804  0.4992 -2.1333
11331SOL     OW36434   9.953   5.735   4.111  0.0339  0.1940  0.7291
11331SOL    HW136435   9.857   5.736   4.115 -0.2791  0.4361 -3.1178
11331SOL    HW236436   9.976   5.643   4.126 -1.0628 -0.3892 -0.9764
11332SOL     OW36437   1.699   0.375   6.930  0.1790 -0.4751  0.3283
11332SOL    HW136438   1.670   0.454   6.976  0.4508  0.8894 -1.7164
11332SOL    HW236439   1.790   0.364   6.957  0.2487  0.1270  0.3717
11333SOL     OW36440   4.794   1.265  10.195  0.0931  0.3925 -0.1234
11333SOL    HW136441   4.790   1.191  10.135 -1.7616 -0.5049  1.0345
11333SOL    HW236442   4.764   1.340  10.143 -0.3868 -0.1558 -0.6464
11334SOL     OW36443   0.851   1.712   3.488 -0.1960 -0.4716  0.0996
11334SOL    HW136444   0.822   1.762   3.412  1.3726 -0.8207 -0.7862
11334SOL    HW236445   0.806   1.628   3.480  0.7027 -0.8843 -1.0600
11335SOL     OW36446   8.320   1.900   6.891 -0.1820  0.0990  0.2396
11335SOL    HW136447   8.388   1.865   6.834  0.1499  1.4004 -0.2073
11335SOL    HW236448   8.365   1.925   6.972 -0.1253  0.8517 -0.0116
11336SOL     OW36449   5.067   1.910   3.473 -0.2825  0.2275 -0.4606
11336SOL    HW136450   5.006   1.950   3.536 -0.8103  1.0909 -1.4927
11336SOL    HW236451   5.023   1.919   3.389 -0.2472 -2.2162 -0.8036
11337SOL     OW36452   8.686   4.184   0.207 -0.5771  0.1056 -0.5549
11337SOL    HW136453   8.629   4.259   0.186  0.2808  0.3297 -2.2342
11337SOL    HW236454   8.652   4.112   0.154 -1.2111 -0.6478  0.8319
11338SOL     OW36455   0.657   6.613   3.724  0.4387 -0.0450  0.5822
11338SOL    HW136456   0.562   6.605   3.711  0.3886  1.5697 -0.3397
11338SOL    HW236457   0.673   6.572   3.809 -1.3934  1.2623  1.6425
11339SOL     OW36458   1.289   9.026   4.051  0.2687 -0.4032 -0.0982
11339SOL    HW136459   1.243   8.961   4.103 -0.3151 -0.4801 -0.7060
11339SOL    HW236460   1.373   9.038   4.097 -0.5157  0.0868  1.2769
11340SOL     OW36461   0.975   6.313   4.979 -0.3498  0.2303  0.2839
11340SOL    HW136462   0.901   6.256   5.002 -1.1887  1.1125 -0.1494
11340SOL    HW236463   1.011   6.341   5.063 -1.7238  1.3147  0.5417
11341SOL     OW36464   5.606   8.501   1.982  0.2337  0.0490 -0.0980
11341SOL    HW136465   5.680   8.450   2.015 -0.5608  0.1242  1.9390
11341SOL    HW236466   5.556   8.439   1.930  1.3238 -0.1965 -0.8876
11342SOL     OW36467   3.950   4.616   1.720  0.4293 -1.2886  0.6371
11342SOL    HW136468   3.929   4.537   1.669  1.2772 -1.3461  0.3489
11342SOL    HW236469   3.925   4.689   1.663 -1.7480 -1.3130  1.4951
11343SOL     OW36470   2.237   3.698   0.804 -0.4206  0.5082  0.2647
11343SOL    HW136471   2.208   3.786   0.779  1.6034  1.6808  1.7701
11343SOL    HW236472   2.261   3.657   0.721  4.2712  3.5694 -0.2536
11344SOL     OW36473   7.909   8.641   2.373  0.2505 -0.0605  0.0802
11344SOL    HW136474   7.830   8.627   2.321 -0.5344  0.0399  1.1816
11344SOL    HW236475   7.942   8.553   2.391 -0.2519 -0.1731  0.5132
11345SOL     OW36476   5.737   9.622   6.529 -0.3108  0.2046  0.7575
11345SOL    HW136477   5.804   9.680   6.566 -0.3802  0.3983  0.5782
11345SOL    HW236478   5.774   9.592   6.447 -0.6167  0.6452  0.4522
11346SOL     OW36479   9.735   8.096   9.486 -0.3170 -0.0125  0.0163
11346SOL    HW136480   9.755   8.171   9.431 -0.7356  0.2576  0.2348
11346SOL    HW236481   9.745   8.128   9.575  0.1660 -0.3986  0.1092
11347SOL     OW36482   2.499   1.336   2.216  0.2975  0.3397  0.6965
11347SOL    HW136483   2.528   1.423   2.188  0.5351 -0.3144 -1.2554
11347SOL    HW236484   2.411   1.350   2.251 -0.6186  1.1198 -1.6919
11348SOL     OW36485  10.099   3.093   1.019  0.1589  0.2338 -0.1168
11348SOL    HW136486  10.032   3.092   0.951 -0.3217  0.4523  0.3504
11348SOL    HW236487  10.171   3.041   0.982 -0.1766  0.1776 -0.7058
11349SOL     OW36488   0.570   9.064   3.855 -0.1907  0.4456  0.3710
11349SOL    HW136489   0.638   9.000   3.873 -0.4765 -0.5157 -1.6152
11349SOL    HW236490   0.599   9.144   3.899  2.2052  0.0604 -0.3604
11350SOL     OW36491   2.292   5.439  10.396 -0.1711 -0.5011 -0.0299
11350SOL    HW136492   2.224   5.504  10.375  0.8963  0.4109 -0.7731
11350SOL    HW236493   2.323   5.464  10.483  0.2246 -0.0019 -0.3059
11351SOL     OW36494   3.817   2.634   1.259  0.3807  0.1291 -0.0256
11351SOL    HW136495   3.855   2.673   1.338 -1.0386 -0.0589  0.7994
11351SOL    HW236496   3.840   2.694   1.189  2.9700 -0.4599  0.2245
11352SOL     OW36497   5.609   8.935   2.024  0.4037 -0.4697 -0.1476
11352SOL    HW136498   5.681   8.885   1.986  0.1232 -0.2145 -1.0346
11352SOL    HW236499   5.649   8.984   2.096  0.5603 -2.4281  1.1655
11353SOL     OW36500   7.134   7.971   0.123 -0.2614 -0.1321 -0.6998
11353SOL    HW136501   7.104   7.887   0.157  1.0643 -0.0379  0.8724
11353SOL    HW236502   7.156   7.954   0.032  1.3107 -1.9103 -0.0653
11354SOL     OW36503   4.094   0.407   0.888 -0.1339 -0.1338 -0.3238
11354SOL    HW136504   4.181   0.381   0.856 -0.3948  0.4814 -1.6197
11354SOL    HW236505   4.051   0.446   0.811 -1.6275 -0.5874  0.2379
11355SOL     OW36506   5.139   5.726   8.369 -0.0348 -0.4480 -0.6195
11355SOL    HW136507   5.154   5.722   8.275 -0.4169  0.0871 -0.7017
11355SOL    HW236508   5.044   5.732   8.379 -0.1132 -2.0305 -0.1464
11356SOL     OW36509   6.790   7.268   9.718 -0.1710 -0.4194  0.0649
11356SOL    HW136510   6.851   7.339   9.701  0.4792 -0.9095  0.3057
11356SOL    HW236511   6.754   7.287   9.805  3.2201 -2.5678  2.1423
11357SOL     OW36512   6.786   2.855   5.845  0.0329 -0.0459 -0.0942
11357SOL    HW136513   6.803   2.903   5.926  1.9138 -0.3327 -0.2700
11357SOL    HW236514   6.873   2.838   5.809 -0.5500 -3.1702 -0.2750
11358SOL     OW36515   4.186   2.364   4.381 -0.0707  0.6585  0.0583
11358SOL    HW136516   4.251   2.434   4.385  1.1902 -0.4797  0.1825
11358SOL    HW236517   4.194   2.319   4.465  0.2644 -0.5791 -0.6038
11359SOL     OW36518   1.366   1.475   6.888  0.3557 -0.0583  0.0405
11359SOL    HW136519   1.348   1.433   6.804 -0.1992  0.7462 -0.2640
11359SOL    HW236520   1.402   1.406   6.943 -1.3325 -1.1519 -0.1586
11360SOL     OW36521   4.970   8.535  10.328 -0.2313  0.4896 -0.3954
11360SOL    HW136522   4.992   8.452  10.369 -4.6324  0.5703  2.8915
11360SOL    HW236523   4.913   8.511  10.254 -0.7238  0.5327 -0.0340
11361SOL     OW36524   2.345   4.869   3.390 -0.2471 -0.0277  0.0099
11361SOL    HW136525   2.272   4.874   3.329 -2.1974  0.0326  2.2369
11361SOL    HW236526   2.349   4.777   3.416  0.7312 -0.0995 -0.3165
11362SOL     OW36527   3.956   9.663   4.726 -0.2265 -0.4043  0.3413
11362SOL    HW136528   3.939   9.576   4.762  1.7809 -1.0605 -0.1781
11362SOL    HW236529   4.013   9.705   4.790 -0.9586  0.4370  0.4564
11363SOL     OW36530   6.005   4.372   2.438  0.1637 -0.3634 -0.5469
11363SOL    HW136531   6.096   4.395   2.460 -0.1514  1.6571 -1.2148
11363SOL    HW236532   6.009   4.343   2.347 -0.0863  1.5407 -1.2104
11364SOL     OW36533   3.285   0.478   2.935  0.0432  0.0268 -0.1719
11364SOL    HW136534   3.284   0.459   2.841  0.1248  1.8740 -0.5913
11364SOL    HW236535   3.193   0.477   2.961  0.0821 -1.4809 -0.0253
11365SOL     OW36536   7.982   5.757   8.082 -0.2737 -0.4090  0.0119
11365SOL    HW136537   7.921   5.815   8.037  1.2659  0.9602 -0.4049
11365SOL    HW236538   7.951   5.754   8.172 -0.6942  0.6205 -0.0915
11366SOL     OW36539   2.253   1.445   9.463  0.0802  0.0280  0.4442
11366SOL    HW136540   2.279   1.370   9.518  0.6984 -0.0967 -0.0051
11366SOL    HW236541   2.164   1.424   9.435  0.8161 -1.3547 -1.0118
11367SOL     OW36542   0.075   7.327   1.442 -0.4129  0.7563 -0.4254
11367SOL    HW136543   0.085   7.319   1.347 -0.5704 -0.8626 -0.3449
11367SOL    HW236544   0.095   7.418   1.461  3.2232  0.3467 -1.5736
11368SOL     OW36545   2.401   1.947   2.235 -0.3998 -0.3333  0.0262
11368SOL    HW136546   2.323   1.897   2.210  0.1646 -0.4977 -1.4986
11368SOL    HW236547   2.379   2.038   2.213 -0.6319 -0.2005  0.7973
11369SOL     OW36548   5.158   4.176   3.269  0.2663  0.2534 -0.2450
11369SOL    HW136549   5.155   4.233   3.192  1.6528  0.4058 -0.2099
11369SOL    HW236550   5.232   4.209   3.320 -0.4242 -0.0445  1.0069
11370SOL     OW36551   3.507   9.889   1.044 -0.2288  0.0128  0.2349
11370SOL    HW136552   3.558   9.968   1.029  2.0452 -1.1605  1.2717
11370SOL    HW236553   3.538   9.827   0.977 -0.7131 -0.5480  0.5142
11371SOL     OW36554   4.164   6.584   7.147  0.4081 -0.3776  0.2643
11371SOL    HW136555   4.103   6.524   7.190  1.0982 -0.9397  0.4878
11371SOL    HW236556   4.123   6.670   7.155 -1.3893 -0.9951 -1.4707
11372SOL     OW36557   9.680   8.042   5.183  0.2994 -0.5218  0.0474
11372SOL    HW136558   9.623   8.098   5.130  0.8314  0.7074  0.7417
11372SOL    HW236559   9.654   7.953   5.160 -0.9968  0.0075 -0.6262
11373SOL     OW36560   7.429   1.667   2.931 -0.1296  0.1855  0.3525
11373SOL    HW136561   7.341   1.655   2.966  0.4424 -1.0107  1.4557
11373SOL    HW236562   7.481   1.699   3.005  0.8710 -1.3873  0.3890
11374SOL     OW36563   8.515   8.541   3.414  0.0164 -0.2889 -0.2526
11374SOL    HW136564   8.531   8.509   3.325  0.5225  1.9322 -1.0192
11374SOL    HW236565   8.422   8.563   3.415  0.5041  2.0327 -1.1024
11375SOL     OW36566   3.350   2.088   5.010  0.1484  0.2486  0.0644
11375SOL    HW136567   3.358   2.178   4.979 -1.9937 -0.4489 -3.0059
11375SOL    HW236568   3.431   2.046   4.981  0.2886  0.7588 -0.3120
11376SOL     OW36569   7.987   7.672   9.606 -0.0921 -0.2317  0.0804
11376SOL    HW136570   7.998   7.641   9.516  1.6780  0.1551  0.1091
11376SOL    HW236571   8.052   7.742   9.615 -0.6146  0.1111  1.4946
11377SOL     OW36572   0.268   0.344   4.139  0.3819 -0.0849 -0.1878
11377SOL    HW136573   0.219   0.403   4.082  1.5075  0.6319 -0.4386
11377SOL    HW236574   0.208   0.325   4.211 -0.7313 -0.2884 -1.1543
11378SOL     OW36575   0.797   0.080   4.361 -0.0708 -0.4327 -0.7757
11378SOL    HW136576   0.834  -0.006   4.379 -2.4120 -1.9809 -2.6836
11378SOL    HW236577   0.833   0.105   4.276  1.6417  1.2008  0.3457
11379SOL     OW36578   7.916   5.422   8.266 -0.2417 -0.1325  1.0940
11379SOL    HW136579   8.004   5.448   8.239 -0.8746 -0.5522 -1.6896
11379SOL    HW236580   7.888   5.490   8.327  0.5535  2.2113 -1.0013
11380SOL     OW36581   8.265   7.606   2.908 -0.2746  0.4811  0.1790
11380SOL    HW136582   8.173   7.626   2.926 -0.6225 -0.7310 -0.1600
11380SOL    HW236583   8.265   7.577   2.817  0.4596  0.5181  0.1648
11381SOL     OW36584   2.393   8.538   2.278 -0.0318 -0.4043 -0.5266
11381SOL    HW136585   2.385   8.630   2.301  0.6066 -0.3873 -0.3691
11381SOL    HW236586   2.395   8.492   2.362  1.5218 -0.4022 -0.5351
11382SOL     OW36587   0.039   5.074   1.374  0.2654  0.0181  0.7179
11382SOL    HW136588   0.005   5.106   1.457 -0.1051  0.4102  0.4203
11382SOL    HW236589   0.130   5.105   1.372  0.2036  0.2120  0.8726
11383SOL     OW36590   6.827   3.912   3.184  0.0334  0.3619 -0.5405
11383SOL    HW136591   6.873   3.901   3.101 -2.3956 -2.6449 -1.7035
11383SOL    HW236592   6.852   3.836   3.236  0.5579  1.5724  1.0906
11384SOL     OW36593   6.136   7.235   1.411 -0.3765 -0.4025  0.0514
11384SOL    HW136594   6.158   7.327   1.392  0.1405 -0.4998  0.1876
11384SOL    HW236595   6.071   7.213   1.344 -0.4251  0.0299 -0.0503
11385SOL     OW36596   7.741   5.618   8.421  0.2977  0.0734  0.6331
11385SOL    HW136597   7.706   5.598   8.508  2.4504  1.4894  1.9069
11385SOL    HW236598   7.679   5.680   8.384  1.2701  2.5767  2.8525
11386SOL     OW36599   0.043   0.293   0.970  0.4146  0.4907 -0.0382
11386SOL    HW136600   0.023   0.336   1.053  1.1758 -0.6061  0.7377
11386SOL    HW236601   0.056   0.366   0.908  0.3923  1.3370  0.9215
11387SOL     OW36602   5.255   4.125   8.442  0.0913  0.1796 -0.6310
11387SOL    HW136603   5.305   4.052   8.477 -1.6170  0.3941  2.6287
11387SOL    HW236604   5.182   4.084   8.395 -0.7625 -0.3105  1.0390
11388SOL     OW36605   2.784   4.726   7.423 -0.6745  0.5379 -0.5192
11388SOL    HW136606   2.757   4.786   7.354 -1.2097  0.3216 -0.5013
11388SOL    HW236607   2.706   4.672   7.440 -0.3380  0.1384 -0.2258
11389SOL     OW36608   8.124   7.364   7.686 -0.0747  0.1162  0.4503
11389SOL    HW136609   8.102   7.439   7.741  0.2633  1.3329 -1.0102
11389SOL    HW236610   8.180   7.400   7.618 -0.4053 -1.3545 -0.6439
11390SOL     OW36611   0.965   9.088   6.596  0.4940 -0.7841  0.4812
11390SOL    HW136612   0.967   9.134   6.679 -0.3338 -0.5598  0.3816
11390SOL    HW236613   0.889   9.030   6.601  0.4048 -0.7346 -0.1360
11391SOL     OW36614   0.017   4.276   0.737  0.4846 -0.1186 -0.0336
11391SOL    HW136615  -0.014   4.338   0.671  0.6298 -0.7581 -0.7077
11391SOL    HW236616   0.094   4.236   0.697 -0.1352 -1.3962  0.0243
11392SOL     OW36617   3.066   2.511   0.941  0.7941 -0.0640 -0.3712
11392SOL    HW136618   3.010   2.454   0.890  1.4760 -1.9044  0.8528
11392SOL    HW236619   3.006   2.566   0.992  0.1349  0.4645 -1.6745
11393SOL     OW36620   7.490  10.161   7.099 -0.1261 -0.1807 -0.0293
11393SOL    HW136621   7.558  10.116   7.150  0.6031  1.9791  1.0519
11393SOL    HW236622   7.526  10.165   7.010 -0.0281 -1.3225 -0.0532
11394SOL     OW36623   8.560   5.510   5.843  0.8137 -0.0621  0.5824
11394SOL    HW136624   8.519   5.483   5.761 -0.3834 -1.2998  1.5460
11394SOL    HW236625   8.639   5.557   5.816  0.3721 -0.3077 -1.2680
11395SOL     OW36626   8.878   6.989   9.950  0.2375  0.6305 -0.3457
11395SOL    HW136627   8.806   6.943   9.994  0.3626 -0.4469 -1.2307
11395SOL    HW236628   8.861   7.082   9.969  0.0678  0.2546  1.6065
11396SOL     OW36629   9.455   2.745   2.997  0.3487  0.1132 -0.0345
11396SOL    HW136630   9.486   2.835   3.004 -2.8990  1.4877 -1.1861
11396SOL    HW236631   9.428   2.736   2.905 -1.3459 -1.2805  0.5380
11397SOL     OW36632   7.903   4.415   1.297  0.4586  0.2606  0.0519
11397SOL    HW136633   7.953   4.429   1.217 -1.6516  1.8866 -1.0966
11397SOL    HW236634   7.911   4.498   1.345  2.1852 -0.8869  1.8993
11398SOL     OW36635   2.301   4.548   5.598 -0.3687  0.0370  0.0495
11398SOL    HW136636   2.230   4.612   5.601 -1.4343 -0.8257 -2.9849
11398SOL    HW236637   2.291   4.504   5.513  2.6234 -1.5165  0.3386
11399SOL     OW36638  10.245   9.743   0.289  0.5243  0.1847 -0.2500
11399SOL    HW136639  10.162   9.698   0.276  0.7039 -0.7577  1.6308
11399SOL    HW236640  10.300   9.712   0.217  0.6481 -2.6911  0.9621
11400SOL     OW36641   2.405   0.238   3.426  0.1016 -0.1396 -0.0004
11400SOL    HW136642   2.363   0.166   3.380 -0.5373 -1.2098  2.1412
11400SOL    HW236643   2.482   0.258   3.373 -1.6567  0.1474 -2.6352
11401SOL     OW36644   3.707   2.368   2.392  0.1364  0.2322 -0.4073
11401SOL    HW136645   3.773   2.314   2.349  0.8710 -1.6762  2.7858
11401SOL    HW236646   3.624   2.324   2.373  0.4646 -0.6644  0.1708
11402SOL     OW36647   1.214   4.987   0.848 -0.1864  0.8481 -0.1483
11402SOL    HW136648   1.184   5.078   0.839  1.6093  1.5031 -0.0040
11402SOL    HW236649   1.263   4.986   0.930 -0.8049 -0.4508  0.2209
11403SOL     OW36650   5.332   6.527   1.232  1.0560 -0.5494  0.1762
11403SOL    HW136651   5.339   6.611   1.187 -0.8094 -1.3279 -1.7133
11403SOL    HW236652   5.274   6.544   1.306 -0.3800 -0.3835 -0.9384
11404SOL     OW36653   4.288   8.102  10.218  0.1005  0.0144  0.5908
11404SOL    HW136654   4.240   8.185  10.216 -0.1263 -0.1176  0.5736
11404SOL    HW236655   4.224   8.037  10.188  0.5797 -0.0077 -0.4537
11405SOL     OW36656   6.836   9.526   7.120  0.3047  0.3045  0.2545
11405SOL    HW136657   6.814   9.447   7.070 -1.1120  1.3363 -0.8358
11405SOL    HW236658   6.919   9.505   7.161  0.8645 -1.1195 -1.4404
11406SOL     OW36659   1.095   9.996   0.779 -0.0343 -0.8557 -1.1058
11406SOL    HW136660   1.055   9.947   0.708 -0.2013  1.1179 -2.4809
11406SOL    HW236661   1.179  10.027   0.743 -0.5571  1.0029 -0.8683
11407SOL     OW36662   4.056   3.049   9.302 -0.0963 -0.1156 -0.1236
11407SOL    HW136663   4.079   3.127   9.353  0.5593  0.0288 -0.6357
11407SOL    HW236664   3.960   3.048   9.303 -0.1428 -1.0795  2.5523
11408SOL     OW36665   1.803   1.674   2.280 -0.2543 -0.2460 -0.4108
11408SOL    HW136666   1.817   1.584   2.249  1.0861 -0.2220  0.0536
11408SOL    HW236667   1.872   1.688   2.344 -1.5897  0.5018  0.9189
11409SOL     OW36668   6.134   2.938   3.980 -0.3100  0.0677  0.2883
11409SOL    HW136669   6.081   2.992   3.922 -0.2942  1.3975  1.4730
11409SOL    HW236670   6.224   2.960   3.957 -0.2550 -1.0517 -0.6660
11410SOL     OW36671   8.202   3.923   2.944  0.5190 -0.0196  0.1485
11410SOL    HW136672   8.161   3.995   2.992 -0.3777  0.1039 -0.7695
11410SOL    HW236673   8.282   3.904   2.993  0.9587  1.8290  0.2199
11411SOL     OW36674   4.290   3.665   0.317 -0.3483  0.6296  0.1333
11411SOL    HW136675   4.216   3.607   0.301 -1.2555  1.1220  2.2447
11411SOL    HW236676   4.351   3.613   0.370  0.8979  0.2161 -1.6089
11412SOL     OW36677   5.695   6.064   5.926  0.2926  0.1259 -0.5030
11412SOL    HW136678   5.620   6.024   5.970  1.7918 -0.7092  1.4709
11412SOL    HW236679   5.767   6.003   5.941  1.7510  1.6650 -0.9043
11413SOL     OW36680   5.060   2.070   6.891 -0.0735 -0.1466  0.2223
11413SOL    HW136681   4.992   2.080   6.957  0.4812 -0.6536  0.8832
11413SOL    HW236682   5.018   2.023   6.819 -0.0531 -1.8178  1.2461
11414SOL     OW36683   6.564   5.075   1.882 -0.0215 -0.4790 -0.3384
11414SOL    HW136684   6.546   4.981   1.875  0.7962 -0.5665 -1.8203
11414SOL    HW236685   6.652   5.079   1.919  0.1793 -0.3284 -0.8237
11415SOL     OW36686   2.721   6.557   5.644 -0.0589 -0.3813 -0.1531
11415SOL    HW136687   2.802   6.517   5.614 -0.5857 -2.4934  1.0612
11415SOL    HW236688   2.651   6.511   5.598 -0.6522 -0.0991  0.4322
11416SOL     OW36689   8.850   8.887   0.317 -0.0710  0.2047  0.1028
11416SOL    HW136690   8.923   8.948   0.332 -0.1340  0.9147 -2.1736
11416SOL    HW236691   8.890   8.815   0.268 -0.7024  0.0933 -0.2481
11417SOL     OW36692   0.891   2.528   8.189  0.4180 -0.1494 -0.0679
11417SOL    HW136693   0.981   2.496   8.192 -0.1323 -2.1745 -2.1900
11417SOL    HW236694   0.844   2.470   8.250  0.6520  1.5783  1.8563
11418SOL     OW36695   8.203   3.744   2.245  0.2353  0.1534  0.1744
11418SOL    HW136696   8.256   3.734   2.324 -0.3425 -0.6833  0.4709
11418SOL    HW236697   8.220   3.665   2.194 -1.3934 -0.5835  0.6982
11419SOL     OW36698   6.594   4.000   6.801 -0.2084 -0.1837  0.8485
11419SOL    HW136699   6.565   4.016   6.891 -1.4510  2.2559  0.1022
11419SOL    HW236700   6.513   3.992   6.751  0.4323  0.4557 -0.3376
11420SOL     OW36701   3.693   4.367   4.416 -0.0376 -0.1611  0.2846
11420SOL    HW136702   3.773   4.326   4.382 -0.5692 -0.4593 -0.6382
11420SOL    HW236703   3.642   4.294   4.451  0.2502  0.0763  1.2365
11421SOL     OW36704   4.828   8.260   2.601 -0.2019  0.1293 -0.2521
11421SOL    HW136705   4.842   8.352   2.576 -0.7346  0.0907 -0.7006
11421SOL    HW236706   4.847   8.258   2.694 -0.4558  0.7567 -0.1809
11422SOL     OW36707   7.830   6.012   3.376 -0.2851  0.3171 -0.0868
11422SOL    HW136708   7.919   6.043   3.356 -0.3992  0.2216 -0.7794
11422SOL    HW236709   7.822   6.022   3.471  0.4318  0.4154 -0.0286
11423SOL     OW36710   7.743   5.204   2.893  0.1529  0.5986 -0.1478
11423SOL    HW136711   7.765   5.270   2.828 -1.5374  1.7717  0.4115
11423SOL    HW236712   7.658   5.231   2.928  0.9908  0.0665  2.5777
11424SOL     OW36713   6.804   8.740   3.911 -0.1449 -0.6886  0.8115
11424SOL    HW136714   6.802   8.830   3.943 -0.5351 -0.3197 -0.1914
11424SOL    HW236715   6.876   8.739   3.848  1.8415 -1.8814  2.9669
11425SOL     OW36716   3.093   8.483   2.194 -0.0169 -0.6859  0.2158
11425SOL    HW136717   3.032   8.410   2.184 -0.8629  0.0525 -0.1128
11425SOL    HW236718   3.110   8.512   2.105 -0.5894  0.2416  0.3964
11426SOL     OW36719   1.512   8.219   3.123  0.3358 -0.3083  0.6796
11426SOL    HW136720   1.424   8.253   3.104  0.8658  0.9846  0.4703
11426SOL    HW236721   1.570   8.267   3.064  1.3506 -0.2207  1.7077
11427SOL     OW36722   7.492   6.658   4.115  0.1655 -0.1891 -0.2477
11427SOL    HW136723   7.454   6.642   4.202  1.5598  1.3602  0.6958
11427SOL    HW236724   7.416   6.666   4.057 -0.9738  1.8376  1.3983
11428SOL     OW36725   5.572   2.092   3.669 -0.0132 -0.4338  0.0386
11428SOL    HW136726   5.495   2.052   3.711 -0.8169  1.1385  0.1157
11428SOL    HW236727   5.625   2.124   3.742 -0.5965  0.8262 -0.0738
11429SOL     OW36728   2.960   9.316  10.077 -0.2694 -0.1385 -0.3003
11429SOL    HW136729   3.024   9.289  10.143  0.3795 -0.2857 -0.9827
11429SOL    HW236730   2.908   9.237  10.061  0.4340 -0.4868 -0.9330
11430SOL     OW36731   0.931   3.165   6.451  0.1254 -0.7800  0.1788
11430SOL    HW136732   0.922   3.138   6.360 -2.3840 -2.0681  0.7172
11430SOL    HW236733   0.847   3.207   6.472 -0.0110 -1.9843  2.3158
11431SOL     OW36734   7.135   3.346   9.611  0.3720  0.4774 -0.1583
11431SOL    HW136735   7.136   3.361   9.516 -0.1018  0.8094 -0.1150
11431SOL    HW236736   7.048   3.309   9.629  0.6230  0.0036  0.0863
11432SOL     OW36737   8.008   2.095   9.598  0.0344 -0.6567 -0.5674
11432SOL    HW136738   8.043   2.013   9.632  0.6116 -0.9657 -1.8632
11432SOL    HW236739   8.015   2.088   9.503  2.4444  1.8660 -0.7121
11433SOL     OW36740   4.859   7.487   2.814 -0.1486  0.3495 -0.3992
11433SOL    HW136741   4.817   7.499   2.729  0.4067 -1.1180 -0.9093
11433SOL    HW236742   4.823   7.405   2.847  0.6741  0.2016  0.1559
11434SOL     OW36743   9.218   3.459   1.854  0.7241 -0.2830 -0.0896
11434SOL    HW136744   9.211   3.475   1.760  1.2864  1.9409  0.1755
11434SOL    HW236745   9.141   3.406   1.875 -0.4678  0.7720 -1.5145
11435SOL     OW36746   0.203   9.733   0.396  0.2931  0.3820  0.5947
11435SOL    HW136747   0.199   9.651   0.347  1.7759  0.9273 -0.5270
11435SOL    HW236748   0.127   9.782   0.366  0.4049  0.1402 -0.1114
11436SOL     OW36749   4.618   6.358   8.489 -0.3084  0.2862 -0.8318
11436SOL    HW136750   4.524   6.354   8.505 -0.3894  3.8936  0.3055
11436SOL    HW236751   4.655   6.289   8.545 -2.2272 -1.4877 -1.6385
11437SOL     OW36752   0.828   9.187   4.409 -0.4600 -0.5584 -1.0038
11437SOL    HW136753   0.893   9.148   4.468 -1.1306 -0.1030  0.0793
11437SOL    HW236754   0.746   9.183   4.459 -0.7827  1.0906 -1.3462
11438SOL     OW36755   8.390   3.412   4.967 -0.1572  0.0224  0.0392
11438SOL    HW136756   8.342   3.423   4.885  1.5274 -1.4877 -1.2582
11438SOL    HW236757   8.404   3.317   4.974  0.6996  0.2154  1.4967
11439SOL     OW36758   0.484  10.475   7.111 -0.3973  0.3693 -0.0464
11439SOL    HW136759   0.443  10.484   7.025 -0.3052 -1.6746 -0.3553
11439SOL    HW236760   0.455  10.553   7.159 -0.7736  1.3529 -1.7722
11440SOL     OW36761   1.931   8.126   5.776  0.1818 -0.3672 -0.6162
11440SOL    HW136762   2.004   8.083   5.821 -0.0031 -0.9447 -0.8664
11440SOL    HW236763   1.972   8.168   5.700  0.7999  2.0746  0.9406
11441SOL     OW36764   8.706  10.143   5.497  0.2141 -0.0606  0.0073
11441SOL    HW136765   8.692  10.105   5.583  1.1968 -0.4235  0.0271
11441SOL    HW236766   8.711  10.237   5.512 -2.0972  0.1198 -0.0182
11442SOL     OW36767   2.802   4.657   6.914 -0.4453  0.2847 -0.0393
11442SOL    HW136768   2.772   4.610   6.836 -1.0210  1.1835 -0.3807
11442SOL    HW236769   2.740   4.731   6.923  2.2391  2.9108 -1.4329
11443SOL     OW36770   4.756   9.606   7.189  0.5439 -0.5812  0.2286
11443SOL    HW136771   4.813   9.552   7.134  0.4797  0.4024 -0.8695
11443SOL    HW236772   4.670   9.601   7.147  0.6103  0.6023 -0.1079
11444SOL     OW36773   6.547   6.386   5.232  0.0824 -0.6675  0.7853
11444SOL    HW136774   6.499   6.468   5.244  0.5822 -0.3513  0.6663
11444SOL    HW236775   6.586   6.368   5.317 -1.5547 -1.7897  1.3445
11445SOL     OW36776   1.572   5.319   1.005  0.1453 -0.0123  0.3849
11445SOL    HW136777   1.656   5.349   0.970 -0.4286 -0.7465 -1.8207
11445SOL    HW236778   1.594   5.247   1.064  1.1876  1.3939  1.7709
11446SOL     OW36779   2.586   4.346   2.105 -0.2036 -0.0130  0.3645
11446SOL    HW136780   2.657   4.317   2.047 -0.2736 -1.5903  1.0057
11446SOL    HW236781   2.512   4.362   2.046 -0.6700 -2.8365  0.0128
11447SOL     OW36782   4.551   7.194   4.201 -0.4008 -0.1149  0.2986
11447SOL    HW136783   4.460   7.185   4.170 -0.5672  0.6782  0.5175
11447SOL    HW236784   4.600   7.222   4.124 -1.2033  4.0096  1.0413
11448SOL     OW36785   5.822   8.267   6.914  0.2693 -0.2402  0.1382
11448SOL    HW136786   5.762   8.321   6.965 -2.5883 -0.2164 -2.9014
11448SOL    HW236787   5.905   8.314   6.917 -0.3352  0.8351  2.8515
11449SOL     OW36788   3.217   1.932   3.040  0.0343  0.0953  0.3487
11449SOL    HW136789   3.165   1.916   2.962  1.7268  0.2008 -0.8619
11449SOL    HW236790   3.157   1.975   3.101 -0.9904  1.2532 -1.3993
11450SOL     OW36791   5.121   1.169   3.410 -0.1918  0.4624 -0.0248
11450SOL    HW136792   5.030   1.172   3.440 -1.2248  1.1444 -2.8820
11450SOL    HW236793   5.121   1.106   3.338  1.3000  1.3442 -0.8688
11451SOL     OW36794   0.443   6.440   9.574  0.1228  0.2990 -0.1314
11451SOL    HW136795   0.472   6.514   9.628  1.0670  0.3339 -0.6724
11451SOL    HW236796   0.523   6.390   9.557 -0.2793 -0.0881 -0.9311
11452SOL     OW36797   2.183  10.484   3.811  0.4619  0.2256 -0.1601
11452SOL    HW136798   2.117  10.416   3.793 -0.1937  0.0563  2.4521
11452SOL    HW236799   2.253  10.466   3.749  0.1503 -2.6681  0.1685
11453SOL     OW36800   3.916   5.748   7.279 -0.0014  0.4504 -0.3463
11453SOL    HW136801   3.960   5.802   7.346  0.9691 -0.6964 -0.0253
11453SOL    HW236802   3.982   5.736   7.211 -0.0602 -0.6364 -0.2308
11454SOL     OW36803   5.769   0.543   6.145 -0.4349  0.0751 -0.2099
11454SOL    HW136804   5.750   0.579   6.232  0.3151  1.1525 -0.4646
11454SOL    HW236805   5.834   0.475   6.161 -0.0799  0.4717  0.0441
11455SOL     OW36806   7.436   4.534   5.829 -0.2012 -0.0301  0.7778
11455SOL    HW136807   7.344   4.514   5.844 -0.3927 -0.9395 -1.2741
11455SOL    HW236808   7.482   4.454   5.852 -0.1112 -0.1537  0.1776
11456SOL     OW36809   9.127   9.291   5.192  0.3570 -0.0950  0.5239
11456SOL    HW136810   9.060   9.319   5.255  0.6448  1.4972  0.1634
11456SOL    HW236811   9.144   9.369   5.139  1.2832 -0.9572 -0.4876
11457SOL     OW36812   5.802   3.359   1.024  0.0354 -0.2747 -0.1583
11457SOL    HW136813   5.717   3.322   0.998 -0.9484  0.8030  1.3466
11457SOL    HW236814   5.828   3.307   1.100  0.0780  0.2372  0.1805
11458SOL     OW36815   5.453   3.970   9.418  0.0748  0.4893  0.3900
11458SOL    HW136816   5.488   4.058   9.402  1.5524 -0.1232  0.0571
11458SOL    HW236817   5.358   3.980   9.411  0.0010  2.5294  2.7003
11459SOL     OW36818   5.731   3.956   8.076 -0.2216 -0.0039 -0.2501
11459SOL    HW136819   5.729   3.985   8.167 -0.9852 -2.5369  0.6157
11459SOL    HW236820   5.796   4.013   8.034  0.0006  1.3476  1.8021
11460SOL     OW36821   7.579   7.160   1.114  0.5615  0.3899 -0.3882
11460SOL    HW136822   7.601   7.240   1.067 -2.5424  1.6500  0.0750
11460SOL    HW236823   7.557   7.097   1.045 -0.3819  1.0640 -0.7144
11461SOL     OW36824   9.508   3.001   9.287  0.1507  0.1583  0.1565
11461SOL    HW136825   9.487   3.063   9.358 -0.9163  2.2394 -1.8276
11461SOL    HW236826   9.579   3.043   9.239 -0.4823 -0.2147 -1.1419
11462SOL     OW36827   7.497   1.960   2.397 -0.1450 -0.0367 -0.1182
11462SOL    HW136828   7.532   1.878   2.364  1.4682  0.9800 -1.0374
11462SOL    HW236829   7.569   2.023   2.388 -1.1446  1.3543  1.0854
11463SOL     OW36830  10.189   5.950   3.387  0.2339 -0.6139  0.1854
11463SOL    HW136831  10.108   6.000   3.395 -0.0540 -1.0925  0.3303
11463SOL    HW236832  10.191   5.896   3.466 -0.3122 -2.0497 -0.7438
11464SOL     OW36833   9.165  10.084   5.887  0.1129  0.3541  0.5272
11464SOL    HW136834   9.121  10.108   5.805  0.8995  0.6218  0.1760
11464SOL    HW236835   9.248  10.046   5.859  0.4868  0.6548  1.2070
11465SOL     OW36836   7.319   1.804   7.991 -0.6748  0.0344 -0.8185
11465SOL    HW136837   7.412   1.823   8.005 -0.8616  0.3635  0.0376
11465SOL    HW236838   7.307   1.715   8.022 -0.7667  0.2054 -0.3611
11466SOL     OW36839   7.261   0.928   2.969  0.3495  0.4966 -0.5073
11466SOL    HW136840   7.267   0.834   2.952  0.2410  0.6162 -1.2168
11466SOL    HW236841   7.319   0.968   2.904  4.0664  0.6784  2.5353
11467SOL     OW36842   2.098   3.017   3.852  0.3601 -0.4380  0.2987
11467SOL    HW136843   2.031   3.044   3.790 -1.8025 -2.2610  1.6632
11467SOL    HW236844   2.153   2.954   3.804  0.4387  0.2467 -0.5199
11468SOL     OW36845   1.470   2.622   2.195  0.4980  0.0276  0.5241
11468SOL    HW136846   1.444   2.586   2.111 -1.1633  0.8325  0.6441
11468SOL    HW236847   1.553   2.667   2.178 -0.3378  1.0868 -0.9643
11469SOL     OW36848   5.243  10.107   5.851  0.1068  0.1528  0.2351
11469SOL    HW136849   5.237  10.011   5.854  1.0538  0.1061  1.2669
11469SOL    HW236850   5.155  10.135   5.825 -0.2478 -0.9851  0.1397
11470SOL     OW36851   2.191   2.836   4.353  0.0625 -0.2298 -0.3615
11470SOL    HW136852   2.117   2.895   4.371 -0.4770 -1.3749  1.4623
11470SOL    HW236853   2.151   2.752   4.331  0.6974 -1.3520  2.3023
11471SOL     OW36854   7.899   6.438   6.322  0.4378  0.0865 -0.3307
11471SOL    HW136855   7.966   6.473   6.264  0.3300  1.6640  0.4607
11471SOL    HW236856   7.823   6.494   6.308  0.4222  0.5175  1.3413
11472SOL     OW36857   0.772   8.734   3.054  0.2017  0.1378  0.0691
11472SOL    HW136858   0.833   8.719   3.127  0.5941  1.4334  0.0379
11472SOL    HW236859   0.765   8.649   3.011  0.7163 -0.4234  1.0497
11473SOL     OW36860   5.356   2.422   4.457  0.7325  0.2482  0.4266
11473SOL    HW136861   5.291   2.428   4.527 -1.8302 -1.1767 -1.6657
11473SOL    HW236862   5.310   2.453   4.379  2.2087 -1.8169 -1.3732
11474SOL     OW36863   4.205  10.363   3.423 -0.6514 -0.1074  0.4374
11474SOL    HW136864   4.262  10.290   3.398 -1.5184 -0.2452 -1.2735
11474SOL    HW236865   4.262  10.440   3.418 -0.5076 -0.2807 -0.9598
11475SOL     OW36866   1.083   6.028   6.695 -0.0789  0.4895 -0.1359
11475SOL    HW136867   1.144   6.012   6.767 -0.3895  0.5297  0.1443
11475SOL    HW236868   1.008   6.071   6.737 -0.0204  1.0405 -0.5794
11476SOL     OW36869   4.909   8.101  10.218  0.1995  0.3116 -0.2374
11476SOL    HW136870   4.934   8.187  10.252  0.6116  0.6903 -1.4242
11476SOL    HW236871   4.992   8.052  10.215  0.2101  0.3574 -0.8585
11477SOL     OW36872   4.697   5.406   9.349 -0.1341  0.1150 -0.1624
11477SOL    HW136873   4.679   5.375   9.438  0.9147 -0.9778 -0.3073
11477SOL    HW236874   4.634   5.477   9.336 -0.7246 -0.1083  1.2210
11478SOL     OW36875   0.697   0.255   3.879 -0.0940  0.6101 -0.7056
11478SOL    HW136876   0.605   0.248   3.905  0.9501  0.3570  3.8990
11478SOL    HW236877   0.724   0.164   3.863 -0.5127  0.6312 -1.5500
11479SOL     OW36878   6.462   5.857   5.483  0.5239 -0.2384 -0.4163
11479SOL    HW136879   6.400   5.820   5.420 -1.4311  0.3796  1.0415
11479SOL    HW236880   6.415   5.932   5.522  1.9741 -0.0786  1.1485
11480SOL     OW36881   0.121   9.044   1.768 -0.1904  0.5607  0.9840
11480SOL    HW136882   0.034   9.038   1.806 -1.1605  0.7547 -1.0632
11480SOL    HW236883   0.122   9.129   1.723  1.2181  0.7529  1.3219
11481SOL     OW36884   3.200   8.642   4.629  0.5703  0.4662 -0.3307
11481SOL    HW136885   3.251   8.575   4.673  0.7035  0.9013  0.1868
11481SOL    HW236886   3.226   8.724   4.671  2.1944  1.1791 -2.5096
11482SOL     OW36887   0.640   2.977   8.389 -0.0752  0.3529 -0.4209
11482SOL    HW136888   0.591   2.955   8.311 -0.3635 -1.2387  0.1699
11482SOL    HW236889   0.608   3.064   8.414 -0.4815  0.5746 -1.6535
11483SOL     OW36890   8.703   8.154   1.569 -0.3831  0.0901 -0.2584
11483SOL    HW136891   8.655   8.164   1.650 -0.2351 -0.0091 -0.1575
11483SOL    HW236892   8.740   8.241   1.552  0.7603 -0.2221  0.5279
11484SOL     OW36893   7.793  10.416   9.245 -0.1730  0.0858  0.0852
11484SOL    HW136894   7.772  10.450   9.158 -0.6788 -1.6534 -0.4922
11484SOL    HW236895   7.822  10.494   9.294 -0.9664  1.2862 -1.2715
11485SOL     OW36896   6.184   1.308   0.227  0.2274 -0.5896  0.2193
11485SOL    HW136897   6.089   1.311   0.238  0.2006  0.1001 -0.1995
11485SOL    HW236898   6.216   1.391   0.261  0.5974 -0.4518 -0.4405
11486SOL     OW36899   3.338   5.333   5.951  1.2491 -0.0520 -0.2297
11486SOL    HW136900   3.399   5.276   5.997 -0.1329 -0.6821  0.9244
11486SOL    HW236901   3.304   5.280   5.879  3.0434  0.7702 -1.7674
11487SOL     OW36902   5.639   3.691   3.758 -0.0220  0.2163 -0.4838
11487SOL    HW136903   5.630   3.727   3.669  0.3768 -0.9950 -1.0357
11487SOL    HW236904   5.731   3.665   3.764 -0.2556 -0.5217 -0.0283
11488SOL     OW36905   6.748   3.489   9.069  0.7164 -0.7799 -0.1169
11488SOL    HW136906   6.735   3.401   9.105  0.8428 -1.0837 -0.7967
11488SOL    HW236907   6.734   3.478   8.975 -2.8392  0.6230  0.1218
11489SOL     OW36908   2.749   4.619   3.970 -0.3998 -0.1115  0.1433
11489SOL    HW136909   2.720   4.687   3.910  0.2094 -0.2145 -0.2864
11489SOL    HW236910   2.767   4.543   3.913 -2.4472 -1.1268  0.7593
11490SOL     OW36911   5.443   7.216   9.103 -0.7711  0.0613  0.2189
11490SOL    HW136912   5.502   7.174   9.164 -0.5510 -1.1817 -0.7974
11490SOL    HW236913   5.457   7.169   9.020 -2.6693  0.1725 -0.2151
11491SOL     OW36914   7.084   1.858   1.966 -0.2241 -0.1252  0.2790
11491SOL    HW136915   7.166   1.908   1.963 -0.8578  0.9299 -2.0834
11491SOL    HW236916   7.015   1.924   1.965 -1.1370 -1.0197  1.1468
11492SOL     OW36917   3.447   1.116  10.208  0.2271 -0.2097 -0.4382
11492SOL    HW136918   3.433   1.051  10.277  0.5016  0.8389  0.6412
11492SOL    HW236919   3.503   1.071  10.145  0.1727 -1.1170  0.1338
11493SOL     OW36920   3.569  10.225   8.617  0.5566 -0.0249 -0.4244
11493SOL    HW136921   3.614  10.157   8.666  0.7922 -0.4679 -1.2406
11493SOL    HW236922   3.635  10.258   8.556  0.5590  1.2001  0.2076
11494SOL     OW36923   5.817   1.659   9.999 -0.1614  0.3754  0.2770
11494SOL    HW136924   5.734   1.683  10.041 -0.7728  2.2968 -1.7905
11494SOL    HW236925   5.878   1.727  10.026  0.1592  0.1523  0.1196
11495SOL     OW36926   7.889   1.361   5.379 -0.2190 -0.1055 -0.1859
11495SOL    HW136927   7.962   1.343   5.321 -0.1160  0.6333 -0.2917
11495SOL    HW236928   7.821   1.397   5.322 -0.2781  0.2084  0.0786
11496SOL     OW36929   9.967   8.396   8.356 -0.0250  0.5396  0.1812
11496SOL    HW136930   9.885   8.353   8.381 -0.1209 -0.0441 -1.0838
11496SOL    HW236931   9.947   8.490   8.360 -0.0485  0.4919  2.1829
11497SOL     OW36932   0.395   8.642   7.073 -0.3903  0.0375  0.7824
11497SOL    HW136933   0.389   8.677   6.984  0.8126 -0.3871  0.5151
11497SOL    HW236934   0.426   8.715   7.126  0.9384 -0.2641  0.4489
11498SOL     OW36935   6.627   6.041   1.216 -0.0414  0.2151 -0.5808
11498SOL    HW136936   6.652   5.956   1.181  0.6536 -0.1124  0.6701
11498SOL    HW236937   6.707   6.077   1.253 -0.6447  0.7749  0.2137
11499SOL     OW36938   8.063   3.332   0.601  0.5417  0.3220  0.6288
11499SOL    HW136939   8.063   3.371   0.514  1.5068  0.7178  0.7949
11499SOL    HW236940   8.156   3.321   0.623  0.3028 -0.4068  1.3261
11500SOL     OW36941   9.578   9.990   9.348 -0.6653 -0.1344  0.2439
11500SOL    HW136942   9.512   9.921   9.348 -0.9777  0.1633  0.7629
11500SOL    HW236943   9.661   9.943   9.362 -1.0321 -0.2780  2.2817
11501SOL     OW36944   2.458   3.791   6.168 -0.3123  0.1909  0.2872
11501SOL    HW136945   2.541   3.826   6.200  0.1748  0.5412 -1.2826
11501SOL    HW236946   2.404   3.869   6.154 -1.5428 -0.0998  2.8105
11502SOL     OW36947   7.828  10.122   1.744  0.5076 -0.1094  0.2043
11502SOL    HW136948   7.863  10.040   1.781 -0.6360 -0.3096  0.8914
11502SOL    HW236949   7.849  10.188   1.810 -0.1149 -0.1735  0.4693
11503SOL     OW36950   4.710   0.643   7.625 -0.1819  0.2847 -0.0121
11503SOL    HW136951   4.655   0.609   7.696  0.5652 -0.9972 -0.0191
11503SOL    HW236952   4.666   0.614   7.545 -0.3598  0.6731 -0.0593
11504SOL     OW36953   1.696   1.040   5.104 -0.0670  0.0363  0.3888
11504SOL    HW136954   1.626   1.015   5.044 -0.3731  1.7085  0.0007
11504SOL    HW236955   1.760   1.085   5.049  0.2739  0.4312  1.0957
11505SOL     OW36956   8.118   4.421   1.670 -0.0785  0.0417  0.0960
11505SOL    HW136957   8.164   4.457   1.746 -0.5478  0.1766  0.3201
11505SOL    HW236958   8.143   4.329   1.668 -1.2256 -0.3336  1.3216
11506SOL     OW36959   5.954   1.890   2.890  0.2332 -0.1788 -0.8327
11506SOL    HW136960   6.001   1.893   2.973 -0.3028  1.0552 -0.5554
11506SOL    HW236961   5.927   1.799   2.881  0.3259 -0.3363  0.3236
11507SOL     OW36962   2.132   3.084   9.483  0.4947 -0.4903  0.1601
11507SOL    HW136963   2.206   3.101   9.424  0.0334 -0.1951 -0.3431
11507SOL    HW236964   2.152   3.133   9.562  0.8017 -0.3570 -0.0012
11508SOL     OW36965   5.381   9.392   2.442 -0.2383 -0.4446  0.4519
11508SOL    HW136966   5.450   9.429   2.498 -0.9849  0.0463  1.0607
11508SOL    HW236967   5.340   9.324   2.496  0.4868 -1.5326 -0.3149
11509SOL     OW36968   1.086   8.514   4.526  0.5131  0.5171  0.2603
11509SOL    HW136969   1.103   8.604   4.553  1.6823  0.1993  0.6370
11509SOL    HW236970   1.140   8.501   4.449 -3.9991  1.9526 -3.6450
11510SOL     OW36971   1.533   2.504   4.790  0.0515  0.3735 -0.8169
11510SOL    HW136972   1.599   2.510   4.859  0.5554  0.1740 -1.2858
11510SOL    HW236973   1.580   2.475   4.713 -0.4346  1.0265 -1.3696
11511SOL     OW36974   3.031   3.682   1.852 -0.0457 -0.0688 -0.3296
11511SOL    HW136975   3.075   3.736   1.917  1.3705 -0.9509 -0.5229
11511SOL    HW236976   3.038   3.733   1.771  1.7795 -0.7329 -0.6338
11512SOL     OW36977   2.593   8.041  10.395 -0.7223 -0.0121  0.4728
11512SOL    HW136978   2.518   8.069  10.343 -1.1343  1.3517  1.7110
11512SOL    HW236979   2.576   8.077  10.482  1.2395  0.1014  0.8523
11513SOL     OW36980   6.118   3.569   8.574  0.1817  0.7782  0.4085
11513SOL    HW136981   6.060   3.494   8.562  0.0905  0.9134 -0.0014
11513SOL    HW236982   6.091   3.632   8.507 -0.4382  1.6168  1.4363
11514SOL     OW36983   2.507   4.220   0.841  0.7083  0.0112  0.3773
11514SOL    HW136984   2.435   4.166   0.872  1.3131 -0.2176  1.4324
11514SOL    HW236985   2.476   4.310   0.852 -0.4775 -0.0816 -1.8204
11515SOL     OW36986   3.267   4.792   3.152  0.1183 -0.0327  0.0477
11515SOL    HW136987   3.297   4.864   3.097 -0.0639 -0.6916 -0.9305
11515SOL    HW236988   3.184   4.764   3.113  0.5241 -1.2154  0.0025
11516SOL     OW36989   0.786   9.814   0.120  0.5996 -0.3089  0.5759
11516SOL    HW136990   0.733   9.891   0.098  1.1549 -0.4843 -1.6321
11516SOL    HW236991   0.732   9.739   0.093  0.5037 -0.6715  1.7155
11517SOL     OW36992   8.619   3.530   9.322 -0.4092  0.6223  0.6826
11517SOL    HW136993   8.660   3.524   9.236  0.4412  0.3652  1.0879
11517SOL    HW236994   8.582   3.443   9.338 -0.4658  0.6357  0.6207
11518SOL     OW36995   1.188   3.234   8.457 -0.2663 -0.1973  0.3740
11518SOL    HW136996   1.146   3.302   8.509  0.5978  0.0063  0.8242
11518SOL    HW236997   1.273   3.271   8.433 -0.5979 -0.3182 -1.1149
11519SOL     OW36998   4.376   7.202   2.221 -0.4127  0.6950 -0.4512
11519SOL    HW136999   4.464   7.221   2.187 -0.8866 -0.1587 -2.2532
11519SOL    HW237000   4.326   7.282   2.204 -0.1377  1.0020  0.1292
11520SOL     OW37001   3.141   2.616   8.720 -0.0033  0.8601 -0.0439
11520SOL    HW137002   3.161   2.709   8.724 -3.1876  1.6408  0.7254
11520SOL    HW237003   3.172   2.588   8.633  0.0259  2.9134 -0.7457
11521SOL     OW37004   7.989   3.260   3.578 -0.1368 -0.0663 -0.0294
11521SOL    HW137005   7.920   3.311   3.619  0.1725 -0.4704  1.0276
11521SOL    HW237006   8.070   3.291   3.620  0.0899 -1.1455  0.3549
11522SOL     OW37007   7.489   0.697   3.269 -0.1287  0.1588  0.1452
11522SOL    HW137008   7.415   0.695   3.329 -1.1355  1.6763 -0.9724
11522SOL    HW237009   7.484   0.613   3.223 -0.6027 -0.1202  0.6967
11523SOL     OW37010   4.385   1.474  10.472 -0.3417 -0.2043  0.0769
11523SOL    HW137011   4.327   1.404  10.504  1.0045 -1.6427 -0.5282
11523SOL    HW237012   4.346   1.500  10.388 -1.0589  0.0624  0.4775
11524SOL     OW37013  10.014   2.081   3.812 -0.0174 -0.0895 -0.2890
11524SOL    HW137014   9.953   2.055   3.743 -1.0651  0.2065  0.5112
11524SOL    HW237015   9.984   2.036   3.890  0.6505  0.2517  0.1814
11525SOL     OW37016   6.425   3.733   5.425  0.3475  0.5504  0.3707
11525SOL    HW137017   6.424   3.680   5.505  0.0688  1.4548  0.9765
11525SOL    HW237018   6.447   3.671   5.355  0.1894 -0.3256  1.0902
11526SOL     OW37019   2.071   0.894  10.051 -0.5450  0.2452 -0.3930
11526SOL    HW137020   2.030   0.813  10.081 -2.3963  1.3958  0.2945
11526SOL    HW237021   2.137   0.914  10.118  1.1712 -1.5269 -1.4303
11527SOL     OW37022   8.317   2.435   3.331  0.2951 -0.5603 -0.2083
11527SOL    HW137023   8.315   2.363   3.267 -0.9738  0.4730 -1.4097
11527SOL    HW237024   8.229   2.472   3.327  1.0752  1.4086 -0.0509
11528SOL     OW37025   8.190   3.647   1.506 -0.0797 -0.2276  0.1081
11528SOL    HW137026   8.124   3.584   1.477  0.6147 -0.8007 -0.2856
11528SOL    HW237027   8.150   3.733   1.492 -1.5285 -0.5846  1.8527
11529SOL     OW37028   8.665   4.910   9.045 -0.2776  0.4239  0.3436
11529SOL    HW137029   8.716   4.845   8.996 -0.1347 -0.7151  1.9117
11529SOL    HW237030   8.576   4.902   9.011 -0.2104 -0.4293  0.3552
11530SOL     OW37031   7.848   8.878   4.720  0.6859  0.7307 -0.4699
11530SOL    HW137032   7.775   8.821   4.696 -1.2588  2.3200  1.2835
11530SOL    HW237033   7.865   8.860   4.812  0.8587  2.0497 -0.2122
11531SOL     OW37034   1.934   0.398   6.642  0.0375 -0.6541  0.2736
11531SOL    HW137035   1.996   0.417   6.571  0.5975  1.0325  1.1704
11531SOL    HW237036   1.852   0.439   6.613 -0.0306 -0.8760  0.1447
11532SOL     OW37037   1.589   8.872   4.317 -0.0077  0.5659  0.3301
11532SOL    HW137038   1.574   8.944   4.256 -1.9505 -0.4454 -0.5075
11532SOL    HW237039   1.682   8.852   4.308 -0.1401  0.6867 -2.0947
11533SOL     OW37040   0.855   0.880   2.013 -0.0385 -0.6853  0.0273
11533SOL    HW137041   0.857   0.923   1.928  0.6291  0.6938  0.7169
11533SOL    HW237042   0.774   0.910   2.054  0.6073  0.2696  0.6593
11534SOL     OW37043   0.656   0.631   2.525 -0.2004 -0.2335 -0.5366
11534SOL    HW137044   0.625   0.546   2.494  0.9128 -0.7608 -0.2690
11534SOL    HW237045   0.751   0.621   2.531 -0.1368  0.7272  0.4101
11535SOL     OW37046   4.701   3.527   3.725 -0.0432 -0.2542 -0.5969
11535SOL    HW137047   4.670   3.491   3.809 -2.1811 -2.0610 -2.0348
11535SOL    HW237048   4.774   3.471   3.701 -0.5380 -0.8511 -0.7355
11536SOL     OW37049   1.064   1.920  10.163  0.0732  0.1576  0.1582
11536SOL    HW137050   1.150   1.960  10.148 -0.2045  0.7245  0.0421
11536SOL    HW237051   1.078   1.858  10.235  0.6866 -0.1291 -0.1949
11537SOL     OW37052   1.579   0.155   8.984  0.2447  0.4697 -0.0995
11537SOL    HW137053   1.644   0.157   9.054  0.1063  2.0072  0.0053
11537SOL    HW237054   1.596   0.233   8.932 -1.7969  1.2020  0.2289
11538SOL     OW37055   1.829   0.999   5.348 -0.3954 -0.2429 -0.1953
11538SOL    HW137056   1.797   1.032   5.264 -0.9654  1.2500  0.5481
11538SOL    HW237057   1.848   1.079   5.398  1.8128 -1.0882  0.4224
11539SOL     OW37058   4.565   1.686   5.271 -0.0811  0.0781  0.1114
11539SOL    HW137059   4.635   1.740   5.306 -0.1591 -0.7695  1.6738
11539SOL    HW237060   4.496   1.748   5.246  0.1809  0.7536  1.0230
11540SOL     OW37061   5.045   5.266   9.063 -0.6368  0.3704  0.3532
11540SOL    HW137062   5.074   5.337   9.007  0.7339  0.3441  0.9554
11540SOL    HW237063   5.039   5.306   9.150  0.5058 -0.2853  0.7640
11541SOL     OW37064   0.667   1.957   8.817 -0.3810  0.0619  0.0382
11541SOL    HW137065   0.639   1.901   8.745  0.4781 -1.0837  0.5633
11541SOL    HW237066   0.692   1.896   8.886  0.5103  1.0980  0.6555
11542SOL     OW37067   7.281   5.698  10.397 -0.8058  0.6106  0.8559
11542SOL    HW137068   7.302   5.673  10.307 -1.8510 -2.2075  1.2795
11542SOL    HW237069   7.337   5.773  10.415 -0.2375  0.9805 -1.9792
11543SOL     OW37070   3.863   4.928   0.151  0.4456 -0.3067 -0.5305
11543SOL    HW137071   3.926   4.859   0.170 -1.0354 -1.2453  1.2479
11543SOL    HW237072   3.811   4.893   0.078 -1.5071 -2.0276  1.5342
11544SOL     OW37073   2.838   7.580   6.746  0.2638  0.1371  0.3636
11544SOL    HW137074   2.801   7.658   6.787 -1.5270 -0.5035  0.0645
11544SOL    HW237075   2.888   7.613   6.672 -0.4365  1.0080  0.2629
11545SOL     OW37076   2.790   6.206   5.656  0.2017  0.5253  0.1433
11545SOL    HW137077   2.709   6.176   5.696  0.2315 -0.2878 -0.3825
11545SOL    HW237078   2.854   6.137   5.678  0.4668  0.5919 -0.4017
11546SOL     OW37079  10.336   2.709   5.156 -0.3709  0.1187  0.5695
11546SOL    HW137080  10.295   2.794   5.141 -2.0297 -0.6048  0.7817
11546SOL    HW237081  10.276   2.646   5.116 -0.1093 -1.0911  2.0079
11547SOL     OW37082  10.345   3.817   1.539  0.1433 -0.0744 -0.0983
11547SOL    HW137083  10.285   3.761   1.588  1.4107  1.1969  3.1241
11547SOL    HW237084  10.293   3.894   1.515 -0.0875  0.0093  0.6700
11548SOL     OW37085   6.332   1.558   0.692  0.6181 -0.1038  0.2414
11548SOL    HW137086   6.325   1.639   0.742  0.5510 -0.2162  0.4152
11548SOL    HW237087   6.243   1.543   0.658  0.7055  0.0710 -0.0680
11549SOL     OW37088   8.346   9.620   5.296 -0.3491 -0.0037 -0.4221
11549SOL    HW137089   8.259   9.589   5.323 -0.5999  0.1991 -0.9948
11549SOL    HW237090   8.337   9.639   5.203  0.7513 -1.5253 -0.8648
11550SOL     OW37091   5.865   6.186   3.811  0.1420 -0.3965 -0.6995
11550SOL    HW137092   5.823   6.101   3.799 -1.9337  0.7562 -2.3121
11550SOL    HW237093   5.931   6.171   3.878 -0.0426 -3.2990 -1.0325
11551SOL     OW37094   0.958   7.392   2.249 -0.2101  0.0179  0.1592
11551SOL    HW137095   0.980   7.453   2.179  0.0572 -1.5410 -1.1757
11551SOL    HW237096   0.960   7.445   2.328 -0.4678  1.8369 -0.9888
11552SOL     OW37097   3.343   9.159   4.092 -0.4773  1.0119 -0.4140
11552SOL    HW137098   3.283   9.090   4.119  1.5564 -1.0399 -0.8306
11552SOL    HW237099   3.405   9.167   4.164 -1.0955  3.0213 -0.0268
11553SOL     OW37100   0.678   7.416   2.529  0.4399  0.0257 -0.4386
11553SOL    HW137101   0.585   7.394   2.523  0.1390  0.9369  0.4972
11553SOL    HW237102   0.699   7.454   2.444  0.2378 -1.1322 -1.0261
11554SOL     OW37103   1.528   3.346   2.374 -0.1284  0.3301 -0.6309
11554SOL    HW137104   1.477   3.343   2.454  1.9611 -0.0808  0.7462
11554SOL    HW237105   1.519   3.437   2.343 -1.9440  0.1684 -0.6544
11555SOL     OW37106   2.916   3.868   6.473 -0.4545 -0.3913  0.3192
11555SOL    HW137107   2.988   3.928   6.455 -0.1539 -1.4802 -2.7264
11555SOL    HW237108   2.919   3.855   6.568  2.5502  0.5762  0.4715
11556SOL     OW37109   9.290   9.297   2.171  0.0471  0.2801 -0.0136
11556SOL    HW137110   9.358   9.305   2.105 -0.5769  1.4834 -0.5416
11556SOL    HW237111   9.222   9.244   2.128 -0.5471  1.4238 -0.5237
11557SOL     OW37112   9.769   0.226   5.223  0.7581  0.0207  0.1009
11557SOL    HW137113   9.689   0.275   5.243  1.3611  0.2537  2.2378
11557SOL    HW237114   9.755   0.141   5.265  0.7147 -0.8217 -1.5254
11558SOL     OW37115   2.117   4.857   8.724  0.3719  0.1434 -0.4586
11558SOL    HW137116   2.198   4.835   8.679 -0.4795 -0.7469 -1.6285
11558SOL    HW237117   2.049   4.846   8.658 -0.5382  2.8359 -0.1121
11559SOL     OW37118   6.532   8.559   9.350 -0.4341 -0.5872 -0.0769
11559SOL    HW137119   6.449   8.531   9.310 -0.6935 -0.8115  0.6084
11559SOL    HW237120   6.517   8.552   9.444 -0.1318  0.7638  0.1024
11560SOL     OW37121   7.540   8.887   7.098 -0.1399  0.4534 -0.2923
11560SOL    HW137122   7.581   8.957   7.047 -1.1656  0.8513 -0.5889
11560SOL    HW237123   7.465   8.859   7.046 -0.1273 -0.4289  0.1315
11561SOL     OW37124   1.647   2.647   8.097 -0.2315  0.2890 -0.0790
11561SOL    HW137125   1.701   2.719   8.065  0.2205 -0.3600 -0.8037
11561SOL    HW237126   1.705   2.571   8.096 -0.8761 -0.2126  0.0781
11562SOL     OW37127   8.693   1.753   9.410  0.6842  0.1341  0.0222
11562SOL    HW137128   8.691   1.703   9.329 -0.0399 -1.5877  1.0572
11562SOL    HW237129   8.635   1.706   9.469  1.0056  1.4805  1.4794
11563SOL     OW37130   8.566   4.602   2.231 -0.3063 -0.4575  0.3804
11563SOL    HW137131   8.478   4.638   2.245 -0.1836 -0.6654  1.8631
11563SOL    HW237132   8.602   4.654   2.160 -1.5011 -0.1394 -0.0173
11564SOL     OW37133   8.981   2.572   3.253 -0.1407  0.3770  0.4085
11564SOL    HW137134   9.052   2.608   3.200 -0.2109  0.4822  0.3856
11564SOL    HW237135   8.903   2.618   3.222  0.0098  1.4937  1.5887
11565SOL     OW37136   3.821   2.345   5.374 -0.7489 -0.3755 -0.4119
11565SOL    HW137137   3.846   2.327   5.465  0.1765  1.5122 -0.2591
11565SOL    HW237138   3.873   2.283   5.323  2.4223  1.6418  0.0879
11566SOL     OW37139   3.408   1.466   3.361  0.7490  0.1041  0.4897
11566SOL    HW137140   3.346   1.538   3.373  1.3064  0.3801  1.8392
11566SOL    HW237141   3.476   1.502   3.305 -0.0739 -0.0757 -0.6681
11567SOL     OW37142   4.744   9.852   4.462  0.4166  0.2515  0.0649
11567SOL    HW137143   4.763   9.942   4.488 -0.4178  0.5095 -0.1876
11567SOL    HW237144   4.785   9.798   4.529 -1.6140  0.8838  1.9159
11568SOL     OW37145   1.127   9.158   9.682 -0.2026  0.1301 -0.5055
11568SOL    HW137146   1.054   9.168   9.621  0.2580 -1.1355 -1.3012
11568SOL    HW237147   1.200   9.129   9.628  0.4009 -0.3877  0.5434
11569SOL     OW37148   7.995   8.880   3.003  0.3441 -0.3527 -0.3558
11569SOL    HW137149   8.012   8.908   3.093 -3.1491 -2.1763  1.0785
11569SOL    HW237150   7.931   8.943   2.970  0.7776 -0.3388 -1.1944
11570SOL     OW37151   4.933  10.329   7.926  0.2903 -0.1185 -0.1604
11570SOL    HW137152   4.878  10.322   8.004  0.1149 -0.7053 -0.3285
11570SOL    HW237153   4.917  10.248   7.878  0.4706  0.1939 -0.7613
11571SOL     OW37154   8.114   7.618   2.348  0.1740 -0.1320  0.1840
11571SOL    HW137155   8.207   7.617   2.369  0.2061  1.3970  0.1899
11571SOL    HW237156   8.108   7.667   2.266 -0.4884 -1.5633 -0.6655
11572SOL     OW37157   5.637   2.438   7.941  0.4953 -0.1432 -0.2316
11572SOL    HW137158   5.641   2.361   7.885 -0.2764  0.1631 -0.7272
11572SOL    HW237159   5.552   2.478   7.921  0.8766  0.8267  0.0202
11573SOL     OW37160   5.446  10.408   5.914 -0.0451 -0.6491  0.3998
11573SOL    HW137161   5.541  10.402   5.908  0.2944  2.6045  0.9791
11573SOL    HW237162   5.421  10.333   5.968  2.3105 -0.9142  1.2303
11574SOL     OW37163   4.604   3.747   2.387 -0.1555  0.1401 -0.0498
11574SOL    HW137164   4.603   3.800   2.466  1.0885 -0.0416  0.1083
11574SOL    HW237165   4.674   3.784   2.333  0.1075 -0.7384 -0.3429
11575SOL     OW37166   8.346   0.790   1.947 -0.1888  0.1816 -0.1744
11575SOL    HW137167   8.311   0.781   2.036 -0.9578  0.4044 -0.4478
11575SOL    HW237168   8.309   0.872   1.915 -0.6349 -0.3345 -1.0192
11576SOL     OW37169   2.175   6.284   1.172 -0.5066 -0.6102 -0.5877
11576SOL    HW137170   2.191   6.363   1.120  0.1158 -1.3155 -1.4851
11576SOL    HW237171   2.209   6.306   1.259 -1.7374  0.6531 -0.3785
11577SOL     OW37172   4.949   9.181   1.624 -0.1994  0.3423  0.3723
11577SOL    HW137173   4.905   9.118   1.681 -1.0897 -0.0043 -0.6628
11577SOL    HW237174   5.028   9.135   1.594  0.6880  0.8146  1.9077
11578SOL     OW37175   7.762   2.713   1.580 -0.4899 -0.3138 -0.8635
11578SOL    HW137176   7.785   2.652   1.510  0.6227 -0.9545  0.0383
11578SOL    HW237177   7.688   2.672   1.624 -2.1561  0.7828 -2.5161
11579SOL     OW37178   9.998   8.936   9.742  0.3370 -0.0341 -0.3248
11579SOL    HW137179   9.987   8.854   9.694  0.2974  0.2724 -0.8411
11579SOL    HW237180   9.924   8.990   9.714  0.5997  0.3336 -0.3058
11580SOL     OW37181   5.867   8.262   5.772  0.2289  0.2160  0.9652
11580SOL    HW137182   5.775   8.251   5.794 -0.3952  1.1014 -0.9401
11580SOL    HW237183   5.874   8.353   5.744  1.2662 -0.3076 -0.6244
11581SOL     OW37184   1.995   1.108   8.040 -0.0080  0.1833  0.4974
11581SOL    HW137185   2.080   1.151   8.053 -0.0949 -0.0650  2.1398
11581SOL    HW237186   2.014   1.015   8.051 -0.1035 -0.1202 -1.4884
11582SOL     OW37187  10.022   3.072   0.264  0.1502 -0.4784  0.3084
11582SOL    HW137188   9.930   3.095   0.280 -0.9384 -3.1324 -1.4153
11582SOL    HW237189  10.035   3.089   0.171  1.8425  0.9858  0.7621
11583SOL     OW37190   2.128   0.025   8.359 -0.3109  0.0622 -0.6741
11583SOL    HW137191   2.169   0.087   8.420 -0.3752 -1.2770  0.8289
11583SOL    HW237192   2.199   0.001   8.299 -0.3298  1.6661 -1.3674
11584SOL     OW37193   3.476   1.559   1.663  0.0089 -0.2579 -0.5959
11584SOL    HW137194   3.477   1.476   1.615  0.6331 -0.5290 -0.1298
11584SOL    HW237195   3.548   1.610   1.625 -1.3554  0.7512 -1.9991
11585SOL     OW37196   8.857   6.509   6.687 -0.1931  0.1771 -0.0421
11585SOL    HW137197   8.841   6.491   6.779  0.4603  0.4407  0.1270
11585SOL    HW237198   8.946   6.477   6.671 -0.2203  0.3331 -0.5231
11586SOL     OW37199   9.426   8.808   8.001 -0.0339 -0.7354  0.8931
11586SOL    HW137200   9.339   8.786   7.966  0.8071 -2.1273 -0.4243
11586SOL    HW237201   9.430   8.761   8.085 -0.4723 -0.8319  0.8645
11587SOL     OW37202   1.701   3.846  10.229 -0.1394  0.0766 -0.4880
11587SOL    HW137203   1.782   3.843  10.280 -0.2573  2.9644  0.0287
11587SOL    HW237204   1.709   3.772  10.168  1.2417 -1.8242  1.8408
11588SOL     OW37205   4.676   6.632   2.266  0.1973 -0.2773 -0.6330
11588SOL    HW137206   4.704   6.645   2.357 -0.9566  0.0959 -0.3147
11588SOL    HW237207   4.585   6.663   2.264 -0.4912 -2.1982 -1.4171
11589SOL     OW37208   7.192   5.004   5.496 -0.6176 -0.1846 -0.1394
11589SOL    HW137209   7.115   5.015   5.552  0.5998  1.9171  1.2947
11589SOL    HW237210   7.227   4.918   5.519 -0.2095  0.5730  2.3744
11590SOL     OW37211   2.445   2.104   3.485 -0.2004 -0.0502 -0.1937
11590SOL    HW137212   2.396   2.022   3.493 -1.3233  0.5740 -0.5208
11590SOL    HW237213   2.392   2.158   3.427  0.8565  0.6754 -0.5062
11591SOL     OW37214   8.265   2.621   6.949  0.2505  0.1353 -0.4207
11591SOL    HW137215   8.281   2.541   6.898 -1.8310 -0.4939 -0.1622
11591SOL    HW237216   8.243   2.590   7.036  2.2647  1.1526  0.5118
11592SOL     OW37217   2.022   7.974   3.792  0.4673 -0.1079  0.2696
11592SOL    HW137218   1.952   8.039   3.778 -0.0166 -0.8600 -0.9076
11592SOL    HW237219   2.045   7.985   3.884  0.2270  1.5645  0.1745
11593SOL     OW37220   4.338   1.745   7.489  0.4536 -0.4686  0.1409
11593SOL    HW137221   4.319   1.720   7.399 -1.4964  0.7068  0.1837
11593SOL    HW237222   4.419   1.797   7.483 -0.0446  0.2088 -1.0477
11594SOL     OW37223   9.752   9.802   7.551  0.6759 -0.3748 -0.1091
11594SOL    HW137224   9.808   9.763   7.618  1.3502  0.4748 -0.1618
11594SOL    HW237225   9.812   9.857   7.499  0.0530 -0.5441 -1.0298
11595SOL     OW37226   7.859   6.966   7.020 -0.1861 -0.5668 -0.1767
11595SOL    HW137227   7.828   7.026   6.952 -0.8599 -0.0563  0.5570
11595SOL    HW237228   7.844   6.879   6.984  0.4883 -0.3099 -1.1196
11596SOL     OW37229   4.110   4.067   2.878  0.2692  0.1105 -0.0044
11596SOL    HW137230   4.138   4.158   2.891  2.3120 -0.3515 -0.8030
11596SOL    HW237231   4.091   4.061   2.785  0.6627 -0.4224 -0.0523
11597SOL     OW37232  10.053   6.353   7.179 -0.3246 -0.3380  0.0306
11597SOL    HW137233  10.082   6.357   7.088 -0.2292 -2.1237 -0.0530
11597SOL    HW237234  10.094   6.273   7.214 -0.2173  0.4087  1.6935
11598SOL     OW37235   3.312   0.053   6.790  0.2158 -0.0674 -0.4720
11598SOL    HW137236   3.275   0.139   6.772  1.2152  0.2086 -1.2812
11598SOL    HW237237   3.309   0.008   6.705 -1.2341 -1.2139  0.1463
11599SOL     OW37238   3.119   7.229   7.067  0.5826  0.1551 -0.4562
11599SOL    HW137239   3.061   7.163   7.030 -0.8177  1.3010 -0.3611
11599SOL    HW237240   3.069   7.311   7.065  2.2996  1.2650 -0.6830
11600SOL     OW37241   2.034   5.491   2.760  0.4477  0.3284 -0.5361
11600SOL    HW137242   1.974   5.495   2.685  0.0050 -0.1405 -0.2152
11600SOL    HW237243   2.040   5.397   2.780  0.2363  0.4857  0.2746
11601SOL     OW37244   2.250   5.334   2.912 -0.0926  0.4674  0.4931
11601SOL    HW137245   2.281   5.255   2.956 -1.0981 -0.4279 -0.3507
11601SOL    HW237246   2.161   5.313   2.884  0.1270  1.3775 -1.0160
11602SOL     OW37247   8.000   9.865   6.860  0.5002 -0.4116 -0.2996
11602SOL    HW137248   8.018   9.955   6.887  1.1190 -0.7391  0.4197
11602SOL    HW237249   8.070   9.843   6.799 -0.7362  0.2311 -2.0356
11603SOL     OW37250   8.438   8.562   9.773 -0.3889 -0.4273  0.4491
11603SOL    HW137251   8.386   8.485   9.796 -0.4986 -0.5947 -0.3113
11603SOL    HW237252   8.378   8.617   9.722 -0.0710 -0.2218  0.2907
11604SOL     OW37253   2.186   1.038   9.848 -0.0990  0.0677  0.1711
11604SOL    HW137254   2.154   0.975   9.913  0.2018  0.0643  0.3171
11604SOL    HW237255   2.256   0.991   9.802  1.8157  1.0938  1.8961
11605SOL     OW37256   2.618   8.966   7.113  0.2402 -0.2741  0.6640
11605SOL    HW137257   2.642   9.059   7.114  1.8712 -0.6645 -0.0212
11605SOL    HW237258   2.615   8.941   7.206  1.4736  0.0673  0.8137
11606SOL     OW37259   3.680   4.250   1.176  0.2858  0.2803 -0.0725
11606SOL    HW137260   3.767   4.279   1.201  0.0103  1.7565 -0.7415
11606SOL    HW237261   3.633   4.242   1.259  0.6878  0.7003  0.1974
11607SOL     OW37262   7.234   7.726   6.227 -0.0259  0.2086  0.6998
11607SOL    HW137263   7.160   7.786   6.236  0.8573  1.1347  2.3110
11607SOL    HW237264   7.289   7.765   6.159 -1.2920 -0.8368 -0.9839
11608SOL     OW37265   9.710   5.632   7.764 -0.5277  0.6392 -0.5872
11608SOL    HW137266   9.699   5.672   7.851  2.2643 -1.1031  0.7249
11608SOL    HW237267   9.697   5.705   7.703 -0.5565  2.4113  1.3937
11609SOL     OW37268  10.106   8.021   7.096 -0.0111  0.4855 -0.0857
11609SOL    HW137269  10.094   7.928   7.115 -1.0527  0.5459 -0.3846
11609SOL    HW237270  10.130   8.060   7.179 -0.2655  0.0542  0.1928
11610SOL     OW37271   4.882   8.387   7.795 -0.1017 -0.3234 -0.4865
11610SOL    HW137272   4.891   8.400   7.701  0.4891 -0.0955 -0.4017
11610SOL    HW237273   4.824   8.312   7.804 -0.0209 -0.4485 -1.0351
11611SOL     OW37274   8.736   7.954   7.472  0.2407  0.2099 -0.4480
11611SOL    HW137275   8.688   7.975   7.552  1.1024  0.4090  0.0255
11611SOL    HW237276   8.744   7.859   7.473  1.4307  0.3081  0.4069
11612SOL     OW37277   3.182   9.704   4.556 -0.8787  0.8656  0.0633
11612SOL    HW137278   3.270   9.725   4.526 -0.6643 -2.2206 -1.9544
11612SOL    HW237279   3.127   9.710   4.478 -1.3316 -2.3574 -0.0237
11613SOL     OW37280   0.943   0.469   8.033  0.0623  0.2262 -0.3944
11613SOL    HW137281   0.926   0.400   8.097 -0.2358 -0.0862 -0.8063
11613SOL    HW237282   1.015   0.519   8.071  1.4787 -1.3484 -0.8843
11614SOL     OW37283  10.260   8.767   0.225  0.0359 -0.5989 -0.2921
11614SOL    HW137284  10.287   8.681   0.195  1.6406 -0.2255 -0.0435
11614SOL    HW237285  10.261   8.760   0.321  1.5529  0.0418 -0.2301
11615SOL     OW37286   7.388   3.182   6.223 -0.5015  0.3924 -0.0154
11615SOL    HW137287   7.345   3.259   6.260 -0.3420  0.7746 -0.6129
11615SOL    HW237288   7.454   3.157   6.288 -0.9768  0.3777  0.4661
11616SOL     OW37289   6.622   0.392   6.277 -0.1495  0.1829  0.5164
11616SOL    HW137290   6.639   0.486   6.269 -0.9341  0.2363 -1.0604
11616SOL    HW237291   6.639   0.358   6.189 -1.7539 -0.7938  0.5366
11617SOL     OW37292   7.160   9.545   7.495  0.0310 -0.5191 -0.2784
11617SOL    HW137293   7.194   9.599   7.568  1.3392 -0.7025 -0.7231
11617SOL    HW237294   7.067   9.536   7.514  0.0035  0.9233  0.4383
11618SOL     OW37295   2.092   9.248   3.083 -0.3476 -0.2667  0.3955
11618SOL    HW137296   2.148   9.304   3.029 -0.6199  0.3562  0.7595
11618SOL    HW237297   2.118   9.267   3.173 -1.9229  0.9073  0.6530
11619SOL     OW37298   7.271   3.880   3.940  0.0604  0.3699 -0.1741
11619SOL    HW137299   7.189   3.847   3.976 -0.9185  0.2371 -2.3801
11619SOL    HW237300   7.304   3.940   4.007 -0.4638 -1.5325  1.9018
11620SOL     OW37301  10.120   0.174   1.483 -0.1067 -0.1537 -0.5192
11620SOL    HW137302  10.050   0.111   1.466 -0.9686 -0.1543  2.4167
11620SOL    HW237303  10.132   0.220   1.400 -2.6671 -1.0804 -1.5070
11621SOL     OW37304   6.065   0.616   7.165 -0.1459 -0.0570  0.0040
11621SOL    HW137305   6.152   0.575   7.158 -0.6278 -0.9943 -0.6378
11621SOL    HW237306   6.010   0.568   7.104 -0.6854  1.7442 -1.0131
11622SOL     OW37307   3.039   5.135   7.831  0.4055  0.0619 -0.2222
11622SOL    HW137308   3.050   5.087   7.749  0.4620  0.6481 -0.5652
11622SOL    HW237309   3.051   5.069   7.899  0.0474 -0.4959 -0.6878
11623SOL     OW37310   1.783  10.022   6.204 -0.0498 -0.6435  0.2051
11623SOL    HW137311   1.748  10.101   6.164  1.2521  0.4575  1.1513
11623SOL    HW237312   1.752   9.951   6.148 -1.8677  0.4449 -0.2461
11624SOL     OW37313   9.156   8.475   7.354  0.0368 -0.2658  0.3873
11624SOL    HW137314   9.098   8.537   7.397  0.4042 -0.5949  1.3953
11624SOL    HW237315   9.099   8.406   7.322 -0.3092  0.2942 -0.2282
11625SOL     OW37316   0.745   4.041   9.041  0.0525 -0.3596 -0.0969
11625SOL    HW137317   0.710   3.966   9.090 -1.6582  0.8949  0.6784
11625SOL    HW237318   0.687   4.114   9.063  0.9683  0.9418 -1.7593
11626SOL     OW37319   9.469   9.754   6.698  0.2759 -0.6215  0.0879
11626SOL    HW137320   9.409   9.686   6.727 -0.5176 -0.6077 -1.4370
11626SOL    HW237321   9.556   9.717   6.714 -0.1403 -1.4955  0.3971
11627SOL     OW37322   8.372   4.724   6.992  0.2339  0.0961  0.1479
11627SOL    HW137323   8.373   4.636   6.952  1.5840  0.2155 -0.1337
11627SOL    HW237324   8.450   4.726   7.047 -0.7407  0.5123  1.5849
11628SOL     OW37325   5.389   6.329   7.678 -0.2301  0.0084 -0.3242
11628SOL    HW137326   5.304   6.352   7.642  0.2194  2.3219 -0.0175
11628SOL    HW237327   5.450   6.339   7.605  0.0450  0.2098 -0.0697
11629SOL     OW37328   3.634   3.075   8.390  0.1574  0.2493 -0.0493
11629SOL    HW137329   3.555   3.073   8.335  0.0602  3.9305 -0.2815
11629SOL    HW237330   3.705   3.051   8.330 -0.3147  1.3179 -1.0907
11630SOL     OW37331   5.471   9.610   9.799  0.0377  0.1399  0.3873
11630SOL    HW137332   5.447   9.587   9.889  0.5002 -0.3226  0.3959
11630SOL    HW237333   5.545   9.553   9.778 -0.8960 -0.7360 -0.7492
11631SOL     OW37334   4.627   8.851   1.822 -0.2222 -0.1028  0.1328
11631SOL    HW137335   4.536   8.860   1.793 -0.4406 -0.5145  0.6592
11631SOL    HW237336   4.630   8.763   1.861 -0.3177  0.9493  2.6536
11632SOL     OW37337   8.157   7.802   8.289 -0.0216 -0.3958 -0.1705
11632SOL    HW137338   8.183   7.711   8.301  0.3693 -0.4409 -1.3023
11632SOL    HW237339   8.233   7.853   8.317  0.1873 -0.4486 -0.6402
11633SOL     OW37340   7.056   7.561   4.929 -0.3361 -0.5110 -0.1480
11633SOL    HW137341   7.034   7.469   4.944 -0.8961 -0.6124 -1.4618
11633SOL    HW237342   7.070   7.567   4.834 -1.2308  0.9320 -0.2195
11634SOL     OW37343   5.160  10.106   0.126  0.0068  0.0116  0.2850
11634SOL    HW137344   5.193  10.191   0.099  0.3741  0.3540  1.7549
11634SOL    HW237345   5.124  10.120   0.213 -0.4631 -1.2089  0.3093
11635SOL     OW37346   5.538   6.525   7.277  0.4408  0.0428  0.2782
11635SOL    HW137347   5.549   6.469   7.354  0.0019  2.7329  2.4258
11635SOL    HW237348   5.627   6.542   7.247  0.8241  1.0587  1.8600
11636SOL     OW37349   5.790   7.128   1.298 -0.1664  0.5686  0.2433
11636SOL    HW137350   5.836   7.199   1.253 -0.7668  1.2188  0.6402
11636SOL    HW237351   5.854   7.093   1.360  0.1881  0.6470 -0.0744
11637SOL     OW37352   7.643   0.882   0.176 -0.1859  0.0397 -0.0878
11637SOL    HW137353   7.732   0.917   0.176 -0.8718  1.9595 -0.6090
11637SOL    HW237354   7.608   0.908   0.090 -0.7193 -2.2078 -0.6184
11638SOL     OW37355   2.224   8.081   3.654 -0.3424 -0.5897  0.4720
11638SOL    HW137356   2.180   8.125   3.581 -0.1478 -1.2677 -0.0662
11638SOL    HW237357   2.153   8.033   3.698 -0.0395 -2.6570 -1.1012
11639SOL     OW37358   9.742   4.180   1.764  0.0747  0.0743 -0.2509
11639SOL    HW137359   9.713   4.145   1.679  0.4987 -0.6266 -0.1123
11639SOL    HW237360   9.753   4.274   1.748 -1.4514  0.2397 -0.5314
11640SOL     OW37361   2.718   3.886   8.223 -0.2741 -0.5432 -0.0325
11640SOL    HW137362   2.649   3.856   8.282  2.2249 -2.3456  2.2626
11640SOL    HW237363   2.695   3.849   8.138 -2.7318  0.0164  0.3210
11641SOL     OW37364   5.440   4.518   1.514 -0.7216  0.3371  0.4081
11641SOL    HW137365   5.478   4.468   1.587  1.2763 -0.0943 -0.8659
11641SOL    HW237366   5.380   4.456   1.472  1.8632 -1.2106 -1.2652
11642SOL     OW37367   6.379  10.065   0.430  0.2561 -0.3827  0.1398
11642SOL    HW137368   6.347  10.148   0.396  3.1796  0.7768 -0.1161
11642SOL    HW237369   6.420  10.023   0.354 -0.7056 -1.8248  0.3915
11643SOL     OW37370   4.315   2.595   4.872 -0.6345 -0.8588 -0.1394
11643SOL    HW137371   4.233   2.605   4.921 -0.9332  0.4031 -0.8719
11643SOL    HW237372   4.383   2.603   4.939 -0.9983  1.8140 -0.0053
11644SOL     OW37373   1.106   6.348   5.249  0.9585  0.1363  0.2870
11644SOL    HW137374   1.058   6.292   5.309 -0.0164  0.8657  0.2116
11644SOL    HW237375   1.163   6.401   5.306  0.4827  0.3996  0.5232
11645SOL     OW37376   6.388   1.299   2.309  0.3810 -0.3694 -0.3693
11645SOL    HW137377   6.355   1.381   2.273  0.1103 -0.4987 -0.4206
11645SOL    HW237378   6.357   1.232   2.248  0.4286 -0.5285 -0.2191
11646SOL     OW37379   9.876   3.324   4.530  0.4324  0.3798 -0.1750
11646SOL    HW137380   9.921   3.393   4.578  0.0673  0.6342 -0.1930
11646SOL    HW237381   9.813   3.288   4.592 -0.1399  0.8050 -0.4980
11647SOL     OW37382   2.070   6.433   0.808  0.0609  0.0698  0.7727
11647SOL    HW137383   2.108   6.381   0.736 -1.0114  0.1380  0.1336
11647SOL    HW237384   2.038   6.367   0.870  0.4765  0.0053  0.9255
11648SOL     OW37385   8.501   3.811   2.668 -0.3673  0.0313 -0.3167
11648SOL    HW137386   8.544   3.893   2.693  2.6218 -1.8623  1.3700
11648SOL    HW237387   8.491   3.763   2.751 -0.6691 -1.9065 -1.4123
11649SOL     OW37388   3.317   8.267   1.878  0.0322 -0.0037 -0.0782
11649SOL    HW137389   3.262   8.273   1.956  0.1721 -0.6424  0.0758
11649SOL    HW237390   3.406   8.258   1.912 -0.1318 -3.3338 -0.1820
11650SOL     OW37391   9.378   7.550   8.739 -0.3688  0.8187 -0.2592
11650SOL    HW137392   9.356   7.643   8.746  0.5186  0.9321  2.4948
11650SOL    HW237393   9.473   7.547   8.753 -0.1959 -0.4258 -1.5243
11651SOL     OW37394   0.874   1.785   5.904  0.0210  0.4014 -0.2382
11651SOL    HW137395   0.850   1.871   5.869  0.0052  0.5537  0.1401
11651SOL    HW237396   0.844   1.723   5.838  1.6179  0.7811 -1.3718
11652SOL     OW37397   0.545   3.059   6.346  0.0473  0.3802 -0.3166
11652SOL    HW137398   0.621   3.024   6.392 -1.4643  0.7451  2.7015
11652SOL    HW237399   0.540   3.151   6.375  0.2490  1.3322 -3.0230
11653SOL     OW37400  10.203   3.864   3.255 -0.0612 -0.4914  0.3618
11653SOL    HW137401  10.119   3.823   3.232 -0.3954  0.6640 -0.5578
11653SOL    HW237402  10.267   3.793   3.247 -0.5079 -0.7132 -2.0068
11654SOL     OW37403   8.969   3.809   8.149 -0.1499  0.0194 -0.4063
11654SOL    HW137404   8.933   3.754   8.219  0.1026  0.4760  0.0971
11654SOL    HW237405   9.062   3.817   8.171 -0.5287  2.2813  0.6813
11655SOL     OW37406   5.295   9.352   3.001 -0.2096  0.8114 -0.7619
11655SOL    HW137407   5.325   9.429   3.050  0.5213 -0.2554  0.5328
11655SOL    HW237408   5.201   9.348   3.020 -0.0814  0.8739 -0.0807
11656SOL     OW37409   6.563   8.593   1.159  0.1836 -0.2528  0.7126
11656SOL    HW137410   6.504   8.581   1.084 -0.2819 -0.4240  1.1057
11656SOL    HW237411   6.548   8.684   1.186  0.6301 -0.0713  0.3665
11657SOL     OW37412   8.033   2.736   5.147  0.0806 -0.4517 -0.1883
11657SOL    HW137413   8.030   2.661   5.207  1.3917  0.0123  0.5080
11657SOL    HW237414   8.124   2.739   5.117 -0.3531 -0.1462 -1.5446
11658SOL     OW37415   7.974   4.820   3.154  0.4443  0.0647 -0.2216
11658SOL    HW137416   7.915   4.852   3.086  1.2945  0.5684 -0.7504
11658SOL    HW237417   7.923   4.755   3.202 -1.0503  1.5971  0.3444
11659SOL     OW37418   4.800   6.139   0.644  0.1652  0.1947  0.0576
11659SOL    HW137419   4.792   6.113   0.736  1.2897 -0.0219  0.1132
11659SOL    HW237420   4.885   6.104   0.617  0.4494  1.3945 -0.6828
11660SOL     OW37421   9.831   6.526   3.441  0.4900 -0.0208  0.3131
11660SOL    HW137422   9.912   6.530   3.493  1.0235 -0.2457 -0.4776
11660SOL    HW237423   9.767   6.485   3.499  1.1699 -0.5745  0.6884
11661SOL     OW37424   7.481   3.355   8.165 -0.3637 -0.0856 -0.0942
11661SOL    HW137425   7.487   3.451   8.165  1.9118 -0.1000  2.8995
11661SOL    HW237426   7.533   3.327   8.091  0.1057  0.9783 -0.1772
11662SOL     OW37427   5.036   7.201   5.949 -0.1561 -0.0475 -0.4018
11662SOL    HW137428   5.029   7.280   6.002 -2.1789 -0.0075 -0.6477
11662SOL    HW237429   4.955   7.200   5.897 -0.9204 -3.0077  0.6329
11663SOL     OW37430   8.986   7.632   0.645 -0.5875 -0.1593  0.1062
11663SOL    HW137431   9.028   7.646   0.730  1.6589  0.4735 -1.0351
11663SOL    HW237432   8.933   7.710   0.631  1.4288  1.2078 -0.3475
11664SOL     OW37433   5.639   2.400   3.266  0.6568 -0.1253  0.0576
11664SOL    HW137434   5.607   2.489   3.282  0.6913 -0.3748  1.7471
11664SOL    HW237435   5.585   2.345   3.323  1.4912 -1.0204  0.0067
11665SOL     OW37436   5.018   1.830   2.355  0.1414 -0.4042 -0.2308
11665SOL    HW137437   4.924   1.810   2.362 -0.4221  0.3334 -3.8539
11665SOL    HW237438   5.033   1.896   2.423 -2.2644  0.2797 -0.2639
11666SOL     OW37439   9.605   8.754   7.131  0.0459  0.0719 -0.1586
11666SOL    HW137440   9.534   8.708   7.087 -1.2132  0.6054  1.2242
11666SOL    HW237441   9.606   8.717   7.219  0.5332  1.0775  0.2761
11667SOL     OW37442   9.799   3.502   3.957 -0.0488 -0.5833 -0.0035
11667SOL    HW137443   9.808   3.486   3.863  0.2229  1.3312 -0.3568
11667SOL    HW237444   9.823   3.595   3.967 -2.0028 -0.2079  1.6656
11668SOL     OW37445   3.632   1.949   2.657 -0.2302  0.2360  0.4039
11668SOL    HW137446   3.669   1.983   2.739  1.0189 -0.3659  0.1103
11668SOL    HW237447   3.703   1.958   2.594 -0.3417 -1.5958 -0.0240
11669SOL     OW37448   7.315   4.698   3.240  0.4084  0.0444  0.3359
11669SOL    HW137449   7.346   4.769   3.297 -0.2461 -0.1743  0.9861
11669SOL    HW237450   7.352   4.618   3.279 -0.3431 -0.1453  0.6960
11670SOL     OW37451  10.066   7.453   0.648  0.0886  0.0789 -0.3272
11670SOL    HW137452  10.161   7.443   0.639  0.0250 -0.3644 -0.5657
11670SOL    HW237453  10.033   7.452   0.558 -0.1985 -0.4749 -0.2249
11671SOL     OW37454   9.867   1.042   2.306 -0.2200  0.1010 -0.5546
11671SOL    HW137455   9.838   1.102   2.237 -1.4609  0.8241  0.5638
11671SOL    HW237456   9.787   1.000   2.337  0.3470 -0.4016  0.2743
11672SOL     OW37457   6.427   9.898   2.630 -0.4495 -0.3116  0.0550
11672SOL    HW137458   6.444   9.951   2.708  1.7735  0.9674 -1.2087
11672SOL    HW237459   6.471   9.815   2.647 -3.2186 -1.5952  1.6784
11673SOL     OW37460   5.440   1.014   0.107  0.3637 -0.1481  0.2635
11673SOL    HW137461   5.439   1.088   0.047 -0.4173  0.0232  0.4727
11673SOL    HW237462   5.532   1.003   0.131  0.6307  0.0322 -0.6490
11674SOL     OW37463   7.300   5.072   1.347 -0.1209 -0.0241  0.0646
11674SOL    HW137464   7.285   4.992   1.398 -0.2693 -1.0919 -1.5452
11674SOL    HW237465   7.213   5.110   1.336 -0.1165  0.0889  0.4200
11675SOL     OW37466   0.212  10.203   5.728 -0.2413  0.1553  0.2774
11675SOL    HW137467   0.222  10.298   5.720 -0.8325  0.1678 -0.3756
11675SOL    HW237468   0.211  10.171   5.638 -0.8028 -0.3935  0.4716
11676SOL     OW37469   6.993   2.376   1.050  0.3362  0.4406  0.2568
11676SOL    HW137470   6.989   2.471   1.058  0.1937  0.3976  0.7612
11676SOL    HW237471   6.901   2.349   1.040  0.2768  0.2745  1.1930
11677SOL     OW37472   5.891   5.429   0.290 -0.5591  0.8760 -0.0700
11677SOL    HW137473   5.845   5.356   0.248 -1.0741  0.8032  0.6023
11677SOL    HW237474   5.957   5.456   0.226 -0.5270 -0.0142 -0.4256
11678SOL     OW37475   0.224   3.672   5.064  0.0148  0.2255 -0.1980
11678SOL    HW137476   0.249   3.721   4.986 -1.0573 -0.9663 -1.3483
11678SOL    HW237477   0.297   3.684   5.124  1.9310 -0.5535 -2.1975
11679SOL     OW37478   8.433   4.398   2.948 -0.3907 -0.6365 -0.1934
11679SOL    HW137479   8.432   4.469   3.013 -0.5039 -0.6821 -0.1449
11679SOL    HW237480   8.378   4.431   2.877  0.6141 -0.1298 -0.7586
11680SOL     OW37481   6.568   8.717   8.704  0.2418 -0.1455  0.1260
11680SOL    HW137482   6.580   8.696   8.611  2.6948  0.1744  0.3098
11680SOL    HW237483   6.491   8.774   8.705  1.4561  1.7214 -2.0539
11681SOL     OW37484   1.752   1.511   8.853  0.6820  0.1370  0.0310
11681SOL    HW137485   1.815   1.441   8.870  1.5634  0.8922 -0.0743
11681SOL    HW237486   1.697   1.477   8.782  2.4057  0.3347 -1.4699
11682SOL     OW37487   8.519   6.089   9.926 -0.7202 -0.2662 -0.4319
11682SOL    HW137488   8.502   6.054  10.014  2.1388  0.1438  0.3804
11682SOL    HW237489   8.471   6.172   9.923  0.4212  0.5212  1.4188
11683SOL     OW37490  10.147   1.921   5.511  0.4138  0.1878  0.2098
11683SOL    HW137491  10.116   1.925   5.421 -0.4529 -1.7657  0.3571
11683SOL    HW237492  10.242   1.910   5.504  0.2504 -0.9482 -0.5360
11684SOL     OW37493   6.567   5.897   2.399  0.5340 -0.0925  0.0929
11684SOL    HW137494   6.642   5.953   2.422  2.1889 -1.7029 -1.0392
11684SOL    HW237495   6.521   5.946   2.331  2.4939 -0.3672 -1.5684
11685SOL     OW37496   0.954   2.822   8.946 -0.2856  0.2653  0.2889
11685SOL    HW137497   0.959   2.728   8.963 -1.3335 -0.0134 -0.8240
11685SOL    HW237498   0.881   2.852   8.998 -1.8778 -0.1302 -1.5843
11686SOL     OW37499   4.567   6.343   9.994 -0.3888 -0.1915 -0.0264
11686SOL    HW137500   4.557   6.250   9.971 -0.4982  0.2723 -2.0713
11686SOL    HW237501   4.573   6.344  10.089  0.3785 -2.3638 -0.0002
11687SOL     OW37502   2.578   7.794   0.681 -0.0786 -0.2462 -0.1577
11687SOL    HW137503   2.551   7.873   0.727 -0.9760 -1.0467  0.7384
11687SOL    HW237504   2.670   7.808   0.660 -0.4083  1.3301 -0.6658
11688SOL     OW37505   0.419   2.732   7.451  0.2467  0.0368  0.0133
11688SOL    HW137506   0.328   2.713   7.472  0.6085 -1.3568  0.3912
11688SOL    HW237507   0.454   2.650   7.417  1.7044  0.1834  1.0684
11689SOL     OW37508   9.643   2.298   2.750 -0.0735  0.1145  0.1773
11689SOL    HW137509   9.621   2.322   2.840  1.4741  0.8567  0.3960
11689SOL    HW237510   9.560   2.267   2.712 -0.5785 -1.0335  2.0932
11690SOL     OW37511   0.927   8.210   3.955  0.3776 -0.0053  0.0451
11690SOL    HW137512   0.997   8.146   3.947 -0.6846 -1.1923 -0.1772
11690SOL    HW237513   0.847   8.157   3.960 -0.5884  1.3184 -0.7590
11691SOL     OW37514   3.629   3.636   0.747 -0.5666 -0.0908  0.0013
11691SOL    HW137515   3.590   3.623   0.660 -0.3123  0.4957 -0.2036
11691SOL    HW237516   3.593   3.720   0.776 -0.1522  0.0173  0.1953
11692SOL     OW37517   3.428   2.876   1.520  0.9866  0.2920  0.3927
11692SOL    HW137518   3.443   2.930   1.442  0.1372 -1.0205 -0.7211
11692SOL    HW237519   3.374   2.931   1.577 -1.6659 -0.0627 -1.6073
11693SOL     OW37520   7.777   1.383   4.199 -0.5213 -0.4258 -0.5467
11693SOL    HW137521   7.777   1.362   4.105  2.3952 -3.6280 -0.0314
11693SOL    HW237522   7.854   1.337   4.233 -1.1357  1.1221  3.3566
11694SOL     OW37523   7.338   4.880   3.020 -0.6583 -0.3014 -0.2137
11694SOL    HW137524   7.392   4.957   3.035 -1.6862  0.3328  0.3225
11694SOL    HW237525   7.314   4.850   3.108 -0.6636 -0.9435 -0.4295
11695SOL     OW37526   2.272   6.170   6.130 -0.2654 -0.2112 -0.8308
11695SOL    HW137527   2.189   6.217   6.121  0.2682  0.5930 -1.8610
11695SOL    HW237528   2.317   6.214   6.202  0.6488  1.5982 -2.4136
11696SOL     OW37529   5.367   6.079   0.993  0.1819 -0.4944 -1.0637
11696SOL    HW137530   5.352   6.126   0.911 -0.4520  1.6820  0.2126
11696SOL    HW237531   5.283   6.084   1.039  1.0373  0.0274  0.5187
11697SOL     OW37532   6.036   3.664   5.763 -0.2065 -0.3563  0.1749
11697SOL    HW137533   6.053   3.745   5.714 -1.4090  0.6166  1.3172
11697SOL    HW237534   5.995   3.606   5.699  0.5211 -0.0392 -0.6142
11698SOL     OW37535   7.454   3.267   0.718 -0.0899  0.6119  0.6080
11698SOL    HW137536   7.535   3.288   0.672  0.0415 -0.3409  0.3973
11698SOL    HW237537   7.388   3.323   0.677 -0.0067 -0.3115 -0.8421
11699SOL     OW37538   0.939   8.828   4.593 -0.3331 -0.4764 -0.1479
11699SOL    HW137539   1.016   8.788   4.633 -0.4463 -0.2181  0.3362
11699SOL    HW237540   0.949   8.922   4.611 -1.4401 -0.5656  1.1275
11700SOL     OW37541   8.210   6.632   1.044 -0.6421 -0.1891  0.7259
11700SOL    HW137542   8.241   6.545   1.069 -1.4038 -0.6450  0.1130
11700SOL    HW237543   8.141   6.652   1.108 -0.8565 -0.2812  0.5250
11701SOL     OW37544   3.102   4.337   1.295 -0.0962 -0.5031  0.0219
11701SOL    HW137545   3.093   4.305   1.385 -1.2329  0.5890  0.3229
11701SOL    HW237546   3.060   4.270   1.241 -0.5786 -0.5470  0.4403
11702SOL     OW37547   3.005   5.705   0.423 -0.1030 -0.0530 -0.5115
11702SOL    HW137548   2.963   5.688   0.507  0.2488  0.0900 -0.3020
11702SOL    HW237549   3.015   5.800   0.419 -0.2516 -0.0481 -0.7803
11703SOL     OW37550   6.554   5.693   9.396  0.0932  0.1874 -0.3900
11703SOL    HW137551   6.559   5.780   9.434 -1.6594  0.8229 -1.4867
11703SOL    HW237552   6.467   5.661   9.420  0.0105 -0.5050 -1.5122
11704SOL     OW37553   4.258   6.450   8.462  0.3303 -0.0474  0.0494
11704SOL    HW137554   4.292   6.366   8.492  0.5933  0.6434  1.8090
11704SOL    HW237555   4.163   6.444   8.477  0.2522 -0.2681 -0.4936
11705SOL     OW37556   4.652   8.173   4.877 -0.0127  0.3388 -0.1047
11705SOL    HW137557   4.622   8.090   4.913  0.7920 -0.1144 -0.4493
11705SOL    HW237558   4.578   8.232   4.889 -0.7860 -0.5504 -0.2837
11706SOL     OW37559   7.476   1.289   6.326  0.2902 -0.1660 -0.2004
11706SOL    HW137560   7.555   1.293   6.380  2.5149  0.2176 -3.1658
11706SOL    HW237561   7.438   1.377   6.332  0.5169 -0.1208  0.6526
11707SOL     OW37562   9.134   8.701   3.393 -0.1660  0.5028 -0.0816
11707SOL    HW137563   9.159   8.767   3.459  0.3807  1.3204 -1.0724
11707SOL    HW237564   9.138   8.618   3.440  1.5850  0.9104  0.5797
11708SOL     OW37565  10.331   1.837   7.293  0.0693 -0.4959 -0.1682
11708SOL    HW137566  10.352   1.916   7.244 -0.1267  0.2158  0.8688
11708SOL    HW237567  10.375   1.848   7.377 -1.8746 -0.3577  0.9019
11709SOL     OW37568   3.090  10.249   6.239  0.3893  0.6430 -0.0925
11709SOL    HW137569   3.146  10.321   6.208  1.2573 -0.5035 -1.3212
11709SOL    HW237570   3.131  10.220   6.321 -0.1968  1.7831  0.6208
11710SOL     OW37571   5.752   8.093   8.284  0.6876  0.4868 -0.0248
11710SOL    HW137572   5.779   8.145   8.360  1.7944  0.9564 -0.7120
11710SOL    HW237573   5.659   8.073   8.300  1.3999 -1.3066  2.5087
11711SOL     OW37574   5.307   2.057   1.368  0.0243 -0.1473  0.6698
11711SOL    HW137575   5.252   2.133   1.348  0.7271  0.1320 -0.2796
11711SOL    HW237576   5.341   2.074   1.456  2.9376  2.4097 -0.7604
11712SOL     OW37577   7.275   9.089   2.130 -0.0368  0.0405  0.6224
11712SOL    HW137578   7.202   9.149   2.114 -0.5284 -0.3655  1.3175
11712SOL    HW237579   7.238   9.002   2.120  0.4140 -0.1693  0.7345
11713SOL     OW37580   3.137   0.427   9.123 -0.2408 -0.1137 -0.0333
11713SOL    HW137581   3.224   0.410   9.160  0.3061 -0.8004 -1.5209
11713SOL    HW237582   3.092   0.342   9.128 -0.6203  0.1031  0.2233
11714SOL     OW37583   0.497   4.141   6.477 -0.1361 -0.2228  0.0712
11714SOL    HW137584   0.486   4.188   6.395  2.5900 -1.1648 -0.9586
11714SOL    HW237585   0.545   4.202   6.534 -1.7047  0.2958  0.9056
11715SOL     OW37586   7.134   5.918   4.042 -0.0512 -0.0008 -0.2133
11715SOL    HW137587   7.137   5.988   4.107 -2.5801  0.0665 -0.0516
11715SOL    HW237588   7.225   5.893   4.029  0.5746 -0.3106  3.6682
11716SOL     OW37589   2.831   2.158   4.595 -0.3326 -0.7130 -0.5175
11716SOL    HW137590   2.753   2.140   4.647  0.3885 -0.0738  0.8441
11716SOL    HW237591   2.821   2.249   4.567 -0.7755 -1.0921 -1.6293
11717SOL     OW37592   6.931   3.188   7.413 -0.2346  0.6862 -0.3333
11717SOL    HW137593   6.957   3.273   7.448 -0.1596  0.4910  0.0860
11717SOL    HW237594   6.914   3.205   7.320 -1.8105  1.5205  0.0557
11718SOL     OW37595   4.664   3.646   8.594 -0.2597  0.2981 -0.0233
11718SOL    HW137596   4.739   3.683   8.640  0.7041  1.2158 -2.2003
11718SOL    HW237597   4.691   3.557   8.570 -1.3699 -0.8046  2.4117
11719SOL     OW37598  10.162   5.673   4.372  0.0740 -0.4605  0.0025
11719SOL    HW137599  10.120   5.647   4.454 -3.0287 -0.5443 -1.4509
11719SOL    HW237600  10.137   5.605   4.310 -1.1565  1.5991 -1.9188
11720SOL     OW37601   3.578   8.246   8.405 -0.2690  0.2328 -0.2125
11720SOL    HW137602   3.552   8.203   8.486  1.9774 -0.1130  0.4053
11720SOL    HW237603   3.497   8.256   8.356 -1.2846 -2.3433  0.7555
11721SOL     OW37604  10.340   6.578   2.461  0.1497  0.1993 -0.0158
11721SOL    HW137605  10.394   6.499   2.455 -2.7515 -1.8581 -1.2153
11721SOL    HW237606  10.342   6.601   2.554  0.3796 -1.8563  0.5375
11722SOL     OW37607   9.008   8.778   4.951  0.0987  0.1745 -1.1478
11722SOL    HW137608   8.954   8.846   4.992 -1.9613 -1.2474 -1.3410
11722SOL    HW237609   8.950   8.737   4.887  1.1224 -2.0114 -0.7734
11723SOL     OW37610   4.088   3.176   9.593 -0.0820 -0.1288 -0.3361
11723SOL    HW137611   4.153   3.169   9.663 -1.2419  1.4853  0.9575
11723SOL    HW237612   4.055   3.087   9.583  0.7353 -0.5537  0.5381
11724SOL     OW37613   8.096   1.581   1.839  0.1177 -0.0275  0.4698
11724SOL    HW137614   8.065   1.592   1.749  0.8956  0.0969  0.2065
11724SOL    HW237615   8.182   1.540   1.829  0.4987  0.5922  1.1187
11725SOL     OW37616   8.518   8.909   9.924  0.0602  0.3209  0.2820
11725SOL    HW137617   8.565   8.828   9.944  1.6199  0.9115 -0.8222
11725SOL    HW237618   8.460   8.886   9.851  0.4879  0.1862 -0.0180
11726SOL     OW37619   4.249   6.207   9.968  0.1672  0.9310  0.0662
11726SOL    HW137620   4.261   6.116   9.995  0.7306  1.1780  0.6743
11726SOL    HW237621   4.247   6.256  10.049  1.8622  1.6863 -0.3167
11727SOL     OW37622   8.870   5.029   8.804 -0.6515 -0.1527  0.2188
11727SOL    HW137623   8.920   4.964   8.854 -2.1669 -1.2977  0.3228
11727SOL    HW237624   8.827   4.978   8.735 -1.1113  0.9041 -0.2973
11728SOL     OW37625   5.614   6.515  10.105 -0.7971  0.3032  0.0250
11728SOL    HW137626   5.624   6.596  10.156  1.1747 -1.0406  1.9737
11728SOL    HW237627   5.531   6.477  10.136 -0.6055  0.4945  0.8028
11729SOL     OW37628   5.183   6.692   7.415  0.2096  0.1510 -0.3332
11729SOL    HW137629   5.201   6.752   7.488 -0.5655  0.1852 -0.1575
11729SOL    HW237630   5.245   6.717   7.347  0.8426  0.2177  0.2627
11730SOL     OW37631   4.838   1.093   8.191 -0.0230 -0.0011  0.0254
11730SOL    HW137632   4.906   1.070   8.128 -1.3832  0.1570 -1.5562
11730SOL    HW237633   4.882   1.091   8.276  1.6625 -1.0219 -0.8343
11731SOL     OW37634   8.348   1.598   6.323 -0.2951 -0.0623 -0.2032
11731SOL    HW137635   8.381   1.511   6.304 -0.1862  0.0003 -0.3008
11731SOL    HW237636   8.298   1.588   6.404 -0.5633 -0.2817 -0.3911
11732SOL     OW37637   8.896   1.320  10.021  0.0719  0.3412  0.4299
11732SOL    HW137638   8.845   1.402  10.017  2.4003  1.8461 -0.3560
11732SOL    HW237639   8.871   1.281  10.104 -2.2402  1.0367  0.1534
11733SOL     OW37640   6.237   9.642   6.149  0.1473  0.3466 -0.4716
11733SOL    HW137641   6.153   9.644   6.103  0.9203  1.5730 -1.8913
11733SOL    HW237642   6.247   9.551   6.176 -1.7325  0.2157 -0.0663
11734SOL     OW37643   9.756   0.363   3.284 -0.3829  0.0301 -0.3576
11734SOL    HW137644   9.790   0.274   3.272 -0.6959 -0.1507  0.0937
11734SOL    HW237645   9.666   0.359   3.251 -0.6485 -0.0148  0.3640
11735SOL     OW37646   3.594   2.589   1.550  0.6951  0.1225  0.0293
11735SOL    HW137647   3.524   2.653   1.537  1.9244  1.1781 -1.8391
11735SOL    HW237648   3.620   2.563   1.462  1.4335 -1.6492  0.7154
11736SOL     OW37649   8.347   9.186   0.771 -0.1287 -0.3364  0.3488
11736SOL    HW137650   8.304   9.200   0.686 -0.8556 -0.8196  0.6246
11736SOL    HW237651   8.290   9.230   0.834  2.5687  3.8316  0.2235
11737SOL     OW37652   0.683   4.718   0.084  0.3368 -0.3436  0.2913
11737SOL    HW137653   0.758   4.770   0.113 -0.0719  0.2431  0.3375
11737SOL    HW237654   0.670   4.743  -0.007  0.5811 -0.9143  0.0995
11738SOL     OW37655   2.659   3.737   5.984  0.0404  0.4382  0.5079
11738SOL    HW137656   2.736   3.684   6.006  0.6799 -0.4061 -3.1672
11738SOL    HW237657   2.587   3.695   6.031  0.9630 -2.2632 -0.3114
11739SOL     OW37658   9.414   6.486   5.192  0.4122 -0.1183  0.3914
11739SOL    HW137659   9.475   6.412   5.197  1.0225  0.4417  2.1470
11739SOL    HW237660   9.376   6.491   5.280 -0.4182  0.9971 -0.0131
11740SOL     OW37661   4.211   6.639   9.995 -0.0514  0.1435 -0.2083
11740SOL    HW137662   4.274   6.655   9.926  0.8321  0.6118  0.6844
11740SOL    HW237663   4.181   6.726  10.022  1.0396  0.0981  1.2675
11741SOL     OW37664   4.977   6.808   0.118  0.5195  0.2415  0.2936
11741SOL    HW137665   4.943   6.892   0.149  0.0054  0.5773 -1.1195
11741SOL    HW237666   4.926   6.742   0.165 -0.5913  0.7326 -0.1900
11742SOL     OW37667   2.999   4.313   2.021  0.2058 -0.3626 -0.1407
11742SOL    HW137668   3.075   4.324   2.078 -2.0015  2.4549  2.5959
11742SOL    HW237669   3.022   4.360   1.941  1.8231 -0.7634  0.0626
11743SOL     OW37670   8.685  10.368   3.011  0.0851 -0.1014 -0.0590
11743SOL    HW137671   8.714  10.371   3.103 -0.0069  2.8902 -0.0270
11743SOL    HW237672   8.597  10.331   3.015 -1.0074  2.3711  1.5079
11744SOL     OW37673   5.644   5.236  10.129  0.3117  0.0142 -0.5619
11744SOL    HW137674   5.649   5.302  10.060  1.5862 -0.9892 -1.4692
11744SOL    HW237675   5.589   5.167  10.092  0.8640 -0.4516 -0.5238
11745SOL     OW37676   5.681   1.733   1.680 -0.0070 -1.0131  0.2376
11745SOL    HW137677   5.606   1.780   1.644 -0.8765 -1.2179  1.6936
11745SOL    HW237678   5.675   1.645   1.643  0.7994 -0.4189 -1.3661
11746SOL     OW37679   9.263   6.024   6.480  0.3573  0.4364 -0.5292
11746SOL    HW137680   9.169   6.040   6.487 -0.0589 -0.9918 -2.2670
11746SOL    HW237681   9.300   6.109   6.457 -0.3663  1.2043  0.9773
11747SOL     OW37682   1.801   2.679   0.677 -0.3507 -0.0261  0.4921
11747SOL    HW137683   1.882   2.718   0.711 -0.5943 -0.7735  1.9901
11747SOL    HW237684   1.778   2.611   0.740 -1.4377 -0.7311 -0.6158
11748SOL     OW37685   7.272   9.298   2.404  0.3571  0.2721 -0.2026
11748SOL    HW137686   7.353   9.246   2.403  0.2909  0.1638 -1.2988
11748SOL    HW237687   7.277   9.351   2.324 -0.9361 -0.1927 -0.6127
11749SOL     OW37688   7.747   5.590   1.430 -0.3101 -0.3129 -0.0051
11749SOL    HW137689   7.697   5.651   1.376 -1.3016 -1.3384 -0.2791
11749SOL    HW237690   7.779   5.524   1.368  0.0579 -0.5203  0.4019
11750SOL     OW37691   0.222   2.528   6.972 -0.8702  0.2512  0.4586
11750SOL    HW137692   0.277   2.510   7.048 -1.0081 -1.1425  0.2542
11750SOL    HW237693   0.226   2.447   6.920 -0.7785  1.1753 -1.0211
11751SOL     OW37694   8.589   6.110   1.921 -0.1065 -0.3720 -0.0630
11751SOL    HW137695   8.551   6.157   1.847 -1.0059 -0.2371  0.4702
11751SOL    HW237696   8.650   6.048   1.881 -1.5098 -1.1882 -1.0311
11752SOL     OW37697   9.411   6.470   3.362  0.5770  0.3766 -0.0634
11752SOL    HW137698   9.395   6.541   3.425 -0.8187  0.4416 -0.4605
11752SOL    HW237699   9.449   6.514   3.286  1.6719  0.3851  0.4686
11753SOL     OW37700   1.958   2.113   9.330  0.1284  0.7927  0.5158
11753SOL    HW137701   1.982   2.121   9.237  0.0894  1.0515  0.5266
11753SOL    HW237702   1.866   2.142   9.332  1.1292  4.4659  1.1987
11754SOL     OW37703  10.198   9.600   2.760 -0.2326  0.1466 -0.1380
11754SOL    HW137704  10.126   9.664   2.759 -0.2336  0.1477 -1.9104
11754SOL    HW237705  10.275   9.650   2.732  0.4317  0.0514  1.3788
11755SOL     OW37706  10.434   3.425   2.584  0.0479 -0.1566  0.2984
11755SOL    HW137707  10.447   3.339   2.625 -2.3381 -1.1240 -0.7885
11755SOL    HW237708  10.492   3.424   2.508  0.7292 -0.3998  0.8060
11756SOL     OW37709   3.914   2.401  10.111 -0.9474 -0.5231 -0.0432
11756SOL    HW137710   3.880   2.354  10.034  0.4065 -0.5466 -0.6556
11756SOL    HW237711   3.839   2.406  10.171 -2.0488 -0.4709 -1.3712
11757SOL     OW37712   7.702   3.135   2.191 -0.1245 -0.1320 -0.1097
11757SOL    HW137713   7.752   3.192   2.132  2.8907 -0.4916  1.8674
11757SOL    HW237714   7.665   3.196   2.255 -0.2916 -0.0499 -0.2837
11758SOL     OW37715   6.745   5.225   8.172 -0.2139 -0.3423  0.1045
11758SOL    HW137716   6.693   5.280   8.230  0.0535 -0.1578  0.1696
11758SOL    HW237717   6.787   5.287   8.112  1.0537 -0.3627  0.9414
11759SOL     OW37718   7.926   8.594   8.655  0.1650 -0.1647 -0.2922
11759SOL    HW137719   7.853   8.626   8.602 -0.2592  0.5254  0.6717
11759SOL    HW237720   8.000   8.649   8.631  0.1595 -0.3294 -0.6869
11760SOL     OW37721   5.441   2.955   5.024 -0.3975  0.2246 -0.4699
11760SOL    HW137722   5.353   2.931   4.994 -0.7439  2.8253 -1.8102
11760SOL    HW237723   5.446   2.919   5.113 -2.9525  0.2441 -0.2335
11761SOL     OW37724   7.617   7.913   6.557  0.2728 -0.2302 -0.3052
11761SOL    HW137725   7.533   7.957   6.565 -0.1550 -0.9353 -0.7524
11761SOL    HW237726   7.595   7.820   6.551  1.2216 -0.6884  2.0967
11762SOL     OW37727   7.739   6.757   0.968  0.0603  0.5743 -0.8281
11762SOL    HW137728   7.674   6.687   0.963  0.9052 -0.6590  2.5090
11762SOL    HW237729   7.780   6.759   0.882 -0.1153 -2.9999 -1.1401
11763SOL     OW37730   9.478   4.958   1.097 -0.0024 -0.6699 -0.1252
11763SOL    HW137731   9.543   5.023   1.070 -0.2967 -0.3711 -0.1145
11763SOL    HW237732   9.433   4.998   1.171  1.1006 -1.6556  1.1405
11764SOL     OW37733   7.222   3.732   6.173  0.4358  0.0165 -0.1713
11764SOL    HW137734   7.305   3.760   6.135  0.4328  0.5737  0.2284
11764SOL    HW237735   7.155   3.777   6.122  0.4729  2.2242  1.6062
11765SOL     OW37736   5.210   3.114   0.045  0.2905  0.3042  0.1361
11765SOL    HW137737   5.169   3.067   0.117  0.9012  0.8812  0.8719
11765SOL    HW237738   5.289   3.152   0.083  0.7680  0.3861 -0.9038
11766SOL     OW37739   7.827   5.427   4.503 -0.5009  0.0416 -0.4785
11766SOL    HW137740   7.751   5.451   4.450  0.0493 -1.0602 -1.8305
11766SOL    HW237741   7.812   5.336   4.528  0.0821  0.0086 -0.2197
11767SOL     OW37742   7.442   2.113   2.637  1.2472 -0.4935  0.3409
11767SOL    HW137743   7.444   2.093   2.543  0.0386  1.1090 -0.0723
11767SOL    HW237744   7.401   2.037   2.677  1.5365 -1.0894 -0.4606
11768SOL     OW37745   3.795   9.943   6.637 -0.4851 -0.3359 -0.1357
11768SOL    HW137746   3.718   9.922   6.690 -0.7333 -0.4188 -0.5199
11768SOL    HW237747   3.810   9.864   6.585 -1.3081  0.3432 -1.4580
11769SOL     OW37748   5.374   7.044   5.545  0.0208  0.0634 -0.3200
11769SOL    HW137749   5.354   7.056   5.638 -2.5222  1.6055 -0.9650
11769SOL    HW237750   5.290   7.020   5.506  0.9530 -0.1098 -2.3167
11770SOL     OW37751   8.615   0.536   8.165  0.5107  0.4291  0.5950
11770SOL    HW137752   8.597   0.446   8.191  0.0877  0.8447  1.8013
11770SOL    HW237753   8.703   0.554   8.199  0.0411  0.9032  1.6135
11771SOL     OW37754   4.972   6.360   9.145 -0.2166  0.1789 -0.0668
11771SOL    HW137755   4.947   6.419   9.216  0.5897  1.2703 -0.6699
11771SOL    HW237756   5.057   6.325   9.172  0.4412  1.1642 -0.8196
11772SOL     OW37757   8.307   1.847   9.099 -0.1182  0.4767 -0.3677
11772SOL    HW137758   8.287   1.757   9.124  1.5084  0.0953 -0.3171
11772SOL    HW237759   8.235   1.872   9.041 -0.1912 -1.1504 -1.0404
11773SOL     OW37760   9.685   2.036   0.193  0.1646  0.1814  0.1573
11773SOL    HW137761   9.616   2.068   0.136 -0.5193  1.0382  1.4123
11773SOL    HW237762   9.726   1.965   0.144  0.0075  1.2610 -1.6384
11774SOL     OW37763   7.514   5.057   9.551  0.4241 -0.2604  0.2594
11774SOL    HW137764   7.541   4.973   9.589  1.5527 -0.4042 -0.7790
11774SOL    HW237765   7.592   5.112   9.558  0.8210 -0.4244 -2.1355
11775SOL     OW37766   0.938   6.161   7.278  0.0445  0.0593 -0.6814
11775SOL    HW137767   0.864   6.198   7.327  1.1877  0.9762  0.4133
11775SOL    HW237768   0.996   6.235   7.263  0.7198 -0.6372 -1.6060
11776SOL     OW37769   4.615   6.285   2.459  0.0842  0.4087  0.3808
11776SOL    HW137770   4.611   6.381   2.451  2.1947  0.4521 -1.0909
11776SOL    HW237771   4.665   6.271   2.540  1.1086  0.6263 -0.1916
11777SOL     OW37772   1.281   9.136   6.109  0.2633  0.2691  0.1054
11777SOL    HW137773   1.359   9.094   6.144  0.5016  1.2232  0.7403
11777SOL    HW237774   1.254   9.198   6.176 -0.2970  0.8655 -0.6440
11778SOL     OW37775   8.749   4.596  10.088 -0.5790 -0.5323  0.7446
11778SOL    HW137776   8.768   4.611   9.995  0.3838  1.0448  1.1602
11778SOL    HW237777   8.654   4.585  10.091 -0.6226 -0.6842 -0.4218
11779SOL     OW37778   1.442   1.592   3.396 -0.5443  0.2786 -0.6068
11779SOL    HW137779   1.360   1.637   3.374 -0.1423  1.7923  0.8796
11779SOL    HW237780   1.419   1.536   3.470 -0.8111 -1.3416 -1.8460
11780SOL     OW37781   0.710   0.948   3.167  0.4789 -0.2102  0.0653
11780SOL    HW137782   0.798   0.960   3.132  0.0724  2.9113 -0.1895
11780SOL    HW237783   0.656   0.927   3.090  0.8123 -1.0131  0.0477
11781SOL     OW37784   3.346   5.508   9.834 -0.6259 -0.0354 -0.5726
11781SOL    HW137785   3.269   5.552   9.798  0.2588  1.2182 -1.0079
11781SOL    HW237786   3.386   5.572   9.893 -1.0214 -1.3981  1.2876
11782SOL     OW37787   8.187   0.011   9.668  0.2419 -0.2046 -0.3229
11782SOL    HW137788   8.156  -0.017   9.755  1.9016 -1.1197  0.0137
11782SOL    HW237789   8.281  -0.005   9.670  0.6392  1.6999 -1.5965
11783SOL     OW37790   1.932   6.336   5.744  0.3466 -0.0750 -0.5198
11783SOL    HW137791   1.938   6.387   5.824  1.3679 -0.5439 -0.2715
11783SOL    HW237792   1.930   6.401   5.674  0.5117  0.3242 -0.1581
11784SOL     OW37793   2.859   4.212   7.994 -0.3110  0.2606 -0.0696
11784SOL    HW137794   2.865   4.259   7.911  2.3017 -1.1409 -0.7860
11784SOL    HW237795   2.865   4.282   8.060  0.3929  1.1875 -1.0720
11785SOL     OW37796   4.931   2.460   8.673 -0.2565 -0.6608  0.0098
11785SOL    HW137797   4.898   2.396   8.736 -1.3199 -0.7962 -0.6571
11785SOL    HW237798   4.853   2.503   8.640  0.4288  0.8674  0.3020
11786SOL     OW37799   5.882   5.503   3.329 -0.1619  0.2510  0.4415
11786SOL    HW137800   5.912   5.419   3.364 -0.7985 -1.0170 -1.8419
11786SOL    HW237801   5.947   5.525   3.262 -1.1772  0.3942 -0.5328
11787SOL     OW37802   4.319   7.122   6.122 -0.1848  0.1243  0.9251
11787SOL    HW137803   4.260   7.177   6.173 -0.0672  0.7436  0.4093
11787SOL    HW237804   4.390   7.100   6.182  1.3294  3.0012  0.3686
11788SOL     OW37805   6.030   8.156   4.995 -0.0111 -0.0602  0.3579
11788SOL    HW137806   6.070   8.170   4.909 -0.3403  0.9628  0.3563
11788SOL    HW237807   5.990   8.241   5.017 -2.2428 -1.0322  0.3065
11789SOL     OW37808   2.175   9.712   3.966 -0.2052 -0.3818  0.0305
11789SOL    HW137809   2.256   9.763   3.965  1.1443 -2.4412 -0.6642
11789SOL    HW237810   2.116   9.762   4.024  1.2773  1.5301 -0.0256
11790SOL     OW37811   3.326   2.925   6.271 -0.1996  0.1782 -0.0718
11790SOL    HW137812   3.354   3.015   6.254 -0.7081  0.5828  1.0910
11790SOL    HW237813   3.361   2.875   6.198  0.9804  1.1524 -0.2146
11791SOL     OW37814   3.596   4.406   8.806  0.0012  0.3731  0.3002
11791SOL    HW137815   3.619   4.387   8.897 -0.9888  0.4921  0.5851
11791SOL    HW237816   3.516   4.459   8.811  0.4281  1.1468 -0.6105
11792SOL     OW37817   7.350   9.209   4.049  0.1686 -0.7571  0.3334
11792SOL    HW137818   7.309   9.180   4.131  0.6113  0.0633  0.8591
11792SOL    HW237819   7.317   9.297   4.036 -0.4819 -1.1538 -0.7821
11793SOL     OW37820   5.151   7.992  10.006  0.0641 -0.1953 -0.0535
11793SOL    HW137821   5.160   7.983   9.912 -2.9899  0.1017 -0.4687
11793SOL    HW237822   5.102   7.914  10.033  1.0167 -0.3544  1.3461
11794SOL     OW37823  10.392   8.589   9.795  0.0655 -0.3666  0.1170
11794SOL    HW137824  10.488   8.590   9.799  0.2255 -1.8635 -1.9895
11794SOL    HW237825  10.370   8.666   9.744  0.1976 -0.4840 -0.1174
11795SOL     OW37826   4.304   8.865   0.244 -0.0808  0.1485  0.0296
11795SOL    HW137827   4.380   8.862   0.302  0.6160 -0.9645 -0.8882
11795SOL    HW237828   4.339   8.891   0.159 -1.0895  1.7964  0.0738
11796SOL     OW37829   3.308   2.079   3.468  0.6819 -0.6019 -0.2039
11796SOL    HW137830   3.353   2.153   3.506 -3.1618  1.5816  0.6238
11796SOL    HW237831   3.251   2.117   3.401  1.4733 -3.3948 -2.6846
11797SOL     OW37832   8.620   6.987   5.051 -0.4419 -0.6042 -0.6617
11797SOL    HW137833   8.682   7.059   5.038 -1.2844  0.1794 -0.4273
11797SOL    HW237834   8.660   6.912   5.007 -1.1502  0.8222 -3.9538
11798SOL     OW37835   3.910   3.371   6.097  0.5430 -0.5824 -0.3571
11798SOL    HW137836   3.931   3.435   6.165 -0.3946 -3.8403  3.3603
11798SOL    HW237837   3.834   3.409   6.052 -0.3050  0.7907  2.0091
11799SOL     OW37838   1.770  10.205   2.951  0.0153  0.0297 -0.4133
11799SOL    HW137839   1.738  10.182   2.863 -0.8785 -0.6789  0.0754
11799SOL    HW237840   1.702  10.174   3.010  1.8209 -2.0453  0.7337
11800SOL     OW37841   2.158   9.985   8.373  0.0838  0.3754  0.1059
11800SOL    HW137842   2.201  10.006   8.290  1.5932 -1.4604  0.3505
11800SOL    HW237843   2.152  10.068   8.419 -0.7904  1.4400 -1.7978
11801SOL     OW37844   7.520   9.070   5.984  0.9615 -0.0006 -0.5274
11801SOL    HW137845   7.513   9.060   5.889 -0.7507 -0.1242 -0.4266
11801SOL    HW237846   7.467   8.999   6.020  0.8945  0.5422  0.4969
11802SOL     OW37847   7.492   1.753   9.553  0.5143  0.2952  0.4486
11802SOL    HW137848   7.400   1.726   9.549  0.3513  0.6774  1.4090
11802SOL    HW237849   7.513   1.778   9.463 -0.1828 -0.2367  0.1264
11803SOL     OW37850   4.138   8.066   1.549  0.0817  0.2296  0.2297
11803SOL    HW137851   4.213   8.089   1.495 -0.6988 -1.9079 -2.0046
11803SOL    HW237852   4.065   8.114   1.510 -0.2009 -0.0189  0.4452
11804SOL     OW37853   0.235   9.050   0.471 -0.0161  0.9656 -0.1459
11804SOL    HW137854   0.299   9.034   0.402  1.3451  1.0200  1.0520
11804SOL    HW237855   0.287   9.084   0.544 -1.3733  0.7071  0.9848
11805SOL     OW37856   4.027   0.325   2.969 -0.3497  0.1840 -0.2325
11805SOL    HW137857   4.123   0.327   2.974 -0.2924 -0.3671 -0.9898
11805SOL    HW237858   3.999   0.308   3.059  0.3840 -3.0358 -0.5131
11806SOL     OW37859   1.826   1.952   4.226  0.2741 -0.6148  0.2982
11806SOL    HW137860   1.731   1.956   4.212  0.1627 -1.4442  0.7270
11806SOL    HW237861   1.844   2.019   4.292  0.2448  0.6795 -0.9587
11807SOL     OW37862   2.893   5.403   7.650  0.1257  0.2824  0.2198
11807SOL    HW137863   2.914   5.482   7.601 -0.9773 -0.2998 -1.2853
11807SOL    HW237864   2.957   5.400   7.721  0.6067  2.1481 -0.1004
11808SOL     OW37865   2.954   9.536   5.286  0.5248 -0.3193  0.0726
11808SOL    HW137866   2.951   9.556   5.379 -0.0907  0.6234 -0.1327
11808SOL    HW237867   2.991   9.615   5.246  1.0989 -0.8417 -0.4534
11809SOL     OW37868   7.355   2.658   3.481 -0.1571 -0.0724 -0.3582
11809SOL    HW137869   7.450   2.649   3.472 -0.0090 -0.9785  1.5826
11809SOL    HW237870   7.343   2.704   3.564 -1.4207 -0.6060 -0.2214
11810SOL     OW37871   6.808   2.896   3.589 -0.0694  0.4672  0.3288
11810SOL    HW137872   6.714   2.917   3.591 -0.3285 -0.6234  0.2180
11810SOL    HW237873   6.817   2.820   3.646  0.6092  0.0650 -0.2935
11811SOL     OW37874   6.244   4.719   5.000  0.0360 -0.1687 -0.3688
11811SOL    HW137875   6.150   4.717   4.982  0.3527  0.9403 -2.5034
11811SOL    HW237876   6.277   4.636   4.964 -0.1137 -0.5865  0.4376
11812SOL     OW37877   6.722   2.090   7.548  0.1561  0.1353  0.2129
11812SOL    HW137878   6.629   2.110   7.549 -0.1031 -0.7650 -1.7755
11812SOL    HW237879   6.763   2.166   7.508  0.1707  0.1230  0.2045
11813SOL     OW37880   0.689   8.626   7.235  0.6518 -0.3856 -0.9609
11813SOL    HW137881   0.636   8.685   7.181 -0.1089 -0.7661 -0.6367
11813SOL    HW237882   0.667   8.650   7.325 -0.2398 -1.6536 -0.8165
11814SOL     OW37883   3.542   8.594   2.121 -0.3937 -0.5861  0.1006
11814SOL    HW137884   3.487   8.654   2.170 -0.0659  0.5722 -0.8845
11814SOL    HW237885   3.569   8.528   2.184 -1.5505 -0.2399  0.9836
11815SOL     OW37886   4.590   8.862   6.284 -0.1520 -0.1379  0.4989
11815SOL    HW137887   4.555   8.773   6.294 -0.1729 -0.2244 -0.2905
11815SOL    HW237888   4.684   8.850   6.278 -0.1716 -0.1381  0.1394
11816SOL     OW37889   7.580   5.374   0.828 -0.0767  0.0701 -0.1934
11816SOL    HW137890   7.547   5.309   0.766 -0.3782 -0.0841  0.1225
11816SOL    HW237891   7.535   5.353   0.910  1.3753 -0.6299  0.4660
11817SOL     OW37892   9.743   8.243   8.071  0.0521 -0.2451  0.1859
11817SOL    HW137893   9.815   8.215   8.128 -0.5204 -1.0214  0.5510
11817SOL    HW237894   9.673   8.180   8.089  0.1090 -0.9859 -1.9248
11818SOL     OW37895  10.242  10.141   0.937  0.8812  0.5651  0.3991
11818SOL    HW137896  10.286  10.226   0.929  2.6135 -0.4643 -3.2588
11818SOL    HW237897  10.313  10.077   0.933 -0.5555 -1.1240  0.7925
11819SOL     OW37898   4.389   1.007   6.838 -0.1327  0.1601 -0.1577
11819SOL    HW137899   4.309   0.954   6.828  0.0463 -0.2346  0.4170
11819SOL    HW237900   4.381   1.075   6.772 -2.0477  1.4842  1.3043
11820SOL     OW37901   0.237   1.897   1.687  0.1684  0.0891  0.4250
11820SOL    HW137902   0.192   1.813   1.693 -1.2339  0.8144  0.3737
11820SOL    HW237903   0.195   1.952   1.753 -1.3410  1.8083 -1.8288
11821SOL     OW37904   0.260   0.867   0.030 -0.1435  0.0988  0.0253
11821SOL    HW137905   0.345   0.826   0.018  0.2263  1.2556 -1.5414
11821SOL    HW237906   0.198   0.806  -0.010  0.3649  0.8404 -1.9833
11822SOL     OW37907   7.170   3.532   5.898  0.5560  0.2873 -0.4142
11822SOL    HW137908   7.205   3.450   5.933  0.2877 -0.3407 -1.5629
11822SOL    HW237909   7.246   3.577   5.861  0.3154 -0.7317 -2.2402
11823SOL     OW37910   7.808   9.024   3.873 -0.1599  0.2832  0.1814
11823SOL    HW137911   7.791   8.950   3.932  0.9881 -2.0404 -2.1643
11823SOL    HW237912   7.726   9.073   3.872 -1.2435 -1.3751  1.2903
11824SOL     OW37913   5.910   4.945   4.322 -0.4765 -0.2417  0.0114
11824SOL    HW137914   5.861   5.019   4.286  0.1406 -0.2120 -0.7891
11824SOL    HW237915   6.002   4.971   4.315 -0.3126 -0.4180  1.2342
11825SOL     OW37916   9.993   9.113   1.675  0.2675 -0.0733  0.0926
11825SOL    HW137917   9.944   9.142   1.598  0.0024 -0.0141  0.2777
11825SOL    HW237918  10.004   9.193   1.727 -0.9213 -0.3735  0.8526
11826SOL     OW37919   5.165   3.942   1.212  0.5875 -0.2525 -0.1780
11826SOL    HW137920   5.116   3.977   1.287  0.2906  0.6303 -0.7700
11826SOL    HW237921   5.176   3.849   1.233 -2.4980 -0.8191 -0.5946
11827SOL     OW37922   9.963   7.014   6.561  0.0181  0.1813 -0.8740
11827SOL    HW137923  10.025   6.946   6.534 -0.2731 -2.7599  4.3053
11827SOL    HW237924   9.877   6.974   6.547 -0.3554  1.1522 -1.3683
11828SOL     OW37925   9.498   4.121   3.929  0.3162 -0.1947 -0.0777
11828SOL    HW137926   9.473   4.188   3.993  0.4131  0.0479 -0.2918
11828SOL    HW237927   9.591   4.139   3.912  0.5024 -0.7626  0.3216
11829SOL     OW37928   6.005   6.012   8.519 -0.0804 -0.3674  0.3710
11829SOL    HW137929   5.941   6.032   8.587  0.6233  1.4945  0.5453
11829SOL    HW237930   5.979   6.065   8.444 -0.0389 -1.3397 -0.3510
11830SOL     OW37931   7.548   9.956   0.364  0.3639  0.1265 -0.0057
11830SOL    HW137932   7.475   9.990   0.416  1.1210 -0.4654  1.5192
11830SOL    HW237933   7.511   9.881   0.317 -0.1630  0.2163  0.2616
11831SOL     OW37934   5.732   7.292   5.495  0.4165 -0.1596  0.0069
11831SOL    HW137935   5.691   7.378   5.483 -0.7289 -0.7886 -0.8514
11831SOL    HW237936   5.822   7.311   5.520  0.1563  1.2876 -0.0872
11832SOL     OW37937   5.425   5.409   9.184  0.2587 -0.4077 -0.0456
11832SOL    HW137938   5.440   5.503   9.194  1.4866 -0.5148 -0.6440
11832SOL    HW237939   5.436   5.393   9.091 -3.1581 -0.6720 -0.5154
11833SOL     OW37940   3.795   3.077   1.481 -0.0043 -0.0374 -0.8570
11833SOL    HW137941   3.790   3.053   1.573  0.1198  1.0479 -0.5563
11833SOL    HW237942   3.888   3.089   1.464  0.0594 -1.2000 -1.3899
11834SOL     OW37943   2.995   6.098   1.420 -0.3381 -0.5197  0.3001
11834SOL    HW137944   3.038   6.168   1.469  1.9026 -2.0199  0.6257
11834SOL    HW237945   3.015   6.116   1.328 -0.3150 -0.3919  0.3305
11835SOL     OW37946   1.516  10.086  10.309  0.3130  0.0959  0.2397
11835SOL    HW137947   1.587  10.028  10.281  1.0566  0.9986  0.2172
11835SOL    HW237948   1.454  10.085  10.236  0.1429 -0.9096  0.3700
11836SOL     OW37949   8.641   1.511   3.811 -0.3227 -0.1010  0.3642
11836SOL    HW137950   8.584   1.481   3.741 -1.9565 -0.9166  1.9613
11836SOL    HW237951   8.674   1.430   3.852  1.7597  0.3425 -0.2813
11837SOL     OW37952   7.378   1.546   3.324 -0.4098 -0.3713  0.6835
11837SOL    HW137953   7.326   1.508   3.395 -0.5982 -2.3319 -0.4239
11837SOL    HW237954   7.350   1.637   3.320 -1.9406 -0.7450  1.7451
11838SOL     OW37955   9.446   6.223   3.467 -0.1837 -0.1229 -0.0024
11838SOL    HW137956   9.429   6.309   3.430  0.1326  1.2331  2.7549
11838SOL    HW237957   9.376   6.210   3.532  0.1274 -1.6649  0.0823
11839SOL     OW37958   4.430   3.971   8.299 -0.0840  0.0358 -0.2985
11839SOL    HW137959   4.416   3.882   8.264 -2.4480  1.4086 -3.3737
11839SOL    HW237960   4.353   3.988   8.352  0.4029  0.2385  0.3503
11840SOL     OW37961   1.948   6.242   8.332  0.2388 -0.2412 -0.2999
11840SOL    HW137962   1.982   6.155   8.353  0.8894  0.0365 -0.1665
11840SOL    HW237963   1.861   6.244   8.374  0.0391 -0.9635 -0.6550
11841SOL     OW37964   8.764   9.697   4.873 -0.0599 -0.3861  1.1234
11841SOL    HW137965   8.710   9.629   4.832  0.3636 -0.3737  0.5368
11841SOL    HW237966   8.848   9.655   4.888  1.0048  0.6605 -1.4501
11842SOL     OW37967   1.467   7.511   7.698 -0.2343  0.0906  0.5620
11842SOL    HW137968   1.524   7.524   7.622 -1.9445  2.5941 -0.4536
11842SOL    HW237969   1.381   7.493   7.661 -0.6690 -0.9164  1.9834
11843SOL     OW37970   2.412   5.373   5.137  0.2341 -0.0510 -0.8064
11843SOL    HW137971   2.492   5.422   5.118  0.3765  1.1010  2.1914
11843SOL    HW237972   2.341   5.433   5.111  0.3618  0.0354 -0.9623
11844SOL     OW37973   2.176   3.008   2.676  0.0141  0.4182  0.3476
11844SOL    HW137974   2.126   2.969   2.749  1.1324  0.7520  1.3223
11844SOL    HW237975   2.123   3.082   2.648 -0.9481 -0.3341  0.0968
11845SOL     OW37976   5.604   6.837   8.858 -0.1346 -0.3337 -0.0391
11845SOL    HW137977   5.544   6.790   8.916 -0.9896 -0.0887 -0.7065
11845SOL    HW237978   5.560   6.838   8.773  0.9209 -0.3418 -0.6087
11846SOL     OW37979   4.115   6.238   9.525  0.2345 -0.0315 -0.2791
11846SOL    HW137980   4.173   6.280   9.462 -0.1738  0.1820 -0.5082
11846SOL    HW237981   4.139   6.278   9.609  1.6495 -1.2095 -0.0824
11847SOL     OW37982   2.755   1.117   2.513 -0.3053 -0.3788 -0.2328
11847SOL    HW137983   2.753   1.121   2.608 -0.3152  1.1310 -0.2773
11847SOL    HW237984   2.664   1.131   2.486 -0.8401 -3.5301 -0.4442
11848SOL     OW37985   2.383   8.930   5.402  0.2660 -0.4799 -0.4409
11848SOL    HW137986   2.318   8.988   5.440 -0.9492 -1.8676 -0.2896
11848SOL    HW237987   2.460   8.940   5.458  0.2611  1.2780 -0.7011
11849SOL     OW37988   7.443   9.190   9.536 -0.6269  0.6875 -0.2906
11849SOL    HW137989   7.356   9.150   9.539 -0.7001  0.8449 -0.3003
11849SOL    HW237990   7.493   9.134   9.477  0.0063 -0.8196  1.5573
11850SOL     OW37991   9.109   8.701   6.372  0.6448  0.1793 -0.0641
11850SOL    HW137992   9.141   8.613   6.353 -0.2560  0.1017 -1.3990
11850SOL    HW237993   9.103   8.704   6.467 -0.8587 -1.8304 -0.0048
11851SOL     OW37994   8.499  10.318   9.070  0.0962  1.0094  0.4996
11851SOL    HW137995   8.493  10.394   9.128 -0.7545  2.9819 -2.0092
11851SOL    HW237996   8.592  10.295   9.069  0.2643  1.5393  1.7987
11852SOL     OW37997   8.957   9.640   9.880 -0.2597  0.2795  0.4318
11852SOL    HW137998   8.916   9.574   9.936 -2.2449  0.8155 -0.3299
11852SOL    HW237999   8.974   9.714   9.938 -0.6389  0.1637  0.6901
11853SOL     OW38000   2.363   5.460   0.160 -0.3620  0.2080 -0.2731
11853SOL    HW138001   2.389   5.436   0.248 -1.4163  0.2073  0.0542
11853SOL    HW238002   2.387   5.552   0.152  2.0293 -0.3953 -0.8959
11854SOL     OW38003   6.992   3.474   6.493  0.5154 -0.1115  0.8789
11854SOL    HW138004   7.065   3.489   6.554  1.5387 -0.5703 -0.1958
11854SOL    HW238005   7.033   3.469   6.407 -0.8656  0.1834  0.1700
11855SOL     OW38006   9.976   2.709   8.344 -0.5548 -0.1250  0.6180
11855SOL    HW138007   9.904   2.646   8.337 -1.2323  0.8272 -1.4206
11855SOL    HW238008  10.044   2.660   8.391 -1.5381 -1.9451  0.2675
11856SOL     OW38009   0.315   9.550   8.960  0.2566 -0.0188  0.2534
11856SOL    HW138010   0.383   9.552   9.028  2.1623  0.8713 -1.5768
11856SOL    HW238011   0.313   9.460   8.930 -0.4174 -0.3612  1.2465
11857SOL     OW38012   9.479   7.425   2.743  0.0056 -0.1310 -0.4844
11857SOL    HW138013   9.520   7.428   2.830 -1.0701  0.5489  0.0154
11857SOL    HW238014   9.493   7.512   2.707  0.4663 -0.4179 -1.0201
11858SOL     OW38015   0.217   1.338   0.270 -0.0615  0.2332 -0.1373
11858SOL    HW138016   0.195   1.252   0.233 -2.7569  1.5231 -1.7341
11858SOL    HW238017   0.205   1.326   0.364 -0.5401 -1.0925 -0.3370
11859SOL     OW38018   1.332   7.113   2.024  0.3133  0.1763  0.3765
11859SOL    HW138019   1.347   7.033   2.075 -1.1640 -0.5413 -0.2452
11859SOL    HW238020   1.404   7.115   1.961  1.3775  0.3326  1.5703
11860SOL     OW38021   1.432   8.901   1.876 -0.0188 -0.0166  0.4731
11860SOL    HW138022   1.360   8.964   1.881  0.5715  0.6101  1.5225
11860SOL    HW238023   1.494   8.941   1.816 -0.5339 -0.5729 -0.4590
11861SOL     OW38024   5.753   3.979   9.269 -0.3172 -0.2369  0.3075
11861SOL    HW138025   5.663   4.011   9.277 -0.8037 -1.1870 -1.0999
11861SOL    HW238026   5.807   4.058   9.273 -1.3092  0.4936 -0.3255
11862SOL     OW38027   8.492   4.164   1.599  0.3764 -0.3868 -0.5128
11862SOL    HW138028   8.446   4.248   1.602  0.0345 -0.5906  0.7373
11862SOL    HW238029   8.575   4.183   1.555 -0.1558  0.3656 -1.2131
11863SOL     OW38030   4.837   3.645   9.976 -0.1738 -0.0654  0.3709
11863SOL    HW138031   4.813   3.676   9.889 -0.7741 -0.0405  0.5413
11863SOL    HW238032   4.933   3.654   9.979  0.2016 -2.5307 -1.2569
11864SOL     OW38033   4.759   6.368   2.676  0.0841 -0.4306  0.4348
11864SOL    HW138034   4.825   6.433   2.697  0.0098 -0.0842 -0.3646
11864SOL    HW238035   4.757   6.310   2.752  1.1172 -0.2928  0.5787
11865SOL     OW38036   3.412   4.783   4.082  0.4845  0.2355 -0.4761
11865SOL    HW138037   3.458   4.734   4.014 -0.3040 -0.5016 -0.5024
11865SOL    HW238038   3.469   4.780   4.158  1.3017  0.9232 -1.0531
11866SOL     OW38039   9.766   1.375   7.968  0.3047 -0.2826  0.4452
11866SOL    HW138040   9.778   1.417   7.883 -0.1904 -0.5619  0.2298
11866SOL    HW238041   9.774   1.446   8.031  0.4200 -0.0270  0.1460
11867SOL     OW38042   5.985   8.680   1.005 -0.3368  0.2647 -0.5236
11867SOL    HW138043   5.926   8.754   0.990 -0.1738  0.0428 -2.4544
11867SOL    HW238044   5.986   8.632   0.922  2.8873  0.5128 -0.7585
11868SOL     OW38045   6.410   4.873   1.398  0.1844  0.4402  0.0516
11868SOL    HW138046   6.375   4.917   1.475  1.2368  1.5039 -0.0367
11868SOL    HW238047   6.470   4.807   1.432 -1.8047 -1.4110  0.2047
11869SOL     OW38048   9.954   7.057   7.198 -0.2272 -0.0972  0.3675
11869SOL    HW138049  10.000   7.083   7.117 -0.8048 -2.1894 -0.7246
11869SOL    HW238050   9.925   7.139   7.237 -0.4753  0.9682 -1.8982
11870SOL     OW38051   0.304   9.469   7.667  0.1129  0.2981  0.3944
11870SOL    HW138052   0.260   9.503   7.589  0.8622  0.6013  0.1013
11870SOL    HW238053   0.373   9.532   7.686 -0.3819  0.5031  1.6095
11871SOL     OW38054   5.174   2.538   8.424  0.0829  0.0728  0.5961
11871SOL    HW138055   5.223   2.546   8.506  0.4440 -0.5394  0.4528
11871SOL    HW238056   5.086   2.512   8.450 -0.7831  3.0694  0.9874
11872SOL     OW38057   8.097   4.143   1.687 -0.4911  0.2587 -0.1674
11872SOL    HW138058   8.160   4.104   1.748  0.3218  2.4447  0.5252
11872SOL    HW238059   8.021   4.086   1.690  0.7485 -1.4330  0.4430
11873SOL     OW38060   4.226   4.944   9.752  0.0219  0.5782 -0.9708
11873SOL    HW138061   4.320   4.942   9.770 -0.0309 -0.6068 -0.7689
11873SOL    HW238062   4.216   4.890   9.673 -0.5374  0.3185 -0.7241
11874SOL     OW38063   2.822   6.238   3.612 -0.2898 -0.0198  0.4882
11874SOL    HW138064   2.755   6.194   3.560  0.3525 -0.7612  0.2673
11874SOL    HW238065   2.891   6.259   3.549 -1.4670  3.3452  0.1098
11875SOL     OW38066   6.746   6.163   6.326  0.2431  0.2415  0.6395
11875SOL    HW138067   6.803   6.091   6.355  0.3082 -0.7345 -1.7211
11875SOL    HW238068   6.800   6.213   6.265 -0.2977  1.4645  1.1281
11876SOL     OW38069   8.824   6.933   0.295  0.3296 -0.1739  0.4262
11876SOL    HW138070   8.762   6.962   0.228 -1.4263  0.0090  2.0579
11876SOL    HW238071   8.873   6.863   0.252  0.2141  0.8470 -1.4822
11877SOL     OW38072   5.223   8.367   9.642  0.1303  0.0211  0.3078
11877SOL    HW138073   5.203   8.304   9.711 -0.5195 -0.6525 -0.4697
11877SOL    HW238074   5.277   8.434   9.685 -0.7326 -0.0764  1.6054
11878SOL     OW38075   3.830   1.834   9.802  0.4822 -0.1254 -0.7026
11878SOL    HW138076   3.916   1.853   9.840 -0.0936 -0.4010  0.7823
11878SOL    HW238077   3.811   1.744   9.828 -0.1963 -0.1178 -1.1532
11879SOL     OW38078   0.004   2.101   0.320 -0.0233  0.3814 -0.5567
11879SOL    HW138079  -0.066   2.165   0.323 -0.0469  0.3020  1.8552
11879SOL    HW238080  -0.034   2.025   0.275 -0.6896  1.2050 -1.4069
11880SOL     OW38081   9.949   1.138   6.249  0.3780 -0.3686 -0.4758
11880SOL    HW138082   9.869   1.086   6.236  0.9529 -1.1102 -1.0991
11880SOL    HW238083   9.987   1.147   6.162  2.1288 -1.8945  0.0793
11881SOL     OW38084   5.943   6.056   7.202  0.0021 -0.2074 -0.2315
11881SOL    HW138085   6.022   6.043   7.255  0.1610  0.2605 -0.3485
11881SOL    HW238086   5.952   5.995   7.129 -1.1399 -2.2975  1.2670
11882SOL     OW38087   2.588   1.744   8.094 -0.1862 -0.1876 -0.0385
11882SOL    HW138088   2.622   1.735   8.005 -0.9333 -1.0207 -0.2539
11882SOL    HW238089   2.542   1.828   8.093 -0.8455 -0.5334 -0.6847
11883SOL     OW38090  10.120   9.606   7.174 -0.4984 -0.0859 -0.2405
11883SOL    HW138091  10.178   9.566   7.110 -1.9564 -0.5190 -1.3528
11883SOL    HW238092  10.177   9.659   7.230  0.9680 -0.7149 -1.1044
11884SOL     OW38093   1.981   6.248   0.971  0.1862  0.2890 -0.5753
11884SOL    HW138094   2.040   6.269   1.043 -0.5007  2.2921 -0.5244
11884SOL    HW238095   1.922   6.182   1.006  1.6774 -0.9344 -0.2835
11885SOL     OW38096   8.149   8.171   4.038 -0.3214 -0.4013 -0.3055
11885SOL    HW138097   8.146   8.233   3.965  0.3855  0.6911  0.5499
11885SOL    HW238098   8.061   8.133   4.041 -0.9701  1.0104 -0.5095
11886SOL     OW38099   9.499   1.232   1.905 -0.2818  0.1300 -0.8288
11886SOL    HW138100   9.472   1.323   1.917  1.8217  0.7976 -0.7231
11886SOL    HW238101   9.532   1.206   1.991  1.6099  0.1894 -1.4902
11887SOL     OW38102   7.569   5.430   4.921  0.1448  0.0943  0.1226
11887SOL    HW138103   7.645   5.460   4.871 -0.7635  0.5253 -1.0732
11887SOL    HW238104   7.590   5.449   5.012  1.3584  0.4231 -0.2103
11888SOL     OW38105   9.341   5.014   4.281 -0.7804 -0.1584 -0.4723
11888SOL    HW138106   9.250   4.988   4.266 -1.1695  0.3177  0.9132
11888SOL    HW238107   9.365   4.970   4.362 -1.2968  3.1764  1.7060
11889SOL     OW38108   8.930   6.812   1.373 -0.3045  0.1388 -0.6138
11889SOL    HW138109   8.848   6.857   1.353  0.0946  0.5215 -1.4472
11889SOL    HW238110   8.907   6.751   1.443 -1.0562  0.9967 -0.0841
11890SOL     OW38111   1.227   8.130   8.167 -0.0523  0.2906 -0.2282
11890SOL    HW138112   1.239   8.225   8.168 -0.0759  0.2932  0.6553
11890SOL    HW238113   1.248   8.103   8.256 -0.6590 -0.4595 -0.3090
11891SOL     OW38114   2.606   7.216   9.809 -0.3209  0.0838 -0.3885
11891SOL    HW138115   2.558   7.256   9.882  2.5152  1.8990  0.6524
11891SOL    HW238116   2.598   7.280   9.738  0.0367  0.1129 -0.4035
11892SOL     OW38117   1.324   7.898   2.835  0.5372 -0.0182  0.3351
11892SOL    HW138118   1.296   7.944   2.755 -0.5919 -1.5171 -0.1620
11892SOL    HW238119   1.411   7.864   2.813  0.0870 -0.7246 -0.3990
11893SOL     OW38120   1.086   3.754   4.896  0.2623  0.2736 -0.4502
11893SOL    HW138121   1.076   3.842   4.934 -2.3945  0.0112 -0.2983
11893SOL    HW238122   1.078   3.768   4.802  0.7339  0.2747 -0.4922
11894SOL     OW38123   2.508   3.294   2.844  0.2939  0.6165  0.4243
11894SOL    HW138124   2.435   3.333   2.893  0.5258  0.2216  1.0925
11894SOL    HW238125   2.578   3.359   2.848  0.1103  0.8382  0.0979
11895SOL     OW38126   2.799   5.631   6.019 -0.0976 -0.2138  0.1073
11895SOL    HW138127   2.858   5.565   6.058 -0.7341 -0.6158  0.4005
11895SOL    HW238128   2.714   5.589   6.018 -0.2470  0.1008 -0.9904
11896SOL     OW38129   3.577   4.348   8.145  0.4016  0.6087 -0.2088
11896SOL    HW138130   3.666   4.337   8.178  0.9891  1.1385 -1.5489
11896SOL    HW238131   3.535   4.408   8.207  0.6453 -0.4135  0.9783
11897SOL     OW38132   6.364   4.034   4.025  0.3438  0.4660  0.2901
11897SOL    HW138133   6.337   4.126   4.030  1.1455  0.7177  0.1214
11897SOL    HW238134   6.459   4.036   4.035  0.3142 -0.4018  0.9390
11898SOL     OW38135   9.061   0.760   0.491  0.3341 -0.0784 -0.4283
11898SOL    HW138136   9.150   0.756   0.526 -0.1578 -0.5118  0.8230
11898SOL    HW238137   9.015   0.820   0.549 -0.4495 -0.6403 -0.4543
11899SOL     OW38138   7.041   0.886   8.982  0.1361 -0.4585  0.3683
11899SOL    HW138139   7.023   0.977   9.005  0.7984 -0.8540  2.7394
11899SOL    HW238140   7.004   0.876   8.895 -0.7049  1.8467  0.3822
11900SOL     OW38141   5.326   2.571   4.936 -0.1110 -0.1587  0.7887
11900SOL    HW138142   5.271   2.531   4.869  0.5328 -1.2586  0.9022
11900SOL    HW238143   5.404   2.601   4.889 -0.2817  0.3544  0.8221
11901SOL     OW38144   8.538   8.604   1.074 -0.0387 -0.7321  0.5634
11901SOL    HW138145   8.598   8.666   1.116  0.1592 -2.0729  2.3304
11901SOL    HW238146   8.595   8.549   1.019 -0.0570 -0.1683 -0.0350
11902SOL     OW38147   2.301   0.284   7.751  0.6695  0.3099  0.1071
11902SOL    HW138148   2.336   0.224   7.685  3.9510  0.8080  1.2160
11902SOL    HW238149   2.351   0.364   7.739 -1.7271  1.9819  0.4459
11903SOL     OW38150  10.370   7.110   0.527 -0.7839  0.0836 -0.1385
11903SOL    HW138151  10.377   7.160   0.609 -3.0343  1.2976 -0.5989
11903SOL    HW238152  10.281   7.128   0.496  0.0399 -0.2395 -2.9244
11904SOL     OW38153   9.181   1.188   8.068  0.3771  0.0589 -0.0693
11904SOL    HW138154   9.231   1.245   8.127  1.5831 -1.3684  0.3593
11904SOL    HW238155   9.248   1.136   8.023 -0.6018  0.2249 -1.7743
11905SOL     OW38156   3.137   5.952   2.881  0.3890 -0.0115 -0.0951
11905SOL    HW138157   3.146   6.023   2.945  1.2090  0.1014 -0.3288
11905SOL    HW238158   3.059   5.905   2.910 -0.3488  1.1483 -0.1048
11906SOL     OW38159   3.165   3.584   3.939  0.4187  0.3789 -0.1116
11906SOL    HW138160   3.158   3.500   3.984 -0.7797  0.1478 -0.6813
11906SOL    HW238161   3.228   3.634   3.990 -0.0641 -0.2778  1.1773
11907SOL     OW38162   7.038   8.121   2.498  0.0199 -1.0583  0.2493
11907SOL    HW138163   7.005   8.173   2.571  0.8660 -0.6537  0.3525
11907SOL    HW238164   6.963   8.110   2.440  0.1500  1.4670 -0.4788
11908SOL     OW38165  10.202   1.728   6.632 -0.2843  0.4234  0.3093
11908SOL    HW138166  10.218   1.720   6.726 -0.9758 -0.1778  0.3909
11908SOL    HW238167  10.262   1.796   6.602 -1.5579  2.2094  1.5751
11909SOL     OW38168   5.060   2.065  10.000  0.1481 -0.1370 -0.4902
11909SOL    HW138169   5.066   2.112   9.916  1.1139 -0.3380 -0.5393
11909SOL    HW238170   5.131   2.101  10.053  1.6927 -2.3612 -0.9491
11910SOL     OW38171   1.137   4.530   2.977 -0.1834 -0.7682  0.0648
11910SOL    HW138172   1.121   4.510   2.885  0.7773 -1.7704  0.0903
11910SOL    HW238173   1.172   4.619   2.977 -1.0593 -0.4129 -0.4333
11911SOL     OW38174   0.745   3.641   3.195  0.4563 -0.3228  0.7719
11911SOL    HW138175   0.727   3.720   3.144  1.8155  1.2027  2.5247
11911SOL    HW238176   0.704   3.571   3.144 -2.1198  1.6388 -0.1497
11912SOL     OW38177   2.458   8.389   4.885 -0.5697  0.6411  0.0270
11912SOL    HW138178   2.546   8.427   4.881 -0.7208  0.9376 -0.6856
11912SOL    HW238179   2.418   8.413   4.802 -0.8727 -0.6099 -0.2043
11913SOL     OW38180   8.492   7.370   2.336 -0.4821  0.3008  0.1281
11913SOL    HW138181   8.545   7.394   2.412  0.3588  1.5970 -0.8403
11913SOL    HW238182   8.407   7.346   2.373 -0.5410  2.2521  1.3922
11914SOL     OW38183   1.686  10.352   7.042  0.1814 -0.2459 -0.2238
11914SOL    HW138184   1.749  10.351   7.115  0.3879 -1.0199 -0.4016
11914SOL    HW238185   1.739  10.332   6.965 -0.5885 -3.2028 -0.0892
11915SOL     OW38186   0.750   6.761   6.068  0.0898 -0.5441  0.3930
11915SOL    HW138187   0.731   6.801   5.983  0.4474 -2.2287 -0.5211
11915SOL    HW238188   0.742   6.667   6.052  1.2919 -0.9458  1.9408
11916SOL     OW38189   7.206   1.267   0.475  0.2584  0.5141  0.2810
11916SOL    HW138190   7.123   1.235   0.438 -0.4545 -0.6258  2.6587
11916SOL    HW238191   7.179   1.339   0.533  0.5771 -1.2045  2.7024
11917SOL     OW38192   1.581   6.736   6.651 -0.2958  0.3710 -0.4530
11917SOL    HW138193   1.615   6.790   6.580  1.6104 -0.3733 -0.1689
11917SOL    HW238194   1.551   6.798   6.718  2.2753  1.1425  0.0769
11918SOL     OW38195   7.900   6.069   1.124 -0.4381  0.1639 -0.0590
11918SOL    HW138196   7.874   6.151   1.084 -0.1362  0.1656 -0.2609
11918SOL    HW238197   7.818   6.022   1.141 -0.5469 -0.1699 -1.3943
11919SOL     OW38198   2.023   2.249   6.370 -0.3529 -0.0313 -0.2338
11919SOL    HW138199   1.935   2.285   6.381 -0.3807 -0.2962  0.3900
11919SOL    HW238200   2.063   2.255   6.456  0.2271  0.0365 -0.5022
11920SOL     OW38201  10.422   9.406   6.178 -0.2313 -0.4325  0.2256
11920SOL    HW138202  10.443   9.499   6.172  0.0378 -0.5057  0.0205
11920SOL    HW238203  10.327   9.403   6.187 -0.2929 -0.1531 -0.2797
11921SOL     OW38204   1.181   9.122   9.151  0.0071  0.4072  0.1840
11921SOL    HW138205   1.164   9.046   9.207 -0.6542  1.2461  1.1751
11921SOL    HW238206   1.163   9.197   9.207  2.4539  1.3621 -0.1834
11922SOL     OW38207   7.876  10.086   6.303  0.1452 -0.1926 -0.0847
11922SOL    HW138208   7.891  10.097   6.397 -0.6770 -1.9143  0.2937
11922SOL    HW238209   7.799  10.140   6.284 -2.2956 -2.9822  1.1813
11923SOL     OW38210   4.743   6.150   8.627  0.0191 -0.4415  0.1368
11923SOL    HW138211   4.821   6.102   8.600  0.4936  0.6940 -0.5321
11923SOL    HW238212   4.672   6.085   8.622  0.9677 -1.6014  1.1928
11924SOL     OW38213   1.903  10.152   3.496 -0.4413  0.4158 -0.4848
11924SOL    HW138214   1.962  10.078   3.510 -0.9185  0.0360 -0.4593
11924SOL    HW238215   1.817  10.112   3.480 -1.2427  0.9943  1.9737
11925SOL     OW38216   1.662   1.238   9.159 -0.0237 -0.0738 -0.1058
11925SOL    HW138217   1.620   1.324   9.160 -0.2527 -0.1861 -0.1307
11925SOL    HW238218   1.591   1.176   9.172  0.3297 -0.1883  1.4084
11926SOL     OW38219   4.326   3.695   7.481 -0.0312  0.1519 -0.9707
11926SOL    HW138220   4.418   3.697   7.509 -0.1933  2.5706 -0.3617
11926SOL    HW238221   4.276   3.709   7.561 -1.1472 -3.2371 -0.9299
11927SOL     OW38222   2.932   4.154   8.593 -0.5785 -0.0951 -0.1939
11927SOL    HW138223   2.878   4.160   8.515 -0.1505  0.5097 -0.4570
11927SOL    HW238224   2.920   4.239   8.636  0.9744  0.4831 -0.8217
11928SOL     OW38225   9.049   7.280   5.361 -0.6027 -0.8659 -0.1623
11928SOL    HW138226   9.144   7.292   5.364 -0.6621 -0.5315  2.0591
11928SOL    HW238227   9.017   7.353   5.309  0.3265 -0.8355 -0.7166
11929SOL     OW38228   6.309   6.579   7.706 -0.0906  0.2445  0.1033
11929SOL    HW138229   6.325   6.647   7.772  0.1456  2.4780 -2.1185
11929SOL    HW238230   6.235   6.611   7.655 -0.4090 -1.5198 -0.6317
11930SOL     OW38231   3.650   5.183   4.070 -0.8535 -0.0450  0.2509
11930SOL    HW138232   3.665   5.240   3.995  0.5249  1.1375  1.3827
11930SOL    HW238233   3.630   5.097   4.031  1.0537  0.2148 -1.4736
11931SOL     OW38234   5.203   9.472   9.931 -0.3750  0.4507 -0.1004
11931SOL    HW138235   5.191   9.518   9.848 -0.0020  0.0296 -0.3871
11931SOL    HW238236   5.275   9.519   9.974 -0.1016  0.2315 -0.3217
11932SOL     OW38237   2.541   7.939   1.047  0.1260 -0.2138 -0.3939
11932SOL    HW138238   2.503   7.976   0.968 -0.2672 -1.1328 -0.6389
11932SOL    HW238239   2.587   7.860   1.017  1.7138  0.5198 -0.0193
11933SOL     OW38240   4.261   4.030   8.501  0.7886 -0.0019  0.2872
11933SOL    HW138241   4.192   4.095   8.488  0.1978 -0.8415 -0.9468
11933SOL    HW238242   4.217   3.954   8.539  1.0421 -0.5189 -0.4425
11934SOL     OW38243   7.622  10.054   2.332  0.2615 -0.1282 -0.2536
11934SOL    HW138244   7.711  10.017   2.327  0.4026  0.3015 -3.2937
11934SOL    HW238245   7.599  10.050   2.424  2.6033 -2.2560  0.3501
11935SOL     OW38246   6.336   0.138   5.553  0.3415 -0.1789 -0.1061
11935SOL    HW138247   6.256   0.189   5.547 -0.1498 -0.5799  1.9493
11935SOL    HW238248   6.331   0.075   5.481 -1.4323 -0.4790  0.2433
11936SOL     OW38249   0.334   1.428   9.578  0.6660 -0.4113 -0.0096
11936SOL    HW138250   0.419   1.396   9.548  0.8070  0.5764 -0.7023
11936SOL    HW238251   0.338   1.418   9.673  0.9967 -1.6956 -0.1365
11937SOL     OW38252  10.254   7.832   8.329  0.1404  0.1581 -0.4621
11937SOL    HW138253  10.336   7.791   8.303 -0.0104 -1.6059  1.5413
11937SOL    HW238254  10.188   7.764   8.316 -0.5567  0.6259  0.4432
11938SOL     OW38255   0.952   3.592   2.089  0.1646 -0.7380 -0.2002
11938SOL    HW138256   0.902   3.667   2.057  0.7249 -0.5224 -0.5736
11938SOL    HW238257   1.037   3.628   2.115  0.3006 -1.1791 -0.0152
11939SOL     OW38258   9.408   5.904   9.107  0.2208  0.1630  0.3960
11939SOL    HW138259   9.416   5.809   9.107 -0.7721  0.0612 -0.6647
11939SOL    HW238260   9.454   5.932   9.186  0.9118 -1.1586  0.4823
11940SOL     OW38261   7.539   5.409   7.370 -0.4790  0.1264 -0.4283
11940SOL    HW138262   7.635   5.414   7.380 -0.5694 -1.0113  1.4729
11940SOL    HW238263   7.507   5.490   7.408 -0.4303 -1.4322  3.3973
11941SOL     OW38264   9.141   8.005   3.392 -0.0892 -0.3780  0.1184
11941SOL    HW138265   9.152   7.910   3.384  1.5379 -0.1239 -0.9648
11941SOL    HW238266   9.062   8.015   3.446 -1.3874 -2.3243 -1.2846
11942SOL     OW38267   0.816   3.826   0.191  0.2298 -0.4708  0.2948
11942SOL    HW138268   0.874   3.829   0.116 -0.8746 -0.9544 -0.6069
11942SOL    HW238269   0.806   3.733   0.211  2.1813 -0.3097  2.4216
11943SOL     OW38270   9.632   7.600   8.808  0.2599 -0.1295  0.5416
11943SOL    HW138271   9.695   7.671   8.793  1.3206 -1.2998 -0.7689
11943SOL    HW238272   9.685   7.525   8.831 -0.5849 -1.2383 -0.9310
11944SOL     OW38273   9.112   2.078   2.587 -0.1249  0.1563 -0.5891
11944SOL    HW138274   9.164   2.050   2.512  0.1256 -0.3353 -0.2366
11944SOL    HW238275   9.042   2.014   2.594  1.4482 -1.4856  1.2851
11945SOL     OW38276   6.552   4.662   8.071  0.3237 -0.0748 -0.3706
11945SOL    HW138277   6.637   4.656   8.114 -0.0338 -2.8257  0.1481
11945SOL    HW238278   6.504   4.729   8.121  0.6359 -1.7398  2.3394
11946SOL     OW38279   1.751   8.024   2.530 -0.1595 -0.0943 -0.2723
11946SOL    HW138280   1.753   8.119   2.541  0.7841  0.0586 -1.5495
11946SOL    HW238281   1.812   8.006   2.459 -1.6991 -1.4946 -1.3226
11947SOL     OW38282   5.631   2.211   2.603  0.0206  0.4959 -0.1198
11947SOL    HW138283   5.632   2.301   2.637 -0.3353  0.3328  0.3374
11947SOL    HW238284   5.598   2.219   2.514  0.7048  0.9030 -0.3432
11948SOL     OW38285   9.647   3.048   1.194 -0.1076 -0.6041 -0.0560
11948SOL    HW138286   9.709   3.119   1.179  1.0378 -1.5172  0.2189
11948SOL    HW238287   9.561   3.090   1.192  0.5989  0.9631  1.2131
11949SOL     OW38288   8.659   3.488   3.666 -0.1027  0.3107 -0.7837
11949SOL    HW138289   8.618   3.467   3.750  0.8021 -0.0922 -0.4366
11949SOL    HW238290   8.631   3.418   3.607  2.0995 -1.4381  0.1093
11950SOL     OW38291   5.944   9.231   9.710  0.0925 -0.3040 -0.0451
11950SOL    HW138292   5.860   9.272   9.688  1.3411  1.4431 -1.7562
11950SOL    HW238293   5.919   9.156   9.765 -2.5537  0.3461 -0.2126
11951SOL     OW38294   5.463   6.728   2.139 -0.1937 -0.6804  0.3767
11951SOL    HW138295   5.548   6.754   2.176 -0.7164 -0.6090  1.5846
11951SOL    HW238296   5.473   6.635   2.119  0.1899 -0.6634  0.4776
11952SOL     OW38297   9.165   6.815   4.545  0.4992 -0.0083  0.0369
11952SOL    HW138298   9.218   6.742   4.514 -2.9626 -2.3944 -0.9317
11952SOL    HW238299   9.224   6.890   4.546  3.8921 -2.4807 -0.3682
11953SOL     OW38300   7.664   9.730   1.767  0.0989  0.2541  0.4026
11953SOL    HW138301   7.578   9.694   1.744  0.4594 -0.1881 -0.2718
11953SOL    HW238302   7.693   9.676   1.841  0.7203 -1.0187 -0.7205
11954SOL     OW38303   8.328   8.298   3.384 -0.2242 -1.0609  0.3160
11954SOL    HW138304   8.339   8.376   3.328  0.5464 -0.4596  1.2785
11954SOL    HW238305   8.300   8.333   3.468  0.4472 -1.7944  0.8588
11955SOL     OW38306   1.028   4.243   8.144 -0.3603 -0.0405 -0.3512
11955SOL    HW138307   1.054   4.173   8.204 -0.4730  0.3224  0.1267
11955SOL    HW238308   0.992   4.311   8.201 -1.7109 -0.2301 -0.9328
11956SOL     OW38309   9.845   2.429   7.056 -0.1083  0.4449  0.0402
11956SOL    HW138310   9.926   2.469   7.026 -1.4330  1.5993 -2.3194
11956SOL    HW238311   9.797   2.500   7.097 -0.8738  0.3701 -0.6966
11957SOL     OW38312   6.218   8.473   8.799 -0.1677 -0.1143  0.1213
11957SOL    HW138313   6.207   8.415   8.874 -0.2153  0.7697  0.8203
11957SOL    HW238314   6.157   8.439   8.733  0.1562 -1.1320  0.3279
11958SOL     OW38315   2.031   2.827   9.040 -0.4697  0.5750  0.1276
11958SOL    HW138316   1.976   2.905   9.043  1.1405  1.7569  1.8632
11958SOL    HW238317   2.007   2.777   9.118  3.1747  2.9749  3.1992
11959SOL     OW38318   2.715   0.435   9.827 -0.7211  0.0967 -0.2228
11959SOL    HW138319   2.726   0.484   9.909 -1.6500 -0.8351  0.4901
11959SOL    HW238320   2.692   0.346   9.855  0.0424 -0.5350 -1.4962
11960SOL     OW38321   4.153   9.791  10.005  0.1426  0.1680 -0.5015
11960SOL    HW138322   4.248   9.795  10.018  0.1541 -1.0795 -0.0612
11960SOL    HW238323   4.129   9.702  10.029 -1.2069  0.5764 -0.2354
11961SOL     OW38324   3.877   6.450   4.872 -0.1241 -0.5386  0.0993
11961SOL    HW138325   3.791   6.436   4.833 -0.2926  0.0559  0.2377
11961SOL    HW238326   3.925   6.370   4.854 -0.4977 -0.6272 -0.5332
11962SOL     OW38327  10.108   0.258   0.216 -0.0694 -0.1987  0.0257
11962SOL    HW138328  10.046   0.224   0.280 -0.8485 -2.8655 -1.9605
11962SOL    HW238329  10.071   0.341   0.188 -1.5293 -0.6294  0.5898
11963SOL     OW38330   2.196   3.229   3.184  0.0989 -0.0157 -0.7227
11963SOL    HW138331   2.180   3.180   3.265 -0.2093  0.5224 -0.4508
11963SOL    HW238332   2.113   3.224   3.136  0.2190 -0.1649 -0.9192
11964SOL     OW38333   2.094   9.866   0.653  0.4400  1.0376  0.0938
11964SOL    HW138334   2.137   9.802   0.597  0.0870 -0.4503  1.4220
11964SOL    HW238335   2.163   9.925   0.681  1.2954 -0.2480  0.7830
11965SOL     OW38336   3.979   2.691   7.776  0.1652 -0.2218  0.2314
11965SOL    HW138337   3.896   2.735   7.758  1.1296  0.5959 -2.7315
11965SOL    HW238338   3.953   2.605   7.807 -1.7621  0.8291  1.8094
11966SOL     OW38339   1.372   0.845   3.929  0.3608  0.2938 -0.5128
11966SOL    HW138340   1.454   0.795   3.932 -0.8140 -1.7216 -0.2139
11966SOL    HW238341   1.399   0.933   3.900  2.2633 -1.0859 -3.4483
11967SOL     OW38342   5.509   4.990   3.775 -0.3510 -0.2190 -0.3103
11967SOL    HW138343   5.593   5.020   3.739 -0.0849 -2.1546 -1.4125
11967SOL    HW238344   5.531   4.954   3.860 -0.5344  1.7028  0.6139
11968SOL     OW38345   9.851   2.408   9.438  0.6470  0.1758 -1.0437
11968SOL    HW138346   9.887   2.459   9.365  3.7172  0.0112  0.1992
11968SOL    HW238347   9.890   2.321   9.427 -0.5669 -0.4680 -0.3827
11969SOL     OW38348   3.864   8.292   6.843 -0.0460 -0.1412  0.1167
11969SOL    HW138349   3.835   8.328   6.927 -0.5002  0.0781 -0.1288
11969SOL    HW238350   3.847   8.198   6.850  0.7113 -0.2527  0.5849
11970SOL     OW38351   5.252   0.047   0.235  0.6936  0.5304  0.1369
11970SOL    HW138352   5.317   0.005   0.292  0.3526  0.4458  0.4691
11970SOL    HW238353   5.173   0.050   0.288 -0.0466 -0.8352 -0.8147
11971SOL     OW38354   6.037   8.254  10.326 -0.1579 -0.2113 -0.0844
11971SOL    HW138355   6.004   8.203  10.400  0.6696  1.6296  1.6295
11971SOL    HW238356   5.959   8.288  10.284 -0.7007 -2.2635 -0.8773
11972SOL     OW38357   3.068   0.632   7.752 -0.2041 -0.2892 -0.0773
11972SOL    HW138358   3.008   0.568   7.712 -2.2154  0.4762  1.5199
11972SOL    HW238359   3.011   0.702   7.782  1.8878  2.0681 -1.2598
11973SOL     OW38360   7.922   7.179   8.306  0.2918  0.4850 -0.5635
11973SOL    HW138361   7.958   7.154   8.220 -2.3106 -0.2025 -1.5510
11973SOL    HW238362   7.851   7.239   8.285  0.0063  0.7939  1.1820
11974SOL     OW38363   2.740   5.779   9.673 -0.0476  0.0289  0.4830
11974SOL    HW138364   2.772   5.779   9.763  0.1476  0.9153  0.4252
11974SOL    HW238365   2.761   5.866   9.640  0.6846 -0.5730 -0.7152
11975SOL     OW38366   9.240   7.015   4.764  0.4182  0.2143 -0.5030
11975SOL    HW138367   9.215   7.103   4.790  1.2410 -0.0461  1.2990
11975SOL    HW238368   9.181   6.958   4.813  2.0749 -0.2925  1.0175
11976SOL     OW38369   1.521   0.904   1.366 -0.4838  0.1208  0.0830
11976SOL    HW138370   1.538   0.816   1.333  0.9918 -0.2283  1.6363
11976SOL    HW238371   1.427   0.917   1.353 -0.4777 -1.0902 -1.4872
11977SOL     OW38372   1.464   0.245   2.620  0.4476 -0.0819  0.1634
11977SOL    HW138373   1.502   0.175   2.567  1.3781 -0.1245  0.8654
11977SOL    HW238374   1.381   0.266   2.576  1.8804  0.9646 -2.2524
11978SOL     OW38375   8.551   1.098   9.965  0.5304  0.1454  0.3931
11978SOL    HW138376   8.557   1.099   9.869 -0.4089  1.0310  0.3229
11978SOL    HW238377   8.463   1.132   9.983  1.1799  1.2211  1.6139
11979SOL     OW38378   2.864   8.719   2.426 -0.5276 -0.3242 -0.1059
11979SOL    HW138379   2.784   8.759   2.392 -0.8952 -2.0220 -1.3186
11979SOL    HW238380   2.834   8.639   2.469  0.4624 -0.6273  0.0384
11980SOL     OW38381   8.427   1.808   8.601 -0.6268  0.6433  0.0121
11980SOL    HW138382   8.368   1.870   8.559  0.0337  1.2448 -0.0449
11980SOL    HW238383   8.504   1.859   8.623 -0.4433  0.0466  0.8051
11981SOL     OW38384   2.494   1.463  10.289  0.1626 -0.3006  0.3183
11981SOL    HW138385   2.512   1.552  10.319 -1.5456 -0.5702  2.3359
11981SOL    HW238386   2.569   1.412  10.320  0.1130  0.0596  1.0454
11982SOL     OW38387   1.730   9.568   9.992  0.0873 -0.4970  0.3140
11982SOL    HW138388   1.642   9.570  10.028 -0.0184 -1.1663  0.1103
11982SOL    HW238389   1.740   9.479   9.957  0.4565 -0.1011 -0.6271
11983SOL     OW38390   3.219   0.736   8.592 -0.4131  0.0277  0.0020
11983SOL    HW138391   3.177   0.668   8.645 -0.0396 -0.6519 -0.5555
11983SOL    HW238392   3.198   0.817   8.637  1.1592 -0.6309  2.1059
11984SOL     OW38393   9.327  10.085   9.604 -0.5637  0.3705  0.2396
11984SOL    HW138394   9.335   9.991   9.590  0.8163  0.4306  0.4728
11984SOL    HW238395   9.322  10.122   9.516  1.8922  0.2819  0.0085
11985SOL     OW38396   2.912   3.014   9.098  0.3195 -0.0600  0.4172
11985SOL    HW138397   2.858   2.945   9.136  0.2964  0.6784  1.8237
11985SOL    HW238398   2.870   3.036   9.016 -1.1709  0.0624  1.1823
11986SOL     OW38399   1.864   0.037   3.372  0.5410  0.4297 -0.2151
11986SOL    HW138400   1.828  -0.033   3.427  0.0422  2.2798  1.9342
11986SOL    HW238401   1.934  -0.006   3.322  0.3577 -1.5727  1.1226
11987SOL     OW38402  10.170   3.974   8.516  0.3575  0.5861  0.0714
11987SOL    HW138403  10.225   3.985   8.594  0.2917 -0.1598  0.2225
11987SOL    HW238404  10.199   4.044   8.457  0.0174  1.5288  0.9774
11988SOL     OW38405   7.115   9.485   8.741 -0.3528 -0.3038 -0.4041
11988SOL    HW138406   7.050   9.425   8.778  0.4717 -1.2926 -0.4861
11988SOL    HW238407   7.068   9.532   8.673 -1.1559 -0.5069 -0.0093
11989SOL     OW38408   4.145   1.499   0.328  0.2269 -0.0302 -0.2763
11989SOL    HW138409   4.164   1.587   0.296 -1.1844 -0.1038 -1.4150
11989SOL    HW238410   4.231   1.458   0.338  0.9795  1.6895  1.0448
11990SOL     OW38411   9.757   4.942   6.123  0.0961 -0.0171 -0.1818
11990SOL    HW138412   9.838   4.944   6.175  0.2972  3.4207 -0.4025
11990SOL    HW238413   9.784   4.907   6.039  1.7285  2.0034 -0.6030
11991SOL     OW38414   3.907   1.011   1.862  0.0439 -0.3280  0.0673
11991SOL    HW138415   3.902   0.946   1.791  2.4040  1.1196 -1.5666
11991SOL    HW238416   3.946   0.963   1.935 -1.7702 -1.6664  0.2302
11992SOL     OW38417   1.596   3.908   5.559 -0.0869 -0.0801 -0.4267
11992SOL    HW138418   1.619   3.844   5.627 -0.2001  0.6788  0.3395
11992SOL    HW238419   1.509   3.939   5.585  0.8233  1.9401  0.4279
11993SOL     OW38420   8.690   7.202   1.796 -0.3876 -0.6053  0.1809
11993SOL    HW138421   8.601   7.235   1.789 -0.3900 -0.7985 -0.7804
11993SOL    HW238422   8.726   7.245   1.874 -1.1693 -0.1871  0.3148
11994SOL     OW38423   6.665   0.686   9.406  0.4365  0.3671  0.3472
11994SOL    HW138424   6.636   0.776   9.393  0.3777  0.0448 -2.2364
11994SOL    HW238425   6.727   0.670   9.335  0.0434 -1.7933  0.4274
11995SOL     OW38426   7.972   6.168   2.048  0.1394 -0.2916 -0.8896
11995SOL    HW138427   8.067   6.176   2.035  0.0530 -1.1290 -2.1942
11995SOL    HW238428   7.934   6.223   1.980 -0.3216 -1.6275 -1.7326
11996SOL     OW38429   2.457   9.390   1.415  0.3439  0.0800 -0.1033
11996SOL    HW138430   2.483   9.315   1.362  3.4800  1.7416 -1.1914
11996SOL    HW238431   2.419   9.452   1.352 -3.0057 -0.7854  0.9043
11997SOL     OW38432   0.923   1.520   6.208  0.1581  0.0162  0.0619
11997SOL    HW138433   0.945   1.441   6.258 -1.1369  0.4237  1.3272
11997SOL    HW238434   0.987   1.585   6.237  0.4152 -0.1927 -0.0267
11998SOL     OW38435   4.910   7.150   8.311  0.2473  0.1845  0.1465
11998SOL    HW138436   4.888   7.177   8.222 -0.4217  0.6304  0.4361
11998SOL    HW238437   4.849   7.199   8.367 -1.8434 -2.6794  0.6387
11999SOL     OW38438   2.657   0.164   0.276  0.2290  0.0661  0.0036
11999SOL    HW138439   2.736   0.196   0.231  0.7899  1.0182  1.5932
11999SOL    HW238440   2.585   0.208   0.231  0.7301  0.5309 -0.3685
12000SOL     OW38441   8.400   8.552   0.792 -0.1128  0.2815  0.7554
12000SOL    HW138442   8.464   8.560   0.863  1.2311 -2.4868  0.0250
12000SOL    HW238443   8.447   8.582   0.714  0.3775 -1.6899  0.2292
12001SOL     OW38444   8.388   7.382   0.372  0.0015 -0.1392  0.0688
12001SOL    HW138445   8.473   7.393   0.413 -0.0699  1.0044 -0.0675
12001SOL    HW238446   8.401   7.406   0.280 -0.3764 -0.3413 -0.0438
12002SOL     OW38447   5.116   8.913   0.464 -0.0021  0.1231  0.8177
12002SOL    HW138448   5.087   8.862   0.388  1.1530  0.0375  0.4131
12002SOL    HW238449   5.048   8.979   0.476 -0.7240 -0.5198  0.3683
12003SOL     OW38450   1.832   9.999   1.153 -0.0949  0.0956 -0.2442
12003SOL    HW138451   1.889   9.991   1.229 -0.1378  0.6940 -0.1462
12003SOL    HW238452   1.805  10.091   1.152  1.1251  0.5019 -1.8310
12004SOL     OW38453   7.302   8.518   6.974 -0.2772 -0.7772  0.2928
12004SOL    HW138454   7.331   8.479   7.056 -1.5373 -0.2062  1.0330
12004SOL    HW238455   7.208   8.505   6.973 -0.2243 -1.2528 -1.3378
12005SOL     OW38456   9.253   4.920   3.226  0.2950  0.5924  0.0241
12005SOL    HW138457   9.289   4.997   3.270  0.1612  1.4141 -1.2818
12005SOL    HW238458   9.329   4.877   3.188  0.2355  0.6997 -0.2142
12006SOL     OW38459   1.378   6.528   1.916  0.5776 -0.3594  0.0197
12006SOL    HW138460   1.404   6.600   1.858 -0.1987  1.1314  1.4232
12006SOL    HW238461   1.436   6.456   1.893  0.9345  0.4790 -1.9240
12007SOL     OW38462   5.039   9.749   3.068  0.5732  0.0379  0.5506
12007SOL    HW138463   5.077   9.704   3.144  0.3215 -1.5559 -0.2295
12007SOL    HW238464   5.039   9.684   2.999  0.6363  1.4099 -0.7989
12008SOL     OW38465   5.393   6.464   0.548  0.3187  0.1426  0.4089
12008SOL    HW138466   5.384   6.383   0.497 -1.5456  0.4010  0.2553
12008SOL    HW238467   5.312   6.469   0.600  1.6336  0.4999  2.5249
12009SOL     OW38468   6.363   5.872   2.182  0.1986 -0.5826  0.3232
12009SOL    HW138469   6.294   5.938   2.174  0.1481 -0.4729  1.4906
12009SOL    HW238470   6.316   5.789   2.190  0.2656 -0.8696 -1.6176
12010SOL     OW38471   0.863   6.357   5.681  0.1874 -0.0459 -0.5078
12010SOL    HW138472   0.947   6.401   5.667  1.8926 -3.6625 -4.2102
12010SOL    HW238473   0.867   6.323   5.770  2.2567  0.6949 -0.2774
12011SOL     OW38474   5.527   0.055   2.371  0.6736  0.0856  0.1971
12011SOL    HW138475   5.508  -0.036   2.348  0.1088  0.3076 -0.2442
12011SOL    HW238476   5.606   0.077   2.321 -0.6337  0.6168 -1.7428
12012SOL     OW38477   9.745   4.829   3.262 -0.1324  0.2391 -0.0702
12012SOL    HW138478   9.836   4.825   3.233 -0.5886 -0.1473 -1.5382
12012SOL    HW238479   9.744   4.899   3.327  1.3047 -0.1062  0.3637
12013SOL     OW38480   2.366   3.860   3.527  0.4321  0.0845  0.0877
12013SOL    HW138481   2.386   3.775   3.488 -0.0043 -0.2725  0.6295
12013SOL    HW238482   2.367   3.921   3.453 -0.4468 -0.5933 -0.5048
12014SOL     OW38483   2.831   7.060   1.124  0.3966 -0.8076 -0.5931
12014SOL    HW138484   2.850   6.966   1.131  0.1679 -0.7958  0.2217
12014SOL    HW238485   2.739   7.064   1.097  0.1866 -0.8217  0.0895
12015SOL     OW38486   8.028   7.379   6.369  0.3800 -0.4033 -0.1997
12015SOL    HW138487   8.115   7.417   6.380  0.6677 -1.0308 -0.2125
12015SOL    HW238488   7.968   7.440   6.411  0.7435  0.4136 -0.8443
12016SOL     OW38489   3.096  10.117   5.710 -0.1667  0.9348  0.4556
12016SOL    HW138490   3.154  10.193   5.713  2.1308 -0.7358  1.8050
12016SOL    HW238491   3.028  10.137   5.775  0.6572  1.6512  1.1291
12017SOL     OW38492   5.508   5.524   6.530  0.4064 -0.1567  0.2078
12017SOL    HW138493   5.510   5.496   6.439 -1.7361  1.2678 -0.3560
12017SOL    HW238494   5.491   5.444   6.580  1.9452 -1.0079 -0.5597
12018SOL     OW38495   9.153  10.377   3.915 -0.1162 -0.1026  0.1616
12018SOL    HW138496   9.203  10.407   3.991 -2.0258  2.4782  0.5066
12018SOL    HW238497   9.210  10.394   3.840  0.1836  1.2417  0.6758
12019SOL     OW38498   4.508   5.953   5.953  0.2148 -0.0291  0.2045
12019SOL    HW138499   4.429   5.902   5.970  0.4729  0.1127  1.9992
12019SOL    HW238500   4.580   5.894   5.975  0.5727  0.3870  0.1524
12020SOL     OW38501   8.000   7.175  10.237  0.8243 -0.2432 -0.4641
12020SOL    HW138502   7.922   7.128  10.265  1.1723 -1.0393 -0.8143
12020SOL    HW238503   8.004   7.161  10.142 -0.6256  2.8197 -1.1214
12021SOL     OW38504   8.676   9.356   2.551  0.3663  0.1795  0.0158
12021SOL    HW138505   8.754   9.384   2.598  0.8718  0.5121 -0.9928
12021SOL    HW238506   8.666   9.419   2.480 -1.4186  0.7418  0.7126
12022SOL     OW38507   3.071   0.394   7.109  0.2781  0.3567  0.2518
12022SOL    HW138508   3.118   0.310   7.113  1.7991  1.1300 -0.5521
12022SOL    HW238509   3.140   0.459   7.099 -0.9824  1.4059 -3.1768
12023SOL     OW38510   0.735   3.877   8.445  0.1977 -0.0326 -0.1346
12023SOL    HW138511   0.670   3.810   8.466 -0.0198 -0.4715 -2.0553
12023SOL    HW238512   0.816   3.828   8.427  0.1775  0.2407 -1.0167
12024SOL     OW38513   9.450   4.072   8.252  0.0100 -0.5939 -0.0439
12024SOL    HW138514   9.462   4.043   8.342  0.3871 -1.3978 -0.3453
12024SOL    HW238515   9.454   4.167   8.257 -0.8870 -0.5893  0.9139
12025SOL     OW38516   6.919   9.466   2.025  0.6285 -0.1534 -0.1069
12025SOL    HW138517   6.875   9.551   2.023  2.9564  1.2043  1.7896
12025SOL    HW238518   6.854   9.407   2.063 -1.8312  0.1099 -3.4305
12026SOL     OW38519   2.775   3.002   3.086  0.1325  0.2635  0.3588
12026SOL    HW138520   2.736   3.088   3.100  3.0561  1.5773  1.1568
12026SOL    HW238521   2.739   2.948   3.156 -1.3340  0.9432  0.1779
12027SOL     OW38522   5.640   0.183   1.713  0.2046 -0.0993 -0.2141
12027SOL    HW138523   5.594   0.172   1.796  0.2460 -0.5214 -0.2434
12027SOL    HW238524   5.674   0.096   1.693 -0.3973 -0.1543 -1.0217
12028SOL     OW38525   2.342   8.726   7.464  0.4196 -0.0908  0.2275
12028SOL    HW138526   2.369   8.636   7.478  0.2933 -0.4636 -1.6258
12028SOL    HW238527   2.412   8.765   7.412 -0.1449  0.4713 -0.1431
12029SOL     OW38528  10.362   3.070   0.296  0.3489  0.3672  0.7288
12029SOL    HW138529  10.417   3.043   0.223 -1.3303 -1.8514  0.1718
12029SOL    HW238530  10.422   3.079   0.370  1.6770 -0.1774 -0.2515
12030SOL     OW38531   1.221   9.941   4.088 -0.0483  0.1278  0.4681
12030SOL    HW138532   1.161   9.907   4.154  1.1307 -0.0433  1.4951
12030SOL    HW238533   1.308   9.917   4.120  0.5811  0.3427 -0.9845
12031SOL     OW38534   0.042   2.250   1.606  0.1278  0.4711  0.2395
12031SOL    HW138535   0.031   2.212   1.519 -1.1308  0.7758  0.2485
12031SOL    HW238536   0.009   2.339   1.599  1.1672  0.9215  0.7358
12032SOL     OW38537   9.965   1.091   1.910  0.1644 -0.1651  0.1697
12032SOL    HW138538   9.960   1.004   1.871  1.6025 -0.2349  0.0890
12032SOL    HW238539   9.981   1.150   1.836 -1.2692  0.2550  0.1605
12033SOL     OW38540   1.706   3.641  10.058  0.1736  0.4585 -0.1874
12033SOL    HW138541   1.645   3.582  10.102  0.8605 -0.2649 -0.1980
12033SOL    HW238542   1.763   3.584  10.008  0.1463  1.2030 -1.0917
12034SOL     OW38543   7.154   5.780   6.693  0.2756  0.0087  0.3782
12034SOL    HW138544   7.199   5.837   6.754 -2.6740  1.5600  1.2909
12034SOL    HW238545   7.102   5.721   6.749 -2.2708  1.2830 -0.4811
12035SOL     OW38546   0.811   8.024   7.166 -0.5274  0.2345  0.1550
12035SOL    HW138547   0.878   8.081   7.204 -1.7760  1.5416  0.5113
12035SOL    HW238548   0.839   8.011   7.075  0.5029  0.2562  0.4564
12036SOL     OW38549   0.802  10.190   4.665 -0.2665 -0.5506  0.0938
12036SOL    HW138550   0.775  10.124   4.729  0.9695 -0.0124  1.2123
12036SOL    HW238551   0.739  10.261   4.677 -0.9492 -1.0640 -0.3632
12037SOL     OW38552   9.651   2.038   0.446  0.0254 -0.1669  0.6335
12037SOL    HW138553   9.559   2.062   0.446  0.4337  1.5235  0.6849
12037SOL    HW238554   9.669   2.014   0.355 -0.4597 -0.5325  0.6289
12038SOL     OW38555   9.126   2.417   7.348  0.0684 -0.4496 -0.0397
12038SOL    HW138556   9.097   2.499   7.388 -0.9168 -0.5340 -0.5465
12038SOL    HW238557   9.061   2.353   7.377  0.5047 -0.9318 -0.1184
12039SOL     OW38558   8.573   9.623   1.160 -0.8446 -0.2631  0.5391
12039SOL    HW138559   8.636   9.596   1.226 -0.7377  0.9026  0.9239
12039SOL    HW238560   8.564   9.717   1.171 -2.2629 -0.3259  0.1407
12040SOL     OW38561   2.361   6.414   0.785 -0.3349  0.1936  0.0196
12040SOL    HW138562   2.449   6.403   0.747 -0.3517  0.6490 -0.1574
12040SOL    HW238563   2.375   6.411   0.880  0.4380  3.9558  0.1581
12041SOL     OW38564   0.302   9.730   1.966 -0.1479  0.1571  0.0120
12041SOL    HW138565   0.245   9.677   1.910 -0.6525 -0.1930  0.8402
12041SOL    HW238566   0.345   9.791   1.906  0.1938 -0.9586 -0.9201
12042SOL     OW38567  10.271   4.524   2.508 -0.4670  0.0642  0.1160
12042SOL    HW138568  10.329   4.519   2.432 -1.3223 -1.4750 -0.4834
12042SOL    HW238569  10.308   4.462   2.571  0.9636  2.2400  1.5520
12043SOL     OW38570   2.610   9.038   1.032 -0.4939 -0.2586 -0.2526
12043SOL    HW138571   2.559   9.117   1.017 -2.4833 -1.4560 -0.1435
12043SOL    HW238572   2.546   8.974   1.062  1.0026 -1.9991 -0.6232
12044SOL     OW38573   7.665   8.229  10.050 -0.2437  0.1462 -0.1213
12044SOL    HW138574   7.705   8.143  10.058 -1.6526 -0.4681  0.7191
12044SOL    HW238575   7.689   8.275  10.131 -1.2265 -0.2382  0.4023
12045SOL     OW38576   2.768   2.941   6.725 -0.0693 -0.5251 -0.5626
12045SOL    HW138577   2.813   2.917   6.806 -0.6694 -0.8323 -0.3125
12045SOL    HW238578   2.804   3.026   6.702  1.4546 -1.2374 -0.9789
12046SOL     OW38579   4.779   9.354   0.734  0.8063 -0.1723  0.0527
12046SOL    HW138580   4.796   9.440   0.773  0.4753 -0.6548  1.3417
12046SOL    HW238581   4.848   9.298   0.770  0.7374 -0.5531 -0.4018
12047SOL     OW38582   4.600   5.814   3.979 -0.1267  0.5502  0.0047
12047SOL    HW138583   4.621   5.833   4.070  0.4248  0.2356 -0.0540
12047SOL    HW238584   4.575   5.722   3.978  0.6082  0.3418 -0.2755
12048SOL     OW38585   5.003  10.202   0.350  0.5740 -0.1848 -0.5162
12048SOL    HW138586   4.951  10.124   0.331  0.3426  0.3204 -2.1122
12048SOL    HW238587   4.943  10.275   0.334  1.0854  0.3571 -0.0240
12049SOL     OW38588  10.251   6.978   8.682  0.6842  0.9188 -0.1068
12049SOL    HW138589  10.284   6.891   8.705 -1.3754  0.0775 -0.0994
12049SOL    HW238590  10.252   6.980   8.586 -1.1826  0.0332 -0.1860
12050SOL     OW38591   3.051   1.252   7.997 -0.2179  0.3792 -0.4224
12050SOL    HW138592   2.971   1.205   8.021 -0.1404  0.2340 -0.4496
12050SOL    HW238593   3.120   1.185   7.998 -0.2515  0.3257 -1.2691
12051SOL     OW38594   0.873  10.140   7.594 -0.1370  0.8502 -0.2379
12051SOL    HW138595   0.891  10.125   7.501  1.9526 -0.4141  0.3122
12051SOL    HW238596   0.895  10.232   7.608  1.0175  0.6691 -0.7245
12052SOL     OW38597   5.050   7.721   9.994 -0.3377  1.1868  0.0097
12052SOL    HW138598   5.061   7.645  10.051  0.6873  0.4554 -1.1171
12052SOL    HW238599   4.994   7.690   9.923 -0.1863  1.5955 -0.2895
12053SOL     OW38600   6.216   2.471   6.420 -0.0054  0.0483  0.1077
12053SOL    HW138601   6.138   2.444   6.371  0.0534  0.7278 -0.3829
12053SOL    HW238602   6.277   2.502   6.352  1.0589 -1.3251  0.3950
12054SOL     OW38603   2.451   3.886   0.137 -0.1234  0.0982 -0.6243
12054SOL    HW138604   2.397   3.833   0.078 -0.0176 -0.9970  0.2263
12054SOL    HW238605   2.433   3.850   0.224  2.5418 -0.8226 -0.3625
12055SOL     OW38606   3.410   0.840   6.588  0.3018  0.1369 -0.1949
12055SOL    HW138607   3.315   0.852   6.589  0.0828 -0.7444 -2.7701
12055SOL    HW238608   3.431   0.820   6.496  2.7540 -1.3840  0.5926
12056SOL     OW38609   0.407   7.574   1.939 -0.7135  0.1656 -0.2511
12056SOL    HW138610   0.482   7.631   1.954 -2.1637  2.0229  0.3052
12056SOL    HW238611   0.406   7.560   1.844 -0.6402  1.5476 -0.4727
12057SOL     OW38612   1.737   1.320   8.586  0.0925  0.1328 -0.1196
12057SOL    HW138613   1.676   1.274   8.529  1.2320  2.8733 -3.9276
12057SOL    HW238614   1.822   1.280   8.568  0.2698  0.0529  0.8453
12058SOL     OW38615   7.996   7.850   5.792  0.4072  0.0024  0.7995
12058SOL    HW138616   7.986   7.795   5.870 -0.1189  0.1389  0.8309
12058SOL    HW238617   8.069   7.908   5.812 -0.7687  1.1770  1.8732
12059SOL     OW38618   7.513  10.414   6.833 -0.2582  1.1897  0.2742
12059SOL    HW138619   7.449  10.464   6.883 -0.3594  0.9019  0.4324
12059SOL    HW238620   7.596  10.461   6.847 -0.0445  0.4263  1.7098
12060SOL     OW38621   6.116   3.319   4.130  0.0085 -0.6339  0.0455
12060SOL    HW138622   6.089   3.360   4.048 -1.9236 -1.2848  0.3144
12060SOL    HW238623   6.202   3.281   4.111  0.1772  0.3391 -1.2721
12061SOL     OW38624   1.678   8.376   2.189 -0.4356  0.0459  0.2742
12061SOL    HW138625   1.607   8.439   2.180  0.8968  1.6221  0.1639
12061SOL    HW238626   1.680   8.329   2.106 -1.1680  0.1755  0.1812
12062SOL     OW38627   7.206   5.253   7.602  0.3628  0.0412  0.1711
12062SOL    HW138628   7.216   5.334   7.551 -1.5651 -0.4180 -1.0458
12062SOL    HW238629   7.147   5.199   7.550 -0.4831 -1.0921  2.1897
12063SOL     OW38630   3.600   5.156   0.828  0.3797  0.0391 -0.1953
12063SOL    HW138631   3.640   5.072   0.807  1.0796  0.5064 -0.8018
12063SOL    HW238632   3.587   5.154   0.923  1.3551 -0.3410 -0.0647
12064SOL     OW38633   2.609   5.708   2.325  0.6217  0.2863 -0.2920
12064SOL    HW138634   2.540   5.654   2.364  0.9487  0.4719  0.5394
12064SOL    HW238635   2.572   5.736   2.241 -0.2595  0.2780  0.0858
12065SOL     OW38636   3.794   3.699   2.579  0.0830  0.6489 -0.8858
12065SOL    HW138637   3.701   3.719   2.584 -0.1885  0.0212 -2.5743
12065SOL    HW238638   3.833   3.778   2.541  0.2113  0.8318 -0.3777
12066SOL     OW38639   7.905   1.166   1.906 -0.5391 -0.3858 -0.0556
12066SOL    HW138640   7.875   1.117   1.983 -1.9861 -0.3963 -0.5953
12066SOL    HW238641   7.983   1.213   1.936 -0.0767 -1.7358  0.9273
12067SOL     OW38642   3.168   1.776   9.800 -0.6964 -0.2545  0.2076
12067SOL    HW138643   3.089   1.811   9.760 -0.6338 -1.0769 -0.6865
12067SOL    HW238644   3.240   1.820   9.754 -0.6271  0.4160  0.9460
12068SOL     OW38645   4.005   7.565   7.375  0.1800  0.6319  0.4632
12068SOL    HW138646   4.091   7.601   7.354 -0.0774  2.1536  1.8860
12068SOL    HW238647   3.948   7.641   7.384 -0.2335  0.0352  4.2921
12069SOL     OW38648   8.706   2.253   6.857 -0.1434  0.5699  0.7017
12069SOL    HW138649   8.726   2.346   6.867 -1.4477  0.9620  0.0048
12069SOL    HW238650   8.690   2.221   6.946  1.0514  0.8204  1.0149
12070SOL     OW38651   4.124   8.126   0.062 -0.5442  0.0791 -0.3118
12070SOL    HW138652   4.107   8.124   0.156  0.8983  0.6238 -0.0207
12070SOL    HW238653   4.037   8.121   0.022 -1.2458  0.8110  1.0566
12071SOL     OW38654   1.536   3.798   7.211  0.6881 -0.5016  0.0376
12071SOL    HW138655   1.459   3.804   7.267  0.8387 -0.9851  0.3048
12071SOL    HW238656   1.504   3.822   7.124  0.4192  0.0991  0.2989
12072SOL     OW38657   4.870   9.739   1.971  0.0320  0.1514  0.9761
12072SOL    HW138658   4.909   9.661   1.929 -0.2364  0.6460 -0.2398
12072SOL    HW238659   4.916   9.746   2.054  1.3673 -0.2587  0.3146
12073SOL     OW38660   6.215   7.555   4.239 -1.0664 -0.9213 -0.5133
12073SOL    HW138661   6.208   7.651   4.241 -1.3825 -0.9361  2.4468
12073SOL    HW238662   6.309   7.538   4.251 -1.2076 -0.9465  0.7038
12074SOL     OW38663   4.138   3.890   4.012  0.5594 -0.3457 -0.2061
12074SOL    HW138664   4.104   3.832   4.081  1.1993  0.0761  0.4831
12074SOL    HW238665   4.125   3.841   3.931 -0.2746 -0.8233  0.2017
12075SOL     OW38666   5.733  10.252   3.230 -0.1227 -0.2433 -0.1521
12075SOL    HW138667   5.662  10.211   3.181 -0.1041 -0.3238 -0.1117
12075SOL    HW238668   5.744  10.197   3.307  0.3851 -0.5791 -0.4546
12076SOL     OW38669   6.627   4.234   7.987  0.0461  0.2177  0.1490
12076SOL    HW138670   6.663   4.186   8.061  0.4003  2.9281  1.8886
12076SOL    HW238671   6.536   4.204   7.980  0.6066 -1.5870  0.2909
12077SOL     OW38672   1.439   0.881   9.804  0.4074  0.2225  0.3427
12077SOL    HW138673   1.534   0.877   9.789  0.5204  1.7965  0.4994
12077SOL    HW238674   1.414   0.970   9.779 -1.0295 -0.1570  0.3440
12078SOL     OW38675   8.802   1.839   1.362 -0.3931 -0.6871  0.3372
12078SOL    HW138676   8.762   1.753   1.377 -1.0730 -0.3808  0.2886
12078SOL    HW238677   8.895   1.820   1.349 -0.6571 -1.4973 -0.4637
12079SOL     OW38678   1.618   2.756   1.014  0.7366 -0.0368 -0.1415
12079SOL    HW138679   1.679   2.821   0.978  0.7068 -0.3537 -0.7718
12079SOL    HW238680   1.549   2.808   1.054  1.7061  0.3470  1.1257
12080SOL     OW38681   2.111   1.842  10.142 -0.2496  0.0886  0.0168
12080SOL    HW138682   2.075   1.778  10.080  1.3916 -0.3801 -0.4893
12080SOL    HW238683   2.138   1.791  10.217  0.7191  0.2228 -0.2306
12081SOL     OW38684   2.906   8.261   7.101 -0.1473  0.1844 -0.0887
12081SOL    HW138685   2.902   8.224   7.189 -1.3432 -2.5344 -1.1555
12081SOL    HW238686   2.989   8.230   7.065 -0.3312  0.0235 -0.3839
12082SOL     OW38687   5.825   8.309   6.467  0.1600  0.3577 -0.2790
12082SOL    HW138688   5.810   8.395   6.505 -0.8197 -0.0380  0.2605
12082SOL    HW238689   5.807   8.248   6.538 -0.3000 -0.3358 -0.9809
12083SOL     OW38690   1.375  10.285   0.659 -0.1488 -0.6873 -0.0112
12083SOL    HW138691   1.424  10.202   0.660 -0.4257 -0.8554  0.6403
12083SOL    HW238692   1.316  10.277   0.584  0.3137 -0.7855 -0.3695
12084SOL     OW38693   2.025   7.376   4.006 -0.0069 -0.2795  0.2139
12084SOL    HW138694   2.041   7.359   4.099 -2.0910 -0.5200  0.5853
12084SOL    HW238695   1.990   7.293   3.972 -1.1177  0.3569 -0.2798
12085SOL     OW38696   5.580   2.974   0.444 -0.1490 -0.0812 -0.5646
12085SOL    HW138697   5.548   2.976   0.534  0.7779  1.8441 -0.2147
12085SOL    HW238698   5.670   3.005   0.450 -0.1177  0.2430 -2.1673
12086SOL     OW38699   7.434   2.253   3.929 -0.1770 -0.5728  0.0334
12086SOL    HW138700   7.426   2.247   3.834  1.3420  1.5610 -0.2902
12086SOL    HW238701   7.371   2.321   3.954  0.4406 -0.1190  0.3671
12087SOL     OW38702   0.824   9.100  10.054  0.4890  0.6668  0.0473
12087SOL    HW138703   0.778   9.031  10.006  0.9062  0.9513 -0.7864
12087SOL    HW238704   0.910   9.063  10.072  0.1369  0.3320  1.1416
12088SOL     OW38705   8.399   4.406   5.576  0.1582  0.2185  0.3791
12088SOL    HW138706   8.399   4.391   5.482  3.7158  0.6968  0.1677
12088SOL    HW238707   8.347   4.486   5.588  0.8025  0.9347 -1.3467
12089SOL     OW38708   5.552   1.785   6.265  0.2366  0.0004 -0.5694
12089SOL    HW138709   5.492   1.770   6.338  0.4387  0.1346 -0.3752
12089SOL    HW238710   5.574   1.878   6.271  1.3130 -0.2744  0.0112
12090SOL     OW38711   8.601   2.587   0.360 -0.2169 -0.0407 -0.4959
12090SOL    HW138712   8.550   2.534   0.421  0.0995 -0.4133 -0.5537
12090SOL    HW238713   8.535   2.635   0.310 -0.5160 -0.5168 -0.5660
12091SOL     OW38714   3.885   7.838   7.343 -0.2461  0.1458  0.2612
12091SOL    HW138715   3.796   7.868   7.325  0.0171  1.3994  0.9119
12091SOL    HW238716   3.937   7.919   7.344  0.4979 -0.3181  2.1748
12092SOL     OW38717   3.058   2.718   0.749  0.0906  0.5672 -0.3547
12092SOL    HW138718   3.098   2.638   0.714  0.7238  1.4080 -1.6279
12092SOL    HW238719   3.083   2.719   0.841 -0.1115 -0.8045 -0.2601
12093SOL     OW38720   7.128   4.744   5.944 -0.0272  0.2520  0.3999
12093SOL    HW138721   7.222   4.745   5.962  0.4457  0.3379 -1.8887
12093SOL    HW238722   7.093   4.810   6.004  1.3571  0.2910  1.2275
12094SOL     OW38723   8.289   3.819   9.374 -0.0823  0.4997 -0.4018
12094SOL    HW138724   8.231   3.894   9.391 -0.0971  0.3513  0.2178
12094SOL    HW238725   8.234   3.742   9.390  0.4446  0.3521  0.8215
12095SOL     OW38726  10.006   7.840   6.742 -0.4951 -0.0140 -0.5673
12095SOL    HW138727   9.991   7.795   6.826 -0.1332 -0.1753 -0.5885
12095SOL    HW238728  10.083   7.895   6.758 -0.5449  0.1061 -0.7372
12096SOL     OW38729   6.456   7.498   7.010  0.0591 -0.5952 -1.0018
12096SOL    HW138730   6.539   7.458   7.036  0.9253  0.0794 -2.5741
12096SOL    HW238731   6.481   7.565   6.946 -1.6025  0.4080 -0.6653
12097SOL     OW38732   9.740   0.729   1.113  0.0562 -0.0409  0.1313
12097SOL    HW138733   9.783   0.812   1.090 -1.1673  0.4272 -0.5610
12097SOL    HW238734   9.804   0.683   1.167  0.1340  2.0779  1.9748
12098SOL     OW38735   9.663   4.988   4.524  0.0736  0.3270 -0.1946
12098SOL    HW138736   9.702   4.982   4.437  0.0707  0.9112 -0.2420
12098SOL    HW238737   9.728   5.035   4.576 -0.1676  0.4833 -0.0326
12099SOL     OW38738   2.048   0.888   1.459 -0.1092 -0.0560 -0.2003
12099SOL    HW138739   2.142   0.868   1.462 -0.6163 -3.0224 -0.7533
12099SOL    HW238740   2.024   0.904   1.550  0.6962 -0.8237  0.1666
12100SOL     OW38741   4.527   8.947   8.488 -0.1983 -0.4532 -0.0589
12100SOL    HW138742   4.516   9.041   8.473  1.3056 -0.1671  0.4284
12100SOL    HW238743   4.612   8.926   8.448 -0.2542 -1.4893  0.3332
12101SOL     OW38744   1.240   0.181   2.366 -0.0594  0.8381  0.2088
12101SOL    HW138745   1.328   0.216   2.351  0.7401 -0.9469  0.4932
12101SOL    HW238746   1.234   0.105   2.308 -0.7722 -0.0459  1.3773
12102SOL     OW38747   6.581   0.279   4.105 -0.0383  0.2371  0.2147
12102SOL    HW138748   6.617   0.332   4.034 -1.4065  1.3728  0.3217
12102SOL    HW238749   6.488   0.274   4.086 -0.0702 -1.4011  0.7069
12103SOL     OW38750  10.031   6.533   7.382 -1.1436  0.2540 -0.1872
12103SOL    HW138751  10.065   6.478   7.311  1.4150  1.5488 -0.0783
12103SOL    HW238752   9.988   6.606   7.337  0.8943  1.3265 -0.5078
12104SOL     OW38753   2.402   6.053   6.958 -0.0585  0.4865  0.2720
12104SOL    HW138754   2.486   6.017   6.989  0.1419  0.1883 -0.5793
12104SOL    HW238755   2.386   6.128   7.015 -0.0230 -0.3943  1.4997
12105SOL     OW38756   6.803   7.874   7.229 -0.4378 -0.4962  0.4663
12105SOL    HW138757   6.879   7.899   7.177 -0.3329 -0.3133  0.7041
12105SOL    HW238758   6.778   7.788   7.196 -0.7558 -0.1120 -0.3139
12106SOL     OW38759   4.614   1.206   0.986  0.4596 -0.0792  0.4421
12106SOL    HW138760   4.572   1.132   1.029  0.2298  0.2754  0.8437
12106SOL    HW238761   4.603   1.190   0.892  2.3991 -1.6984  0.4198
12107SOL     OW38762   5.246   2.612   9.163  0.4490 -0.4723 -0.2380
12107SOL    HW138763   5.277   2.570   9.243  0.7638 -0.7291 -0.4895
12107SOL    HW238764   5.198   2.689   9.193 -0.6225 -1.3096  0.2588
12108SOL     OW38765   7.813   6.212   5.873 -0.1407  0.2810 -0.1630
12108SOL    HW138766   7.752   6.168   5.814 -1.4218 -0.3434  1.5287
12108SOL    HW238767   7.757   6.254   5.938  1.1766 -0.8715  1.8364
12109SOL     OW38768   4.420   6.328   0.014  0.1964  0.1265  0.6687
12109SOL    HW138769   4.445   6.238   0.035  0.9019  0.1298 -0.0935
12109SOL    HW238770   4.446   6.379   0.090  0.9059 -0.1418  0.6099
12110SOL     OW38771   4.986   0.731   1.310 -0.3909  0.7808  0.0327
12110SOL    HW138772   5.006   0.642   1.337 -1.4774  0.3123 -0.6134
12110SOL    HW238773   4.891   0.739   1.323 -0.2963  1.8764  0.1709
12111SOL     OW38774   9.395   7.685   1.750  0.2270  0.3943 -0.1782
12111SOL    HW138775   9.388   7.709   1.842  2.0892  2.0628 -0.3897
12111SOL    HW238776   9.314   7.717   1.710  0.0520  1.0097  0.6464
12112SOL     OW38777   8.928   6.300   7.901 -0.2777 -0.0347  0.0033
12112SOL    HW138778   8.878   6.371   7.860  1.0147  2.5450  2.5061
12112SOL    HW238779   8.999   6.283   7.839 -0.8652  0.5044 -0.8540
12113SOL     OW38780   6.822   8.831   5.018  0.3433  0.0568 -0.5299
12113SOL    HW138781   6.735   8.804   5.048 -0.2582  2.1650 -0.2519
12113SOL    HW238782   6.807   8.913   4.971  2.1756  0.3937 -0.5876
12114SOL     OW38783   7.721   6.627  10.435  0.0881 -0.2505 -0.3842
12114SOL    HW138784   7.806   6.662  10.407 -0.1019  0.6719  0.1605
12114SOL    HW238785   7.722   6.536  10.406  1.2660 -0.2488 -0.3820
12115SOL     OW38786   9.050   8.888   9.504 -0.5159 -0.6540  0.0823
12115SOL    HW138787   9.066   8.833   9.428  1.0902  0.4960 -0.4656
12115SOL    HW238788   9.016   8.970   9.467 -2.8031 -1.1654  0.8717
12116SOL     OW38789   1.401   9.422   5.128 -0.0559  0.3827  0.0499
12116SOL    HW138790   1.385   9.327   5.134  1.6223 -0.0767 -1.6457
12116SOL    HW238791   1.490   9.433   5.161 -0.3206  1.4187  0.4499
12117SOL     OW38792   5.092   2.673   9.763 -0.1535 -0.0211 -0.3631
12117SOL    HW138793   5.063   2.761   9.739 -0.2859 -0.0255 -0.2213
12117SOL    HW238794   5.052   2.657   9.849  1.7905  0.6988  0.7136
12118SOL     OW38795   6.717   1.900   3.690  0.5580 -0.3017 -1.0588
12118SOL    HW138796   6.744   1.909   3.598  2.1372  3.9536 -0.3863
12118SOL    HW238797   6.636   1.951   3.695  0.6518 -0.2440 -0.0355
12119SOL     OW38798   0.347   6.038   8.743  0.8145  0.3239  0.2114
12119SOL    HW138799   0.339   5.943   8.732 -1.6410  0.5241 -0.3042
12119SOL    HW238800   0.327   6.053   8.835  0.3718  0.3835  0.1103
12120SOL     OW38801   5.411   7.804   9.637  0.0455 -0.1641 -0.5980
12120SOL    HW138802   5.419   7.709   9.637  1.4032 -0.0791  0.8400
12120SOL    HW238803   5.317   7.820   9.645 -0.2130 -1.3720 -1.0417
12121SOL     OW38804   1.208   3.980   6.799  0.1280  0.1270 -0.0174
12121SOL    HW138805   1.160   3.900   6.821  0.7352  0.3069  2.1290
12121SOL    HW238806   1.141   4.048   6.793 -0.3131 -0.3821 -1.2023
12122SOL     OW38807   6.676   5.330   0.712 -0.2332  0.0306 -0.2981
12122SOL    HW138808   6.693   5.282   0.631  1.1821  0.2035 -0.1190
12122SOL    HW238809   6.668   5.262   0.779  2.5010 -0.0278  0.0927
12123SOL     OW38810   4.018   3.431   0.484 -0.2065  0.0845 -0.2365
12123SOL    HW138811   3.936   3.467   0.450 -0.8790 -1.6374 -0.5228
12123SOL    HW238812   4.014   3.447   0.578 -1.1509 -0.5065 -0.1702
12124SOL     OW38813   7.478   6.762   9.617  0.2947  0.1209 -0.3630
12124SOL    HW138814   7.535   6.738   9.691  0.4362  0.0710 -0.4862
12124SOL    HW238815   7.475   6.857   9.619  1.9087  0.2361 -1.4726
12125SOL     OW38816   1.193   1.878   7.073  0.1635 -0.0299  0.3019
12125SOL    HW138817   1.228   1.792   7.050  1.9146  0.5978  0.4375
12125SOL    HW238818   1.235   1.899   7.157 -0.9379  0.5805  0.7164
12126SOL     OW38819   4.137   3.373   7.253 -0.7516 -0.2012 -0.0258
12126SOL    HW138820   4.212   3.403   7.303 -0.1705 -0.1983 -0.8792
12126SOL    HW238821   4.141   3.278   7.257  0.5079 -0.2712 -1.7596
12127SOL     OW38822   5.867   8.837   5.273  0.3181 -0.0101 -0.1129
12127SOL    HW138823   5.797   8.896   5.244  0.0950 -1.2161 -2.2478
12127SOL    HW238824   5.940   8.855   5.213  0.2098 -1.9359 -0.8696
12128SOL     OW38825   1.786   3.421   8.167 -0.3725 -0.0422  0.6489
12128SOL    HW138826   1.695   3.398   8.149  0.4633 -1.6329 -2.1662
12128SOL    HW238827   1.827   3.339   8.193  0.8845 -0.0738 -1.2407
12129SOL     OW38828   5.904   0.756  10.290 -0.1063 -0.1064  0.2652
12129SOL    HW138829   5.934   0.744  10.200  0.8738  2.9718  0.0487
12129SOL    HW238830   5.975   0.724  10.345 -0.2458 -0.9873 -0.0593
12130SOL     OW38831   5.328   3.497   2.254  0.1206  0.0763  0.1978
12130SOL    HW138832   5.296   3.573   2.205 -0.3175 -0.4006 -0.2714
12130SOL    HW238833   5.423   3.509   2.258 -0.0558  1.2670  1.1898
12131SOL     OW38834   2.809   4.026   4.312  0.7125  0.4381 -0.5406
12131SOL    HW138835   2.841   4.021   4.223  1.3198  2.0574 -0.4539
12131SOL    HW238836   2.863   4.093   4.354 -1.4936  1.9295  0.1547
12132SOL     OW38837   8.087   4.896   2.195  0.0521 -0.4567  0.8164
12132SOL    HW138838   8.132   4.961   2.249 -0.1885  0.6755 -0.2957
12132SOL    HW238839   7.997   4.929   2.189  0.0630 -0.5805 -0.2032
12133SOL     OW38840   8.449   6.294   0.394 -0.2597 -0.1135  0.6150
12133SOL    HW138841   8.432   6.383   0.427 -0.8591  0.1085 -0.2526
12133SOL    HW238842   8.525   6.264   0.444  0.8099  1.4176  0.0051
12134SOL     OW38843   8.765   3.788   9.297  0.1790 -0.1421 -0.1441
12134SOL    HW138844   8.775   3.749   9.384  0.8422  0.1626 -0.0788
12134SOL    HW238845   8.677   3.762   9.270 -0.3088  0.3451  0.9043
12135SOL     OW38846   6.709   8.840   5.775 -0.4572 -0.2686 -0.4599
12135SOL    HW138847   6.659   8.904   5.827 -0.2310 -1.3574  1.1767
12135SOL    HW238848   6.706   8.874   5.686 -0.8331  1.7236  0.2601
12136SOL     OW38849   8.847   9.782   0.890  0.5713  0.2262 -0.6730
12136SOL    HW138850   8.787   9.827   0.831  0.1310  0.2254 -0.2283
12136SOL    HW238851   8.807   9.790   0.977  1.2864  0.3581 -0.3438
12137SOL     OW38852   0.083   7.382   6.858 -0.3248 -0.0617 -0.3051
12137SOL    HW138853   0.072   7.431   6.939 -0.8535 -0.8349  0.1030
12137SOL    HW238854  -0.005   7.368   6.825 -0.3740 -2.4100  0.6292
12138SOL     OW38855   0.034   8.665   9.500  0.1550  0.1205  0.3288
12138SOL    HW138856  -0.053   8.690   9.470  1.4192  1.6996 -2.4544
12138SOL    HW238857   0.069   8.744   9.541  0.9740  0.1810 -0.4390
12139SOL     OW38858   7.672   2.397   1.133  0.2323  0.1505 -0.7673
12139SOL    HW138859   7.648   2.463   1.068  0.6361 -0.9568 -2.0860
12139SOL    HW238860   7.767   2.390   1.125  0.3170  0.1793  0.1345
12140SOL     OW38861   2.706   6.508   2.391 -0.4324 -0.0582  0.8619
12140SOL    HW138862   2.760   6.430   2.377 -0.5607  0.1540 -1.2904
12140SOL    HW238863   2.617   6.474   2.397 -0.4268 -0.1431  0.5254
12141SOL     OW38864   3.931   0.748   2.338  0.4322  0.5040  0.3386
12141SOL    HW138865   3.932   0.686   2.411 -0.0056 -0.2060 -0.2513
12141SOL    HW238866   3.887   0.702   2.267  1.3301  0.9737 -0.5605
12142SOL     OW38867   8.318   9.882   9.759 -0.5320  0.2341  0.2501
12142SOL    HW138868   8.249   9.929   9.712 -0.6183 -1.3728 -1.3134
12142SOL    HW238869   8.388   9.947   9.770  0.2031  0.3256 -3.6164
12143SOL     OW38870   5.502  10.234   7.958  0.1071 -0.4449  0.5019
12143SOL    HW138871   5.487  10.156   8.012 -0.9279 -0.8966 -0.4077
12143SOL    HW238872   5.498  10.202   7.868 -0.0973  0.6206  0.1244
12144SOL     OW38873   7.784   3.249  10.410  0.1620  0.3187 -0.1387
12144SOL    HW138874   7.738   3.266  10.327 -0.3461  0.9048  0.2535
12144SOL    HW238875   7.877   3.260  10.389  0.3534 -2.8101 -1.4269
12145SOL     OW38876   1.616   1.711   8.552  0.2159  0.2123  0.1755
12145SOL    HW138877   1.598   1.798   8.518  0.1336  0.4117  0.7172
12145SOL    HW238878   1.531   1.679   8.582  0.1620 -0.2407 -0.4325
12146SOL     OW38879   2.581   4.825   0.348 -0.3116 -0.3455 -0.3695
12146SOL    HW138880   2.579   4.871   0.431 -1.8450 -1.6766  0.3799
12146SOL    HW238881   2.674   4.824   0.323  0.0762  0.7059  0.9375
12147SOL     OW38882   6.764   1.222   1.530  0.2170 -0.1303  0.1096
12147SOL    HW138883   6.704   1.289   1.495  4.8736  4.0527 -0.9746
12147SOL    HW238884   6.803   1.182   1.452  0.4015 -1.3012  0.7812
12148SOL     OW38885   8.846   5.889   3.375  0.2441 -0.6840  0.6179
12148SOL    HW138886   8.813   5.960   3.320 -1.6232 -0.5929  1.7694
12148SOL    HW238887   8.878   5.932   3.454  1.6564 -0.9312  0.2128
12149SOL     OW38888   0.980   7.837   2.016  0.0468  0.0379  0.3075
12149SOL    HW138889   1.063   7.847   2.064  1.5425  0.8737 -2.2476
12149SOL    HW238890   0.932   7.917   2.035 -1.7486 -1.7132  4.2952
12150SOL     OW38891   0.711   0.752   8.515  0.4027 -0.6184  0.2339
12150SOL    HW138892   0.747   0.752   8.427  2.6388  0.0507  1.0759
12150SOL    HW238893   0.621   0.783   8.505  0.8055  0.0224 -1.7345
12151SOL     OW38894   4.264   9.359   7.383 -0.0946 -0.4134  0.4249
12151SOL    HW138895   4.192   9.356   7.319  1.0756  1.1138 -1.0482
12151SOL    HW238896   4.328   9.296   7.350  0.9470  1.0747 -0.5579
12152SOL     OW38897   9.674   5.251   7.264  0.5435 -0.0272  0.4162
12152SOL    HW138898   9.674   5.245   7.168 -0.9648 -1.9485  0.4709
12152SOL    HW238899   9.727   5.328   7.283  1.4830  0.0003 -1.9367
12153SOL     OW38900   9.216   5.644   0.351 -0.1180 -0.1445  0.1244
12153SOL    HW138901   9.167   5.645   0.269  0.7038 -1.3245 -0.4071
12153SOL    HW238902   9.305   5.620   0.326  1.1026  2.9694  0.8935
12154SOL     OW38903   2.442   3.595   6.858 -0.6420 -0.0876  0.7716
12154SOL    HW138904   2.433   3.502   6.837 -0.4151  0.1460 -0.4463
12154SOL    HW238905   2.536   3.612   6.849 -0.9788  0.8826 -2.0411
12155SOL     OW38906   6.107   0.330   9.934 -0.2476  0.1957 -0.0844
12155SOL    HW138907   6.148   0.358   9.852  0.2852 -0.2812  0.0103
12155SOL    HW238908   6.127   0.237   9.940 -0.9667  0.0565  0.1977
12156SOL     OW38909   0.545   4.109   2.524 -0.2587 -0.8456  0.4762
12156SOL    HW138910   0.544   4.176   2.455  1.3303 -0.7938  0.4660
12156SOL    HW238911   0.491   4.038   2.489  0.8610 -1.0068 -1.0602
12157SOL     OW38912   3.473   7.321   6.679  0.1974  0.0357  0.0196
12157SOL    HW138913   3.482   7.412   6.705 -0.2238  0.9748 -2.8174
12157SOL    HW238914   3.563   7.290   6.669  0.3753  0.9404 -1.4223
12158SOL     OW38915   1.178   2.818   3.323  0.0000 -0.6726  0.0410
12158SOL    HW138916   1.252   2.846   3.268 -0.9620  3.1145  0.4405
12158SOL    HW238917   1.105   2.811   3.262 -0.1973 -0.3613  0.2405
12159SOL     OW38918   0.163   8.519   7.148  0.3950 -0.4759 -0.4527
12159SOL    HW138919   0.228   8.570   7.099  1.8664 -0.3219  1.5166
12159SOL    HW238920   0.087   8.576   7.154  1.4074  0.8377  0.2780
12160SOL     OW38921   3.932   2.420   3.951  0.3740 -0.1480 -0.1763
12160SOL    HW138922   3.919   2.415   4.046  2.1011 -0.0401  0.1056
12160SOL    HW238923   4.027   2.431   3.941  0.5254 -2.4836 -1.9987
12161SOL     OW38924   2.931   3.603   5.795 -0.6287 -0.3496  0.4488
12161SOL    HW138925   2.874   3.575   5.724  0.9950 -2.1740 -0.2265
12161SOL    HW238926   2.991   3.530   5.808  1.9715  1.6800  0.7069
12162SOL     OW38927   5.187   8.662   2.755  0.3055 -0.0806  0.1217
12162SOL    HW138928   5.205   8.646   2.662 -1.6799 -2.0361 -0.0271
12162SOL    HW238929   5.265   8.707   2.788  1.8554 -1.0000 -2.0692
12163SOL     OW38930   4.386   2.721   8.934 -0.2100  0.3882  0.3978
12163SOL    HW138931   4.384   2.677   8.849 -0.6987 -0.3176  0.7548
12163SOL    HW238932   4.295   2.717   8.965 -0.2268  1.5322  0.5133
12164SOL     OW38933   4.614   4.582   8.699 -0.2473  0.5254 -0.2619
12164SOL    HW138934   4.531   4.630   8.689  0.4792  1.8915 -0.0830
12164SOL    HW238935   4.648   4.613   8.783 -0.1842 -1.0630  0.3275
12165SOL     OW38936   0.091   0.986   3.993 -0.4827 -0.2366 -0.3093
12165SOL    HW138937   0.006   1.028   3.980 -0.2182 -0.0348 -1.5366
12165SOL    HW238938   0.141   1.049   4.045 -1.8801 -1.4510  2.7405
12166SOL     OW38939   4.031   0.708   8.724 -0.0356 -0.1160  0.0315
12166SOL    HW138940   4.100   0.737   8.665 -0.2266 -1.2412 -0.7727
12166SOL    HW238941   3.978   0.787   8.739 -0.2832  0.0920 -1.7279
12167SOL     OW38942   8.804   0.218   7.953  0.5556 -0.3627 -0.2926
12167SOL    HW138943   8.809   0.261   8.038  0.5163 -1.4205  0.2613
12167SOL    HW238944   8.896   0.201   7.929  0.6139  0.7573 -0.9037
12168SOL     OW38945   1.790   4.666   6.607  0.1738  0.0075  0.2057
12168SOL    HW138946   1.882   4.657   6.584  0.1118  1.8816 -0.9738
12168SOL    HW238947   1.779   4.758   6.630 -1.2670 -0.3260  0.9756
12169SOL     OW38948   8.440   7.057   5.492 -0.1119 -0.1076  0.3584
12169SOL    HW138949   8.491   6.976   5.494 -0.1369 -0.1187  0.6305
12169SOL    HW238950   8.382   7.048   5.417 -0.6156 -0.6462  0.8074
12170SOL     OW38951   5.117   3.902   2.729  0.0007  0.2425  0.2340
12170SOL    HW138952   5.152   3.980   2.772  0.9195 -0.7228  1.3091
12170SOL    HW238953   5.084   3.847   2.801  0.2374 -0.7708 -0.4083
12171SOL     OW38954   8.434   6.276   7.070  0.1076  0.1833 -0.8661
12171SOL    HW138955   8.524   6.259   7.098 -0.7984 -0.9265  1.6699
12171SOL    HW238956   8.436   6.367   7.038  1.6090  1.2027  1.7604
12172SOL     OW38957   6.752   2.901   0.794 -0.1377 -0.2444 -0.4043
12172SOL    HW138958   6.823   2.963   0.777 -1.3506  1.7893  1.3671
12172SOL    HW238959   6.697   2.945   0.858 -0.0719 -3.9805  2.5430
12173SOL     OW38960   0.425   2.018   7.429  0.2020  0.4862  0.7319
12173SOL    HW138961   0.457   1.958   7.496  0.2755  0.0972  0.3605
12173SOL    HW238962   0.504   2.049   7.384  0.0993 -0.1598  0.0780
12174SOL     OW38963   3.902   0.050   0.356  0.5377 -0.6023 -0.1463
12174SOL    HW138964   3.858   0.099   0.287 -0.0201  0.5666  1.0064
12174SOL    HW238965   3.909  -0.039   0.322 -0.7403 -0.3022 -1.2474
12175SOL     OW38966   0.554   9.669   0.047 -0.5216  0.1942 -0.7989
12175SOL    HW138967   0.494   9.734   0.084 -1.4845 -1.5841  0.9882
12175SOL    HW238968   0.505   9.587   0.052  1.4767 -1.0589 -0.8327
12176SOL     OW38969   5.936   1.737   7.990  0.2141 -0.3207 -0.2825
12176SOL    HW138970   5.867   1.693   8.039  0.0179  1.5721  1.2771
12176SOL    HW238971   6.006   1.672   7.984 -0.9802 -1.6587 -0.2729
12177SOL     OW38972   0.007   5.068   6.086  0.6932  0.0388  0.3325
12177SOL    HW138973   0.035   5.157   6.065  0.1572 -0.4443 -2.9897
12177SOL    HW238974  -0.089   5.072   6.085  0.6078 -0.1662  2.5542
12178SOL     OW38975   9.297  10.039   3.553  0.0751  0.0581 -0.0160
12178SOL    HW138976   9.229   9.984   3.514  1.2758 -0.4405 -1.4936
12178SOL    HW238977   9.252  10.086   3.623 -1.8465 -0.0979 -1.0737
12179SOL     OW38978   7.773   9.478   1.932 -0.4511  0.6525  0.4498
12179SOL    HW138979   7.784   9.525   2.015 -0.2714  0.2394  0.6621
12179SOL    HW238980   7.861   9.448   1.910 -0.6185  0.0910  0.5135
12180SOL     OW38981   3.630   0.437   5.947 -0.2494 -0.2097  0.4419
12180SOL    HW138982   3.581   0.367   5.904  1.2371 -0.1532 -1.4937
12180SOL    HW238983   3.682   0.392   6.014 -0.5182 -0.7091  0.3238
12181SOL     OW38984   0.928   0.490   0.341 -0.4360 -0.4570 -0.4130
12181SOL    HW138985   0.893   0.402   0.327  3.0271 -2.6181  2.8787
12181SOL    HW238986   0.974   0.510   0.259  0.7780 -2.8498 -0.4028
12182SOL     OW38987   5.151   6.118   3.245  0.1236  0.3261  0.1336
12182SOL    HW138988   5.196   6.201   3.259  0.9043 -0.0020 -0.3482
12182SOL    HW238989   5.186   6.060   3.312 -0.8753  0.5366  0.8681
12183SOL     OW38990   3.845   5.874   2.070  0.0608  0.3608  0.2869
12183SOL    HW138991   3.887   5.836   2.147  0.6429 -1.1689 -0.7542
12183SOL    HW238992   3.889   5.959   2.058 -0.1388  0.6887  1.6969
12184SOL     OW38993   9.992   1.219   8.669 -0.2992  0.1470  0.1566
12184SOL    HW138994  10.026   1.253   8.752 -0.2341  0.6200 -0.0618
12184SOL    HW238995   9.995   1.123   8.679  2.9814  0.0428 -0.5600
12185SOL     OW38996   9.888   1.755   9.408 -0.4777  0.2647  0.4055
12185SOL    HW138997   9.912   1.811   9.481  1.7049  0.4634 -0.3802
12185SOL    HW238998   9.850   1.814   9.343 -1.6960  0.2060  1.0454
12186SOL     OW38999   3.986   2.459   2.206 -1.0725  0.3241  0.2194
12186SOL    HW139000   3.937   2.396   2.258 -1.9088  0.2282 -0.6598
12186SOL    HW239001   3.973   2.542   2.251 -1.2166  0.1271  0.5424
12187SOL     OW39002   8.022   3.414   6.902  0.2132 -0.3586 -0.3722
12187SOL    HW139003   8.087   3.344   6.900 -0.4265 -0.9770  0.3171
12187SOL    HW239004   8.035   3.460   6.819  4.0253  1.8670  1.2076
12188SOL     OW39005   8.112   9.031   7.392 -0.3494  0.2619 -0.0169
12188SOL    HW139006   8.194   9.079   7.394  0.3787 -0.9099 -0.5537
12188SOL    HW239007   8.080   9.041   7.302  0.3976 -1.1680 -0.4689
12189SOL     OW39008   3.390   8.325   2.186  0.1939 -0.3673  0.1854
12189SOL    HW139009   3.331   8.393   2.217 -0.0737 -0.9042  0.8834
12189SOL    HW239010   3.475   8.348   2.224  0.2858  0.0012 -0.2266
12190SOL     OW39011  10.453   8.874   8.833 -0.7745 -0.3393  0.4341
12190SOL    HW139012  10.379   8.834   8.880 -0.6870 -0.0444  0.8233
12190SOL    HW239013  10.429   8.966   8.824 -0.2655 -0.1522  0.9409
12191SOL     OW39014   8.196   5.754   4.320  0.0480 -0.2928 -0.4116
12191SOL    HW139015   8.203   5.850   4.320  1.7213 -0.3240 -2.8708
12191SOL    HW239016   8.110   5.737   4.280 -0.0584  0.1813 -0.3944
12192SOL     OW39017   5.277   7.394   3.781 -0.1800  0.3285 -0.2956
12192SOL    HW139018   5.371   7.374   3.784 -0.2287  0.0809 -0.4180
12192SOL    HW239019   5.268   7.454   3.707 -0.1681  0.0786 -0.5013
12193SOL     OW39020   7.372   4.164   5.063 -0.0729 -0.3331  0.7353
12193SOL    HW139021   7.433   4.238   5.069  0.2245 -0.5412  0.3425
12193SOL    HW239022   7.421   4.090   5.098 -0.7612 -0.1240  2.1809
12194SOL     OW39023   5.251  10.236   8.316 -0.1323 -0.3940  0.2767
12194SOL    HW139024   5.310  10.311   8.309 -0.8856  0.1646 -0.4009
12194SOL    HW239025   5.247  10.201   8.227 -0.6850 -0.5245  0.3513
12195SOL     OW39026   1.989   9.927   3.018  0.8631  0.3102 -0.0208
12195SOL    HW139027   1.946   9.861   2.965  1.9591 -2.4896  2.3096
12195SOL    HW239028   2.072   9.944   2.973  1.0120 -0.6921 -0.1443
12196SOL     OW39029  10.456   5.351   6.267 -0.2404  0.2930 -0.0567
12196SOL    HW139030  10.499   5.365   6.183 -0.0059  0.7185  0.1312
12196SOL    HW239031  10.382   5.412   6.267 -0.8633 -0.4338 -0.3788
12197SOL     OW39032   8.299   4.196   0.388 -0.0368 -0.0542  0.0808
12197SOL    HW139033   8.346   4.117   0.415 -2.7976 -0.9876  2.7261
12197SOL    HW239034   8.363   4.266   0.399  1.6983 -1.5785  0.2785
12198SOL     OW39035   2.946   9.518   2.147 -0.0375 -0.0513  0.3968
12198SOL    HW139036   2.982   9.477   2.225  2.9681  0.7633 -0.4178
12198SOL    HW239037   2.900   9.595   2.179  2.4701  1.1471  1.3692
12199SOL     OW39038  10.125   7.742   5.660 -0.1361  0.3923  0.0785
12199SOL    HW139039  10.175   7.670   5.621  1.1974  1.0213  0.5722
12199SOL    HW239040  10.179   7.819   5.645 -1.4412  1.2594 -0.2346
12200SOL     OW39041  10.261   6.350   3.946  0.5025 -0.7349  0.6686
12200SOL    HW139042  10.185   6.292   3.946  0.5307 -0.8036 -0.3981
12200SOL    HW239043  10.269   6.380   4.036 -0.4495 -1.1727  0.9108
12201SOL     OW39044   3.270   3.384   7.626  0.4705  0.0221  0.1997
12201SOL    HW139045   3.208   3.455   7.609  0.0715 -0.6391 -1.2343
12201SOL    HW239046   3.242   3.347   7.709  2.0522  2.9239  2.2188
12202SOL     OW39047   0.618   9.148   6.605  0.2662 -0.1773  0.0031
12202SOL    HW139048   0.524   9.133   6.592  0.6296 -3.9441  0.6114
12202SOL    HW239049   0.649   9.180   6.521 -1.7812  3.4884  0.4077
12203SOL     OW39050   2.873   9.439   0.960 -0.1324 -0.0239 -0.0506
12203SOL    HW139051   2.825   9.455   0.879 -0.8646 -1.1150  0.1391
12203SOL    HW239052   2.891   9.345   0.959  0.3774  0.0562  0.7621
12204SOL     OW39053   1.417   5.857   8.414  0.4840 -0.1996 -0.6710
12204SOL    HW139054   1.478   5.808   8.470 -0.3839 -0.2270  0.2839
12204SOL    HW239055   1.347   5.795   8.394  0.5525 -0.0452 -1.4108
12205SOL     OW39056   7.692   2.991   9.257  0.3796  0.1629  0.1814
12205SOL    HW139057   7.675   2.976   9.350  0.0340 -1.3886 -0.1016
12205SOL    HW239058   7.775   2.948   9.240  0.5545  0.6359 -0.1910
12206SOL     OW39059   0.097   3.117   5.677  0.6051  0.0659 -0.1598
12206SOL    HW139060   0.091   3.044   5.740 -0.0256  0.0252 -0.2570
12206SOL    HW239061   0.084   3.195   5.730  1.9076  0.1604  0.0454
12207SOL     OW39062   1.567  10.325   2.007  0.3402  0.5121  0.0523
12207SOL    HW139063   1.580  10.309   1.914 -0.6031 -1.0207  0.1633
12207SOL    HW239064   1.521  10.248   2.039  1.6445  0.4914  2.0305
12208SOL     OW39065   0.142  10.265   5.414 -0.0645  0.5734 -0.3086
12208SOL    HW139066   0.189  10.183   5.397 -1.2332 -0.0208 -0.7183
12208SOL    HW239067   0.052  10.247   5.388 -0.4758  1.7830  0.2374
12209SOL     OW39068   3.193  10.269   3.747  0.2802 -0.1299 -0.0157
12209SOL    HW139069   3.223  10.359   3.735 -0.5701 -0.0003 -1.3794
12209SOL    HW239070   3.257  10.215   3.701 -0.7532  0.0434 -1.7561
12210SOL     OW39071   5.739   1.996   3.472 -0.0205  0.0015  0.1650
12210SOL    HW139072   5.659   2.027   3.515  0.8936  0.2814  1.7101
12210SOL    HW239073   5.796   1.968   3.543  1.7716  1.0174 -0.7962
12211SOL     OW39074   3.454   6.444   1.602 -0.2305  0.2685  0.0709
12211SOL    HW139075   3.464   6.349   1.593  2.5012  0.4855  0.2311
12211SOL    HW239076   3.395   6.455   1.677 -1.3493 -1.2614 -0.5305
12212SOL     OW39077   5.868   1.636   2.855  0.1642 -0.3331 -0.2641
12212SOL    HW139078   5.883   1.545   2.883 -0.0461 -0.6324 -1.0996
12212SOL    HW239079   5.805   1.629   2.784 -0.7230  0.5695  0.4163
12213SOL     OW39080   4.492   2.023   6.047  0.4011  0.5403  0.5558
12213SOL    HW139081   4.538   1.939   6.049 -0.5132  0.0180 -0.0039
12213SOL    HW239082   4.462   2.032   5.956 -0.6600  0.8439  0.9242
12214SOL     OW39083   9.953   5.190   1.861  0.5565  0.7434  0.0733
12214SOL    HW139084  10.013   5.184   1.786  0.2076  1.2583 -0.2564
12214SOL    HW239085   9.996   5.140   1.930  1.1031  0.6404 -0.3305
12215SOL     OW39086   4.024   2.930   6.686 -0.2697 -0.1196  0.7989
12215SOL    HW139087   4.092   2.994   6.665  0.2242 -0.6871  0.6415
12215SOL    HW239088   3.952   2.950   6.626  0.9703 -1.4928 -1.2688
12216SOL     OW39089   3.428   1.046   7.499  0.4308 -0.0270 -0.0725
12216SOL    HW139090   3.495   1.108   7.528  0.1842  1.3350 -2.1849
12216SOL    HW239091   3.414   0.988   7.574  1.2163  2.0145  1.7490
12217SOL     OW39092   2.701   1.426   4.018 -0.2728 -0.2006  0.2246
12217SOL    HW139093   2.720   1.382   3.935  0.5706 -0.1342  0.3750
12217SOL    HW239094   2.607   1.415   4.030 -0.3879 -0.3005 -0.6922
12218SOL     OW39095   5.348   8.186  10.098  0.2152 -0.0751  0.4821
12218SOL    HW139096   5.272   8.137  10.067 -1.2337  0.4287  2.9725
12218SOL    HW239097   5.422   8.125  10.089 -0.2946 -0.4028 -2.4501
12219SOL     OW39098   1.733   7.009   2.997 -0.2060 -0.2538  0.1243
12219SOL    HW139099   1.693   7.087   2.958  1.2802  0.7019  0.4145
12219SOL    HW239100   1.746   6.950   2.923 -0.0799  0.3552 -0.3528
12220SOL     OW39101  10.254   6.912   2.575  0.1125  0.1886 -0.4689
12220SOL    HW139102  10.329   6.947   2.526 -1.2245 -1.7793 -4.2670
12220SOL    HW239103  10.258   6.818   2.560 -2.4647 -0.0844  0.2129
12221SOL     OW39104   3.359   6.482   9.400  0.0991 -0.5813  0.1755
12221SOL    HW139105   3.419   6.536   9.349  0.6110 -0.0077  1.3343
12221SOL    HW239106   3.416   6.431   9.458 -0.1996 -3.8902 -2.1656
12222SOL     OW39107   6.594   5.156   6.526  0.0659 -0.3489  0.6986
12222SOL    HW139108   6.677   5.181   6.484  1.1942  0.7653  3.4055
12222SOL    HW239109   6.619   5.098   6.597 -1.3069  0.9737  2.3522
12223SOL     OW39110   8.966   2.038   2.924  0.4601 -0.1229 -0.3998
12223SOL    HW139111   8.870   2.027   2.925  0.5145 -1.1936  2.0124
12223SOL    HW239112   8.980   2.125   2.886 -1.3538 -0.5113 -2.1251
12224SOL     OW39113   1.029   6.894  10.224 -0.4940 -0.2050 -1.2090
12224SOL    HW139114   1.055   6.972  10.272 -0.0456 -1.3307  0.4684
12224SOL    HW239115   1.108   6.867  10.177 -0.1938 -0.5127 -0.5379
12225SOL     OW39116   5.624   9.000   7.298 -0.3867  0.2097 -0.1566
12225SOL    HW139117   5.574   9.046   7.231  0.2200 -1.9512 -2.2069
12225SOL    HW239118   5.695   9.061   7.321  0.1039  0.5526 -2.3815
12226SOL     OW39119   6.537   9.206   1.514 -0.1721  0.2644  0.1112
12226SOL    HW139120   6.474   9.142   1.481 -2.1209  0.5486  2.8925
12226SOL    HW239121   6.611   9.153   1.545 -0.7618 -0.4645  0.3063
12227SOL     OW39122   5.422   0.767  10.233  0.0399 -0.2524 -0.3351
12227SOL    HW139123   5.456   0.839  10.180  0.7799 -1.1175 -1.0794
12227SOL    HW239124   5.495   0.705  10.239 -0.6988 -1.1180 -0.0522
12228SOL     OW39125   0.534   2.945   1.373  0.2602 -0.3876  0.0240
12228SOL    HW139126   0.620   2.943   1.331  0.5051 -1.2882  0.5370
12228SOL    HW239127   0.483   2.879   1.325  0.2600 -0.7640  0.5267
12229SOL     OW39128   9.492   1.727   7.482 -0.5481  0.0414  0.3129
12229SOL    HW139129   9.466   1.767   7.399  0.9389  1.8614  0.6500
12229SOL    HW239130   9.570   1.676   7.460  0.4652  1.3668  0.7335
12230SOL     OW39131   4.917   7.580   8.810  0.1089  0.4264 -0.1673
12230SOL    HW139132   4.862   7.504   8.792  0.5853  0.1148 -0.3308
12230SOL    HW239133   5.004   7.554   8.781  0.4481  0.7270  0.5412
12231SOL     OW39134   4.342   3.106  10.412  0.0149 -0.5604  0.1561
12231SOL    HW139135   4.269   3.049  10.388  0.7116 -1.0438 -0.8843
12231SOL    HW239136   4.339   3.178  10.350  1.5721 -1.5998 -1.2290
12232SOL     OW39137   9.030   7.487   0.286 -0.1542  0.1317  0.5202
12232SOL    HW139138   9.033   7.582   0.293  1.0732  0.1918 -0.4627
12232SOL    HW239139   9.068   7.468   0.201  3.6596 -1.4323  2.3588
12233SOL     OW39140   7.944   7.804   1.713 -0.2206  0.4421 -0.3797
12233SOL    HW139141   8.030   7.843   1.726 -0.6856  1.4887 -0.2822
12233SOL    HW239142   7.915   7.838   1.628 -0.0823 -0.7903 -0.9359
12234SOL     OW39143   8.213   3.778   6.943  0.1210 -0.2841 -0.5567
12234SOL    HW139144   8.225   3.805   7.035 -0.1861 -0.1242 -0.5634
12234SOL    HW239145   8.122   3.752   6.937  0.3407 -1.0657 -0.6257
12235SOL     OW39146   8.036   4.189   1.988 -0.3423 -0.1930 -0.3680
12235SOL    HW139147   8.114   4.234   1.956  0.2054  0.1801  1.3963
12235SOL    HW239148   8.050   4.097   1.966  0.0082  0.0479 -1.1694
12236SOL     OW39149   5.157   7.443   1.961  0.0972 -0.2760  0.4342
12236SOL    HW139150   5.093   7.389   1.915  0.0631 -0.8109  1.0920
12236SOL    HW239151   5.106   7.489   2.028  0.4282 -0.9466  1.1732
12237SOL     OW39152   6.835   3.936   6.350 -0.7373 -0.9669  0.3565
12237SOL    HW139153   6.859   3.913   6.260 -2.3534  0.4298 -0.5027
12237SOL    HW239154   6.778   3.864   6.378 -0.4944 -1.2480  0.1446
12238SOL     OW39155   5.978   1.266   1.413  0.2051  0.0641 -0.3738
12238SOL    HW139156   6.041   1.212   1.366  1.5051  0.4630  0.8670
12238SOL    HW239157   5.900   1.211   1.420  0.8444 -0.9229 -0.7802
12239SOL     OW39158   5.184   2.206   8.782 -0.6752 -0.1501 -0.2357
12239SOL    HW139159   5.100   2.234   8.744 -0.9403 -0.3192  0.2168
12239SOL    HW239160   5.186   2.248   8.868  0.7129  1.6749 -1.0796
12240SOL     OW39161   6.111   5.501   7.833 -0.2684  0.1410 -0.3386
12240SOL    HW139162   6.057   5.463   7.902 -0.9869 -1.0760 -1.5228
12240SOL    HW239163   6.081   5.591   7.826 -0.5970  0.1100  0.5175
12241SOL     OW39164   7.332   4.382   9.275 -0.5066 -0.1758  0.3463
12241SOL    HW139165   7.276   4.453   9.306 -2.7313 -1.9724  0.7567
12241SOL    HW239166   7.287   4.349   9.197 -0.8283 -2.5348  1.4425
12242SOL     OW39167   2.502   6.431   6.761  0.5405  0.3540 -0.4517
12242SOL    HW139168   2.421   6.404   6.718  0.8226 -1.2740 -0.0166
12242SOL    HW239169   2.540   6.495   6.701 -1.7925  2.3814  0.0601
12243SOL     OW39170   3.634   1.253   9.710 -0.3490 -0.2954 -0.2296
12243SOL    HW139171   3.589   1.337   9.697  0.1735  0.1627  0.8139
12243SOL    HW239172   3.720   1.266   9.669 -0.5499 -0.6008 -0.7581
12244SOL     OW39173   5.072   2.189   3.744 -0.3049  0.2144 -0.2120
12244SOL    HW139174   5.080   2.250   3.817  1.5342  0.7026 -0.7725
12244SOL    HW239175   4.985   2.207   3.708 -0.2758  1.7023  0.3668
12245SOL     OW39176   8.763  10.194   2.781  0.3858  0.2411 -0.4236
12245SOL    HW139177   8.752  10.272   2.836 -0.0890 -0.6767  0.8239
12245SOL    HW239178   8.831  10.143   2.825  0.3927 -0.2599 -0.9993
12246SOL     OW39179   0.760   8.778   0.287 -0.3106  0.2512  0.6371
12246SOL    HW139180   0.674   8.736   0.288 -0.4072  0.4405  1.9710
12246SOL    HW239181   0.759   8.832   0.208 -1.7763  0.9754  1.1108
12247SOL     OW39182   9.886   7.085   1.646 -0.0171  0.1124 -0.3074
12247SOL    HW139183   9.805   7.133   1.626 -1.0121 -0.6627  1.6336
12247SOL    HW239184   9.905   7.107   1.737  0.6779 -1.5100 -0.0242
12248SOL     OW39185   0.772   3.068   7.665  0.3022 -0.0205  0.4752
12248SOL    HW139186   0.827   3.048   7.741  0.0423  1.5360  1.1121
12248SOL    HW239187   0.728   3.150   7.688  0.8743  0.9921 -1.6972
12249SOL     OW39188   5.038   9.778   4.373 -0.3911 -0.3666 -0.2897
12249SOL    HW139189   5.123   9.795   4.333 -0.0435  0.3422  0.7017
12249SOL    HW239190   4.976   9.779   4.300  0.3671 -0.2592 -0.9431
12250SOL     OW39191   3.407   0.215   7.952 -0.6928  0.4504  0.4985
12250SOL    HW139192   3.368   0.206   7.865 -0.4785  1.0833  0.3330
12250SOL    HW239193   3.339   0.185   8.012 -0.2595 -1.6338  0.0399
12251SOL     OW39194   5.274   1.241   6.431 -0.5531 -0.5470  0.3287
12251SOL    HW139195   5.295   1.162   6.482 -0.2150 -0.7214 -0.0727
12251SOL    HW239196   5.348   1.300   6.447 -0.0883 -0.8788 -0.5100
12252SOL     OW39197   8.223   6.020   4.392 -0.1113  0.2072  0.1150
12252SOL    HW139198   8.233   6.107   4.354  0.2808 -0.4578 -1.3853
12252SOL    HW239199   8.295   6.012   4.454 -0.4015  1.0915  0.5874
12253SOL     OW39200   3.874   5.594   9.541 -0.1694 -0.0296 -0.0338
12253SOL    HW139201   3.949   5.651   9.526 -1.0975  1.6887  1.4609
12253SOL    HW239202   3.803   5.634   9.490 -0.7710  0.0270  0.8333
12254SOL     OW39203   9.997   3.040   2.081  0.6082  0.2026 -0.5444
12254SOL    HW139204   9.950   2.993   2.150  1.5064 -0.9901 -0.7237
12254SOL    HW239205   9.992   3.132   2.108 -2.3112  0.2121 -0.8797
12255SOL     OW39206   7.665   2.167   8.254 -0.1447  0.0733  0.3256
12255SOL    HW139207   7.692   2.240   8.309  0.5447 -0.3608  0.5791
12255SOL    HW239208   7.744   2.143   8.205 -0.0836 -1.1422  0.9827
12256SOL     OW39209   8.253   2.603   7.559  0.2203 -0.4664 -0.2955
12256SOL    HW139210   8.277   2.512   7.541  0.3885 -0.4797 -0.0091
12256SOL    HW239211   8.204   2.599   7.641 -1.6362 -0.5681 -1.3466
12257SOL     OW39212   2.997   1.864   2.841  0.3901  0.5832  0.0599
12257SOL    HW139213   3.012   1.777   2.804 -0.8470  0.1910  0.4266
12257SOL    HW239214   2.902   1.868   2.854  0.6593  1.0923  2.2229
12258SOL     OW39215   5.555   0.684   1.517  0.6629 -0.1847 -0.0690
12258SOL    HW139216   5.574   0.684   1.424  0.1934  0.8928 -0.1825
12258SOL    HW239217   5.559   0.592   1.543  3.5944 -0.2696 -0.5551
12259SOL     OW39218   8.806   9.204   2.803 -0.3037 -0.4539 -0.3571
12259SOL    HW139219   8.803   9.219   2.898  0.3423 -1.9105 -0.0668
12259SOL    HW239220   8.851   9.281   2.768 -4.1435  2.1947 -0.0565
12260SOL     OW39221   6.131   8.939   1.000  0.4281  0.2755  0.2983
12260SOL    HW139222   6.175   8.976   1.076  0.3463 -0.3758  0.6756
12260SOL    HW239223   6.116   8.847   1.024  0.2493  0.1074 -0.4363
12261SOL     OW39224   5.669   9.848   5.040 -0.0152 -0.5051 -0.3789
12261SOL    HW139225   5.638   9.784   5.104 -1.1845 -0.5745 -0.9877
12261SOL    HW239226   5.649   9.933   5.080  0.3617 -0.5252 -0.1372
12262SOL     OW39227   7.267   2.350   5.833  0.0111 -0.1009  0.3652
12262SOL    HW139228   7.322   2.285   5.876  0.4925  0.7215  1.0200
12262SOL    HW239229   7.216   2.300   5.769 -0.5420 -1.3263  1.7173
12263SOL     OW39230   7.591   8.696   2.620  0.2123  0.0977  0.7342
12263SOL    HW139231   7.600   8.790   2.611  0.0462  0.1187  0.7834
12263SOL    HW239232   7.681   8.663   2.628  0.3797  0.0760 -0.9499
12264SOL     OW39233   7.504   4.618   4.719  0.7460  0.0545 -0.0551
12264SOL    HW139234   7.510   4.712   4.702 -0.8559  0.1202 -0.4754
12264SOL    HW239235   7.459   4.613   4.803 -0.1513 -0.3241 -0.5468
12265SOL     OW39236   3.546  10.163   5.833  0.0010  0.0119 -0.2407
12265SOL    HW139237   3.528  10.238   5.777  0.3914  0.8610  0.7350
12265SOL    HW239238   3.504  10.185   5.916  1.9897  0.2110  0.7875
12266SOL     OW39239   5.799   9.831  10.105 -0.1590 -0.1174  0.5083
12266SOL    HW139240   5.863   9.771  10.066  1.0190  0.4294  1.5387
12266SOL    HW239241   5.758   9.781  10.176 -1.6845 -0.8203 -0.7938
12267SOL     OW39242   7.879   3.740   8.357 -0.5720 -0.4359 -0.2793
12267SOL    HW139243   7.885   3.714   8.449 -0.9155  1.2909  0.2668
12267SOL    HW239244   7.939   3.681   8.311  2.3071  0.8592  1.5555
12268SOL     OW39245   4.060   7.241   3.895  0.6513  0.1411  0.6430
12268SOL    HW139246   4.002   7.215   3.824  2.3573 -2.0843 -0.0956
12268SOL    HW239247   4.023   7.200   3.973  0.7089 -0.5065  0.3375
12269SOL     OW39248   7.221   5.331   5.092 -0.1138 -0.2244  0.7747
12269SOL    HW139249   7.212   5.382   5.012  0.1734 -0.9544  0.2613
12269SOL    HW239250   7.227   5.396   5.162 -1.4258  0.4070  0.3280
12270SOL     OW39251   9.841   3.775   5.572 -0.1791  0.2932 -0.2994
12270SOL    HW139252   9.823   3.861   5.533 -0.2121  0.4462  0.0480
12270SOL    HW239253   9.862   3.719   5.498  0.0965  0.6693 -0.5086
12271SOL     OW39254   3.528   0.088   1.508  0.1289 -0.0856  0.5330
12271SOL    HW139255   3.598   0.152   1.525 -0.1653  0.1964  0.7199
12271SOL    HW239256   3.491   0.115   1.424 -0.7871  0.7419  1.1778
12272SOL     OW39257   8.212  10.379   8.496  0.2833  0.1539  0.6853
12272SOL    HW139258   8.240  10.441   8.429 -1.4483 -0.7942 -0.9819
12272SOL    HW239259   8.153  10.430   8.552  0.9465  0.6726  0.9401
12273SOL     OW39260   9.436   0.797   1.821 -0.1438  0.5037  0.6525
12273SOL    HW139261   9.441   0.808   1.916  1.9412  0.9896  0.5168
12273SOL    HW239262   9.517   0.752   1.797 -0.5536  0.5431 -0.9252
12274SOL     OW39263   8.247   1.022   1.865 -0.2141 -0.3394  0.4676
12274SOL    HW139264   8.180   0.961   1.836 -0.5435 -0.3765  1.2820
12274SOL    HW239265   8.205   1.108   1.861  1.0485  0.2617 -3.2529
12275SOL     OW39266   2.432  10.222   5.479  0.6743 -0.4263  0.4817
12275SOL    HW139267   2.350  10.174   5.486 -0.1709  1.0605  1.1484
12275SOL    HW239268   2.490  10.180   5.543  0.1890 -0.9610  0.5776
12276SOL     OW39269   6.330   7.409   2.826  0.0635  0.1884  0.5814
12276SOL    HW139270   6.286   7.385   2.908 -0.8637  0.2496  0.1128
12276SOL    HW239271   6.356   7.325   2.787 -0.8847  0.0729  0.1894
12277SOL     OW39272   0.466   6.984   9.915  0.7013  0.2347 -0.1935
12277SOL    HW139273   0.538   7.043   9.893  1.5279 -0.4532  0.5871
12277SOL    HW239274   0.475   6.912   9.853  0.3796  0.3866 -0.4171
12278SOL     OW39275   9.857   0.993   1.058  0.2999  0.0239 -0.2384
12278SOL    HW139276   9.843   0.976   0.965  0.5318 -2.2842  0.0740
12278SOL    HW239277   9.823   1.081   1.072 -0.7107  0.0233 -2.2898
12279SOL     OW39278   5.424  10.378   4.074  0.5990 -0.2093  0.6883
12279SOL    HW139279   5.416  10.413   4.163  0.1576  1.0923  0.1634
12279SOL    HW239280   5.460  10.451   4.023 -0.5538 -0.4457 -0.5016
12280SOL     OW39281   6.031   9.188   0.723  0.3283  0.3036  0.0376
12280SOL    HW139282   6.051   9.191   0.629 -0.6600 -0.1522 -0.1998
12280SOL    HW239283   5.935   9.189   0.727  0.3371  2.8982  1.1415
12281SOL     OW39284   0.616   5.506   6.353  0.4162  0.0947 -0.4007
12281SOL    HW139285   0.582   5.509   6.442 -2.0508 -2.6056 -1.1309
12281SOL    HW239286   0.687   5.442   6.356  2.0178  1.7897  0.0141
12282SOL     OW39287   9.088   3.039   2.098 -0.3856 -0.2139 -0.5597
12282SOL    HW139288   9.011   3.085   2.132 -0.6944 -0.6639 -0.6504
12282SOL    HW239289   9.158   3.105   2.101 -0.8762  0.3316 -0.8923
12283SOL     OW39290   4.308   1.644   4.950  0.5196  0.1034 -0.1246
12283SOL    HW139291   4.289   1.676   4.862 -1.5647  1.3564  0.7210
12283SOL    HW239292   4.287   1.551   4.947  0.7924  0.0583 -1.0217
12284SOL     OW39293   7.726   1.999  10.336 -0.2573  0.0033  0.2303
12284SOL    HW139294   7.635   2.019  10.356 -0.1426  0.7057  0.0745
12284SOL    HW239295   7.742   2.040  10.251  0.5745  1.0644  0.8698
12285SOL     OW39296   8.421   2.679   3.188 -0.7630  0.3900  0.4115
12285SOL    HW139297   8.368   2.622   3.132 -0.1887  0.4942 -0.2464
12285SOL    HW239298   8.385   2.666   3.275  0.1698 -1.9697  0.5098
12286SOL     OW39299   7.845   7.720   0.742 -0.5415  0.4512 -0.2288
12286SOL    HW139300   7.916   7.781   0.764 -0.4767  0.3845 -0.2547
12286SOL    HW239301   7.785   7.727   0.817  0.6124 -1.1872  0.9186
12287SOL     OW39302   2.936   2.693   1.066  0.0192  0.6915 -0.0384
12287SOL    HW139303   2.931   2.715   1.159 -0.1387  1.0033 -0.1208
12287SOL    HW239304   2.935   2.777   1.021  0.5652  0.5631 -0.3036
12288SOL     OW39305   9.930   7.334   3.180 -0.1430 -0.7441  0.0732
12288SOL    HW139306   9.916   7.273   3.252  0.7159 -0.0293  0.8597
12288SOL    HW239307   9.875   7.410   3.201 -0.4977 -0.8521 -0.4325
12289SOL     OW39308   3.912   6.711   9.378 -0.5142  0.0323 -0.0944
12289SOL    HW139309   3.939   6.620   9.375 -0.3058  0.1210 -1.2942
12289SOL    HW239310   3.977   6.754   9.433  1.1492  0.0002 -1.9198
12290SOL     OW39311   5.576   0.646   7.238  0.7940  0.3308 -0.5296
12290SOL    HW139312   5.500   0.591   7.254  1.4187 -0.6970 -0.9415
12290SOL    HW239313   5.540   0.733   7.223 -0.2379  0.0084 -0.0292
12291SOL     OW39314   7.253   7.006   3.549 -0.4397  0.7646 -0.2647
12291SOL    HW139315   7.176   6.984   3.497 -0.2560 -2.0347  0.4865
12291SOL    HW239316   7.219   7.028   3.635 -0.4360 -0.2130 -0.0066
12292SOL     OW39317   6.400   4.265   9.495 -0.3979 -0.2979  0.1300
12292SOL    HW139318   6.371   4.235   9.581 -0.6563 -0.4940 -0.0262
12292SOL    HW239319   6.419   4.185   9.447 -0.9530 -0.2098 -0.2394
12293SOL     OW39320   2.645   2.679   4.969 -0.1085  0.2764  0.3948
12293SOL    HW139321   2.572   2.671   4.908  0.5517  0.6963 -0.4741
12293SOL    HW239322   2.624   2.618   5.040 -1.3475  0.4803  0.2249
12294SOL     OW39323   4.445   4.075   5.389 -0.4084 -0.0107 -0.3444
12294SOL    HW139324   4.534   4.095   5.359 -0.3677  0.5596  0.1280
12294SOL    HW239325   4.390   4.092   5.312 -0.2050  0.5396 -0.3784
12295SOL     OW39326   2.856   0.557   4.351  0.2644 -0.1031  0.1815
12295SOL    HW139327   2.875   0.480   4.404 -0.3449 -0.7717 -0.5546
12295SOL    HW239328   2.906   0.544   4.270  1.8972  1.3328  0.8916
12296SOL     OW39329   5.471   5.353   9.460 -0.0986 -0.1980  0.0429
12296SOL    HW139330   5.448   5.349   9.367 -0.4817  0.1432  0.1189
12296SOL    HW239331   5.557   5.395   9.462 -0.0598 -0.2661 -0.1589
12297SOL     OW39332   4.117   1.515   4.621  0.0233 -0.0395 -0.5540
12297SOL    HW139333   4.176   1.467   4.563 -0.3864  0.1430 -1.1347
12297SOL    HW239334   4.034   1.516   4.574  0.2074  1.8612 -0.8889
12298SOL     OW39335   9.393   4.475   9.086  0.2209 -0.3640  0.0012
12298SOL    HW139336   9.433   4.559   9.110  0.1062 -0.3495  0.1433
12298SOL    HW239337   9.315   4.469   9.142 -0.1047 -0.2829 -0.4404
12299SOL     OW39338   2.080   5.809   3.676 -0.4210  0.1107  0.3215
12299SOL    HW139339   2.104   5.784   3.765 -0.4906  4.6518  1.9180
12299SOL    HW239340   1.985   5.797   3.673 -0.2294 -1.4968  0.2790
12300SOL     OW39341   6.142   7.059   4.247  0.1333 -0.4850 -0.2975
12300SOL    HW139342   6.069   7.008   4.211  0.7823 -1.3202 -0.4856
12300SOL    HW239343   6.123   7.149   4.222  0.0758 -0.9133 -1.9203
12301SOL     OW39344   1.038   5.131  10.408  0.4719  0.3143 -0.8513
12301SOL    HW139345   1.009   5.088  10.328 -0.1058  1.6181 -1.3748
12301SOL    HW239346   1.133   5.120  10.409  0.2766 -1.6385 -0.5370
12302SOL     OW39347   9.632   6.700   8.658  0.1896  0.1223 -0.0885
12302SOL    HW139348   9.556   6.654   8.624  1.4994 -2.8390  0.6581
12302SOL    HW239349   9.668   6.745   8.582 -0.8944 -0.5249 -1.0240
12303SOL     OW39350   5.154   1.479   3.503  0.7707 -0.4829 -0.1335
12303SOL    HW139351   5.096   1.433   3.442  0.4904 -0.9143  0.4458
12303SOL    HW239352   5.236   1.488   3.456  0.6526 -1.0906 -0.4721
12304SOL     OW39353   0.755   4.083  10.171  0.1632  0.3956  0.5916
12304SOL    HW139354   0.737   4.009  10.228 -0.1715 -0.2666 -0.3538
12304SOL    HW239355   0.757   4.046  10.083  1.6910  1.2223  0.2523
12305SOL     OW39356   2.059   7.834   7.048 -0.4923  0.1863 -0.0010
12305SOL    HW139357   1.967   7.859   7.053 -0.3129  0.9872 -0.4452
12305SOL    HW239358   2.095   7.857   7.134 -0.1252  2.4327 -0.6840
12306SOL     OW39359   7.406   3.760   8.990  0.2169  0.0395  0.3001
12306SOL    HW139360   7.367   3.775   8.903  1.2779  2.2001  0.1175
12306SOL    HW239361   7.351   3.809   9.050  1.7283  1.9762  0.2227
12307SOL     OW39362   6.513   3.638   2.846  0.5639 -0.0003 -0.2582
12307SOL    HW139363   6.482   3.636   2.937  0.8458 -0.6149 -0.1661
12307SOL    HW239364   6.575   3.711   2.843  0.2047  0.3182 -0.0806
12308SOL     OW39365   6.517   4.836   9.234 -0.2368 -0.0847  0.4255
12308SOL    HW139366   6.534   4.771   9.302  0.5408 -0.4076 -0.0706
12308SOL    HW239367   6.483   4.785   9.160  0.2806  0.0828  0.0704
12309SOL     OW39368   5.930  10.042   8.078  0.6516 -0.4584 -0.2827
12309SOL    HW139369   5.900  10.117   8.026  0.0743  0.8170  1.7588
12309SOL    HW239370   5.862   9.976   8.066  0.5559 -0.2157 -1.1568
12310SOL     OW39371   9.272   7.870   8.362  1.2182 -0.0415 -0.0405
12310SOL    HW139372   9.219   7.875   8.282 -0.0863  1.1170  0.8486
12310SOL    HW239373   9.332   7.797   8.346 -1.2325 -2.0711 -0.7630
12311SOL     OW39374   3.656   4.222   0.565 -0.2934 -0.1596  1.1518
12311SOL    HW139375   3.741   4.261   0.540  0.0803 -2.6484 -2.2530
12311SOL    HW239376   3.677   4.130   0.583 -2.0796 -0.4523  1.8801
12312SOL     OW39377   5.018   5.657   6.006  0.2827 -0.2593 -0.0721
12312SOL    HW139378   5.043   5.729   6.063  0.3424 -0.2929 -0.0554
12312SOL    HW239379   4.980   5.592   6.065 -0.2385 -0.0304 -0.1538
12313SOL     OW39380   1.024   1.250   7.508 -0.1605 -0.2338 -0.2830
12313SOL    HW139381   1.020   1.345   7.514 -0.2375 -0.1942 -0.8809
12313SOL    HW239382   0.946   1.225   7.459 -1.0400 -0.7590  1.3078
12314SOL     OW39383   2.100   2.464   1.427 -0.9310  0.3917  0.4830
12314SOL    HW139384   2.127   2.416   1.505  0.2056  0.1413 -0.0459
12314SOL    HW239385   2.127   2.554   1.444  1.0150  0.0081 -0.3567
12315SOL     OW39386   7.937   9.327   0.641  0.1297 -0.1714  0.7756
12315SOL    HW139387   7.866   9.263   0.648  0.0407 -0.0238  1.2573
12315SOL    HW239388   8.009   9.279   0.600  0.5221 -0.9800  2.3332
12316SOL     OW39389   6.133   5.574   3.786  0.0240 -0.3690 -0.0934
12316SOL    HW139390   6.049   5.608   3.755  0.1935  0.6304  0.4725
12316SOL    HW239391   6.145   5.492   3.738 -1.0256 -0.2735 -0.5621
12317SOL     OW39392   5.955   5.602   7.331  0.1012 -0.3758  0.3385
12317SOL    HW139393   6.035   5.553   7.310 -0.5470 -1.4450  0.2995
12317SOL    HW239394   5.886   5.557   7.283 -0.1088  2.5778 -2.5355
12318SOL     OW39395   0.672   7.838   2.130 -0.1531 -0.6812 -0.2776
12318SOL    HW139396   0.720   7.797   2.202  0.5856  0.3409 -0.1698
12318SOL    HW239397   0.699   7.789   2.052  0.2138 -0.8112 -0.0701
12319SOL     OW39398   1.223  10.148   6.708 -0.6780  0.2865 -0.0361
12319SOL    HW139399   1.314  10.171   6.689 -0.1265 -1.7023 -0.0028
12319SOL    HW239400   1.173  10.188   6.637  0.0682  2.1992  0.4453
12320SOL     OW39401   6.430  10.046   2.870 -0.3203 -0.0223  0.0800
12320SOL    HW139402   6.404  10.024   2.960 -0.1381 -1.6436 -0.2338
12320SOL    HW239403   6.516  10.086   2.879 -0.4102  0.0498  0.6590
12321SOL     OW39404   3.802   5.973   0.046  0.1853 -0.4224  0.6510
12321SOL    HW139405   3.847   5.923   0.113  0.2654  1.0283  1.7254
12321SOL    HW239406   3.819   6.065   0.068 -2.1689  0.1678  0.3564
12322SOL     OW39407   6.601   6.904   9.903  0.2053  0.1865 -0.2668
12322SOL    HW139408   6.560   6.819   9.918  0.5639 -0.0014 -0.3409
12322SOL    HW239409   6.684   6.900   9.950  0.1690  0.5437 -0.1652
12323SOL     OW39410   7.511   7.863   3.886 -0.0911  0.1628  0.0619
12323SOL    HW139411   7.420   7.831   3.886  0.4450 -1.4504  0.5638
12323SOL    HW239412   7.538   7.859   3.978  0.5009  0.6465 -0.0828
12324SOL     OW39413   7.377   0.444   4.905 -0.1223 -0.0116 -0.4814
12324SOL    HW139414   7.455   0.420   4.855 -0.1565  0.7457 -0.9097
12324SOL    HW239415   7.368   0.538   4.893 -0.1708  0.1917  0.8935
12325SOL     OW39416   8.367   5.120   5.355 -0.0074 -0.1331  0.3950
12325SOL    HW139417   8.454   5.094   5.325 -0.7071 -0.2293 -1.6845
12325SOL    HW239418   8.312   5.114   5.277 -1.4272  2.0286  1.1518
12326SOL     OW39419   5.056   4.939   4.897  0.6033 -0.3836 -0.1214
12326SOL    HW139420   5.138   4.967   4.938  0.4494 -0.2908  0.1236
12326SOL    HW239421   4.993   4.934   4.969  0.1815  0.3476 -0.4234
12327SOL     OW39422   3.146   4.209   9.752  0.4670 -0.0895 -0.1701
12327SOL    HW139423   3.233   4.168   9.753  0.2133 -0.6521 -0.7222
12327SOL    HW239424   3.164   4.302   9.736  0.9849 -0.1393  0.0773
12328SOL     OW39425   3.378   1.974   2.848  0.5905 -0.1484  0.1975
12328SOL    HW139426   3.323   1.977   2.926  2.6077  0.3518  1.7174
12328SOL    HW239427   3.366   2.059   2.806  0.4570  0.0953  0.7202
12329SOL     OW39428   9.361   0.256   4.320 -0.1604  0.3742 -1.0326
12329SOL    HW139429   9.283   0.210   4.350  0.8261 -0.9263 -0.3507
12329SOL    HW239430   9.368   0.332   4.379 -0.0679 -0.3473 -0.0958
12330SOL     OW39431   0.336  10.387   2.492  0.5161 -0.6232  0.0557
12330SOL    HW139432   0.300  10.454   2.434 -0.9931  1.7438  3.4037
12330SOL    HW239433   0.338  10.308   2.438 -5.3815  0.1147 -1.9970
12331SOL     OW39434   8.075   1.284   8.155  0.8734 -0.0466 -0.0201
12331SOL    HW139435   8.099   1.198   8.190 -2.4203 -1.9202 -1.8675
12331SOL    HW239436   8.127   1.291   8.075 -0.4234 -1.4663 -1.0531
12332SOL     OW39437   7.870   1.152   8.295  0.3016 -0.2324  0.2554
12332SOL    HW139438   7.942   1.208   8.265  1.1984 -1.3740  0.1945
12332SOL    HW239439   7.797   1.175   8.238  0.4547  1.2867  0.6252
12333SOL     OW39440   3.261   9.660   5.939  0.0710  0.9127 -0.2556
12333SOL    HW139441   3.283   9.732   5.880 -0.3266  1.3808  0.1543
12333SOL    HW239442   3.202   9.699   6.003 -0.7383  0.0492 -0.4524
12334SOL     OW39443   5.245   1.941   3.678  0.6548  0.1914  0.6774
12334SOL    HW139444   5.214   2.019   3.724  0.0302 -1.0301  2.4695
12334SOL    HW239445   5.187   1.934   3.602 -1.0366  0.1021  1.8898
12335SOL     OW39446   0.147   8.803   1.592 -0.3128 -0.2694  0.1098
12335SOL    HW139447   0.225   8.776   1.639 -0.1964  0.1222  0.1459
12335SOL    HW239448   0.122   8.887   1.633 -0.4790 -0.1603 -0.2131
12336SOL     OW39449   2.770   1.309   3.086  0.4909 -0.7197  0.9165
12336SOL    HW139450   2.852   1.273   3.052 -0.0390 -0.8710 -0.2496
12336SOL    HW239451   2.702   1.265   3.035 -0.2002  2.3866 -1.0951
12337SOL     OW39452   8.517   4.906   6.201  0.2724  0.0004  0.2146
12337SOL    HW139453   8.425   4.904   6.173  0.6503  0.6760 -1.1441
12337SOL    HW239454   8.544   4.814   6.198  0.1928 -0.0043 -1.3682
12338SOL     OW39455   9.770   5.156  10.236  0.3303 -0.3095 -0.2181
12338SOL    HW139456   9.836   5.102  10.192  1.0726  0.4596 -0.0752
12338SOL    HW239457   9.704   5.172  10.168  0.2542 -1.1302 -0.3472
12339SOL     OW39458   6.775   0.183   5.904  0.0378  0.1936  0.4240
12339SOL    HW139459   6.751   0.276   5.901  0.9812  0.4305 -0.3969
12339SOL    HW239460   6.839   0.178   5.975  1.1910  0.4879 -0.5719
12340SOL     OW39461   2.413   6.877   4.419  0.0742 -0.1269  0.5916
12340SOL    HW139462   2.443   6.789   4.444 -0.4379 -0.1743  1.0683
12340SOL    HW239463   2.490   6.920   4.384  0.4196 -0.6412  0.7111
12341SOL     OW39464   7.930   9.678   0.114 -0.9653  0.3259 -0.1844
12341SOL    HW139465   7.885   9.758   0.141  2.8411  2.4224  0.6509
12341SOL    HW239466   7.950   9.633   0.196  1.3772  1.2709 -0.1616
12342SOL     OW39467   2.350   5.638   4.765  0.6829  0.0560 -0.2681
12342SOL    HW139468   2.402   5.640   4.845  0.8040 -0.2189 -0.3387
12342SOL    HW239469   2.404   5.588   4.703  0.9401  0.9285 -0.7634
12343SOL     OW39470   9.932   6.337   3.225 -0.4601  0.1633  0.2349
12343SOL    HW139471   9.938   6.332   3.129  0.6294 -1.2690  0.3327
12343SOL    HW239472   9.855   6.391   3.242 -2.2831 -1.7220 -1.4621
12344SOL     OW39473   9.567   5.142   3.024 -0.0018  0.2774 -0.0288
12344SOL    HW139474   9.552   5.048   3.016 -2.1663  0.5131  0.4828
12344SOL    HW239475   9.662   5.151   3.030  0.3862 -1.7042 -1.9370
12345SOL     OW39476   3.569   1.455   1.015  0.5815 -0.1789 -0.4270
12345SOL    HW139477   3.590   1.542   0.982 -4.1948  0.8108 -1.5916
12345SOL    HW239478   3.587   1.459   1.109  2.2659  1.3290 -0.7665
12346SOL     OW39479   7.200   8.295   3.652 -0.2374 -0.0847 -0.6705
12346SOL    HW139480   7.111   8.302   3.619 -0.0626 -0.5932 -1.2680
12346SOL    HW239481   7.248   8.248   3.584 -0.2287 -2.6388  0.9452
12347SOL     OW39482   0.089   7.979   4.451 -0.4698 -0.1013  0.0077
12347SOL    HW139483   0.083   7.911   4.518  1.2218 -0.6120 -0.3227
12347SOL    HW239484   0.027   8.046   4.480 -2.4760 -1.9033  0.1535
12348SOL     OW39485   5.548   6.285   4.886  0.7768  0.1316  0.3367
12348SOL    HW139486   5.471   6.232   4.865  2.0713 -2.2416  1.2615
12348SOL    HW239487   5.613   6.259   4.822  1.3889  0.7391  0.7031
12349SOL     OW39488   4.317   3.948   3.138 -0.1876  0.3345 -0.1756
12349SOL    HW139489   4.351   3.971   3.052  1.6294 -0.6771  0.2166
12349SOL    HW239490   4.393   3.949   3.195 -1.1544 -0.1793  1.1764
12350SOL     OW39491   0.079   6.300   5.308  0.6381 -0.5772  0.1350
12350SOL    HW139492   0.126   6.371   5.350  1.9223 -0.0544 -2.0751
12350SOL    HW239493   0.147   6.238   5.280  0.0188 -0.2871 -2.2406
12351SOL     OW39494   1.103   5.721   8.834  0.1376 -0.3008 -0.0297
12351SOL    HW139495   1.194   5.718   8.863  0.7625  1.1369 -1.6660
12351SOL    HW239496   1.054   5.753   8.910  1.0058 -0.9221  0.8108
12352SOL     OW39497   4.234   8.501   0.301  0.1207 -0.0522  1.1258
12352SOL    HW139498   4.269   8.473   0.216 -1.2035  2.8727 -0.5090
12352SOL    HW239499   4.306   8.483   0.363  2.0518 -0.0711 -0.9905
12353SOL     OW39500   4.911   3.463   8.376  0.4706  0.3236  0.3980
12353SOL    HW139501   4.941   3.373   8.389  0.5738  0.3874  0.6057
12353SOL    HW239502   4.823   3.463   8.413  0.5141  0.3370  0.5010
12354SOL     OW39503   2.018   5.205   2.934  0.3128  0.2326 -0.0964
12354SOL    HW139504   2.010   5.188   3.028 -0.5149 -0.5179 -0.2909
12354SOL    HW239505   1.929   5.192   2.900  0.2231  2.1719 -0.7322
12355SOL     OW39506   6.168   3.281   6.211 -0.0156 -0.4452  0.2724
12355SOL    HW139507   6.262   3.295   6.208 -0.1833  0.6803 -0.2765
12355SOL    HW239508   6.158   3.191   6.242  1.2576 -1.0565 -0.9876
12356SOL     OW39509   5.793   7.373   9.091  0.7349 -0.2959  0.4192
12356SOL    HW139510   5.824   7.285   9.068 -0.9989 -0.9935  0.5334
12356SOL    HW239511   5.796   7.374   9.187  1.0083 -0.1306  0.4082
12357SOL     OW39512   6.886   0.679   7.442  0.1862  0.1324 -0.1427
12357SOL    HW139513   6.953   0.664   7.375  3.0748  1.5445  2.1583
12357SOL    HW239514   6.871   0.592   7.480 -0.5640 -0.4691 -1.7536
12358SOL     OW39515   8.800   8.862   3.348  0.1043  0.9369  0.1644
12358SOL    HW139516   8.753   8.942   3.324 -1.3184 -0.4113 -1.9583
12358SOL    HW239517   8.742   8.817   3.409  0.3500  0.9733  0.4253
12359SOL     OW39518   9.748   7.092   4.404  0.2470 -0.2830 -0.3530
12359SOL    HW139519   9.660   7.084   4.367 -0.2108  2.6872 -0.1739
12359SOL    HW239520   9.806   7.090   4.328 -0.2533  0.7266 -0.7744
12360SOL     OW39521   6.988   6.912   4.294  0.4418  1.2377 -0.2249
12360SOL    HW139522   6.990   6.830   4.245  2.1059  2.1460 -1.7788
12360SOL    HW239523   6.930   6.894   4.368  0.1783 -1.0960 -0.9206
12361SOL     OW39524   9.282   8.744  10.101  0.5378  0.1802 -0.1743
12361SOL    HW139525   9.353   8.697  10.057  0.9521 -0.3435  1.0247
12361SOL    HW239526   9.302   8.737  10.194 -1.9308 -1.4126  0.3305
12362SOL     OW39527   5.847   5.397   4.772 -0.2641 -0.4238 -0.3690
12362SOL    HW139528   5.905   5.451   4.720 -0.0349 -0.0034  0.3145
12362SOL    HW239529   5.868   5.307   4.747  3.1554 -0.5473  2.2786
12363SOL     OW39530   8.421   3.511   6.701  0.0510  0.1772 -0.2361
12363SOL    HW139531   8.346   3.562   6.674  0.0514 -0.2046 -0.9724
12363SOL    HW239532   8.491   3.575   6.712 -0.4763  0.5897  0.8609
12364SOL     OW39533   0.538   0.403   7.842  0.0032  0.3087  0.3312
12364SOL    HW139534   0.628   0.407   7.808 -0.3115  1.2680 -0.4454
12364SOL    HW239535   0.536   0.469   7.911  0.0318 -0.0827  0.7098
12365SOL     OW39536   7.990   0.753   7.808  0.0360  0.3646  0.3603
12365SOL    HW139537   8.047   0.730   7.881  0.5224  0.6109  0.0659
12365SOL    HW239538   7.909   0.705   7.824 -0.9510  2.5655  2.5501
12366SOL     OW39539   4.334   8.551   9.744 -0.3630  0.2240 -1.2762
12366SOL    HW139540   4.395   8.605   9.693  0.1685  0.6624 -0.2171
12366SOL    HW239541   4.286   8.614   9.797  0.4460 -0.3306  0.1644
12367SOL     OW39542   1.692   4.659   3.863 -0.0632  0.0917  0.2333
12367SOL    HW139543   1.783   4.631   3.859 -0.1551 -0.2607  0.5954
12367SOL    HW239544   1.641   4.579   3.854 -0.3727  0.4358 -1.4686
12368SOL     OW39545   4.481   6.546   4.562 -0.0527  0.0888  0.4640
12368SOL    HW139546   4.421   6.586   4.625 -1.1792 -1.5001  0.4681
12368SOL    HW239547   4.485   6.454   4.589 -2.5530 -1.3022 -3.1187
12369SOL     OW39548   8.176   3.065   9.828 -0.0305 -0.6562 -0.1053
12369SOL    HW139549   8.181   3.030   9.739 -0.8710  1.2291 -0.9529
12369SOL    HW239550   8.210   3.154   9.821  1.3276 -0.9872  1.8050
12370SOL     OW39551   6.821   2.600   9.878 -0.1465  0.2454 -0.1192
12370SOL    HW139552   6.893   2.626   9.934  0.4866 -0.9586 -0.3468
12370SOL    HW239553   6.825   2.661   9.804  0.4947  0.3258 -0.0237
12371SOL     OW39554   2.787   1.496   7.721  0.2865  0.2073  0.2845
12371SOL    HW139555   2.812   1.556   7.792  1.1231 -1.0047  1.0591
12371SOL    HW239556   2.726   1.434   7.763 -0.5195  0.4571 -0.4860
12372SOL     OW39557   6.160   1.229   7.627 -0.6048  0.0209 -0.2265
12372SOL    HW139558   6.228   1.166   7.649 -1.2156 -0.2703  0.8953
12372SOL    HW239559   6.132   1.266   7.711 -1.5662  0.4118 -0.6981
12373SOL     OW39560   4.715   7.007   1.144 -0.3105  0.0086 -0.3194
12373SOL    HW139561   4.702   6.931   1.201  0.8702  0.7378  0.9831
12373SOL    HW239562   4.708   7.083   1.202 -1.6315  0.9498 -1.6195
12374SOL     OW39563  10.464   8.114   3.233 -0.2813  0.1315 -0.2922
12374SOL    HW139564  10.381   8.077   3.263 -1.9376  0.8570 -3.5726
12374SOL    HW239565  10.529   8.047   3.256 -2.4351 -2.6160 -1.6060
12375SOL     OW39566   0.626   0.303   9.173  0.3106  0.9207  0.1803
12375SOL    HW139567   0.534   0.330   9.173  0.0894  0.2586 -1.2190
12375SOL    HW239568   0.666   0.355   9.243 -0.9969  1.6518  0.4242
12376SOL     OW39569   6.632   7.718   6.825  0.8801  0.1759  0.0008
12376SOL    HW139570   6.669   7.629   6.823  0.4102 -0.0996  1.7286
12376SOL    HW239571   6.708   7.775   6.826  1.1916 -0.1444 -1.8313
12377SOL     OW39572   9.191   2.607   0.208 -0.0014  0.2959  0.2767
12377SOL    HW139573   9.274   2.559   0.217 -0.5098 -1.2480 -2.1183
12377SOL    HW239574   9.129   2.557   0.261  0.0425 -0.1937 -0.1186
12378SOL     OW39575   6.064   7.510   7.392 -0.2467 -0.0023  0.3209
12378SOL    HW139576   6.065   7.604   7.409 -2.6638  0.2756 -0.6703
12378SOL    HW239577   6.149   7.492   7.351  0.0423  1.8358  0.0460
12379SOL     OW39578   0.642   9.187   7.718 -0.2361  0.3551 -0.0673
12379SOL    HW139579   0.623   9.261   7.775 -0.0787 -0.2625  0.7923
12379SOL    HW239580   0.692   9.225   7.645 -0.0461  1.0667  0.4251
12380SOL     OW39581   2.922   1.544  10.343  0.5334 -0.3717  0.1287
12380SOL    HW139582   2.879   1.620  10.380 -1.2383 -0.8790 -0.7820
12380SOL    HW239583   3.002   1.534  10.394  1.0654  2.3682 -0.0581
12381SOL     OW39584   9.979   2.256   9.187 -0.4994 -0.0327 -0.0085
12381SOL    HW139585  10.050   2.294   9.136 -1.5067  0.7952 -0.8219
12381SOL    HW239586   9.900   2.275   9.137 -1.2739 -1.2763  0.6801
12382SOL     OW39587   0.245   5.189   6.974  0.3852  0.2209  0.2132
12382SOL    HW139588   0.229   5.259   6.911  1.3068 -1.2928 -1.8076
12382SOL    HW239589   0.161   5.179   7.020 -0.8108  0.4352 -1.7780
12383SOL     OW39590   1.856   4.042   1.079  0.1830 -0.3195  0.4589
12383SOL    HW139591   1.804   3.962   1.087 -0.4076  0.1298  1.2679
12383SOL    HW239592   1.944   4.016   1.109  0.0789 -0.7361  0.4135
12384SOL     OW39593   8.494   4.947   1.285  0.0638  0.0342  0.4160
12384SOL    HW139594   8.405   4.953   1.320  0.3736  1.9120  1.0106
12384SOL    HW239595   8.540   4.890   1.347 -0.7286 -1.0202  0.0546
12385SOL     OW39596   4.899   2.032   6.646 -0.1903  0.4477 -0.1669
12385SOL    HW139597   4.832   1.981   6.599 -0.0573  0.3760 -0.2816
12385SOL    HW239598   4.967   2.046   6.581  1.4880 -2.3610  0.7838
12386SOL     OW39599   7.244   9.109   1.538 -0.2680 -0.7302  0.3405
12386SOL    HW139600   7.257   9.114   1.443 -0.9102  0.4322  0.2891
12386SOL    HW239601   7.324   9.069   1.571  0.2134 -0.6166 -0.6422
12387SOL     OW39602   8.979   7.537   8.448 -0.3598 -0.1520  0.2113
12387SOL    HW139603   8.910   7.471   8.453 -1.2727  0.7086 -0.6692
12387SOL    HW239604   9.047   7.496   8.395 -0.6925 -0.5785  0.1112
12388SOL     OW39605   6.065   4.551   4.599  0.7475  0.4590  0.0280
12388SOL    HW139606   5.989   4.580   4.548  0.4784 -1.5152 -0.8080
12388SOL    HW239607   6.140   4.592   4.556  0.2790  1.1455 -0.1438
12389SOL     OW39608  10.275   7.433   6.849  0.7558 -0.4666  0.0121
12389SOL    HW139609  10.279   7.363   6.785  0.7917  0.7072 -1.3287
12389SOL    HW239610  10.205   7.408   6.909  1.2846 -1.9869  0.0153
12390SOL     OW39611   5.151   9.553   8.266 -0.2497 -0.2892 -0.0441
12390SOL    HW139612   5.170   9.639   8.230  0.5878 -0.1681  0.6624
12390SOL    HW239613   5.140   9.569   8.360  0.1708 -0.9878  0.1276
12391SOL     OW39614   0.783   9.329   7.524  0.0760  0.4133  0.3750
12391SOL    HW139615   0.832   9.404   7.491  0.7502 -0.6098 -1.0294
12391SOL    HW239616   0.712   9.317   7.462  2.1597 -2.3870 -1.7440
12392SOL     OW39617   1.238   9.947   7.821  0.3777 -0.2381 -0.4583
12392SOL    HW139618   1.324   9.910   7.800  1.9359  2.5071  0.5157
12392SOL    HW239619   1.238   9.955   7.917 -1.8606 -1.9683 -0.2163
12393SOL     OW39620   5.395   5.471   2.895  0.2015  0.4470 -0.3659
12393SOL    HW139621   5.395   5.407   2.825  2.1597  0.8119 -0.7556
12393SOL    HW239622   5.336   5.434   2.961  0.2986 -1.1216 -1.1083
12394SOL     OW39623   6.662   7.011   8.093 -0.2380  0.2669 -0.4897
12394SOL    HW139624   6.680   6.939   8.152 -0.6292 -0.3704 -1.1325
12394SOL    HW239625   6.690   7.089   8.141 -0.7713 -0.2082  0.6305
12395SOL     OW39626   4.211   8.414   1.762 -0.0323 -0.4068  0.3024
12395SOL    HW139627   4.266   8.380   1.832  1.3976  2.7858  0.9558
12395SOL    HW239628   4.123   8.419   1.799  0.4250 -0.1315  1.3829
12396SOL     OW39629   9.668   7.086  10.209  0.2013  0.4005  0.2720
12396SOL    HW139630   9.717   7.131  10.140  0.4610 -1.2134 -0.6569
12396SOL    HW239631   9.576   7.101  10.187  0.2834  0.8622  0.2449
12397SOL     OW39632   0.509   2.217   6.872  0.2961 -0.0646 -0.3737
12397SOL    HW139633   0.474   2.305   6.889  2.1753  0.6703 -0.0236
12397SOL    HW239634   0.594   2.217   6.915  0.4283 -2.0142 -0.5573
12398SOL     OW39635   8.656   5.742   0.981 -0.9223 -0.1746  0.2016
12398SOL    HW139636   8.607   5.805   1.035 -0.4872  0.0292  0.3633
12398SOL    HW239637   8.744   5.742   1.018 -0.8326 -0.6398 -0.0056
12399SOL     OW39638   2.110   4.813   1.137 -0.4163  0.3305 -0.6363
12399SOL    HW139639   2.167   4.776   1.069 -0.2279 -0.9700  0.2113
12399SOL    HW239640   2.057   4.739   1.167  1.1414  0.2897  2.3052
12400SOL     OW39641   7.361   7.572   3.471  0.4245  0.0229 -0.5985
12400SOL    HW139642   7.384   7.550   3.561  0.6660  2.0954 -0.0937
12400SOL    HW239643   7.355   7.488   3.426 -0.1300 -1.0926  1.4374
12401SOL     OW39644   1.953   2.760   7.644 -0.2856 -0.2239  0.2545
12401SOL    HW139645   1.886   2.783   7.708 -0.4578  2.4558 -0.7748
12401SOL    HW239646   1.903   2.744   7.563  0.1837 -0.1872 -0.0440
12402SOL     OW39647   5.179   9.577   2.023  0.6604  0.7313 -0.5767
12402SOL    HW139648   5.141   9.489   2.017  0.1494  0.9948 -1.4050
12402SOL    HW239649   5.200   9.588   2.116  0.6843 -0.2447 -0.4580
12403SOL     OW39650   9.884   9.156   8.645  0.1019 -0.0913  0.2595
12403SOL    HW139651   9.883   9.252   8.639 -0.5393 -0.1934 -2.4426
12403SOL    HW239652   9.903   9.126   8.556  2.5512 -2.5099  1.4325
12404SOL     OW39653   7.882   4.171   2.938  0.2975  0.2943  0.8178
12404SOL    HW139654   7.838   4.121   3.008 -0.6450 -1.9870 -1.2269
12404SOL    HW239655   7.950   4.112   2.906 -0.0633  0.7478 -0.9142
12405SOL     OW39656   6.135   0.891   0.095 -1.2091  0.5160 -0.0945
12405SOL    HW139657   6.193   0.958   0.058 -1.1345  0.4468 -0.1033
12405SOL    HW239658   6.130   0.824   0.027 -1.0558  0.3794  0.0283
12406SOL     OW39659   0.009   5.080   7.102  0.3092  0.0620 -0.7163
12406SOL    HW139660  -0.045   5.027   7.044  1.9780 -0.1981 -2.0904
12406SOL    HW239661   0.025   5.024   7.178  0.6523 -0.7786 -1.3950
12407SOL     OW39662   6.196   2.060   6.240  0.4298 -0.2491  0.5068
12407SOL    HW139663   6.105   2.071   6.212 -0.3316 -0.9801  2.5588
12407SOL    HW239664   6.244   2.042   6.159 -1.0003  1.4329 -0.7863
12408SOL     OW39665   0.012   4.369   9.530 -0.1197  0.1187 -0.1495
12408SOL    HW139666   0.065   4.363   9.451 -0.9807  0.5795 -0.7843
12408SOL    HW239667   0.063   4.323   9.597  0.0348 -1.4274 -1.2758
12409SOL     OW39668   5.779   1.041   0.816  0.3904 -0.3507 -0.3990
12409SOL    HW139669   5.746   1.129   0.833  0.2605 -0.0643 -1.9180
12409SOL    HW239670   5.701   0.988   0.798  0.2522 -1.3931  2.6635
12410SOL     OW39671   5.542   9.896  10.166 -0.1956  0.4575 -0.4048
12410SOL    HW139672   5.534   9.981  10.209 -1.1091  0.6920 -1.0258
12410SOL    HW239673   5.635   9.889  10.145  0.3742  0.1817  1.9032
12411SOL     OW39674   9.522   8.206   4.330  0.1267 -0.8062 -0.1359
12411SOL    HW139675   9.616   8.214   4.318  0.1636  0.0475  0.5904
12411SOL    HW239676   9.485   8.249   4.253  0.3566  0.9976  0.6999
12412SOL     OW39677   8.681   2.770   2.909  0.2088 -0.0063  0.0256
12412SOL    HW139678   8.689   2.840   2.974 -0.0453 -1.1297  1.3150
12412SOL    HW239679   8.767   2.728   2.907  0.2027 -0.0055 -0.3379
12413SOL     OW39680   2.177   4.362   5.389  0.5916  0.6565  0.7573
12413SOL    HW139681   2.131   4.306   5.452  2.3761  1.4926  2.9182
12413SOL    HW239682   2.108   4.390   5.328 -1.1249 -0.5785  2.0063
12414SOL     OW39683   9.271   9.053  10.312 -0.5016 -0.7961  0.1380
12414SOL    HW139684   9.289   8.961  10.328 -0.4256 -0.9605 -0.8052
12414SOL    HW239685   9.357   9.095  10.312 -0.3904 -0.9943 -0.9344
12415SOL     OW39686   1.227   9.144   6.737  0.2366 -0.3735  0.4276
12415SOL    HW139687   1.142   9.130   6.778  0.5901  0.9281  1.6731
12415SOL    HW239688   1.290   9.103   6.798  0.4844 -2.1756 -0.9413
12416SOL     OW39689   4.006   7.176   7.547 -0.3091 -0.0136 -0.1861
12416SOL    HW139690   3.966   7.260   7.525 -1.1367 -0.9287 -2.4694
12416SOL    HW239691   4.091   7.179   7.503  0.2816  0.1651  0.9375
12417SOL     OW39692   5.028   5.781   5.772 -0.0471 -0.3769  0.1283
12417SOL    HW139693   5.007   5.718   5.703  1.1945  0.1287 -0.7399
12417SOL    HW239694   5.032   5.728   5.852 -1.9359 -0.9002 -0.0579
12418SOL     OW39695   1.202   1.102   4.617  0.3555 -0.5345  0.5750
12418SOL    HW139696   1.294   1.128   4.617  0.6735 -1.4087  2.5885
12418SOL    HW239697   1.201   1.019   4.665 -1.5135 -0.3876  0.8627
12419SOL     OW39698   7.648   7.210   2.383 -0.5184 -0.1355 -0.0795
12419SOL    HW139699   7.597   7.195   2.463 -1.4493  0.7619 -0.4955
12419SOL    HW239700   7.719   7.268   2.411 -2.1498  2.0705 -0.3367
12420SOL     OW39701   3.134   5.694   8.505  0.6105 -0.0044 -0.1962
12420SOL    HW139702   3.070   5.656   8.444  1.7581 -1.2506 -0.6598
12420SOL    HW239703   3.206   5.724   8.450  1.8239 -1.4607  0.5141
12421SOL     OW39704   0.094  10.126   0.587 -0.2047  0.6050  0.0344
12421SOL    HW139705   0.033  10.188   0.628  0.4354  1.3492 -0.1009
12421SOL    HW239706   0.099  10.155   0.495  2.1877  2.1271  0.5404
12422SOL     OW39707   5.125   9.123   3.449  0.2426  0.2077 -0.3694
12422SOL    HW139708   5.107   9.181   3.523 -0.7286  2.0945 -1.9860
12422SOL    HW239709   5.046   9.069   3.441  0.6084 -0.4437  0.3336
12423SOL     OW39710   3.602   1.165   7.666  0.1942 -0.3701  0.0796
12423SOL    HW139711   3.679   1.221   7.666  0.0264 -0.0480  2.4093
12423SOL    HW239712   3.633   1.081   7.700 -0.3342 -0.4168  0.4735
12424SOL     OW39713   1.062   4.227   3.990  0.4083 -0.1096 -0.4877
12424SOL    HW139714   0.988   4.247   4.047  0.5637 -0.8821 -0.0011
12424SOL    HW239715   1.036   4.260   3.904 -0.9672 -1.2935 -0.5789
12425SOL     OW39716   5.251   3.257   5.094  0.2847  0.0026 -0.2715
12425SOL    HW139717   5.223   3.254   5.003 -0.7190 -1.6690  0.0381
12425SOL    HW239718   5.176   3.292   5.141  0.4797  0.0261  0.0269
12426SOL     OW39719   7.516   2.332   4.207 -0.1455  0.6554 -0.1631
12426SOL    HW139720   7.531   2.348   4.113 -0.1677  0.9260 -0.1211
12426SOL    HW239721   7.497   2.238   4.212  0.9154  0.4215 -0.2954
12427SOL     OW39722   4.118   7.488   4.008 -0.2869 -0.4939 -0.5614
12427SOL    HW139723   4.035   7.531   3.985 -0.8631 -1.4919 -0.4276
12427SOL    HW239724   4.114   7.403   3.963  0.5407 -0.6701 -0.3174
12428SOL     OW39725   7.482  10.374   5.316 -0.2016  0.0016  0.6001
12428SOL    HW139726   7.392  10.342   5.314 -0.4245  0.5119  1.6874
12428SOL    HW239727   7.481  10.456   5.267 -0.9595  1.4360  2.8542
12429SOL     OW39728   5.842   1.091   3.066  0.5577  0.8926  0.1424
12429SOL    HW139729   5.786   1.100   3.143 -0.5489 -0.7772 -0.3991
12429SOL    HW239730   5.924   1.134   3.090 -0.2153  1.5344  1.7598
12430SOL     OW39731   3.121   6.998   0.108 -0.2098 -0.4094  0.1215
12430SOL    HW139732   3.156   7.064   0.048  0.7874  0.0357  1.1595
12430SOL    HW239733   3.094   7.047   0.185  0.0572 -1.1509  0.6979
12431SOL     OW39734   1.281   7.296   3.078 -0.2675 -0.5286 -0.0691
12431SOL    HW139735   1.327   7.377   3.056  2.2410 -1.7064  0.5050
12431SOL    HW239736   1.237   7.314   3.161 -0.3906  0.4452 -0.3342
12432SOL     OW39737  10.110   6.205   8.531 -0.4298 -0.3411  0.1311
12432SOL    HW139738  10.160   6.231   8.454 -1.0757 -0.8473 -0.4669
12432SOL    HW239739  10.141   6.117   8.552  1.2382  0.5447  1.7251
12433SOL     OW39740   9.764   6.749   4.095  0.2634 -0.3374  0.5774
12433SOL    HW139741   9.733   6.697   4.169  0.4163  1.8528  2.2647
12433SOL    HW239742   9.857   6.763   4.112  0.4594 -0.4055 -0.4014
12434SOL     OW39743   6.887   7.016   2.654 -0.2177  0.0647  1.1962
12434SOL    HW139744   6.817   6.970   2.608  0.1763  0.7762 -0.1724
12434SOL    HW239745   6.905   7.093   2.600  1.4511  0.0208  1.6424
12435SOL     OW39746   8.347   3.817   5.289 -0.1194 -0.5434  0.4581
12435SOL    HW139747   8.318   3.887   5.231 -0.5079 -1.5015 -0.5443
12435SOL    HW239748   8.301   3.739   5.257  0.3120 -1.2635  1.5308
12436SOL     OW39749   9.182   0.089   6.947  0.4256  0.2701 -0.7572
12436SOL    HW139750   9.227   0.048   6.874  2.8832  3.3078 -1.1461
12436SOL    HW239751   9.143   0.169   6.911  0.1827  0.9493  0.8831
12437SOL     OW39752   2.260   8.203   1.358 -0.5080 -0.1269  0.0642
12437SOL    HW139753   2.278   8.131   1.297  0.4930 -0.9981  1.3305
12437SOL    HW239754   2.166   8.219   1.348 -0.2516  0.3221 -2.2574
12438SOL     OW39755   7.293   4.843   2.626  1.0395 -0.2679 -0.2457
12438SOL    HW139756   7.279   4.769   2.685 -0.0245 -0.7092 -1.0223
12438SOL    HW239757   7.360   4.813   2.565  0.9721 -0.4120 -0.2491
12439SOL     OW39758   1.787   3.261   4.868  0.0508  0.1489  0.1283
12439SOL    HW139759   1.720   3.328   4.881  0.7243  0.9559 -0.4752
12439SOL    HW239760   1.817   3.273   4.778 -0.0919 -1.2301 -0.1247
12440SOL     OW39761   6.271   3.953   9.653 -0.0970 -0.2629  0.7582
12440SOL    HW139762   6.317   4.017   9.706  1.2804 -0.8073  0.2738
12440SOL    HW239763   6.262   3.877   9.710 -0.1500 -0.2500  0.7667
12441SOL     OW39764   4.112   2.261  10.266  0.8302 -0.3349  0.3903
12441SOL    HW139765   4.154   2.337  10.307  0.5378 -0.0592  0.1819
12441SOL    HW239766   4.053   2.299  10.200 -1.3503 -0.5525  2.0730
12442SOL     OW39767   2.931   7.972   5.147  0.0951  0.0409 -0.3426
12442SOL    HW139768   2.875   8.024   5.205  0.4227 -1.0698  1.0003
12442SOL    HW239769   2.869   7.917   5.098 -0.0832 -0.0316 -0.0356
12443SOL     OW39770   3.325   5.297   4.448  0.2015 -0.2238 -0.1682
12443SOL    HW139771   3.396   5.272   4.389 -0.0636 -0.1105 -0.5387
12443SOL    HW239772   3.358   5.373   4.495  0.9907 -1.1824  0.9111
12444SOL     OW39773   2.052   8.933   7.024 -0.1245 -0.4310  0.4428
12444SOL    HW139774   1.982   8.972   7.076  1.3664 -1.3175  3.3281
12444SOL    HW239775   2.122   8.998   7.025 -0.8522  0.5657 -2.6404
12445SOL     OW39776   8.469   3.717   2.929  0.0155  0.0126 -0.4770
12445SOL    HW139777   8.418   3.741   3.006 -2.2025 -3.0227 -0.8254
12445SOL    HW239778   8.457   3.622   2.921  3.5321 -0.4475 -2.2389
12446SOL     OW39779   4.196   2.675   9.748 -0.2422 -0.7484  0.3210
12446SOL    HW139780   4.170   2.624   9.671 -1.3806 -0.2456  0.3543
12446SOL    HW239781   4.164   2.624   9.822 -3.9588  1.2548  0.3005
12447SOL     OW39782   9.253   1.618   8.171 -0.2044 -0.5284 -0.3056
12447SOL    HW139783   9.231   1.639   8.080  1.1575 -0.3304 -0.6141
12447SOL    HW239784   9.207   1.536   8.189 -0.7866 -0.3801 -1.0431
12448SOL     OW39785   5.762   5.926   5.037 -0.2155  0.1537 -0.3615
12448SOL    HW139786   5.749   5.889   5.124 -1.8513  0.2814 -0.5086
12448SOL    HW239787   5.738   6.018   5.046  2.2949  0.8619 -0.3534
12449SOL     OW39788   5.966   2.087   0.502 -0.1763  0.2980 -0.4967
12449SOL    HW139789   5.967   1.993   0.519 -0.3592  0.2519 -0.7253
12449SOL    HW239790   5.879   2.103   0.466 -0.0001  0.4838 -0.8447
12450SOL     OW39791   3.286   3.255   1.873 -0.3347 -0.2510  0.1857
12450SOL    HW139792   3.210   3.300   1.907 -0.5545 -1.4191  1.2861
12450SOL    HW239793   3.350   3.256   1.945  0.4708  0.1769 -0.5087
12451SOL     OW39794   7.779   1.813   6.815 -0.1327 -0.1717 -0.3171
12451SOL    HW139795   7.862   1.820   6.862  0.2754  1.7656 -1.2161
12451SOL    HW239796   7.716   1.785   6.881  0.8664  0.2433  0.8371
12452SOL     OW39797   5.477   8.134   2.493 -0.2941  0.5438  0.1151
12452SOL    HW139798   5.532   8.194   2.542  0.5500 -2.1120  2.6998
12452SOL    HW239799   5.401   8.119   2.550 -0.2072 -1.2195 -0.1773
12453SOL     OW39800   4.503   3.827   7.814  0.1838 -0.0759 -0.0126
12453SOL    HW139801   4.489   3.919   7.791  0.5307  0.3621  1.4732
12453SOL    HW239802   4.547   3.790   7.737  0.8439  1.2187 -0.2856
12454SOL     OW39803   4.659   9.956   8.428 -0.1787 -0.1235  0.2642
12454SOL    HW139804   4.622  10.032   8.473  3.2542  1.7413  0.2590
12454SOL    HW239805   4.710   9.993   8.355 -0.8505 -2.6837 -1.6635
12455SOL     OW39806   1.095   2.801   7.471  0.1628  1.3138 -0.2302
12455SOL    HW139807   1.025   2.812   7.535  0.4109 -1.0697  0.5407
12455SOL    HW239808   1.064   2.846   7.393 -0.5314  3.5778  1.2370
12456SOL     OW39809   7.238   6.999  10.192  0.5381 -0.0012  0.5880
12456SOL    HW139810   7.315   6.951  10.224  1.0151 -2.2508 -3.2556
12456SOL    HW239811   7.274   7.062  10.130 -0.6165 -0.4653 -0.5939
12457SOL     OW39812   5.212   1.597   2.329  0.0497 -0.6749 -0.2222
12457SOL    HW139813   5.148   1.643   2.275 -0.7529 -0.3064  1.0036
12457SOL    HW239814   5.297   1.616   2.288 -0.5324 -0.4173 -1.3333
12458SOL     OW39815   2.899   4.574   2.369 -0.2313  0.5805  0.3825
12458SOL    HW139816   2.850   4.655   2.370 -2.3350 -0.5388 -1.6942
12458SOL    HW239817   2.864   4.523   2.442  1.5832  1.6918  2.1354
12459SOL     OW39818   1.280   7.302  10.482  0.3029 -0.0555  0.4458
12459SOL    HW139819   1.235   7.336  10.559  1.0518  2.1009 -0.0017
12459SOL    HW239820   1.365   7.274  10.516  0.9003  1.5284  0.3604
12460SOL     OW39821   8.171   6.200   5.741  0.5752  0.2456  0.7563
12460SOL    HW139822   8.211   6.147   5.673  0.5274 -0.0680  0.9740
12460SOL    HW239823   8.152   6.139   5.813 -0.3964  0.3623  0.6183
12461SOL     OW39824   3.715   9.110   2.064 -0.1335 -0.1031 -0.6671
12461SOL    HW139825   3.634   9.068   2.090  1.1090 -2.9957 -1.0604
12461SOL    HW239826   3.743   9.062   1.986  1.4322  1.5033 -1.1771
12462SOL     OW39827   9.010   7.968   5.846 -0.1493 -0.3008  0.1333
12462SOL    HW139828   9.037   7.884   5.884  0.9894  0.0249  0.0642
12462SOL    HW239829   9.084   8.027   5.861 -0.8468  0.6375 -0.0186
12463SOL     OW39830   6.901   9.865   8.105  0.0710  0.8989  0.2895
12463SOL    HW139831   6.936   9.886   8.019 -0.7613  0.1539 -0.2464
12463SOL    HW239832   6.941   9.781   8.128 -3.2390 -1.4251 -1.5520
12464SOL     OW39833   5.139   2.470   0.135 -0.7661 -0.7272 -0.1009
12464SOL    HW139834   5.218   2.512   0.168 -1.4715  0.8724 -0.3183
12464SOL    HW239835   5.168   2.386   0.100  1.0613  0.3759 -1.3720
12465SOL     OW39836   0.484   1.812   2.824 -0.0285  0.4073  0.1388
12465SOL    HW139837   0.457   1.782   2.737  0.8303 -1.9318  0.6302
12465SOL    HW239838   0.571   1.775   2.838 -0.7880 -0.6631  2.6280
12466SOL     OW39839   4.598   9.116   3.139 -0.0635 -0.7812  0.0390
12466SOL    HW139840   4.677   9.169   3.129 -0.9493  0.7329  0.6011
12466SOL    HW239841   4.627   9.037   3.184  0.7795  0.8855  2.6832
12467SOL     OW39842   3.839   3.211   0.845  0.1440  0.2229  0.0198
12467SOL    HW139843   3.787   3.181   0.771  1.8777 -0.1795 -1.1045
12467SOL    HW239844   3.877   3.294   0.815  3.2540 -1.3555 -0.8436
12468SOL     OW39845   1.600   1.609   5.036  0.0069  0.1157  0.8330
12468SOL    HW139846   1.675   1.648   4.990 -1.1689  1.6562  0.1408
12468SOL    HW239847   1.622   1.516   5.041  1.2117  0.2444 -0.8757
12469SOL     OW39848   3.767   5.431   4.455  0.3723 -0.5783  0.0118
12469SOL    HW139849   3.757   5.366   4.524 -1.2732  1.8454  2.2644
12469SOL    HW239850   3.862   5.437   4.442  0.7427 -1.1598  2.0658
12470SOL     OW39851   3.886   0.833   3.822 -0.1366 -0.5308 -0.3081
12470SOL    HW139852   3.928   0.756   3.859 -0.0183  0.2793  1.2998
12470SOL    HW239853   3.793   0.823   3.845 -0.1459 -0.2643 -0.2310
12471SOL     OW39854   2.308   3.826   4.385 -0.3609 -0.4344  0.6932
12471SOL    HW139855   2.252   3.882   4.331  0.5211 -0.3983 -0.2158
12471SOL    HW239856   2.397   3.851   4.361  0.0484 -1.4371  1.1183
12472SOL     OW39857   2.598   0.866   7.783  0.4438 -0.3068  0.3189
12472SOL    HW139858   2.594   0.955   7.820  0.7365 -0.1691  0.0228
12472SOL    HW239859   2.566   0.877   7.693 -0.4113 -0.6640  0.5641
12473SOL     OW39860   8.714   5.914   8.528 -0.2738 -0.5210  0.0109
12473SOL    HW139861   8.639   5.879   8.478 -0.6547  0.1291  0.1126
12473SOL    HW239862   8.674   5.955   8.605  0.2025 -0.3130  0.1495
12474SOL     OW39863   0.557   0.827   6.237 -0.0398  0.0427  0.5058
12474SOL    HW139864   0.468   0.830   6.201 -0.2472 -0.5258  0.9629
12474SOL    HW239865   0.573   0.916   6.269 -0.7120 -0.0323  1.0595
12475SOL     OW39866   7.025   0.903   6.539  0.3996  0.3286 -0.1651
12475SOL    HW139867   7.033   0.998   6.546  0.1001  0.3387  0.0478
12475SOL    HW239868   6.933   0.888   6.520  0.2130  0.0212  0.9292
12476SOL     OW39869   8.622   4.636   6.787 -0.0460  0.3172 -0.4292
12476SOL    HW139870   8.671   4.582   6.850 -1.4847  1.7890  2.1370
12476SOL    HW239871   8.653   4.725   6.802  0.8416  0.5679 -3.1818
12477SOL     OW39872   0.308   6.941   2.862 -0.4463  0.3326 -0.1502
12477SOL    HW139873   0.358   6.893   2.928 -0.8763  0.4585  0.2820
12477SOL    HW239874   0.360   6.936   2.783  0.2414  0.4452  0.2851
12478SOL     OW39875   7.799   3.134   6.247 -0.7520 -0.0909 -0.0436
12478SOL    HW139876   7.756   3.051   6.271 -0.5036  0.2400  1.6381
12478SOL    HW239877   7.820   3.123   6.154 -2.7149 -1.0363 -0.4464
12479SOL     OW39878   3.296   1.922   2.597 -0.4527 -0.4323 -0.9167
12479SOL    HW139879   3.341   1.883   2.671 -1.3983  0.4947  0.1814
12479SOL    HW239880   3.354   1.993   2.569 -0.2310 -0.6001 -0.8897
12480SOL     OW39881   7.900  10.181   9.420 -0.3490  0.2350  0.0331
12480SOL    HW139882   7.984  10.218   9.447  1.4912 -2.6249 -1.3259
12480SOL    HW239883   7.885  10.218   9.333  0.2529 -0.2970 -0.3078
12481SOL     OW39884   1.585   6.971   1.414 -0.2501 -0.2248  0.1652
12481SOL    HW139885   1.623   7.045   1.461  0.0598  1.0439 -1.9574
12481SOL    HW239886   1.532   7.011   1.346 -1.1097 -1.9935 -0.2496
12482SOL     OW39887  10.330   8.509   0.153 -0.7390 -0.2237 -0.1491
12482SOL    HW139888  10.290   8.430   0.189 -0.1671 -2.2726 -3.4952
12482SOL    HW239889  10.424   8.496   0.165 -0.6621  0.1214 -0.3551
12483SOL     OW39890   5.035   4.686   7.565  0.2324 -0.2153  0.2841
12483SOL    HW139891   5.049   4.612   7.625  1.6550 -0.2077 -0.0054
12483SOL    HW239892   5.029   4.646   7.478 -0.1175 -0.0803  0.2457
12484SOL     OW39893   7.006  10.345   1.643 -0.2293  0.7165  0.2869
12484SOL    HW139894   6.925  10.348   1.694 -0.3343  1.8124  0.0646
12484SOL    HW239895   7.073  10.317   1.707 -0.8593 -0.7814  0.3356
12485SOL     OW39896   7.698   1.397   3.547 -0.2645  0.1579  0.3055
12485SOL    HW139897   7.612   1.410   3.587  0.1958 -0.3227  1.4886
12485SOL    HW239898   7.760   1.405   3.620  0.6184 -0.4732 -0.3594
12486SOL     OW39899   9.818   5.696   2.935  0.1219  0.2381  0.5080
12486SOL    HW139900   9.829   5.687   2.841  0.3333 -1.8503  0.6822
12486SOL    HW239901   9.858   5.617   2.972 -2.1429 -0.2570  2.1684
12487SOL     OW39902   8.918   3.919   6.712 -0.3089  0.1063 -0.3570
12487SOL    HW139903   8.989   3.856   6.722 -0.4353  0.1672  1.2533
12487SOL    HW239904   8.896   3.916   6.619 -0.0524 -1.9150 -0.3988
12488SOL     OW39905   9.103   5.727   2.907  0.6525 -0.4586  0.7037
12488SOL    HW139906   9.063   5.745   2.822  0.2545 -1.3787  0.6874
12488SOL    HW239907   9.031   5.696   2.962  0.9915 -0.3090  1.2490
12489SOL     OW39908   5.544   9.415   3.370  0.8683 -0.0594 -0.7635
12489SOL    HW139909   5.578   9.333   3.406 -1.2093 -0.8148 -0.3914
12489SOL    HW239910   5.582   9.483   3.426  1.6917 -0.8472 -0.3435
12490SOL     OW39911   1.193   7.708   7.618  0.5160 -0.0079 -0.5184
12490SOL    HW139912   1.143   7.756   7.553 -1.3184 -0.5853  0.3612
12490SOL    HW239913   1.207   7.771   7.689  2.1524  0.5001 -1.2431
12491SOL     OW39914   6.163   2.956   9.404  0.1742  0.1313 -0.0598
12491SOL    HW139915   6.075   2.921   9.395 -0.2766  1.5231 -1.6598
12491SOL    HW239916   6.199   2.951   9.315  1.5552 -0.0125  0.4818
12492SOL     OW39917   8.643   5.303   3.520 -0.7768 -0.0886  0.1476
12492SOL    HW139918   8.702   5.281   3.447 -0.1508  2.8564 -0.3735
12492SOL    HW239919   8.691   5.276   3.598 -1.0073 -2.3378 -0.4012
12493SOL     OW39920   1.192   7.968   2.335  0.1860  0.2773 -0.3567
12493SOL    HW139921   1.208   8.062   2.327  1.4714  0.0809 -0.4074
12493SOL    HW239922   1.210   7.933   2.248  2.6702 -0.3640  0.3280
12494SOL     OW39923   6.153   9.783   6.728 -0.0421  0.3275  0.1726
12494SOL    HW139924   6.117   9.855   6.677 -0.8609 -0.3093 -0.1622
12494SOL    HW239925   6.140   9.706   6.674  0.8819 -0.0702  0.5019
12495SOL     OW39926   9.278   1.731   9.295  0.3150  0.4678 -0.2722
12495SOL    HW139927   9.246   1.642   9.309  0.0946  0.3365 -1.4632
12495SOL    HW239928   9.198   1.784   9.289  0.4257  0.6510 -0.1135
12496SOL     OW39929   2.283   2.348   4.427  0.4947  0.6650 -0.0687
12496SOL    HW139930   2.193   2.376   4.441  0.2773  0.0616 -0.1902
12496SOL    HW239931   2.336   2.412   4.473 -0.0207  0.7887  0.3653
12497SOL     OW39932   9.947   0.470   1.871 -0.5862  0.2405  0.3862
12497SOL    HW139933   9.965   0.379   1.847 -1.3241  0.4447 -1.0063
12497SOL    HW239934   9.994   0.482   1.954  0.2440 -1.1466  0.1538
12498SOL     OW39935   5.408   8.631   9.152  0.7781  0.2067 -0.0728
12498SOL    HW139936   5.367   8.711   9.119  0.6242  0.6747  1.1690
12498SOL    HW239937   5.338   8.585   9.198  0.9679 -0.4311 -0.4175
12499SOL     OW39938   1.100   3.723   0.514 -0.3280 -0.4304  0.0208
12499SOL    HW139939   1.153   3.741   0.437 -1.1314 -0.4542 -0.5556
12499SOL    HW239940   1.142   3.773   0.585  0.0065  0.1642 -0.5849
12500SOL     OW39941   5.350   4.264   8.154 -0.0374 -0.5655  0.3729
12500SOL    HW139942   5.426   4.229   8.200 -0.6907  1.1623  2.9512
12500SOL    HW239943   5.284   4.196   8.161  0.2875 -0.8318  0.8438
12501SOL     OW39944   8.093   9.521   7.871 -0.4547  0.1086  0.5558
12501SOL    HW139945   8.130   9.455   7.929  1.6930  0.3815 -0.3988
12501SOL    HW239946   8.005   9.489   7.850  0.4694 -2.3999  0.2042
12502SOL     OW39947   5.372   3.942   8.156 -0.3577  0.1797 -0.1261
12502SOL    HW139948   5.413   4.008   8.213 -2.5786  1.3676  0.2225
12502SOL    HW239949   5.290   3.921   8.200 -0.7165 -1.1825 -1.3781
12503SOL     OW39950   4.946   9.994   1.829 -0.1585 -0.0673 -0.4828
12503SOL    HW139951   4.921   9.909   1.795 -1.8761 -0.6847  2.0161
12503SOL    HW239952   5.036  10.007   1.799  0.1397 -2.7379 -0.9570
12504SOL     OW39953   1.916   1.085   2.195 -0.5958  0.0805 -0.2095
12504SOL    HW139954   1.873   1.137   2.127 -2.1053 -2.0778 -1.0096
12504SOL    HW239955   1.848   1.071   2.261  0.4881  1.0779  1.1612
12505SOL     OW39956   2.826   6.956   0.206  0.2000 -0.2250 -0.1690
12505SOL    HW139957   2.901   6.899   0.192  0.5876 -0.3224  1.8725
12505SOL    HW239958   2.865   7.042   0.224 -0.2819  0.1959 -1.0803
12506SOL     OW39959   2.524   1.316   0.728  0.1745 -0.5430 -0.2310
12506SOL    HW139960   2.543   1.260   0.803  3.3353  0.0946 -0.4308
12506SOL    HW239961   2.466   1.384   0.763  1.5185 -0.3015  1.6873
12507SOL     OW39962   6.778   8.873   9.804  0.2156 -0.0897 -0.3051
12507SOL    HW139963   6.847   8.938   9.787 -0.9366  1.0725 -0.6647
12507SOL    HW239964   6.815   8.818   9.873  0.7571  1.7193  0.9202
12508SOL     OW39965   5.294   3.062   7.909 -0.1998  0.8487 -0.4961
12508SOL    HW139966   5.379   3.103   7.926 -0.5567  1.1911  0.4991
12508SOL    HW239967   5.306   2.971   7.937 -0.0310  0.7718 -0.8023
12509SOL     OW39968   2.995   8.894   2.859 -0.2559  0.3721  0.2059
12509SOL    HW139969   2.905   8.864   2.872 -0.5201  1.0397 -0.0418
12509SOL    HW239970   3.025   8.849   2.779 -0.5422  0.5240  0.0118
12510SOL     OW39971   1.239   0.653   1.299 -0.0261  0.1868 -0.1983
12510SOL    HW139972   1.218   0.721   1.363 -1.1523  1.0539 -1.4308
12510SOL    HW239973   1.193   0.680   1.219 -1.4869 -2.6059 -0.4284
12511SOL     OW39974   0.096   5.116   0.014  0.5251 -0.3263  0.1948
12511SOL    HW139975   0.012   5.124   0.059  0.6394 -0.9646  0.5387
12511SOL    HW239976   0.099   5.192  -0.045 -0.2108 -0.2016  0.3026
12512SOL     OW39977   5.991   1.662   3.511 -0.8951  0.1201  0.7788
12512SOL    HW139978   5.916   1.681   3.454 -0.5955 -0.0878  0.3152
12512SOL    HW239979   6.053   1.732   3.493  0.3842 -1.4239 -1.2236
12513SOL     OW39980  10.413   8.332   1.940 -0.0916  0.1979  0.2043
12513SOL    HW139981  10.431   8.374   2.024  0.2795 -0.4431  0.4578
12513SOL    HW239982  10.330   8.285   1.954  0.2586 -0.3797  0.4073
12514SOL     OW39983   8.421   7.351   6.083 -0.0268 -0.4260  0.1247
12514SOL    HW139984   8.425   7.367   5.989 -0.9090 -0.1619  0.1200
12514SOL    HW239985   8.506   7.380   6.117 -0.0992  0.4609 -0.4442
12515SOL     OW39986   9.655   1.267   0.129  0.1617  0.5513 -0.3202
12515SOL    HW139987   9.664   1.173   0.118  0.6088  0.3725  1.3534
12515SOL    HW239988   9.624   1.278   0.219 -1.8850  1.9195 -1.1150
12516SOL     OW39989   0.927   7.850   0.703  0.0827 -0.0144  0.6742
12516SOL    HW139990   0.986   7.793   0.654  0.1364  0.4956  0.1411
12516SOL    HW239991   0.840   7.819   0.682  0.0575  0.8421 -0.5675
12517SOL     OW39992   3.217   1.615   6.983 -0.0157  0.2565  0.3163
12517SOL    HW139993   3.127   1.593   6.957  0.3383  0.1764 -0.8959
12517SOL    HW239994   3.242   1.686   6.925  0.5424  0.6401  1.0036
12518SOL     OW39995   6.363   2.605   6.198  0.2093 -0.3404 -0.7580
12518SOL    HW139996   6.354   2.699   6.209  0.9280 -0.3296 -0.1927
12518SOL    HW239997   6.294   2.581   6.136 -0.2016  0.4972 -0.6344
12519SOL     OW39998   8.560   3.429  10.252 -0.1972  0.0786  0.0237
12519SOL    HW139999   8.470   3.416  10.221 -0.0623 -0.7858 -0.0102
12519SOL    HW240000   8.585   3.515  10.216 -0.4555 -0.3737 -1.3068
12520SOL     OW40001   6.046   1.328   5.070  0.0220  0.2529 -0.4746
12520SOL    HW140002   6.047   1.399   5.006 -0.0577  1.1036  0.4363
12520SOL    HW240003   6.060   1.372   5.154  1.4495 -0.9669 -0.0209
12521SOL     OW40004   6.615   4.741   1.515  0.5072 -0.3488 -0.2138
12521SOL    HW140005   6.641   4.779   1.600  0.9563 -1.1011 -0.0082
12521SOL    HW240006   6.664   4.659   1.509 -2.4379 -2.3385  0.6055
12522SOL     OW40007   3.608   5.146  10.000 -0.0202  0.9012  0.0289
12522SOL    HW140008   3.555   5.079  10.043 -1.0556  1.6882  0.0347
12522SOL    HW240009   3.695   5.107   9.993 -1.0007 -1.2081 -1.6886
12523SOL     OW40010   1.059   9.242   2.761 -0.0949 -0.4592 -0.0830
12523SOL    HW140011   1.006   9.295   2.820  0.0652 -0.3793 -0.0090
12523SOL    HW240012   1.029   9.152   2.776 -1.1962 -0.2832 -1.0760
12524SOL     OW40013   2.383   9.641   2.592 -0.4238  0.5021  0.2199
12524SOL    HW140014   2.344   9.711   2.539 -1.8178 -1.1526 -1.0611
12524SOL    HW240015   2.416   9.579   2.527  3.0603  1.0686  1.2905
12525SOL     OW40016   8.442   4.605   3.103  0.4390  0.0579  0.6090
12525SOL    HW140017   8.386   4.645   3.171 -0.8428 -1.8352  0.7350
12525SOL    HW240018   8.435   4.665   3.029 -1.1000  0.3237  0.9191
12526SOL     OW40019   5.157   2.478   4.763  0.6083  0.4397  0.2691
12526SOL    HW140020   5.066   2.510   4.766  0.4508 -0.0619  1.3726
12526SOL    HW240021   5.149   2.387   4.736  0.7574  0.3202  0.6223
12527SOL     OW40022   5.385   2.139   5.967  0.2975 -0.4696  0.1555
12527SOL    HW140023   5.478   2.115   5.966 -0.3852 -3.5077  0.5276
12527SOL    HW240024   5.372   2.183   6.051  1.6846  1.6123 -0.6445
12528SOL     OW40025   4.647   5.701   5.278  0.3544 -0.3460  0.2501
12528SOL    HW140026   4.617   5.619   5.318 -0.8729 -1.1170 -2.0706
12528SOL    HW240027   4.738   5.684   5.255 -0.1606 -1.4844 -1.1026
12529SOL     OW40028   4.408   5.097  10.187  0.4683 -0.1982 -0.0522
12529SOL    HW140029   4.316   5.093  10.217  0.2941  1.8073 -0.1785
12529SOL    HW240030   4.459   5.072  10.265 -0.1308  0.8771  0.7178
12530SOL     OW40031   2.465   8.750   6.452  0.4058 -0.3388  0.2899
12530SOL    HW140032   2.375   8.760   6.484  0.8048 -0.5021  1.5489
12530SOL    HW240033   2.477   8.656   6.444  0.2830 -0.2938 -0.4503
12531SOL     OW40034   7.754   0.843   8.165  0.0857 -0.0543  0.0433
12531SOL    HW140035   7.759   0.834   8.260  0.0173 -1.9340 -0.0868
12531SOL    HW240036   7.834   0.890   8.140 -0.1724  0.9664  1.0541
12532SOL     OW40037   8.658   9.413   0.329  0.6553  0.5084  0.0353
12532SOL    HW140038   8.637   9.497   0.286 -1.8055 -0.1379 -0.1758
12532SOL    HW240039   8.670   9.436   0.421  1.3172  1.2714 -0.2324
12533SOL     OW40040   9.820   3.331   6.095  0.5913  0.5345 -0.1820
12533SOL    HW140041   9.890   3.393   6.072  1.3672 -0.8663 -1.7171
12533SOL    HW240042   9.749   3.351   6.034  1.3067 -0.8303 -1.5291
12534SOL     OW40043   5.110   6.363   4.717  0.8910 -0.6951 -0.2577
12534SOL    HW140044   5.026   6.346   4.759  1.0603 -0.6329  0.1113
12534SOL    HW240045   5.090   6.373   4.625  0.6121 -1.6579 -0.3121
12535SOL     OW40046  10.326   5.142   0.132  0.5512 -0.1936  0.3791
12535SOL    HW140047  10.279   5.223   0.112  1.4224  0.5399  1.2183
12535SOL    HW240048  10.319   5.133   0.227 -0.1567 -1.5015  0.2181
12536SOL     OW40049   8.967   2.765   2.070 -0.4743  0.1858  0.5215
12536SOL    HW140050   8.994   2.857   2.080  0.0511 -0.1189  2.1578
12536SOL    HW240051   8.911   2.766   1.992  1.3911  1.4585 -0.8945
12537SOL     OW40052   1.822   1.654   3.746  0.1139 -0.3686  0.3026
12537SOL    HW140053   1.795   1.654   3.654  0.2288 -1.9944  0.2340
12537SOL    HW240054   1.895   1.592   3.750  1.2378  0.9407  1.2166
12538SOL     OW40055   2.686  10.236   7.957  0.2456 -0.1088 -0.6478
12538SOL    HW140056   2.719  10.173   8.020  1.7893  1.8631  0.6440
12538SOL    HW240057   2.673  10.185   7.876 -0.1316 -2.3362  0.7287
12539SOL     OW40058   1.482   3.145   0.935 -0.0608 -0.2822 -0.1101
12539SOL    HW140059   1.463   3.231   0.899 -0.9681 -0.5903 -0.4249
12539SOL    HW240060   1.453   3.084   0.866  1.2046 -0.8266 -0.1806
12540SOL     OW40061   2.424   0.706   0.060 -0.3072 -0.0470 -0.1481
12540SOL    HW140062   2.392   0.690  -0.029  1.2159  1.0323 -0.9461
12540SOL    HW240063   2.361   0.663   0.117 -1.7556 -0.0887 -1.7168
12541SOL     OW40064   8.115   4.514   4.714 -0.0523 -0.4859  0.3464
12541SOL    HW140065   8.114   4.610   4.705  0.6848 -0.3701  1.2546
12541SOL    HW240066   8.027   4.492   4.746 -0.1409 -0.0787  0.3891
12542SOL     OW40067  10.340   7.242   7.370 -0.0299 -0.0334  0.1432
12542SOL    HW140068  10.306   7.169   7.421 -1.7829  0.2767 -0.4906
12542SOL    HW240069  10.345   7.209   7.280  0.8678  0.0932  0.1460
12543SOL     OW40070   3.397  10.454   4.024 -0.1226  0.4266 -0.5662
12543SOL    HW140071   3.442  10.538   4.031  0.5408  0.1341 -1.1200
12543SOL    HW240072   3.348  10.446   4.106  0.9878  0.6801  0.1473
12544SOL     OW40073  10.228  10.417   0.287 -0.1756  0.4537  0.6262
12544SOL    HW140074  10.183  10.495   0.255 -0.6824  0.2649  0.8663
12544SOL    HW240075  10.177  10.390   0.364 -3.5355 -3.3831 -2.5270
12545SOL     OW40076   2.256   2.982   8.753 -0.4082  0.0400 -0.2225
12545SOL    HW140077   2.290   3.057   8.803  0.4469  0.7053 -1.7458
12545SOL    HW240078   2.209   3.021   8.680 -0.5334 -0.9168 -0.6661
12546SOL     OW40079   5.331   9.918   5.568  0.6805 -0.0999 -0.1991
12546SOL    HW140080   5.398   9.950   5.628  0.0472 -0.7312  0.8777
12546SOL    HW240081   5.271   9.993   5.557  0.0957 -0.3743  1.0053
12547SOL     OW40082   4.026   1.602   5.089 -0.6638  0.3073  0.3454
12547SOL    HW140083   3.987   1.563   5.010  3.0257  0.5943 -1.8772
12547SOL    HW240084   4.065   1.528   5.135 -1.6782  0.3149  1.2526
12548SOL     OW40085   5.683   7.431   9.888 -0.5339 -0.4720  0.4013
12548SOL    HW140086   5.625   7.444   9.963  0.0752 -0.9498  0.9795
12548SOL    HW240087   5.683   7.337   9.874 -0.5340 -0.3958 -0.1121
12549SOL     OW40088   1.045   3.000   6.007  0.0089  0.7055  0.4350
12549SOL    HW140089   1.061   3.056   5.931 -2.2548  0.5799 -0.1937
12549SOL    HW240090   0.986   2.932   5.976  2.6179 -2.1508  1.1703
12550SOL     OW40091   1.050   4.410   2.412  0.0913  0.0791  0.6182
12550SOL    HW140092   1.133   4.366   2.392 -0.2841 -0.6977  0.7405
12550SOL    HW240093   1.071   4.504   2.407  0.9554 -0.1062  0.5687
12551SOL     OW40094   3.068   3.894   0.518 -0.5087 -0.0323 -0.1902
12551SOL    HW140095   3.149   3.938   0.493 -0.3636 -0.3674 -0.3264
12551SOL    HW240096   3.068   3.813   0.466 -0.4572 -0.5001  0.5186
12552SOL     OW40097   2.430   4.890   1.474 -0.1026  0.2030 -0.8837
12552SOL    HW140098   2.486   4.877   1.397  1.5921  0.5815  0.2236
12552SOL    HW240099   2.440   4.810   1.524 -0.6966  0.2132 -0.7477
12553SOL     OW40100   7.835  10.436   6.288 -0.0274  0.3297  0.1783
12553SOL    HW140101   7.913  10.402   6.244  0.2537 -0.1835  1.0356
12553SOL    HW240102   7.867  10.463   6.375 -0.7951  0.1298  0.5309
12554SOL     OW40103   6.436   6.705   7.136  0.4614  0.3854 -0.6731
12554SOL    HW140104   6.346   6.678   7.117 -0.3244  1.7266  0.8500
12554SOL    HW240105   6.468   6.639   7.198 -0.4315  1.2690  0.7966
12555SOL     OW40106   9.160   2.268   4.750  0.3884 -0.4472 -0.0751
12555SOL    HW140107   9.069   2.240   4.743 -0.8397  2.5701  2.0006
12555SOL    HW240108   9.172   2.328   4.677 -0.0283  0.7948  0.8415
12556SOL     OW40109   3.791   5.870   2.863 -0.4407 -0.1289  0.2584
12556SOL    HW140110   3.856   5.822   2.914 -0.4079 -1.4947 -1.0117
12556SOL    HW240111   3.809   5.845   2.772 -1.8693  0.5503 -0.2294
12557SOL     OW40112   2.647   3.567   3.859  0.6656 -0.2620 -0.2622
12557SOL    HW140113   2.640   3.638   3.923 -3.9625 -0.9799  0.3956
12557SOL    HW240114   2.686   3.608   3.782 -1.4438  3.0289  0.2138
12558SOL     OW40115   9.199   7.272   1.196  0.2475  0.0190 -0.4775
12558SOL    HW140116   9.282   7.231   1.222 -0.8232 -0.5704  2.3585
12558SOL    HW240117   9.134   7.233   1.253 -1.2231  4.0712  1.0281
12559SOL     OW40118   1.050   1.307   1.549  0.2226  0.1983  0.2102
12559SOL    HW140119   1.028   1.326   1.458  0.9776  1.1108  0.2062
12559SOL    HW240120   1.080   1.390   1.584 -0.8725  0.0698  1.5456
12560SOL     OW40121   2.197   5.727   9.154 -0.0797  0.3984 -0.6587
12560SOL    HW140122   2.277   5.711   9.104 -0.7492  0.0971 -1.6690
12560SOL    HW240123   2.194   5.822   9.165  1.0597  0.3206  0.5077
12561SOL     OW40124   2.618   7.553   1.147 -0.4581 -0.4093  1.0643
12561SOL    HW140125   2.691   7.503   1.183  0.1891 -0.6246 -0.4745
12561SOL    HW240126   2.658   7.615   1.087 -1.4833  0.0593  0.8390
12562SOL     OW40127  10.173   0.415   9.247  0.0901  0.3238  0.1186
12562SOL    HW140128  10.100   0.477   9.235 -0.4901  0.0973  2.1507
12562SOL    HW240129  10.135   0.329   9.227 -0.0672  0.2604  0.6816
12563SOL     OW40130   3.746   4.295   9.441 -0.1751 -0.5152  0.2447
12563SOL    HW140131   3.653   4.276   9.431 -0.3437  0.3984 -0.0749
12563SOL    HW240132   3.759   4.375   9.389  0.9911 -1.1850 -0.5239
12564SOL     OW40133   2.690   5.298   8.852 -0.3813  0.0297  0.2130
12564SOL    HW140134   2.616   5.252   8.811 -0.2840 -0.5333  0.6606
12564SOL    HW240135   2.739   5.335   8.779 -1.4493  0.9535 -0.0702
12565SOL     OW40136   5.159   2.719   4.037 -0.0614  0.5457 -0.1641
12565SOL    HW140137   5.066   2.736   4.025 -0.0074 -0.1592 -1.7226
12565SOL    HW240138   5.186   2.782   4.104 -2.2744 -1.2236  2.6333
12566SOL     OW40139   5.139   5.435   0.290  0.4176  0.1877 -0.1998
12566SOL    HW140140   5.130   5.522   0.328  2.1697 -0.0921  0.9498
12566SOL    HW240141   5.165   5.452   0.199 -1.1356  0.8471 -0.5442
12567SOL     OW40142   0.450   1.267   0.955  0.1658  0.8039 -0.2878
12567SOL    HW140143   0.468   1.175   0.941  0.6609  0.7334  0.7459
12567SOL    HW240144   0.521   1.313   0.910  0.7775  0.6317  0.4825
12568SOL     OW40145   0.268   0.419   8.021  0.3085 -0.1900 -0.0419
12568SOL    HW140146   0.267   0.461   7.935  1.8409  0.6220  0.3061
12568SOL    HW240147   0.209   0.473   8.075  2.6080  1.9127  0.5264
12569SOL     OW40148   2.600   0.100   8.284  0.1156 -0.1154  0.0931
12569SOL    HW140149   2.666   0.082   8.216  1.3589 -0.2211  1.2818
12569SOL    HW240150   2.586   0.015   8.326 -0.2563  0.0501  0.3040
12570SOL     OW40151   7.366   6.132   6.969  0.1889 -0.2576  0.7874
12570SOL    HW140152   7.423   6.094   7.035 -1.0115 -1.2721  1.2665
12570SOL    HW240153   7.423   6.192   6.920  1.7656 -1.5482  0.9656
12571SOL     OW40154   2.384   3.200   3.433  0.5411 -0.4848 -0.6217
12571SOL    HW140155   2.472   3.186   3.469 -0.1658 -0.8466  1.0269
12571SOL    HW240156   2.346   3.113   3.429 -0.4887 -0.1179  0.6936
12572SOL     OW40157   2.627   2.536   0.071  0.1347  0.0327 -0.6550
12572SOL    HW140158   2.566   2.574   0.008 -0.0273  1.0236  0.0706
12572SOL    HW240159   2.605   2.443   0.075 -0.2948  0.0906 -1.5421
12573SOL     OW40160   5.664   9.014   6.833  0.3681  0.2283 -0.4480
12573SOL    HW140161   5.580   9.043   6.795  0.0652 -0.3049 -0.2018
12573SOL    HW240162   5.710   9.095   6.854 -0.6721  0.5507  0.7127
12574SOL     OW40163   1.838   7.914   1.422 -0.6664  0.1125 -0.0542
12574SOL    HW140164   1.791   7.882   1.499  1.3469 -0.2631  1.1207
12574SOL    HW240165   1.899   7.843   1.400  0.9575  1.4137 -0.0188
12575SOL     OW40166   5.079   9.953   0.942 -0.0415  0.2767  0.3074
12575SOL    HW140167   5.112  10.035   0.977 -2.0850  1.0348  0.6264
12575SOL    HW240168   5.041   9.908   1.018 -1.9345  0.6196 -0.3780
12576SOL     OW40169   0.013   2.025   2.984  0.0614 -0.1582 -0.2058
12576SOL    HW140170   0.037   1.998   2.895  1.1281  0.9100 -0.2627
12576SOL    HW240171   0.093   2.016   3.035 -0.0187  1.1137  0.1808
12577SOL     OW40172   4.134   0.908   5.310  0.3332 -0.0825 -0.3949
12577SOL    HW140173   4.203   0.914   5.244 -0.7242 -1.5885 -1.7086
12577SOL    HW240174   4.143   0.820   5.346 -3.1114 -1.8783 -3.2964
12578SOL     OW40175   7.268   1.975   9.324 -0.4398  0.0268 -0.8953
12578SOL    HW140176   7.183   1.962   9.367  0.6423 -0.4304  1.2562
12578SOL    HW240177   7.263   2.064   9.289 -1.9100 -0.1026 -1.1061
12579SOL     OW40178   3.725   3.654   5.051 -0.0717  0.1689 -0.2606
12579SOL    HW140179   3.656   3.587   5.054 -0.0169  0.0827 -0.7922
12579SOL    HW240180   3.803   3.606   5.020  0.6070 -0.0486  1.6378
12580SOL     OW40181   3.918   2.040   4.900  0.4406  0.1248  0.3797
12580SOL    HW140182   4.006   2.001   4.897  0.4049  0.0717 -0.2700
12580SOL    HW240183   3.926   2.120   4.849 -0.0342 -0.1992 -0.2196
12581SOL     OW40184   5.384   0.169   0.682  0.0721 -0.0418 -0.5228
12581SOL    HW140185   5.289   0.168   0.698  0.0156 -2.1134 -0.7176
12581SOL    HW240186   5.394   0.219   0.601 -0.7431  0.9762 -0.0197
12582SOL     OW40187   4.805   6.539   4.664  0.0445 -0.2090  0.0520
12582SOL    HW140188   4.812   6.466   4.725  2.2435 -0.1928 -0.1065
12582SOL    HW240189   4.711   6.552   4.653 -0.3985 -1.7169  1.6109
12583SOL     OW40190   4.162   3.152   5.440 -0.2523 -0.6859 -0.1681
12583SOL    HW140191   4.134   3.079   5.496 -0.3464 -0.5825 -0.0793
12583SOL    HW240192   4.231   3.195   5.490 -0.2902 -0.6337 -0.1611
12584SOL     OW40193  10.260   7.653   4.976  0.4601 -0.5725 -0.7026
12584SOL    HW140194  10.220   7.716   4.917 -0.2498 -0.0046  0.3647
12584SOL    HW240195  10.202   7.577   4.972 -0.3109 -0.0424  0.2504
12585SOL     OW40196   5.594   5.778   3.336  0.0909 -0.2949  0.4096
12585SOL    HW140197   5.634   5.836   3.401 -1.8014  0.8170  0.6674
12585SOL    HW240198   5.635   5.803   3.254  0.3945  0.3653  0.7491
12586SOL     OW40199   1.102   8.095  10.119 -0.1027  0.0019 -0.0206
12586SOL    HW140200   1.107   8.181  10.076 -0.7507 -0.7327 -1.6718
12586SOL    HW240201   1.178   8.047  10.085 -0.7518 -0.6721 -0.5448
12587SOL     OW40202   9.724   7.516   3.183 -0.2752 -0.2219 -0.2956
12587SOL    HW140203   9.631   7.523   3.160 -0.2800 -2.0541 -0.9672
12587SOL    HW240204   9.725   7.525   3.278 -1.1896 -0.6100 -0.2330
12588SOL     OW40205   6.175   5.028   8.136 -0.1186  0.3931 -0.1135
12588SOL    HW140206   6.229   4.953   8.162 -1.2868 -0.5456 -0.3114
12588SOL    HW240207   6.222   5.104   8.170  1.1989 -0.4032 -0.0841
12589SOL     OW40208   0.318   6.532   2.632 -0.2863 -0.0605  0.1650
12589SOL    HW140209   0.410   6.551   2.652 -0.7060  1.4557  0.8381
12589SOL    HW240210   0.287   6.611   2.586 -1.4660 -0.1975  0.6864
12590SOL     OW40211   3.806   5.127   8.452 -0.2525 -0.1616  0.8700
12590SOL    HW140212   3.712   5.145   8.440  0.2409  1.6744 -0.7699
12590SOL    HW240213   3.817   5.037   8.423 -1.2626  0.1417 -0.5467
12591SOL     OW40214   1.826   5.103   0.672 -0.1444  0.2870  0.2714
12591SOL    HW140215   1.741   5.147   0.667 -0.0678  0.5074  0.8238
12591SOL    HW240216   1.805   5.010   0.666 -0.3643  0.3654 -0.2650
12592SOL     OW40217   4.198   3.976   3.553 -0.1114  0.1655 -0.1642
12592SOL    HW140218   4.287   4.007   3.564 -0.2148  0.9389 -1.2967
12592SOL    HW240219   4.148   4.021   3.621  0.0863  1.0045 -0.5640
12593SOL     OW40220   5.144   3.913   9.093  0.6980 -0.2795 -0.0956
12593SOL    HW140221   5.185   3.962   9.022 -0.4838 -0.9615 -1.2896
12593SOL    HW240222   5.163   3.821   9.073  0.2842 -0.4850  0.4205
12594SOL     OW40223   3.887   3.368   1.292  0.4645  0.2100  0.1346
12594SOL    HW140224   3.824   3.381   1.221 -0.0548  0.1106  0.5688
12594SOL    HW240225   3.927   3.283   1.273  1.3869  0.8414 -0.8287
12595SOL     OW40226   8.394   0.865   0.787  0.2840 -0.1092  0.3690
12595SOL    HW140227   8.327   0.845   0.853  0.7610  0.2119  0.9594
12595SOL    HW240228   8.414   0.958   0.802  0.0656  0.0944 -0.5347
12596SOL     OW40229   0.506   7.681   8.220 -0.4128 -0.2662  0.4678
12596SOL    HW140230   0.556   7.718   8.146  1.4529 -1.1973  1.2059
12596SOL    HW240231   0.573   7.654   8.282 -1.9314  1.5899  3.1069
12597SOL     OW40232   5.184   3.241   3.375  0.1091 -0.0371 -0.4460
12597SOL    HW140233   5.252   3.271   3.435 -1.0375  0.1370  0.8185
12597SOL    HW240234   5.232   3.212   3.297  1.7839 -1.5120  1.0348
12598SOL     OW40235   7.511   6.659   3.363 -0.3487 -0.3956  0.1597
12598SOL    HW140236   7.503   6.604   3.286 -2.6402  0.9711 -0.6552
12598SOL    HW240237   7.511   6.749   3.329  0.9179  0.2180  1.6165
12599SOL     OW40238   9.250   4.853   0.977 -0.4447  0.1456  0.1910
12599SOL    HW140239   9.341   4.867   1.003 -0.7570  0.7809  0.9924
12599SOL    HW240240   9.256   4.819   0.888  0.5338  1.5175 -0.3038
12600SOL     OW40241   2.602   5.293   1.685  0.0424 -0.2626  0.2235
12600SOL    HW140242   2.510   5.318   1.695  0.0106 -0.5156  0.5851
12600SOL    HW240243   2.609   5.261   1.595  0.0487  0.8837 -0.2064
12601SOL     OW40244   1.152   8.027   5.166 -0.3046 -0.4032 -0.3575
12601SOL    HW140245   1.149   7.970   5.243 -0.8959  0.8905  0.6215
12601SOL    HW240246   1.088   7.989   5.106 -0.8423 -0.6714  0.3629
12602SOL     OW40247   3.331   7.338   4.040 -0.0433 -0.3527  0.0872
12602SOL    HW140248   3.273   7.357   4.114 -0.8882  1.4318 -0.9480
12602SOL    HW240249   3.370   7.422   4.018  2.1060 -1.3131  0.0116
12603SOL     OW40250   4.951   4.471   5.422  0.3289 -0.0268 -0.0292
12603SOL    HW140251   4.968   4.468   5.328  1.3414 -1.8327  0.1725
12603SOL    HW240252   4.884   4.404   5.437 -0.4701  0.8518  0.4322
12604SOL     OW40253   8.045   2.756   1.641  0.0485 -0.4283  0.3491
12604SOL    HW140254   8.036   2.745   1.736  0.0906 -1.6518  0.2289
12604SOL    HW240255   7.956   2.770   1.609 -0.3428 -2.7597  0.2751
12605SOL     OW40256   7.049   4.843   0.273 -0.1942 -0.0573 -0.2192
12605SOL    HW140257   7.029   4.896   0.350 -1.5834  0.2731 -0.7792
12605SOL    HW240258   7.038   4.903   0.199  1.0533 -0.3900 -0.7092
12606SOL     OW40259  10.484  10.317   2.057 -0.2531  0.3583 -0.5525
12606SOL    HW140260  10.474  10.395   2.111 -1.7140 -0.3275  0.2344
12606SOL    HW240261  10.401  10.310   2.010 -0.2477 -0.8468 -0.4213
12607SOL     OW40262   8.251   1.703   2.996  0.4635 -0.0460 -0.2571
12607SOL    HW140263   8.229   1.788   2.958  1.7328 -0.2200 -1.4872
12607SOL    HW240264   8.240   1.641   2.923  0.3108 -0.8244  0.4114
12608SOL     OW40265   4.977   4.666   9.166  0.2450  0.3787  0.1292
12608SOL    HW140266   4.917   4.734   9.196 -0.2392  0.6666 -1.3853
12608SOL    HW240267   4.963   4.593   9.226 -2.2988  0.1149 -0.6389
12609SOL     OW40268   4.352   2.422   3.070 -0.4406  0.4878 -0.3778
12609SOL    HW140269   4.420   2.485   3.095  1.7780 -0.4672 -3.4722
12609SOL    HW240270   4.286   2.475   3.026  0.2627  0.9546 -0.8854
12610SOL     OW40271   3.316   5.599   3.641 -0.0270  0.3765 -0.1993
12610SOL    HW140272   3.404   5.614   3.605  0.2809  0.7719  0.6952
12610SOL    HW240273   3.266   5.676   3.613  0.0302  0.3698 -0.3245
12611SOL     OW40274   7.158   7.744   3.580  0.5544  0.4746  0.2235
12611SOL    HW140275   7.210   7.676   3.538 -0.1119 -1.0681  1.7828
12611SOL    HW240276   7.208   7.769   3.657 -0.0438  0.4596  0.6231
12612SOL     OW40277   1.523   8.927   5.170  0.0798 -0.1246 -0.1673
12612SOL    HW140278   1.571   8.859   5.121 -0.9833 -0.3454 -0.9372
12612SOL    HW240279   1.496   8.884   5.251  0.7953 -0.1279  0.0748
12613SOL     OW40280   3.241   1.485   1.855 -0.3162  0.0690 -0.0830
12613SOL    HW140281   3.163   1.490   1.801 -0.6332 -2.2427  0.0457
12613SOL    HW240282   3.313   1.499   1.794 -0.7624  0.9763 -0.4221
12614SOL     OW40283   4.593   6.780   1.277  0.2513  0.4072  0.1405
12614SOL    HW140284   4.623   6.698   1.316 -0.7388  0.7485  1.7084
12614SOL    HW240285   4.616   6.847   1.340  0.9668  1.3611 -1.0806
12615SOL     OW40286   2.358   3.388   1.370  0.6237 -0.1515 -0.1697
12615SOL    HW140287   2.417   3.393   1.295 -0.2945  1.1924 -0.8268
12615SOL    HW240288   2.279   3.433   1.342 -0.2097 -0.7058  1.1850
12616SOL     OW40289   5.403   5.280   1.756 -0.2478 -0.6542  0.8010
12616SOL    HW140290   5.482   5.289   1.809  0.3855  0.5026 -0.2608
12616SOL    HW240291   5.335   5.327   1.805  0.0377 -0.5767  1.1241
12617SOL     OW40292   5.456   7.782   3.003 -0.0451  0.4004 -0.0151
12617SOL    HW140293   5.371   7.806   2.966  0.3917  1.0048 -0.6512
12617SOL    HW240294   5.466   7.689   2.983 -0.5158  0.3483 -0.0109
12618SOL     OW40295   0.777   1.649   6.569 -0.6158 -0.0864 -0.1877
12618SOL    HW140296   0.826   1.581   6.524 -0.1864  1.0713 -1.5536
12618SOL    HW240297   0.759   1.714   6.501  0.6051  2.0591  1.4142
12619SOL     OW40298  10.280   4.513   8.698 -0.7847  0.0560 -0.7824
12619SOL    HW140299  10.275   4.444   8.631 -0.1656 -0.2680 -0.5077
12619SOL    HW240300  10.265   4.467   8.781 -1.1627  0.3896 -0.6663
12620SOL     OW40301   3.008   9.994   1.053 -0.1059  0.3800  0.0826
12620SOL    HW140302   3.019  10.003   0.958 -0.8423  2.0587  0.1295
12620SOL    HW240303   3.096  10.005   1.088 -0.1648  2.4579 -0.2715
12621SOL     OW40304   9.939   7.459   0.357  0.2206  0.6350  0.1911
12621SOL    HW140305   9.931   7.518   0.283 -0.0855  0.7407  0.3056
12621SOL    HW240306   9.999   7.391   0.327  1.7643  1.7733  0.5547
12622SOL     OW40307   6.852   3.016   9.079  0.7018  0.5360  0.5628
12622SOL    HW140308   6.913   3.053   9.015 -3.6364  2.8150 -2.7815
12622SOL    HW240309   6.821   2.935   9.038  0.9197 -0.2728  1.9189
12623SOL     OW40310   6.506   4.706   0.501 -0.1878  0.2786 -0.4642
12623SOL    HW140311   6.521   4.624   0.454 -1.6607 -0.0342 -0.4242
12623SOL    HW240312   6.552   4.772   0.449  0.1952 -0.4211 -1.0303
12624SOL     OW40313   9.382   0.094   1.301 -0.2694  0.1361  0.5425
12624SOL    HW140314   9.373   0.000   1.315 -0.6868  0.0752 -0.0816
12624SOL    HW240315   9.308   0.133   1.348 -0.9589  0.0260 -0.4098
12625SOL     OW40316   6.439   0.390   6.483 -0.4295 -0.3674  0.6992
12625SOL    HW140317   6.511   0.367   6.424 -0.1241 -0.3562  1.0606
12625SOL    HW240318   6.481   0.397   6.569 -0.7897  0.0623  0.8419
12626SOL     OW40319   9.791   5.608   1.365 -0.0284  0.7004 -0.0942
12626SOL    HW140320   9.880   5.628   1.337 -0.1996  0.6207 -0.7076
12626SOL    HW240321   9.757   5.550   1.298  0.2334 -1.1644  1.3136
12627SOL     OW40322   5.365   5.561   5.530  0.3342 -0.0466 -0.0563
12627SOL    HW140323   5.349   5.654   5.546 -0.2744 -0.4971  2.3337
12627SOL    HW240324   5.302   5.537   5.462 -0.7212  0.9173  0.5504
12628SOL     OW40325   8.384   9.405   1.219  0.1136  0.1900  0.1471
12628SOL    HW140326   8.307   9.458   1.241 -0.6331 -0.9376  0.3179
12628SOL    HW240327   8.442   9.465   1.172 -0.5008  1.2767  0.7439
12629SOL     OW40328   7.821   3.012   2.561  0.1886  0.1266  0.2989
12629SOL    HW140329   7.794   3.096   2.598 -0.2628  0.1564 -0.0904
12629SOL    HW240330   7.903   3.030   2.515 -0.2045  0.4707 -0.2632
12630SOL     OW40331   6.534   2.082   4.214  0.1433  0.2855  0.2831
12630SOL    HW140332   6.583   2.013   4.259 -1.2090 -1.5096 -0.8212
12630SOL    HW240333   6.464   2.106   4.276 -0.8391 -1.1361 -0.2166
12631SOL     OW40334   7.419   5.546   5.878  0.0803  0.2418  0.3767
12631SOL    HW140335   7.487   5.557   5.944  1.0417 -0.5084 -0.4667
12631SOL    HW240336   7.459   5.491   5.811 -0.6068  1.6068 -1.2162
12632SOL     OW40337   7.304   9.947   1.768  0.4462 -0.4173  0.6608
12632SOL    HW140338   7.291   9.930   1.861  0.3598  0.7689  0.8772
12632SOL    HW240339   7.223   9.988   1.739  1.0838  0.7167  0.4431
12633SOL     OW40340   1.506   1.948   9.111 -0.9175 -0.3103  0.7165
12633SOL    HW140341   1.567   2.018   9.132 -0.7189 -0.5648  1.0058
12633SOL    HW240342   1.423   1.976   9.150 -0.6773 -0.5370  1.4040
12634SOL     OW40343   8.368  10.024   9.226  0.2470  0.1676  0.2630
12634SOL    HW140344   8.442  10.004   9.168  0.6351  2.8592 -0.3275
12634SOL    HW240345   8.304  10.065   9.169 -0.9530 -0.4676  1.1239
12635SOL     OW40346   3.047   4.899   2.750  0.4753 -0.3149 -0.6059
12635SOL    HW140347   3.098   4.927   2.826  1.7797  0.0233 -1.5558
12635SOL    HW240348   2.965   4.866   2.786  1.3831 -0.9235  1.0086
12636SOL     OW40349   2.636   6.626   6.251 -0.6549  0.0503 -0.1331
12636SOL    HW140350   2.547   6.594   6.257 -0.6934  0.0211 -0.8863
12636SOL    HW240351   2.630   6.708   6.201 -0.3374  0.3582  0.3182
12637SOL     OW40352   2.791   1.233   9.257 -0.1826  0.1447 -0.5855
12637SOL    HW140353   2.753   1.317   9.231  0.4678  0.4577 -0.5327
12637SOL    HW240354   2.725   1.169   9.232 -0.5832  0.6490 -0.8505
12638SOL     OW40355   5.777   6.025   8.773 -0.4430 -0.0578 -0.2841
12638SOL    HW140356   5.692   6.023   8.817 -0.1489  0.1415  0.3000
12638SOL    HW240357   5.833   5.968   8.825 -0.0242  0.3647 -0.2617
12639SOL     OW40358   2.046   9.174   4.162  0.0839 -0.7253  0.1953
12639SOL    HW140359   2.000   9.182   4.078 -0.6427 -0.2921  0.6159
12639SOL    HW240360   2.123   9.230   4.153 -1.1236  1.0695  0.5393
12640SOL     OW40361   5.276   7.765   0.132  0.5174  0.5732  0.0595
12640SOL    HW140362   5.279   7.850   0.175 -0.0749  1.4507 -1.5587
12640SOL    HW240363   5.368   7.737   0.128  0.9163  1.9508 -0.9147
12641SOL     OW40364   5.175   0.317   4.834 -0.0886  0.0278  0.3857
12641SOL    HW140365   5.207   0.228   4.824  2.9509  1.1037 -0.6443
12641SOL    HW240366   5.153   0.325   4.927  0.3141 -1.5490  0.6358
12642SOL     OW40367   6.396   5.330   0.825  0.2016  0.4225 -0.1437
12642SOL    HW140368   6.460   5.313   0.894  1.3210 -0.3680 -1.3254
12642SOL    HW240369   6.434   5.292   0.746 -0.4079  2.4388 -1.5183
12643SOL     OW40370   5.018   7.108   4.096  0.8142 -0.0114  0.1332
12643SOL    HW140371   5.049   7.159   4.021  2.3707  0.3357  0.9704
12643SOL    HW240372   4.956   7.166   4.140  2.5273  1.2297  1.0473
12644SOL     OW40373   1.875   8.975   0.417 -0.2604  0.2329 -0.1257
12644SOL    HW140374   1.910   8.979   0.328 -2.5723 -0.6781 -1.1396
12644SOL    HW240375   1.843   9.063   0.435  1.4913  0.8027  0.4190
12645SOL     OW40376   1.039   6.517   3.165  0.3920 -0.0869  0.1273
12645SOL    HW140377   1.094   6.490   3.091  0.4104  1.9402 -0.6791
12645SOL    HW240378   1.089   6.586   3.208  0.6099 -1.5844  2.4112
12646SOL     OW40379   5.230   7.240   8.215  0.6685  0.1561 -0.2550
12646SOL    HW140380   5.192   7.321   8.248  2.0724  1.0034 -0.6163
12646SOL    HW240381   5.222   7.178   8.288  1.7460  1.3542  0.9282
12647SOL     OW40382   9.994   1.722   7.720  0.0870  0.7526  0.5828
12647SOL    HW140383   9.963   1.802   7.763 -1.9236  0.6132 -0.5075
12647SOL    HW240384  10.037   1.753   7.640 -0.0268  0.7910  0.5361
12648SOL     OW40385   3.234   1.957   8.634  0.5046 -0.5348  0.0403
12648SOL    HW140386   3.169   1.886   8.633  0.2107 -0.2658 -1.3550
12648SOL    HW240387   3.187   2.031   8.672  0.4165 -0.7088  0.2796
12649SOL     OW40388   8.242   2.230   1.158  0.2583  0.0283  0.1536
12649SOL    HW140389   8.180   2.157   1.152  0.0475  0.2993 -1.2910
12649SOL    HW240390   8.328   2.188   1.156  0.1511 -0.1892 -1.2376
12650SOL     OW40391   6.596   7.920   7.734 -0.1291  0.2917 -0.0926
12650SOL    HW140392   6.504   7.916   7.708  0.3229 -1.9241 -1.6456
12650SOL    HW240393   6.644   7.922   7.651  1.2531 -0.6455  0.6392
12651SOL     OW40394   3.001   4.960   2.483 -0.5540  0.2623  0.4495
12651SOL    HW140395   3.027   4.927   2.569 -1.7238 -1.0560  0.3302
12651SOL    HW240396   2.914   4.999   2.499 -1.1878 -0.8114 -0.2884
12652SOL     OW40397   5.149   8.716   5.904 -0.2876 -0.0225  0.4215
12652SOL    HW140398   5.203   8.794   5.896 -0.7298  0.3142  0.6771
12652SOL    HW240399   5.064   8.748   5.933 -0.5403 -0.5770  0.3170
12653SOL     OW40400   3.141   0.650   1.941 -0.4240  0.3891 -0.1899
12653SOL    HW140401   3.096   0.734   1.949 -0.5043  0.4954 -1.5521
12653SOL    HW240402   3.224   0.663   1.988 -0.5508  1.1332 -0.1593
12654SOL     OW40403   0.691   7.387   2.154 -0.0181  0.3896  0.5151
12654SOL    HW140404   0.650   7.467   2.188 -1.2494  0.9369 -2.0080
12654SOL    HW240405   0.785   7.405   2.158 -0.1059  0.5840  3.0459
12655SOL     OW40406   5.829   4.149   1.169  0.2078  0.3028 -0.2453
12655SOL    HW140407   5.897   4.216   1.166 -0.0990  0.8048  1.9175
12655SOL    HW240408   5.756   4.186   1.119  0.1806  1.4598  0.5934
12656SOL     OW40409   4.854   9.334   9.321 -0.4489 -0.1335  0.3531
12656SOL    HW140410   4.836   9.388   9.244 -1.1298 -0.9806 -0.1019
12656SOL    HW240411   4.858   9.396   9.393 -0.5596  0.5969 -0.2573
12657SOL     OW40412   3.213   4.556  10.137  0.3826  0.0189 -0.4654
12657SOL    HW140413   3.302   4.542  10.104 -0.3947 -0.5935 -2.4071
12657SOL    HW240414   3.222   4.629  10.199  2.3934 -0.7214  0.1868
12658SOL     OW40415   5.117   0.242   1.205 -0.4361  0.0852 -0.6342
12658SOL    HW140416   5.193   0.206   1.157  0.7608  0.4063  0.9381
12658SOL    HW240417   5.128   0.337   1.200 -0.7368  0.1339 -0.3997
12659SOL     OW40418   4.520   7.227   5.260 -0.2629 -0.2165  0.2429
12659SOL    HW140419   4.516   7.256   5.169 -1.1012 -0.0917  0.3127
12659SOL    HW240420   4.570   7.145   5.257 -1.2709 -0.8402 -0.5108
12660SOL     OW40421   9.135   8.836   1.003 -0.5120  0.5341 -0.0826
12660SOL    HW140422   9.062   8.775   0.993 -0.7627  0.9376 -0.8487
12660SOL    HW240423   9.142   8.880   0.918  1.2176 -0.1392 -0.3366
12661SOL     OW40424   6.858   6.023   9.538  0.1934  0.0048 -0.2946
12661SOL    HW140425   6.810   6.099   9.506  1.9087  1.1812 -0.1711
12661SOL    HW240426   6.950   6.042   9.520  0.8880 -1.0097  1.7705
12662SOL     OW40427   6.564   1.860   1.380  0.1270  0.2084  0.2891
12662SOL    HW140428   6.486   1.907   1.352 -0.0314 -1.0701 -1.5982
12662SOL    HW240429   6.576   1.885   1.471 -1.2755  2.0411  0.0255
12663SOL     OW40430   8.622   9.443   0.901 -0.1147 -0.0697 -0.4304
12663SOL    HW140431   8.574   9.360   0.894 -0.6244  0.0571  1.1928
12663SOL    HW240432   8.625   9.461   0.995  0.3254  1.5651 -0.7330
12664SOL     OW40433   5.332   5.739   6.162 -0.1201  0.9190 -0.3201
12664SOL    HW140434   5.369   5.755   6.076 -0.9330  0.0180 -0.8573
12664SOL    HW240435   5.242   5.773   6.156  1.0546  5.0213  1.5995
12665SOL     OW40436   6.345   8.387   8.011 -0.0326 -0.1472 -0.3727
12665SOL    HW140437   6.341   8.418   8.102  0.5935  1.9054 -0.9717
12665SOL    HW240438   6.394   8.305   8.016 -0.7002 -0.4933  1.2153
12666SOL     OW40439   0.374   2.757   4.187 -0.2695 -0.7436  0.0706
12666SOL    HW140440   0.367   2.852   4.172 -0.5592 -0.9271 -1.0880
12666SOL    HW240441   0.290   2.722   4.158 -1.0336 -1.1614  2.5530
12667SOL     OW40442   0.878   2.511   4.966  0.2640 -0.0839 -0.0061
12667SOL    HW140443   0.874   2.441   4.900  1.3519 -1.5000  1.3520
12667SOL    HW240444   0.936   2.576   4.928 -0.7644  0.1363 -1.2981
12668SOL     OW40445   0.616   4.046   1.320  0.2943  0.3848  0.3228
12668SOL    HW140446   0.613   3.951   1.326  0.8908  0.4268  1.8615
12668SOL    HW240447   0.590   4.066   1.230 -2.7653 -1.0740  0.7522
12669SOL     OW40448   8.150   9.131   4.339 -0.3742 -0.1682  0.3137
12669SOL    HW140449   8.244   9.137   4.355 -0.3360 -0.2137  0.1186
12669SOL    HW240450   8.109   9.140   4.425 -0.2305  0.6191  0.3059
12670SOL     OW40451  10.132   8.449   0.638  0.2905  0.3421  0.1636
12670SOL    HW140452  10.208   8.496   0.602 -0.2544  1.0355 -0.1128
12670SOL    HW240453  10.155   8.356   0.630 -0.4067  0.3231 -3.5046
12671SOL     OW40454   2.771   3.847  10.302 -0.3705  0.1366  0.1352
12671SOL    HW140455   2.821   3.925  10.324 -0.0403  0.0738 -0.3801
12671SOL    HW240456   2.830   3.795  10.247  0.0150 -1.2484  1.7921
12672SOL     OW40457   4.210   2.031   6.122 -0.4549 -0.0342 -0.1800
12672SOL    HW140458   4.305   2.040   6.127 -0.4534  0.5770 -1.0469
12672SOL    HW240459   4.178   2.121   6.120 -1.2474 -0.1520  2.7511
12673SOL     OW40460   2.344   1.768   3.091 -0.1619  0.4948  0.4456
12673SOL    HW140461   2.412   1.794   3.028 -0.4569  0.9453  0.3051
12673SOL    HW240462   2.384   1.785   3.177 -0.5178  1.9443  0.3619
12674SOL     OW40463   3.399  10.294   1.380  0.1096 -0.0993  0.2855
12674SOL    HW140464   3.339  10.318   1.450  1.4637 -0.2635  1.5611
12674SOL    HW240465   3.463  10.236   1.421  1.4940  0.5394 -0.8369
12675SOL     OW40466  10.174   2.307   8.730  0.0977 -0.1500 -0.4361
12675SOL    HW140467  10.175   2.287   8.824  1.5652 -2.0666 -0.7913
12675SOL    HW240468  10.146   2.225   8.689  1.5980 -0.0448 -1.7634
12676SOL     OW40469   2.672   9.599   1.513  0.0598 -0.3560  0.5023
12676SOL    HW140470   2.735   9.532   1.540  1.5630  0.7854 -0.0179
12676SOL    HW240471   2.606   9.551   1.463 -1.5604 -2.1920  4.0115
12677SOL     OW40472   2.469   0.540   4.142  0.3377  0.0056  0.8034
12677SOL    HW140473   2.521   0.578   4.071 -0.4973  0.3754  0.3794
12677SOL    HW240474   2.522   0.554   4.221  0.8667  0.3974  0.3847
12678SOL     OW40475   6.083   5.930   4.805  0.3436 -0.0585  0.3344
12678SOL    HW140476   6.105   5.941   4.712  0.3743  2.5529  0.5662
12678SOL    HW240477   6.039   6.012   4.829  0.0662 -0.7956  2.5574
12679SOL     OW40478   3.299   1.133   8.074  0.6306  0.5317  0.3846
12679SOL    HW140479   3.332   1.107   8.160  0.9487 -0.7982 -0.1211
12679SOL    HW240480   3.362   1.197   8.042  1.2374  0.0370  0.5780
12680SOL     OW40481   0.192   6.430   0.768  0.2333 -0.3411  0.3828
12680SOL    HW140482   0.255   6.396   0.833 -0.3584 -0.8413  0.7091
12680SOL    HW240483   0.170   6.517   0.800 -0.8782 -0.9895  1.4841
12681SOL     OW40484   8.509   1.673   1.407  0.0265  0.7290  0.0849
12681SOL    HW140485   8.453   1.748   1.386 -1.1583 -0.3969 -0.9180
12681SOL    HW240486   8.460   1.625   1.474  0.1286  0.1014 -0.2890
12682SOL     OW40487   5.341   9.890   1.541 -0.0590  0.3339  0.0925
12682SOL    HW140488   5.355   9.796   1.555 -0.2209  0.1428 -0.9537
12682SOL    HW240489   5.409   9.915   1.478 -1.7109  0.3165 -1.7680
12683SOL     OW40490   7.598   2.893   9.519  0.0969 -0.0682  0.0437
12683SOL    HW140491   7.606   2.803   9.549 -2.4737  0.1121  1.5635
12683SOL    HW240492   7.504   2.908   9.512  0.4365  2.5429 -0.0311
12684SOL     OW40493   4.576   4.175   4.541 -0.0781  0.0449 -0.2245
12684SOL    HW140494   4.552   4.200   4.630 -0.7218  2.3517 -0.9899
12684SOL    HW240495   4.502   4.123   4.510 -0.1886 -0.1262  0.3139
12685SOL     OW40496   7.941   2.858   7.727 -0.3815  0.5315 -0.3628
12685SOL    HW140497   8.007   2.914   7.768  0.9746 -1.2870  0.0912
12685SOL    HW240498   7.857   2.897   7.752  0.4651  1.1389  1.7548
12686SOL     OW40499  10.084   8.165   2.271 -0.0492  0.4402 -0.0466
12686SOL    HW140500  10.014   8.123   2.220  0.3758  1.2720 -1.3734
12686SOL    HW240501  10.121   8.094   2.324 -0.6191 -0.4344 -0.7807
12687SOL     OW40502   6.231   8.169  10.157 -0.4964  0.0070 -0.6563
12687SOL    HW140503   6.302   8.130  10.206  0.8399 -0.1943 -2.6233
12687SOL    HW240504   6.162   8.185  10.221  0.3779 -2.0373  0.8769
12688SOL     OW40505   5.867   8.821   6.846 -0.0237 -0.6787  0.3197
12688SOL    HW140506   5.782   8.860   6.864 -0.1430 -1.0891  0.6526
12688SOL    HW240507   5.891   8.776   6.927  0.3342 -0.8813  0.1048
12689SOL     OW40508   2.796   6.261   0.853  0.1287 -0.6699  0.6213
12689SOL    HW140509   2.822   6.187   0.798 -0.3181  0.7704 -1.6493
12689SOL    HW240510   2.839   6.337   0.814 -0.9525  0.5700  1.7304
12690SOL     OW40511   7.939   2.281   9.051 -0.7790 -0.2323 -0.3781
12690SOL    HW140512   7.874   2.348   9.029 -0.6278 -0.7871 -2.7742
12690SOL    HW240513   7.921   2.210   8.990  1.6551 -0.6698 -0.6726
12691SOL     OW40514   4.051   5.645   0.132 -0.0572  0.6548 -0.2398
12691SOL    HW140515   3.968   5.597   0.137  0.5003 -0.3425 -0.3849
12691SOL    HW240516   4.089   5.620   0.048  1.6315 -1.0099  0.9438
12692SOL     OW40517   1.028   1.247   3.883  1.1376 -0.3128 -0.1916
12692SOL    HW140518   1.029   1.218   3.974 -0.6064  0.7507  0.2152
12692SOL    HW240519   0.959   1.194   3.842 -0.7885  1.8339  0.1075
12693SOL     OW40520   8.925   0.616   7.819 -0.2929 -0.0584 -0.9676
12693SOL    HW140521   8.849   0.590   7.768  0.0082  0.2044 -1.5648
12693SOL    HW240522   8.920   0.711   7.822 -0.1063 -0.0527 -0.8284
12694SOL     OW40523   5.041   2.514   6.087 -0.3477 -0.3054  0.6405
12694SOL    HW140524   5.058   2.421   6.072  1.1365  0.2137 -1.3841
12694SOL    HW240525   5.112   2.543   6.145 -0.8677 -0.4177  1.3557
12695SOL     OW40526   3.698   0.300   1.616 -0.3195 -0.7289 -0.5756
12695SOL    HW140527   3.765   0.303   1.685 -2.3265  0.7232  1.4553
12695SOL    HW240528   3.699   0.387   1.578 -0.0693 -1.1622 -1.5974
12696SOL     OW40529   9.594   2.382   0.771 -0.1093 -0.3490  1.2546
12696SOL    HW140530   9.654   2.371   0.697 -0.2744 -0.4076  1.1301
12696SOL    HW240531   9.573   2.293   0.799  0.3494 -0.3267  1.6964
12697SOL     OW40532   1.823   8.416   6.561 -0.6985 -0.4646 -0.1937
12697SOL    HW140533   1.741   8.461   6.540 -1.1762 -1.0661  0.3506
12697SOL    HW240534   1.884   8.487   6.584 -1.1201 -0.0288 -0.4125
12698SOL     OW40535   3.317   9.665   9.366  0.9374 -0.0531 -0.0492
12698SOL    HW140536   3.325   9.721   9.444 -2.7445  1.3330 -0.4415
12698SOL    HW240537   3.279   9.584   9.399 -1.2100  0.7612 -0.3261
12699SOL     OW40538   1.787   8.801   2.910  0.3940  0.3597  0.0115
12699SOL    HW140539   1.718   8.779   2.847 -0.2177 -0.1081  0.8233
12699SOL    HW240540   1.863   8.823   2.856 -0.0640 -0.2054 -0.8866
12700SOL     OW40541   9.331   7.793   5.283  0.6649  0.6396 -0.2110
12700SOL    HW140542   9.325   7.873   5.230 -0.7419 -0.2402 -1.4907
12700SOL    HW240543   9.321   7.822   5.373 -0.8608  1.8339 -0.7265
12701SOL     OW40544   5.177   8.715   7.456  0.0980  0.0114 -0.0354
12701SOL    HW140545   5.271   8.706   7.471  0.1425  1.7547  1.0335
12701SOL    HW240546   5.136   8.681   7.536 -0.1631 -0.3092 -0.3018
12702SOL     OW40547   2.877   2.622   2.288 -0.6274  0.6644 -0.2153
12702SOL    HW140548   2.797   2.593   2.332 -0.4875  2.2504  1.1551
12702SOL    HW240549   2.939   2.550   2.301 -1.5694 -0.2507 -0.6420
12703SOL     OW40550   0.030   9.006   9.136 -0.0020 -0.6541 -0.0017
12703SOL    HW140551  -0.016   9.056   9.069 -0.6588 -0.6056  0.4728
12703SOL    HW240552  -0.027   9.012   9.213  1.8682  1.3488  1.3406
12704SOL     OW40553   9.403   8.046   2.221 -0.4773 -0.3862  0.0751
12704SOL    HW140554   9.336   8.022   2.156 -0.1855 -0.1877 -0.3038
12704SOL    HW240555   9.385   8.137   2.242  2.7861  1.5646 -4.0315
12705SOL     OW40556   4.147   8.364   5.328  0.1662  0.4946  0.0865
12705SOL    HW140557   4.182   8.288   5.373 -1.1399 -0.0525  0.2143
12705SOL    HW240558   4.148   8.339   5.235 -1.8992 -0.4059  0.2676
12706SOL     OW40559   5.267   6.265   0.403  0.3070 -0.0000 -0.1300
12706SOL    HW140560   5.188   6.219   0.432  0.4055  0.6447  1.2695
12706SOL    HW240561   5.235   6.339   0.353 -0.0696  0.8654  1.3238
12707SOL     OW40562   6.672   8.418   3.730 -0.3261 -0.6024  0.3424
12707SOL    HW140563   6.625   8.496   3.760  0.0674 -0.3325  0.2746
12707SOL    HW240564   6.665   8.422   3.634  0.4991 -0.1343  0.2976
12708SOL     OW40565   5.546   0.142   7.827 -0.1543 -0.0845 -0.7346
12708SOL    HW140566   5.486   0.110   7.894  0.6929 -0.1632  0.0155
12708SOL    HW240567   5.538   0.080   7.755 -0.4139 -0.5175 -0.3362
12709SOL     OW40568   6.778   3.823   6.993 -0.6284  0.2843 -0.1167
12709SOL    HW140569   6.728   3.904   7.004  0.3422  0.8958 -0.0791
12709SOL    HW240570   6.848   3.846   6.933 -1.1147 -0.8978 -1.1777
12710SOL     OW40571   8.861   3.274   8.442 -0.0118  0.0470  0.0702
12710SOL    HW140572   8.840   3.213   8.512  1.0202 -1.9596 -1.2735
12710SOL    HW240573   8.776   3.310   8.415 -0.4780  0.3204  1.8196
12711SOL     OW40574   1.124   0.313   2.965 -0.2507  0.0840 -0.0793
12711SOL    HW140575   1.218   0.296   2.952  0.0346  1.8436 -0.6286
12711SOL    HW240576   1.084   0.227   2.966  1.2276 -0.6612 -1.0934
12712SOL     OW40577   9.577   0.954   0.735  0.5738  0.0003 -0.2363
12712SOL    HW140578   9.658   1.006   0.733  1.3176 -1.1284 -2.0269
12712SOL    HW240579   9.606   0.866   0.758 -0.0849 -0.5220 -1.3777
12713SOL     OW40580   9.956   2.172   7.644 -0.2978 -0.3516 -0.6750
12713SOL    HW140581   9.947   2.266   7.661  1.3758 -0.1232 -0.8599
12713SOL    HW240582   9.955   2.165   7.549  1.5395 -0.2424 -0.7421
12714SOL     OW40583   0.782   5.025   6.400 -0.2659  0.4347  0.2379
12714SOL    HW140584   0.826   5.018   6.485  1.8474  0.0289 -0.8345
12714SOL    HW240585   0.772   5.120   6.386 -1.2862  0.4940  1.2232
12715SOL     OW40586   4.923   9.833   7.139 -0.7332 -0.3343  0.0663
12715SOL    HW140587   4.899   9.741   7.149 -1.4439 -0.0170  1.4452
12715SOL    HW240588   5.008   9.831   7.094 -0.8114 -1.6427 -0.0553
12716SOL     OW40589   8.751  10.273   9.012 -0.1987  0.1536 -0.3878
12716SOL    HW140590   8.794  10.276   8.927  1.0119 -0.6394  0.1661
12716SOL    HW240591   8.784  10.192   9.052 -2.1135 -0.4103  0.1312
12717SOL     OW40592   9.576   2.955   7.282 -0.0859 -0.1581 -0.4992
12717SOL    HW140593   9.615   2.967   7.195  0.3568  0.3998 -0.2260
12717SOL    HW240594   9.596   2.864   7.304  0.1902 -0.1709 -0.7882
12718SOL     OW40595  10.325   3.123   6.633 -0.0104  0.5784  0.0521
12718SOL    HW140596  10.397   3.060   6.630 -0.1567  0.4097  0.0589
12718SOL    HW240597  10.259   3.088   6.574 -0.0308  0.8053 -0.0617
12719SOL     OW40598   0.858   8.444   5.134  0.5547 -0.9882 -0.0379
12719SOL    HW140599   0.840   8.377   5.199  0.2504 -0.3365  0.5607
12719SOL    HW240600   0.827   8.525   5.174  4.2049  0.1567  0.8349
12720SOL     OW40601   1.606  10.438   1.619 -0.0933  0.7074  0.1897
12720SOL    HW140602   1.543  10.498   1.659 -0.1299  0.5715  0.3367
12720SOL    HW240603   1.576  10.428   1.529  0.6978  2.0169 -0.2572
12721SOL     OW40604   0.370   1.684   1.518 -0.1105  0.2071 -0.0029
12721SOL    HW140605   0.276   1.665   1.515  0.2864 -1.8500 -0.8460
12721SOL    HW240606   0.404   1.650   1.436  1.2429  1.8593 -0.1661
12722SOL     OW40607   2.230   0.145   2.644 -0.2644 -0.2734 -0.3611
12722SOL    HW140608   2.185   0.229   2.651 -0.4298  0.0222 -3.6246
12722SOL    HW240609   2.233   0.112   2.734 -1.7012  2.4083  0.7809
12723SOL     OW40610  10.275   4.931   7.426  0.6440  0.1759 -0.3635
12723SOL    HW140611  10.333   4.894   7.492 -0.4295  0.7012  0.9266
12723SOL    HW240612  10.215   4.861   7.404  0.6903  0.1495 -0.4038
12724SOL     OW40613   4.688   5.883   7.470  0.4941  0.1120 -0.4335
12724SOL    HW140614   4.694   5.900   7.376 -1.6639 -0.0534 -0.6670
12724SOL    HW240615   4.619   5.942   7.500 -0.2773 -1.2794  0.6272
12725SOL     OW40616   1.559   5.157   5.448 -0.7167  0.1737  0.4716
12725SOL    HW140617   1.597   5.243   5.462 -0.1190  0.1767 -1.0127
12725SOL    HW240618   1.632   5.096   5.456 -0.6677  0.0375 -0.7991
12726SOL     OW40619   9.668   7.871   4.205 -0.3059 -0.7367 -0.0491
12726SOL    HW140620   9.627   7.885   4.120  0.5608 -2.0068 -0.6997
12726SOL    HW240621   9.736   7.937   4.211  0.5894 -1.5519 -0.9896
12727SOL     OW40622   2.670   5.789   0.504  0.3244  0.0380 -0.6847
12727SOL    HW140623   2.727   5.723   0.544 -0.2772  0.0221  0.1818
12727SOL    HW240624   2.613   5.817   0.576 -1.1026 -0.3143 -1.6426
12728SOL     OW40625   6.553   1.781   5.792 -0.5722  0.1084 -1.1387
12728SOL    HW140626   6.586   1.860   5.749 -0.1216  0.5580 -0.0017
12728SOL    HW240627   6.485   1.748   5.733 -0.9943  1.5260 -1.4742
12729SOL     OW40628   2.159   9.667   9.623 -0.2355  0.0454 -0.1844
12729SOL    HW140629   2.187   9.603   9.688 -2.0430  0.3787  0.9999
12729SOL    HW240630   2.240   9.711   9.595  0.6815 -0.7231  1.1810
12730SOL     OW40631   0.493   8.639   0.248 -0.3940  0.5952  0.0088
12730SOL    HW140632   0.460   8.551   0.264 -0.1652  0.2636 -1.2026
12730SOL    HW240633   0.464   8.659   0.159  1.3421  0.8873 -0.5393
12731SOL     OW40634   5.220   4.690   0.317  0.2312  0.0558  0.0857
12731SOL    HW140635   5.162   4.766   0.323  0.3858  0.1362  0.5804
12731SOL    HW240636   5.184   4.626   0.379  0.9157  0.2779  0.7284
12732SOL     OW40637   3.431   6.850  10.193 -0.8702 -0.0890 -0.0644
12732SOL    HW140638   3.384   6.930  10.215  1.8897  1.7074 -0.1469
12732SOL    HW240639   3.516   6.860  10.235  1.2514 -0.8061 -3.7382
12733SOL     OW40640   6.036   1.548   2.145 -0.6944 -0.3261 -0.3729
12733SOL    HW140641   6.129   1.568   2.152 -0.3634 -1.2349 -1.7779
12733SOL    HW240642   5.997   1.630   2.114 -0.6010  0.4581  1.4519
12734SOL     OW40643   3.378   1.066   8.534 -0.0105 -1.1058  0.1175
12734SOL    HW140644   3.283   1.063   8.523 -0.0687 -0.8374  0.5232
12734SOL    HW240645   3.396   1.009   8.609  0.3047 -2.3237 -0.8577
12735SOL     OW40646   4.231   7.344   5.823  0.5734 -0.1483  0.2784
12735SOL    HW140647   4.277   7.368   5.903  0.8362  1.4167 -0.3064
12735SOL    HW240648   4.277   7.266   5.791  0.7934 -0.4785  1.3494
12736SOL     OW40649   6.226   6.570   6.220 -0.2451 -0.6685 -0.8813
12736SOL    HW140650   6.258   6.660   6.214 -0.6602 -0.2589  1.7400
12736SOL    HW240651   6.305   6.518   6.234 -0.2609 -0.2527  0.9190
12737SOL     OW40652   2.750   5.554   5.498  0.5594 -0.6166  0.1859
12737SOL    HW140653   2.729   5.647   5.500 -0.7009 -0.8690 -0.1522
12737SOL    HW240654   2.713   5.523   5.415  1.0424 -1.4038  0.2503
12738SOL     OW40655   3.361   7.072   1.180 -0.1332  0.0440  0.1839
12738SOL    HW140656   3.445   7.099   1.144  0.7454 -1.2826  1.1484
12738SOL    HW240657   3.377   6.985   1.216 -2.1593 -0.6548 -0.4388
12739SOL     OW40658   8.550   7.255   3.357  0.4119 -0.0931  0.3471
12739SOL    HW140659   8.501   7.328   3.394 -1.5811 -1.4844  0.6649
12739SOL    HW240660   8.490   7.180   3.364  1.4676 -1.2871 -2.0175
12740SOL     OW40661   6.733   8.185   9.034  0.3305 -0.0018 -0.4955
12740SOL    HW140662   6.763   8.143   8.953 -1.6284 -1.9399 -0.3032
12740SOL    HW240663   6.645   8.150   9.049  0.0057  1.4993  1.6561
12741SOL     OW40664   5.562  10.098   1.607  0.5010 -0.6822 -0.2648
12741SOL    HW140665   5.513  10.018   1.629  0.3350 -0.1385  1.4757
12741SOL    HW240666   5.646  10.088   1.651 -0.2307  0.9067  1.6473
12742SOL     OW40667   0.742   4.578   5.363  0.1744 -0.2245 -0.1348
12742SOL    HW140668   0.735   4.665   5.403 -0.5075 -0.0201 -0.6786
12742SOL    HW240669   0.656   4.539   5.374 -0.0059 -0.2037 -1.2888
12743SOL     OW40670   8.114   9.012   3.868 -0.3714 -0.1143 -0.2280
12743SOL    HW140671   8.053   8.940   3.851 -0.9031  0.5955 -1.5089
12743SOL    HW240672   8.197   8.969   3.890 -1.0110 -1.1012  0.3241
12744SOL     OW40673   9.458   6.506   0.985  0.2175  0.4713  0.2936
12744SOL    HW140674   9.444   6.589   1.029  1.2625  0.5226  0.5685
12744SOL    HW240675   9.402   6.444   1.032 -0.9436  1.0913 -0.2274
12745SOL     OW40676   0.727   4.809   2.827 -0.0936 -0.1316  0.1324
12745SOL    HW140677   0.802   4.867   2.812  1.4716 -2.0419  0.2374
12745SOL    HW240678   0.656   4.847   2.774  1.2003  1.2060 -0.7073
12746SOL     OW40679   6.551   9.770   4.815  0.6952 -0.3323 -0.1153
12746SOL    HW140680   6.569   9.843   4.873  0.5257  0.9648 -1.6233
12746SOL    HW240681   6.530   9.697   4.873  2.5799  0.3168  1.4771
12747SOL     OW40682   7.376   2.441   8.207 -0.6549 -0.0787  0.3326
12747SOL    HW140683   7.369   2.368   8.145  2.3116 -0.6237  0.4937
12747SOL    HW240684   7.443   2.498   8.170  0.5838  0.0351  2.5693
12748SOL     OW40685   4.307   9.356   2.179  0.5519 -0.1692 -0.3172
12748SOL    HW140686   4.255   9.357   2.099 -0.3751  0.5794  0.2781
12748SOL    HW240687   4.267   9.422   2.236  0.8698 -1.0218  0.9589
12749SOL     OW40688   0.548   7.001   3.469 -0.3020  0.5344  0.0791
12749SOL    HW140689   0.623   6.986   3.412  0.4622 -0.9797  1.4287
12749SOL    HW240690   0.574   7.075   3.524 -0.1138  0.4960  0.0429
12750SOL     OW40691   8.016   2.190   8.374  0.6707 -0.3235  0.1581
12750SOL    HW140692   7.982   2.101   8.386  2.1941 -1.0582 -0.7634
12750SOL    HW240693   7.985   2.216   8.287  1.0895 -0.3550 -0.0004
12751SOL     OW40694   7.650   3.237   1.260 -0.1577 -0.6324 -0.0680
12751SOL    HW140695   7.684   3.265   1.175 -0.3882  0.2475  0.1179
12751SOL    HW240696   7.728   3.208   1.308  0.1484  0.0326 -0.1498
12752SOL     OW40697   8.382   4.360   7.339 -0.1364 -0.0163  0.2436
12752SOL    HW140698   8.424   4.298   7.399 -2.5549 -0.5842  1.4750
12752SOL    HW240699   8.350   4.430   7.395 -2.0819 -0.3462 -0.3803
12753SOL     OW40700   6.440   3.852   3.306  0.0218 -0.2181 -0.0840
12753SOL    HW140701   6.466   3.943   3.322 -2.1803  0.3659  0.5277
12753SOL    HW240702   6.440   3.812   3.393  0.2829 -0.6005 -0.2588
12754SOL     OW40703   9.888   0.509   1.240 -0.1448  0.0323  0.4833
12754SOL    HW140704   9.835   0.448   1.292  0.3925 -0.3366  0.6143
12754SOL    HW240705   9.889   0.472   1.152  0.7655 -0.5546  0.7196
12755SOL     OW40706  10.341   7.426  10.392 -0.0062 -0.0662  0.2725
12755SOL    HW140707  10.268   7.376  10.355 -0.8817 -0.1346  1.9890
12755SOL    HW240708  10.415   7.407  10.334 -0.5846 -2.4983  0.2280
12756SOL     OW40709   0.004   3.382   3.707 -0.1690  0.1279 -0.6691
12756SOL    HW140710  -0.020   3.342   3.790  3.5464  1.4584  1.3026
12756SOL    HW240711  -0.029   3.472   3.712  1.7559  0.8471  0.4383
12757SOL     OW40712   9.616   9.694   4.996  0.2268  0.2353 -0.5694
12757SOL    HW140713   9.605   9.665   4.906  0.9657 -1.8630 -0.0480
12757SOL    HW240714   9.590   9.619   5.049  0.8825  1.0156  0.9261
12758SOL     OW40715   9.528   0.907   3.857 -0.1634 -0.3271 -0.1213
12758SOL    HW140716   9.571   0.974   3.803 -0.2543  1.4603  1.9033
12758SOL    HW240717   9.586   0.831   3.851  1.1219  0.6491 -0.7479
12759SOL     OW40718   8.737   4.202   7.106 -0.1733 -0.4967 -0.2313
12759SOL    HW140719   8.716   4.260   7.179 -1.6345 -0.6394 -0.5012
12759SOL    HW240720   8.789   4.132   7.145 -1.4299 -0.8920  0.8227
12760SOL     OW40721   1.575   9.858   3.403 -0.1484 -0.6488 -0.0648
12760SOL    HW140722   1.498   9.816   3.366 -0.8222  0.3884  0.1028
12760SOL    HW240723   1.615   9.905   3.329 -0.3667 -0.1976  0.1020
12761SOL     OW40724   2.258   4.997   8.983  0.3717 -0.6771  0.0031
12761SOL    HW140725   2.170   4.967   8.960  0.3726 -0.0156 -0.9498
12761SOL    HW240726   2.298   5.018   8.899  0.8806  0.5535  0.5366
12762SOL     OW40727   7.175   2.335   7.111  0.1051 -0.7286  0.1490
12762SOL    HW140728   7.199   2.256   7.160 -1.5051 -0.6698  1.1192
12762SOL    HW240729   7.209   2.320   7.023  0.2455 -2.3004  0.4443
12763SOL     OW40730   1.371   6.369   7.148 -0.2543 -0.3306 -0.0292
12763SOL    HW140731   1.356   6.338   7.058  0.2107 -0.4848 -0.0567
12763SOL    HW240732   1.448   6.320   7.177  0.3283  0.6016  0.0283
12764SOL     OW40733   6.528   7.927   4.352  0.6826  0.5009 -0.5780
12764SOL    HW140734   6.571   7.916   4.268 -0.0489  0.1876 -0.9211
12764SOL    HW240735   6.586   7.986   4.401  1.6417 -0.1496 -0.9031
12765SOL     OW40736   5.498   1.307   6.127  0.1530  0.3404  0.0115
12765SOL    HW140737   5.588   1.290   6.099  0.3817  0.7653  0.4645
12765SOL    HW240738   5.506   1.328   6.220 -0.3738  0.7280 -0.0266
12766SOL     OW40739   6.173   7.513   1.810  0.0389  0.0155 -0.4161
12766SOL    HW140740   6.161   7.559   1.727 -0.3113 -1.8661 -1.4584
12766SOL    HW240741   6.267   7.493   1.814  0.4991  2.0775  0.7961
12767SOL     OW40742   4.305   3.559   1.590  0.1832 -0.0152  0.2349
12767SOL    HW140743   4.312   3.464   1.585 -0.2771 -0.1884  1.9757
12767SOL    HW240744   4.222   3.579   1.547 -0.1687 -0.5119  0.6653
12768SOL     OW40745   7.367   7.837  10.457  0.3624 -0.0330  0.3192
12768SOL    HW140746   7.330   7.749  10.454  0.1613  0.0507  0.2859
12768SOL    HW240747   7.362   7.868  10.367  0.1795  0.1135  0.3783
12769SOL     OW40748   5.011   9.979   9.679  0.6697 -0.1272 -0.0232
12769SOL    HW140749   5.095   9.976   9.724 -0.1128  0.0856  1.4910
12769SOL    HW240750   4.968  10.057   9.714 -0.8782 -1.2097  0.5457
12770SOL     OW40751   0.128   6.032   2.222  0.1097 -0.5416  0.0851
12770SOL    HW140752   0.211   6.077   2.239 -0.9116  1.7980 -0.7244
12770SOL    HW240753   0.141   5.990   2.136  0.2209  0.5041 -0.4279
12771SOL     OW40754   2.558   6.141   7.943  0.0887  0.0334  0.2128
12771SOL    HW140755   2.584   6.137   8.035  0.2215  1.2794  0.2518
12771SOL    HW240756   2.635   6.174   7.897 -0.5904  1.3508 -0.0324
12772SOL     OW40757   1.019   7.238   7.069  0.1142  0.1176 -0.0870
12772SOL    HW140758   1.011   7.240   7.165  0.1738  1.4346 -0.0796
12772SOL    HW240759   0.983   7.154   7.043  1.5600 -0.9494  1.2053
12773SOL     OW40760   7.696   0.346   9.924  0.5580 -0.0432  0.0136
12773SOL    HW140761   7.787   0.321   9.910  0.5070 -0.2058 -0.0296
12773SOL    HW240762   7.700   0.420   9.984  0.6237 -1.1867  1.4776
12774SOL     OW40763   0.030   9.768   7.006  0.0019  0.4416  0.2514
12774SOL    HW140764   0.004   9.752   6.916 -0.7465 -1.1827  0.7003
12774SOL    HW240765   0.092   9.840   7.002 -0.2554  0.5951 -1.5140
12775SOL     OW40766   9.970   6.035   5.578 -0.2196  0.8735  0.6566
12775SOL    HW140767  10.055   6.061   5.540 -0.3709 -0.4438 -0.6851
12775SOL    HW240768   9.905   6.071   5.518 -0.4276 -2.6365 -1.4585
12776SOL     OW40769   4.400   1.662   2.584 -0.2468  0.1668 -0.9176
12776SOL    HW140770   4.400   1.757   2.584  0.2429  0.1839  0.2252
12776SOL    HW240771   4.392   1.638   2.491 -0.9879  1.2995 -1.1651
12777SOL     OW40772   6.389   1.318   2.840 -0.1738 -0.3769  0.0574
12777SOL    HW140773   6.364   1.236   2.798 -1.8095  1.4202 -2.7974
12777SOL    HW240774   6.467   1.346   2.794 -0.5684  0.4496 -0.1259
12778SOL     OW40775   0.398   9.723   8.561 -0.0383 -0.4455 -0.3969
12778SOL    HW140776   0.486   9.686   8.553 -0.4628 -1.5556 -0.1164
12778SOL    HW240777   0.392   9.750   8.653  0.0542 -0.2525 -0.4482
12779SOL     OW40778   4.229   9.100   1.687  0.2048  0.4134 -0.6477
12779SOL    HW140779   4.138   9.126   1.688  0.5881  1.7973 -0.0515
12779SOL    HW240780   4.229   9.016   1.641 -1.6219 -0.6373  1.1033
12780SOL     OW40781  10.106   8.502   7.215  0.3179 -0.2526  0.1000
12780SOL    HW140782  10.097   8.456   7.132 -0.2081  0.3051 -0.1572
12780SOL    HW240783  10.196   8.536   7.214  0.9640 -1.8423  0.6047
12781SOL     OW40784   5.188   5.885   1.179 -0.0173  0.2687  0.4381
12781SOL    HW140785   5.217   5.911   1.267 -0.1493  0.8288  0.3119
12781SOL    HW240786   5.139   5.959   1.146 -1.7591 -0.7203  0.6956
12782SOL     OW40787   5.955   6.649   2.928 -0.2046 -0.4496  0.3677
12782SOL    HW140788   5.992   6.701   3.000  2.0575 -0.3825 -0.7425
12782SOL    HW240789   5.926   6.714   2.864  1.2628 -0.4766 -0.3723
12783SOL     OW40790   4.504   3.312   7.787  0.0585 -0.2576  0.2450
12783SOL    HW140791   4.575   3.267   7.833  0.0364 -0.5533 -0.0048
12783SOL    HW240792   4.547   3.355   7.713 -0.1624 -1.3362 -0.5420
12784SOL     OW40793   6.113   6.623   8.924  0.0141 -0.1316  0.2883
12784SOL    HW140794   6.199   6.617   8.965  0.0736 -0.8431  0.0639
12784SOL    HW240795   6.051   6.601   8.994 -0.1062  1.9828  0.8992
12785SOL     OW40796   6.323   3.838   7.175 -0.2841 -0.1232  0.1878
12785SOL    HW140797   6.335   3.822   7.081  0.4998  0.5768  0.1567
12785SOL    HW240798   6.266   3.915   7.179 -1.4346 -0.9507  0.3141
12786SOL     OW40799   7.796   4.611   4.296  0.5600  0.1532  0.2680
12786SOL    HW140800   7.730   4.620   4.228  1.2779  1.5252 -0.2840
12786SOL    HW240801   7.747   4.613   4.378 -0.3554 -1.8856 -0.1534
12787SOL     OW40802   3.885  10.232   0.367  0.6062 -0.2223 -0.2321
12787SOL    HW140803   3.953  10.165   0.363  0.4070 -0.4695  0.4723
12787SOL    HW240804   3.821  10.204   0.302  1.0062 -0.1716 -0.6565
12788SOL     OW40805  10.393   7.622   8.589  0.7620 -0.0514  0.4621
12788SOL    HW140806  10.449   7.631   8.666  1.7288 -1.2589 -0.0620
12788SOL    HW240807  10.396   7.707   8.546 -0.1941  0.8080  1.9922
12789SOL     OW40808   3.400  10.030   7.309 -0.4559  0.4629 -0.2139
12789SOL    HW140809   3.359   9.952   7.345 -0.5607 -0.5703 -2.4514
12789SOL    HW240810   3.493  10.012   7.311 -0.2938  1.2195  1.2248
12790SOL     OW40811   9.361   0.954   0.217  0.1116  0.3382 -0.1821
12790SOL    HW140812   9.408   0.910   0.146 -0.6839  1.5997 -1.5517
12790SOL    HW240813   9.295   0.890   0.245  0.0120  0.0571 -1.0354
12791SOL     OW40814   6.478   7.445   5.839  0.2347  0.0473  0.2091
12791SOL    HW140815   6.424   7.502   5.895 -0.0507  0.5076 -0.5263
12791SOL    HW240816   6.521   7.505   5.778 -0.4296 -0.5550 -0.8775
12792SOL     OW40817   0.981   4.235  10.212 -0.0405 -0.2578  0.1079
12792SOL    HW140818   0.890   4.205  10.211 -2.2850  5.3430 -0.2913
12792SOL    HW240819   1.019   4.201  10.131 -2.0695 -2.0240 -0.1749
12793SOL     OW40820   3.612   0.205   4.257 -0.3725 -0.4397  0.3061
12793SOL    HW140821   3.706   0.195   4.239 -0.0245 -1.5915  2.4433
12793SOL    HW240822   3.585   0.278   4.202  1.9317  0.3531  0.1083
12794SOL     OW40823   8.948   6.281   3.056 -0.4248 -0.6776  0.3968
12794SOL    HW140824   9.023   6.308   3.004 -0.8873  0.7871  0.4511
12794SOL    HW240825   8.986   6.254   3.140 -0.0226  1.7658  1.0933
12795SOL     OW40826   9.606   5.655   9.882 -0.2121  0.2350  0.7984
12795SOL    HW140827   9.692   5.643   9.923 -0.5354 -0.1260  1.3833
12795SOL    HW240828   9.625   5.655   9.788  0.5350  1.0253  0.9317
12796SOL     OW40829   0.295   5.960   0.158 -0.3004  0.0510 -0.0382
12796SOL    HW140830   0.318   6.031   0.098  1.1082  0.0033  0.3943
12796SOL    HW240831   0.312   5.880   0.108 -0.8683  0.0131 -0.1735
12797SOL     OW40832   4.615   4.171   8.232  0.1165  0.5362 -0.5142
12797SOL    HW140833   4.684   4.182   8.298 -1.2096 -1.2744  1.2843
12797SOL    HW240834   4.549   4.117   8.275 -1.5552  0.5981 -2.8350
12798SOL     OW40835   4.677   9.303   6.794 -0.1471 -0.7822  0.2772
12798SOL    HW140836   4.612   9.371   6.777 -1.7561 -2.5988 -1.4757
12798SOL    HW240837   4.761   9.349   6.791 -1.2206  1.3683  0.9088
12799SOL     OW40838   0.798   4.222   1.495  0.3270  0.3742 -0.7194
12799SOL    HW140839   0.839   4.306   1.476 -0.0559  1.7507  3.4988
12799SOL    HW240840   0.708   4.231   1.465  0.4261  1.3182 -0.7461
12800SOL     OW40841   2.192   7.589   3.182  0.3862 -0.2499 -0.2253
12800SOL    HW140842   2.203   7.678   3.218 -2.3847  0.3944 -0.7970
12800SOL    HW240843   2.169   7.535   3.258  0.8136 -0.2259 -0.0750
12801SOL     OW40844   2.386   7.769   8.095  0.7542  0.0430 -0.3553
12801SOL    HW140845   2.290   7.775   8.099  0.7613 -0.3739  2.6185
12801SOL    HW240846   2.403   7.693   8.039 -0.6788 -0.2997 -0.3648
12802SOL     OW40847   7.988   1.099  10.282  0.2055 -0.2744  0.6447
12802SOL    HW140848   8.065   1.152  10.262 -0.7366  1.2447  0.9554
12802SOL    HW240849   8.021   1.032  10.343  1.5895 -0.6390 -0.4219
12803SOL     OW40850   8.899   0.749   1.733 -0.7510  0.3784  0.4086
12803SOL    HW140851   8.993   0.757   1.722 -0.6421 -0.3860  0.7328
12803SOL    HW240852   8.863   0.767   1.646 -0.2034 -0.7751 -0.0777
12804SOL     OW40853  10.274   4.763   1.607  0.3666  0.0480  0.3596
12804SOL    HW140854  10.317   4.846   1.628  0.6113  0.1449 -0.5191
12804SOL    HW240855  10.344   4.704   1.580 -0.0628  0.3847 -1.6555
12805SOL     OW40856   5.179  10.444   5.955  0.3320  0.7419 -0.3938
12805SOL    HW140857   5.150  10.355   5.934 -1.6084  1.8976 -3.2940
12805SOL    HW240858   5.269  10.448   5.923  0.4010 -0.1567 -0.3266
12806SOL     OW40859   7.951   4.050   2.267  0.3266 -0.6994 -0.2923
12806SOL    HW140860   7.867   4.051   2.221  1.5775 -0.9543 -2.7060
12806SOL    HW240861   7.982   3.960   2.258  1.1488 -0.4565  0.0469
12807SOL     OW40862   7.924   9.124   3.652  0.3980 -0.5480  0.6347
12807SOL    HW140863   8.018   9.120   3.668  0.2957  1.8588  2.6509
12807SOL    HW240864   7.886   9.062   3.714  0.6079 -0.0230  1.3077
12808SOL     OW40865   0.384   4.738   7.148 -0.3036 -0.0734 -0.0068
12808SOL    HW140866   0.475   4.721   7.173 -0.6751 -1.3462  0.6086
12808SOL    HW240867   0.384   4.827   7.115  1.1476 -0.0135  0.0879
12809SOL     OW40868  10.071   5.629   4.613  0.0369  0.2760  0.0373
12809SOL    HW140869   9.985   5.646   4.576 -0.1054  1.1216  0.7235
12809SOL    HW240870  10.056   5.559   4.677 -0.2541  0.8280  0.5781
12810SOL     OW40871   2.569   4.773   8.417 -0.2065 -0.3539  0.5947
12810SOL    HW140872   2.613   4.858   8.415  0.0745 -0.4949  0.7474
12810SOL    HW240873   2.537   4.760   8.327  1.9000 -1.2066 -0.1043
12811SOL     OW40874   1.399   5.358   7.459 -0.6546 -0.1384 -0.7101
12811SOL    HW140875   1.469   5.419   7.435 -1.0378  1.4408  1.8137
12811SOL    HW240876   1.445   5.282   7.495 -0.0017  1.8477  3.2307
12812SOL     OW40877   5.944  10.014   5.814 -0.1950  0.1455 -0.1764
12812SOL    HW140878   5.877   9.961   5.770  0.4536 -0.0091 -1.0196
12812SOL    HW240879   5.919  10.105   5.796 -1.9797  0.2330  2.2763
12813SOL     OW40880   5.255   2.545   7.210 -0.0157 -0.4295 -0.4823
12813SOL    HW140881   5.243   2.548   7.115 -3.3803 -0.9833 -0.2054
12813SOL    HW240882   5.204   2.469   7.238  1.6463 -0.8173  1.7170
12814SOL     OW40883   7.967   5.517   4.988 -1.5141 -0.1633  0.2644
12814SOL    HW140884   8.030   5.486   5.054 -2.2650 -0.8334  0.6897
12814SOL    HW240885   7.946   5.438   4.938  0.7577  0.7119 -2.3258
12815SOL     OW40886   9.961   4.537   3.140  0.5405 -0.1627 -0.3403
12815SOL    HW140887   9.874   4.545   3.180  0.4913  0.0873 -0.4980
12815SOL    HW240888  10.003   4.621   3.156  1.1497 -0.6299  0.6545
12816SOL     OW40889   9.647   3.769   8.624 -0.6397  0.9612  0.3740
12816SOL    HW140890   9.665   3.713   8.700 -1.1908  0.9622  0.5108
12816SOL    HW240891   9.552   3.761   8.611 -0.4166  0.1371 -0.9486
12817SOL     OW40892   7.133   2.330   9.813  0.7099 -0.4364 -0.7657
12817SOL    HW140893   7.127   2.334   9.908 -3.8798  1.0850 -0.8721
12817SOL    HW240894   7.195   2.400   9.790  2.9635 -1.6965  0.9916
12818SOL     OW40895   2.598   7.312   0.044  0.2682  0.4934  0.0002
12818SOL    HW140896   2.624   7.220   0.056  0.7661  0.5645 -0.4885
12818SOL    HW240897   2.502   7.309   0.040  0.2751  0.0126  0.1202
12819SOL     OW40898   1.314   5.584   7.105  0.2533  0.1637 -0.4808
12819SOL    HW140899   1.245   5.647   7.082 -1.5258 -0.8780  1.5225
12819SOL    HW240900   1.368   5.630   7.169 -0.3533  0.0897  0.1053
12820SOL     OW40901   2.525   0.900   5.158 -0.2378  0.0423 -0.1948
12820SOL    HW140902   2.584   0.956   5.208 -0.0546  0.1156 -0.4879
12820SOL    HW240903   2.438   0.921   5.190 -0.1600  0.4213 -0.2294
12821SOL     OW40904  10.444   6.036   8.698  0.3643 -0.1422 -0.2807
12821SOL    HW140905  10.504   5.962   8.707  0.5744  0.0959  0.3495
12821SOL    HW240906  10.420   6.059   8.788 -2.5006 -1.6731 -0.5208
12822SOL     OW40907   8.150   0.410   2.365 -0.3372 -0.1951  0.5910
12822SOL    HW140908   8.177   0.502   2.364  1.7385 -0.7521  1.7639
12822SOL    HW240909   8.116   0.396   2.454 -0.2786 -0.6666  0.5398
12823SOL     OW40910   9.814   6.499   6.837 -0.1045  0.0198 -0.2152
12823SOL    HW140911   9.903   6.503   6.870 -0.0812 -0.3613 -0.2262
12823SOL    HW240912   9.788   6.407   6.848 -0.7655  0.2766  0.4933
12824SOL     OW40913   3.819   9.960   1.409  0.0019  0.3267  0.3654
12824SOL    HW140914   3.814  10.047   1.369  1.9235  0.3058 -0.0218
12824SOL    HW240915   3.892   9.917   1.365 -1.6731 -2.0139 -0.3766
12825SOL     OW40916   9.057   1.899   4.275  0.0883  0.6165  0.3171
12825SOL    HW140917   8.983   1.839   4.264 -0.9526  1.6582  1.2849
12825SOL    HW240918   9.080   1.924   4.186  0.8084 -1.4723 -0.1406
12826SOL     OW40919   3.823   6.741  10.177 -0.6974  0.3245 -0.0738
12826SOL    HW140920   3.783   6.755  10.092 -0.0051  2.7746 -0.0540
12826SOL    HW240921   3.749   6.740  10.239 -1.2601 -2.0674 -0.6784
12827SOL     OW40922   4.256   8.553   9.257 -0.2718  0.1946 -0.7415
12827SOL    HW140923   4.221   8.613   9.322 -0.1071 -0.5621  0.0700
12827SOL    HW240924   4.351   8.556   9.269 -0.3203 -1.1798  0.2057
12828SOL     OW40925   3.837   6.356   3.266 -0.3591  0.1852 -0.1129
12828SOL    HW140926   3.745   6.356   3.239 -0.9013  0.4721  1.6450
12828SOL    HW240927   3.877   6.287   3.213 -1.8147 -0.6718 -0.1562
12829SOL     OW40928   5.123   7.753   5.681 -0.7039  0.2181  0.7094
12829SOL    HW140929   5.058   7.683   5.674  0.8378 -1.1688 -0.5110
12829SOL    HW240930   5.127   7.791   5.593  3.6082 -3.1374 -0.9386
12830SOL     OW40931   9.981   7.790   2.604 -0.6159 -0.9724  0.3414
12830SOL    HW140932   9.918   7.847   2.647  0.5208 -0.8752  1.9563
12830SOL    HW240933   9.962   7.702   2.638 -0.6555 -1.1500 -0.1198
12831SOL     OW40934   5.965   3.899   1.885 -0.2378  0.1297  0.2473
12831SOL    HW140935   6.005   3.887   1.799 -0.5711 -0.3120  0.1521
12831SOL    HW240936   5.904   3.971   1.874 -0.2738  0.0791  0.1163
12832SOL     OW40937   5.184   4.861   6.581  0.2316  0.1263  0.3214
12832SOL    HW140938   5.244   4.787   6.591  1.4221  0.7724 -1.6371
12832SOL    HW240939   5.180   4.900   6.668 -0.3312 -2.1218  1.3860
12833SOL     OW40940   4.580   0.262   6.340 -0.1123  0.6995 -0.0267
12833SOL    HW140941   4.485   0.264   6.351 -0.0283 -0.5694  1.2309
12833SOL    HW240942   4.596   0.181   6.292  0.3804  0.4460  0.5495
12834SOL     OW40943   7.104   1.217   3.795  0.0206 -0.0576 -0.0605
12834SOL    HW140944   7.171   1.203   3.728  0.0485  0.3117 -0.1128
12834SOL    HW240945   7.030   1.253   3.747  0.9284  2.7358  0.4229
12835SOL     OW40946  10.231   1.424   0.914  0.0253 -0.2443 -0.4802
12835SOL    HW140947  10.178   1.493   0.874 -0.7323 -0.2543  0.4658
12835SOL    HW240948  10.285   1.469   0.979 -0.2505 -0.4898 -0.0738
12836SOL     OW40949   5.105   2.995   3.246 -0.3788 -0.3906  0.2296
12836SOL    HW140950   5.147   2.998   3.160  0.7452  0.1129  0.7712
12836SOL    HW240951   5.123   3.081   3.285 -1.3183 -0.4251  0.7652
12837SOL     OW40952   0.017   7.375   5.368  0.0982 -0.4681  0.0506
12837SOL    HW140953  -0.047   7.406   5.304  0.9912  0.6109 -0.3532
12837SOL    HW240954   0.054   7.455   5.406  0.5715 -1.0812  0.9245
12838SOL     OW40955   7.517   1.156   6.085 -0.5846  0.4335 -0.2806
12838SOL    HW140956   7.531   1.225   6.020  0.9667  0.1420 -0.2871
12838SOL    HW240957   7.526   1.201   6.169 -0.2515  0.3744 -0.2831
12839SOL     OW40958   6.817   0.849   9.765 -0.5694  0.1458  0.1462
12839SOL    HW140959   6.841   0.772   9.713 -0.0824  1.4829 -1.7256
12839SOL    HW240960   6.724   0.836   9.784 -0.3589 -1.1789  0.3712
12840SOL     OW40961   7.747   8.042   1.312  0.2355 -0.0292 -0.1996
12840SOL    HW140962   7.758   8.004   1.399  1.8955  1.3851  0.2559
12840SOL    HW240963   7.668   7.999   1.277  1.6150 -3.4131  0.4847
12841SOL     OW40964   0.532   0.440   2.335  0.1584  0.7656  0.1436
12841SOL    HW140965   0.521   0.436   2.240 -0.7725 -0.5067  0.2791
12841SOL    HW240966   0.626   0.433   2.349  0.1576 -1.3235 -0.6269
12842SOL     OW40967   1.857   4.252   6.718 -0.0046  0.1283  0.2466
12842SOL    HW140968   1.935   4.275   6.666  0.4775 -1.3897  0.2603
12842SOL    HW240969   1.847   4.158   6.706 -1.0120  0.0674  1.3977
12843SOL     OW40970   8.415   5.182   2.980  0.3088  0.7483 -0.0644
12843SOL    HW140971   8.431   5.249   3.047  0.6217  1.1246 -0.5061
12843SOL    HW240972   8.500   5.171   2.937 -0.3277  1.9942 -1.7350
12844SOL     OW40973   4.541   8.721   1.105  0.4706 -0.6075 -0.6635
12844SOL    HW140974   4.611   8.721   1.170  0.0257  0.7803 -0.1539
12844SOL    HW240975   4.488   8.798   1.126 -0.2245 -0.6515 -2.1049
12845SOL     OW40976   7.816   9.928   0.887  0.4286 -0.1594  0.1969
12845SOL    HW140977   7.834   9.999   0.949 -2.1078  0.0777  0.7715
12845SOL    HW240978   7.765   9.864   0.937 -0.1911 -0.7804 -1.1680
12846SOL     OW40979   6.601   5.872   7.770 -0.1078  0.1704  0.6519
12846SOL    HW140980   6.595   5.894   7.677 -0.2820 -0.8627  0.4013
12846SOL    HW240981   6.585   5.955   7.815 -1.0216  0.5036 -0.2289
12847SOL     OW40982   7.602   6.543   6.562 -0.5981  0.0611  0.6265
12847SOL    HW140983   7.554   6.547   6.479  0.0697  0.4877  0.2485
12847SOL    HW240984   7.676   6.486   6.544  1.0790  2.2691  0.0809
12848SOL     OW40985  10.163   0.860   3.110  0.4428 -0.5961  0.7474
12848SOL    HW140986  10.234   0.798   3.125  0.6568 -0.4248  0.4511
12848SOL    HW240987  10.119   0.828   3.031 -0.3878 -1.2281  1.4458
12849SOL     OW40988   1.182   8.113   5.710 -0.3829 -0.0181 -0.2026
12849SOL    HW140989   1.256   8.076   5.759  0.2167 -0.5432 -1.4751
12849SOL    HW240990   1.215   8.196   5.676 -0.7329  0.2511  0.1107
12850SOL     OW40991   0.739   8.784   4.189 -0.2457 -0.2933 -0.1499
12850SOL    HW140992   0.728   8.695   4.222  2.0879 -0.2071  1.0084
12850SOL    HW240993   0.673   8.835   4.235 -0.4533 -1.1124  0.4811
12851SOL     OW40994   9.660   1.538   0.690  0.5659 -0.5976  0.3886
12851SOL    HW140995   9.728   1.543   0.624  1.0314  0.1158  0.9105
12851SOL    HW240996   9.669   1.619   0.740 -0.9961 -0.2442  0.1462
12852SOL     OW40997   8.602   6.087   5.295 -1.0586  0.7011 -0.4080
12852SOL    HW140998   8.651   6.082   5.213 -1.2706 -1.7191 -0.4421
12852SOL    HW240999   8.655   6.144   5.351  0.5445  0.1248 -1.2826
12853SOL     OW41000   5.409   0.727   1.993 -0.3500 -0.6002 -0.1143
12853SOL    HW141001   5.494   0.743   2.036  0.7249  0.4071 -2.4246
12853SOL    HW241002   5.345   0.736   2.063  1.3096  0.4867  1.3628
12854SOL     OW41003   0.563   9.293   9.756 -0.0962  0.3144  0.2447
12854SOL    HW141004   0.617   9.367   9.727  0.5979  0.5548  2.0235
12854SOL    HW241005   0.491   9.333   9.804 -1.2026 -0.0717 -1.0425
12855SOL     OW41006   8.548   9.185   9.857  0.3656  0.4635  0.8244
12855SOL    HW141007   8.557   9.094   9.886 -0.2886  0.7842  2.1109
12855SOL    HW241008   8.509   9.178   9.770 -0.4085 -0.4844  1.2193
12856SOL     OW41009   3.706   9.515   7.333 -0.4882 -0.1573  0.5635
12856SOL    HW141010   3.792   9.507   7.375 -0.2903 -0.1420  0.1588
12856SOL    HW241011   3.682   9.607   7.343  0.4078  0.2700 -1.0170
12857SOL     OW41012   8.211   5.984   6.861 -0.6214 -0.8713  0.3776
12857SOL    HW141013   8.238   6.076   6.863  0.6003 -1.1272 -1.2358
12857SOL    HW241014   8.118   5.986   6.841 -0.1584  0.0639 -2.0503
12858SOL     OW41015   2.819   5.113   3.036  0.1361  0.2759 -0.2806
12858SOL    HW141016   2.880   5.057   3.085  1.9217  1.4822 -1.0057
12858SOL    HW241017   2.796   5.183   3.098 -0.5397 -0.1643 -0.0160
12859SOL     OW41018   7.052   1.868   2.501 -0.0841  0.1980  0.3791
12859SOL    HW141019   7.122   1.840   2.442 -0.7699 -0.8579  0.0253
12859SOL    HW241020   7.039   1.961   2.481  0.4056  0.1101 -0.3976
12860SOL     OW41021   0.227   9.994   7.058  0.8077  0.1117  0.8548
12860SOL    HW141022   0.291   9.932   7.093  2.0307 -0.0432 -1.4553
12860SOL    HW241023   0.275  10.077   7.053  1.3544 -0.2676 -2.0153
12861SOL     OW41024   8.134   9.800   6.431 -0.3431  0.5265  0.1964
12861SOL    HW141025   8.055   9.826   6.384  0.8746  1.6829 -1.2962
12861SOL    HW241026   8.140   9.705   6.417 -1.2897  0.4787  0.0776
12862SOL     OW41027   3.884   2.041   6.596  0.1621 -0.1999  0.3197
12862SOL    HW141028   3.954   2.080   6.542 -0.2923 -2.7549 -2.3719
12862SOL    HW241029   3.884   1.949   6.572 -1.6494 -1.0585  3.1475
12863SOL     OW41030   6.373   8.705   5.841 -0.0969  0.6710  0.6471
12863SOL    HW141031   6.298   8.740   5.792 -0.0213  0.4569  0.3780
12863SOL    HW241032   6.429   8.781   5.857 -0.7769  0.9935  1.5923
12864SOL     OW41033  10.031   1.216   9.858 -1.1148 -0.0535  0.1130
12864SOL    HW141034  10.099   1.283   9.856  0.9945 -1.9923  1.0014
12864SOL    HW241035  10.025   1.185   9.768 -1.6552  0.8807 -0.1811
12865SOL     OW41036   3.118   5.590   2.341 -0.3559 -0.4589  0.5721
12865SOL    HW141037   3.202   5.600   2.385  0.0335  1.4572 -0.4724
12865SOL    HW241038   3.056   5.637   2.396 -0.3055  0.0054  0.2371
12866SOL     OW41039  10.239  10.042   6.944  0.2756 -0.0829 -0.4566
12866SOL    HW141040  10.179   9.968   6.956  0.5806 -0.0910  1.4087
12866SOL    HW241041  10.322  10.011   6.980  1.4277 -0.0488 -2.9353
12867SOL     OW41042   2.330   0.257   6.398  0.5753  0.0121  0.1724
12867SOL    HW141043   2.385   0.335   6.382  1.4149 -0.5461  0.2873
12867SOL    HW241044   2.372   0.188   6.347 -0.1179 -0.3947  0.1434
12868SOL     OW41045   5.389   1.653   9.087  0.1839 -0.2237 -0.5204
12868SOL    HW141046   5.395   1.588   9.157 -0.4672  1.8896  1.6348
12868SOL    HW241047   5.474   1.697   9.087 -0.7416  1.7617  1.1232
12869SOL     OW41048   7.556   2.065   5.776  0.2209 -0.2553 -0.3010
12869SOL    HW141049   7.519   2.133   5.718 -1.7025 -1.0581 -0.0759
12869SOL    HW241050   7.601   2.005   5.716 -0.5223 -0.2996 -0.8340
12870SOL     OW41051   5.043   6.702   9.563 -0.5215 -0.3090 -0.4055
12870SOL    HW141052   5.088   6.691   9.647  0.3512 -2.0177 -1.0433
12870SOL    HW241053   4.970   6.761   9.582  0.1448  0.0113  1.3550
12871SOL     OW41054   7.663   7.192   6.029 -0.2950  0.7137 -0.1841
12871SOL    HW141055   7.696   7.236   5.951  0.1051  2.5497  0.9487
12871SOL    HW241056   7.634   7.263   6.086  0.4126 -0.4892  1.7830
12872SOL     OW41057   0.289   8.742   4.795 -0.8223 -0.1106  0.1873
12872SOL    HW141058   0.257   8.687   4.866 -1.4187  3.9345  3.4422
12872SOL    HW241059   0.383   8.750   4.810 -0.1504 -2.3534 -2.0824
12873SOL     OW41060   0.194   3.691   2.458  0.0355 -0.1392 -0.1508
12873SOL    HW141061   0.173   3.599   2.445  1.3858 -0.4518 -0.3178
12873SOL    HW241062   0.267   3.690   2.521 -0.4764  0.8633  0.4809
12874SOL     OW41063   0.180   6.419   5.031  0.6287  1.1492  0.1428
12874SOL    HW141064   0.135   6.503   5.017  2.0506  2.3153  2.0029
12874SOL    HW241065   0.156   6.394   5.120  1.7892  0.6107  0.3169
12875SOL     OW41066  10.181   7.634   1.178 -0.6652 -0.9961 -0.3061
12875SOL    HW141067  10.149   7.563   1.233  1.7913 -0.7392  1.6513
12875SOL    HW241068  10.132   7.711   1.208  0.4147 -0.9229  1.4286
12876SOL     OW41069   2.532  10.114   2.361  0.3841  0.3503 -0.2388
12876SOL    HW141070   2.449  10.118   2.314  0.5505 -0.4589 -0.6230
12876SOL    HW241071   2.576  10.196   2.338 -0.0527  0.5146 -0.5158
12877SOL     OW41072   8.346   5.037   4.980  0.6619  0.1522 -0.1078
12877SOL    HW141073   8.270   5.020   5.035  2.1678 -0.0726  1.9970
12877SOL    HW241074   8.378   4.950   4.956  0.4692  0.2456 -0.7386
12878SOL     OW41075   7.881   8.632   8.937 -0.0539  0.3812  0.2432
12878SOL    HW141076   7.911   8.600   8.852  0.4674  0.2948  0.4559
12878SOL    HW241077   7.960   8.632   8.992 -0.8817 -2.3050  1.5750
12879SOL     OW41078   7.151   1.712   3.614  0.3545  0.2134  0.4319
12879SOL    HW141079   7.136   1.684   3.524 -2.6902  0.2186  0.8333
12879SOL    HW241080   7.102   1.794   3.622 -0.1406 -0.2106  2.2949
12880SOL     OW41081   5.595   1.381   5.489  0.1680 -0.0054 -0.1425
12880SOL    HW141082   5.642   1.307   5.451 -0.1016 -0.5449  0.5527
12880SOL    HW241083   5.548   1.420   5.416 -1.1960 -1.6604 -0.2170
12881SOL     OW41084   3.412   2.469   7.535  0.6563 -0.1042 -0.1595
12881SOL    HW141085   3.407   2.381   7.572  1.6990 -0.2602 -0.3708
12881SOL    HW241086   3.326   2.483   7.494  0.1164 -0.6139  0.7597
12882SOL     OW41087   8.180   1.237   5.410  0.7006 -0.2085  0.0735
12882SOL    HW141088   8.128   1.241   5.490  0.5623  0.0545 -0.0281
12882SOL    HW241089   8.174   1.146   5.382 -0.5581  0.0332 -0.4993
12883SOL     OW41090   5.116   5.909   4.522 -0.8408 -0.0014 -0.0321
12883SOL    HW141091   5.075   5.920   4.437 -1.4417  0.5404  0.3176
12883SOL    HW241092   5.189   5.972   4.521 -1.4005  0.6670  0.1849
12884SOL     OW41093   6.196   0.512   2.534  0.2415 -0.3852 -0.1049
12884SOL    HW141094   6.248   0.483   2.610 -0.6148 -3.0102 -0.4149
12884SOL    HW241095   6.259   0.559   2.479  1.3103  0.0051  1.3636
12885SOL     OW41096   8.940   3.431   4.491  0.7142  0.1024  0.0587
12885SOL    HW141097   8.961   3.473   4.407 -0.1149  1.4252  0.4798
12885SOL    HW241098   9.018   3.445   4.545  1.0426 -0.2854 -0.3015
12886SOL     OW41099   6.813   2.102   1.448 -0.4032  0.2385  0.0441
12886SOL    HW141100   6.775   2.178   1.493 -0.7773  0.1762 -0.1636
12886SOL    HW241101   6.900   2.132   1.420 -1.7902  1.8140 -3.0797
12887SOL     OW41102   9.891   3.653   7.148 -0.0506  0.0489  0.1709
12887SOL    HW141103   9.944   3.577   7.126  1.0254  0.6425  0.6577
12887SOL    HW241104   9.886   3.704   7.067  2.0517  1.1197  0.6558
12888SOL     OW41105   5.624   0.067   1.150  0.2353  0.1065  0.6247
12888SOL    HW141106   5.545   0.039   1.103  1.2898  0.9646 -1.8104
12888SOL    HW241107   5.653  -0.012   1.196  0.2986 -1.4744 -1.9296
12889SOL     OW41108   4.276   6.211   8.594 -0.2168  0.2185  0.1380
12889SOL    HW141109   4.320   6.174   8.671  0.0280  0.8283  0.3003
12889SOL    HW241110   4.230   6.137   8.555  0.5829 -0.3496  0.2267
12890SOL     OW41111   1.272   1.684   6.194 -0.0450  0.6935  0.1554
12890SOL    HW141112   1.224   1.749   6.143 -2.0473 -0.5863  0.2983
12890SOL    HW241113   1.263   1.712   6.285 -2.2089 -0.4835  0.3702
12891SOL     OW41114   6.165   7.997   2.042 -0.0439 -0.2844  0.5099
12891SOL    HW141115   6.098   8.010   1.975  0.5172 -0.4481 -0.0923
12891SOL    HW241116   6.122   8.020   2.124 -0.9966 -0.9017  0.1966
12892SOL     OW41117   5.007   4.467   3.642  0.8541 -0.2836  0.0744
12892SOL    HW141118   5.018   4.532   3.573 -1.0738 -0.8244 -0.8216
12892SOL    HW241119   4.963   4.514   3.713  0.3352 -0.3631 -0.1888
12893SOL     OW41120   4.588   3.237   5.329  1.1364 -0.3372  0.3535
12893SOL    HW141121   4.613   3.175   5.397 -0.4018 -0.4668  0.8298
12893SOL    HW241122   4.584   3.322   5.374  0.1891 -0.4120  0.4344
12894SOL     OW41123   1.771   7.873   6.632 -0.2261 -0.1731  0.0251
12894SOL    HW141124   1.769   7.966   6.610 -2.7930 -0.2624 -0.4762
12894SOL    HW241125   1.804   7.830   6.554 -0.4450  0.2187 -0.2874
12895SOL     OW41126   1.815   3.355   2.390  0.3542 -0.0857 -0.7907
12895SOL    HW141127   1.720   3.341   2.396  0.4507 -0.1141  1.4159
12895SOL    HW241128   1.830   3.441   2.430  1.5782 -1.8361  3.0429
12896SOL     OW41129   5.762   4.264   9.803 -0.1888  0.5143  0.4686
12896SOL    HW141130   5.741   4.172   9.792 -1.9410  0.8252  0.9308
12896SOL    HW241131   5.799   4.270   9.891  0.4801  0.1874  0.2195
12897SOL     OW41132   4.712   5.474   1.521  0.1070  0.4379  0.1592
12897SOL    HW141133   4.720   5.535   1.448 -0.7973  1.5769  0.9765
12897SOL    HW241134   4.719   5.529   1.599  0.0382 -0.6119  0.9300
12898SOL     OW41135   1.543   1.422   4.537  0.1366 -0.0484 -0.3955
12898SOL    HW141136   1.513   1.348   4.484  0.0909 -0.3950  0.1022
12898SOL    HW241137   1.592   1.477   4.476  1.8043 -1.4398 -0.3973
12899SOL     OW41138   8.372   2.617   2.477  0.4319  0.0919  0.0543
12899SOL    HW141139   8.417   2.535   2.458  0.5756  0.1700  0.0549
12899SOL    HW241140   8.426   2.659   2.544 -0.0902 -0.2046  0.6766
12900SOL     OW41141   9.315   1.631   4.419 -0.3442 -0.2086 -0.1792
12900SOL    HW141142   9.326   1.701   4.484 -0.5174 -0.6268  0.3040
12900SOL    HW241143   9.272   1.561   4.467  1.2348 -1.2693 -0.2422
12901SOL     OW41144  10.072   0.785   4.347  0.0447  0.0783  0.0671
12901SOL    HW141145  10.151   0.763   4.397 -1.3356 -0.7064  2.0056
12901SOL    HW241146  10.105   0.802   4.258  2.4945  0.6807  0.9899
12902SOL     OW41147   8.871   1.999   8.849  0.1680 -0.0891 -0.5526
12902SOL    HW141148   8.921   1.941   8.906 -1.7193 -0.5897  0.6739
12902SOL    HW241149   8.826   1.941   8.788 -0.6455  0.1741 -0.2127
12903SOL     OW41150   9.992   5.897   4.647  0.0065 -0.1029 -0.0958
12903SOL    HW141151  10.004   5.802   4.655  0.2129 -0.2325 -1.7341
12903SOL    HW241152   9.913   5.915   4.698 -0.6991 -1.3297 -0.7120
12904SOL     OW41153   7.062   3.549   2.630 -0.4293  0.0255 -0.3847
12904SOL    HW141154   6.980   3.517   2.669  0.5752 -0.9939  1.0224
12904SOL    HW241155   7.103   3.470   2.594  1.2595 -0.0402  1.5293
12905SOL     OW41156   5.251   5.040   6.832 -0.1854 -0.3367  0.3261
12905SOL    HW141157   5.173   5.005   6.875  0.4647 -1.7204  0.4185
12905SOL    HW241158   5.315   4.970   6.837  0.4411  0.0538 -1.4983
12906SOL     OW41159   1.916   1.646   2.711 -0.2566  0.2194 -0.0708
12906SOL    HW141160   1.887   1.555   2.708  0.9901 -0.1791 -1.6485
12906SOL    HW241161   1.976   1.654   2.637  0.3471  2.0930  0.5647
12907SOL     OW41162   7.032   2.638  10.037  0.1355  0.3153  0.0454
12907SOL    HW141163   7.094   2.709  10.023 -0.7460  0.7346 -2.0605
12907SOL    HW241164   7.087   2.562  10.055  1.1813  1.0437  0.0183
12908SOL     OW41165   9.767   2.068   5.673  0.5291 -0.0602 -0.0612
12908SOL    HW141166   9.830   2.066   5.601  0.9214  1.2115  0.2298
12908SOL    HW241167   9.812   2.028   5.747  0.2868 -0.9454 -0.3768
12909SOL     OW41168   0.346   2.277  10.466 -0.1593 -0.8939 -0.3144
12909SOL    HW141169   0.263   2.265  10.421  0.4262 -0.4161 -1.5625
12909SOL    HW241170   0.359   2.372  10.468 -0.2452 -0.8941  1.0168
12910SOL     OW41171   9.422   7.111  10.121 -0.4403 -0.0996  0.8957
12910SOL    HW141172   9.345   7.061  10.149 -1.8918  1.3792 -0.2368
12910SOL    HW241173   9.423   7.103  10.026  1.4448 -0.9196  0.9449
12911SOL     OW41174   9.325   6.453   6.005  0.1700  0.1017 -0.2488
12911SOL    HW141175   9.376   6.373   6.016  1.6133  0.7462 -1.8238
12911SOL    HW241176   9.313   6.486   6.095 -0.5631 -1.8873  0.4371
12912SOL     OW41177   7.521   8.818   9.680  0.2384  0.0541 -0.3989
12912SOL    HW141178   7.460   8.892   9.677  0.6374  0.4051  0.1132
12912SOL    HW241179   7.464   8.742   9.694 -0.2668  0.1301 -1.9269
12913SOL     OW41180   9.522   7.009   4.797 -0.1907 -0.4702 -0.0144
12913SOL    HW141181   9.431   6.981   4.798 -0.3771  0.0688  1.6258
12913SOL    HW241182   9.518   7.104   4.810  0.6150 -0.6363  1.7686
12914SOL     OW41183   1.532   4.177   0.473  0.0546 -0.1493 -0.3573
12914SOL    HW141184   1.438   4.197   0.474 -0.3022 -1.5929  0.6711
12914SOL    HW241185   1.563   4.204   0.560 -0.0082 -1.9757  0.2799
12915SOL     OW41186   3.649   8.689   8.320 -0.5169 -0.3424  0.0624
12915SOL    HW141187   3.618   8.653   8.403  0.6001  1.0611  1.1496
12915SOL    HW241188   3.741   8.711   8.336 -0.0537 -0.7149 -1.7970
12916SOL     OW41189   2.204   7.208   3.493 -0.4423  0.1110 -0.4573
12916SOL    HW141190   2.163   7.168   3.417 -0.0667 -1.6644  0.2058
12916SOL    HW241191   2.162   7.166   3.568 -0.9649  1.9804  0.3447
12917SOL     OW41192   8.553   8.814   7.306  0.2510  0.0192  0.3010
12917SOL    HW141193   8.599   8.752   7.363 -1.2139 -0.8207  0.6026
12917SOL    HW241194   8.464   8.817   7.340  0.2643  2.2978  0.2776
12918SOL     OW41195   4.686   5.850   5.666  0.1432 -0.1100  0.0803
12918SOL    HW141196   4.730   5.885   5.743  1.6352 -0.0842 -0.7533
12918SOL    HW241197   4.667   5.927   5.612 -0.5344 -0.1695  0.2216
12919SOL     OW41198   0.775  10.099   1.246  0.5054 -0.4855 -0.1298
12919SOL    HW141199   0.829  10.083   1.168  0.1650 -1.7281 -0.1376
12919SOL    HW241200   0.765  10.013   1.286 -2.9117 -0.6705 -1.0918
12920SOL     OW41201   6.760   8.557   0.891 -0.2484 -0.0957  0.7012
12920SOL    HW141202   6.710   8.539   0.970 -0.5482 -0.2966  0.4700
12920SOL    HW241203   6.839   8.504   0.900  0.0182  0.3698  1.1574
12921SOL     OW41204   0.194   0.872  10.188 -0.4656 -1.2009 -0.1620
12921SOL    HW141205   0.130   0.802  10.198 -0.4330 -1.0110  1.6106
12921SOL    HW241206   0.174   0.934  10.258  1.2243 -0.8110  0.0325
12922SOL     OW41207   9.164   3.608   4.602 -0.8029 -0.0181  0.9415
12922SOL    HW141208   9.168   3.667   4.677  1.6259  0.3364  0.6397
12922SOL    HW241209   9.166   3.667   4.526 -0.9291 -0.4153  0.6330
12923SOL     OW41210   7.813   0.183   2.833 -0.0460  0.7016  0.1367
12923SOL    HW141211   7.869   0.132   2.775 -0.5743  1.4054 -1.0169
12923SOL    HW241212   7.841   0.157   2.921  0.3963 -0.7795 -0.4108
12924SOL     OW41213   3.479   0.191   0.547  0.0634 -0.3393 -0.3455
12924SOL    HW141214   3.550   0.128   0.559  1.4014  0.5010 -3.0768
12924SOL    HW241215   3.520   0.276   0.563 -0.6041  0.0856 -0.8690
12925SOL     OW41216   6.497   3.475   8.753  0.2974 -0.2347  0.1745
12925SOL    HW141217   6.508   3.415   8.826  0.3183  0.5736  0.8538
12925SOL    HW241218   6.586   3.504   8.731  0.2286  0.1513  0.3831
12926SOL     OW41219   2.984   0.502   3.425  0.4401  0.4061 -0.3952
12926SOL    HW141220   2.911   0.515   3.486  2.0669 -0.9807  2.0456
12926SOL    HW241221   2.950   0.441   3.360 -0.6217 -0.1831  0.6610
12927SOL     OW41222   5.655   1.196   7.374  0.1967 -0.0030  0.0160
12927SOL    HW141223   5.584   1.234   7.322 -0.1159  0.6697  0.9077
12927SOL    HW241224   5.722   1.172   7.310  0.1680  1.5589 -0.6401
12928SOL     OW41225   4.051   7.330   5.483 -0.5092  0.1051  0.1766
12928SOL    HW141226   4.064   7.328   5.388 -0.0874 -0.7479  0.2342
12928SOL    HW241227   3.972   7.382   5.496 -0.6209  0.1563 -0.6482
12929SOL     OW41228   9.701   3.884   9.939  0.0323 -0.4556 -0.8090
12929SOL    HW141229   9.770   3.940   9.974 -1.0377  1.2844 -1.3956
12929SOL    HW241230   9.641   3.871  10.012 -0.1412 -0.1496 -0.8964
12930SOL     OW41231   8.637   2.166   6.571 -0.4873 -0.1711 -0.2698
12930SOL    HW141232   8.698   2.112   6.522 -0.9676  1.4145 -2.8076
12930SOL    HW241233   8.684   2.191   6.650 -0.0833 -3.7541  0.7735
12931SOL     OW41234   2.130   3.406   0.649  0.3386 -0.0683  0.7425
12931SOL    HW141235   2.056   3.372   0.598  0.3211 -0.2570  0.8913
12931SOL    HW241236   2.094   3.422   0.736  0.2024  0.9081  0.5121
12932SOL     OW41237   1.586   2.487   0.649 -0.5852  0.3468 -0.2104
12932SOL    HW141238   1.570   2.403   0.606 -2.1095 -0.4725  1.7817
12932SOL    HW241239   1.618   2.544   0.579 -0.8590 -1.4770 -1.9226
12933SOL     OW41240   6.879   6.435   5.413 -0.6623 -0.0069 -0.0675
12933SOL    HW141241   6.830   6.491   5.473  1.1690  0.1999  1.3398
12933SOL    HW241242   6.855   6.346   5.438 -2.3607  0.0904 -1.2376
12934SOL     OW41243   6.575   9.811   8.055 -0.6155  0.2139  0.3004
12934SOL    HW141244   6.652   9.803   7.999  0.6492  1.7647  1.7181
12934SOL    HW241245   6.536   9.723   8.054  1.3582 -0.7177 -0.1977
12935SOL     OW41246   8.036   3.682  10.408 -0.4577 -0.2274  0.4777
12935SOL    HW141247   7.978   3.676  10.484 -1.4626  0.7907 -0.1782
12935SOL    HW241248   8.117   3.719  10.444 -0.2609 -1.4584  1.3625
12936SOL     OW41249   4.144   7.494   0.798 -0.3751  0.4957 -0.8542
12936SOL    HW141250   4.119   7.506   0.706  0.0847  0.2291 -1.0186
12936SOL    HW241251   4.233   7.528   0.804 -0.4280  0.5756 -0.4906
12937SOL     OW41252   1.571   9.155   6.758  0.0123 -0.5560 -0.2803
12937SOL    HW141253   1.524   9.237   6.741  0.0742 -0.9387 -2.7461
12937SOL    HW241254   1.518   9.110   6.824 -1.3284  0.4355 -0.6274
12938SOL     OW41255   4.991   3.417  10.295 -0.1978 -0.3375  0.7214
12938SOL    HW141256   5.071   3.448  10.339  0.8290  0.7017 -1.7462
12938SOL    HW241257   4.924   3.481  10.318 -0.2709 -0.9680  2.4383
12939SOL     OW41258   3.238   8.084   2.428  0.8730 -0.3434  0.0467
12939SOL    HW141259   3.316   8.075   2.375  1.3693  1.6113  0.3496
12939SOL    HW241260   3.211   7.994   2.448  2.6370 -1.0523 -0.6070
12940SOL     OW41261  10.204  10.409   4.585 -0.1406 -0.0484  0.4156
12940SOL    HW141262  10.132  10.414   4.649  1.0141  0.2724  1.7394
12940SOL    HW241263  10.278  10.375   4.635 -0.0239 -3.0294 -1.5741
12941SOL     OW41264   2.054   2.119   1.096 -0.1849 -0.1043 -0.4604
12941SOL    HW141265   1.976   2.170   1.117 -0.0971  0.3096 -1.1017
12941SOL    HW241266   2.127   2.180   1.107 -0.1216  0.0710 -1.7237
12942SOL     OW41267   8.425   4.710  10.247 -0.3159 -0.1255  0.0159
12942SOL    HW141268   8.421   4.620  10.215  1.5437 -0.0836 -0.4427
12942SOL    HW241269   8.417   4.702  10.342  1.0818 -0.9148  0.0914
12943SOL     OW41270   1.401   0.616   8.970 -0.0170 -0.2716 -0.1743
12943SOL    HW141271   1.344   0.686   8.937  0.5938  0.7723  0.8874
12943SOL    HW241272   1.449   0.587   8.893 -0.2106  0.5595 -0.6286
12944SOL     OW41273   7.828   7.054   3.767 -0.6518 -0.0909  0.0044
12944SOL    HW141274   7.904   7.010   3.805  0.7064  0.1318 -2.2982
12944SOL    HW241275   7.832   7.143   3.801 -0.7826 -0.4703  1.0590
12945SOL     OW41276   5.285   4.166   5.150  0.0076  0.0247  0.1009
12945SOL    HW141277   5.286   4.169   5.055  0.3317 -0.9709  0.0624
12945SOL    HW241278   5.229   4.091   5.171 -1.0310  0.9451  0.7224
12946SOL     OW41279   9.498   4.355   0.936  0.1356  0.2415 -0.3798
12946SOL    HW141280   9.526   4.351   1.027  2.1290  1.1498 -0.8985
12946SOL    HW241281   9.565   4.306   0.888 -0.1630  0.8887 -1.4873
12947SOL     OW41282   7.824   8.179   1.807 -0.0407  0.2234 -0.3306
12947SOL    HW141283   7.790   8.091   1.788  0.5212  0.0853 -0.7087
12947SOL    HW241284   7.863   8.171   1.894  0.8046 -0.1442 -0.7268
12948SOL     OW41285   0.828   0.221  10.219  0.1139 -0.4033 -0.3463
12948SOL    HW141286   0.822   0.228  10.315 -0.3627 -1.0896 -0.3167
12948SOL    HW241287   0.795   0.133  10.200  1.9797 -0.9981 -0.9864
12949SOL     OW41288   4.951   2.693  10.023 -0.5101  0.3201 -0.4884
12949SOL    HW141289   4.932   2.625  10.088 -0.1791  0.6050 -0.0953
12949SOL    HW241290   5.006   2.756  10.069  0.3233  0.1671 -1.2468
12950SOL     OW41291   9.842   5.291   4.056 -0.0238  0.0943 -0.4691
12950SOL    HW141292   9.806   5.203   4.041  1.3780 -0.7996  1.0972
12950SOL    HW241293   9.863   5.292   4.149  2.5323  1.0960 -0.9820
12951SOL     OW41294   8.129   8.576   6.736  0.2904 -0.2370  0.1989
12951SOL    HW141295   8.179   8.562   6.817 -1.4593  1.7550  1.7131
12951SOL    HW241296   8.038   8.560   6.761 -0.2741  0.1465 -1.4845
12952SOL     OW41297   4.686   1.685   1.335  0.1781 -0.5073 -0.4434
12952SOL    HW141298   4.758   1.689   1.273  0.0938 -2.9539 -0.7899
12952SOL    HW241299   4.721   1.636   1.410 -0.9417 -1.2327 -0.3725
12953SOL     OW41300   9.091   5.429   8.910  0.1735 -0.0222  0.3174
12953SOL    HW141301   9.030   5.501   8.926 -1.3724 -1.5065  1.4679
12953SOL    HW241302   9.041   5.366   8.859  1.9366  0.2390 -1.9131
12954SOL     OW41303   8.800   4.815   5.430  0.0551  0.7031  0.3791
12954SOL    HW141304   8.783   4.907   5.451  0.1991  1.4902 -2.5438
12954SOL    HW241305   8.892   4.812   5.403  0.0797 -0.3150  0.5094
12955SOL     OW41306  10.231   1.258  10.137  0.8883 -0.4527  0.6187
12955SOL    HW141307  10.237   1.345  10.175  1.7454  0.0934 -0.6573
12955SOL    HW241308  10.146   1.224  10.165 -1.1767  2.2451 -1.7294
12956SOL     OW41309   8.603   2.049   3.910  0.1194  0.5264  0.3263
12956SOL    HW141310   8.602   1.957   3.886 -0.8543  0.6377 -0.1215
12956SOL    HW241311   8.536   2.089   3.854  0.3251  1.4468  0.7209
12957SOL     OW41312  10.088   5.564   2.446 -0.5206  0.0217 -0.0706
12957SOL    HW141313  10.052   5.477   2.425 -1.4312  0.4146 -0.1560
12957SOL    HW241314  10.068   5.617   2.369  2.5043 -0.3617 -1.2647
12958SOL     OW41315   5.105   4.744   8.016 -0.5027  1.0101 -0.1301
12958SOL    HW141316   5.107   4.665   8.070 -0.0283  1.3393  0.3424
12958SOL    HW241317   5.128   4.714   7.928 -0.4067  0.6099  0.0309
12959SOL     OW41318   0.535   9.836   5.593 -0.1730  0.2883  0.1554
12959SOL    HW141319   0.572   9.750   5.571 -0.0155  0.6217 -0.9104
12959SOL    HW241320   0.441   9.826   5.577 -0.1416  0.3416 -0.0659
12960SOL     OW41321   3.378   8.564   6.508 -0.8659  0.4525  0.0243
12960SOL    HW141322   3.329   8.628   6.560  1.4049  2.1084  0.3082
12960SOL    HW241323   3.463   8.605   6.495  0.7901 -2.5918  0.3230
12961SOL     OW41324   3.339   7.337   2.296 -0.4173  0.1748 -0.3313
12961SOL    HW141325   3.405   7.272   2.269 -0.5354  0.6173 -1.8019
12961SOL    HW241326   3.390   7.412   2.326 -0.0955  1.2244 -3.1326
12962SOL     OW41327   2.696   3.312   4.832 -0.1560  0.0736  0.6476
12962SOL    HW141328   2.666   3.391   4.876 -0.5255  0.4061 -0.1804
12962SOL    HW241329   2.622   3.285   4.777  0.9422  0.8381 -1.3390
12963SOL     OW41330   7.937   1.437   8.582 -0.2408  0.6680  0.1306
12963SOL    HW141331   7.951   1.465   8.673  1.1973 -0.3934  0.2821
12963SOL    HW241332   8.025   1.421   8.548 -0.7627  0.9471 -1.4340
12964SOL     OW41333   2.148   2.461   2.317 -0.5810 -0.3793  0.0696
12964SOL    HW141334   2.177   2.415   2.395  1.8837  0.7972 -0.0797
12964SOL    HW241335   2.192   2.546   2.321 -0.4596 -0.2405 -2.5267
12965SOL     OW41336   2.329   2.488   4.196  0.0663  0.0816 -0.4372
12965SOL    HW141337   2.344   2.447   4.281  3.5798 -0.1440 -1.0295
12965SOL    HW241338   2.264   2.432   4.154 -0.0890 -1.0818  1.2473
12966SOL     OW41339   4.695   1.224  10.490 -0.4636 -0.0689  0.5750
12966SOL    HW141340   4.622   1.173  10.454  0.4455 -1.8901  1.1997
12966SOL    HW241341   4.724   1.280  10.417 -2.3943  0.6480  0.2979
12967SOL     OW41342  10.280   5.123   0.402  0.0486  0.3708  0.0054
12967SOL    HW141343  10.220   5.078   0.462  0.0516 -1.4817 -1.2634
12967SOL    HW241344  10.367   5.099   0.434  0.0801 -2.1805 -1.6518
12968SOL     OW41345   4.154   2.580   9.182  0.0470  0.6908 -0.6217
12968SOL    HW141346   4.192   2.652   9.131 -0.8822  0.9229 -1.0250
12968SOL    HW241347   4.101   2.624   9.249 -0.2727  0.3918 -0.6715
12969SOL     OW41348   8.833   2.278   8.841  0.1727  0.3594 -0.0362
12969SOL    HW141349   8.850   2.185   8.857  0.4219  0.4852  0.4320
12969SOL    HW241350   8.770   2.303   8.908 -0.0542  0.4778 -0.2942
12970SOL     OW41351   1.549   2.150   1.497 -0.6711  0.1684  0.3320
12970SOL    HW141352   1.590   2.065   1.482 -1.0966  0.2020 -1.2420
12970SOL    HW241353   1.535   2.154   1.592 -0.0457 -1.2280  0.5064
12971SOL     OW41354   7.291   1.131  10.354  0.0464 -0.4483  0.0871
12971SOL    HW141355   7.325   1.048  10.387 -0.4387 -0.8445 -0.3996
12971SOL    HW241356   7.369   1.185  10.339  0.4671 -1.3186 -0.9449
12972SOL     OW41357   9.615   3.218   2.537  0.2123 -0.5361  0.0085
12972SOL    HW141358   9.615   3.270   2.457 -0.0202  1.7432  1.4132
12972SOL    HW241359   9.638   3.129   2.507  1.0786  0.4045 -2.4279
12973SOL     OW41360   9.401   9.848   8.354  0.1973  0.1260  0.3016
12973SOL    HW141361   9.429   9.825   8.266 -0.1261  1.2058 -0.0943
12973SOL    HW241362   9.462   9.915   8.383  0.2558 -0.1663  0.8752
12974SOL     OW41363   2.693   0.302   5.126  0.1003  1.0490  0.1080
12974SOL    HW141364   2.648   0.307   5.041  0.5063 -0.9087 -0.2619
12974SOL    HW241365   2.779   0.341   5.111  1.2939 -1.8401 -1.2500
12975SOL     OW41366   8.723   0.645   5.946 -0.5126  0.6670  0.2619
12975SOL    HW141367   8.800   0.594   5.920  0.0567  0.9276  1.3770
12975SOL    HW241368   8.697   0.691   5.866  0.2386  0.2657 -0.2290
12976SOL     OW41369   1.463  10.009   8.380 -0.5207 -0.0108 -0.3101
12976SOL    HW141370   1.493  10.080   8.437 -0.1474  0.7293 -1.3960
12976SOL    HW241371   1.519   9.935   8.402 -1.0834 -0.0746  1.0157
12977SOL     OW41372   8.863   9.576   6.498  0.3671 -0.2535 -0.3795
12977SOL    HW141373   8.790   9.538   6.450 -0.4166  1.0959 -0.3047
12977SOL    HW241374   8.922   9.609   6.429 -0.8271  1.8133 -0.4844
12978SOL     OW41375   0.869   9.501   8.574 -0.0137  0.2675 -0.0077
12978SOL    HW141376   0.964   9.504   8.568  0.1088  0.0556  1.4509
12978SOL    HW241377   0.850   9.411   8.602 -0.5202  0.7525  1.2649
12979SOL     OW41378   9.633   9.835   3.583  0.3944 -0.5612  0.0440
12979SOL    HW141379   9.617   9.827   3.677  0.5254 -0.0586  0.1128
12979SOL    HW241380   9.631   9.745   3.551 -0.0149 -0.7082  0.4668
12980SOL     OW41381   0.691   2.958   1.937  0.4613 -0.4598 -0.2387
12980SOL    HW141382   0.672   2.976   1.845 -2.4147 -1.2217  0.0981
12980SOL    HW241383   0.781   2.986   1.949  0.2550  1.6730 -2.7611
12981SOL     OW41384   8.352   2.282   1.515 -0.0457  0.2732 -0.4957
12981SOL    HW141385   8.360   2.375   1.537 -1.5251  0.0242  1.3646
12981SOL    HW241386   8.419   2.267   1.449  1.2240  2.3371  0.2220
12982SOL     OW41387   1.147   1.716   6.532 -0.1704  0.6470  0.2327
12982SOL    HW141388   1.144   1.627   6.495  1.7788  1.3825 -1.9464
12982SOL    HW241389   1.103   1.770   6.466  0.8940  1.6236  0.3154
12983SOL     OW41390   6.836   5.266   1.839  0.1141  0.1073 -0.4208
12983SOL    HW141391   6.812   5.194   1.898 -2.9333  1.0094 -0.3867
12983SOL    HW241392   6.881   5.329   1.895 -0.9908  0.0853  0.5176
12984SOL     OW41393   9.609   5.157   2.510 -0.2957 -0.2614  0.1552
12984SOL    HW141394   9.523   5.173   2.471 -0.1876 -0.1348 -0.0292
12984SOL    HW241395   9.603   5.194   2.598 -0.9032 -1.5139  0.6689
12985SOL     OW41396   6.134   5.734   3.465  0.2817  0.2915  0.0920
12985SOL    HW141397   6.220   5.715   3.428  1.3561  0.6197  2.2687
12985SOL    HW241398   6.138   5.827   3.489 -1.0972  0.5968 -0.7623
12986SOL     OW41399   6.586   1.835   1.908 -0.3368 -0.0829 -0.5588
12986SOL    HW141400   6.586   1.762   1.970  1.3159 -0.1279 -0.5609
12986SOL    HW241401   6.590   1.913   1.963  0.3004 -0.0937 -0.5818
12987SOL     OW41402   3.213   8.717   1.216  0.4476 -0.3620  0.4313
12987SOL    HW141403   3.255   8.637   1.182 -0.0044 -0.6810  0.6070
12987SOL    HW241404   3.173   8.689   1.298  0.7515  0.1835  0.7618
12988SOL     OW41405   6.330  10.358   0.792  0.3455 -0.4720  0.1578
12988SOL    HW141406   6.368  10.433   0.746 -1.1632 -1.3891 -2.8265
12988SOL    HW241407   6.243  10.388   0.820  0.9817 -0.1483  1.9451
12989SOL     OW41408   1.074   7.009   0.346  0.2103 -0.4092  0.7238
12989SOL    HW141409   1.082   6.979   0.437  0.1946  0.9494  1.2077
12989SOL    HW241410   1.141   6.961   0.298  3.5300  2.1570  2.3726
12990SOL     OW41411   3.360   4.604   0.258 -0.2078 -0.5039  0.6251
12990SOL    HW141412   3.341   4.529   0.314  1.8008 -1.5903 -0.0473
12990SOL    HW241413   3.440   4.641   0.294 -0.7871  0.9286  0.5148
12991SOL     OW41414   2.603   9.610   4.355 -0.3324  0.4669  0.0598
12991SOL    HW141415   2.513   9.642   4.364 -0.4200  0.3288 -0.2881
12991SOL    HW241416   2.649   9.645   4.431 -0.4732  1.2534 -0.2069
12992SOL     OW41417   9.101   8.726   2.674 -0.7561 -0.3283 -0.2088
12992SOL    HW141418   9.032   8.719   2.739 -0.1588 -1.3210  0.3505
12992SOL    HW241419   9.074   8.799   2.618 -0.4981  1.6076  2.0529
12993SOL     OW41420   3.799   3.303   9.338 -0.1685  0.3920  0.1389
12993SOL    HW141421   3.758   3.375   9.290 -0.7566 -0.4389 -0.6416
12993SOL    HW241422   3.879   3.340   9.373 -0.9931  1.7273  0.6750
12994SOL     OW41423   6.602   4.872   6.709 -0.1898 -0.5429 -0.1203
12994SOL    HW141424   6.590   4.796   6.652 -0.1781 -0.1901 -0.6056
12994SOL    HW241425   6.527   4.870   6.769 -0.8633 -0.2508 -0.9352
12995SOL     OW41426   0.569   6.422   2.832 -0.6894  0.0414  0.2349
12995SOL    HW141427   0.562   6.341   2.781  0.4188 -0.4335  0.8057
12995SOL    HW241428   0.588   6.489   2.767 -2.6624  0.0752 -0.3859
12996SOL     OW41429   1.977   4.561   1.097  0.0709  0.0638  0.0084
12996SOL    HW141430   2.045   4.521   1.043  0.8775 -1.0734  1.7744
12996SOL    HW241431   1.971   4.504   1.174 -0.9074  1.7025  1.2041
12997SOL     OW41432   5.600   2.972   5.570  0.6622  0.1636 -0.1941
12997SOL    HW141433   5.690   2.946   5.589  0.9085  1.7118  0.9646
12997SOL    HW241434   5.552   2.952   5.650  0.0165 -0.3951 -0.7093
12998SOL     OW41435   5.037   4.690   6.062  0.0742  0.1413  0.8511
12998SOL    HW141436   5.009   4.776   6.094 -1.2746  0.6415 -1.4002
12998SOL    HW241437   4.966   4.631   6.085 -0.2291  0.2034  0.0974
12999SOL     OW41438   9.385   8.523   3.259 -0.6369  0.8276  0.1384
12999SOL    HW141439   9.361   8.580   3.186 -1.8575 -0.1312 -0.2615
12999SOL    HW241440   9.306   8.520   3.314 -0.8297 -0.9101 -0.1704
13000SOL     OW41441   2.045   6.859   5.728  0.1160 -0.4019 -0.2824
13000SOL    HW141442   2.033   6.859   5.823 -0.5676 -0.1227 -0.3552
13000SOL    HW241443   2.060   6.768   5.705 -0.9050 -0.6446 -0.0312
13001SOL     OW41444   6.818   0.195   3.413  0.0159  0.3943  0.1843
13001SOL    HW141445   6.888   0.157   3.466 -0.7556 -0.9908  0.2312
13001SOL    HW241446   6.741   0.195   3.469 -0.7640 -0.9038 -0.8318
13002SOL     OW41447   4.119  10.398   4.281  0.1761 -0.3654  0.3644
13002SOL    HW141448   4.119  10.337   4.208  0.4855  0.9651 -0.7983
13002SOL    HW241449   4.212  10.412   4.301  0.2317  1.3975 -0.8906
13003SOL     OW41450   6.970   4.378   5.172  0.1686  0.1216  0.1432
13003SOL    HW141451   6.944   4.290   5.199  1.9079 -0.8472 -1.1669
13003SOL    HW241452   7.021   4.412   5.246  0.9141 -0.6568  0.0049
13004SOL     OW41453   0.204   2.351   3.612  0.7993  0.1633 -0.0179
13004SOL    HW141454   0.128   2.307   3.575  0.1557  1.2646 -0.0566
13004SOL    HW241455   0.174   2.383   3.697  1.1609  0.7628 -0.1112
13005SOL     OW41456  10.365   0.271   7.622 -0.0086  0.0427  0.0843
13005SOL    HW141457  10.424   0.280   7.547 -1.8247  1.8259 -1.2242
13005SOL    HW241458  10.346   0.178   7.627  1.4433 -0.3129 -0.6157
13006SOL     OW41459   3.866  10.033   4.288 -0.4848 -0.2495  0.0293
13006SOL    HW141460   3.929   9.991   4.230 -1.9685  0.7813 -2.4716
13006SOL    HW241461   3.788   9.979   4.284 -0.7344  0.0276  0.8213
13007SOL     OW41462   3.914   7.508   4.976 -0.4263 -0.5366  0.3950
13007SOL    HW141463   3.972   7.580   4.950 -1.4869  0.2223  0.0777
13007SOL    HW241464   3.926   7.443   4.907 -0.1835 -0.2466  0.1575
13008SOL     OW41465   6.431   2.975   8.523 -0.5116 -0.4541  0.0730
13008SOL    HW141466   6.366   2.906   8.539 -2.0796  1.0843  0.7272
13008SOL    HW241467   6.465   2.996   8.610 -0.6459  0.1431 -0.0157
13009SOL     OW41468   5.426   1.057   4.953  0.6392 -0.4682  0.7977
13009SOL    HW141469   5.448   0.999   5.026  1.7893 -0.3241  0.5933
13009SOL    HW241470   5.458   1.143   4.981 -0.4337 -0.0625  0.8132
13010SOL     OW41471   6.062   7.895   9.331  0.5691 -0.3893 -0.1277
13010SOL    HW141472   6.051   7.808   9.291 -0.8908  0.1958 -1.0814
13010SOL    HW241473   5.990   7.901   9.394  1.5389 -0.4129  1.0367
13011SOL     OW41474   1.105  10.036   8.889 -0.2775  0.5441 -0.3054
13011SOL    HW141475   1.062  10.043   8.974 -0.0044 -0.4115 -0.0715
13011SOL    HW241476   1.118   9.942   8.877 -0.9313  0.6030 -1.7184
13012SOL     OW41477   5.347   4.214   4.021 -0.1574  0.8108  0.1568
13012SOL    HW141478   5.340   4.272   3.945  0.2767  0.2281 -0.3431
13012SOL    HW241479   5.256   4.192   4.042 -0.3201  1.6061  0.3094
13013SOL     OW41480   7.708   8.488   5.617 -0.3838  0.2456  0.4113
13013SOL    HW141481   7.730   8.396   5.598  0.4899  0.2964  1.1216
13013SOL    HW241482   7.774   8.539   5.570 -2.1493  0.6548 -1.8437
13014SOL     OW41483   0.284  10.066   8.954 -0.2700 -0.1993 -0.7480
13014SOL    HW141484   0.359  10.109   8.994  0.7288  0.0476 -2.7576
13014SOL    HW241485   0.224  10.050   9.027 -0.5782  4.2041  0.2500
13015SOL     OW41486   8.154   3.780   0.643  0.0707 -0.9463 -0.2847
13015SOL    HW141487   8.201   3.729   0.577 -0.0766 -0.1696 -1.0163
13015SOL    HW241488   8.218   3.844   0.674 -0.6124  0.4935 -1.7022
13016SOL     OW41489   9.068   4.048   9.779  0.4379  0.2454 -0.1705
13016SOL    HW141490   8.978   4.075   9.761  1.3217  2.6256 -1.4871
13016SOL    HW241491   9.104   4.026   9.693  2.0112  2.5632 -0.1783
13017SOL     OW41492   9.306   6.491   0.333  0.4714  0.0533 -0.0884
13017SOL    HW141493   9.232   6.453   0.382  1.5199  0.7345  2.1785
13017SOL    HW241494   9.290   6.585   0.334  0.9570  0.1396 -0.2924
13018SOL     OW41495   6.856   5.980   0.350  0.1292  0.1110  0.2758
13018SOL    HW141496   6.803   6.027   0.285  0.2373 -0.3259 -0.1408
13018SOL    HW241497   6.818   5.892   0.352  0.8861 -0.2335 -0.0962
13019SOL     OW41498   9.561   1.977   2.136  0.6095  0.7124 -0.0171
13019SOL    HW141499   9.534   2.057   2.181  2.0759  1.6356 -0.7288
13019SOL    HW241500   9.652   1.963   2.163  0.5770 -0.3781 -0.4015
13020SOL     OW41501   2.068   7.109   2.500  0.8778  0.4191  0.1564
13020SOL    HW141502   2.098   7.041   2.439  0.3241  0.2194  0.0955
13020SOL    HW241503   2.058   7.063   2.584 -1.7069 -0.1536 -0.3922
13021SOL     OW41504   0.522   5.738   9.785 -0.3515 -0.0864  0.3996
13021SOL    HW141505   0.480   5.821   9.764  0.0271 -0.2673 -1.1749
13021SOL    HW241506   0.545   5.746   9.877 -2.8750  0.4191  1.0670
13022SOL     OW41507   7.747   5.208  10.216  0.5307 -0.1806 -0.0613
13022SOL    HW141508   7.831   5.167  10.235 -0.6128 -2.6791  0.0036
13022SOL    HW241509   7.761   5.255  10.134  2.9004  2.6246  1.7220
13023SOL     OW41510   6.716   4.411   1.930 -0.3035 -0.4701 -0.0268
13023SOL    HW141511   6.793   4.438   1.879  1.9087  0.7732  3.6170
13023SOL    HW241512   6.751   4.353   1.997 -2.1991  1.3365  2.7380
13024SOL     OW41513   1.977   6.151   6.681  0.2026  0.0166 -0.5595
13024SOL    HW141514   1.922   6.073   6.691 -1.9646  1.3866 -1.0345
13024SOL    HW241515   2.011   6.146   6.591 -0.0811 -0.2944 -0.6486
13025SOL     OW41516   3.349   9.498   3.147  0.2528  0.4114 -0.4386
13025SOL    HW141517   3.310   9.452   3.221  2.5045 -0.0610  0.5135
13025SOL    HW241518   3.367   9.430   3.083  1.9007  0.1830  0.2233
13026SOL     OW41519   9.939   4.291   4.552  0.1116 -0.8873 -0.0459
13026SOL    HW141520   9.971   4.269   4.464  0.5699 -0.1048 -0.0899
13026SOL    HW241521   9.844   4.292   4.543  0.1539 -0.8765 -0.5260
13027SOL     OW41522   7.795   6.814   1.818  0.5096 -0.2696 -0.0040
13027SOL    HW141523   7.890   6.806   1.819  0.6024  0.2532 -1.4573
13027SOL    HW241524   7.763   6.723   1.823  1.0276 -0.3969  1.5113
13028SOL     OW41525   9.503   0.213   5.348  0.8459  0.0051  0.1393
13028SOL    HW141526   9.457   0.297   5.344 -0.7216 -0.8469 -1.4682
13028SOL    HW241527   9.517   0.197   5.441 -0.3783  1.2563  0.5687
13029SOL     OW41528   1.761   8.558   1.760 -0.2506 -0.2486  0.3009
13029SOL    HW141529   1.743   8.636   1.708 -0.2244 -0.6921 -0.3884
13029SOL    HW241530   1.853   8.567   1.786 -0.1541 -0.2093 -0.0533
13030SOL     OW41531   3.705   6.286   8.156  0.4257 -0.2972 -0.3699
13030SOL    HW141532   3.661   6.208   8.121  0.5780 -0.2647 -0.6340
13030SOL    HW241533   3.662   6.302   8.240  0.6155 -0.8619 -0.1614
13031SOL     OW41534   3.842   2.577   8.558  0.0148 -0.0242 -0.3101
13031SOL    HW141535   3.828   2.495   8.605 -0.5052  0.0775 -0.2800
13031SOL    HW241536   3.928   2.567   8.518  0.0160 -0.5311 -0.1952
13032SOL     OW41537   2.166   2.668   4.052 -0.5630  0.7846  0.1060
13032SOL    HW141538   2.204   2.706   3.973  0.0842  0.1072  0.0845
13032SOL    HW241539   2.239   2.658   4.112 -0.6275 -0.7657 -0.0294
13033SOL     OW41540   4.153   9.914   5.785 -0.4472 -0.0419  0.7075
13033SOL    HW141541   4.199   9.832   5.770 -0.2188  0.0342  0.9850
13033SOL    HW241542   4.081   9.891   5.843 -0.9332 -0.2126  0.0512
13034SOL     OW41543   8.278   2.468   2.990  0.5586  0.0270 -0.3501
13034SOL    HW141544   8.311   2.426   2.911  0.4205 -0.3129 -0.2285
13034SOL    HW241545   8.256   2.557   2.962  0.7613 -0.0072 -0.6302
13035SOL     OW41546   6.088   4.597   2.887 -0.2838 -0.2054  0.1015
13035SOL    HW141547   6.162   4.553   2.845  1.4696  1.8898  0.8261
13035SOL    HW241548   6.073   4.675   2.834 -1.3392 -0.1080  0.5305
13036SOL     OW41549   7.091   3.463   3.803  0.4146  0.8017 -0.4363
13036SOL    HW141550   7.162   3.490   3.744  1.5717  0.1099  0.5872
13036SOL    HW241551   7.037   3.541   3.813  2.4904  2.1685  0.7987
13037SOL     OW41552   6.332   1.536   7.556  0.2149 -0.3822  0.1124
13037SOL    HW141553   6.288   1.608   7.601  1.0556 -0.0242  0.3759
13037SOL    HW241554   6.282   1.525   7.475  0.2130  0.6526 -0.0401
13038SOL     OW41555   2.681   0.792   6.554 -0.2359  0.4723 -0.2449
13038SOL    HW141556   2.614   0.844   6.510  0.1501 -0.9815 -2.7554
13038SOL    HW241557   2.742   0.768   6.485  1.2220 -0.8014  1.3844
13039SOL     OW41558   4.625   0.487   0.216 -0.1824 -0.4300  0.4199
13039SOL    HW141559   4.665   0.492   0.303  0.4159 -0.8724  0.1807
13039SOL    HW241560   4.690   0.442   0.163 -0.1703  0.6330 -0.4866
13040SOL     OW41561   9.341   7.698   0.661 -0.1562 -0.2904  0.3363
13040SOL    HW141562   9.316   7.789   0.674  0.3382  0.0004 -0.6196
13040SOL    HW241563   9.435   7.696   0.678 -0.4339 -0.9598  1.9146
13041SOL     OW41564   0.411  10.214   2.828 -0.2307 -0.2524 -0.0462
13041SOL    HW141565   0.374  10.183   2.910 -1.3044  0.3178 -0.2946
13041SOL    HW241566   0.432  10.306   2.844 -0.2441 -0.1962 -0.3331
13042SOL     OW41567   4.428   1.013   4.559  0.7406 -0.3761  0.7156
13042SOL    HW141568   4.491   1.069   4.605 -0.5285  0.0065  2.0429
13042SOL    HW241569   4.345   1.029   4.602 -0.5681  0.0494 -1.8050
13043SOL     OW41570   6.029   0.280   8.594  0.1251 -0.0433 -0.1368
13043SOL    HW141571   5.945   0.302   8.633  1.4108  1.7063  1.8672
13043SOL    HW241572   6.008   0.249   8.506 -2.5597  0.7734  0.1456
13044SOL     OW41573   5.628   4.995   9.416 -0.3828  0.3164  0.1425
13044SOL    HW141574   5.578   4.957   9.344 -0.9972  1.5818 -0.1344
13044SOL    HW241575   5.586   5.079   9.432 -0.3957 -0.0347  2.1464
13045SOL     OW41576   1.982   5.375   6.747  0.0838 -0.2036  0.4169
13045SOL    HW141577   1.987   5.469   6.730 -2.4143 -0.0328  0.3045
13045SOL    HW241578   1.996   5.366   6.841 -1.5993  0.5253  0.7672
13046SOL     OW41579   4.526   3.757   4.888  0.3289  0.1572 -0.4985
13046SOL    HW141580   4.483   3.842   4.877  1.4274  0.6550 -1.1516
13046SOL    HW241581   4.509   3.711   4.806 -0.0789 -0.1772 -0.2309
13047SOL     OW41582   9.801   1.686   7.192  0.0996  0.1524  0.1838
13047SOL    HW141583   9.889   1.692   7.155  0.2198 -1.2403  0.1739
13047SOL    HW241584   9.742   1.691   7.117  0.2287 -0.0307  0.0692
13048SOL     OW41585   0.491   3.438   6.838  0.2190  0.7253 -0.0936
13048SOL    HW141586   0.517   3.520   6.796  0.1763 -0.8049 -3.3632
13048SOL    HW241587   0.397   3.430   6.822  0.2470 -0.0372  0.0656
13049SOL     OW41588   0.709   5.603   5.104 -0.1842  0.0935 -0.2825
13049SOL    HW141589   0.799   5.570   5.102 -0.3444 -0.4372  0.5454
13049SOL    HW241590   0.658   5.536   5.059 -0.0160  0.9804 -1.8658
13050SOL     OW41591   8.164   9.893   1.494 -0.0216 -0.3820 -0.4116
13050SOL    HW141592   8.166   9.886   1.589 -0.3282  3.2224  0.0258
13050SOL    HW241593   8.072   9.877   1.471 -0.1688 -0.2288  0.0578
13051SOL     OW41594   4.621   4.029   9.379 -0.0473  0.0234  0.2340
13051SOL    HW141595   4.576   3.953   9.415  0.4177 -0.2878  0.1618
13051SOL    HW241596   4.713   4.004   9.376 -0.0473  0.0942 -1.0215
13052SOL     OW41597   8.675   6.046   3.965  0.3710  0.7666  0.0604
13052SOL    HW141598   8.593   6.081   4.001  0.5649  1.7169 -0.3786
13052SOL    HW241599   8.678   6.080   3.876  0.6438 -0.2985 -0.3433
13053SOL     OW41600   2.247   1.183   4.255 -0.0084  0.0386  0.3069
13053SOL    HW141601   2.192   1.169   4.178 -1.1349 -2.9450  1.5386
13053SOL    HW241602   2.222   1.270   4.287 -0.8232  0.5590 -1.5931
13054SOL     OW41603   9.000   8.132   8.406 -0.2315  0.1945  0.1312
13054SOL    HW141604   8.950   8.053   8.386 -0.8293  0.3269  1.0453
13054SOL    HW241605   8.934   8.199   8.422  0.2657  0.7627 -0.1598
13055SOL     OW41606   8.161   5.734   6.955 -0.4200 -0.0827 -0.4533
13055SOL    HW141607   8.188   5.748   7.046 -0.1790  1.4454 -0.7326
13055SOL    HW241608   8.184   5.815   6.911 -1.0095 -0.6151 -1.7809
13056SOL     OW41609   4.330   1.714   1.641 -0.7058  0.8383 -0.5372
13056SOL    HW141610   4.252   1.678   1.683  0.1896  0.4500  0.8717
13056SOL    HW241611   4.392   1.641   1.639  0.2372  1.6006  0.0048
13057SOL     OW41612   8.283   5.650   6.198  0.6321  0.1775 -0.3034
13057SOL    HW141613   8.292   5.717   6.130 -2.5075 -0.5172 -1.5552
13057SOL    HW241614   8.225   5.690   6.263 -0.7988 -1.0264 -0.7807
13058SOL     OW41615   9.154   7.178   0.939  0.3958 -0.2571  0.0522
13058SOL    HW141616   9.168   7.210   1.029 -0.6439  1.3387 -0.3217
13058SOL    HW241617   9.074   7.127   0.944 -0.6801  1.3438 -0.2863
13059SOL     OW41618   8.799   1.780   8.704  0.2939 -0.2702 -0.4109
13059SOL    HW141619   8.795   1.764   8.610 -2.2239  0.9020 -0.5941
13059SOL    HW241620   8.759   1.702   8.743  1.1890 -0.6847 -0.3171
13060SOL     OW41621   1.332   1.243   7.518  0.0559 -0.1822  0.0195
13060SOL    HW141622   1.340   1.305   7.590 -0.7052  0.3833 -0.3733
13060SOL    HW241623   1.238   1.226   7.510  0.2903 -1.8809  0.5185
13061SOL     OW41624   4.302   2.834   2.466 -0.2330  0.2512 -0.5216
13061SOL    HW141625   4.280   2.800   2.379  1.0795 -0.2783 -0.6709
13061SOL    HW241626   4.237   2.902   2.482 -1.3268 -0.5714 -1.3313
13062SOL     OW41627   9.010   4.121   3.960  0.0671 -0.2582 -0.2207
13062SOL    HW141628   8.932   4.157   4.002  1.0069  1.1484  0.3944
13062SOL    HW241629   8.977   4.079   3.881 -1.2253  1.1309 -0.4719
13063SOL     OW41630   7.803   9.903   5.511  0.3215  0.0620  0.4595
13063SOL    HW141631   7.754   9.840   5.564  1.5880 -1.3998 -0.0192
13063SOL    HW241632   7.893   9.872   5.515  0.7707  1.1154 -0.8726
13064SOL     OW41633   0.175   6.288   3.168 -0.0346 -0.3488  0.0086
13064SOL    HW141634   0.109   6.340   3.213  0.5281 -0.6137  1.1770
13064SOL    HW241635   0.229   6.353   3.122 -0.5419 -0.0642 -0.1913
13065SOL     OW41636   7.831   3.570   6.467  0.4573 -0.4203  0.7126
13065SOL    HW141637   7.823   3.618   6.384  1.6175 -2.1361 -0.4519
13065SOL    HW241638   7.742   3.568   6.502 -0.0920  0.2177 -0.5660
13066SOL     OW41639   5.537   3.281   8.531  0.9522  0.0085  0.3025
13066SOL    HW141640   5.606   3.326   8.484  1.4744 -0.9780  0.0906
13066SOL    HW241641   5.548   3.307   8.622  0.5473  1.1646  0.0291
13067SOL     OW41642   3.582  10.133   1.507  0.0037 -0.4669 -0.4347
13067SOL    HW141643   3.643  10.157   1.437  1.3064 -1.7073  0.2265
13067SOL    HW241644   3.570  10.039   1.497  0.9998 -0.8535  1.5756
13068SOL     OW41645   2.468   0.657   6.444 -0.0281 -0.2625 -0.1231
13068SOL    HW141646   2.384   0.692   6.472  0.3274  0.2246  0.3468
13068SOL    HW241647   2.532   0.696   6.503  0.4791 -1.0172 -0.1571
13069SOL     OW41648   3.789   2.106   8.115 -0.1757 -0.4566 -0.5529
13069SOL    HW141649   3.712   2.081   8.064 -1.2469  2.0470 -0.2799
13069SOL    HW241650   3.754   2.142   8.196  1.2985  0.4234 -0.2743
13070SOL     OW41651   5.471   2.550   6.794 -0.1111 -0.3218  0.1252
13070SOL    HW141652   5.524   2.621   6.759  1.5511  0.7071  4.2156
13070SOL    HW241653   5.398   2.593   6.839 -1.1368 -1.4345 -0.4105
13071SOL     OW41654   2.279   4.437   9.305  0.7277 -0.2084  0.1633
13071SOL    HW141655   2.229   4.446   9.224 -0.5564 -0.5135  0.8933
13071SOL    HW241656   2.240   4.501   9.365  1.4295 -0.2319  0.6690
13072SOL     OW41657   6.486   6.862   3.117 -0.0481  0.9535  0.1984
13072SOL    HW141658   6.428   6.937   3.114 -1.5006 -0.0107  2.0544
13072SOL    HW241659   6.490   6.838   3.210  2.0255 -0.0257 -0.0786
13073SOL     OW41660   4.399   2.063   1.023  0.2832  0.7507 -0.0132
13073SOL    HW141661   4.314   2.024   1.004  0.9077 -1.4998  1.4395
13073SOL    HW241662   4.380   2.131   1.087 -0.2433 -1.6944  2.6347
13074SOL     OW41663   4.824   3.828   7.658 -0.2556 -0.1740  0.1143
13074SOL    HW141664   4.881   3.836   7.582  1.5417 -1.2844  1.2702
13074SOL    HW241665   4.882   3.843   7.733 -0.9714 -3.3038  1.4410
13075SOL     OW41666   4.719   0.675   3.160 -0.1019 -0.6744 -0.4117
13075SOL    HW141667   4.721   0.592   3.111 -0.0581 -0.7191 -0.3339
13075SOL    HW241668   4.627   0.689   3.179 -0.1840 -0.3734 -0.9926
13076SOL     OW41669   9.771   8.470   8.594  0.2309 -0.4088 -0.2779
13076SOL    HW141670   9.838   8.438   8.654  2.2349  1.9073 -1.1553
13076SOL    HW241671   9.751   8.558   8.625 -0.7211 -0.1952 -1.4375
13077SOL     OW41672   5.717   9.688   7.489 -0.3911  0.0866  0.1232
13077SOL    HW141673   5.812   9.683   7.497 -0.4845 -1.2887  0.7072
13077SOL    HW241674   5.695   9.777   7.518  0.7228  0.4953 -0.2505
13078SOL     OW41675   2.557   6.064  10.263 -0.0149 -0.3669  0.1682
13078SOL    HW141676   2.563   5.992  10.200  0.9503 -1.2376  1.2059
13078SOL    HW241677   2.593   6.028  10.344  0.2797  1.2210  0.7837
13079SOL     OW41678   2.519   9.010   6.310  0.2154  0.3443 -0.9830
13079SOL    HW141679   2.606   9.010   6.349  0.0416  1.6913 -0.5233
13079SOL    HW241680   2.468   8.951   6.366  0.7155 -0.1045 -0.9920
13080SOL     OW41681   1.772   1.767   0.893  0.1024 -0.0083  0.0857
13080SOL    HW141682   1.748   1.852   0.856 -1.5837 -0.0542  0.9786
13080SOL    HW241683   1.835   1.787   0.961  0.4010  0.4368 -0.3161
13081SOL     OW41684   3.202   7.203   6.600 -0.3470  0.4897 -0.5555
13081SOL    HW141685   3.267   7.247   6.656 -1.5340 -1.1338  2.2956
13081SOL    HW241686   3.173   7.272   6.540  0.6792  2.5183  1.1144
13082SOL     OW41687   2.353   7.639   7.154 -0.3899 -0.0857 -0.2244
13082SOL    HW141688   2.353   7.696   7.077 -1.4331  0.7228  0.3561
13082SOL    HW241689   2.445   7.615   7.166  0.1102  1.6015 -0.4042
13083SOL     OW41690   8.239   7.800   6.737  0.7690 -0.5963  0.5380
13083SOL    HW141691   8.257   7.876   6.792  1.1066 -1.3359  1.4966
13083SOL    HW241692   8.169   7.828   6.679 -0.6021 -0.1875  2.2953
13084SOL     OW41693   7.662   6.287   4.719 -0.0294 -0.2842  0.8244
13084SOL    HW141694   7.744   6.321   4.756  1.1529 -0.0690 -1.7844
13084SOL    HW241695   7.598   6.356   4.738  1.0478  0.8570  0.4730
13085SOL     OW41696   9.865   7.354   6.325  0.6671 -0.0161 -0.4154
13085SOL    HW141697   9.870   7.446   6.354  1.3297 -0.2011  0.1043
13085SOL    HW241698   9.956   7.330   6.308  0.7973 -1.2477  1.6555
13086SOL     OW41699   4.874   9.591   6.399 -0.1229 -0.0351 -0.2170
13086SOL    HW141700   4.910   9.664   6.348 -1.4745  1.8985  1.4481
13086SOL    HW241701   4.851   9.526   6.333  0.7496  1.2047 -1.8263
13087SOL     OW41702   0.948   1.287   8.449 -0.2466  0.0818  0.1144
13087SOL    HW141703   1.021   1.227   8.442  0.4402  0.8856  0.1711
13087SOL    HW241704   0.910   1.270   8.536  1.1634  1.0571  0.9571
13088SOL     OW41705   3.487   1.621   9.350 -0.4907 -0.2122 -0.3998
13088SOL    HW141706   3.547   1.601   9.278 -0.6067 -1.9079 -0.0763
13088SOL    HW241707   3.543   1.623   9.428 -0.8332 -2.0881 -0.0553
13089SOL     OW41708   2.691   7.267   3.626 -0.6164  0.5859 -0.2289
13089SOL    HW141709   2.597   7.250   3.628 -0.5296  0.1137  0.1257
13089SOL    HW241710   2.729   7.196   3.679 -0.1674  1.4403  0.6243
13090SOL     OW41711   6.206   0.758   5.342 -0.5328  0.3928  0.9087
13090SOL    HW141712   6.128   0.750   5.288  1.2835 -2.5823 -1.6440
13090SOL    HW241713   6.228   0.851   5.339 -1.5804  0.6533 -2.0395
13091SOL     OW41714   1.696   7.527   4.938 -0.2448 -0.1994 -0.3972
13091SOL    HW141715   1.781   7.520   4.981 -0.9689  0.4602  1.2521
13091SOL    HW241716   1.715   7.563   4.852  1.1560 -0.0988 -0.0686
13092SOL     OW41717   2.106   6.580   3.897  0.2014 -0.3304 -0.0327
13092SOL    HW141718   2.151   6.534   3.826  0.7192  1.6032 -1.0280
13092SOL    HW241719   2.076   6.662   3.857  0.2446  0.6882  1.9082
13093SOL     OW41720   0.061   7.979  10.382  0.5900 -0.4657  0.6305
13093SOL    HW141721   0.044   8.023  10.465 -3.2386  0.8722 -0.6599
13093SOL    HW241722   0.086   8.050  10.322  1.6736 -1.1704  0.2188
13094SOL     OW41723   7.126   5.662   5.600 -0.5564 -0.2473  0.0052
13094SOL    HW141724   7.147   5.592   5.662  1.7023 -0.4293 -0.8909
13094SOL    HW241725   7.208   5.711   5.590 -2.0701  2.6718  0.7029
13095SOL     OW41726   9.109   3.108   6.117 -0.1435 -0.1435 -0.2162
13095SOL    HW141727   9.197   3.076   6.095 -0.1718  0.1194 -0.7392
13095SOL    HW241728   9.106   3.195   6.077 -0.0882  0.4917  1.1149
13096SOL     OW41729   8.366   4.974   7.771 -0.0680  0.0419  0.1683
13096SOL    HW141730   8.389   5.058   7.731  0.0642 -0.7456 -1.5139
13096SOL    HW241731   8.292   4.942   7.719 -0.5529 -0.5922  1.2030
13097SOL     OW41732   9.075   5.005   2.991  0.3898 -0.4114 -0.3509
13097SOL    HW141733   9.144   4.962   3.042  0.0527  0.3924  0.8020
13097SOL    HW241734   8.995   4.992   3.042  0.2856  1.6071  0.0766
13098SOL     OW41735   7.219   2.571   4.853 -0.2768  0.4956  0.6459
13098SOL    HW141736   7.172   2.592   4.772 -1.7082  0.2048  1.3608
13098SOL    HW241737   7.226   2.654   4.899  0.7455  0.7037  0.1366
13099SOL     OW41738   6.500  10.172   2.484  0.1349 -0.6028  0.0040
13099SOL    HW141739   6.436  10.113   2.522 -0.4552  0.2624  0.3960
13099SOL    HW241740   6.450  10.252   2.464  1.0918  0.1119  0.3756
13100SOL     OW41741   3.630   9.230   3.294  0.2189  0.2445 -0.1822
13100SOL    HW141742   3.705   9.196   3.343 -0.1476 -0.3029  0.0123
13100SOL    HW241743   3.646   9.324   3.287  0.4696  0.2754  0.6589
13101SOL     OW41744   4.916   6.440   5.610  0.6019  0.4028  0.6768
13101SOL    HW141745   5.000   6.396   5.626  1.3421  0.7613 -1.8353
13101SOL    HW241746   4.858   6.370   5.580  0.1174  0.2521  1.9026
13102SOL     OW41747   2.555   1.619   5.509  0.4544 -0.0636  0.0712
13102SOL    HW141748   2.530   1.712   5.509  0.7583  0.0285 -0.8307
13102SOL    HW241749   2.472   1.572   5.511  0.2829  0.2315 -0.0434
13103SOL     OW41750   0.292   6.163   9.588 -0.7054 -0.5639  0.3365
13103SOL    HW141751   0.295   6.161   9.493 -2.1506  0.1060  0.2618
13103SOL    HW241752   0.382   6.185   9.614 -0.5988  0.6271 -0.9221
13104SOL     OW41753   9.244   4.135   3.503  0.1191  0.1015  0.5152
13104SOL    HW141754   9.247   4.115   3.597  1.3892  1.4753  0.7974
13104SOL    HW241755   9.227   4.229   3.499  1.2186  0.2739 -0.6019
13105SOL     OW41756   0.208   7.671   8.299 -0.4999  0.4784 -0.1403
13105SOL    HW141757   0.300   7.692   8.287 -0.5016  0.2126 -0.6732
13105SOL    HW241758   0.160   7.743   8.258 -0.5270  0.5776  0.0663
13106SOL     OW41759   2.448   6.343   0.299  0.1156  0.0172  0.2126
13106SOL    HW141760   2.466   6.409   0.232  0.6013  0.0603  0.3811
13106SOL    HW241761   2.416   6.393   0.373 -2.2349 -0.1824 -0.5910
13107SOL     OW41762   9.562   3.575   3.676  0.1483 -0.1366  0.1076
13107SOL    HW141763   9.637   3.518   3.656 -0.9128 -0.9823 -1.6284
13107SOL    HW241764   9.489   3.514   3.689 -0.9161  0.7959 -1.3508
13108SOL     OW41765   2.605   3.785   8.968  0.5124  0.1081 -0.3501
13108SOL    HW141766   2.605   3.819   8.878  1.7987  0.6069 -0.1791
13108SOL    HW241767   2.539   3.839   9.013  1.0824  1.0266 -0.5852
13109SOL     OW41768   7.724  10.031   4.525  0.2230  0.1213  0.6657
13109SOL    HW141769   7.698   9.989   4.607  1.6043 -1.7231  0.2147
13109SOL    HW241770   7.700   9.968   4.457  0.1780  1.1151 -0.2754
13110SOL     OW41771   0.602   0.436   2.063  0.5753  0.2330 -0.0461
13110SOL    HW141772   0.609   0.359   2.007  1.2432 -0.7467  1.3126
13110SOL    HW241773   0.681   0.487   2.044  1.4706 -0.7509  0.8963
13111SOL     OW41774   6.231  10.432   3.449 -0.0838 -0.3821  0.3125
13111SOL    HW141775   6.218  10.343   3.483 -1.1467 -0.9577 -1.4872
13111SOL    HW241776   6.149  10.453   3.404  0.4245  1.2375  0.0792
13112SOL     OW41777   2.199   5.809   2.058 -0.1765  0.3080  0.1676
13112SOL    HW141778   2.138   5.781   1.990 -1.6568  2.2145  0.5988
13112SOL    HW241779   2.175   5.900   2.075  2.1386  0.8131  1.1332
13113SOL     OW41780   2.730   0.075   7.609  0.0523  0.7239  0.1891
13113SOL    HW141781   2.740   0.066   7.514 -0.4041  1.8062  0.0282
13113SOL    HW241782   2.672   0.150   7.620  1.1647  1.4267  1.3716
13114SOL     OW41783   7.226   6.110   4.265 -0.3119 -0.4100  0.2882
13114SOL    HW141784   7.312   6.140   4.235 -0.7162  1.9926  1.3458
13114SOL    HW241785   7.235   6.103   4.360 -1.2120 -0.3878  0.3787
13115SOL     OW41786   4.752   1.655   9.141  0.0052  0.1554 -0.0961
13115SOL    HW141787   4.749   1.722   9.208  2.5823 -0.5371  0.8401
13115SOL    HW241788   4.760   1.703   9.059  2.4739  1.0830  0.6087
13116SOL     OW41789   5.232   2.883   7.097  0.6518  0.3267 -0.2091
13116SOL    HW141790   5.217   2.933   7.016  0.0871 -0.2519 -0.4732
13116SOL    HW241791   5.154   2.899   7.150  1.6261  1.8167  0.8342
13117SOL     OW41792   8.053   3.118   8.838  0.2393  0.2412  0.4566
13117SOL    HW141793   8.029   3.076   8.921  1.0723  0.4235  0.8014
13117SOL    HW241794   8.085   3.046   8.783  0.8996  0.2931  0.7591
13118SOL     OW41795   7.968   7.727   6.057 -0.2292 -0.0398  0.5732
13118SOL    HW141796   8.050   7.687   6.086 -0.3774 -0.8562 -0.0789
13118SOL    HW241797   7.911   7.652   6.037 -1.2563  0.5234  1.3561
13119SOL     OW41798   4.325   1.853   6.680  0.5145 -0.4351 -0.2270
13119SOL    HW141799   4.406   1.886   6.720  0.8318 -1.6004  0.1313
13119SOL    HW241800   4.352   1.775   6.632 -0.3376 -0.6121 -0.4395
13120SOL     OW41801   5.336   9.761   8.500  0.1121  0.1093  0.6163
13120SOL    HW141802   5.391   9.804   8.565 -1.6418  0.0037  2.2566
13120SOL    HW241803   5.375   9.675   8.489  0.1442 -0.0719  1.9686
13121SOL     OW41804   3.683   3.343   8.134 -0.2141  0.4675  0.0615
13121SOL    HW141805   3.670   3.436   8.115 -0.2707  0.2112 -1.2506
13121SOL    HW241806   3.660   3.334   8.226 -1.9943  1.4064 -0.2564
13122SOL     OW41807   8.079   9.891   8.993 -0.1391 -0.0549 -0.2492
13122SOL    HW141808   8.143   9.827   9.022 -1.4349 -1.3830 -0.1484
13122SOL    HW241809   8.130   9.957   8.947  1.5767  0.3531  2.0579
13123SOL     OW41810   5.750   3.386   0.573 -0.1481  0.3609 -0.4158
13123SOL    HW141811   5.782   3.300   0.547 -0.0154  0.2450  0.1192
13123SOL    HW241812   5.803   3.410   0.649 -1.9527 -0.2712  1.1223
13124SOL     OW41813   8.455   2.749   3.667 -0.0785  0.1864 -0.5208
13124SOL    HW141814   8.452   2.774   3.759  2.1078 -0.6924 -0.1485
13124SOL    HW241815   8.484   2.828   3.621 -0.7504  0.5018 -0.4120
13125SOL     OW41816   1.973   4.517   8.517  0.1983  0.3481 -0.0939
13125SOL    HW141817   1.957   4.423   8.505 -2.2850  0.6972 -0.0199
13125SOL    HW241818   1.997   4.549   8.430  1.7434 -0.4219  0.0084
13126SOL     OW41819   9.532   8.746   3.638 -0.2260  0.0848  0.2373
13126SOL    HW141820   9.589   8.822   3.625  0.1977 -0.3126 -0.2777
13126SOL    HW241821   9.452   8.767   3.590  0.1813 -0.1032 -0.5525
13127SOL     OW41822   5.722   9.175   7.596  0.0623 -0.0735  0.0769
13127SOL    HW141823   5.631   9.205   7.597 -0.4605 -1.5392 -0.6278
13127SOL    HW241824   5.758   9.208   7.514  0.2707  0.7417  0.4837
13128SOL     OW41825   2.692   3.027   9.747 -0.3760 -0.5955 -0.1437
13128SOL    HW141826   2.763   2.993   9.693 -0.9092 -1.4504 -0.3213
13128SOL    HW241827   2.619   2.969   9.730 -1.7184  1.3347 -1.3715
13129SOL     OW41828  10.169   2.315   9.421 -0.5229 -0.1290 -0.4499
13129SOL    HW141829  10.102   2.247   9.433 -0.8540  0.4843  1.5712
13129SOL    HW241830  10.239   2.271   9.371 -1.7636 -1.2125 -1.2999
13130SOL     OW41831   0.215   8.679   4.129  0.4223  0.5190  0.1486
13130SOL    HW141832   0.277   8.747   4.102 -0.8622  2.2071  1.1847
13130SOL    HW241833   0.211   8.688   4.224 -0.6174 -0.2487  0.1867
13131SOL     OW41834   2.107   4.577   7.276 -0.3137 -0.0595 -0.1256
13131SOL    HW141835   2.116   4.608   7.186  0.5025 -0.9861 -0.3711
13131SOL    HW241836   2.178   4.620   7.324  1.3512 -2.0626 -0.6355
13132SOL     OW41837   0.165   7.214   0.053  0.2404 -0.0876  0.1067
13132SOL    HW141838   0.181   7.142  -0.008  0.5225  0.0461  0.0194
13132SOL    HW241839   0.147   7.172   0.137 -3.2568 -0.4348 -0.6637
13133SOL     OW41840   8.155   4.842   4.721 -0.2350 -0.4772 -0.0288
13133SOL    HW141841   8.065   4.845   4.753 -0.3971  0.6336 -0.5195
13133SOL    HW241842   8.209   4.836   4.800 -0.7236 -0.6626  0.2908
13134SOL     OW41843   1.126   6.463   5.682  0.0230 -0.0501  0.5222
13134SOL    HW141844   1.071   6.540   5.699  1.3273  1.5444 -1.9079
13134SOL    HW241845   1.195   6.469   5.747 -1.3773 -0.8011  2.1459
13135SOL     OW41846   5.408   2.938   6.662  0.2431  0.1821  0.3231
13135SOL    HW141847   5.360   2.937   6.745 -1.9913 -0.4445 -0.8747
13135SOL    HW241848   5.341   2.956   6.596  1.5206 -1.4360 -1.5572
13136SOL     OW41849   1.609  10.158   7.954 -0.2675  0.5610  0.3739
13136SOL    HW141850   1.693  10.116   7.974 -1.1025 -1.3449  0.1882
13136SOL    HW241851   1.564  10.163   8.038 -1.2493 -1.5677  0.0562
13137SOL     OW41852   2.346   2.449   7.158  0.1282 -0.2431  0.1546
13137SOL    HW141853   2.385   2.362   7.161 -0.8736 -0.6878  0.9756
13137SOL    HW241854   2.401   2.503   7.215  0.7353 -0.3439 -0.3356
13138SOL     OW41855   0.035   2.826   5.793 -0.3486  0.3025 -0.0417
13138SOL    HW141856  -0.042   2.832   5.849  0.4269  0.9563  1.0011
13138SOL    HW241857   0.093   2.766   5.839  0.3479  0.9396 -0.0722
13139SOL     OW41858   6.587   6.753   5.035  0.3051 -0.4339  0.1544
13139SOL    HW141859   6.574   6.753   4.940  2.3607  1.0357 -0.1959
13139SOL    HW241860   6.674   6.716   5.047 -0.1978 -1.2211  1.5454
13140SOL     OW41861   8.748   4.801   1.393 -0.5525  0.0298 -0.0468
13140SOL    HW141862   8.728   4.747   1.469 -0.6237  0.5063  0.2791
13140SOL    HW241863   8.843   4.815   1.397 -0.5765  0.1701  0.0328
13141SOL     OW41864   1.375   8.741   3.713 -0.0618 -0.1303 -0.5337
13141SOL    HW141865   1.425   8.668   3.748  0.6978  1.1017  1.0911
13141SOL    HW241866   1.367   8.722   3.619  2.3144 -1.0484 -0.6257
13142SOL     OW41867   8.116   8.240   2.600 -0.1737 -0.2990  0.0847
13142SOL    HW141868   8.091   8.149   2.583 -1.6761  0.2297 -0.7808
13142SOL    HW241869   8.209   8.237   2.619 -0.1539 -1.9931 -0.1580
13143SOL     OW41870   6.331   4.467   6.132  0.1074 -0.1773  0.0937
13143SOL    HW141871   6.256   4.421   6.171  0.6260 -1.6085 -0.5189
13143SOL    HW241872   6.293   4.525   6.067 -0.6259  0.8799  1.4022
13144SOL     OW41873   7.691   6.617   5.656 -0.5633  0.3987 -0.1723
13144SOL    HW141874   7.746   6.695   5.653 -0.3504  0.3277  1.2178
13144SOL    HW241875   7.721   6.563   5.584  0.9239  0.5491  0.3111
13145SOL     OW41876  10.382   5.205   7.780  0.4672 -0.0440 -0.5141
13145SOL    HW141877  10.310   5.217   7.718 -0.1880 -0.0618  0.2420
13145SOL    HW241878  10.408   5.294   7.804 -2.8533  0.1722  3.2942
13146SOL     OW41879   3.794   0.245   7.859 -0.4446 -0.6627 -0.8870
13146SOL    HW141880   3.853   0.187   7.909 -0.8503 -0.5669 -0.2781
13146SOL    HW241881   3.737   0.284   7.926  1.4962  2.5310 -0.8970
13147SOL     OW41882   4.739   6.037   4.989 -0.7442 -0.2488  0.4595
13147SOL    HW141883   4.668   6.096   4.963 -1.0836 -1.2205 -0.8832
13147SOL    HW241884   4.732   5.963   4.930  2.1895  0.1910 -0.5909
13148SOL     OW41885   9.879   0.672   8.398  0.0907  0.0853  0.2595
13148SOL    HW141886   9.955   0.714   8.356  0.9015 -0.1647  1.4401
13148SOL    HW241887   9.814   0.667   8.328  0.5765  1.7589 -0.3810
13149SOL     OW41888  10.216   4.000   0.320  0.8343  0.2002  0.0393
13149SOL    HW141889  10.306   4.018   0.348  0.3677  1.3809  0.8970
13149SOL    HW241890  10.163   4.067   0.365 -0.4131 -0.1524 -0.8336
13150SOL     OW41891   7.759   7.968  10.068 -0.1818  0.4742 -0.1280
13150SOL    HW141892   7.715   7.886  10.044 -0.6803  0.7675 -0.2258
13150SOL    HW241893   7.847   7.959  10.033 -0.2966  0.0593 -0.3141
13151SOL     OW41894   2.744   1.544   3.265 -0.1094  0.1525  1.0310
13151SOL    HW141895   2.651   1.566   3.267 -0.7698 -2.3054  2.9924
13151SOL    HW241896   2.753   1.487   3.189 -0.6622 -1.0811  1.8558
13152SOL     OW41897   3.891   1.271   8.644 -0.0628  0.3516 -0.4313
13152SOL    HW141898   3.983   1.289   8.661 -0.5678  1.1757  1.8764
13152SOL    HW241899   3.852   1.260   8.731 -2.2869  0.7849 -1.2834
13153SOL     OW41900   0.524   5.671   0.784 -0.5791  0.8583 -0.2901
13153SOL    HW141901   0.493   5.750   0.740 -0.7852  0.7137 -0.4105
13153SOL    HW241902   0.486   5.599   0.732  0.0584  0.6745 -0.5136
13154SOL     OW41903   3.837   2.916   7.511 -0.1098  0.0546 -1.4575
13154SOL    HW141904   3.783   2.895   7.587 -0.3797  0.7468 -1.4556
13154SOL    HW241905   3.899   2.843   7.505  0.5639  0.4639  0.0184
13155SOL     OW41906   0.218   0.265   4.620  0.0191 -0.2984  1.0705
13155SOL    HW141907   0.285   0.253   4.688  1.7704  1.0615 -0.3241
13155SOL    HW241908   0.213   0.360   4.608  0.4736 -0.5265 -1.3322
13156SOL     OW41909   1.281   9.440  10.479 -0.4709  0.3566  0.2037
13156SOL    HW141910   1.202   9.420  10.530 -0.0365  1.5477  1.4056
13156SOL    HW241911   1.337   9.363  10.489 -1.4290 -0.4640 -0.5883
13157SOL     OW41912   4.082   1.075   0.857 -0.0109 -0.2415  0.0481
13157SOL    HW141913   4.162   1.105   0.814 -0.3293 -0.1589 -0.5043
13157SOL    HW241914   4.047   1.008   0.799 -0.1616 -0.5203  0.4597
13158SOL     OW41915   9.402   4.315   2.000  0.0699 -0.4857 -0.2783
13158SOL    HW141916   9.441   4.376   1.936 -1.2359  1.8214  0.9827
13158SOL    HW241917   9.478   4.275   2.043  0.9752 -0.6624 -1.9526
13159SOL     OW41918   4.285   7.743   3.840 -0.1781 -0.5168 -0.2795
13159SOL    HW141919   4.326   7.814   3.789  1.7574 -0.0652  1.7027
13159SOL    HW241920   4.359   7.691   3.870 -1.1638 -0.5772  2.2435
13160SOL     OW41921   7.176   0.830   3.677  0.6703 -0.4113 -0.5584
13160SOL    HW141922   7.088   0.838   3.712  1.1828 -0.8290  0.9018
13160SOL    HW241923   7.197   0.918   3.645  0.3191  0.0976  0.5744
13161SOL     OW41924   4.262   1.394   2.047 -0.2633 -0.0050 -0.4430
13161SOL    HW141925   4.288   1.478   2.010  1.2777 -0.6899 -1.0041
13161SOL    HW241926   4.300   1.329   1.987  1.3433 -1.1444  1.6794
13162SOL     OW41927   2.013   0.856   8.039  0.1793  0.2145  0.4521
13162SOL    HW141928   1.927   0.818   8.058  0.0483  0.7995  1.0294
13162SOL    HW241929   2.019   0.854   7.943 -0.5691  0.3736  0.3974
13163SOL     OW41930   7.134  10.099   5.150 -0.1712  0.0317 -0.1230
13163SOL    HW141931   7.145  10.100   5.245  0.6002 -0.1855 -0.2013
13163SOL    HW241932   7.190  10.170   5.119  0.9642 -0.9970 -0.5320
13164SOL     OW41933   9.452   6.071   0.960  0.3145  0.7193 -0.1568
13164SOL    HW141934   9.364   6.062   0.995  0.7964 -2.2426  0.4972
13164SOL    HW241935   9.510   6.045   1.032  1.6053  0.1664 -1.3480
13165SOL     OW41936   7.413   4.013   8.337 -0.1542 -0.2271 -0.5425
13165SOL    HW141937   7.501   4.036   8.366 -0.4741 -0.8173  1.0394
13165SOL    HW241938   7.399   3.925   8.371 -0.7389 -0.8403 -2.2666
13166SOL     OW41939   7.572   1.030   5.314 -0.5783  0.1320 -0.8114
13166SOL    HW141940   7.515   1.047   5.389  0.7445  0.1379  0.2442
13166SOL    HW241941   7.637   1.101   5.317  0.9673 -1.2258 -0.4141
13167SOL     OW41942   3.107   3.360   7.865 -0.5032 -0.0966 -0.6134
13167SOL    HW141943   3.099   3.443   7.817 -0.4708  0.4380  0.2688
13167SOL    HW241944   3.148   3.385   7.948 -0.2991 -1.0402 -0.4181
13168SOL     OW41945   4.167   1.959   0.100  0.3210  0.5134  0.2978
13168SOL    HW141946   4.095   2.007   0.061  0.4659  0.1716 -0.4176
13168SOL    HW241947   4.246   2.001   0.065  0.4528  0.1281  0.1290
13169SOL     OW41948   3.319   1.133   1.311  0.0884  0.6213 -0.1103
13169SOL    HW141949   3.409   1.129   1.280  0.7075  2.8806  1.1544
13169SOL    HW241950   3.324   1.106   1.403 -0.8318 -0.7644 -0.4272
13170SOL     OW41951   6.470   3.957   9.058 -0.1661  0.4232  0.0181
13170SOL    HW141952   6.527   3.881   9.051 -0.6335  0.1476 -1.0200
13170SOL    HW241953   6.388   3.922   9.092  0.1101  0.7414  1.0549
13171SOL     OW41954   8.607   3.156   0.558 -0.3986 -0.3172  0.5271
13171SOL    HW141955   8.613   3.250   0.575  0.2375 -0.2700  0.0821
13171SOL    HW241956   8.601   3.150   0.462  1.6189 -0.8043  0.3883
13172SOL     OW41957   2.257   2.572   5.642  0.2609 -0.3713 -0.7868
13172SOL    HW141958   2.170   2.575   5.681 -0.3471 -1.1925 -1.9935
13172SOL    HW241959   2.315   2.547   5.714 -0.0802  2.4637  0.6050
13173SOL     OW41960   6.916   6.301   7.094  0.7088 -0.2534 -0.0670
13173SOL    HW141961   6.828   6.334   7.079  0.8985  1.6579  2.2912
13173SOL    HW241962   6.961   6.373   7.138  2.1575 -2.5498  2.5906
13174SOL     OW41963   4.821   7.948   6.306  0.4586 -0.3449  0.0927
13174SOL    HW141964   4.878   7.979   6.376  1.2095  2.1370 -1.4735
13174SOL    HW241965   4.774   8.026   6.277  1.0556 -0.9617 -2.9132
13175SOL     OW41966   3.023   0.360   2.973 -0.0406  0.1399  0.1105
13175SOL    HW141967   2.977   0.390   3.051 -1.6390 -0.5622 -0.5107
13175SOL    HW241968   3.075   0.286   3.003  0.8888  1.0712  0.8684
13176SOL     OW41969   9.140   0.488   3.175  0.1216 -0.0865  0.0551
13176SOL    HW141970   9.124   0.413   3.117  0.5701  1.1342 -1.7090
13176SOL    HW241971   9.174   0.448   3.256  3.4264 -1.6975 -1.8940
13177SOL     OW41972   5.678   0.805   9.332  0.2937  0.8800  0.2725
13177SOL    HW141973   5.694   0.752   9.410 -1.8477 -0.1730  0.0574
13177SOL    HW241974   5.592   0.844   9.346  0.4882  1.8055 -0.9541
13178SOL     OW41975   6.547   5.932   7.497  0.2171 -0.1181  0.0891
13178SOL    HW141976   6.602   5.888   7.432 -1.1309 -1.6773 -0.0776
13178SOL    HW241977   6.458   5.920   7.465 -0.3539  0.6908  1.2964
13179SOL     OW41978   7.605   4.463   9.219 -0.3392  0.3438  0.1316
13179SOL    HW141979   7.532   4.417   9.260  0.2001  1.1196  2.0790
13179SOL    HW241980   7.581   4.468   9.126 -2.3945 -0.0815  0.5859
13180SOL     OW41981   7.952   6.784   9.843 -0.2604  0.4908  0.7707
13180SOL    HW141982   7.902   6.802   9.923 -0.2917 -2.9627  1.6800
13180SOL    HW241983   8.042   6.775   9.873 -0.5911 -3.5168  1.1177
13181SOL     OW41984   0.769   2.755   4.547  0.0639 -0.7837  0.6166
13181SOL    HW141985   0.742   2.781   4.635  1.6838 -2.3647  1.6380
13181SOL    HW241986   0.706   2.798   4.489 -0.1553  1.5025  2.4268
13182SOL     OW41987   8.364  10.030  10.015 -0.0787 -0.4333 -0.5420
13182SOL    HW141988   8.324  10.007  10.099 -0.2635 -0.3738 -0.6145
13182SOL    HW241989   8.311  10.102   9.981  0.1018 -0.3397 -0.6280
13183SOL     OW41990   2.940   3.915   8.739 -0.2501 -0.0801  0.2846
13183SOL    HW141991   2.853   3.878   8.725  0.4370 -1.3520 -0.8810
13183SOL    HW241992   2.939   3.998   8.692 -0.3050 -0.9116 -1.2405
13184SOL     OW41993   3.416   9.923   2.330  0.5433 -0.0958  0.2641
13184SOL    HW141994   3.398   9.882   2.414 -0.4678 -0.5404 -0.1538
13184SOL    HW241995   3.403  10.017   2.346  1.0169 -0.1073  0.7537
13185SOL     OW41996  10.259   4.447   1.847  0.4730  0.6390  0.2954
13185SOL    HW141997  10.217   4.499   1.915  0.4886 -1.1921  1.7920
13185SOL    HW241998  10.189   4.430   1.784  0.2156  1.5781  0.3077
13186SOL     OW41999   8.377   0.656  10.266  0.4854 -0.2316 -0.4727
13186SOL    HW142000   8.331   0.639  10.348  1.5007  0.3438  0.2315
13186SOL    HW242001   8.308   0.685  10.206 -0.2481 -0.5266  0.1991
13187SOL     OW42002   0.169   6.700   5.580  0.5633  0.0257 -0.1609
13187SOL    HW142003   0.240   6.738   5.632  1.2515  1.3646 -1.9805
13187SOL    HW242004   0.148   6.767   5.515  0.0398 -1.7143 -1.8876
13188SOL     OW42005   8.879   2.256   7.397  0.0700 -0.0531 -0.0523
13188SOL    HW142006   8.822   2.225   7.327 -0.3782  0.9884 -0.1757
13188SOL    HW242007   8.890   2.181   7.455 -0.4160 -0.6213 -0.6784
13189SOL     OW42008   3.480   0.062   7.242  0.1343  0.4683  0.1151
13189SOL    HW142009   3.554   0.098   7.192  0.1067  0.8060  0.3082
13189SOL    HW242010   3.410   0.053   7.178  1.2035 -2.7612 -0.8055
13190SOL     OW42011   7.031   9.678   7.773  0.2530  0.1280  0.3617
13190SOL    HW142012   7.018   9.583   7.763 -0.0930  0.3315 -1.3423
13190SOL    HW242013   7.123   9.692   7.748 -0.0418  0.3829 -0.6239
13191SOL     OW42014   7.134   3.568   4.071  0.1533 -0.2759 -0.3205
13191SOL    HW142015   7.043   3.583   4.097  0.0801 -0.3773 -0.5147
13191SOL    HW242016   7.127   3.519   3.989  0.3827 -0.4336 -0.2462
13192SOL     OW42017   7.420   1.384   3.700 -0.2454  0.2270 -0.1056
13192SOL    HW142018   7.367   1.451   3.743  0.3140  0.8717 -0.4064
13192SOL    HW242019   7.476   1.349   3.769 -0.5206  0.0795  0.0451
13193SOL     OW42020   1.311   6.646   0.996 -0.0081 -0.1411 -0.0597
13193SOL    HW142021   1.299   6.562   1.040  0.9640  0.3761  1.2538
13193SOL    HW242022   1.404   6.665   1.008 -0.5447  1.9525  1.2213
13194SOL     OW42023   0.715   6.968   4.974 -0.3267 -0.3721  0.1432
13194SOL    HW142024   0.737   6.928   4.890  0.8374 -1.3370  0.8727
13194SOL    HW242025   0.799   6.977   5.019 -0.9800 -0.3543  1.4074
13195SOL     OW42026   2.672   1.482   1.233 -0.5830  0.3777 -0.3081
13195SOL    HW142027   2.714   1.567   1.246 -1.9636  1.0321  0.1092
13195SOL    HW242028   2.652   1.452   1.321 -0.5656 -0.1416 -0.4791
13196SOL     OW42029   7.587   4.687   4.108  0.0636  0.2966  0.0889
13196SOL    HW142030   7.557   4.773   4.136  1.6967  1.0758 -0.4410
13196SOL    HW242031   7.626   4.702   4.022 -2.3810 -1.5425 -1.4943
13197SOL     OW42032   5.037   6.353   4.444 -0.2173 -0.1854 -0.2000
13197SOL    HW142033   5.047   6.290   4.372  0.8713  0.0503 -0.2801
13197SOL    HW242034   5.080   6.432   4.412  0.8896 -0.2851  0.9429
13198SOL     OW42035   0.356   0.292   5.255 -1.0706 -0.1061 -0.0145
13198SOL    HW142036   0.361   0.342   5.174 -2.1768  0.2987  0.1510
13198SOL    HW242037   0.433   0.235   5.253 -1.1249 -0.1557 -1.3790
13199SOL     OW42038   5.120   3.585   8.111 -0.2110 -0.0709 -0.2566
13199SOL    HW142039   5.027   3.566   8.096 -0.2108  0.1487 -0.5536
13199SOL    HW242040   5.125   3.680   8.115  0.0472 -0.0684 -0.5657
13200SOL     OW42041   2.263   8.702   4.151 -0.8074 -0.1054  0.4129
13200SOL    HW142042   2.323   8.666   4.217 -0.7629  1.1671  1.0960
13200SOL    HW242043   2.205   8.759   4.201 -2.2149 -0.8335 -0.3358
13201SOL     OW42044   8.798   7.209   5.892  0.0242  0.3111 -0.0851
13201SOL    HW142045   8.767   7.192   5.803 -1.6776  1.3153  0.2582
13201SOL    HW242046   8.855   7.136   5.912 -1.1953 -1.0265 -1.2643
13202SOL     OW42047   9.128   9.043   3.832  0.0297 -0.2361  0.5665
13202SOL    HW142048   9.069   9.025   3.759  0.9679 -3.3781  0.4241
13202SOL    HW242049   9.103   8.979   3.899  2.1274 -0.5469  1.1374
13203SOL     OW42050   0.316   5.715   2.160 -0.0579 -0.3563  0.3451
13203SOL    HW142051   0.327   5.706   2.254  0.0194 -0.2476  0.3463
13203SOL    HW242052   0.231   5.675   2.142  0.2766 -1.0859  0.3523
13204SOL     OW42053   3.964   0.959   4.665  0.3074  0.6232  0.3048
13204SOL    HW142054   3.983   0.872   4.632  1.9393  0.5826  1.2022
13204SOL    HW242055   3.893   0.946   4.728  0.3989 -0.0430  0.2811
13205SOL     OW42056   4.776   9.449   8.816  0.2652  0.0136 -0.1096
13205SOL    HW142057   4.730   9.519   8.769 -1.7307 -0.2052  1.4068
13205SOL    HW242058   4.771   9.475   8.908  0.0837 -1.7749  0.4148
13206SOL     OW42059   0.655   3.593   1.758  0.3590  0.1342  0.5266
13206SOL    HW142060   0.566   3.563   1.737  0.6021 -0.1460 -0.1363
13206SOL    HW242061   0.682   3.643   1.681  1.0086 -0.3054  0.4659
13207SOL     OW42062   9.786   4.590   7.844  0.0833  0.6474 -0.3121
13207SOL    HW142063   9.863   4.620   7.891 -0.8686 -0.3032  1.9939
13207SOL    HW242064   9.792   4.495   7.844  0.1574  0.6001 -2.4020
13208SOL     OW42065   3.359   3.932   3.351  0.2043  0.3765  0.2041
13208SOL    HW142066   3.448   3.919   3.318 -0.2702 -0.1268 -0.9152
13208SOL    HW242067   3.348   4.027   3.353  0.6881  0.4369  0.1460
13209SOL     OW42068   6.858   0.931   0.544 -0.4923  0.4485 -0.2273
13209SOL    HW142069   6.926   0.875   0.581 -1.1632  0.8384  1.7201
13209SOL    HW242070   6.834   0.888   0.462  1.8161  0.1220 -0.7981
13210SOL     OW42071   8.215   9.709   8.538 -1.0436 -0.6233 -0.8314
13210SOL    HW142072   8.253   9.683   8.454  1.0998 -1.8621  0.4228
13210SOL    HW242073   8.276   9.773   8.573 -0.3276 -2.1909  0.9642
13211SOL     OW42074   9.092   2.832   0.417 -0.2588  0.1349  0.2130
13211SOL    HW142075   9.153   2.778   0.367 -0.3118  0.5610 -0.3264
13211SOL    HW242076   9.005   2.796   0.397 -0.3206  0.5813 -0.3791
13212SOL     OW42077   0.010   9.041   6.504  0.4581  0.4835  0.3485
13212SOL    HW142078  -0.015   8.957   6.543 -1.9170  0.5034 -0.9532
13212SOL    HW242079   0.005   9.025   6.410 -1.2723  2.3658  0.0635
13213SOL     OW42080   5.279   1.132   6.159 -0.7320  0.3333 -0.0047
13213SOL    HW142081   5.363   1.174   6.141 -0.3563 -1.0761 -1.9903
13213SOL    HW242082   5.244   1.178   6.235  1.8276  0.9523  0.8946
13214SOL     OW42083  10.409   4.842  10.186 -0.8347 -0.2003  0.0836
13214SOL    HW142084  10.474   4.868  10.121  1.4688  1.0833  2.6889
13214SOL    HW242085  10.342   4.911  10.181  1.0477  1.8539  1.2477
13215SOL     OW42086   3.736   8.588   2.775  0.0989  0.3887  0.4613
13215SOL    HW142087   3.752   8.552   2.863 -0.0087  0.7652  0.6347
13215SOL    HW242088   3.759   8.680   2.783  1.0059  0.2247 -0.1527
13216SOL     OW42089   5.580   5.289   4.245  0.1003 -0.1362  0.3848
13216SOL    HW142090   5.587   5.310   4.338  0.3936  2.5716 -0.1710
13216SOL    HW242091   5.494   5.248   4.236 -0.9793  1.7318  1.5491
13217SOL     OW42092   2.450  10.302   1.600  0.2943 -0.0198 -0.1326
13217SOL    HW142093   2.462  10.282   1.693  0.8329  2.4815  0.4087
13217SOL    HW242094   2.538  10.296   1.562  0.6375  1.9454  0.2358
13218SOL     OW42095   4.171   3.852   0.514 -0.1316 -0.1947  0.0261
13218SOL    HW142096   4.121   3.921   0.472  0.5439  0.7288  0.7115
13218SOL    HW242097   4.219   3.810   0.442 -1.0580 -0.4005 -0.4834
13219SOL     OW42098   8.235   9.487   4.448  0.1672  0.5891  0.3377
13219SOL    HW142099   8.238   9.421   4.517 -0.7885 -0.9172 -0.9943
13219SOL    HW242100   8.223   9.570   4.494  3.1421  0.1348  2.1946
13220SOL     OW42101   3.934   1.718   3.367 -0.1309  0.4110 -0.4125
13220SOL    HW142102   3.997   1.663   3.321 -2.1840  0.5273 -3.7530
13220SOL    HW242103   3.868   1.657   3.399 -0.0403  0.5453  0.0292
13221SOL     OW42104   4.036   5.783   8.249  0.0305 -0.3720 -0.6534
13221SOL    HW142105   3.986   5.863   8.237  2.4152  0.8477 -3.3916
13221SOL    HW242106   3.982   5.714   8.211 -1.9167 -0.1555  1.4891
13222SOL     OW42107   4.550   7.111   2.606 -0.2902 -1.0929 -0.7905
13222SOL    HW142108   4.460   7.118   2.639 -1.1081 -0.5096 -2.9514
13222SOL    HW242109   4.590   7.042   2.658 -0.0808  2.2519  4.2223
13223SOL     OW42110   6.236   0.237   3.455 -0.1971  0.4467 -0.0573
13223SOL    HW142111   6.308   0.252   3.395  1.0295  0.1686  1.2855
13223SOL    HW242112   6.215   0.144   3.446  0.0511  0.3846  0.0047
13224SOL     OW42113  10.240   1.320   6.161 -0.4046  0.7531  0.5530
13224SOL    HW142114  10.226   1.330   6.255  0.3110 -1.2713  0.9295
13224SOL    HW242115  10.153   1.324   6.122 -0.8050  0.6266  1.4250
13225SOL     OW42116   2.561   3.944  10.146 -0.3170  0.4866  0.5266
13225SOL    HW142117   2.640   3.911  10.189  0.0790  0.5326 -0.1518
13225SOL    HW242118   2.552   3.889  10.068 -0.0608  1.5105 -0.2302
13226SOL     OW42119   0.790   4.846   2.418  0.0948  0.0511  0.2043
13226SOL    HW142120   0.702   4.873   2.392  0.3909  0.9453  0.1267
13226SOL    HW242121   0.780   4.753   2.440 -0.3767 -0.5600 -2.2353
13227SOL     OW42122   1.297   5.390   6.008  0.0287  0.1821 -0.0461
13227SOL    HW142123   1.216   5.359   5.967  0.4488 -0.6887 -0.2308
13227SOL    HW242124   1.335   5.313   6.049  1.4857  0.2776 -1.1548
13228SOL     OW42125   8.366   6.593   2.175  0.2191  0.2178  0.1386
13228SOL    HW142126   8.280   6.551   2.165  0.2450  0.1796  0.0858
13228SOL    HW242127   8.373   6.651   2.099  0.4592 -0.1577 -0.1264
13229SOL     OW42128   9.869   7.172   8.575  0.0880  0.2592  0.0936
13229SOL    HW142129   9.932   7.151   8.506 -0.4525 -1.8808  0.2041
13229SOL    HW242130   9.795   7.113   8.559 -0.6825  0.7600  1.6389
13230SOL     OW42131   8.164   3.103   0.336 -0.2613 -0.7482 -0.0272
13230SOL    HW142132   8.127   3.101   0.424 -0.1127 -2.5330  0.0401
13230SOL    HW242133   8.097   3.144   0.282 -0.5340 -0.0388  0.8332
13231SOL     OW42134   6.108   1.958   8.909 -0.1651  0.1749  0.5939
13231SOL    HW142135   6.084   1.874   8.870  3.0639 -0.8231  0.5021
13231SOL    HW242136   6.086   2.023   8.842 -0.5861 -0.8292 -0.2669
13232SOL     OW42137   9.400   4.427   3.868 -0.3811  0.4324 -0.1496
13232SOL    HW142138   9.493   4.449   3.860 -0.2915 -0.3197 -1.2790
13232SOL    HW242139   9.354   4.501   3.827 -0.2284  0.1395 -0.8420
13233SOL     OW42140   9.053   8.308   3.690 -0.3327 -0.0273  0.0586
13233SOL    HW142141   9.074   8.228   3.739  1.0741 -0.6682 -1.5268
13233SOL    HW242142   8.993   8.279   3.621  0.9832  0.0584 -1.1548
13234SOL     OW42143   2.994   2.247   7.439 -0.3233 -0.3477 -0.3419
13234SOL    HW142144   3.045   2.176   7.479 -0.3901 -1.3709 -1.9987
13234SOL    HW242145   2.904   2.229   7.466 -0.1488  0.0496  0.5517
13235SOL     OW42146   9.040  10.419  10.130  0.4220  0.6231  0.3313
13235SOL    HW142147   9.052  10.454  10.042  2.1068 -1.9104 -0.5768
13235SOL    HW242148   9.129  10.413  10.165  0.0055 -0.6644  1.2293
13236SOL     OW42149   0.443   4.676   2.442 -0.2639  0.6970  0.0736
13236SOL    HW142150   0.465   4.741   2.376  1.7030 -0.3346 -0.3718
13236SOL    HW242151   0.368   4.629   2.405 -0.3837  1.3610 -0.5487
13237SOL     OW42152   1.459   4.548   5.346  0.3463 -0.4853 -0.7992
13237SOL    HW142153   1.461   4.563   5.252 -3.2797  1.5884 -0.7303
13237SOL    HW242154   1.383   4.490   5.360  0.7963 -0.7486  0.8417
13238SOL     OW42155   0.637   4.604   6.769 -0.1757 -0.5524  0.5446
13238SOL    HW142156   0.731   4.591   6.752 -0.2778  0.4372 -0.9111
13238SOL    HW242157   0.635   4.665   6.843  0.3309 -0.4598  0.4890
13239SOL     OW42158   5.755   9.652   3.566 -0.3015 -0.5767 -0.3601
13239SOL    HW142159   5.832   9.631   3.617 -0.1415 -1.1213 -0.8204
13239SOL    HW242160   5.683   9.653   3.629  0.2327  1.0077  0.2625
13240SOL     OW42161   2.598   5.444   2.107 -0.0352  0.0481  0.3871
13240SOL    HW142162   2.571   5.516   2.163  1.3052  1.7826 -1.0799
13240SOL    HW242163   2.646   5.384   2.164 -0.5999  0.6356  1.4901
13241SOL     OW42164  10.264   0.113   8.053 -0.1155  0.1760  0.6996
13241SOL    HW142165  10.333   0.090   8.115  2.9843 -0.8415 -2.7582
13241SOL    HW242166  10.280   0.205   8.033  0.3496 -0.0700 -0.1276
13242SOL     OW42167   7.381   6.609   1.830  0.0098 -0.0760 -0.1484
13242SOL    HW142168   7.351   6.686   1.782 -1.5249 -0.2796  0.4186
13242SOL    HW242169   7.408   6.643   1.915 -2.6315 -0.3347  0.8818
13243SOL     OW42170   6.532   8.631   3.847 -0.0368  0.2688 -0.3059
13243SOL    HW142171   6.537   8.724   3.872 -0.0683  0.3555 -0.6242
13243SOL    HW242172   6.462   8.596   3.902  0.2314  0.3425  0.0941
13244SOL     OW42173   1.029   2.472   3.626  0.6287 -0.0311  0.4898
13244SOL    HW142174   1.009   2.481   3.719  1.4360 -1.2854  0.8082
13244SOL    HW242175   0.956   2.420   3.592  2.8867 -4.4217  1.6113
13245SOL     OW42176   1.448   4.500   3.511 -0.2389  0.2634 -0.7951
13245SOL    HW142177   1.477   4.535   3.427  1.4078  1.7274  0.3229
13245SOL    HW242178   1.468   4.569   3.574  2.7073 -2.3875  1.4908
13246SOL     OW42179   7.879   9.374   2.374  0.4224 -0.1537  0.2090
13246SOL    HW142180   7.954   9.321   2.347  0.2815  0.7573 -2.2328
13246SOL    HW242181   7.808   9.311   2.385  1.2699 -0.9161  1.5898
13247SOL     OW42182   7.708   5.753   4.352  0.1146  0.0076 -0.2193
13247SOL    HW142183   7.617   5.728   4.338  0.8214 -2.0752 -1.4800
13247SOL    HW242184   7.715   5.770   4.446 -1.5298  0.1163 -0.0958
13248SOL     OW42185   1.869   9.490   7.439 -0.1845  0.4209 -0.3469
13248SOL    HW142186   1.864   9.460   7.348  0.3515 -0.0937 -0.2125
13248SOL    HW242187   1.863   9.586   7.433  0.9159  0.4597 -1.0140
13249SOL     OW42188   9.470   8.750   4.911 -0.3651 -0.4672  0.1260
13249SOL    HW142189   9.502   8.718   4.995 -1.4949 -1.3231  0.2556
13249SOL    HW242190   9.395   8.805   4.934 -0.8877 -0.9787 -0.3263
13250SOL     OW42191   8.334   6.016   1.613  0.2166  0.0082  0.7714
13250SOL    HW142192   8.278   5.963   1.669  0.5793  0.1262  1.2544
13250SOL    HW242193   8.421   5.976   1.621  0.3366  0.2167  0.5399
13251SOL     OW42194   5.408   1.005   2.158  0.5372  0.1024  0.4343
13251SOL    HW142195   5.491   0.983   2.201  0.6168 -2.5453 -0.8881
13251SOL    HW242196   5.433   1.043   2.074  0.3938 -0.0388  0.3278
13252SOL     OW42197   0.804   7.189   7.573  0.7792  0.5165  0.1779
13252SOL    HW142198   0.754   7.249   7.518 -2.1165 -0.1723  1.8081
13252SOL    HW242199   0.790   7.221   7.662  0.8964 -1.3661  0.9205
13253SOL     OW42200   0.103   7.246   5.880 -0.0092  0.1480 -0.1361
13253SOL    HW142201   0.194   7.219   5.892 -0.1532 -0.6821 -0.7791
13253SOL    HW242202   0.090   7.242   5.785 -0.1146  2.3097 -0.2538
13254SOL     OW42203   7.334   2.972   1.555 -0.1269 -0.6278  0.1754
13254SOL    HW142204   7.404   2.972   1.490 -1.0383 -2.0798 -0.8731
13254SOL    HW242205   7.321   2.880   1.577 -0.9351 -0.2901  1.2095
13255SOL     OW42206   0.642  10.425   4.118  0.3081  0.0287 -0.0455
13255SOL    HW142207   0.731  10.461   4.114  0.6520 -0.3399  2.4724
13255SOL    HW242208   0.587  10.501   4.138  0.5354 -0.1727  1.5199
13256SOL     OW42209   2.049   9.375   3.392  0.5421 -0.1347  0.1140
13256SOL    HW142210   2.000   9.325   3.458  1.0166 -0.3800  0.2918
13256SOL    HW242211   2.111   9.427   3.444 -0.5338  1.3150 -0.0166
13257SOL     OW42212   2.727   5.616   3.813  0.4701  0.2960  0.0837
13257SOL    HW142213   2.640   5.585   3.840  0.5526  0.5290  0.6368
13257SOL    HW242214   2.724   5.710   3.828  0.4764  0.4614 -0.8788
13258SOL     OW42215   7.301   0.707   1.090  0.3411 -0.1185 -0.1134
13258SOL    HW142216   7.330   0.703   1.181  0.1595  1.6061  0.0478
13258SOL    HW242217   7.379   0.736   1.042  0.3898 -0.8607 -0.5006
13259SOL     OW42218   7.549   7.911   0.839 -0.1884 -0.2880 -0.2588
13259SOL    HW142219   7.453   7.905   0.846 -0.0657 -0.4634  2.0870
13259SOL    HW242220   7.581   7.827   0.872  0.7763  0.7630  1.6810
13260SOL     OW42221   9.968   3.430   2.759  0.1644  0.1227 -0.0987
13260SOL    HW142222   9.973   3.335   2.756  0.5758  0.0356  1.7955
13260SOL    HW242223  10.051   3.460   2.721  1.2365 -0.3987  1.6953
13261SOL     OW42224   6.465  10.098   0.144  0.1334  0.0281  0.0293
13261SOL    HW142225   6.534  10.032   0.146  0.4893  0.2838 -1.9548
13261SOL    HW242226   6.394  10.057   0.095 -1.1357 -0.2029  1.9685
13262SOL     OW42227   6.694   1.907   6.953  0.0276 -0.2113 -0.2454
13262SOL    HW142228   6.714   1.987   7.003  0.6056 -0.3630 -0.2209
13262SOL    HW242229   6.601   1.892   6.968  0.2113 -0.3115  0.8748
13263SOL     OW42230   0.995  10.336   9.760  0.1948  0.4502 -0.3667
13263SOL    HW142231   0.920  10.318   9.704  1.6857 -0.3473 -2.2296
13263SOL    HW242232   1.055  10.263   9.744  0.1814 -0.5955  3.3767
13264SOL     OW42233   5.396   2.761   7.549  0.0714 -0.0395  0.0215
13264SOL    HW142234   5.484   2.750   7.511  0.1612  2.9122 -0.9253
13264SOL    HW242235   5.410   2.818   7.625 -0.8613 -0.9172  0.8741
13265SOL     OW42236   3.478   2.160   7.034 -0.7340 -0.2837  0.3066
13265SOL    HW142237   3.471   2.228   6.967 -0.9081 -2.2965 -1.8481
13265SOL    HW242238   3.404   2.178   7.093  0.5521  2.6859  1.2030
13266SOL     OW42239   3.207   6.258   5.481 -0.1716  0.7156  0.5329
13266SOL    HW142240   3.224   6.326   5.546  0.3984  0.8914  0.2066
13266SOL    HW242241   3.288   6.208   5.477  0.4962  1.8312 -1.3588
13267SOL     OW42242   9.102   8.049   3.837  0.6533  0.2834 -0.2215
13267SOL    HW142243   9.179   7.998   3.812 -1.5399 -3.6134  0.2053
13267SOL    HW242244   9.123   8.082   3.924  1.7762 -0.9507  0.0056
13268SOL     OW42245   3.099   9.441  10.404  0.2740 -0.2717 -0.1323
13268SOL    HW142246   3.106   9.363  10.349 -1.7908 -0.4568 -0.1790
13268SOL    HW242247   3.058   9.507  10.347  1.1702  0.6061  0.1918
13269SOL     OW42248   7.920   1.994   7.753  0.5335  0.0034 -0.0011
13269SOL    HW142249   7.906   1.928   7.685 -0.5456 -1.4693  1.5666
13269SOL    HW242250   8.007   1.974   7.788  1.0438  0.6944 -0.8422
13270SOL     OW42251   9.300   9.937   5.437  0.0634  0.2896 -0.3484
13270SOL    HW142252   9.225   9.952   5.379  0.1683 -0.9080 -0.8174
13270SOL    HW242253   9.264   9.943   5.525 -0.4855  0.2066 -0.5645
13271SOL     OW42254   0.642   9.864   2.822 -0.6571 -0.2827  0.0732
13271SOL    HW142255   0.637   9.770   2.842  1.7960 -0.7475 -1.0730
13271SOL    HW242256   0.692   9.901   2.895 -2.7620  0.4683  1.2279
13272SOL     OW42257   4.758   3.285   3.408  0.4322 -0.4152  0.1499
13272SOL    HW142258   4.768   3.322   3.321  1.3463 -1.5576 -0.2544
13272SOL    HW242259   4.764   3.190   3.395 -1.7257 -0.7451  1.1572
13273SOL     OW42260   9.538   6.922   9.905  0.3978 -0.1465  0.0418
13273SOL    HW142261   9.597   6.940   9.832  0.7643  0.1745  0.4134
13273SOL    HW242262   9.577   6.847   9.950  0.7595  0.3407  0.5428
13274SOL     OW42263   8.621   6.208   2.390 -0.3619 -0.0342  0.3034
13274SOL    HW142264   8.696   6.149   2.389 -0.5543 -0.4901  3.5515
13274SOL    HW242265   8.636   6.265   2.466 -1.2442  2.7493 -1.4643
13275SOL     OW42266   6.500   6.176   1.791  0.1614  0.3888 -0.3321
13275SOL    HW142267   6.585   6.159   1.748  0.2448  0.2306 -0.1042
13275SOL    HW242268   6.495   6.271   1.797 -0.6767  0.5326 -2.3692
13276SOL     OW42269   6.297   1.258   4.363  0.3575 -0.1830 -0.3012
13276SOL    HW142270   6.385   1.219   4.365 -0.0315 -1.2165 -1.9584
13276SOL    HW242271   6.240   1.189   4.330 -0.9722  0.7288 -0.0063
13277SOL     OW42272   2.725   4.465   2.555 -0.0987 -0.5446 -0.3526
13277SOL    HW142273   2.674   4.510   2.623 -0.6550 -1.3303 -0.2429
13277SOL    HW242274   2.676   4.482   2.474  1.3122  1.5969 -0.8404
13278SOL     OW42275   2.558   1.155   0.933  0.7052  0.0974  0.3145
13278SOL    HW142276   2.519   1.068   0.921  1.5311 -0.1120 -1.0027
13278SOL    HW242277   2.646   1.138   0.967  0.0460  0.5427  2.4064
13279SOL     OW42278  10.158   1.607   5.183  0.2536  0.2872  0.0728
13279SOL    HW142279  10.241   1.621   5.228  0.1809  0.4457  0.1608
13279SOL    HW242280  10.166   1.656   5.101  0.2400  0.3188  0.0903
13280SOL     OW42281   9.643   0.889   0.331 -0.7638  0.2178  0.3282
13280SOL    HW142282   9.571   0.827   0.338 -0.2036 -0.5450 -0.4231
13280SOL    HW242283   9.603   0.970   0.299 -1.1331 -0.5458 -1.2337
13281SOL     OW42284   1.448   4.436   4.300  0.3451  0.4838  0.1608
13281SOL    HW142285   1.397   4.437   4.218 -0.6122 -1.2610  0.6819
13281SOL    HW242286   1.445   4.344   4.329  1.5009  0.8783  1.6490
13282SOL     OW42287   2.605   4.875   6.276  0.0646 -0.0988  0.2373
13282SOL    HW142288   2.646   4.795   6.245  1.8584  0.9321 -0.1764
13282SOL    HW242289   2.626   4.878   6.370 -0.5814 -0.4363  0.3973
13283SOL     OW42290   5.222   8.602  10.438  0.4169 -0.0742 -0.1148
13283SOL    HW142291   5.128   8.594  10.421  0.5952  1.0057 -1.8351
13283SOL    HW242292   5.263   8.545  10.373  0.9684 -1.2889  1.2346
13284SOL     OW42293   5.320   1.546   2.607 -0.1855 -0.1029 -0.4672
13284SOL    HW142294   5.240   1.580   2.648 -1.3926 -1.1275 -1.8867
13284SOL    HW242295   5.291   1.509   2.524  1.6186 -1.3838 -0.5871
13285SOL     OW42296   4.999   3.310   0.961 -0.2832 -0.1542 -0.1809
13285SOL    HW142297   4.966   3.400   0.964 -0.7413 -0.3481  1.5512
13285SOL    HW242298   4.921   3.255   0.973  0.2605 -0.7021  0.9744
13286SOL     OW42299   2.364   8.716   4.871  0.5664 -0.4199 -0.5376
13286SOL    HW142300   2.424   8.721   4.796  0.5981 -0.9214 -0.5504
13286SOL    HW242301   2.419   8.735   4.947  0.5628 -0.0456 -0.6241
13287SOL     OW42302   6.381   2.943   0.758  0.0791  0.1678  1.1926
13287SOL    HW142303   6.434   2.943   0.837 -0.3767 -0.4047  1.5070
13287SOL    HW242304   6.304   2.996   0.779 -0.4195 -0.6148  1.4094
13288SOL     OW42305   8.717   5.357   6.026 -0.3808 -0.1950 -0.0050
13288SOL    HW142306   8.716   5.422   5.956 -1.1219 -1.3472 -1.0912
13288SOL    HW242307   8.631   5.315   6.021 -0.2464 -0.6711  1.2574
13289SOL     OW42308   7.661   7.514   1.889 -0.8713 -0.0919  0.2675
13289SOL    HW142309   7.678   7.495   1.981 -1.2931 -1.6792  0.0437
13289SOL    HW242310   7.602   7.590   1.890 -0.4542  0.2331  1.2698
13290SOL     OW42311   2.185   6.469   2.543 -0.6837 -0.4607 -0.0808
13290SOL    HW142312   2.154   6.433   2.626  0.8450  1.2751  1.3310
13290SOL    HW242313   2.108   6.468   2.486 -1.9998 -0.9363  1.6206
13291SOL     OW42314   4.862   6.282   3.280 -0.0205 -0.0183 -0.4907
13291SOL    HW142315   4.787   6.291   3.221  0.5343  0.1492 -1.1925
13291SOL    HW242316   4.935   6.319   3.231  0.3900  0.4741  0.4569
13292SOL     OW42317   6.397   2.568   1.113  1.1077  0.3899 -0.4751
13292SOL    HW142318   6.400   2.494   1.173 -0.2464  1.3302  0.8350
13292SOL    HW242319   6.368   2.532   1.030  2.4925 -0.8564 -0.4538
13293SOL     OW42320   2.157   0.275   7.104 -0.4035 -0.5331  0.0617
13293SOL    HW142321   2.117   0.275   7.017  0.2985 -0.6732 -0.2660
13293SOL    HW242322   2.250   0.290   7.088  0.2349 -3.3558  0.5523
13294SOL     OW42323   1.085   2.852  10.133  0.3392 -0.1409 -0.3157
13294SOL    HW142324   1.010   2.874  10.077  0.1136 -1.9261 -0.7750
13294SOL    HW242325   1.062   2.767  10.171  1.1800  0.3255  1.2858
13295SOL     OW42326   2.640  10.263   2.081  0.5805 -0.2303  0.1076
13295SOL    HW142327   2.549  10.254   2.051  0.5068 -0.3890  0.3780
13295SOL    HW242328   2.633  10.306   2.166  0.5949 -2.1793  1.1557
13296SOL     OW42329   8.569   3.740  10.466  0.1263  0.0194  0.5155
13296SOL    HW142330   8.576   3.760  10.372 -0.2543 -1.1403  0.2209
13296SOL    HW242331   8.604   3.651  10.474 -0.6065 -0.2045  1.3387
13297SOL     OW42332   2.032   4.465   8.223  0.3460  0.1264  0.3844
13297SOL    HW142333   2.031   4.556   8.254 -1.3945  0.6754 -1.0824
13297SOL    HW242334   1.942   4.449   8.195  1.1831 -1.2130 -1.7611
13298SOL     OW42335   2.586   3.622  10.313 -0.3757 -0.3999  0.1935
13298SOL    HW142336   2.633   3.553  10.359 -1.5995 -1.4571 -0.0974
13298SOL    HW242337   2.644   3.698  10.319  0.0542 -0.8426  2.3454
13299SOL     OW42338   8.289   3.629   1.781 -1.1117 -0.2929 -0.3553
13299SOL    HW142339   8.284   3.649   1.687 -0.7737  0.7082 -0.1802
13299SOL    HW242340   8.199   3.636   1.812 -1.3268 -1.2903 -0.7173
13300SOL     OW42341   1.108   8.826   6.275 -0.4969 -0.7754 -0.3583
13300SOL    HW142342   1.020   8.859   6.295  0.9252  3.3280 -0.0114
13300SOL    HW242343   1.114   8.830   6.180 -0.2157  0.3824 -0.2979
13301SOL     OW42344   5.977   0.494   4.872 -0.7402  0.7548 -0.1749
13301SOL    HW142345   6.065   0.511   4.904 -0.5638 -0.1133 -0.1699
13301SOL    HW242346   5.971   0.543   4.790  0.2613 -0.3417 -0.9223
13302SOL     OW42347   7.152   0.809   4.692  0.0441  0.2910 -0.0266
13302SOL    HW142348   7.109   0.767   4.766  1.3728  2.0191  1.8150
13302SOL    HW242349   7.238   0.832   4.724  0.2975  2.0490 -1.7942
13303SOL     OW42350  10.083   6.773   0.373 -0.2758 -0.7008 -0.2412
13303SOL    HW142351  10.106   6.796   0.463 -2.9904  0.5246  0.2257
13303SOL    HW242352  10.042   6.687   0.380  0.2966 -0.9995 -0.4660
13304SOL     OW42353   2.755  10.173   5.689  0.3939 -0.4263  0.1599
13304SOL    HW142354   2.716  10.215   5.766  0.4300 -1.9627  1.0556
13304SOL    HW242355   2.761  10.243   5.624 -3.2649  0.0700  0.1557
13305SOL     OW42356   7.113   8.541  10.309 -0.1876 -0.2692 -0.0836
13305SOL    HW142357   7.137   8.591  10.231 -0.0364 -0.3299 -0.0766
13305SOL    HW242358   7.194   8.498  10.335  0.3346  1.4889  1.3988
13306SOL     OW42359   1.206   5.810   9.828  0.3093  0.0683 -0.1899
13306SOL    HW142360   1.139   5.849   9.772  2.6044  3.9287 -0.6576
13306SOL    HW242361   1.233   5.730   9.783 -1.8768  0.0014 -1.4925
13307SOL     OW42362   1.559   5.788   4.512  0.1097 -0.8109 -0.1336
13307SOL    HW142363   1.617   5.744   4.574 -0.0510 -0.6884  0.1069
13307SOL    HW242364   1.470   5.767   4.544  0.0325 -0.0150  0.2034
13308SOL     OW42365   2.970   9.797   3.655  0.1486  0.5167 -0.2421
13308SOL    HW142366   3.038   9.795   3.588  2.3625  0.3563  1.8858
13308SOL    HW242367   2.982   9.881   3.699 -0.3539  0.0520  0.8159
13309SOL     OW42368   9.354   4.081   1.078 -0.1948  0.1149 -0.0232
13309SOL    HW142369   9.336   4.060   0.986 -0.0116 -0.2968  0.0322
13309SOL    HW242370   9.361   3.996   1.121  0.2422  0.2941  0.2705
13310SOL     OW42371   4.888  10.316   4.744 -0.2276  0.2960  0.2109
13310SOL    HW142372   4.807  10.324   4.695 -1.0111  0.3234  1.4540
13310SOL    HW242373   4.954  10.293   4.679 -1.3622 -0.3994 -0.7365
13311SOL     OW42374   0.774   9.046   6.167 -0.0208 -0.2836  0.1802
13311SOL    HW142375   0.810   9.007   6.246 -1.1805 -1.1645  0.2918
13311SOL    HW242376   0.742   8.972   6.116  1.0113  0.2382 -1.2923
13312SOL     OW42377   8.969   5.435   7.271  0.2574 -0.1232 -0.0118
13312SOL    HW142378   8.948   5.348   7.237 -1.3227  0.5416 -0.8372
13312SOL    HW242379   8.929   5.496   7.209  2.0444  1.2434  0.0813
13313SOL     OW42380   7.183   2.772   2.172  0.0272  0.0541  0.1659
13313SOL    HW142381   7.189   2.856   2.218  1.5585 -1.1172  2.3114
13313SOL    HW242382   7.106   2.780   2.116 -0.5934  2.4316  1.2394
13314SOL     OW42383   1.604   9.175   0.966  0.2639 -0.1738 -0.4524
13314SOL    HW142384   1.595   9.169   0.871  1.9163 -0.4182 -0.6316
13314SOL    HW242385   1.529   9.228   0.994 -1.7468 -2.2713 -1.5491
13315SOL     OW42386   3.697   7.136   7.485  0.3659 -0.1519  0.4861
13315SOL    HW142387   3.771   7.195   7.470  0.0658  0.2386  0.5382
13315SOL    HW242388   3.676   7.147   7.578 -0.0064  0.0261  0.3810
13316SOL     OW42389   0.980   8.199   4.247 -0.6403  0.4269  0.0666
13316SOL    HW142390   0.938   8.278   4.283  0.9596  1.4307 -0.1495
13316SOL    HW242391   0.988   8.218   4.153  0.5068  0.3884  0.1461
13317SOL     OW42392   3.117   5.031   9.456 -0.6982  0.4320 -0.0391
13317SOL    HW142393   3.058   5.056   9.527  0.2323 -0.4264  1.0786
13317SOL    HW242394   3.139   4.940   9.474  1.3750  0.8781 -0.1202
13318SOL     OW42395   7.207   3.531   4.700 -0.2056 -0.2635  0.0899
13318SOL    HW142396   7.141   3.493   4.759  0.9935 -0.7462  1.1808
13318SOL    HW242397   7.194   3.626   4.708  0.5635 -0.2542  1.9980
13319SOL     OW42398   5.336   8.920   5.972 -0.1631  0.2709 -0.3322
13319SOL    HW142399   5.398   8.983   6.008 -0.1181  0.7644 -1.2348
13319SOL    HW242400   5.342   8.844   6.030  1.8779  0.0016 -0.8336
13320SOL     OW42401   6.861   4.309   9.004 -0.3046 -0.8136  0.0729
13320SOL    HW142402   6.795   4.369   9.038  0.0852  0.2081 -0.9341
13320SOL    HW242403   6.811   4.240   8.961 -0.7417 -0.9724  0.8126
13321SOL     OW42404   0.283   2.354   2.345 -0.3409  0.0266 -0.6249
13321SOL    HW142405   0.267   2.341   2.439 -3.1393 -1.7030 -1.2526
13321SOL    HW242406   0.377   2.340   2.335  0.2215  1.2085  2.0175
13322SOL     OW42407   7.748   5.978   0.637 -0.5222  0.4938  0.3050
13322SOL    HW142408   7.664   5.984   0.592 -1.4786  0.6014  1.9978
13322SOL    HW242409   7.753   6.058   0.689  0.8724  0.7225 -0.1323
13323SOL     OW42410   0.006   1.141   4.714 -0.1988 -0.1693 -0.3579
13323SOL    HW142411  -0.016   1.233   4.699  1.7464  0.2991 -0.5845
13323SOL    HW242412  -0.066   1.108   4.769 -0.0987  1.9387  1.1671
13324SOL     OW42413   7.036   5.631   2.908  0.1358  0.4228  0.5768
13324SOL    HW142414   7.113   5.669   2.948  1.1372 -0.6246 -0.2923
13324SOL    HW242415   7.042   5.655   2.815  0.0480 -0.6305  0.2840
13325SOL     OW42416   9.593   5.292   8.618 -0.1364  0.2500  0.5776
13325SOL    HW142417   9.512   5.317   8.574  0.8593  1.7314 -0.4870
13325SOL    HW242418   9.638   5.235   8.555 -0.0364 -0.0162  0.8854
13326SOL     OW42419   2.978   6.177   8.758 -0.6162  0.2037 -0.0023
13326SOL    HW142420   2.928   6.159   8.838 -0.2992 -0.0993  0.1316
13326SOL    HW242421   3.029   6.097   8.743 -1.7160 -0.2977 -1.2984
13327SOL     OW42422   4.576   2.489   6.940 -0.4358 -0.1616 -0.1373
13327SOL    HW142423   4.616   2.414   6.896  0.2099  0.8920 -1.4164
13327SOL    HW242424   4.482   2.480   6.924 -0.4918 -1.2767  0.6981
13328SOL     OW42425   4.249   7.653   4.199 -0.0518 -0.0163  0.2451
13328SOL    HW142426   4.202   7.589   4.145 -0.7741 -0.2368  1.1079
13328SOL    HW242427   4.339   7.647   4.169 -0.7291  1.4135 -2.4343
13329SOL     OW42428   4.471   3.417   9.766 -0.8226  0.0800  0.0920
13329SOL    HW142429   4.526   3.473   9.711 -0.7443  0.1543  0.2484
13329SOL    HW242430   4.513   3.331   9.762 -0.9209  0.0392 -0.1147
13330SOL     OW42431   1.472   9.360   4.125 -0.3066  0.0111  0.0407
13330SOL    HW142432   1.502   9.420   4.193 -0.7572 -3.0313  3.2436
13330SOL    HW242433   1.377   9.361   4.133 -0.3742 -0.2253 -0.7110
13331SOL     OW42434  10.109  10.230   3.207 -0.1504  0.1699 -0.0286
13331SOL    HW142435  10.120  10.137   3.188  1.6344  0.2961  0.1751
13331SOL    HW242436  10.031  10.256   3.159 -1.7582 -1.8140  1.3724
13332SOL     OW42437   4.222   8.476   0.883  0.3173 -0.1448 -0.4288
13332SOL    HW142438   4.162   8.517   0.946 -0.4507  0.2792 -1.4215
13332SOL    HW242439   4.270   8.412   0.935  1.1794  1.6200  1.0696
13333SOL     OW42440   8.495   4.505   4.314  0.2036  0.2143  0.5218
13333SOL    HW142441   8.447   4.520   4.233  0.6240 -0.2937  0.1771
13333SOL    HW242442   8.432   4.525   4.383 -0.3317  0.0882  0.0746
13334SOL     OW42443   0.173   5.039   8.367  0.1166  0.3783 -0.1201
13334SOL    HW142444   0.177   5.066   8.275  0.3209  1.0776  0.0857
13334SOL    HW242445   0.162   5.121   8.415  0.4847  0.0627  0.5101
13335SOL     OW42446   3.599   3.486  10.214  0.0055  0.0609 -0.1562
13335SOL    HW142447   3.673   3.469  10.156  0.9064  2.1100  0.2899
13335SOL    HW242448   3.540   3.540  10.161 -0.2427  0.0558  0.1167
13336SOL     OW42449   3.876   8.041   7.092 -0.2928 -1.2879  0.0289
13336SOL    HW142450   3.930   8.112   7.126 -1.2141  0.2924 -1.6527
13336SOL    HW242451   3.822   8.015   7.167 -1.1128  0.9598  0.3076
13337SOL     OW42452   3.373   2.279   4.465  0.5619 -0.3911  0.7195
13337SOL    HW142453   3.320   2.228   4.526 -0.6414 -0.1108 -0.0609
13337SOL    HW242454   3.431   2.215   4.424 -0.7389 -1.1243 -0.0407
13338SOL     OW42455   9.651   4.777   7.339  0.2542 -0.2752  0.5928
13338SOL    HW142456   9.651   4.859   7.388  1.2753 -0.3224  0.7043
13338SOL    HW242457   9.675   4.711   7.404 -0.0376 -0.5773  0.3912
13339SOL     OW42458   7.142   8.234   9.002 -0.0652 -0.4846  0.4748
13339SOL    HW142459   7.133   8.323   8.968 -1.9114 -0.4826  0.8647
13339SOL    HW242460   7.062   8.220   9.054  1.1901 -1.5907  2.2303
13340SOL     OW42461   8.755  10.351   4.727 -0.7376 -0.2937 -0.2585
13340SOL    HW142462   8.663  10.349   4.756 -0.8697  1.4572 -0.4599
13340SOL    HW242463   8.792  10.428   4.771  0.7479 -1.1649  0.0735
13341SOL     OW42464  10.465   8.553   9.218 -0.5951  0.6202 -0.3039
13341SOL    HW142465  10.486   8.478   9.273  2.2540 -0.3166 -2.4207
13341SOL    HW242466  10.431   8.514   9.137 -1.7656  1.8153 -0.4253
13342SOL     OW42467   9.775  10.056   5.299 -0.2065  0.5379 -0.0619
13342SOL    HW142468   9.766   9.977   5.245 -0.1123  0.2110  0.3977
13342SOL    HW242469   9.853  10.040   5.352 -0.2755  0.8775  0.1417
13343SOL     OW42470   3.043   9.555   4.765 -0.6728  0.9223 -0.1489
13343SOL    HW142471   3.074   9.617   4.699  1.8008 -1.6516 -1.5748
13343SOL    HW242472   2.970   9.509   4.723 -0.0928  0.3282 -0.5040
13344SOL     OW42473  10.283   5.113   8.019 -0.1470  0.1611 -0.7583
13344SOL    HW142474  10.227   5.037   8.038  2.3033 -1.8393 -0.9040
13344SOL    HW242475  10.284   5.119   7.924 -0.8719  0.8398 -0.7304
13345SOL     OW42476   1.638   5.256  10.377 -0.2451 -0.3798 -0.2543
13345SOL    HW142477   1.641   5.288  10.467  1.4449  2.6253 -1.2393
13345SOL    HW242478   1.720   5.208  10.366  0.1372  0.3284 -0.5276
13346SOL     OW42479   9.303   2.609   7.206  0.0910 -0.3040 -0.3184
13346SOL    HW142480   9.222   2.584   7.251  0.4307 -0.3299  0.2808
13346SOL    HW242481   9.320   2.537   7.145  0.3968 -0.9446  0.5174
13347SOL     OW42482   8.910   2.675   1.416  0.1677 -0.0416 -0.2728
13347SOL    HW142483   8.815   2.689   1.413  0.3045  0.8815 -0.8246
13347SOL    HW242484   8.937   2.683   1.324  0.7937 -0.1729 -0.0997
13348SOL     OW42485   7.400   0.694   5.967 -0.1220  0.5366  0.2281
13348SOL    HW142486   7.348   0.649   5.901 -0.0750  0.3510  0.3161
13348SOL    HW242487   7.433   0.772   5.922 -0.7323  0.8220  0.2693
13349SOL     OW42488   9.022   9.071   1.447  0.2506  0.2367  0.5785
13349SOL    HW142489   9.041   8.995   1.391 -5.0741 -0.5351 -0.6866
13349SOL    HW242490   9.046   9.147   1.394  1.1676 -0.5055 -0.1097
13350SOL     OW42491   1.796   9.625   5.342  0.3819  0.1389  0.6335
13350SOL    HW142492   1.876   9.649   5.390  1.1062 -0.4867 -0.2450
13350SOL    HW242493   1.810   9.535   5.314  0.1718  0.6201 -1.1438
13351SOL     OW42494   4.660   1.161   3.467 -0.1771 -0.3994 -0.3553
13351SOL    HW142495   4.709   1.119   3.396  1.5026  0.7408  0.0773
13351SOL    HW242496   4.665   1.255   3.448  0.9809  0.0014  1.6178
13352SOL     OW42497   7.290   7.936   0.985 -0.3552  0.3249  0.1294
13352SOL    HW142498   7.318   8.018   1.026 -0.0521 -0.2080  1.0184
13352SOL    HW242499   7.295   7.871   1.055 -0.7353 -0.4293 -0.5235
13353SOL     OW42500   3.206   7.018   2.313 -0.5378 -0.1393  0.1279
13353SOL    HW142501   3.152   7.082   2.359 -2.8992 -1.0212 -1.2417
13353SOL    HW242502   3.248   7.069   2.244 -0.0260  0.4539  0.8529
13354SOL     OW42503   8.039   6.557   0.750 -0.1309 -0.1131  0.1844
13354SOL    HW142504   8.024   6.472   0.708  1.7822 -0.7824  0.7428
13354SOL    HW242505   8.064   6.535   0.840 -1.8126  1.1907  1.0402
13355SOL     OW42506   7.933   4.505  10.157  0.2855  0.6319  0.0267
13355SOL    HW142507   7.885   4.423  10.141  0.3736 -0.0841  2.9985
13355SOL    HW242508   7.867   4.573  10.147 -0.4302 -0.0263  0.1598
13356SOL     OW42509   8.639   8.739   3.546  0.1618 -0.2637 -0.1979
13356SOL    HW142510   8.591   8.756   3.628  0.8025  1.9231 -0.2148
13356SOL    HW242511   8.593   8.665   3.507 -2.9066  1.3138  0.0724
13357SOL     OW42512   0.101   0.651  10.483  0.2725  0.2313  0.6910
13357SOL    HW142513   0.033   0.623  10.543 -0.1708  1.0896  0.5972
13357SOL    HW242514   0.161   0.576  10.478 -2.1497 -1.7183 -1.4919
13358SOL     OW42515   4.973   4.769   5.167 -0.4679 -0.3971 -0.6884
13358SOL    HW142516   4.952   4.772   5.261 -2.4944 -1.8481 -1.0383
13358SOL    HW242517   5.065   4.744   5.165  0.5257  2.5288  0.8904
13359SOL     OW42518   1.698   8.350   0.566 -0.1797  0.0768  0.1609
13359SOL    HW142519   1.783   8.328   0.602 -0.4417  1.7028  1.8969
13359SOL    HW242520   1.672   8.431   0.610 -1.7158  0.7666 -1.8153
13360SOL     OW42521   7.262   0.665   2.863  0.5464  0.3194 -0.1736
13360SOL    HW142522   7.290   0.579   2.833 -0.9774 -0.1708 -0.2809
13360SOL    HW242523   7.285   0.724   2.791 -0.2355 -0.3449 -0.9947
13361SOL     OW42524   4.525   5.987   8.621 -0.6461 -0.3324  0.0082
13361SOL    HW142525   4.474   5.986   8.540  0.9712 -0.6193 -1.0394
13361SOL    HW242526   4.561   5.899   8.628  0.5153  0.1435  0.1892
13362SOL     OW42527   4.677   7.373   2.516  0.0502 -0.5072  0.5762
13362SOL    HW142528   4.631   7.294   2.547 -2.1829 -0.8370 -2.9302
13362SOL    HW242529   4.767   7.344   2.500 -0.4585 -2.0778  0.3986
13363SOL     OW42530   8.456   2.724   2.696 -0.2410 -0.1526  0.0239
13363SOL    HW142531   8.538   2.728   2.747  0.2496 -4.0034 -0.1902
13363SOL    HW242532   8.387   2.736   2.762  0.4334  0.7392  0.6008
13364SOL     OW42533   3.694   3.282   9.048 -0.2912 -0.0744 -0.3787
13364SOL    HW142534   3.622   3.255   9.105  0.7228 -0.4063  0.7808
13364SOL    HW242535   3.691   3.378   9.049 -3.1976  0.0804 -3.6129
13365SOL     OW42536   1.786   4.599   9.262 -0.1226 -0.5614  0.4547
13365SOL    HW142537   1.791   4.594   9.167 -2.9998 -2.4438  0.2535
13365SOL    HW242538   1.830   4.520   9.293 -1.0622 -1.0880  0.4998
13366SOL     OW42539   1.694   7.390   3.967  0.1836 -0.2218  0.0474
13366SOL    HW142540   1.778   7.346   3.983  0.8148  0.7762 -0.3815
13366SOL    HW242541   1.655   7.341   3.895 -0.0952 -1.3269  0.9239
13367SOL     OW42542   5.042   2.377   4.379  0.0976 -0.0173  0.1747
13367SOL    HW142543   5.074   2.304   4.326 -2.3136 -1.5959  0.7303
13367SOL    HW242544   5.054   2.348   4.470 -0.9906  0.1760  0.4017
13368SOL     OW42545   7.035  10.370   7.588  0.4468  0.7211 -0.7844
13368SOL    HW142546   6.979  10.313   7.536 -0.8631  2.0631 -0.9423
13368SOL    HW242547   7.124  10.350   7.559  0.0267 -1.0278 -0.9919
13369SOL     OW42548   5.474   4.007   9.127 -0.1546  0.2478 -0.2619
13369SOL    HW142549   5.473   4.100   9.103  1.1175  0.1255 -0.9288
13369SOL    HW242550   5.426   4.003   9.209 -1.9672  1.1812 -1.2247
13370SOL     OW42551   2.048   6.295   4.324  0.3155  0.1196 -0.4507
13370SOL    HW142552   1.964   6.271   4.284  0.7892  0.4588 -1.6900
13370SOL    HW242553   2.093   6.346   4.257  2.3857 -1.7756 -0.6289
13371SOL     OW42554   9.015   7.496   5.179 -0.1887  0.3402  0.2208
13371SOL    HW142555   8.948   7.490   5.110 -0.0659  0.0299  0.1268
13371SOL    HW242556   9.097   7.505   5.131 -0.2343  1.5645  0.3397
13372SOL     OW42557   8.943   9.242   6.644 -0.1305  0.3001 -1.3759
13372SOL    HW142558   8.971   9.245   6.552 -0.7102 -0.7779 -1.6024
13372SOL    HW242559   8.855   9.205   6.640 -0.6426  1.3706 -0.4772
13373SOL     OW42560   5.961   8.378   1.946 -0.3197 -0.0811  0.2558
13373SOL    HW142561   5.980   8.459   1.993  1.9589 -0.5751  0.3342
13373SOL    HW242562   5.951   8.312   2.016 -1.9501  0.0453  0.1846
13374SOL     OW42563   0.773   9.601   4.313 -0.5873  0.4607 -0.2966
13374SOL    HW142564   0.765   9.660   4.239 -1.3590  0.9653  0.1753
13374SOL    HW242565   0.715   9.638   4.380  0.4027  0.2549  0.7110
13375SOL     OW42566   9.068  10.491   9.836  0.5373 -0.4643 -0.1962
13375SOL    HW142567   9.156  10.457   9.854  0.9672 -0.0111 -1.3545
13375SOL    HW242568   9.083  10.579   9.802 -0.3896 -0.2826 -0.1402
13376SOL     OW42569   3.871   6.776   1.098 -0.5003 -0.7665 -0.4208
13376SOL    HW142570   3.831   6.824   1.026 -1.4487 -2.0423 -0.7720
13376SOL    HW242571   3.954   6.822   1.114 -0.5769 -0.0653 -1.8722
13377SOL     OW42572   6.568   1.626   2.083 -0.4277 -0.4249  0.2645
13377SOL    HW142573   6.630   1.553   2.082 -2.0897 -1.9479  1.1602
13377SOL    HW242574   6.601   1.685   2.151  2.0349  0.7884 -1.7964
13378SOL     OW42575   3.182   7.193   4.278 -0.0165 -0.6792  0.1305
13378SOL    HW142576   3.204   7.106   4.243  0.8468 -0.1661 -0.6671
13378SOL    HW242577   3.102   7.218   4.232  0.2633 -0.6650 -0.3679
13379SOL     OW42578  10.374   5.551   3.059 -0.2536  0.1117  0.0080
13379SOL    HW142579  10.452   5.597   3.026  0.1596 -0.0915  0.6894
13379SOL    HW242580  10.315   5.621   3.088  0.3281  0.2308  0.9395
13380SOL     OW42581   0.775   1.262   7.399 -0.9551 -0.1567  0.0777
13380SOL    HW142582   0.753   1.308   7.479 -1.0303  2.1879 -1.1907
13380SOL    HW242583   0.698   1.273   7.343 -1.1279 -2.2282 -0.1601
13381SOL     OW42584   7.893   2.238   7.871  0.5947 -0.4519 -0.2060
13381SOL    HW142585   7.912   2.155   7.829 -0.4758 -0.6404 -0.3306
13381SOL    HW242586   7.800   2.252   7.857  0.7091  0.6575  0.0144
13382SOL     OW42587   0.790   6.979   6.536 -0.3625  0.4271 -0.2157
13382SOL    HW142588   0.697   6.983   6.515 -0.0798  0.6883 -1.5024
13382SOL    HW242589   0.828   6.928   6.464  0.3610 -0.4783  0.7750
13383SOL     OW42590   1.967   1.332   8.826 -0.0588  0.8001 -0.3701
13383SOL    HW142591   2.005   1.418   8.840  1.1303  0.1768  0.3798
13383SOL    HW242592   1.973   1.318   8.731  0.8365  1.0586 -0.3565
13384SOL     OW42593   0.704   4.644   6.067  0.3527  0.2559  0.6966
13384SOL    HW142594   0.685   4.551   6.072 -0.4620  0.3162 -0.8285
13384SOL    HW242595   0.619   4.687   6.072  0.4631  0.7689 -1.1500
13385SOL     OW42596   8.249   5.637   7.219 -0.7417  0.0854  0.1637
13385SOL    HW142597   8.324   5.665   7.272 -0.6777 -0.9907  0.6743
13385SOL    HW242598   8.287   5.588   7.146 -0.9465 -0.7786  0.6218
13386SOL     OW42599  10.051   6.466   9.408  0.1473  0.3126  0.1814
13386SOL    HW142600  10.038   6.551   9.449 -3.3792  0.6364 -1.1964
13386SOL    HW242601  10.142   6.444   9.425  1.5444  4.7718 -0.2492
13387SOL     OW42602   7.390   1.034   6.437 -0.1264  0.0657  0.1935
13387SOL    HW142603   7.313   1.071   6.481  1.0744  1.8053  0.9778
13387SOL    HW242604   7.407   1.093   6.364  1.1967  0.4945  0.8087
13388SOL     OW42605   0.367   9.836   0.111 -0.5028 -0.2600 -0.0637
13388SOL    HW142606   0.340   9.900   0.046 -0.4300 -1.0075 -0.8463
13388SOL    HW242607   0.291   9.825   0.168 -0.2533  1.0905  0.5491
13389SOL     OW42608   3.252   3.380   8.681  0.2273 -0.0387 -0.6594
13389SOL    HW142609   3.220   3.414   8.765  2.4475 -0.1353  0.2889
13389SOL    HW242610   3.175   3.342   8.639 -1.3412  1.8082  0.4239
13390SOL     OW42611   6.773   4.329   4.994 -0.3912  0.3836  0.2361
13390SOL    HW142612   6.843   4.365   5.049 -0.4361 -0.4972  0.8877
13390SOL    HW242613   6.820   4.279   4.926 -0.2250  3.2455 -1.9319
13391SOL     OW42614   0.892   4.826   0.456 -0.4401  0.1077 -0.5610
13391SOL    HW142615   0.956   4.844   0.524  0.4562 -2.2830 -0.6854
13391SOL    HW242616   0.875   4.912   0.416  0.7152  1.1966  1.1404
13392SOL     OW42617   1.018   9.629   5.024  0.6100  0.4363 -0.1013
13392SOL    HW142618   1.024   9.649   4.930  0.6074  1.5746  0.1230
13392SOL    HW242619   1.030   9.714   5.067 -1.2369  0.2343  0.8869
13393SOL     OW42620   9.547  10.246   9.461  0.5086  0.1920  0.1048
13393SOL    HW142621   9.538  10.210   9.550 -1.7297  1.1563  0.3458
13393SOL    HW242622   9.548  10.169   9.404 -0.1140 -0.4041  0.8640
13394SOL     OW42623   7.004   6.632   8.599 -0.0495  0.2014  0.0623
13394SOL    HW142624   6.997   6.698   8.669  0.6880  0.4383 -0.0733
13394SOL    HW242625   7.056   6.562   8.638  0.0246  0.1557 -0.1198
13395SOL     OW42626   7.820   1.630   9.132  0.1001 -0.7365  0.1556
13395SOL    HW142627   7.865   1.568   9.075 -2.8699 -1.0095 -2.1599
13395SOL    HW242628   7.751   1.579   9.174 -1.5595  0.6585 -0.7489
13396SOL     OW42629   7.526   3.652   8.187 -0.8211 -0.6653  0.1369
13396SOL    HW142630   7.615   3.634   8.159 -0.9577 -2.0125  0.4776
13396SOL    HW242631   7.531   3.656   8.283 -0.6927  1.9562  0.0953
13397SOL     OW42632   1.488   8.214   6.117  0.0032 -0.0572  0.5439
13397SOL    HW142633   1.429   8.246   6.185  1.5172  0.4564  1.6664
13397SOL    HW242634   1.550   8.157   6.163  0.0027 -1.1160 -0.7100
13398SOL     OW42635   9.617   4.231   9.092 -0.6713  0.1782 -0.0965
13398SOL    HW142636   9.532   4.221   9.135  0.5407  0.4090  2.5707
13398SOL    HW242637   9.648   4.317   9.119  0.4258  0.0978 -1.0089
13399SOL     OW42638   8.262   8.541   6.992 -0.0041 -0.0535 -0.2144
13399SOL    HW142639   8.331   8.598   7.028  0.0112  0.2986 -0.7849
13399SOL    HW242640   8.184   8.563   7.043  0.1401  0.0457 -0.0323
13400SOL     OW42641   3.033   2.329   2.646  0.4605  0.1759  0.3722
13400SOL    HW142642   3.062   2.238   2.643  2.5329  0.7941 -0.0954
13400SOL    HW242643   3.086   2.369   2.715  0.0504  1.1766  0.1275
13401SOL     OW42644  10.281   3.121   5.703 -0.1398 -0.1677  0.1654
13401SOL    HW142645  10.351   3.057   5.687  0.6745  0.5711  0.6511
13401SOL    HW242646  10.243   3.094   5.786  1.0599  0.6873  1.0299
13402SOL     OW42647   0.848   5.924   1.645  0.0118  0.1268  0.5304
13402SOL    HW142648   0.756   5.933   1.623  0.2085 -0.7323 -0.7444
13402SOL    HW242649   0.893   5.984   1.585  0.3271  0.0757  0.7121
13403SOL     OW42650   6.569   8.744   7.379  0.1673 -0.3955 -0.1441
13403SOL    HW142651   6.547   8.747   7.286 -0.3933  0.1276  0.0015
13403SOL    HW242652   6.656   8.783   7.384  0.0918 -0.1873 -0.4205
13404SOL     OW42653   5.189   8.849   0.712 -0.5409  0.4262  0.9211
13404SOL    HW142654   5.164   8.854   0.620  0.7898  0.8464  0.5684
13404SOL    HW242655   5.284   8.853   0.712 -0.5458  1.1935  2.3733
13405SOL     OW42656   2.728   6.070   9.633  0.3914 -0.0612 -0.7291
13405SOL    HW142657   2.687   6.126   9.567  0.0673 -0.4412 -0.8587
13405SOL    HW242658   2.819   6.099   9.637  0.6285 -0.5794 -1.9518
13406SOL     OW42659   2.564   2.823   9.503  0.7128 -0.6082  0.6588
13406SOL    HW142660   2.629   2.819   9.433  1.1534 -4.1585  1.0677
13406SOL    HW242661   2.484   2.789   9.464  0.5022 -1.0304  1.4320
13407SOL     OW42662   1.930  10.369   0.909  0.1687  0.5868 -0.1041
13407SOL    HW142663   1.911  10.310   0.836  0.7356  1.0220 -0.6128
13407SOL    HW242664   2.010  10.333   0.948 -1.3100 -0.9556  1.7210
13408SOL     OW42665   7.788   4.593   6.867  0.1792 -0.1043  0.1564
13408SOL    HW142666   7.795   4.559   6.956  0.9928 -2.9727 -0.8927
13408SOL    HW242667   7.727   4.533   6.823 -0.9875  1.8070 -1.0379
13409SOL     OW42668   2.472   5.782   2.102 -0.0253  0.0670 -0.3132
13409SOL    HW142669   2.380   5.800   2.080 -0.4212 -0.7858  0.5569
13409SOL    HW242670   2.522   5.820   2.029 -0.9743  1.6883 -0.1677
13410SOL     OW42671   0.770   0.333   6.839 -0.0307 -0.2590 -0.4230
13410SOL    HW142672   0.710   0.405   6.819 -1.6512 -1.1577  0.9412
13410SOL    HW242673   0.856   0.374   6.840 -0.8853  1.6535  0.1356
13411SOL     OW42674   9.768   0.793   8.109  0.0118  0.1221 -1.1291
13411SOL    HW142675   9.767   0.850   8.187 -0.2262 -0.1535 -0.9289
13411SOL    HW242676   9.703   0.726   8.128  1.2479 -1.0210 -0.7659
13412SOL     OW42677   3.953  10.180  10.480 -0.5909  0.0827  0.4403
13412SOL    HW142678   4.013  10.219  10.543 -2.1879  1.1578  1.3710
13412SOL    HW242679   3.904  10.114  10.529 -2.6376  1.7012  0.7251
13413SOL     OW42680   1.609   7.280   6.897 -0.2533  0.3685  0.1263
13413SOL    HW142681   1.562   7.230   6.964 -0.5239 -0.0458 -0.3642
13413SOL    HW242682   1.560   7.265   6.816  1.1192 -0.7159 -0.5647
13414SOL     OW42683   3.673   8.630   4.563  0.1105 -0.0525  0.5705
13414SOL    HW142684   3.725   8.632   4.644  0.6104  2.1080  0.2418
13414SOL    HW242685   3.596   8.683   4.582  0.1149  0.2707 -0.2969
13415SOL     OW42686   3.991   4.187   1.541  0.0258 -0.3837  0.0273
13415SOL    HW142687   4.067   4.231   1.579 -1.0421  0.7106  0.9813
13415SOL    HW242688   4.008   4.094   1.553  2.0635 -0.2454 -1.4783
13416SOL     OW42689   9.418   5.109   2.098  0.5708  0.1872 -0.0423
13416SOL    HW142690   9.368   5.030   2.082  1.9184 -0.8839  0.8294
13416SOL    HW242691   9.501   5.095   2.053  0.0994  1.9829 -1.5818
13417SOL     OW42692   6.021   4.363   5.081  0.3083  0.0368  0.8567
13417SOL    HW142693   6.023   4.362   4.985  1.4766  3.3974  0.6786
13417SOL    HW242694   6.105   4.324   5.106  0.6093  0.3552  0.3935
13418SOL     OW42695   8.001   4.654   6.083 -0.6544 -0.2713  0.2395
13418SOL    HW142696   7.950   4.576   6.105 -0.3226 -0.2172  1.2920
13418SOL    HW242697   8.052   4.629   6.006 -1.4960 -0.6614 -0.2041
13419SOL     OW42698   2.141   6.556   8.040 -0.3350  0.7110  0.1106
13419SOL    HW142699   2.217   6.501   8.024 -1.4734 -0.8195 -0.2811
13419SOL    HW242700   2.135   6.613   7.963 -0.0856  0.2232 -0.2764
13420SOL     OW42701   5.579   6.170   5.452 -0.0248 -0.3312  0.0781
13420SOL    HW142702   5.525   6.226   5.507  0.3193 -2.0498  2.2948
13420SOL    HW242703   5.668   6.204   5.462  0.0374 -0.6405  0.6229
13421SOL     OW42704   8.710  10.037   6.550 -0.1443  0.1591  0.0950
13421SOL    HW142705   8.666  10.060   6.631 -1.0820  0.2586 -0.4273
13421SOL    HW242706   8.650  10.065   6.481 -0.2101 -1.5755 -0.6044
13422SOL     OW42707  10.481   0.221   3.191  0.4951  0.7810 -0.0536
13422SOL    HW142708  10.398   0.222   3.237  0.8486  0.3139  0.6085
13422SOL    HW242709  10.546   0.201   3.258  1.0230  0.1126 -0.7426
13423SOL     OW42710   7.458   1.488   6.010  0.0973 -0.0895  0.4284
13423SOL    HW142711   7.547   1.455   6.024  0.6682  0.9309 -0.6755
13423SOL    HW242712   7.436   1.459   5.922 -0.6855 -0.3584  0.7090
13424SOL     OW42713   7.322   7.226   2.336  0.3917  0.1451  0.2849
13424SOL    HW142714   7.402   7.193   2.296  0.8107  0.2449  1.0103
13424SOL    HW242715   7.278   7.149   2.371 -0.2013  0.0019 -0.7301
13425SOL     OW42716   3.956   4.017   3.761 -0.2231  0.3523 -0.2584
13425SOL    HW142717   3.962   4.112   3.771 -0.5576  0.6121 -2.1523
13425SOL    HW242718   3.904   3.988   3.836 -0.0628  1.6438  0.3840
13426SOL     OW42719   7.731   1.617   5.261  0.2684 -0.2420  0.0298
13426SOL    HW142720   7.658   1.567   5.296  0.6061 -0.1927  0.8529
13426SOL    HW242721   7.715   1.623   5.167 -2.5451  2.5823  0.5221
13427SOL     OW42722   6.901  10.477   9.120  0.4044 -0.2064  0.0370
13427SOL    HW142723   6.883  10.389   9.085  1.9690 -0.4970 -0.1322
13427SOL    HW242724   6.997  10.480   9.127  0.3564  1.4001  0.2952
13428SOL     OW42725   1.238   1.594   3.097 -0.1107 -0.5042  0.8719
13428SOL    HW142726   1.156   1.563   3.135 -0.3679 -1.9040 -0.7290
13428SOL    HW242727   1.234   1.567   3.005  3.1505 -2.7799  1.2296
13429SOL     OW42728   9.873   0.107   5.589 -0.3966  0.1121  0.2100
13429SOL    HW142729   9.866   0.054   5.510  0.3040 -1.3597  1.0847
13429SOL    HW242730   9.821   0.059   5.654 -0.7584  1.1690  0.7265
13430SOL     OW42731   8.138   7.820   4.063  0.1293 -0.2206 -0.1882
13430SOL    HW142732   8.125   7.879   4.138 -1.8403 -0.4884 -0.2755
13430SOL    HW242733   8.075   7.749   4.077  2.1738 -2.1519 -0.3032
13431SOL     OW42734   1.725   0.840   0.955 -0.0582  0.3900  0.3820
13431SOL    HW142735   1.731   0.789   0.875 -1.6160 -0.3928  0.7237
13431SOL    HW242736   1.631   0.844   0.974  0.3021  0.1542  2.4164
13432SOL     OW42737   8.287   3.345   1.161  0.2972  0.1924 -0.4279
13432SOL    HW142738   8.196   3.372   1.161  0.4871  0.8653 -0.3689
13432SOL    HW242739   8.305   3.320   1.252  0.2245  0.2536 -0.3973
13433SOL     OW42740   4.525   9.275   1.092 -0.0345 -0.2888  0.1057
13433SOL    HW142741   4.510   9.336   1.165  0.6925  0.8838 -0.6981
13433SOL    HW242742   4.619   9.257   1.095  0.0495 -0.0090 -0.7060
13434SOL     OW42743   0.728   0.627   7.357  0.3655  0.7056 -0.4504
13434SOL    HW142744   0.716   0.599   7.266  2.2020  0.0107 -0.5169
13434SOL    HW242745   0.792   0.566   7.393 -0.0505  1.1947  1.2222
13435SOL     OW42746   9.738   4.841   5.593 -0.1850 -0.1336  0.3161
13435SOL    HW142747   9.805   4.897   5.554 -1.2940  0.8153 -0.2949
13435SOL    HW242748   9.656   4.886   5.575 -1.0376 -1.4887  0.6668
13436SOL     OW42749   4.700  10.358   1.660 -0.3233 -0.0217  0.0790
13436SOL    HW142750   4.664  10.414   1.591  2.4956 -0.2228 -1.7303
13436SOL    HW242751   4.759  10.415   1.708  2.4537 -1.2035 -1.6793
13437SOL     OW42752   3.759   9.449   6.009  0.1447  0.3668  0.2381
13437SOL    HW142753   3.817   9.506   5.958  0.9667  1.6203  2.4085
13437SOL    HW242754   3.818   9.397   6.063 -0.6989 -0.9151 -0.0221
13438SOL     OW42755   6.441  10.460   0.373 -0.3994 -0.8211  0.0824
13438SOL    HW142756   6.483  10.454   0.287  0.0539 -1.0942  0.3208
13438SOL    HW242757   6.375  10.390   0.372 -1.9433  0.5673 -0.8712
13439SOL     OW42758   4.469   6.987   1.879  0.5684  0.0844  0.0487
13439SOL    HW142759   4.535   6.974   1.947 -1.1873 -0.0995  1.8370
13439SOL    HW242760   4.454   6.900   1.842  2.7437  0.4461 -1.8627
13440SOL     OW42761   8.819   6.527   7.770  0.1508 -0.1278  0.4421
13440SOL    HW142762   8.871   6.606   7.755  0.3916 -0.5723 -1.2885
13440SOL    HW242763   8.764   6.520   7.692 -0.5567 -1.1628  1.0145
13441SOL     OW42764   6.648   4.907   7.784 -0.1809  0.1432  0.4700
13441SOL    HW142765   6.583   4.880   7.848 -0.9645  0.6393 -0.1003
13441SOL    HW242766   6.613   4.878   7.700  0.2254  0.6111  0.1296
13442SOL     OW42767   8.673  10.180   0.710  0.8914 -0.0854 -0.2055
13442SOL    HW142768   8.730  10.248   0.744 -1.2994  1.0000  1.5674
13442SOL    HW242769   8.588  10.223   0.698 -0.1492 -2.0965 -0.5769
13443SOL     OW42770   8.290   4.879   3.894  0.2929  0.0117  0.3179
13443SOL    HW142771   8.229   4.935   3.941  1.2616  2.0255 -0.6667
13443SOL    HW242772   8.363   4.937   3.871  0.2706 -1.0107 -2.8739
13444SOL     OW42773   6.842   0.797   1.945 -0.1554  0.5320 -0.2562
13444SOL    HW142774   6.909   0.799   2.014 -0.5709  0.4044  0.1573
13444SOL    HW242775   6.831   0.889   1.920  0.5516  0.4976 -0.6976
13445SOL     OW42776   4.780   2.238   6.801 -0.0023  0.1094  0.2171
13445SOL    HW142777   4.723   2.189   6.861  0.0448 -2.3837 -1.6178
13445SOL    HW242778   4.821   2.170   6.746  0.7537  2.1779 -1.9409
13446SOL     OW42779   5.741   0.570   7.962  0.5306  0.0188 -0.4022
13446SOL    HW142780   5.726   0.628   7.887 -0.1758  0.4146  0.0346
13446SOL    HW242781   5.656   0.530   7.978  0.6172  0.1191  0.3387
13447SOL     OW42782   0.141   9.411   9.858  0.3262 -0.3279 -0.0851
13447SOL    HW142783   0.100   9.355   9.924  0.5820 -1.8623 -1.1609
13447SOL    HW242784   0.235   9.396   9.869  0.5255  1.3071  0.7744
13448SOL     OW42785   6.404   1.103   0.554 -0.3326 -0.3119 -0.1967
13448SOL    HW142786   6.448   1.078   0.635 -0.3647  1.1252  0.2985
13448SOL    HW242787   6.474   1.110   0.489 -0.0958  0.0352  0.0955
13449SOL     OW42788   7.997   1.591   7.905 -0.5830 -0.2237 -0.0493
13449SOL    HW142789   8.090   1.601   7.922 -0.5330  2.4023 -1.2905
13449SOL    HW242790   7.958   1.577   7.991  0.7166  1.4238  0.8601
13450SOL     OW42791   6.945   4.335   0.029  0.2001 -0.0642 -0.3990
13450SOL    HW142792   6.992   4.359  -0.050  0.5144  0.3433 -0.0907
13450SOL    HW242793   6.949   4.413   0.085  0.8943 -0.6827  0.4502
13451SOL     OW42794   7.232   6.321   2.477 -0.0619 -0.1881 -0.1364
13451SOL    HW142795   7.283   6.394   2.510 -0.9534  0.4232 -0.1047
13451SOL    HW242796   7.266   6.245   2.525 -0.5423  0.4990  1.3518
13452SOL     OW42797   8.749   1.490   3.265 -0.1311  0.3568  0.0874
13452SOL    HW142798   8.729   1.404   3.229  0.6647  0.7009 -1.2362
13452SOL    HW242799   8.737   1.550   3.191 -1.0259  1.4513  1.0681
13453SOL     OW42800   4.377   8.242   4.607  0.2586  0.7266  0.0398
13453SOL    HW142801   4.392   8.271   4.697 -2.1824 -0.3000  0.8687
13453SOL    HW242802   4.464   8.234   4.569  1.5152 -0.5821  2.9113
13454SOL     OW42803   5.201   7.163   3.016  0.1948 -0.8156 -0.0225
13454SOL    HW142804   5.204   7.255   2.988  0.3222 -1.1517 -1.1513
13454SOL    HW242805   5.237   7.114   2.943  0.5910 -1.7377  0.7630
13455SOL     OW42806   7.056   8.405   6.969  0.5646  0.5834 -0.2908
13455SOL    HW142807   6.980   8.354   6.996 -0.2895  1.6161 -0.6606
13455SOL    HW242808   7.036   8.494   6.997  2.2008  0.6868  0.7064
13456SOL     OW42809   0.657   4.008   6.833  0.3009  0.1901 -0.1729
13456SOL    HW142810   0.637   4.098   6.861 -0.9095  0.3827 -1.5389
13456SOL    HW242811   0.717   4.019   6.759  0.5575 -0.1543 -0.0176
13457SOL     OW42812   8.388   7.222   8.477 -0.6754  0.3256 -0.1552
13457SOL    HW142813   8.400   7.132   8.449  0.3112  0.0164  1.1609
13457SOL    HW242814   8.294   7.229   8.497 -0.6942 -0.5119  0.0696
13458SOL     OW42815   0.425   8.647   3.428 -0.3496  0.1343 -0.1002
13458SOL    HW142816   0.337   8.670   3.458 -0.8020 -1.8911  0.2381
13458SOL    HW242817   0.432   8.687   3.341 -1.9548 -0.4224 -0.5226
13459SOL     OW42818   4.755   9.707   8.262  0.5670 -0.0954  0.0865
13459SOL    HW142819   4.729   9.796   8.285  1.2150 -0.0840  0.7990
13459SOL    HW242820   4.784   9.714   8.171  3.7636  1.1562  1.0619
13460SOL     OW42821   7.595   4.151  10.166  0.1065  0.1974 -0.7720
13460SOL    HW142822   7.514   4.131  10.119 -1.9521  0.1305  2.5375
13460SOL    HW242823   7.644   4.069  10.163 -1.3346 -0.7279 -0.3039
13461SOL     OW42824   9.853   7.713   1.138  0.4589 -0.3593 -0.1660
13461SOL    HW142825   9.921   7.778   1.122  0.5807 -0.6746 -1.0091
13461SOL    HW242826   9.900   7.630   1.144  0.1618 -0.5959 -0.8687
13462SOL     OW42827   2.461   1.469   4.750 -0.4432 -1.0034  0.0408
13462SOL    HW142828   2.545   1.446   4.710 -0.9534  0.1859 -1.8612
13462SOL    HW242829   2.483   1.533   4.818  0.2154 -0.7646 -0.3890
13463SOL     OW42830   0.930   1.147   5.882  0.1127  0.4114  0.2319
13463SOL    HW142831   0.976   1.156   5.798  1.2115  1.3279  0.9097
13463SOL    HW242832   0.942   1.231   5.925 -4.3433  1.7208 -0.5603
13464SOL     OW42833   0.087   3.271   1.715 -0.3437  0.5245 -0.2294
13464SOL    HW142834   0.020   3.337   1.698 -0.5412  0.1709 -0.8258
13464SOL    HW242835   0.057   3.228   1.796 -0.1806  1.1924  0.1997
13465SOL     OW42836   3.831   3.590   2.320 -0.4407 -0.4798  0.4830
13465SOL    HW142837   3.829   3.677   2.280  1.2967 -0.8231 -0.4491
13465SOL    HW242838   3.759   3.591   2.383 -0.4662  1.6340  0.4997
13466SOL     OW42839   9.316   1.391   4.051 -0.0492  0.6372  0.4054
13466SOL    HW142840   9.384   1.402   4.119 -0.2895  1.4208  0.5361
13466SOL    HW242841   9.362   1.352   3.977  0.1792 -0.4081  1.0785
13467SOL     OW42842   7.735   8.591   8.415 -0.1793 -0.3654 -0.2837
13467SOL    HW142843   7.645   8.560   8.424 -0.2569 -0.4264 -1.2316
13467SOL    HW242844   7.772   8.539   8.344  0.5311 -0.1620 -0.0744
13468SOL     OW42845   3.026   8.591   3.606  0.4913 -0.0465 -0.3116
13468SOL    HW142846   3.041   8.685   3.599 -0.0646  0.0288 -0.5590
13468SOL    HW242847   3.026   8.559   3.516  0.8552 -0.3161 -0.2193
13469SOL     OW42848   6.153   0.157   7.743 -0.1529  0.3558 -0.3739
13469SOL    HW142849   6.090   0.144   7.814  0.3587 -5.4241 -0.4958
13469SOL    HW242850   6.099   0.168   7.665 -0.8447  0.6836  0.1397
13470SOL     OW42851   4.424   3.663   5.599  0.1390 -0.1474 -0.2247
13470SOL    HW142852   4.463   3.589   5.552  1.3406 -0.4165  1.1200
13470SOL    HW242853   4.487   3.734   5.589  0.1858 -0.0670  0.5716
13471SOL     OW42854   3.467   2.674   7.069 -0.2255  0.1036  0.4828
13471SOL    HW142855   3.557   2.706   7.077 -0.5724  1.6031 -1.0288
13471SOL    HW242856   3.414   2.742   7.111 -0.8698  0.8984 -1.5155
13472SOL     OW42857   9.172   9.619   8.839  0.1096 -0.0015 -0.1143
13472SOL    HW142858   9.085   9.598   8.873  1.0426 -1.6783  1.3849
13472SOL    HW242859   9.179   9.714   8.849 -1.7247  0.2547 -0.7984
13473SOL     OW42860   5.619   7.760   4.414  0.2447  0.4866  0.2539
13473SOL    HW142861   5.683   7.808   4.466 -0.1366 -0.1715  1.3655
13473SOL    HW242862   5.536   7.805   4.431  0.0057 -0.1313  0.7483
13474SOL     OW42863   5.765   6.871   9.144  0.5123 -0.4326 -0.4983
13474SOL    HW142864   5.690   6.815   9.160  1.5531 -2.2297 -1.5248
13474SOL    HW242865   5.830   6.813   9.104  2.2234  1.1826 -0.2027
13475SOL     OW42866   9.319   4.980   8.273  0.5338  0.3668  0.3060
13475SOL    HW142867   9.395   5.009   8.222  1.1076  2.1502  2.0752
13475SOL    HW242868   9.258   5.054   8.269 -0.9347 -0.8284 -0.6170
13476SOL     OW42869   8.876   7.719   3.432  0.7855 -0.1378 -0.2169
13476SOL    HW142870   8.793   7.756   3.463  0.9091  0.4807 -0.6136
13476SOL    HW242871   8.901   7.657   3.501  0.4495  0.3284  0.3380
13477SOL     OW42872   2.311   9.318   2.932  0.0800  0.9748  0.4114
13477SOL    HW142873   2.268   9.384   2.878  0.3264  0.8479  0.0577
13477SOL    HW242874   2.362   9.368   2.996 -0.5484  1.1258  0.8021
13478SOL     OW42875   2.602   2.261   2.811  0.0871 -0.5507  0.1501
13478SOL    HW142876   2.673   2.251   2.874 -0.0168 -0.2962  0.3099
13478SOL    HW242877   2.643   2.301   2.735 -0.3081  1.8855  1.1188
13479SOL     OW42878   9.556   7.262   5.519  0.9880  0.0292 -0.7993
13479SOL    HW142879   9.556   7.206   5.596  1.1696 -2.0952 -2.2422
13479SOL    HW242880   9.464   7.272   5.496  0.9993 -0.7906 -1.2536
13480SOL     OW42881   5.674   3.279  10.404 -0.1120  0.1793 -0.1589
13480SOL    HW142882   5.699   3.249  10.317  1.3256  0.8493 -0.0009
13480SOL    HW242883   5.733   3.352  10.423 -0.8366  0.4782  1.1142
13481SOL     OW42884   9.113   1.309   1.432 -0.3390  0.1819 -0.2888
13481SOL    HW142885   9.118   1.215   1.412  1.7985  0.3533 -0.7988
13481SOL    HW242886   9.024   1.334   1.407 -0.8460 -1.6312 -0.4696
13482SOL     OW42887   0.542   5.414   3.988  0.4889 -0.3755  0.3079
13482SOL    HW142888   0.452   5.406   3.955  0.6525 -0.6288 -0.0872
13482SOL    HW242889   0.595   5.426   3.909  0.7149  0.6215  0.5933
13483SOL     OW42890   7.645   6.220   6.623  0.5523 -0.1881 -0.3522
13483SOL    HW142891   7.621   6.127   6.621  0.6010 -0.2170 -2.5487
13483SOL    HW242892   7.735   6.222   6.589  0.1659  0.7236 -1.4006
13484SOL     OW42893   1.584   9.527   5.797  0.6298  0.1423 -0.0839
13484SOL    HW142894   1.606   9.434   5.799  1.0913  0.2339 -0.6381
13484SOL    HW242895   1.489   9.530   5.803  0.6213 -0.3574  0.0383
13485SOL     OW42896   6.315   5.299   2.891 -0.2384  0.4612 -0.0921
13485SOL    HW142897   6.318   5.393   2.870  2.8257  0.5582  0.3203
13485SOL    HW242898   6.388   5.286   2.952  1.0653 -2.6273 -2.0791
13486SOL     OW42899   8.837   7.464   7.854 -0.6400 -0.3212  0.1145
13486SOL    HW142900   8.822   7.455   7.948  0.4910  0.5453  0.4036
13486SOL    HW242901   8.751   7.450   7.815 -1.7866  2.1886  1.4957
13487SOL     OW42902   4.850   0.643   5.736 -0.2462  0.2803  0.4109
13487SOL    HW142903   4.773   0.669   5.686 -0.6745  0.4733  1.1595
13487SOL    HW242904   4.888   0.725   5.766  2.2567  0.4811 -2.7819
13488SOL     OW42905   9.460   7.553   3.109 -0.3958 -0.0306 -0.0323
13488SOL    HW142906   9.378   7.512   3.138 -0.4369  0.3724  0.4501
13488SOL    HW242907   9.431   7.635   3.067 -0.2381  0.1528  0.2147
13489SOL     OW42908   6.708   1.942   3.070  0.1189  0.0160  0.8016
13489SOL    HW142909   6.662   2.019   3.036  1.6377  1.1219  1.1438
13489SOL    HW242910   6.673   1.869   3.018 -2.4312  0.6607  1.4589
13490SOL     OW42911   9.628   8.433   3.207 -0.0819 -0.8203 -0.1495
13490SOL    HW142912   9.535   8.450   3.223  0.2416 -1.2902  2.6885
13490SOL    HW242913   9.649   8.487   3.130 -2.8745 -1.4990 -1.5385
13491SOL     OW42914   1.989   5.025   7.005  0.9178  0.0104  0.1477
13491SOL    HW142915   2.079   5.054   6.990  0.1481  2.2512 -0.4557
13491SOL    HW242916   1.950   5.094   7.058 -0.2832 -1.2708  1.0090
13492SOL     OW42917   4.204   3.253   8.083  0.2897 -0.0474  0.1826
13492SOL    HW142918   4.171   3.167   8.058  1.0743  0.2750 -2.2326
13492SOL    HW242919   4.281   3.234   8.138 -0.8904 -0.8179  1.6256
13493SOL     OW42920   3.009   8.908   2.582 -0.2829  0.4443 -0.4525
13493SOL    HW142921   2.938   8.850   2.556  0.7682 -1.6655  1.0503
13493SOL    HW242922   2.965   8.984   2.621 -1.7785 -1.1761  1.2290
13494SOL     OW42923   3.735   2.209   1.074  0.1681 -0.1724 -0.3991
13494SOL    HW142924   3.773   2.123   1.060 -1.5794 -1.2547  1.1174
13494SOL    HW242925   3.696   2.233   0.990  1.1191 -0.5797 -0.9784
13495SOL     OW42926   7.996   0.840   0.625 -0.3304 -0.0541 -0.1144
13495SOL    HW142927   7.923   0.857   0.684 -1.1082 -0.3025 -0.9823
13495SOL    HW242928   8.074   0.859   0.677 -1.0114  0.2967  0.7999
13496SOL     OW42929   0.424   9.525   2.957  0.1194  0.2053 -0.3360
13496SOL    HW142930   0.432   9.557   3.047 -0.4236 -1.7441  0.4521
13496SOL    HW242931   0.506   9.551   2.915  1.4244 -0.8721  1.4069
13497SOL     OW42932   0.814   0.615   5.614 -0.3321 -0.5884  0.6277
13497SOL    HW142933   0.873   0.574   5.677 -0.4029  2.2156  2.6704
13497SOL    HW242934   0.753   0.665   5.667 -0.6696  1.5790 -1.6415
13498SOL     OW42935   5.761   1.221   1.040  0.2303 -0.1339  0.1150
13498SOL    HW142936   5.788   1.298   1.090  1.1534 -1.4093  1.6418
13498SOL    HW242937   5.706   1.171   1.100 -0.7122 -0.4970 -0.9987
13499SOL     OW42938   0.172   3.099   3.871 -0.2749  0.5182 -0.2247
13499SOL    HW142939   0.094   3.105   3.927 -0.8617  1.3998 -1.0882
13499SOL    HW242940   0.224   3.176   3.895 -0.2409  0.5714 -0.4681
13500SOL     OW42941   0.140   1.182   8.599 -0.3097 -0.2812 -0.3218
13500SOL    HW142942   0.094   1.264   8.586 -0.8294 -0.4995  0.1173
13500SOL    HW242943   0.071   1.116   8.604  0.0959 -0.7285 -0.5501
13501SOL     OW42944   4.998   3.373   5.152 -0.2060  0.0965  0.0501
13501SOL    HW142945   4.970   3.389   5.243  0.5122  4.3063 -0.3021
13501SOL    HW242946   4.930   3.414   5.099  0.0463 -1.2048 -1.3513
13502SOL     OW42947   9.128   7.755   1.663 -0.5569  0.1869 -0.3791
13502SOL    HW142948   9.046   7.780   1.704 -0.5168  0.6004 -0.5437
13502SOL    HW242949   9.161   7.836   1.624  1.1285  0.5861  1.7156
13503SOL     OW42950  10.260   9.158   4.510 -0.2388 -0.2087  0.0245
13503SOL    HW142951  10.309   9.158   4.592  1.0608 -1.0922 -0.7138
13503SOL    HW242952  10.168   9.162   4.536  0.1989  1.1752  1.4571
13504SOL     OW42953   6.288   5.883   6.132 -0.3761 -0.1465 -0.6420
13504SOL    HW142954   6.352   5.939   6.175 -1.5692  0.4549  0.4473
13504SOL    HW242955   6.338   5.807   6.102  1.1558  1.2026 -1.6074
13505SOL     OW42956  10.270   7.414   3.525 -0.0418  0.2063  0.1710
13505SOL    HW142957  10.288   7.321   3.538  1.6075  0.0468 -2.4334
13505SOL    HW242958  10.350   7.458   3.553 -0.4744  0.7650  0.5431
13506SOL     OW42959   6.682   3.906   3.531  0.0458 -0.1650 -0.1029
13506SOL    HW142960   6.629   3.981   3.505  0.2538  0.2132  0.5200
13506SOL    HW242961   6.772   3.932   3.511  0.2244  0.1979  1.0917
13507SOL     OW42962   2.098   1.675   4.463  0.0849  0.3663 -0.4495
13507SOL    HW142963   2.096   1.719   4.378 -0.9640  2.3197  0.5297
13507SOL    HW242964   2.184   1.695   4.499  0.0892  0.5397 -0.5545
13508SOL     OW42965   6.670   0.174   0.925 -0.0808 -0.5539 -0.5029
13508SOL    HW142966   6.735   0.236   0.892 -0.7357  1.4166  1.6525
13508SOL    HW242967   6.692   0.091   0.882  2.1536  0.6625 -1.8899
13509SOL     OW42968   9.862   7.180  10.044 -0.7874 -0.1138 -0.0877
13509SOL    HW142969   9.844   7.142   9.958  0.3849 -1.4132  0.2060
13509SOL    HW242970   9.957   7.178  10.052 -0.5824  3.2171 -0.1433
13510SOL     OW42971   5.284   0.089   2.111 -0.2549 -0.0479 -0.2341
13510SOL    HW142972   5.290   0.005   2.155  1.1151  0.4434  0.5813
13510SOL    HW242973   5.371   0.105   2.076  0.0748  1.8592  1.2611
13511SOL     OW42974   4.918   2.924   6.730  0.3144  0.2242 -0.5218
13511SOL    HW142975   4.824   2.902   6.729 -0.4696  2.7362  2.1627
13511SOL    HW242976   4.928   2.986   6.658 -0.4340  0.9307 -0.0403
13512SOL     OW42977   5.878   5.724   1.322  0.3973 -0.1541  0.0640
13512SOL    HW142978   5.797   5.712   1.372  0.5574 -0.5782  0.2185
13512SOL    HW242979   5.855   5.791   1.257 -0.0127 -0.1083  0.2492
13513SOL     OW42980   5.068   4.094   0.999 -0.1156  0.1644 -0.1979
13513SOL    HW142981   5.079   4.014   0.948 -0.1789 -0.0303  0.0952
13513SOL    HW242982   5.104   4.074   1.085 -1.6227 -0.0931  0.4032
13514SOL     OW42983   3.875   9.680  10.164 -0.3726 -0.5957 -0.2014
13514SOL    HW142984   3.960   9.655  10.200 -1.0489 -0.5816  1.4684
13514SOL    HW242985   3.831   9.727  10.235 -0.4940  2.4106 -2.0984
13515SOL     OW42986   3.685   0.999   4.272  0.6167  0.0723  0.0520
13515SOL    HW142987   3.779   1.008   4.290  0.8350  2.1939 -1.7933
13515SOL    HW242988   3.648   1.083   4.297 -0.3443  0.1984 -1.6579
13516SOL     OW42989   0.020   2.917   7.565 -0.2576  0.1879 -0.8205
13516SOL    HW142990  -0.049   2.920   7.631 -0.6566  0.1566 -1.2239
13516SOL    HW242991   0.067   2.836   7.584 -0.3777  0.1718 -0.5835
13517SOL     OW42992   8.300   0.628   3.336 -0.2968 -0.2418  0.4265
13517SOL    HW142993   8.284   0.695   3.402 -1.0948  1.1440 -1.0947
13517SOL    HW242994   8.253   0.658   3.259 -0.4008 -2.4082 -0.4362
13518SOL     OW42995   8.441   3.038   4.246  0.0531 -0.0601  0.0663
13518SOL    HW142996   8.403   3.060   4.331  0.4262 -0.1127  0.2503
13518SOL    HW242997   8.505   3.108   4.230 -1.7238  1.3320 -1.3111
13519SOL     OW42998   5.091  10.451   8.107 -0.0947 -0.7535 -0.1304
13519SOL    HW142999   5.053  10.406   8.032  1.2201 -0.7850 -0.8079
13519SOL    HW243000   5.107  10.382   8.172 -4.3357 -0.3338  1.6708
13520SOL     OW43001   7.039   3.261   2.750 -0.2436 -0.6715 -0.1363
13520SOL    HW143002   7.038   3.253   2.845  0.2580  0.7501  0.0220
13520SOL    HW243003   7.125   3.298   2.730 -1.1366  1.1518 -0.9041
13521SOL     OW43004   2.671   6.025   3.018  0.6321 -0.4685  0.3732
13521SOL    HW143005   2.709   6.001   2.934  0.7419 -1.5641  0.7263
13521SOL    HW243006   2.599   5.963   3.031  0.1311  0.1760  0.7427
13522SOL     OW43007   4.821   0.863   8.761  0.1186 -0.1513 -0.4351
13522SOL    HW143008   4.726   0.876   8.770  0.2374 -0.4072  1.6657
13522SOL    HW243009   4.830   0.799   8.691 -1.4090 -1.6065  0.6129
13523SOL     OW43010   9.016   6.944   3.987  0.4764  0.4559 -0.7743
13523SOL    HW143011   9.083   6.901   3.934 -0.1547 -1.3548 -0.1904
13523SOL    HW243012   9.044   6.930   4.078  0.2928  1.3626 -0.5686
13524SOL     OW43013   8.293   6.773   8.957  0.5049  0.5524  0.0278
13524SOL    HW143014   8.289   6.744   8.866  1.4646  0.3140  0.0513
13524SOL    HW243015   8.261   6.863   8.954  2.4783  1.2887 -0.9125
13525SOL     OW43016   0.916   1.883   2.161 -0.1605 -0.6323  0.2460
13525SOL    HW143017   0.942   1.952   2.100 -0.2067 -0.4616  0.4188
13525SOL    HW243018   0.970   1.899   2.238  1.8931 -2.4468 -0.7009
13526SOL     OW43019  10.157   4.667   0.175  0.9389 -0.6321  0.1104
13526SOL    HW143020  10.228   4.724   0.147 -0.1877  0.8409  0.1061
13526SOL    HW243021  10.087   4.727   0.201 -0.5647 -2.0045 -0.5456
13527SOL     OW43022   6.688   2.189   3.848 -0.4872 -0.0339 -0.6071
13527SOL    HW143023   6.768   2.144   3.821 -0.9132 -0.9826 -0.3444
13527SOL    HW243024   6.619   2.149   3.795 -0.7307  1.1489 -1.2187
13528SOL     OW43025   7.951   7.946   6.729 -0.1681  0.2726 -0.4519
13528SOL    HW143026   7.916   7.895   6.655 -0.1041  1.0049 -0.9911
13528SOL    HW243027   8.005   8.014   6.689  2.0446 -0.9016  0.3549
13529SOL     OW43028   8.935   0.208   3.559 -0.3712  0.2843  0.2762
13529SOL    HW143029   8.969   0.131   3.604  1.6128  1.6915  1.3777
13529SOL    HW243030   8.853   0.180   3.521 -1.3203 -1.5192  3.3087
13530SOL     OW43031   7.933   4.748   9.173 -0.1228  0.0942  0.1801
13530SOL    HW143032   8.015   4.764   9.126 -1.0160  0.2709 -1.4030
13530SOL    HW243033   7.876   4.820   9.146 -0.9792 -0.3270  0.8274
13531SOL     OW43034   8.743   0.525   7.600 -0.3984  0.1226  0.0628
13531SOL    HW143035   8.774   0.454   7.544 -1.1767 -0.6889  0.6420
13531SOL    HW243036   8.762   0.604   7.549  1.0904 -0.4293 -0.3064
13532SOL     OW43037   1.065   4.312   3.114  0.5471 -0.1277  0.1971
13532SOL    HW143038   1.120   4.243   3.075 -0.8209 -0.8829 -0.4664
13532SOL    HW243039   1.088   4.391   3.065  2.0955 -0.0877  0.9230
13533SOL     OW43040   6.829   1.049   3.561 -0.9700 -0.1164  0.0016
13533SOL    HW143041   6.826   1.128   3.615  1.0697 -0.0605  0.1192
13533SOL    HW243042   6.921   1.040   3.539 -1.6123 -0.6515 -2.7415
13534SOL     OW43043   4.959  10.335   1.605  0.7041 -0.0816 -0.1309
13534SOL    HW143044   4.872  10.332   1.566  1.1775 -1.2957 -1.1610
13534SOL    HW243045   4.955  10.408   1.668 -0.8280  0.3145 -0.6509
13535SOL     OW43046   7.936   7.231   1.816 -0.6624  0.3126 -0.1355
13535SOL    HW143047   7.916   7.238   1.909  1.0402  0.4473  0.2522
13535SOL    HW243048   7.935   7.321   1.784  0.0733  0.4012  0.0687
13536SOL     OW43049   4.697   2.243   6.510 -0.4740 -0.7241 -0.3809
13536SOL    HW143050   4.691   2.149   6.525  0.2864 -1.1727 -2.5361
13536SOL    HW243051   4.773   2.254   6.453 -0.0236  1.2979  0.5261
13537SOL     OW43052   4.822   4.200  10.309  0.4298  0.2015  0.4413
13537SOL    HW143053   4.879   4.253  10.364 -0.5824  0.3880  1.3339
13537SOL    HW243054   4.777   4.141  10.370 -1.5441  1.1772 -0.0138
13538SOL     OW43055   2.910   7.106   5.658  0.1227 -0.3111  0.2723
13538SOL    HW143056   2.824   7.066   5.648 -0.3649  0.2604  1.9204
13538SOL    HW243057   2.915   7.170   5.587 -1.3924  0.6229  0.9581
13539SOL     OW43058   3.705   4.328   5.779  0.4936 -0.0166 -0.0919
13539SOL    HW143059   3.710   4.237   5.751  0.4638 -0.3664  1.0037
13539SOL    HW243060   3.748   4.377   5.709 -0.1486 -0.7894 -1.0392
13540SOL     OW43061   0.751   9.239   8.621 -0.3281  0.0651 -0.1782
13540SOL    HW143062   0.748   9.183   8.698  1.8397  0.2587  0.1299
13540SOL    HW243063   0.781   9.182   8.551 -2.6626 -0.2069 -1.0487
13541SOL     OW43064   7.398   6.278   8.204  0.2449 -0.5417 -0.0123
13541SOL    HW143065   7.389   6.364   8.245  0.0073 -0.7485  0.3767
13541SOL    HW243066   7.417   6.297   8.112 -0.2811 -0.0788 -0.0277
13542SOL     OW43067   8.765   8.655   9.247 -0.6033 -0.5257  0.3249
13542SOL    HW143068   8.809   8.615   9.172  1.0142  2.2282 -0.3406
13542SOL    HW243069   8.824   8.639   9.321 -0.1733  0.1930  0.1473
13543SOL     OW43070   4.011   7.792   2.572  0.1818 -0.8972  0.3062
13543SOL    HW143071   4.089   7.768   2.522  1.6770  0.4823  1.8270
13543SOL    HW243072   3.968   7.709   2.591  1.7731 -1.7926  0.1529
13544SOL     OW43073   6.249   8.217   8.966 -0.8407 -0.7662  0.3575
13544SOL    HW143074   6.169   8.200   9.016 -1.7644 -1.9519 -1.4308
13544SOL    HW243075   6.287   8.131   8.951 -0.6222 -0.4530 -1.0120
13545SOL     OW43076   1.939   6.440   6.014  0.3052  0.4695  0.3256
13545SOL    HW143077   1.949   6.394   6.097 -0.1515 -0.0793  0.0855
13545SOL    HW243078   1.847   6.426   5.989  0.3162  1.0039 -0.0511
13546SOL     OW43079   6.624   7.220   5.924  0.1828 -0.4275  0.2237
13546SOL    HW143080   6.661   7.200   6.009  0.1784 -1.6959 -0.0584
13546SOL    HW243081   6.584   7.307   5.935 -1.0528 -1.1501  1.9063
13547SOL     OW43082  10.170   0.077   8.944 -0.0228 -0.0798 -0.0336
13547SOL    HW143083  10.138   0.088   9.033  2.5593 -0.7931  1.0853
13547SOL    HW243084  10.181  -0.017   8.934  0.9399  0.0791 -0.6087
13548SOL     OW43085   8.984   8.728   7.222  0.1000 -1.0377 -0.2276
13548SOL    HW143086   8.932   8.659   7.262 -0.9287 -0.5079 -0.5872
13548SOL    HW243087   8.958   8.807   7.270  0.5207 -0.7522 -0.4692
13549SOL     OW43088   5.478   0.142   1.470  0.2210  0.5727 -0.0872
13549SOL    HW143089   5.568   0.175   1.478  0.4266 -0.2832  1.5363
13549SOL    HW243090   5.489   0.049   1.448 -0.2536  0.3922  0.4237
13550SOL     OW43091   2.816   1.979   6.903  0.2333 -0.1922 -0.0646
13550SOL    HW143092   2.826   1.922   6.827 -0.8333  2.9518 -2.8330
13550SOL    HW243093   2.884   2.045   6.893 -1.0611  1.3282  0.6783
13551SOL     OW43094   2.746   2.118   3.420  0.3400  0.1710 -0.4622
13551SOL    HW143095   2.653   2.098   3.432  1.1208 -2.9348  1.4287
13551SOL    HW243096   2.755   2.208   3.449 -1.6662 -0.3386  2.0969
13552SOL     OW43097   8.183   0.124   7.622  0.3549  0.7819 -0.0403
13552SOL    HW143098   8.165   0.034   7.594  0.0830  1.0277 -0.6804
13552SOL    HW243099   8.248   0.115   7.691 -0.8192 -0.0170  1.0174
13553SOL     OW43100   4.233   5.601   8.782 -0.1932  0.7419 -0.5479
13553SOL    HW143101   4.187   5.541   8.723  0.8564  0.6752 -1.3107
13553SOL    HW243102   4.322   5.605   8.749  0.7105 -0.0281  1.5827
13554SOL     OW43103   3.116   5.153   4.254  0.3170 -0.3854  0.2990
13554SOL    HW143104   3.052   5.116   4.316  0.1496 -3.1939 -1.3764
13554SOL    HW243105   3.198   5.107   4.274 -0.3072 -3.4094 -3.0170
13555SOL     OW43106   8.180   8.637   5.639  0.4458  0.9572 -0.0453
13555SOL    HW143107   8.263   8.670   5.672  0.8415  0.6634 -0.7256
13555SOL    HW243108   8.126   8.625   5.717  1.2194  0.6599  0.4598
13556SOL     OW43109   6.872   6.121   0.865 -0.2240  0.5513 -0.3183
13556SOL    HW143110   6.961   6.144   0.890 -0.0364  0.2094 -0.6588
13556SOL    HW243111   6.881   6.075   0.782 -0.7198  0.5268 -0.3656
13557SOL     OW43112   0.841   3.907   8.123  0.3195 -1.2170 -0.1210
13557SOL    HW143113   0.925   3.926   8.082 -0.2364 -1.8820 -1.6072
13557SOL    HW243114   0.854   3.930   8.215  1.4784  0.6793 -0.7064
13558SOL     OW43115   1.565   9.013   0.696  0.1009  0.1314 -0.8022
13558SOL    HW143116   1.514   8.969   0.629 -1.2555  0.8708 -0.2882
13558SOL    HW243117   1.550   8.961   0.775 -0.4500  0.7475 -0.4904
13559SOL     OW43118   9.012   7.557   3.630  0.4804  0.5486 -0.2933
13559SOL    HW143119   8.986   7.550   3.722  0.7500  0.3078 -0.2328
13559SOL    HW243120   9.102   7.524   3.629  0.5472  0.7434 -0.6092
13560SOL     OW43121   1.068   4.849   8.215 -0.2809 -0.2484  0.1767
13560SOL    HW143122   1.124   4.915   8.256 -1.0157  1.6603 -1.7097
13560SOL    HW243123   1.127   4.801   8.156 -0.4819  1.5280 -1.5471
13561SOL     OW43124   5.481   0.555   2.966 -0.1378  0.4032  0.2942
13561SOL    HW143125   5.412   0.489   2.956 -3.2248  3.5149 -0.6131
13561SOL    HW243126   5.504   0.551   3.059 -1.6571 -0.6635  0.6711
13562SOL     OW43127   1.500   3.500   5.615 -0.1895 -0.7274  0.1823
13562SOL    HW143128   1.423   3.470   5.567  0.4768 -1.9413 -0.1636
13562SOL    HW243129   1.467   3.570   5.671 -1.4934 -1.0613 -0.1310
13563SOL     OW43130   9.004   3.398   0.254  0.3110  0.2870 -0.0477
13563SOL    HW143131   8.922   3.393   0.303 -0.4309  1.8689 -1.0228
13563SOL    HW243132   9.012   3.313   0.211 -0.0865 -0.3755  1.1336
13564SOL     OW43133   8.848   1.742   9.747 -0.3640 -0.4907  0.2743
13564SOL    HW143134   8.764   1.787   9.739  0.3265  1.0164  1.0908
13564SOL    HW243135   8.883   1.770   9.831  0.9623 -1.0733 -0.0498
13565SOL     OW43136   7.002   5.226   0.901 -0.9678  0.2004  0.0092
13565SOL    HW143137   7.035   5.218   0.990 -0.3167  0.4404 -0.2043
13565SOL    HW243138   6.938   5.155   0.893 -1.6431  0.6924  0.9238
13566SOL     OW43139   3.212   8.389   7.200  0.1952  0.5389  0.0675
13566SOL    HW143140   3.249   8.449   7.135  0.9754  0.4322  0.4028
13566SOL    HW243141   3.246   8.303   7.176 -0.0871  0.3870  0.2032
13567SOL     OW43142   7.900   7.764   3.709  0.4146  0.1769 -0.4068
13567SOL    HW143143   7.846   7.705   3.656 -0.6699 -0.5382  1.4128
13567SOL    HW243144   7.971   7.709   3.743  0.1383  0.2097  0.2404
13568SOL     OW43145   1.589   3.006   3.692  0.0949  0.0859  0.3661
13568SOL    HW143146   1.523   2.941   3.666 -1.3490  1.3211  0.7528
13568SOL    HW243147   1.551   3.090   3.666  1.7395  0.8192  0.2203
13569SOL     OW43148   6.229   9.109   9.223  0.1981  0.4095 -0.4891
13569SOL    HW143149   6.208   9.187   9.275  0.1063 -0.0939  0.2483
13569SOL    HW243150   6.145   9.080   9.188 -0.0665 -0.3845  0.7271
13570SOL     OW43151   1.277   7.695   2.348  0.0481  0.0755  0.1722
13570SOL    HW143152   1.261   7.788   2.365 -0.3016 -0.0072  0.2922
13570SOL    HW243153   1.198   7.651   2.377 -0.8327 -0.0155 -2.1430
13571SOL     OW43154   5.324   8.360   7.408  0.0505  0.4073 -0.7357
13571SOL    HW143155   5.297   8.388   7.321 -0.8838  2.2963  0.0807
13571SOL    HW243156   5.276   8.418   7.467  2.8575  1.2493  0.9493
13572SOL     OW43157   8.351   4.967   7.408 -0.2909 -0.2080  0.1768
13572SOL    HW143158   8.351   5.060   7.432 -1.2152  0.1819 -1.2192
13572SOL    HW243159   8.305   4.924   7.481 -1.6420  0.7247 -0.0802
13573SOL     OW43160   0.310   6.547   7.067 -0.0776  0.0853 -0.2751
13573SOL    HW143161   0.256   6.513   7.139  1.8925 -1.2819  0.6474
13573SOL    HW243162   0.340   6.632   7.098  0.2323 -0.2095  0.2453
13574SOL     OW43163   2.798   2.015   5.206 -0.6632  0.0666  0.2753
13574SOL    HW143164   2.726   2.029   5.145  1.1338  1.4510 -1.6907
13574SOL    HW243165   2.767   2.051   5.289 -2.8878 -1.1120  0.0283
13575SOL     OW43166   0.960   5.567   0.028  0.3441 -0.3189  0.2321
13575SOL    HW143167   1.022   5.622  -0.019 -1.0440  0.6686 -0.5209
13575SOL    HW243168   0.877   5.614   0.022 -0.3933 -1.3646  1.6094
13576SOL     OW43169   2.634   5.018  10.194 -0.3114 -0.2980 -0.4052
13576SOL    HW143170   2.647   5.104  10.233 -0.0000 -0.8557  0.7515
13576SOL    HW243171   2.616   4.960  10.268  0.5403 -1.4358 -1.0546
13577SOL     OW43172   3.586   1.783   0.490  0.1508  0.0261 -0.0154
13577SOL    HW143173   3.661   1.766   0.547  0.1309  1.9881  0.6581
13577SOL    HW243174   3.623   1.784   0.402  0.7364 -0.0039  0.2234
13578SOL     OW43175   3.232   9.595   7.542  0.3160 -0.0721 -0.5758
13578SOL    HW143176   3.308   9.646   7.570  0.2982 -0.6467  0.5986
13578SOL    HW243177   3.169   9.607   7.614  1.1068 -3.4585  0.8773
13579SOL     OW43178   0.899   7.102   3.809 -0.0767  0.1053 -0.4685
13579SOL    HW143179   0.891   7.127   3.717 -1.6768 -0.6853 -0.5876
13579SOL    HW243180   0.884   7.008   3.809  1.3136 -0.1394  0.4638
13580SOL     OW43181   1.814   6.117   3.323 -0.2170  0.2313  0.3647
13580SOL    HW143182   1.812   6.022   3.333  1.1556  0.4678  4.3514
13580SOL    HW243183   1.734   6.147   3.364 -0.8260  0.8720 -1.2016
13581SOL     OW43184   9.905   8.437   4.172  0.1515 -0.1123  0.2677
13581SOL    HW143185   9.970   8.506   4.183 -1.0938  1.2077 -0.3043
13581SOL    HW243186   9.867   8.453   4.086 -1.2570 -0.5375  0.7753
13582SOL     OW43187   8.446   0.317   7.617 -0.0356  0.2354 -0.4627
13582SOL    HW143188   8.460   0.387   7.682 -0.2725  0.5891 -0.7927
13582SOL    HW243189   8.427   0.240   7.670  0.5819  0.3349 -0.0810
13583SOL     OW43190   8.366   0.043   2.971 -0.0623  0.0461  0.0134
13583SOL    HW143191   8.407  -0.035   3.008 -0.9767 -1.1964 -1.4724
13583SOL    HW243192   8.281   0.012   2.939 -0.0289  1.4377 -1.5004
13584SOL     OW43193   9.205   7.386   2.056  0.3947 -0.4013 -0.2087
13584SOL    HW143194   9.253   7.324   2.001 -0.9041 -1.2356 -0.4478
13584SOL    HW243195   9.161   7.444   1.993  1.4261  0.6508  0.0103
13585SOL     OW43196   9.357   2.601   1.481 -0.4554 -0.0239  0.2589
13585SOL    HW143197   9.387   2.525   1.432  0.3463  0.7377 -0.4568
13585SOL    HW243198   9.272   2.575   1.516 -0.0329 -1.3742  0.3363
13586SOL     OW43199   7.747   9.401   6.214  0.3885 -0.2476 -0.5858
13586SOL    HW143200   7.768   9.408   6.308  1.1228  1.6330 -0.8382
13586SOL    HW243201   7.683   9.330   6.209 -0.2373  0.0945  1.4460
13587SOL     OW43202   9.153   1.015   9.913 -0.1032  0.2023 -0.0372
13587SOL    HW143203   9.179   1.026  10.005  0.3913  0.5471 -0.2199
13587SOL    HW243204   9.063   1.049   9.910 -0.5764 -0.9287  0.5728
13588SOL     OW43205   5.305   5.897   3.450  0.1944 -0.1741 -0.1087
13588SOL    HW143206   5.393   5.913   3.484 -0.0831  1.1874  0.0519
13588SOL    HW243207   5.255   5.974   3.477 -0.7469 -0.3771 -1.1906
13589SOL     OW43208   4.308   6.433   6.065 -0.1000  0.6352  0.4029
13589SOL    HW143209   4.348   6.504   6.116 -0.3416  0.5522  0.7093
13589SOL    HW243210   4.276   6.371   6.131 -0.8316  0.7519  0.1632
13590SOL     OW43211   5.485   1.346   3.673  0.3763  0.5542  0.0459
13590SOL    HW143212   5.432   1.285   3.621  0.3624 -1.1451  1.9392
13590SOL    HW243213   5.542   1.388   3.608  0.2394 -1.3144 -1.3968
13591SOL     OW43214   6.448  10.140   3.488 -0.2939  0.1312 -0.5448
13591SOL    HW143215   6.355  10.119   3.491 -0.4503  0.8827  1.0812
13591SOL    HW243216   6.480  10.098   3.408 -1.2296 -3.5041  0.7894
13592SOL     OW43217   7.704   4.251   6.561  0.0374  0.7058  0.4179
13592SOL    HW143218   7.750   4.192   6.621  1.0565  0.0912 -0.9178
13592SOL    HW243219   7.713   4.337   6.602 -0.4775  0.1355  1.8164
13593SOL     OW43220   3.193  10.085   9.987 -0.2242  0.1613  0.6256
13593SOL    HW143221   3.211  10.138  10.064 -0.0025 -0.1165  0.7668
13593SOL    HW243222   3.276  10.040   9.968  0.3639  1.8117 -1.0166
13594SOL     OW43223   9.352   7.072   4.505  0.6315  0.4088  0.5136
13594SOL    HW143224   9.343   7.035   4.593  1.0557 -0.9049  0.0367
13594SOL    HW243225   9.426   7.024   4.467  0.9185  1.4740 -0.3039
13595SOL     OW43226   0.541  10.279   0.803  0.0178  0.2686 -0.1192
13595SOL    HW143227   0.480  10.225   0.753 -0.7611  0.0621  1.0038
13595SOL    HW243228   0.624  10.271   0.757 -0.8396  0.7504 -1.8393
13596SOL     OW43229   8.527   5.271   8.307  0.0825  0.5730  0.2533
13596SOL    HW143230   8.483   5.251   8.224 -1.4783  0.7882  1.0011
13596SOL    HW243231   8.523   5.190   8.356  1.6214  0.2459 -0.1174
13597SOL     OW43232   1.414   7.968   3.583  0.1348  0.1821 -0.3139
13597SOL    HW143233   1.482   7.999   3.523  0.2314 -0.6519 -0.6452
13597SOL    HW243234   1.337   8.021   3.562 -0.1222 -0.7705 -1.8697
13598SOL     OW43235   2.663   9.124   3.051 -0.7394 -0.5030  0.6198
13598SOL    HW143236   2.595   9.144   3.116 -0.3482  1.4998  0.4629
13598SOL    HW243237   2.669   9.028   3.052 -1.9552 -0.6099  2.2735
13599SOL     OW43238   6.502   6.435   6.294 -0.2188  0.3344  0.4709
13599SOL    HW143239   6.530   6.397   6.211 -0.6677 -0.1778  0.5518
13599SOL    HW243240   6.478   6.360   6.348  0.0502  0.6640  1.0594
13600SOL     OW43241   5.704   8.408   0.689  0.1371  0.2585 -0.0800
13600SOL    HW143242   5.682   8.381   0.600 -0.8081 -0.0494  0.2350
13600SOL    HW243243   5.641   8.362   0.744 -1.2413  2.6843  0.5084
13601SOL     OW43244   0.103   4.900   9.984  0.1383  0.1729 -0.3980
13601SOL    HW143245   0.198   4.889   9.994  0.0474 -0.5929 -0.3126
13601SOL    HW243246   0.093   4.986   9.945  0.8959  0.0813 -0.8158
13602SOL     OW43247   5.540   3.975   0.470  0.3322  0.3265  0.2034
13602SOL    HW143248   5.587   4.044   0.517 -0.8405  0.1053  1.7866
13602SOL    HW243249   5.522   3.909   0.536  0.1357 -0.8292 -0.9657
13603SOL     OW43250   5.510   7.770   2.414 -0.3456 -0.8014  0.4372
13603SOL    HW143251   5.498   7.801   2.324 -0.0341 -0.1657  0.6080
13603SOL    HW243252   5.596   7.803   2.440 -1.4006  1.1092  1.7735
13604SOL     OW43253   0.748   7.918   0.427 -0.3386  0.4819  0.0682
13604SOL    HW143254   0.760   8.007   0.462  1.4835 -0.3881  1.9532
13604SOL    HW243255   0.693   7.874   0.492  0.1496 -0.2074  0.0260
13605SOL     OW43256   2.703   4.063   1.751  0.0292  0.0544 -0.1760
13605SOL    HW143257   2.614   4.087   1.778  0.7791  1.2450  1.3963
13605SOL    HW243258   2.754   4.069   1.831  1.8011  0.7102 -1.3096
13606SOL     OW43259   6.978   4.844   5.018  0.2371 -0.0027 -0.6330
13606SOL    HW143260   6.961   4.768   4.963 -0.5181  1.1052 -2.0245
13606SOL    HW243261   6.898   4.897   5.010  0.0803  0.2208  1.5774
13607SOL     OW43262   8.856   9.429   8.687  1.0822 -0.2567 -0.7984
13607SOL    HW143263   8.769   9.395   8.667  0.4726  0.9499 -0.3161
13607SOL    HW243264   8.904   9.423   8.604  1.1311 -2.5349 -0.6626
13608SOL     OW43265   8.305   4.229   1.914 -0.5087 -0.0033 -0.7192
13608SOL    HW143266   8.329   4.177   1.991 -2.1050 -0.6511 -0.6074
13608SOL    HW243267   8.384   4.279   1.893  0.5471 -1.2005  0.2058
13609SOL     OW43268   8.073   1.680   6.299 -0.3633 -0.6315 -0.0664
13609SOL    HW143269   8.091   1.696   6.206 -0.9285 -0.8475 -0.2197
13609SOL    HW243270   8.114   1.596   6.318  0.6674 -0.0861  0.1576
13610SOL     OW43271   1.206   0.500   6.072  0.1738  0.2167 -0.3254
13610SOL    HW143272   1.122   0.462   6.099  1.2399 -1.1475  1.2621
13610SOL    HW243273   1.185   0.548   5.992 -2.1069 -0.1134 -0.0108
13611SOL     OW43274   3.637   8.444   1.159  0.4462 -0.0444  0.3506
13611SOL    HW143275   3.649   8.349   1.156  1.0452  0.0484 -1.6744
13611SOL    HW243276   3.694   8.472   1.230  0.8663 -1.1335  0.4671
13612SOL     OW43277   6.829   0.553   9.961  0.0237  0.3549  0.2524
13612SOL    HW143278   6.809   0.545  10.054  0.6587  0.1677  0.3784
13612SOL    HW243279   6.863   0.642   9.951  0.9948  0.0192  0.4120
13613SOL     OW43280   6.249   4.221   5.059  0.0472  0.7780 -0.1437
13613SOL    HW143281   6.206   4.172   4.989 -0.0582  0.1400  0.3584
13613SOL    HW243282   6.333   4.249   5.022  1.5936 -2.5070  0.5055
13614SOL     OW43283   9.265   0.470   1.307  0.1717  0.0340 -0.3428
13614SOL    HW143284   9.346   0.475   1.358 -0.1874  0.0797  0.2223
13614SOL    HW243285   9.278   0.532   1.236  0.0201  1.1917  0.6161
13615SOL     OW43286   7.854   3.412   7.187  0.4121  0.5355 -0.1786
13615SOL    HW143287   7.879   3.366   7.267  0.1364 -0.3752 -0.6020
13615SOL    HW243288   7.767   3.448   7.205  0.2183  0.0649 -0.1750
13616SOL     OW43289   5.456   1.176   7.765  0.6133  0.7857  0.9445
13616SOL    HW143290   5.397   1.214   7.699  0.2595 -1.1057  0.1012
13616SOL    HW243291   5.543   1.188   7.728  0.4679  0.3450  0.4475
13617SOL     OW43292   9.389  10.046   4.624 -0.7219 -0.0405  0.4245
13617SOL    HW143293   9.443  10.092   4.688 -0.5899  0.3507  0.0391
13617SOL    HW243294   9.341   9.981   4.675 -0.2605 -0.0578  0.8471
13618SOL     OW43295   7.873   1.307   7.859 -0.3327  0.2433 -0.3726
13618SOL    HW143296   7.940   1.239   7.871  0.8555  1.1295 -1.7365
13618SOL    HW243297   7.896   1.349   7.777 -0.9564  2.4250  0.5115
13619SOL     OW43298   5.150   2.238   4.633  0.1641  1.0884 -0.2426
13619SOL    HW143299   5.064   2.210   4.664  0.8706 -0.1504  0.7002
13619SOL    HW243300   5.200   2.157   4.625  1.1768  1.7633 -1.0185
13620SOL     OW43301   6.975   8.712   9.487 -0.4564 -0.2848 -0.9760
13620SOL    HW143302   6.972   8.716   9.392 -1.2741  0.6109 -0.9194
13620SOL    HW243303   6.902   8.655   9.511 -1.6885  1.3214 -0.7939
13621SOL     OW43304   0.408   5.878   6.547  0.0783  0.6099 -0.1947
13621SOL    HW143305   0.428   5.855   6.456 -0.2655  1.3827 -0.4728
13621SOL    HW243306   0.314   5.893   6.548 -0.1240 -0.5474  0.5663
13622SOL     OW43307   7.613   7.563   1.317 -0.0506 -0.3010 -0.4951
13622SOL    HW143308   7.706   7.541   1.326 -0.4517 -2.2679 -0.8255
13622SOL    HW243309   7.605   7.598   1.229  0.7089  1.9083  0.2463
13623SOL     OW43310   7.993   8.224   1.590  0.5789  0.2814  0.4308
13623SOL    HW143311   7.956   8.208   1.677  2.3400  2.7790  1.7710
13623SOL    HW243312   7.944   8.300   1.557  0.5403 -0.0894 -0.3991
13624SOL     OW43313   2.835   2.640  10.421 -0.0593  0.1619  0.0402
13624SOL    HW143314   2.794   2.718  10.383  0.3325  1.0934  1.4389
13624SOL    HW243315   2.771   2.608  10.484  0.6295  0.6342  1.0113
13625SOL     OW43316   8.291   2.608   0.314  0.1093 -0.3259  0.4742
13625SOL    HW143317   8.224   2.604   0.245  2.2436  0.8071 -1.7881
13625SOL    HW243318   8.286   2.522   0.356 -3.1317 -0.0792  0.8439
13626SOL     OW43319   8.548   8.634   0.590  0.3706 -0.2570 -0.2782
13626SOL    HW143320   8.565   8.709   0.534 -0.3850 -0.2248 -0.4784
13626SOL    HW243321   8.631   8.587   0.594  0.2153 -0.7797 -2.1887
13627SOL     OW43322   3.269   9.309   2.657  0.7373  0.5990 -0.5635
13627SOL    HW143323   3.230   9.389   2.621 -0.3844 -0.6616 -2.3963
13627SOL    HW243324   3.229   9.238   2.605  1.6294 -1.1568  1.0161
13628SOL     OW43325   4.257   3.522   5.327  0.3243  0.0054 -0.1291
13628SOL    HW143326   4.207   3.441   5.318  1.2585 -0.6520  0.4043
13628SOL    HW243327   4.193   3.586   5.361  0.1358 -1.1902  1.9440
13629SOL     OW43328   7.018   6.420  10.109 -0.4372 -0.4353 -0.1745
13629SOL    HW143329   7.085   6.487  10.124 -3.0087  2.6163 -1.1564
13629SOL    HW243330   7.011   6.373  10.192  0.5827  1.3992  1.0095
13630SOL     OW43331   3.399   7.310   2.949  0.2518 -0.0267 -0.1668
13630SOL    HW143332   3.375   7.327   2.858 -2.0619 -1.4436  0.1001
13630SOL    HW243333   3.373   7.389   2.996  0.4487  0.2848 -0.5770
13631SOL     OW43334   2.044   3.889   2.031  0.1536  0.1778 -0.1326
13631SOL    HW143335   2.051   3.839   2.112  3.6158 -0.9510 -0.9386
13631SOL    HW243336   2.059   3.980   2.057  1.4056 -0.1924  0.4970
13632SOL     OW43337   1.877   7.617   7.682  0.1552  0.4803  0.2944
13632SOL    HW143338   1.897   7.689   7.741  1.3800  0.0733  0.3997
13632SOL    HW243339   1.802   7.573   7.723 -0.0535  1.1724  0.6712
13633SOL     OW43340   7.054   7.149   6.165  0.4107  0.3035  0.2988
13633SOL    HW143341   7.110   7.144   6.242  1.6324  2.3659 -0.3761
13633SOL    HW243342   7.110   7.123   6.093 -0.2711 -0.0993 -0.1001
13634SOL     OW43343   1.162   7.797   5.712  0.3826 -0.2479 -0.4723
13634SOL    HW143344   1.190   7.760   5.628 -0.4797  1.9282 -1.7941
13634SOL    HW243345   1.134   7.886   5.691  0.6534  0.5617  2.2413
13635SOL     OW43346   2.085   0.492   1.941 -0.2274  0.0289 -0.2350
13635SOL    HW143347   2.048   0.578   1.926  1.5530  1.3074  1.9996
13635SOL    HW243348   2.177   0.500   1.916  0.0344 -1.1047  0.2860
13636SOL     OW43349   0.259   8.562   5.042  0.5641  0.7490 -0.4236
13636SOL    HW143350   0.295   8.488   4.994 -0.4877 -0.8214  1.1158
13636SOL    HW243351   0.320   8.575   5.115 -0.4919 -0.1797  0.6559
13637SOL     OW43352   7.411   8.808   5.961  0.6464 -0.3352 -0.3209
13637SOL    HW143353   7.419   8.716   5.988  1.5355  0.3875  2.0478
13637SOL    HW243354   7.319   8.829   5.976  0.9932 -0.1173  1.7735
13638SOL     OW43355   0.164   4.833   8.530  0.0542 -0.1771 -0.0407
13638SOL    HW143356   0.189   4.872   8.614 -0.2468 -0.7158  0.3065
13638SOL    HW243357   0.171   4.905   8.468 -1.8058  0.8162  0.8092
13639SOL     OW43358   1.935   1.976   7.920 -0.4736 -0.1141 -0.2500
13639SOL    HW143359   1.839   1.970   7.924 -0.5680  1.4377  0.7903
13639SOL    HW243360   1.952   2.055   7.868  0.2115 -0.1217 -0.0511
13640SOL     OW43361  10.352   5.574   2.307  0.2306  0.2916  0.2154
13640SOL    HW143362  10.268   5.541   2.340  0.9368  0.1725  2.0240
13640SOL    HW243363  10.370   5.652   2.359  1.7815 -0.3431  0.6991
13641SOL     OW43364   2.062   4.802   9.926 -0.1609 -0.0672  0.0226
13641SOL    HW143365   2.066   4.758   9.841  3.4793 -2.7760  1.3116
13641SOL    HW243366   2.149   4.839   9.938 -0.8421  0.9825  2.2341
13642SOL     OW43367   1.176   3.281   0.517 -0.0104  0.8099  0.1430
13642SOL    HW143368   1.144   3.280   0.608  1.8883 -0.9011  0.8620
13642SOL    HW243369   1.239   3.209   0.513  0.4411  1.2659 -2.3827
13643SOL     OW43370   4.662   9.615   1.122  0.5375 -0.3130 -0.2236
13643SOL    HW143371   4.683   9.641   1.212 -1.6176  1.8355 -0.2598
13643SOL    HW243372   4.596   9.546   1.132 -0.3151  0.5071 -0.1467
13644SOL     OW43373   1.224   6.967   0.633 -0.2506  0.0132 -0.0508
13644SOL    HW143374   1.289   7.012   0.577 -2.1439  1.9798 -0.8122
13644SOL    HW243375   1.252   6.876   0.633  1.3055  0.4036 -2.1188
13645SOL     OW43376   8.100   3.635   4.516 -0.2378  0.4251 -0.0449
13645SOL    HW143377   8.147   3.596   4.441 -0.0539 -0.2026  0.3835
13645SOL    HW243378   8.112   3.729   4.505 -0.0129  0.3319 -0.6811
13646SOL     OW43379   7.535   7.003   0.473 -0.4815 -0.0515  0.0858
13646SOL    HW143380   7.440   6.999   0.489 -0.6848  1.8330 -0.4811
13646SOL    HW243381   7.574   6.984   0.559 -1.3789 -0.0362  0.5127
13647SOL     OW43382   6.292   0.445   7.129 -0.2902 -0.3916  0.2706
13647SOL    HW143383   6.370   0.497   7.113 -0.7992  0.3201  0.0734
13647SOL    HW243384   6.265   0.415   7.043 -0.8324  0.2472  0.2094
13648SOL     OW43385   1.051   7.766   6.206 -0.1536  0.4102 -0.8055
13648SOL    HW143386   1.103   7.775   6.127 -0.0185  0.4986 -0.7080
13648SOL    HW243387   0.970   7.815   6.188 -0.1347  0.4061 -0.8980
13649SOL     OW43388   5.586   5.515   3.324 -0.2285  0.1363  0.3970
13649SOL    HW143389   5.551   5.604   3.328 -0.3655  0.1118 -0.1918
13649SOL    HW243390   5.681   5.527   3.325 -0.2182  0.2121  1.7800
13650SOL     OW43391   8.305   8.514   7.317  0.1675 -0.8342 -0.5246
13650SOL    HW143392   8.234   8.494   7.257  0.1134  2.1578 -1.6079
13650SOL    HW243393   8.263   8.516   7.403 -0.6721 -0.9204 -0.9192
13651SOL     OW43394   8.940  10.413   6.363  0.5491 -0.3766  0.0400
13651SOL    HW143395   8.862  10.441   6.315  0.3119 -0.8664  0.1342
13651SOL    HW243396   8.910  10.341   6.417  0.7247  0.4108  1.2221
13652SOL     OW43397   9.811   1.756   9.849 -0.0263  0.2474  0.2784
13652SOL    HW143398   9.730   1.807   9.861  1.0252  1.9275  0.6295
13652SOL    HW243399   9.830   1.765   9.756 -2.5969 -4.0283 -0.9321
13653SOL     OW43400   2.362   8.185   1.900 -0.3062 -0.3847 -0.7985
13653SOL    HW143401   2.290   8.228   1.853 -0.6679 -1.9793 -1.7715
13653SOL    HW243402   2.440   8.208   1.849 -0.5196 -0.9845 -1.4104
13654SOL     OW43403   2.936   1.973   5.527  0.5771  0.0857 -0.1426
13654SOL    HW143404   2.943   1.945   5.618 -0.7677 -0.1930 -0.1030
13654SOL    HW243405   3.024   2.003   5.504  0.6642  1.4233  1.6671
13655SOL     OW43406   3.847   6.441   2.106  0.3462 -0.1749  0.3998
13655SOL    HW143407   3.854   6.464   2.198 -1.8491 -0.6830  0.7590
13655SOL    HW243408   3.776   6.496   2.072  1.8320  0.8027 -1.3079
13656SOL     OW43409   5.515   7.057   6.654  0.1464  0.1938  1.1571
13656SOL    HW143410   5.474   7.015   6.730  0.9875 -1.3300  0.8262
13656SOL    HW243411   5.608   7.063   6.677  1.2003 -3.7078 -0.9850
13657SOL     OW43412  10.158   2.075   8.110 -0.5288 -0.1829  0.0203
13657SOL    HW143413  10.161   1.980   8.100 -1.5889 -0.1314 -1.1399
13657SOL    HW243414  10.237   2.107   8.067 -1.0437 -0.4614 -1.1728
13658SOL     OW43415  10.004   4.096   9.251 -0.1296 -0.5081  0.2746
13658SOL    HW143416   9.997   4.049   9.334 -2.3374 -0.2887  0.2761
13658SOL    HW243417  10.006   4.026   9.185 -0.4570 -0.6664  0.4256
13659SOL     OW43418   6.238   3.894   9.186 -0.1146  0.1185  0.5241
13659SOL    HW143419   6.287   3.906   9.267  0.1782  1.4241  0.1723
13659SOL    HW243420   6.146   3.902   9.211 -0.1952 -1.9981  1.1280
13660SOL     OW43421   0.915   2.350   4.755 -0.4651 -0.0227 -0.4869
13660SOL    HW143422   0.897   2.258   4.737 -1.1354  0.1992 -0.9631
13660SOL    HW243423   0.860   2.399   4.694 -0.7777  0.7097  0.3457
13661SOL     OW43424   1.594   5.243   8.040  0.2051 -0.0483 -0.4604
13661SOL    HW143425   1.678   5.202   8.019  0.9448  0.8749  0.5707
13661SOL    HW243426   1.584   5.312   7.974  0.5963  0.2940 -0.1613
13662SOL     OW43427  10.300   4.936   3.812 -0.5059 -0.1773 -0.0728
13662SOL    HW143428  10.221   4.981   3.781 -2.7013 -1.4070  3.1728
13662SOL    HW243429  10.291   4.934   3.907  3.5417 -0.4095  0.4727
13663SOL     OW43430   1.886   2.669   1.922  0.0982 -0.1047  0.1035
13663SOL    HW143431   1.939   2.590   1.927  0.9845  0.4852  0.3589
13663SOL    HW243432   1.950   2.741   1.916 -0.6811  0.5041 -1.8449
13664SOL     OW43433   3.550   2.587   4.929  0.4344  0.3094  0.1787
13664SOL    HW143434   3.576   2.666   4.881 -2.3271  0.8626 -0.5972
13664SOL    HW243435   3.533   2.522   4.860  1.8748 -0.7572  0.7710
13665SOL     OW43436  10.325   9.822   4.875 -0.5501  0.3090 -0.0916
13665SOL    HW143437  10.413   9.786   4.862 -0.2495  0.1148  2.1186
13665SOL    HW243438  10.334   9.915   4.852  0.6346  0.6105  1.4156
13666SOL     OW43439   2.103   0.826   1.198 -0.3861 -0.4526  0.6397
13666SOL    HW143440   2.017   0.796   1.168 -0.3042 -1.5630  1.4301
13666SOL    HW243441   2.084   0.876   1.277 -0.5422  1.8964 -0.7902
13667SOL     OW43442   9.239   5.418   0.143 -0.1713 -0.2387  0.1373
13667SOL    HW143443   9.257   5.332   0.107  0.0013 -0.5964  1.0469
13667SOL    HW243444   9.322   5.447   0.180 -0.2437  0.2910 -0.0924
13668SOL     OW43445   9.330   3.862   5.895  0.1991 -0.2128  0.0612
13668SOL    HW143446   9.259   3.902   5.945  0.6762  0.2946  0.3543
13668SOL    HW243447   9.407   3.913   5.919  0.3128  0.5948 -1.8168
13669SOL     OW43448   2.356  10.160   7.867 -0.3153  0.1224  0.8764
13669SOL    HW143449   2.424  10.134   7.930  1.3991 -1.1124 -1.3294
13669SOL    HW243450   2.355  10.255   7.871 -0.6882  0.0969  3.1270
13670SOL     OW43451   0.020   7.668   5.481 -0.0546  0.0098 -0.1076
13670SOL    HW143452  -0.029   7.615   5.543  2.2338 -1.7596  0.2909
13670SOL    HW243453   0.049   7.744   5.532 -0.9558  0.2662  0.0536
13671SOL     OW43454   2.418   4.566   7.600  0.2221  0.2068  0.1558
13671SOL    HW143455   2.419   4.471   7.616 -0.7972 -0.0924 -1.3460
13671SOL    HW243456   2.402   4.604   7.686 -1.2574 -1.0978  0.5071
13672SOL     OW43457   5.201   6.836   2.886  0.0330 -0.2251  0.4507
13672SOL    HW143458   5.235   6.922   2.860  0.4671  0.0138  1.7160
13672SOL    HW243459   5.272   6.776   2.868  0.0672 -0.1694  0.3999
13673SOL     OW43460   3.224   0.211   7.372  0.1949 -0.2787 -0.1324
13673SOL    HW143461   3.297   0.269   7.394  2.2952 -3.0523  0.8180
13673SOL    HW243462   3.238   0.188   7.280 -0.8327  0.9253 -0.6086
13674SOL     OW43463   2.790   3.162  10.251  0.7308  0.2141 -0.2183
13674SOL    HW143464   2.804   3.164  10.156  0.0515 -3.5705 -0.5570
13674SOL    HW243465   2.702   3.128  10.262  0.5163  1.2435  1.8572
13675SOL     OW43466   8.705   8.815   4.393  0.3383 -0.6798 -0.0327
13675SOL    HW143467   8.611   8.832   4.384  0.2396 -0.9692  0.4275
13675SOL    HW243468   8.728   8.768   4.312  0.7943  2.2427 -1.7577
13676SOL     OW43469   0.969   2.592   7.858  0.3780  0.4470  0.1908
13676SOL    HW143470   0.910   2.589   7.933 -1.0644 -1.9609 -0.9071
13676SOL    HW243471   1.041   2.648   7.886 -0.6824  0.6030  2.9103
13677SOL     OW43472   1.596   3.175   4.526 -0.4504 -0.3039  0.2286
13677SOL    HW143473   1.647   3.109   4.572 -0.5218 -0.7578 -0.3240
13677SOL    HW243474   1.515   3.183   4.576  0.3270  0.7406  1.3633
13678SOL     OW43475   7.669   0.312   7.951  0.8849  0.4327 -0.3430
13678SOL    HW143476   7.616   0.233   7.960 -1.9508  1.8044 -2.8571
13678SOL    HW243477   7.658   0.358   8.035 -0.2623 -0.2975 -0.0673
13679SOL     OW43478   4.053   9.530   1.765  0.1284 -0.0467 -0.1289
13679SOL    HW143479   4.056   9.624   1.779  0.4274 -0.3393  2.2261
13679SOL    HW243480   3.974   9.516   1.712 -0.5104  1.4420  0.3633
13680SOL     OW43481   5.608   7.029   4.529  0.5801  0.2595  0.0435
13680SOL    HW143482   5.585   7.107   4.479 -0.2000  0.6924  1.0438
13680SOL    HW243483   5.659   7.062   4.603  0.6726 -0.2293  0.2000
13681SOL     OW43484   4.563   6.355  10.278 -0.1519 -0.0111  0.6051
13681SOL    HW143485   4.508   6.328  10.352 -2.4571 -1.4039 -1.4595
13681SOL    HW243486   4.639   6.295  10.281 -1.6815 -2.0874  0.2364
13682SOL     OW43487   8.945   7.174   2.837  0.5427 -0.3088 -0.2986
13682SOL    HW143488   8.929   7.129   2.754  0.0119  1.2269 -1.0746
13682SOL    HW243489   8.869   7.153   2.891  1.0209 -1.5385 -0.0715
13683SOL     OW43490   7.514   5.796   2.082 -0.1974  0.0352 -0.3169
13683SOL    HW143491   7.498   5.873   2.136 -1.4820  0.8782 -1.8125
13683SOL    HW243492   7.495   5.825   1.993  0.7385 -1.6160 -1.0969
13684SOL     OW43493   4.367   2.293   8.156 -0.2178  0.2045 -0.7775
13684SOL    HW143494   4.444   2.283   8.100 -0.1791 -0.5613 -0.5933
13684SOL    HW243495   4.345   2.204   8.183 -0.1919  0.5633  0.4972
13685SOL     OW43496   7.283   3.058   9.020  0.0504 -0.2327  0.5638
13685SOL    HW143497   7.328   3.054   8.936 -2.1603 -1.3581 -0.6835
13685SOL    HW243498   7.353   3.063   9.085  1.8617 -0.1325 -1.2893
13686SOL     OW43499   5.162   2.836   8.336  0.3777  0.4043 -0.3347
13686SOL    HW143500   5.229   2.854   8.403  0.6936  0.6677 -0.7195
13686SOL    HW243501   5.177   2.745   8.311 -0.9032 -0.2947  1.2543
13687SOL     OW43502   1.675   1.448   7.371  0.2510 -0.0613  0.0848
13687SOL    HW143503   1.705   1.523   7.422 -0.3209  0.2539 -0.0229
13687SOL    HW243504   1.630   1.392   7.435 -0.0170  0.0823  0.0250
13688SOL     OW43505   3.464   2.367   6.307  0.7126 -0.6342  0.0662
13688SOL    HW143506   3.383   2.389   6.352  1.7882  0.2232  1.6830
13688SOL    HW243507   3.498   2.452   6.277  1.1278 -0.9666 -0.4216
13689SOL     OW43508   2.807   2.848   5.779  0.0508  0.2728  0.3655
13689SOL    HW143509   2.819   2.861   5.873  0.3341 -0.9815  0.5227
13689SOL    HW243510   2.713   2.859   5.765 -0.1154 -0.3267  0.9447
13690SOL     OW43511   3.700   0.635   2.792 -0.5450  0.0277  0.3469
13690SOL    HW143512   3.698   0.724   2.826  1.4647 -0.2043  1.2522
13690SOL    HW243513   3.672   0.581   2.866  0.6565 -0.2320  0.6468
13691SOL     OW43514   2.124   0.196   8.956 -0.0061 -0.7370 -0.1796
13691SOL    HW143515   2.107   0.284   8.922  1.3620 -0.3623  0.0323
13691SOL    HW243516   2.047   0.176   9.009 -0.1233  0.5557  0.1760
13692SOL     OW43517  10.180   3.470   3.354 -0.2331  0.2695  0.1787
13692SOL    HW143518  10.189   3.419   3.274  2.5831  1.0069 -0.0916
13692SOL    HW243519  10.217   3.415   3.423 -1.0180  0.3420  0.6801
13693SOL     OW43520   9.756   8.246   0.652  0.4810 -0.0938  0.2441
13693SOL    HW143521   9.780   8.233   0.560  0.3307  1.9174 -0.1238
13693SOL    HW243522   9.729   8.159   0.682 -0.5123 -0.6157 -1.9360
13694SOL     OW43523   8.894   5.101   5.306 -0.2200 -1.1180 -0.5037
13694SOL    HW143524   8.846   5.107   5.224 -0.2784 -1.1912 -0.4751
13694SOL    HW243525   8.985   5.117   5.282  0.1061 -3.3628 -0.9530
13695SOL     OW43526   3.269   1.566   5.995  0.3218 -0.4242 -0.0776
13695SOL    HW143527   3.344   1.532   6.043 -0.6298 -2.3557  0.1262
13695SOL    HW243528   3.214   1.607   6.062 -0.1481 -1.5438  0.2463
13696SOL     OW43529   3.052   6.514   2.183  0.3219  0.8455  0.2661
13696SOL    HW143530   3.127   6.470   2.142  1.2679 -0.0563  2.7942
13696SOL    HW243531   3.085   6.601   2.205  0.5664  0.5480  1.1152
13697SOL     OW43532   4.416   3.559   3.429 -0.7750 -0.1578  0.2039
13697SOL    HW143533   4.463   3.482   3.459  1.1106  1.7551  2.5038
13697SOL    HW243534   4.481   3.612   3.383 -1.4654  1.0327  0.5285
13698SOL     OW43535   6.562   9.573   5.502  0.3752 -0.3559 -0.2660
13698SOL    HW143536   6.583   9.653   5.453 -0.4681  0.3226  0.4550
13698SOL    HW243537   6.518   9.517   5.439 -1.9039  1.0398 -0.0130
13699SOL     OW43538   5.679   0.051   3.635 -0.2690  0.0089 -0.5480
13699SOL    HW143539   5.597   0.003   3.648  0.5557 -1.0334  1.1477
13699SOL    HW243540   5.687   0.105   3.714  0.7714 -0.0517 -0.6045
13700SOL     OW43541   4.422   3.598   3.987 -0.5372 -0.0947  0.0922
13700SOL    HW143542   4.395   3.581   3.896  0.8589 -2.1915 -0.0174
13700SOL    HW243543   4.353   3.560   4.040 -1.3825  1.1778 -0.0624
13701SOL     OW43544   1.674   4.785   7.599 -0.6678  0.3811  0.3309
13701SOL    HW143545   1.585   4.774   7.565 -0.7546  0.3097  0.5789
13701SOL    HW243546   1.676   4.729   7.677  0.2121 -1.1980 -0.7684
13702SOL     OW43547   0.698   2.388   9.377 -0.0595  0.0436 -0.2642
13702SOL    HW143548   0.644   2.419   9.304 -0.8269 -0.6772 -0.0235
13702SOL    HW243549   0.664   2.433   9.453  0.5138  0.5332 -0.2921
13703SOL     OW43550   7.384   4.787   4.462  0.3982 -0.6223  0.4984
13703SOL    HW143551   7.440   4.863   4.471 -0.6924  0.1928  0.6462
13703SOL    HW243552   7.337   4.781   4.545 -1.1372 -0.1072 -0.2913
13704SOL     OW43553   5.583   1.725   2.796  0.0493  0.0025  0.0346
13704SOL    HW143554   5.562   1.645   2.748 -0.8306  0.9417 -1.2369
13704SOL    HW243555   5.636   1.777   2.735  0.2947  0.5437  0.6926
13705SOL     OW43556   6.022   4.891   1.071  0.1629  0.1182 -0.3549
13705SOL    HW143557   5.939   4.854   1.041  0.7138  0.7003 -2.7445
13705SOL    HW243558   6.088   4.825   1.047  0.5647  0.2848  0.2624
13706SOL     OW43559   7.832   4.053   4.629  0.1720 -0.4841  0.2433
13706SOL    HW143560   7.863   3.991   4.563 -0.1854  0.3629 -0.7584
13706SOL    HW243561   7.912   4.087   4.670  0.4627 -0.2212 -0.5236
13707SOL     OW43562   8.278   3.654   5.520  0.2580 -0.3452  0.6209
13707SOL    HW143563   8.306   3.712   5.449 -0.6809 -0.2266  0.3338
13707SOL    HW243564   8.360   3.621   5.558  0.7715 -0.7636 -0.7934
13708SOL     OW43565   4.423   0.591   9.299 -0.2753 -0.5214 -0.1314
13708SOL    HW143566   4.372   0.511   9.301  0.5035 -1.0208  1.3585
13708SOL    HW243567   4.482   0.581   9.224 -1.8150 -0.2287 -1.4519
13709SOL     OW43568   2.137   3.908   1.258  0.1741  0.0300  0.3667
13709SOL    HW143569   2.168   3.989   1.298 -1.8557  0.4329  1.2274
13709SOL    HW243570   2.054   3.890   1.301 -0.6097 -1.2008 -1.5270
13710SOL     OW43571   3.523   3.245  10.331 -0.0167 -0.5761  0.2771
13710SOL    HW143572   3.538   3.187  10.257  1.0768 -0.0020  0.0300
13710SOL    HW243573   3.544   3.333  10.298 -1.4144 -0.0400  0.7031
13711SOL     OW43574   0.269   8.082   6.235 -0.5865  0.1984 -0.2691
13711SOL    HW143575   0.308   8.149   6.290 -1.8220  0.5631  0.1855
13711SOL    HW243576   0.329   8.008   6.241  0.4805  1.0505 -0.3073
13712SOL     OW43577   8.231   3.402   0.001  0.5043  0.0957  0.3454
13712SOL    HW143578   8.212   3.491  -0.028  1.1708 -0.2151 -1.2002
13712SOL    HW243579   8.166   3.348  -0.045  1.3117 -0.3805 -0.2643
13713SOL     OW43580   0.627   4.265   9.130 -0.2400 -0.2027  0.0898
13713SOL    HW143581   0.601   4.247   9.221 -0.8468  1.4570  0.2738
13713SOL    HW243582   0.681   4.344   9.136 -1.0712  0.4697 -1.0949
13714SOL     OW43583   8.871   7.912   9.000  0.0137 -0.2720  0.5644
13714SOL    HW143584   8.813   7.973   8.956  0.7162 -0.5339 -0.7689
13714SOL    HW243585   8.903   7.960   9.076 -0.6228  0.4684  0.3713
13715SOL     OW43586   1.774   0.571   9.496  0.7002  0.3898  0.2962
13715SOL    HW143587   1.831   0.641   9.463  1.5273 -0.1181  0.6215
13715SOL    HW243588   1.748   0.601   9.584  1.8496 -0.1447  0.8349
13716SOL     OW43589   5.409   5.682   3.072 -0.0776 -0.3439 -0.4029
13716SOL    HW143590   5.490   5.731   3.059 -0.3158  0.1684 -0.0038
13716SOL    HW243591   5.410   5.615   3.004  0.4749 -0.0697 -0.6687
13717SOL     OW43592   9.864   7.444   9.099  0.1915  0.0550 -0.0899
13717SOL    HW143593   9.832   7.517   9.152 -3.5026  0.0156 -1.9262
13717SOL    HW243594   9.894   7.485   9.018 -0.6720 -0.3232 -0.6155
13718SOL     OW43595   6.888   3.029   4.898  0.2302  0.0242 -0.1608
13718SOL    HW143596   6.941   3.053   4.823 -0.6280  2.6620 -0.0177
13718SOL    HW243597   6.907   3.096   4.964 -2.6315  0.6555  0.1595
13719SOL     OW43598   7.167   2.062   8.334 -0.0627 -0.2040 -0.0966
13719SOL    HW143599   7.107   2.011   8.281  0.4770 -1.2555  0.2708
13719SOL    HW243600   7.192   2.003   8.405  1.4137  0.1928 -0.2534
13720SOL     OW43601  10.475  10.040   7.262 -0.2499 -0.0884  0.2946
13720SOL    HW143602  10.492  10.129   7.232  0.6626  0.0386  1.1174
13720SOL    HW243603  10.549   9.989   7.228  1.1883  0.1814  2.7249
13721SOL     OW43604   8.850   4.380   8.869  0.3041 -0.2933  0.3387
13721SOL    HW143605   8.819   4.470   8.878  0.1952 -0.1973 -0.9279
13721SOL    HW243606   8.934   4.387   8.826  0.5123 -0.7821  0.6509
13722SOL     OW43607   9.551  10.377   7.608  0.9215  0.0540 -0.4991
13722SOL    HW143608   9.545  10.381   7.704 -0.9399 -1.3880 -0.4935
13722SOL    HW243609   9.526  10.464   7.579 -0.7909 -0.1305  0.3103
13723SOL     OW43610   1.723   1.976   9.457  0.2395 -0.7867  0.1236
13723SOL    HW143611   1.813   1.943   9.455  0.6483  0.3042 -0.3152
13723SOL    HW243612   1.671   1.906   9.417  1.2416 -0.4543 -1.8658
13724SOL     OW43613   2.097   4.194   5.602 -0.4915  0.3368  0.3173
13724SOL    HW143614   2.048   4.115   5.579  1.2839 -0.9140  0.6998
13724SOL    HW243615   2.051   4.228   5.679 -1.6219  0.0312 -0.1981
13725SOL     OW43616   9.778   4.579   5.683 -0.1588 -0.1419 -0.0827
13725SOL    HW143617   9.775   4.584   5.779  1.0404  0.8405 -0.0720
13725SOL    HW243618   9.767   4.669   5.654  0.2368 -0.3298 -0.8359
13726SOL     OW43619   0.849   8.946   1.548 -0.0095 -0.1635 -0.2585
13726SOL    HW143620   0.769   8.894   1.552  0.0401 -0.1880  0.4833
13726SOL    HW243621   0.840   8.998   1.468 -0.3963 -0.7560 -0.6031
13727SOL     OW43622   0.003   2.918   6.561  0.5152 -0.4482  0.2591
13727SOL    HW143623  -0.007   2.827   6.534  2.0741  0.0575 -2.3275
13727SOL    HW243624   0.076   2.951   6.508 -0.2823  2.4191  0.7883
13728SOL     OW43625   6.038   8.609   4.469 -0.1030  0.1536 -0.2269
13728SOL    HW143626   5.943   8.617   4.478 -0.2443 -1.0261 -0.5372
13728SOL    HW243627   6.057   8.657   4.388 -0.4239  0.4243 -0.1472
13729SOL     OW43628   3.955   3.699   7.650 -0.3954  0.2659  0.1206
13729SOL    HW143629   4.040   3.690   7.694 -0.3838  1.0956  0.2690
13729SOL    HW243630   3.951   3.622   7.592 -0.8988 -1.4533  2.3214
13730SOL     OW43631   7.221   2.269   3.317 -0.2969  0.1412  0.9729
13730SOL    HW143632   7.183   2.340   3.368 -2.3284 -0.1602 -0.0524
13730SOL    HW243633   7.219   2.300   3.227  0.0303 -0.6952  0.6675
13731SOL     OW43634   9.656   4.101   0.744 -0.1635 -0.2671 -0.1265
13731SOL    HW143635   9.609   4.148   0.676  0.4443  0.6614  0.0831
13731SOL    HW243636   9.743   4.139   0.744 -0.1616 -0.2135  1.1849
13732SOL     OW43637   8.939   9.063   0.647 -0.2654  0.8524 -0.2230
13732SOL    HW143638   9.004   8.993   0.638 -0.2438  1.0014 -1.3685
13732SOL    HW243639   8.971   9.115   0.721  0.7610  0.7336 -0.5612
13733SOL     OW43640   6.053   2.751   2.660 -0.8347 -0.0467 -0.2360
13733SOL    HW143641   6.110   2.693   2.609 -0.0608  0.4475  0.0482
13733SOL    HW243642   5.978   2.696   2.685  0.0718 -1.0390  0.3749
13734SOL     OW43643   5.568   0.878   0.748 -0.1735 -0.0345  0.2132
13734SOL    HW143644   5.546   0.819   0.819 -2.2835  0.4291  0.0133
13734SOL    HW243645   5.505   0.857   0.679 -1.0423  2.4224  0.1527
13735SOL     OW43646   7.845   1.334   4.584  0.1986  0.0245  0.1545
13735SOL    HW143647   7.883   1.367   4.502  2.5717  0.5586  1.3575
13735SOL    HW243648   7.796   1.408   4.620  0.8280  0.4479  0.1578
13736SOL     OW43649   6.521   9.098   5.265  0.0900  0.0922 -0.5464
13736SOL    HW143650   6.611   9.119   5.290 -0.6199  0.1966  2.3962
13736SOL    HW243651   6.501   9.017   5.312 -1.9325  1.1588  0.6021
13737SOL     OW43652   7.760   4.652   1.811  0.0442  0.5105  0.4306
13737SOL    HW143653   7.724   4.738   1.787 -1.3648 -0.4902 -1.2423
13737SOL    HW243654   7.784   4.611   1.728  1.5704 -0.3906  1.2679
13738SOL     OW43655   2.550   4.034   7.177 -0.3991 -0.4682  0.0790
13738SOL    HW143656   2.497   3.985   7.241 -1.4666  1.8134  1.0496
13738SOL    HW243657   2.639   4.027   7.210 -0.3452 -2.5617 -0.3737
13739SOL     OW43658   5.500   4.208   1.949 -0.1418  0.3298 -0.6976
13739SOL    HW143659   5.581   4.201   1.998 -0.7171 -0.9118  0.1271
13739SOL    HW243660   5.443   4.262   2.005 -1.2860 -2.2249  0.8020
13740SOL     OW43661   0.203   4.932   5.951  0.3888  0.2185 -0.2379
13740SOL    HW143662   0.140   4.979   6.006 -0.6746 -1.5218  0.1267
13740SOL    HW243663   0.287   4.949   5.993 -0.2846 -0.3156  1.4415
13741SOL     OW43664   3.606   7.480   2.551  0.5041  0.4479  0.1223
13741SOL    HW143665   3.516   7.511   2.557 -0.0389 -1.2333  1.2139
13741SOL    HW243666   3.602   7.389   2.578  2.3322 -0.0508 -1.1160
13742SOL     OW43667   0.459   4.272   7.008  1.1239  0.3265  0.1511
13742SOL    HW143668   0.525   4.318   6.955  0.3195  2.7270  1.1364
13742SOL    HW243669   0.377   4.283   6.959  0.7780  0.6503  0.7958
13743SOL     OW43670   3.695   5.872   7.647  0.0123 -0.0278  0.2911
13743SOL    HW143671   3.777   5.914   7.621 -0.4718 -0.0211 -1.3821
13743SOL    HW243672   3.627   5.923   7.603 -1.0406  0.7027  2.6042
13744SOL     OW43673   1.771   2.532   9.546  0.0270  0.4423  0.1402
13744SOL    HW143674   1.859   2.510   9.515  0.1226 -0.4842  1.0023
13744SOL    HW243675   1.724   2.448   9.546 -1.9063  1.3332 -3.3259
13745SOL     OW43676   4.704   7.874   7.636  1.1679  0.2890 -0.0841
13745SOL    HW143677   4.686   7.794   7.686  1.0378  0.4063  0.0599
13745SOL    HW243678   4.755   7.844   7.561  1.3710  0.1101  0.1215
13746SOL     OW43679   0.318   2.444   2.822  0.1843 -0.0984 -0.4516
13746SOL    HW143680   0.400   2.395   2.828 -0.1650 -0.7677 -0.9880
13746SOL    HW243681   0.344   2.532   2.795  0.7082 -0.3674 -0.8309
13747SOL     OW43682   3.130   3.833   7.442 -0.7023  0.2416 -0.1844
13747SOL    HW143683   3.065   3.899   7.415 -1.2607  0.0699  0.6855
13747SOL    HW243684   3.119   3.827   7.537 -0.9237 -1.3696 -0.2834
13748SOL     OW43685   0.923   0.673   3.817 -0.1690 -0.4286  0.0026
13748SOL    HW143686   0.938   0.679   3.723  0.3302  1.4615  0.1553
13748SOL    HW243687   1.009   0.689   3.856  0.0677 -3.1925  0.8134
13749SOL     OW43688   4.614   2.188   8.438  0.1218 -0.0424 -0.2100
13749SOL    HW143689   4.686   2.126   8.452  0.6669  0.0829 -2.1371
13749SOL    HW243690   4.537   2.133   8.424 -0.5648 -0.1754  3.2910
13750SOL     OW43691   2.749   7.376   6.548 -0.2652 -0.0262 -0.6427
13750SOL    HW143692   2.693   7.300   6.529  0.8173 -1.0319 -0.0062
13750SOL    HW243693   2.733   7.394   6.641  0.6345 -0.4913 -0.3861
13751SOL     OW43694   9.469   0.563   4.732  0.6475 -0.5787 -0.1609
13751SOL    HW143695   9.506   0.618   4.801  1.3288 -0.5618 -0.5313
13751SOL    HW243696   9.415   0.499   4.779 -0.4971  0.6325  0.2560
13752SOL     OW43697   3.886   5.138   4.901 -0.3670  0.2476  0.4209
13752SOL    HW143698   3.945   5.176   4.966 -0.6195  0.8991  0.2689
13752SOL    HW243699   3.892   5.043   4.916 -1.7416  0.4271  2.5859
13753SOL     OW43700   6.199  10.352   6.540  0.5268  0.6260  0.6120
13753SOL    HW143701   6.245  10.436   6.542  0.1204  0.8796 -0.2042
13753SOL    HW243702   6.231  10.310   6.460 -0.1060  0.4893  0.4282
13754SOL     OW43703   7.922   5.483   0.042  0.3425  0.4884 -0.3186
13754SOL    HW143704   7.972   5.402   0.055 -1.0799 -0.4559 -0.4841
13754SOL    HW243705   7.898   5.482  -0.050  0.1453  0.9859 -0.2724
13755SOL     OW43706   0.867   5.139   7.917  0.9463  0.3213 -0.0755
13755SOL    HW143707   0.910   5.090   7.987 -0.5148  0.0932  0.7021
13755SOL    HW243708   0.804   5.078   7.880 -1.3875  1.7231  1.3535
13756SOL     OW43709   1.962   2.436   3.237 -0.6658 -0.0841  0.1626
13756SOL    HW143710   1.996   2.446   3.148 -1.3655 -1.6898 -0.3339
13756SOL    HW243711   1.983   2.519   3.280  1.2506  0.0736 -0.9496
13757SOL     OW43712   2.019   6.185   4.568 -0.4171 -0.1273  0.0109
13757SOL    HW143713   2.032   6.231   4.485  0.9340  0.3984  0.4915
13757SOL    HW243714   1.937   6.221   4.603  0.0006  1.0656 -0.1885
13758SOL     OW43715   4.740   4.586   7.568  0.1375 -0.0937  0.5879
13758SOL    HW143716   4.664   4.602   7.511  0.1735 -1.7652 -0.0077
13758SOL    HW243717   4.806   4.549   7.509  1.1754  0.6778  1.2393
13759SOL     OW43718   4.478   4.175   6.404  0.5925 -0.5764 -0.0572
13759SOL    HW143719   4.536   4.223   6.463  0.3862  0.0325 -0.3386
13759SOL    HW243720   4.393   4.175   6.448  0.1524  0.8872 -0.8610
13760SOL     OW43721   9.886   6.248   5.008 -0.1863  0.3576  0.0949
13760SOL    HW143722   9.904   6.342   5.002  1.5784  0.0260 -0.4401
13760SOL    HW243723   9.961   6.213   5.056  0.5939 -1.1279 -2.0649
13761SOL     OW43724   6.551   7.308   1.524  0.3534 -0.1266  0.3954
13761SOL    HW143725   6.519   7.386   1.479 -1.5101 -0.4729  1.0200
13761SOL    HW243726   6.543   7.238   1.459 -2.1084 -0.5805  1.0798
13762SOL     OW43727   3.201  10.291   9.790 -0.0844  0.6096 -0.2118
13762SOL    HW143728   3.207  10.212   9.842 -1.9114 -0.0339 -0.8992
13762SOL    HW243729   3.175  10.360   9.852  2.6897  1.0400  0.6316
13763SOL     OW43730   3.260   9.986   3.239  0.3982 -0.2875  0.6783
13763SOL    HW143731   3.248   9.903   3.194 -1.5770 -0.9316  2.2100
13763SOL    HW243732   3.270  10.051   3.169  1.5177 -1.7173 -0.5478
13764SOL     OW43733   5.141   5.499   8.962  0.1637  0.5309  0.2385
13764SOL    HW143734   5.179   5.581   8.994  0.6750  1.3329 -2.1441
13764SOL    HW243735   5.051   5.521   8.940  0.4189  0.6199 -0.8003
13765SOL     OW43736   9.336   1.860   8.615 -0.1220 -0.3785  0.8201
13765SOL    HW143737   9.334   1.827   8.525  2.0302 -1.5262  1.1461
13765SOL    HW243738   9.255   1.828   8.654 -0.5380 -0.8463 -0.3753
13766SOL     OW43739   7.293   1.191   5.004 -0.1865 -0.1903 -0.3894
13766SOL    HW143740   7.385   1.166   4.998  0.7057  1.3417  3.6250
13766SOL    HW243741   7.247   1.109   5.025  0.4935 -0.7162 -0.9242
13767SOL     OW43742   9.180   2.613   3.912  0.4477 -0.0239  0.1104
13767SOL    HW143743   9.205   2.521   3.921  0.5803  0.1100  1.3913
13767SOL    HW243744   9.198   2.634   3.820  0.1525 -1.3412 -0.2700
13768SOL     OW43745   7.819   0.993   6.040 -0.4415  0.0361  0.8504
13768SOL    HW143746   7.826   0.984   6.135 -0.7779  0.0394  0.8792
13768SOL    HW243747   7.732   1.031   6.027 -0.3750  0.0824  0.5436
13769SOL     OW43748   3.006   7.846   1.867  0.2024 -0.0600  0.1204
13769SOL    HW143749   2.961   7.801   1.938 -0.7196 -0.1736 -0.5197
13769SOL    HW243750   3.002   7.938   1.890 -0.1209 -0.0935  0.1931
13770SOL     OW43751   4.603   2.985   3.647  0.0991  0.4221 -0.5189
13770SOL    HW143752   4.537   3.048   3.618 -0.1741  0.9077  1.0984
13770SOL    HW243753   4.640   2.951   3.565 -3.1372 -0.9771 -1.5871
13771SOL     OW43754   0.760   8.186   0.437 -0.3360 -0.0008 -0.1167
13771SOL    HW143755   0.734   8.229   0.356 -2.9809  0.1908  0.7247
13771SOL    HW243756   0.687   8.202   0.497  1.3020 -0.5380  2.1660
13772SOL     OW43757   3.347   5.325   4.071 -0.1153  0.2064  0.0182
13772SOL    HW143758   3.280   5.296   4.134 -0.6398 -0.2794 -0.7425
13772SOL    HW243759   3.430   5.299   4.111 -0.5034 -1.2167 -0.0237
13773SOL     OW43760   5.136   0.432   8.042 -0.1243  0.3394  0.2534
13773SOL    HW143761   5.191   0.386   8.105  1.2089  0.8376 -0.5113
13773SOL    HW243762   5.119   0.369   7.972  0.2283  0.4591  0.0582
13774SOL     OW43763  10.233   7.048   9.700 -0.2847  0.1858  0.2664
13774SOL    HW143764  10.167   7.012   9.758  0.9668  0.4608  1.9327
13774SOL    HW243765  10.233   6.989   9.624  0.5319 -2.3828  2.1364
13775SOL     OW43766   1.341   1.071   6.886 -0.1707 -0.4049  0.0256
13775SOL    HW143767   1.415   1.118   6.924  0.2334 -2.3485  1.8056
13775SOL    HW243768   1.365   1.059   6.794  1.2356 -0.0770  0.3291
13776SOL     OW43769   5.171   2.430   9.702 -0.3915  0.3030  0.7249
13776SOL    HW143770   5.232   2.424   9.775 -0.8139  0.3471  1.0905
13776SOL    HW243771   5.130   2.516   9.712 -0.5217  0.2686  0.4941
13777SOL     OW43772   0.577   0.138   8.941 -0.0788  0.0018  0.2366
13777SOL    HW143773   0.583   0.184   9.024  1.7787  0.8967 -0.3278
13777SOL    HW243774   0.485   0.147   8.915 -0.5609  0.1992  1.8859
13778SOL     OW43775   6.212   1.296   1.181  0.1130 -0.3054  0.2137
13778SOL    HW143776   6.271   1.313   1.254  0.2052 -1.1723  0.3522
13778SOL    HW243777   6.239   1.358   1.113  1.6140 -1.1027  0.0431
13779SOL     OW43778   9.104   1.923   7.404  0.1165  0.3052 -0.5146
13779SOL    HW143779   9.168   1.855   7.381  0.3825  0.7950 -1.2484
13779SOL    HW243780   9.156   1.994   7.441 -0.1750  0.0810  0.3476
13780SOL     OW43781   8.204   7.622  10.283  0.1990  0.1776 -0.3236
13780SOL    HW143782   8.188   7.668  10.201  1.9270 -0.9048 -1.3585
13780SOL    HW243783   8.234   7.535  10.255  0.9078 -0.1877  1.4413
13781SOL     OW43784   3.158   4.375   2.960  0.3827  0.0623 -0.3869
13781SOL    HW143785   3.212   4.385   3.038 -0.0598  0.8562 -0.1754
13781SOL    HW243786   3.209   4.318   2.903  1.3807  0.6680 -0.1248
13782SOL     OW43787   6.349   4.977   0.366 -0.5931  0.2865 -0.0006
13782SOL    HW143788   6.374   5.025   0.445  0.9196  0.4945 -0.5712
13782SOL    HW243789   6.328   5.045   0.302  0.7532  0.2163 -0.5577
13783SOL     OW43790   7.094   6.486   8.382  0.0266 -0.1719 -0.6559
13783SOL    HW143791   7.044   6.413   8.345 -1.3468  1.0958 -1.4077
13783SOL    HW243792   7.030   6.535   8.433  1.4894 -0.8566  2.0262
13784SOL     OW43793   4.825   1.213   1.164 -0.0899  0.2490  0.2184
13784SOL    HW143794   4.733   1.213   1.139  0.4696 -0.0020 -2.0188
13784SOL    HW243795   4.845   1.121   1.182 -0.0237  0.1517 -0.3430
13785SOL     OW43796   6.329   9.183   8.616 -0.2556  0.2546 -0.0207
13785SOL    HW143797   6.358   9.274   8.602 -0.4443  0.2446 -0.4736
13785SOL    HW243798   6.261   9.190   8.683 -1.4093  0.6410 -1.2050
13786SOL     OW43799   6.610   5.220   5.041  0.1655  0.1803 -0.0384
13786SOL    HW143800   6.641   5.130   5.050 -1.2668 -0.3613 -0.1784
13786SOL    HW243801   6.525   5.212   4.996 -1.2075  1.3616  2.1250
13787SOL     OW43802   1.292   7.728   3.936  0.3047  0.1762 -0.2641
13787SOL    HW143803   1.384   7.703   3.947  0.1896 -0.6718 -1.1225
13787SOL    HW243804   1.244   7.646   3.934 -0.2861  0.5236 -1.3853
13788SOL     OW43805   6.734   3.380   1.231 -0.1038 -0.2826 -0.2974
13788SOL    HW143806   6.684   3.356   1.309  1.9466 -0.3177  1.0567
13788SOL    HW243807   6.781   3.459   1.256  1.1550 -0.7085 -1.2464
13789SOL     OW43808   5.894   5.804   6.745  0.4422 -0.0337  0.0404
13789SOL    HW143809   5.811   5.791   6.699 -0.2627 -0.8527  1.4570
13789SOL    HW243810   5.945   5.725   6.725  0.8276  0.3962 -0.7006
13790SOL     OW43811  10.021   0.702   3.718  0.3877 -0.1047  0.2937
13790SOL    HW143812   9.958   0.668   3.782 -1.6241  3.0095  0.2012
13790SOL    HW243813  10.044   0.626   3.665 -1.9583 -1.7862  1.4767
13791SOL     OW43814   7.645   3.421   0.109 -0.3875 -0.1648 -0.2751
13791SOL    HW143815   7.698   3.353   0.068 -0.8666 -1.2712  0.8422
13791SOL    HW243816   7.571   3.374   0.148 -0.7575  1.0004  0.5126
13792SOL     OW43817   1.905   9.324   8.536  0.2241  0.5583 -0.1551
13792SOL    HW143818   1.913   9.351   8.444  0.0799  0.1978 -0.2762
13792SOL    HW243819   1.879   9.404   8.582  0.7423  0.8483 -0.3552
13793SOL     OW43820   7.597   5.109   8.088 -0.1299  0.4225 -0.0281
13793SOL    HW143821   7.690   5.131   8.095 -0.1050  1.2746 -2.1154
13793SOL    HW243822   7.552   5.175   8.142  0.3476  1.7905 -1.2373
13794SOL     OW43823   6.120   8.767   1.457 -0.4949 -0.1213  0.1612
13794SOL    HW143824   6.174   8.792   1.532  1.2970  0.5143 -1.2548
13794SOL    HW243825   6.136   8.674   1.445  1.3412  0.2782 -0.9556
13795SOL     OW43826   7.011   1.596   1.161  0.1791  0.4282  0.7913
13795SOL    HW143827   7.074   1.634   1.222 -0.4166  0.1391  1.6079
13795SOL    HW243828   6.965   1.530   1.213 -0.3718  0.2037  0.0340
13796SOL     OW43829   9.561   1.426  10.428  0.0796  0.0173  0.1913
13796SOL    HW143830   9.590   1.360  10.490 -0.4780 -0.6449 -0.2429
13796SOL    HW243831   9.549   1.378  10.346  1.7628  1.0397 -0.7104
13797SOL     OW43832   0.862   2.082   6.343  0.4643 -0.3494  0.6858
13797SOL    HW143833   0.923   2.149   6.314  2.7850 -1.9945  1.4560
13797SOL    HW243834   0.783   2.097   6.291  1.5624  1.7566 -0.5124
13798SOL     OW43835   4.890   1.197   9.841  0.3238 -0.0015  0.3376
13798SOL    HW143836   4.839   1.128   9.884  0.5296  1.2077  2.6648
13798SOL    HW243837   4.824   1.260   9.811  0.2813  0.0165  0.4702
13799SOL     OW43838   5.950   4.187   9.248  0.4782 -0.4023  0.3220
13799SOL    HW143839   5.992   4.209   9.332  2.8774  1.7724 -1.2870
13799SOL    HW243840   5.891   4.261   9.231  1.3015  0.0538 -0.6557
13800SOL     OW43841   9.194   5.835   0.997  0.0475 -0.2619 -0.0170
13800SOL    HW143842   9.192   5.912   1.054  0.0007 -0.0841 -0.2540
13800SOL    HW243843   9.249   5.772   1.043 -1.8858 -1.0284  1.3654
13801SOL     OW43844   8.530   3.030   6.332  0.1827 -0.6046  0.6021
13801SOL    HW143845   8.553   3.116   6.296 -1.2226 -0.2708  0.4476
13801SOL    HW243846   8.554   2.968   6.263  1.3111 -0.3573  0.7598
13802SOL     OW43847   2.566   9.248   2.813  0.3839 -0.3045  0.1210
13802SOL    HW143848   2.618   9.203   2.879  0.4671  1.0811  1.0355
13802SOL    HW243849   2.478   9.253   2.850 -0.0938 -1.3718 -0.8074
13803SOL     OW43850   6.909   3.497   7.325 -0.4490  0.2114  0.0267
13803SOL    HW143851   6.938   3.428   7.265  2.1290  0.2727  1.0646
13803SOL    HW243852   6.843   3.545   7.276 -1.3941 -2.1678 -1.2123
13804SOL     OW43853   1.545   2.744   2.764 -0.1785  0.1863 -0.0460
13804SOL    HW143854   1.550   2.663   2.715  0.6298  0.4892 -0.4874
13804SOL    HW243855   1.539   2.717   2.856 -1.7913 -0.3792 -0.2948
13805SOL     OW43856   9.452   5.267   1.845 -0.4867 -0.1840  0.6050
13805SOL    HW143857   9.542   5.294   1.863 -0.7192  1.0046  0.0675
13805SOL    HW243858   9.410   5.261   1.931  0.1036 -0.7411  0.8545
13806SOL     OW43859   0.108   1.950   2.743  0.2270  0.5774 -0.4357
13806SOL    HW143860   0.072   1.888   2.679  0.5138  0.4948 -0.5193
13806SOL    HW243861   0.185   1.905   2.778  0.8868  1.1986 -1.0485
13807SOL     OW43862   6.446   8.577   1.708  0.2183  0.3463 -0.4555
13807SOL    HW143863   6.379   8.543   1.767 -0.4552  1.7648 -0.3383
13807SOL    HW243864   6.466   8.505   1.649 -1.2880 -0.1819 -0.3625
13808SOL     OW43865   8.013   4.204   5.865 -0.0266 -0.2633 -0.2722
13808SOL    HW143866   8.086   4.164   5.816  0.5949  0.6747 -0.1394
13808SOL    HW243867   8.055   4.266   5.925 -0.9954  1.4243 -1.2429
13809SOL     OW43868   2.344   3.150   9.322 -1.0109  0.0167  0.0499
13809SOL    HW143869   2.325   3.231   9.275 -0.4185  1.2414  1.7863
13809SOL    HW243870   2.437   3.134   9.306 -1.0568 -0.1562 -0.0464
13810SOL     OW43871   0.475   3.111   9.974 -0.0062  0.2064 -0.2340
13810SOL    HW143872   0.454   3.185   9.918  0.9581 -0.1822 -1.1239
13810SOL    HW243873   0.416   3.121  10.049  0.9185  2.5280  0.2585
13811SOL     OW43874   5.732   2.646   4.407  0.4733  0.7009  0.0532
13811SOL    HW143875   5.812   2.697   4.421  0.7081  0.2830  0.2503
13811SOL    HW243876   5.666   2.688   4.463  1.0794 -0.1909  1.4962
13812SOL     OW43877   7.922   2.977   0.779 -0.1279 -0.6535 -0.0798
13812SOL    HW143878   7.921   2.882   0.768 -1.6764 -0.8592  1.4006
13812SOL    HW243879   7.839   2.997   0.822  1.3638  1.0274  2.2214
13813SOL     OW43880   1.696   9.525   0.850  0.9253 -0.1013 -0.3281
13813SOL    HW143881   1.752   9.528   0.927 -1.6625 -1.1854  1.7515
13813SOL    HW243882   1.645   9.445   0.860 -0.6464  0.5529 -2.3321
13814SOL     OW43883   9.441   2.861   1.402  0.0597  0.3968 -0.4645
13814SOL    HW143884   9.381   2.905   1.343 -0.3935  0.4439  0.0282
13814SOL    HW243885   9.402   2.775   1.417 -0.9049  1.0967  1.3610
13815SOL     OW43886   5.668   0.564   8.938 -0.7361 -0.3185 -0.2965
13815SOL    HW143887   5.637   0.647   8.974  0.1884  0.1166 -0.4786
13815SOL    HW243888   5.613   0.550   8.861 -0.4913  0.4481 -0.6248
13816SOL     OW43889   6.393   0.716   7.416 -0.6503 -0.4410 -0.1721
13816SOL    HW143890   6.365   0.766   7.339 -0.8004 -1.2719 -0.6666
13816SOL    HW243891   6.428   0.782   7.476 -2.1552  0.4376 -0.2092
13817SOL     OW43892   7.189   7.366   4.688  0.1829  0.3463 -0.1386
13817SOL    HW143893   7.097   7.340   4.681  0.2148  0.5532 -2.0041
13817SOL    HW243894   7.237   7.291   4.653  0.7343  0.2960  0.6987
13818SOL     OW43895  10.064  10.209   4.799 -0.0457 -0.5648 -0.2750
13818SOL    HW143896  10.068  10.184   4.707 -0.1553 -0.5179 -0.2926
13818SOL    HW243897  10.086  10.129   4.847  1.6928 -0.1755 -0.3785
13819SOL     OW43898   7.287   9.325   4.500  0.2230 -0.3271  0.2202
13819SOL    HW143899   7.230   9.335   4.576  0.2134 -0.4762  0.2336
13819SOL    HW243900   7.375   9.312   4.537  0.4646  1.0920  0.1817
13820SOL     OW43901   8.387   5.000   8.953 -0.4418  0.2595  0.0768
13820SOL    HW143902   8.409   5.056   8.879 -2.5090  1.5696  0.3757
13820SOL    HW243903   8.373   5.060   9.026  0.0077 -0.8854  1.1425
13821SOL     OW43904   2.726   8.381   0.284 -0.0202 -0.3965  0.1334
13821SOL    HW143905   2.758   8.314   0.346 -0.3970  0.5676  1.4186
13821SOL    HW243906   2.805   8.428   0.257  0.2372 -1.2806 -0.7135
13822SOL     OW43907   8.580   1.392   6.009  0.4832  0.1491  0.1287
13822SOL    HW143908   8.589   1.338   6.088  0.0931 -1.3581 -0.8229
13822SOL    HW243909   8.627   1.473   6.030 -1.4841  0.7678  2.7426
13823SOL     OW43910   9.349   7.031   8.852 -0.2424  0.1647 -0.0130
13823SOL    HW143911   9.432   7.076   8.836 -0.6421  0.8389 -0.2323
13823SOL    HW243912   9.373   6.939   8.859  0.5825  0.3976  0.3576
13824SOL     OW43913   8.741   4.681   2.604 -0.4194  0.0958 -0.4385
13824SOL    HW143914   8.728   4.611   2.668  1.2937 -1.3974 -1.6359
13824SOL    HW243915   8.692   4.654   2.527 -0.6797  0.7964 -0.5263
13825SOL     OW43916   7.111   8.215   0.718 -0.0338  0.1301  0.4249
13825SOL    HW143917   7.202   8.224   0.689 -0.6801  1.9384 -1.2537
13825SOL    HW243918   7.097   8.121   0.722  0.8404 -0.3084 -3.0982
13826SOL     OW43919   7.250   5.048   4.327  0.4884 -0.5995 -0.0852
13826SOL    HW143920   7.277   5.110   4.259  2.6134 -1.0528  0.2840
13826SOL    HW243921   7.260   5.096   4.409 -0.5860 -0.5499  0.0270
13827SOL     OW43922   3.799   4.372   6.025  0.2201  0.0102 -0.4158
13827SOL    HW143923   3.770   4.342   5.939  1.2645 -1.9461 -0.1618
13827SOL    HW243924   3.719   4.379   6.077 -0.2324 -0.9660 -0.9537
13828SOL     OW43925   9.815   0.095   3.270  0.2872  0.2704  0.3918
13828SOL    HW143926   9.780   0.077   3.183  0.3116  0.5228  0.3272
13828SOL    HW243927   9.786   0.022   3.324 -1.6271  1.1882  0.7107
13829SOL     OW43928   9.901   7.283   7.359 -0.0544  0.1667 -0.0848
13829SOL    HW143929   9.946   7.366   7.374 -1.3426  0.6608  1.3190
13829SOL    HW243930   9.819   7.306   7.316 -0.6890 -0.2698  0.8319
13830SOL     OW43931   1.775   9.227   5.806 -0.4186 -0.2303  0.4011
13830SOL    HW143932   1.775   9.257   5.897 -0.6803  3.1736 -0.5518
13830SOL    HW243933   1.714   9.153   5.805 -0.2167 -0.5310  3.0043
13831SOL     OW43934   8.335   9.510   6.942  0.1895  0.2757  0.8664
13831SOL    HW143935   8.359   9.579   6.881 -0.2997  0.7242  1.1693
13831SOL    HW243936   8.240   9.520   6.953  0.0125 -0.8334  0.4453
13832SOL     OW43937   3.847   0.852   5.274  0.1698 -0.5079 -0.7961
13832SOL    HW143938   3.927   0.842   5.326 -0.1406 -1.7934 -0.5264
13832SOL    HW243939   3.789   0.782   5.305 -1.9106  1.6298  0.5317
13833SOL     OW43940   2.369   5.078   2.694  0.4383  0.5387 -0.0227
13833SOL    HW143941   2.300   5.131   2.654 -0.1644  1.3281  1.9120
13833SOL    HW243942   2.439   5.140   2.712  1.8353 -0.3158 -2.2324
13834SOL     OW43943   6.715   3.366  10.490 -0.0151 -0.5092 -0.2847
13834SOL    HW143944   6.798   3.398  10.525 -0.3628  1.2613 -0.9263
13834SOL    HW243945   6.700   3.283  10.535  0.4413  0.7331  2.3738
13835SOL     OW43946   5.287  10.314   6.348 -0.0888 -0.2579  0.1377
13835SOL    HW143947   5.245  10.283   6.429 -0.1285  0.8469  0.5603
13835SOL    HW243948   5.250  10.401   6.334 -0.6907 -0.7419 -1.5302
13836SOL     OW43949   9.851   9.054   9.974 -0.2734  0.2115  0.0718
13836SOL    HW143950   9.807   8.969   9.968 -0.5783  0.3791 -0.0983
13836SOL    HW243951   9.875   9.076   9.884  2.4184 -1.0312  0.3871
13837SOL     OW43952   8.587   7.280   6.620  0.4294 -0.6487 -0.1579
13837SOL    HW143953   8.660   7.332   6.655 -0.5826  0.1121  0.9033
13837SOL    HW243954   8.616   7.255   6.532  2.2150 -0.8896  0.4516
13838SOL     OW43955   1.350   4.599   1.382  0.4593 -0.1529  0.1776
13838SOL    HW143956   1.266   4.610   1.337  0.0373 -0.9544  0.7454
13838SOL    HW243957   1.382   4.689   1.395 -1.0820  0.2724  1.3743
13839SOL     OW43958   5.843   9.045   2.893  0.6668 -0.3499 -0.2374
13839SOL    HW143959   5.860   9.036   2.799  1.9655  0.6170 -0.1303
13839SOL    HW243960   5.904   8.982   2.934  1.7225  0.8064  0.0257
13840SOL     OW43961   5.648   8.569   2.715  0.2853 -0.4300 -0.7817
13840SOL    HW143962   5.692   8.650   2.688 -0.0063 -0.0769 -0.2253
13840SOL    HW243963   5.702   8.534   2.785 -0.2997  0.0083 -0.0913
13841SOL     OW43964  10.375   2.259   5.438 -0.2428 -0.2634  0.1938
13841SOL    HW143965  10.458   2.249   5.485 -1.0518 -0.2180  1.6825
13841SOL    HW243966  10.314   2.291   5.504 -1.2200  0.6437 -1.1107
13842SOL     OW43967   7.670   1.644   6.360  0.1221  0.2659  0.6324
13842SOL    HW143968   7.729   1.620   6.431 -1.8766 -1.1031  1.9755
13842SOL    HW243969   7.585   1.654   6.402 -1.1246 -0.4139 -1.5134
13843SOL     OW43970   8.300   7.608   9.285 -0.0256 -0.9524 -0.5479
13843SOL    HW143971   8.364   7.603   9.214  0.8507 -1.9302  0.2763
13843SOL    HW243972   8.353   7.608   9.365 -0.9243  1.2843  0.1271
13844SOL     OW43973   1.629   2.441   5.633  0.1208  0.2437  0.0030
13844SOL    HW143974   1.627   2.381   5.708  2.4767 -0.4387 -0.4048
13844SOL    HW243975   1.656   2.525   5.671  0.2901  0.1593  0.0720
13845SOL     OW43976   9.620   8.765   0.671  0.0726 -0.1802  0.1245
13845SOL    HW143977   9.527   8.780   0.691  0.0652  1.1799 -0.8697
13845SOL    HW243978   9.625   8.671   0.654 -1.0071 -0.3753  0.7529
13846SOL     OW43979   2.160   9.184   5.902 -0.9040  0.0025 -0.5560
13846SOL    HW143980   2.152   9.264   5.850 -0.0332  0.9647  0.7412
13846SOL    HW243981   2.250   9.156   5.890 -1.0002 -0.3709 -0.4150
13847SOL     OW43982   3.714   7.559   7.078 -0.2388  0.5412  0.0782
13847SOL    HW143983   3.698   7.478   7.125  0.4517  0.7277  0.6450
13847SOL    HW243984   3.805   7.553   7.050 -0.9549 -0.1235 -2.3426
13848SOL     OW43985   4.645   1.861  10.349  0.3553 -0.8608  0.3012
13848SOL    HW143986   4.687   1.850  10.434 -1.4598  0.6304  1.4701
13848SOL    HW243987   4.717   1.880  10.289  1.6532 -1.7233  1.5212
13849SOL     OW43988   9.344   0.632   9.082  0.0087 -0.0293 -0.1874
13849SOL    HW143989   9.427   0.586   9.098  1.0942  2.4461  2.0092
13849SOL    HW243990   9.313   0.657   9.169 -2.2904  0.4469 -1.0713
13850SOL     OW43991  10.465   3.134   2.620 -0.5692 -0.0936  0.6690
13850SOL    HW143992  10.479   3.048   2.659  1.8724 -0.4252 -0.7357
13850SOL    HW243993  10.531   3.191   2.660  0.4543  0.1043 -1.1573
13851SOL     OW43994   9.620   3.399   5.936 -0.1360  0.0809 -0.3419
13851SOL    HW143995   9.590   3.489   5.952  0.5054  0.1536  0.5072
13851SOL    HW243996   9.686   3.408   5.867 -0.4717  0.1813 -0.6599
13852SOL     OW43997   9.386   3.568   6.180 -0.4396 -0.1520 -0.8516
13852SOL    HW143998   9.445   3.494   6.195  0.5535  0.8601  0.4899
13852SOL    HW243999   9.390   3.619   6.261 -1.1883  1.3124 -1.6902
13853SOL     OW44000   6.736   8.279   5.399 -0.3229 -0.3846 -1.0602
13853SOL    HW144001   6.778   8.350   5.350  1.8622 -0.0319  1.1554
13853SOL    HW244002   6.683   8.324   5.465  1.5429 -0.7340  0.7405
13854SOL     OW44003   6.030   7.823   5.415  0.1420  0.3682  0.4693
13854SOL    HW144004   5.994   7.893   5.360  0.4966  0.5229  0.4303
13854SOL    HW244005   6.034   7.747   5.358 -0.2643  0.3048  0.5172
13855SOL     OW44006   8.821   2.590   5.906 -0.3794 -0.3319  0.0837
13855SOL    HW144007   8.783   2.675   5.929 -0.6961 -0.6052  0.6095
13855SOL    HW244008   8.913   2.596   5.934 -0.6410 -0.4905  1.0243
13856SOL     OW44009   1.938   0.720   6.395  0.3495  0.3936  0.1936
13856SOL    HW144010   2.012   0.720   6.456  0.4880  1.8563  0.0510
13856SOL    HW244011   1.863   0.694   6.448  0.9754 -1.3762  0.2827
13857SOL     OW44012   9.253   1.714   4.878 -0.5288 -0.2868 -0.2030
13857SOL    HW144013   9.290   1.800   4.900  0.2002 -0.8774  0.9937
13857SOL    HW244014   9.167   1.734   4.841 -0.2906  0.9637 -0.1420
13858SOL     OW44015   3.010  10.343   5.148  0.3906 -0.4016  0.1624
13858SOL    HW144016   2.978  10.297   5.225 -0.8434 -0.1936 -0.2046
13858SOL    HW244017   2.976  10.432   5.157 -1.1522 -0.7718 -1.3795
13859SOL     OW44018   8.858   4.293   6.487  0.0338 -0.1877 -0.3129
13859SOL    HW144019   8.766   4.317   6.474 -0.0724 -0.8381 -0.8428
13859SOL    HW244020   8.890   4.273   6.399  0.4132 -0.8785 -0.0234
13860SOL     OW44021   5.174   4.182  10.273 -0.6070 -0.3719  0.2549
13860SOL    HW144022   5.119   4.260  10.287  2.5917  1.7643  2.3288
13860SOL    HW244023   5.185   4.144  10.360  1.9411 -0.0493  0.1528
13861SOL     OW44024   8.993  10.328   6.643 -0.1704 -0.2347  0.0358
13861SOL    HW144025   8.917  10.387   6.647 -0.5835 -0.7867  0.5501
13861SOL    HW244026   8.989  10.279   6.725  0.9643 -0.0098  0.2377
13862SOL     OW44027   6.468  10.390   6.332  0.2942 -0.0656  0.2008
13862SOL    HW144028   6.501  10.478   6.312  1.8981 -0.5627  0.5224
13862SOL    HW244029   6.546  10.341   6.360 -0.5440 -1.6194 -0.0832
13863SOL     OW44030   2.590  10.472   1.844 -0.2543 -0.1379  0.0468
13863SOL    HW144031   2.590  10.436   1.933 -0.6795 -4.5608 -1.4742
13863SOL    HW244032   2.515  10.531   1.842 -1.0465 -0.9635  2.2652
13864SOL     OW44033   5.449   0.283   9.774  0.3127 -0.0595 -0.2454
13864SOL    HW144034   5.407   0.198   9.787  0.0033 -0.0072 -0.8794
13864SOL    HW244035   5.378   0.347   9.783  0.3046  0.0480 -0.9834
13865SOL     OW44036   6.208   4.005  10.477 -0.0209  0.4491  0.1090
13865SOL    HW144037   6.267   4.048  10.414  1.5376  0.0864  1.2576
13865SOL    HW244038   6.195   3.918  10.441 -0.7829  0.8921 -0.7204
13866SOL     OW44039  10.380   3.332   0.200 -0.6609  0.1172  0.5378
13866SOL    HW144040  10.323   3.255   0.208 -1.6899  0.9529  1.4956
13866SOL    HW244041  10.446   3.321   0.268 -0.4886 -0.1902  0.3190
13867SOL     OW44042   3.412   0.760   4.922 -0.6881  0.3521  0.0155
13867SOL    HW144043   3.353   0.718   4.984  0.8414 -0.0785  1.2431
13867SOL    HW244044   3.486   0.700   4.916  0.8202  2.0689  0.5632
13868SOL     OW44045   1.819  10.368   2.659 -0.1574 -0.0494 -0.1336
13868SOL    HW144046   1.770  10.300   2.612 -0.3456  0.2996 -0.4564
13868SOL    HW244047   1.888  10.321   2.705  0.1683 -0.3892 -0.9381
13869SOL     OW44048   8.371   1.530   5.887 -0.7629 -0.9838  0.3424
13869SOL    HW144049   8.303   1.571   5.942  0.0626  2.7624 -1.1008
13869SOL    HW244050   8.426   1.482   5.949 -1.6952  0.3857  2.3456
13870SOL     OW44051   5.473   3.312   0.587  0.4820 -0.4525 -0.1938
13870SOL    HW144052   5.439   3.235   0.632 -0.0775 -0.0286  0.1233
13870SOL    HW244053   5.568   3.305   0.595  0.4009 -0.2789  1.2459
13871SOL     OW44054   1.363   2.062   7.871  0.2892 -0.0797  0.1431
13871SOL    HW144055   1.323   1.976   7.886  0.8581 -0.1310  1.4622
13871SOL    HW244056   1.308   2.102   7.804 -0.5729 -1.0800  0.2242
13872SOL     OW44057   4.878   2.212   2.839 -0.1475 -0.0158 -0.0178
13872SOL    HW144058   4.931   2.268   2.782 -1.5559  1.6956  0.2502
13872SOL    HW244059   4.941   2.161   2.889  1.1928  0.9726 -0.6472
13873SOL     OW44060   1.833   7.009   7.209  0.0835  0.0989  0.2183
13873SOL    HW144061   1.917   7.029   7.169  0.2365  0.1991  0.5880
13873SOL    HW244062   1.802   6.931   7.162  0.3726  0.0685  0.0767
13874SOL     OW44063   0.808   6.973   2.208 -0.5922 -0.7009  0.0400
13874SOL    HW144064   0.770   7.021   2.282  3.0152  2.4478  0.1373
13874SOL    HW244065   0.897   6.954   2.236  0.5728 -0.3088 -3.0974
13875SOL     OW44066  10.476   0.986   9.428  0.0920  0.4749 -0.1676
13875SOL    HW144067  10.494   0.894   9.447  0.7510  0.0296 -2.6057
13875SOL    HW244068  10.494   1.032   9.510  1.6953 -1.3249  0.5482
13876SOL     OW44069   5.046   3.642   3.313 -0.0768  0.4497 -0.1603
13876SOL    HW144070   5.011   3.664   3.227 -0.8484  1.0799  0.3095
13876SOL    HW244071   5.030   3.719   3.367  1.4677  0.5251  0.2452
13877SOL     OW44072  10.397   8.234   1.258  0.7700 -0.1883  0.4283
13877SOL    HW144073  10.321   8.189   1.294  1.7909 -2.5130 -0.1897
13877SOL    HW244074  10.380   8.240   1.164  0.8694  0.2903  0.4365
13878SOL     OW44075   5.807   9.913   4.458 -0.0628  0.5045 -0.5370
13878SOL    HW144076   5.725   9.867   4.479 -0.6886  1.5683 -0.5805
13878SOL    HW244077   5.865   9.845   4.423 -0.6872 -0.3950  0.1376
13879SOL     OW44078   6.046   8.707   3.757  0.2974 -0.1346  0.8275
13879SOL    HW144079   6.060   8.698   3.663  1.2613 -2.3406  1.1038
13879SOL    HW244080   5.957   8.674   3.771 -0.3326  1.4046  0.5693
13880SOL     OW44081   3.943   8.231   1.455  0.4165  0.0022  0.1893
13880SOL    HW144082   3.924   8.324   1.468  0.8224 -0.1439  2.1729
13880SOL    HW244083   3.889   8.205   1.381  0.8155  1.9635 -0.8644
13881SOL     OW44084   4.378   9.714   1.854 -0.1884 -0.2142  0.9821
13881SOL    HW144085   4.299   9.730   1.906 -0.0515  1.4341  0.7499
13881SOL    HW244086   4.447   9.697   1.919 -0.6331 -1.2649  1.1978
13882SOL     OW44087   9.979   6.947   6.841 -0.4576  0.1281  0.1245
13882SOL    HW144088  10.030   6.961   6.761  2.1057  0.4915  1.7287
13882SOL    HW244089   9.957   7.035   6.872  0.9095  0.1042  1.2191
13883SOL     OW44090   2.124   2.329   4.093 -0.0551  0.0700 -0.4224
13883SOL    HW144091   2.049   2.321   4.151  1.0727  2.6976  1.5937
13883SOL    HW244092   2.095   2.388   4.023 -0.0905  0.5392 -0.0176
13884SOL     OW44093   5.879   8.645   1.287  0.2802 -0.2242 -0.0723
13884SOL    HW144094   5.786   8.664   1.274  0.5825  0.5692 -1.3257
13884SOL    HW244095   5.920   8.671   1.204  2.1559  3.1435  1.6777
13885SOL     OW44096   8.022   1.840   1.888  0.0277 -0.2588  0.3548
13885SOL    HW144097   8.038   1.746   1.882 -0.4083 -0.4187  1.5013
13885SOL    HW244098   8.109   1.880   1.892  0.2581 -0.4818 -1.5215
13886SOL     OW44099   1.054   7.565   4.304  0.0947  0.0997 -0.8281
13886SOL    HW144100   1.046   7.615   4.385  1.6077 -0.8321 -0.0761
13886SOL    HW244101   0.974   7.512   4.300 -0.5899  1.0999 -0.6259
13887SOL     OW44102   4.769   3.038   0.928  0.8989 -0.1161 -0.5831
13887SOL    HW144103   4.863   3.040   0.942  0.9686 -0.5818 -0.9693
13887SOL    HW244104   4.740   2.955   0.965  0.4658  0.5090  0.5284
13888SOL     OW44105   4.978   4.485   8.839 -0.2907  0.2909 -0.1796
13888SOL    HW144106   4.954   4.474   8.747 -0.4527  0.0195 -0.1056
13888SOL    HW244107   4.895   4.502   8.884 -0.4399 -1.1495  0.1545
13889SOL     OW44108   1.806   8.281   4.292 -0.1159  0.2450  0.0669
13889SOL    HW144109   1.725   8.314   4.252  1.2091  1.7960 -1.5208
13889SOL    HW244110   1.820   8.337   4.368 -0.8448 -0.4275  0.7002
13890SOL     OW44111   1.284   4.806   9.647  0.3482 -0.2749 -0.1830
13890SOL    HW144112   1.231   4.874   9.607 -0.7552 -1.4525 -0.8074
13890SOL    HW244113   1.222   4.755   9.700  1.6907  1.1049  3.0148
13891SOL     OW44114   6.871   8.970   7.223 -0.1368 -0.6096  0.3654
13891SOL    HW144115   6.890   9.005   7.310  2.3450  1.0546 -0.7438
13891SOL    HW244116   6.922   8.889   7.219 -1.2617 -1.3759  0.8461
13892SOL     OW44117   9.454   8.011   1.720 -0.0021 -0.1326 -0.1945
13892SOL    HW144118   9.508   7.933   1.706  1.7249  1.0399 -0.2605
13892SOL    HW244119   9.472   8.038   1.809  1.6621  1.8130 -1.0590
13893SOL     OW44120   1.171   7.406   7.751  0.4644 -0.5253  0.8403
13893SOL    HW144121   1.237   7.356   7.702 -0.3262  0.6911 -1.5924
13893SOL    HW244122   1.114   7.339   7.789  0.7143 -1.5235 -0.4759
13894SOL     OW44123   2.414   9.821   3.919 -0.2910  0.2185 -0.0110
13894SOL    HW144124   2.489   9.770   3.950 -0.3261 -1.4528 -2.4052
13894SOL    HW244125   2.434   9.842   3.828 -0.4278  4.4472  0.7288
13895SOL     OW44126   1.627  10.261   0.005  0.1142 -0.3919  0.0089
13895SOL    HW144127   1.590  10.214  -0.070 -0.1473 -0.1343 -0.0241
13895SOL    HW244128   1.709  10.215   0.023 -0.8689 -1.8442  0.9549
13896SOL     OW44129   6.352   5.302   7.267  0.2926  0.1202  0.7021
13896SOL    HW144130   6.290   5.371   7.241 -0.5945 -0.8316  0.2338
13896SOL    HW244131   6.308   5.256   7.338  0.1780 -0.9333 -0.0236
13897SOL     OW44132   0.507   2.664   0.449 -0.0727 -0.4955 -0.2164
13897SOL    HW144133   0.510   2.594   0.513 -2.3121  0.7133  1.3456
13897SOL    HW244134   0.520   2.744   0.500  0.0490  0.3995 -1.5876
13898SOL     OW44135   7.780   4.675   1.059  0.3018  0.6057  0.0001
13898SOL    HW144136   7.807   4.765   1.040  1.2796  0.1306 -0.9749
13898SOL    HW244137   7.762   4.637   0.973  2.6966 -0.9730  0.1159
13899SOL     OW44138   5.725   5.685   3.828  0.1365  0.0162 -0.0218
13899SOL    HW144139   5.699   5.777   3.837  0.6052  0.1359  0.1378
13899SOL    HW244140   5.758   5.678   3.738  0.1660  0.0205 -0.0113
13900SOL     OW44141   5.034   4.368   1.380  0.2669 -0.2289  0.0323
13900SOL    HW144142   4.992   4.362   1.294 -0.6465  2.6958  0.1873
13900SOL    HW244143   4.971   4.329   1.441 -0.6622  0.8753 -0.1993
13901SOL     OW44144   5.341   0.816   9.086 -0.3173  0.2685  0.6054
13901SOL    HW144145   5.310   0.731   9.055 -0.0762  0.5046 -0.3194
13901SOL    HW244146   5.432   0.800   9.113 -0.2599  0.2378  0.3960
13902SOL     OW44147   2.615   8.345   3.216  0.4124 -0.0347  0.3504
13902SOL    HW144148   2.526   8.319   3.195  0.3012 -0.8356  1.6742
13902SOL    HW244149   2.618   8.439   3.198 -0.6014 -0.0567  0.0202
13903SOL     OW44150   9.385   4.161  10.082 -0.3486 -0.4693 -0.5275
13903SOL    HW144151   9.298   4.185  10.049  0.0363 -0.4947 -1.6168
13903SOL    HW244152   9.368   4.117  10.165 -1.3258  0.1685 -0.3717
13904SOL     OW44153   9.908   7.431   2.700 -0.4847 -0.1673  0.4437
13904SOL    HW144154   9.836   7.432   2.764 -0.8317 -1.8947  0.1387
13904SOL    HW244155   9.985   7.405   2.751 -0.6476 -0.9951  0.2815
13905SOL     OW44156   4.410   3.366   3.191 -0.0350  0.2027  0.0035
13905SOL    HW144157   4.415   3.461   3.194  0.0699  0.2161 -0.5550
13905SOL    HW244158   4.319   3.346   3.171  0.4026  0.2590 -2.3341
13906SOL     OW44159   3.674   4.312   7.029  0.1555 -0.3818  0.0090
13906SOL    HW144160   3.712   4.225   7.024 -1.0172 -0.8980 -0.4488
13906SOL    HW244161   3.702   4.355   6.948  2.2263  0.3422  1.0504
13907SOL     OW44162   5.709   4.701   0.476  0.0864  0.1285 -0.1244
13907SOL    HW144163   5.739   4.791   0.487 -0.0997 -0.1266  3.5488
13907SOL    HW244164   5.621   4.709   0.441  1.1921  1.1320 -3.0331
13908SOL     OW44165   4.107   3.949   3.295 -0.1410 -0.6761  0.0876
13908SOL    HW144166   4.175   3.935   3.228 -0.4781 -1.5374 -0.0856
13908SOL    HW244167   4.153   3.942   3.378 -0.1984 -2.4964  0.0078
13909SOL     OW44168   5.931   4.021   9.777  0.1159  0.3599  0.1162
13909SOL    HW144169   5.967   3.933   9.792 -0.3375  0.3600  1.3538
13909SOL    HW244170   5.836   4.009   9.777 -0.0476  0.2265 -3.9804
13910SOL     OW44171   8.583   3.372   9.891 -0.0082  0.4203 -0.2571
13910SOL    HW144172   8.613   3.364   9.981 -0.5608 -2.5226 -0.2047
13910SOL    HW244173   8.663   3.389   9.840  0.7129 -0.4331  0.5514
13911SOL     OW44174   3.028   7.181   3.017  0.4781 -0.3553 -0.0799
13911SOL    HW144175   3.042   7.276   3.024 -1.0241 -0.1320  0.2922
13911SOL    HW244176   3.021   7.165   2.923  0.4023 -0.0410 -0.1291
13912SOL     OW44177   2.329   8.165   4.114 -0.2775  0.1462  0.7617
13912SOL    HW144178   2.399   8.189   4.173  0.6545  1.1719 -0.6792
13912SOL    HW244179   2.285   8.248   4.093  0.6192  0.1557 -1.3977
13913SOL     OW44180   4.292   5.840   8.963  0.2252  0.3407 -0.1388
13913SOL    HW144181   4.264   5.784   9.035  2.4204  0.4015  0.8358
13913SOL    HW244182   4.281   5.786   8.885  0.8245 -0.9059  0.6081
13914SOL     OW44183   4.048   4.280   6.890 -0.1468  0.1721 -0.6103
13914SOL    HW144184   4.046   4.209   6.826  1.8105 -0.5115  0.0344
13914SOL    HW244185   4.034   4.236   6.975  0.8581  0.5658 -0.2296
13915SOL     OW44186   5.532  10.411   4.610  0.3652  0.1997 -0.2240
13915SOL    HW144187   5.491  10.368   4.685  1.2154  0.6198  0.5129
13915SOL    HW244188   5.600  10.350   4.582  1.0191  0.6788  0.2917
13916SOL     OW44189   8.515  10.462   7.115 -0.0949  0.2823  0.1055
13916SOL    HW144190   8.600  10.463   7.071 -0.8412 -0.3328 -1.4089
13916SOL    HW244191   8.469  10.388   7.076 -1.2848  0.5194  1.0101
13917SOL     OW44192   3.442   6.901   6.300  0.4010  0.7899  0.0947
13917SOL    HW144193   3.415   6.882   6.210 -0.6209 -2.6039  0.9703
13917SOL    HW244194   3.361   6.924   6.346  0.5324  0.2370  0.6229
13918SOL     OW44195   2.259   2.852   4.779 -0.4470 -0.0426 -0.0441
13918SOL    HW144196   2.208   2.916   4.730  0.5940  0.5852 -0.3540
13918SOL    HW244197   2.333   2.903   4.814 -1.4394 -0.2863  2.7193
13919SOL     OW44198   8.870   8.704   9.907  0.0193  0.4169  0.4462
13919SOL    HW144199   8.912   8.758   9.974 -0.9563  0.6257  0.9139
13919SOL    HW244200   8.776   8.713   9.925 -0.1927 -0.8914  0.1014
13920SOL     OW44201   9.993  10.381   7.877 -0.3463 -0.0780 -0.4373
13920SOL    HW144202   9.928  10.313   7.891  1.1968 -1.3077  1.1435
13920SOL    HW244203  10.011  10.415   7.965 -0.6194  1.9772 -1.1159
13921SOL     OW44204   1.204   2.808   7.815 -0.5522  0.2853  0.0834
13921SOL    HW144205   1.204   2.748   7.741 -1.1668 -0.7579  0.8959
13921SOL    HW244206   1.295   2.815   7.842 -0.2988  0.8309 -0.8773
13922SOL     OW44207   8.892   1.205   7.314  0.2071 -0.2639  0.3512
13922SOL    HW144208   8.834   1.215   7.389 -0.0699  0.5893  0.0245
13922SOL    HW244209   8.845   1.244   7.240  0.4386 -1.1691 -0.2977
13923SOL     OW44210   7.182   4.252   1.110  0.3935  0.0187 -0.6901
13923SOL    HW144211   7.168   4.159   1.127  0.4075  0.3928  1.6843
13923SOL    HW244212   7.265   4.256   1.063  1.7120 -1.0673  1.3806
13924SOL     OW44213   2.996   2.412   7.219  0.2809  0.1238  0.5623
13924SOL    HW144214   2.908   2.393   7.187  0.1739  1.6102 -0.0976
13924SOL    HW244215   3.006   2.356   7.296 -1.3945  0.2148  0.8874
13925SOL     OW44216  10.060   2.081   2.228 -0.2454  0.1713  0.3427
13925SOL    HW144217  10.117   2.144   2.273  0.3134 -1.2038  1.6421
13925SOL    HW244218   9.985   2.133   2.200  1.0543  1.7884 -0.3341
13926SOL     OW44219   4.392   6.071   1.969  0.2512 -0.4149  0.0272
13926SOL    HW144220   4.487   6.062   1.958  0.0780 -0.5119 -1.7613
13926SOL    HW244221   4.376   6.051   2.061  1.8363 -1.4888  0.1052
13927SOL     OW44222   0.611   1.077   8.605 -0.0146 -0.0132  0.0311
13927SOL    HW144223   0.564   1.020   8.665 -0.6586  1.4770  1.0123
13927SOL    HW244224   0.542   1.132   8.565  0.6254  0.4318 -0.4870
13928SOL     OW44225   5.314   6.049   7.743  0.0120  0.6086  0.4006
13928SOL    HW144226   5.298   6.014   7.655  0.6266  1.6717 -0.1625
13928SOL    HW244227   5.360   6.131   7.727  1.2112  0.2390  1.7576
13929SOL     OW44228   4.503   1.931   1.614  0.3339 -0.2678  0.3239
13929SOL    HW144229   4.437   1.866   1.638  1.5278 -2.4110 -1.7780
13929SOL    HW244230   4.485   1.951   1.522  2.5939 -0.9914 -0.3364
13930SOL     OW44231   6.924   7.942   5.185 -0.4531  1.0063  0.2277
13930SOL    HW144232   6.917   7.967   5.093  0.0834  0.6932  0.0999
13930SOL    HW244233   6.920   7.847   5.184 -0.0922  0.9881  0.4969
13931SOL     OW44234   4.455   1.516   9.993 -0.2256  0.1722  0.0950
13931SOL    HW144235   4.366   1.485  10.013 -0.8084  1.4655 -0.3852
13931SOL    HW244236   4.459   1.604  10.030  1.4328 -0.4545  1.5256
13932SOL     OW44237   8.365   9.557   3.884 -0.2433  0.1246  0.2185
13932SOL    HW144238   8.358   9.464   3.907 -0.1904 -0.1604 -0.8594
13932SOL    HW244239   8.360   9.602   3.968  0.1543 -0.8712  0.8021
13933SOL     OW44240   2.004   8.890   2.763 -0.0338 -0.6361 -0.9301
13933SOL    HW144241   2.078   8.925   2.812 -0.6685  1.9742 -1.7157
13933SOL    HW244242   2.042   8.866   2.678  0.1762 -0.6756 -0.8266
13934SOL     OW44243   2.169   4.293   1.481 -0.0633  0.3749  0.3152
13934SOL    HW144244   2.126   4.250   1.407 -1.2263  0.7340  0.7592
13934SOL    HW244245   2.211   4.370   1.443 -0.0051  0.1442 -0.0923
13935SOL     OW44246   0.016   6.153   9.448  0.5021 -0.2955  0.1737
13935SOL    HW144247   0.065   6.233   9.428 -0.7340  0.3986 -0.1811
13935SOL    HW244248  -0.072   6.184   9.467  0.2645 -1.4999  1.0595
13936SOL     OW44249  10.254   6.977   6.601 -0.1860  0.3905 -0.1851
13936SOL    HW144250  10.250   6.934   6.515  1.5891 -0.8497  0.2795
13936SOL    HW244251  10.233   7.068   6.584 -0.4580  0.0498 -1.8376
13937SOL     OW44252   3.884   1.215   8.206 -0.4691  0.2921  0.2635
13937SOL    HW144253   3.826   1.217   8.130  0.0507  1.5487 -0.1317
13937SOL    HW244254   3.834   1.257   8.276 -0.2033  1.0328  0.0248
13938SOL     OW44255   7.845   7.671   8.971 -0.6583 -0.0559  0.6527
13938SOL    HW144256   7.938   7.692   8.961 -0.6832 -0.8963 -2.5036
13938SOL    HW244257   7.812   7.734   9.035  1.5155  2.1279 -0.2495
13939SOL     OW44258   4.337   9.594   0.221 -0.1585 -0.1436  0.2800
13939SOL    HW144259   4.311   9.686   0.223  0.8613  0.2147 -1.4583
13939SOL    HW244260   4.267   9.551   0.171 -1.2406 -0.5775  2.0637
13940SOL     OW44261  10.243   0.354   6.394 -0.6486 -0.2445  0.0667
13940SOL    HW144262  10.259   0.394   6.479  0.2129 -1.2044  0.3678
13940SOL    HW244263  10.282   0.416   6.331 -0.5743  0.0738  0.4238
13941SOL     OW44264   9.435   7.852   3.556 -0.3363 -0.0107  0.6106
13941SOL    HW144265   9.440   7.830   3.463 -0.1906 -0.3267  0.6894
13941SOL    HW244266   9.524   7.835   3.589 -1.1139 -3.0006  1.4600
13942SOL     OW44267   2.282   2.223   3.319  0.8627  0.0443 -0.5566
13942SOL    HW144268   2.321   2.238   3.233 -0.6950  1.9571 -0.9837
13942SOL    HW244269   2.203   2.172   3.301 -0.6527  2.2919 -0.5827
13943SOL     OW44270   2.717   4.034   9.920  0.2087 -0.2410  0.3095
13943SOL    HW144271   2.719   4.069   9.831  1.0202  0.0705  0.4421
13943SOL    HW244272   2.624   4.033   9.943  0.0826  0.7953 -0.1059
13944SOL     OW44273   1.040   1.348   0.401  0.4265  0.5713  0.0670
13944SOL    HW144274   0.977   1.365   0.471  0.9294  2.0443  0.1901
13944SOL    HW244275   1.067   1.435   0.371  1.3398 -0.0349 -0.9433
13945SOL     OW44276   3.404   0.506   8.212  0.0100 -0.4192  0.3677
13945SOL    HW144277   3.312   0.478   8.215  0.0133 -0.3977  0.6367
13945SOL    HW244278   3.448   0.451   8.276  0.6915 -2.2403 -1.5267
13946SOL     OW44279   3.923   1.801   9.426  0.2492  0.4899  0.3279
13946SOL    HW144280   3.900   1.836   9.339 -0.1204 -0.5222  0.0120
13946SOL    HW244281   3.895   1.710   9.424  0.7040  0.3142  1.3429
13947SOL     OW44282   5.214   2.753   7.881  0.1627  0.2800  0.1727
13947SOL    HW144283   5.200   2.698   7.958  0.2990  0.0732  0.0495
13947SOL    HW244284   5.309   2.755   7.870  0.1915  1.0034  0.5163
13948SOL     OW44285   1.760   1.787   6.149 -0.1538  0.4918 -0.4951
13948SOL    HW144286   1.694   1.809   6.083 -0.0920  0.3019 -0.6224
13948SOL    HW244287   1.711   1.751   6.222 -0.1544 -0.1641 -0.8066
13949SOL     OW44288   2.870   4.381   7.425 -0.4785  0.1929 -0.3908
13949SOL    HW144289   2.810   4.456   7.432  0.7230  1.2487 -1.0031
13949SOL    HW244290   2.942   4.402   7.485  0.4312  0.1025 -1.4184
13950SOL     OW44291   9.675   9.262   7.051  0.2117 -0.1509  0.6182
13950SOL    HW144292   9.672   9.209   6.971  1.3740 -0.0036  0.4570
13950SOL    HW244293   9.606   9.327   7.038  0.3264 -0.1801 -0.2402
13951SOL     OW44294   2.275   8.409   1.045 -0.1175 -0.1858 -0.1097
13951SOL    HW144295   2.346   8.472   1.056  0.3762 -0.4678 -1.4553
13951SOL    HW244296   2.234   8.403   1.131  1.8586 -0.4444  0.8709
13952SOL     OW44297   5.126   0.701   3.847 -0.2498 -0.1889 -0.6029
13952SOL    HW144298   5.049   0.689   3.903  0.6396  2.7525  1.5099
13952SOL    HW244299   5.096   0.758   3.776 -0.0031  1.2954  0.4457
13953SOL     OW44300   0.219   2.346   0.558 -0.1127 -0.1475 -0.1038
13953SOL    HW144301   0.313   2.326   0.568 -0.4674 -2.4770 -0.7670
13953SOL    HW244302   0.175   2.268   0.590 -1.8237  0.5447 -0.6805
13954SOL     OW44303   0.115   1.622   1.995 -0.0729 -0.1821  0.1948
13954SOL    HW144304   0.055   1.575   2.053 -0.2960 -0.2578 -0.0929
13954SOL    HW244305   0.062   1.691   1.956  0.3704  0.6104  0.9640
13955SOL     OW44306  10.019  10.466   0.668 -0.4041 -0.4233 -0.1132
13955SOL    HW144307  10.080  10.398   0.640 -1.8399 -2.8046  2.1305
13955SOL    HW244308   9.933  10.435   0.638 -1.2679 -0.3907  2.1482
13956SOL     OW44309   6.713   3.869   3.806  0.1292 -0.5480  0.0955
13956SOL    HW144310   6.734   3.962   3.814 -0.6860 -0.4406  1.2488
13956SOL    HW244311   6.700   3.855   3.712  1.2477  0.2686 -0.1928
13957SOL     OW44312   1.668   8.831   0.223  0.5071 -0.3103 -0.0334
13957SOL    HW144313   1.606   8.820   0.296  1.0732  0.9971  0.6852
13957SOL    HW244314   1.731   8.761   0.235  0.8563  0.1612  1.0406
13958SOL     OW44315   2.509   8.999   2.551  0.2447  0.3485  0.2617
13958SOL    HW144316   2.429   9.050   2.564  0.2897  0.2070  1.1193
13958SOL    HW244317   2.539   8.977   2.639  1.7987  1.2777  0.0015
13959SOL     OW44318   1.275   2.330   1.830 -0.0142 -0.6071 -0.8944
13959SOL    HW144319   1.220   2.314   1.906 -0.4238  2.8987 -0.2763
13959SOL    HW244320   1.220   2.307   1.755 -1.1263 -0.3329 -0.1931
13960SOL     OW44321   0.040   0.890   3.394 -0.2727  0.1831 -0.6013
13960SOL    HW144322  -0.011   0.948   3.337  0.3717  0.5663 -0.7895
13960SOL    HW244323   0.130   0.901   3.365 -0.0149 -0.0973  0.0824
13961SOL     OW44324   9.943   1.281   3.507 -0.4306  0.8800 -0.6566
13961SOL    HW144325   9.864   1.254   3.460 -1.1723  1.3565  0.2807
13961SOL    HW244326   9.918   1.363   3.550  0.7924  1.3899 -0.9005
13962SOL     OW44327   2.019   9.198   4.462 -0.7697 -0.1826  0.3257
13962SOL    HW144328   2.001   9.203   4.368  0.3290 -4.1638 -0.2836
13962SOL    HW244329   1.946   9.147   4.498  0.0552 -0.8405  1.1214
13963SOL     OW44330   9.654   3.777   2.279 -0.2714 -0.4391 -0.4361
13963SOL    HW144331   9.696   3.757   2.362 -0.4520  0.5353 -0.0927
13963SOL    HW244332   9.564   3.746   2.289 -1.6150  3.3752  1.4160
13964SOL     OW44333   4.630   8.608   2.311  0.0463 -0.0010 -0.0910
13964SOL    HW144334   4.581   8.657   2.244  0.7266  0.9205  0.0584
13964SOL    HW244335   4.718   8.601   2.275  0.8750  1.9549  1.3712
13965SOL     OW44336   7.275  10.120   2.469  0.0484  0.1779  0.2041
13965SOL    HW144337   7.247  10.069   2.546  2.3206  1.4690  2.0139
13965SOL    HW244338   7.265  10.060   2.396 -1.2666 -1.4606  1.6381
13966SOL     OW44339   3.879   7.789   3.242 -0.1766  0.4396  0.7058
13966SOL    HW144340   3.862   7.719   3.305  2.5956 -0.9770  0.0486
13966SOL    HW244341   3.939   7.848   3.288 -1.1814  1.5380  0.6621
13967SOL     OW44342   6.310   1.583   5.377  0.1088 -0.3023 -0.5438
13967SOL    HW144343   6.379   1.621   5.323 -0.5656 -0.6346 -1.6834
13967SOL    HW244344   6.353   1.510   5.422  0.2439 -1.3202 -2.2271
13968SOL     OW44345   3.379  10.445   2.782  0.2944  0.3280 -0.3648
13968SOL    HW144346   3.330  10.504   2.725 -0.4930  1.6416  1.5591
13968SOL    HW244347   3.313  10.407   2.839  0.8839 -1.9716 -1.0995
13969SOL     OW44348   0.935   6.171   6.915 -0.0555 -0.9141 -0.1488
13969SOL    HW144349   0.916   6.256   6.875 -0.1444 -0.8505  0.0288
13969SOL    HW244350   0.983   6.192   6.995  0.2410 -1.0488 -0.2880
13970SOL     OW44351   6.465  10.338   3.819 -0.3523  0.0207  0.2702
13970SOL    HW144352   6.463  10.242   3.819  2.3423 -0.2284 -3.1426
13970SOL    HW244353   6.555  10.361   3.843 -0.1958  1.5004 -1.4854
13971SOL     OW44354   9.842   3.792   3.994 -0.4259 -0.4928 -0.1609
13971SOL    HW144355   9.803   3.789   3.907  0.0134  0.7174 -0.4120
13971SOL    HW244356   9.924   3.839   3.982 -1.4082  1.7777  1.2665
13972SOL     OW44357   6.514   4.422   5.390 -0.0563 -0.2974 -0.2299
13972SOL    HW144358   6.427   4.461   5.401  0.3114  0.3152  0.7188
13972SOL    HW244359   6.539   4.441   5.300 -0.7007 -0.0333 -0.3534
13973SOL     OW44360   6.788   5.888   9.803  0.3213 -0.4714  0.0571
13973SOL    HW144361   6.798   5.941   9.724 -1.3662  1.0284  0.7808
13973SOL    HW244362   6.839   5.809   9.785  1.5087  0.6256 -1.7652
13974SOL     OW44363   6.882   7.362   2.255  0.3371  0.2585 -0.0610
13974SOL    HW144364   6.960   7.416   2.245  0.2833  0.8965  2.4167
13974SOL    HW244365   6.867   7.326   2.167  3.3195  0.1769 -0.6484
13975SOL     OW44366   9.788   6.137   0.225  0.1232  0.3342  0.8157
13975SOL    HW144367   9.764   6.046   0.245  1.8507  0.0007  1.5429
13975SOL    HW244368   9.851   6.130   0.154 -0.0408  1.0080  0.5966
13976SOL     OW44369   9.197   4.229   6.402  0.5981 -0.3123 -0.1615
13976SOL    HW144370   9.104   4.227   6.380  0.7561 -0.9846 -0.7885
13976SOL    HW244371   9.222   4.137   6.412  1.7412 -0.3086 -2.4192
13977SOL     OW44372   1.968   1.056   9.290  0.0461 -0.4897 -0.3758
13977SOL    HW144373   1.944   1.080   9.200 -0.4093 -1.0638 -0.4085
13977SOL    HW244374   2.057   1.090   9.300  0.2477 -0.7511 -1.1738
13978SOL     OW44375   9.198   9.425   3.301  0.4491 -0.6776 -0.0456
13978SOL    HW144376   9.151   9.349   3.333 -1.5362  0.1839 -0.7625
13978SOL    HW244377   9.275   9.432   3.359 -1.4608 -0.8277  2.7003
13979SOL     OW44378   3.549   4.992   3.865  0.3156 -0.0196  0.1445
13979SOL    HW144379   3.487   4.951   3.925  0.2473  1.1147  0.8758
13979SOL    HW244380   3.502   4.995   3.782 -0.2118 -0.1168  0.4318
13980SOL     OW44381   7.966   5.261   1.977 -0.1406 -0.0962 -0.2226
13980SOL    HW144382   8.059   5.242   1.969 -0.0376  0.0510  0.5272
13980SOL    HW244383   7.928   5.235   1.893  0.8002  1.2186 -1.0831
13981SOL     OW44384   0.741   0.011   5.794 -0.0895 -0.3476 -0.0441
13981SOL    HW144385   0.733  -0.080   5.766  1.1759 -1.1382  1.8840
13981SOL    HW244386   0.830   0.036   5.768 -0.5091  0.4414 -0.7673
13982SOL     OW44387   5.322   4.072   5.492  0.3511 -0.4524 -0.5910
13982SOL    HW144388   5.238   4.117   5.506 -0.3737 -1.7449 -0.5673
13982SOL    HW244389   5.310   4.026   5.408  0.6395 -1.4659 -0.0917
13983SOL     OW44390   5.808   6.323   0.139 -0.0168 -0.8487  0.3177
13983SOL    HW144391   5.741   6.260   0.113  0.1440 -0.4367 -1.2304
13983SOL    HW244392   5.768   6.408   0.123 -0.1158 -0.5345  2.0902
13984SOL     OW44393   8.453   2.629   1.281 -0.1417  0.3776 -0.3089
13984SOL    HW144394   8.523   2.597   1.223  1.9887 -1.7711  3.0443
13984SOL    HW244395   8.388   2.559   1.281 -0.6432  0.8381 -0.8578
13985SOL     OW44396   0.627   5.193   8.942  0.0668  0.3114 -0.3845
13985SOL    HW144397   0.701   5.142   8.910 -0.2355 -0.5101  0.1875
13985SOL    HW244398   0.599   5.245   8.867  2.3375  2.0241 -0.1684
13986SOL     OW44399   5.963   8.083   5.987  0.1795 -0.7373 -0.6330
13986SOL    HW144400   5.922   8.132   5.916 -2.5032 -1.9688 -0.0688
13986SOL    HW244401   5.943   8.133   6.066  0.8916 -0.7152 -0.4580
13987SOL     OW44402  10.379   7.802   1.023  0.1055 -0.1691  0.1114
13987SOL    HW144403  10.450   7.819   1.085 -0.8041  0.9634  0.8851
13987SOL    HW244404  10.317   7.747   1.072 -0.5499  0.6181  0.2006
13988SOL     OW44405   8.192   5.368   1.660  0.2741 -0.3623  0.3660
13988SOL    HW144406   8.257   5.300   1.642 -2.0118 -2.0310 -2.4614
13988SOL    HW244407   8.117   5.345   1.605 -1.1790  3.7618  0.2871
13989SOL     OW44408   8.372   9.209   5.786  0.3974 -0.1958 -0.2305
13989SOL    HW144409   8.461   9.206   5.821 -0.3144 -1.4066  1.6345
13989SOL    HW244410   8.376   9.272   5.714  2.7470 -0.2445 -0.2094
13990SOL     OW44411   0.285   7.501   7.643 -0.8045 -0.1791  0.5799
13990SOL    HW144412   0.359   7.556   7.667 -0.7667  0.3544 -0.6757
13990SOL    HW244413   0.228   7.558   7.591 -0.9285 -1.2171 -0.4816
13991SOL     OW44414   8.848   0.614   8.243 -0.0938  0.0685  0.1578
13991SOL    HW144415   8.832   0.706   8.265  0.1091  0.5581 -1.6186
13991SOL    HW244416   8.943   0.603   8.253 -0.2943 -0.4219  1.9299
13992SOL     OW44417   8.433   1.355   2.959 -0.2001  0.3755  0.5619
13992SOL    HW144418   8.441   1.421   2.890 -2.7551  2.6494  2.2073
13992SOL    HW244419   8.479   1.394   3.033  1.7656 -1.6362  0.4808
13993SOL     OW44420   1.007   9.999   2.480 -0.0742  0.4759  0.3471
13993SOL    HW144421   1.018  10.083   2.525 -0.2018  1.1093 -0.7529
13993SOL    HW244422   0.912   9.984   2.479 -0.0518  0.3222  0.5393
13994SOL     OW44423   8.746   7.681   8.883  0.1667  0.0209 -0.1994
13994SOL    HW144424   8.777   7.674   8.792  0.4835  0.3826 -0.1232
13994SOL    HW244425   8.810   7.738   8.925  0.2558 -0.4899  0.3607
13995SOL     OW44426   0.161   3.545   2.133  0.2770  0.2640 -0.1827
13995SOL    HW144427   0.215   3.521   2.058  0.2839  0.3558 -0.2074
13995SOL    HW244428   0.088   3.594   2.095 -0.7493 -1.3227 -0.3438
13996SOL     OW44429   5.740   0.188   9.846  0.1889  0.3840 -0.3791
13996SOL    HW144430   5.717   0.137   9.768 -1.9933 -2.1682  1.6982
13996SOL    HW244431   5.656   0.224   9.876  0.4922 -0.6266  1.9416
13997SOL     OW44432   1.724  10.234   2.403 -0.5791 -0.9042 -0.8171
13997SOL    HW144433   1.774  10.252   2.324  1.7365  0.1385  0.7781
13997SOL    HW244434   1.764  10.154   2.439 -0.6849 -0.6063 -0.0125
13998SOL     OW44435  10.051   3.066   0.545 -0.1521 -0.2319  0.3683
13998SOL    HW144436  10.042   3.148   0.593  0.6532 -0.4591  0.9181
13998SOL    HW244437   9.961   3.045   0.517 -0.5235  0.2788  1.1376
13999SOL     OW44438   2.431   0.056   6.239 -0.3600  0.1498  0.1031
13999SOL    HW144439   2.452  -0.024   6.286 -0.5454 -1.0899 -1.7952
13999SOL    HW244440   2.511   0.077   6.191 -0.4864  0.7989  0.1694
14000SOL     OW44441   4.035  10.073   9.363 -0.1498  0.1078 -0.3556
14000SOL    HW144442   4.091  10.131   9.312  0.3258  1.3901  1.5240
14000SOL    HW244443   3.965  10.130   9.395  0.0019 -0.4665  1.0471
14001SOL     OW44444   6.607   1.967   2.765  0.6595  0.2349 -0.1963
14001SOL    HW144445   6.634   1.878   2.740 -0.2916  0.1584 -0.9827
14001SOL    HW244446   6.532   1.953   2.822  0.9159  0.5239  0.2157
14002SOL     OW44447   2.747   1.488   7.324  0.2468  0.3532 -0.4200
14002SOL    HW144448   2.839   1.512   7.320  0.1030  1.1306  0.5097
14002SOL    HW244449   2.744   1.397   7.293  1.5359 -0.1672  0.8818
14003SOL     OW44450   0.580   1.501   5.960 -0.4936  0.3303 -0.0714
14003SOL    HW144451   0.554   1.568   5.897  1.4699  0.7496 -0.4940
14003SOL    HW244452   0.674   1.489   5.946 -0.7735 -2.6922 -0.1766
14004SOL     OW44453   8.029   7.890  10.284  0.2594 -0.1140  0.3362
14004SOL    HW144454   8.005   7.817  10.227 -1.4864 -0.1050  0.9985
14004SOL    HW244455   8.008   7.968  10.232  0.3016 -0.0961  0.3459
14005SOL     OW44456   4.853   4.833   9.993  0.3779  0.5532  0.7108
14005SOL    HW144457   4.878   4.748  10.029  0.0003  0.1921  0.1204
14005SOL    HW244458   4.818   4.881  10.068 -4.4853 -1.6708  0.2667
14006SOL     OW44459   6.742   0.705   5.627  0.3844  0.3963  0.5688
14006SOL    HW144460   6.673   0.759   5.665  0.0875 -0.1761  0.8538
14006SOL    HW244461   6.806   0.768   5.593  1.3707  0.9363  3.2500
14007SOL     OW44462   6.463   3.250   6.234 -0.0301 -0.4692  0.1350
14007SOL    HW144463   6.488   3.337   6.206 -0.0614 -0.0365  1.3735
14007SOL    HW244464   6.543   3.198   6.227 -0.3545 -0.7475 -2.0157
14008SOL     OW44465   9.072   0.169   4.774  0.1646  0.0810 -0.3770
14008SOL    HW144466   9.053   0.211   4.857 -0.7288  1.5611 -1.2865
14008SOL    HW244467   8.990   0.126   4.749  0.5914 -0.8377 -0.2393
14009SOL     OW44468   4.756   0.369  10.456 -0.3389  0.2771  0.3316
14009SOL    HW144469   4.806   0.407  10.384 -1.3239 -0.5962 -0.8680
14009SOL    HW244470   4.776   0.276  10.452 -0.1711  0.2588  1.4034
14010SOL     OW44471   4.567   5.544   4.017 -0.1891 -0.5239  0.2285
14010SOL    HW144472   4.507   5.507   3.952 -0.6697 -1.1896  1.0282
14010SOL    HW244473   4.647   5.493   4.008  1.3590  2.0978 -2.7189
14011SOL     OW44474   9.218   8.837   3.626  0.4504  0.7593  0.6259
14011SOL    HW144475   9.133   8.869   3.655  1.0526  1.8379  1.2720
14011SOL    HW244476   9.257   8.911   3.579  0.0776 -0.4881 -1.7887
14012SOL     OW44477   8.033   8.052  10.024  0.2735  0.0144 -0.1588
14012SOL    HW144478   8.011   8.022   9.935  1.0937 -1.3675  0.0803
14012SOL    HW244479   8.121   8.087  10.016  0.0864  0.5162 -0.0197
14013SOL     OW44480   4.624   7.393   7.666 -0.2210 -0.0277 -0.0921
14013SOL    HW144481   4.646   7.383   7.573  0.9495  2.8658 -0.2589
14013SOL    HW244482   4.533   7.364   7.672 -0.6431  0.5564 -2.3681
14014SOL     OW44483   7.103   5.245   0.331  0.1353 -0.6225 -0.0959
14014SOL    HW144484   7.082   5.251   0.424  0.7675  0.6317 -0.0106
14014SOL    HW244485   7.197   5.228   0.329  0.1394 -0.5676 -0.5078
14015SOL     OW44486   7.653   1.938   4.025  0.2117 -0.0337 -0.7893
14015SOL    HW144487   7.678   2.025   3.995 -1.5126  0.1309 -1.8475
14015SOL    HW244488   7.725   1.881   3.995  0.3345  0.7016 -1.9600
14016SOL     OW44489   8.670   2.374   4.406 -0.2934  0.1215 -0.5340
14016SOL    HW144490   8.623   2.311   4.352 -0.2405 -1.0156  0.7135
14016SOL    HW244491   8.742   2.324   4.444 -1.0753  0.5389  1.6149
14017SOL     OW44492   9.286   5.328   0.966  0.0724  0.1701 -0.0252
14017SOL    HW144493   9.371   5.351   1.004 -1.1219 -0.6302  3.4706
14017SOL    HW244494   9.308   5.293   0.880  3.0145  2.3458 -0.3448
14018SOL     OW44495   3.255   6.446   5.678  0.4278  0.1337 -0.0329
14018SOL    HW144496   3.251   6.440   5.774 -1.3682 -2.6941 -0.1932
14018SOL    HW244497   3.184   6.506   5.655  2.7818  3.3596  0.4199
14019SOL     OW44498   6.043   9.336   3.272 -0.2335 -0.5494  0.1735
14019SOL    HW144499   6.034   9.431   3.269  0.7470 -0.2821  3.1477
14019SOL    HW244500   6.005   9.306   3.189 -1.9014  2.3066 -0.2192
14020SOL     OW44501   9.993   9.195   0.145  0.1319 -0.1992  0.7696
14020SOL    HW144502   9.945   9.247   0.080 -0.3387  0.5028  1.6658
14020SOL    HW244503   9.941   9.115   0.155 -0.7146  0.4317  1.5253
14021SOL     OW44504   1.406   1.836   9.720  0.1036  0.2019 -0.7576
14021SOL    HW144505   1.442   1.751   9.748  0.4604  0.1800 -1.2812
14021SOL    HW244506   1.367   1.819   9.635 -0.9523  0.2829 -0.3039
14022SOL     OW44507   0.198   6.518   6.582 -0.6573 -0.5317  0.0657
14022SOL    HW144508   0.274   6.547   6.635 -1.1186  2.3864 -0.6737
14022SOL    HW244509   0.124   6.524   6.642 -0.7539 -0.0960 -0.0899
14023SOL     OW44510   5.417   1.433   6.646 -0.5004 -0.0024  0.1336
14023SOL    HW144511   5.424   1.516   6.693 -0.6240  0.2788 -0.3395
14023SOL    HW244512   5.369   1.376   6.706 -0.4305  0.2725  0.4534
14024SOL     OW44513   3.203   7.010   3.836 -0.2579  0.1233 -0.3316
14024SOL    HW144514   3.283   7.010   3.784  0.1359  0.5956  0.2701
14024SOL    HW244515   3.206   6.928   3.885 -0.5634 -0.2588 -0.9421
14025SOL     OW44516   9.761   1.835   0.022  0.2020 -0.3438  0.0424
14025SOL    HW144517   9.802   1.765   0.072  1.1837 -0.8733 -1.4472
14025SOL    HW244518   9.822   1.853  -0.049 -1.1764  0.3425 -1.0068
14026SOL     OW44519   1.551   8.857   7.119  0.4012 -0.5009  0.1431
14026SOL    HW144520   1.533   8.789   7.185  1.0251 -0.3872  0.4428
14026SOL    HW244521   1.590   8.809   7.046  0.7122 -0.4868  0.2979
14027SOL     OW44522   4.440   6.001   7.525 -0.3619  0.8172  0.1496
14027SOL    HW144523   4.372   6.043   7.472 -1.8702 -0.4122  1.0334
14027SOL    HW244524   4.433   5.908   7.503  0.0706  0.4918  1.3410
14028SOL     OW44525   4.840   2.642   6.900 -0.1246  0.2322  0.0344
14028SOL    HW144526   4.757   2.594   6.904 -0.3364  0.5996  0.1553
14028SOL    HW244527   4.833   2.696   6.822 -0.4826  1.1152  0.6568
14029SOL     OW44528   6.988   9.248   1.556 -0.4551  0.1953  0.0155
14029SOL    HW144529   6.996   9.338   1.588  1.6982 -0.8914  3.0485
14029SOL    HW244530   7.078   9.219   1.544 -1.0762 -1.7688 -0.2218
14030SOL     OW44531   0.207   5.883   4.212  0.3004  0.0608 -0.2068
14030SOL    HW144532   0.220   5.798   4.254 -0.9859 -0.7959 -1.4521
14030SOL    HW244533   0.125   5.916   4.248 -0.3826 -0.2995 -1.3762
14031SOL     OW44534   2.941   7.561   0.947  0.4216  0.3441  0.1096
14031SOL    HW144535   2.945   7.499   0.874  1.3983  1.2882 -0.6532
14031SOL    HW244536   2.930   7.505   1.024  0.2575 -0.7195 -0.6612
14032SOL     OW44537   8.205   2.168   2.685 -0.3276 -0.2319 -0.6620
14032SOL    HW144538   8.124   2.218   2.687 -0.1714  0.0499 -1.3000
14032SOL    HW244539   8.271   2.227   2.722 -0.1724 -0.0136 -1.2811
14033SOL     OW44540   5.199   9.040   6.996 -0.1942 -0.5585 -0.0739
14033SOL    HW144541   5.239   8.959   7.027 -1.4972 -0.6956  1.3883
14033SOL    HW244542   5.183   9.090   7.076 -2.6868 -0.4228 -0.5762
14034SOL     OW44543   9.268   8.344   4.448 -0.1132  0.2677 -0.3699
14034SOL    HW144544   9.347   8.353   4.395 -1.0389  0.0470 -1.8819
14034SOL    HW244545   9.237   8.433   4.461 -0.7650  0.2691 -1.6915
14035SOL     OW44546   7.651   5.671   2.290 -0.0516 -0.7728  0.0572
14035SOL    HW144547   7.662   5.766   2.297 -0.1492 -0.7886  0.4039
14035SOL    HW244548   7.613   5.658   2.203 -0.1870 -0.4826  0.0713
14036SOL     OW44549   8.126   1.007   7.156 -0.4850 -0.2764  0.4070
14036SOL    HW144550   8.065   0.950   7.109 -0.1836  1.0559 -1.7356
14036SOL    HW244551   8.163   1.063   7.088  1.6046  0.3400  1.9649
14037SOL     OW44552   2.938   1.798  10.173  0.0200 -0.0391  0.0617
14037SOL    HW144553   2.963   1.719  10.125 -1.1747 -0.3641 -0.0534
14037SOL    HW244554   3.008   1.810  10.237  0.1692 -1.2389  0.1456
14038SOL     OW44555   1.432  10.084   7.109 -0.9549  0.4482  0.3154
14038SOL    HW144556   1.463  10.012   7.053 -1.3712  1.5947 -1.4929
14038SOL    HW244557   1.467  10.065   7.195 -0.0502 -1.2845 -0.3899
14039SOL     OW44558   2.827   5.337   1.149  0.2154  0.3853 -0.4003
14039SOL    HW144559   2.771   5.289   1.210  0.3627  1.2674  0.4711
14039SOL    HW244560   2.894   5.274   1.123 -0.4332 -0.2960 -0.4422
14040SOL     OW44561   0.852   2.621   5.210 -0.2334  0.1420 -0.0487
14040SOL    HW144562   0.866   2.580   5.125 -1.6124 -0.7531  0.1267
14040SOL    HW244563   0.934   2.606   5.257 -0.1127 -0.9858 -0.5765
14041SOL     OW44564   1.812   1.280   7.201  0.1254  0.0359 -0.0434
14041SOL    HW144565   1.872   1.335   7.152 -0.6823 -0.3445 -1.5019
14041SOL    HW244566   1.770   1.340   7.263 -1.2793  1.2952 -2.0892
14042SOL     OW44567   4.649   5.421  10.022 -0.3190  0.1002  0.0337
14042SOL    HW144568   4.726   5.370   9.998  0.2933  1.2297 -0.5070
14042SOL    HW244569   4.575   5.363  10.005  0.4097 -1.1247  0.8722
14043SOL     OW44570   9.921   3.124   9.404 -0.0882  0.1766  0.0554
14043SOL    HW144571   9.957   3.211   9.421  1.1418  0.0257 -1.5311
14043SOL    HW244572   9.843   3.119   9.460 -0.2487  2.3261  0.1114
14044SOL     OW44573   4.882   8.968   1.808  0.4938  0.0804  0.3120
14044SOL    HW144574   4.902   8.989   1.899 -0.4348 -0.8259  0.7449
14044SOL    HW244575   4.793   8.933   1.810  0.6412 -0.4293 -0.8789
14045SOL     OW44576   5.896   1.630   5.371 -0.1683 -0.0258  0.1154
14045SOL    HW144577   5.815   1.585   5.347  0.3237 -0.7425 -0.2262
14045SOL    HW244578   5.899   1.706   5.313 -0.5492 -0.0394  0.0745
14046SOL     OW44579   1.923   1.205   4.208 -0.4701  0.1496  0.2875
14046SOL    HW144580   1.900   1.262   4.282 -1.1909 -0.6316  0.6719
14046SOL    HW244581   1.954   1.266   4.141 -0.4177  0.9269  0.9927
14047SOL     OW44582   1.278   0.468   9.173 -0.1881 -0.1260  0.2060
14047SOL    HW144583   1.356   0.503   9.130  0.7247 -1.1404  0.9825
14047SOL    HW244584   1.207   0.483   9.110  0.5495  1.1313 -0.3657
14048SOL     OW44585   0.932   7.485   0.613  0.1549 -0.1603  0.0113
14048SOL    HW144586   0.873   7.510   0.542  0.1831  0.3226  0.1569
14048SOL    HW244587   1.015   7.467   0.570 -0.1377 -1.0232 -0.2191
14049SOL     OW44588   7.558   9.449   2.749 -0.4105 -0.0482 -0.5686
14049SOL    HW144589   7.635   9.472   2.801 -0.3445  0.7615 -1.0194
14049SOL    HW244590   7.587   9.374   2.697 -0.2248 -0.3430 -0.0537
14050SOL     OW44591   6.374   0.176   0.916 -0.5322  0.4853  0.5954
14050SOL    HW144592   6.468   0.157   0.911 -0.9125 -1.6991  0.7075
14050SOL    HW244593   6.355   0.221   0.834  0.4818  0.2752  0.2238
14051SOL     OW44594   4.886   0.981   1.288  0.3595  0.1018 -0.2442
14051SOL    HW144595   4.935   0.902   1.314  0.5740  0.2268 -0.2655
14051SOL    HW244596   4.855   1.018   1.370 -0.9151 -0.7531 -0.3177
14052SOL     OW44597   2.677   0.092   5.887 -0.7645 -0.1190 -0.2379
14052SOL    HW144598   2.741   0.152   5.848 -0.6322 -0.1523 -0.0722
14052SOL    HW244599   2.602   0.148   5.909 -0.0639  0.2646  1.2862
14053SOL     OW44600   6.029   4.346   8.262 -0.4083 -0.1405 -0.1773
14053SOL    HW144601   6.028   4.255   8.230 -0.0789 -0.5258  0.8671
14053SOL    HW244602   6.037   4.398   8.182  0.7748 -1.0904 -0.7237
14054SOL     OW44603   5.199   3.742   8.763  0.4228  0.1878 -0.7569
14054SOL    HW144604   5.280   3.742   8.814  0.7990 -0.1134 -1.3503
14054SOL    HW244605   5.162   3.654   8.776 -1.1651  1.0983  1.6095
14055SOL     OW44606   3.396   8.761   3.551  0.4211 -0.6601 -0.2342
14055SOL    HW144607   3.377   8.688   3.611  0.5521  0.1286  0.7981
14055SOL    HW244608   3.480   8.795   3.581 -0.0283  0.4318 -0.1816
14056SOL     OW44609   7.551   1.674   8.211 -0.0308  0.1270 -0.2122
14056SOL    HW144610   7.476   1.637   8.164  0.3232 -0.6895 -0.1511
14056SOL    HW244611   7.546   1.767   8.193 -0.2460 -0.0919 -1.3795
14057SOL     OW44612   8.114   7.644   4.951 -0.6821  0.1043 -0.7033
14057SOL    HW144613   8.024   7.664   4.977 -0.7266 -0.0985 -0.7058
14057SOL    HW244614   8.167   7.677   5.024 -0.6081  1.9396 -1.5296
14058SOL     OW44615   0.889   6.530   2.335  0.0453  0.0898 -0.0447
14058SOL    HW144616   0.983   6.518   2.346  0.3291  1.3805 -0.8973
14058SOL    HW244617   0.858   6.558   2.421  1.1407  3.5733 -0.6428
14059SOL     OW44618   3.987   5.200   6.919  0.5657  0.1697 -0.1858
14059SOL    HW144619   4.047   5.190   6.845 -0.0486 -0.0241 -0.6721
14059SOL    HW244620   4.043   5.218   6.994  1.2439 -0.3109 -0.5736
14060SOL     OW44621   7.969   8.960   7.612 -0.0548  0.0625 -0.0672
14060SOL    HW144622   7.937   8.870   7.601 -0.3782  0.2769 -0.9337
14060SOL    HW244623   8.032   8.972   7.541  1.1982  0.0051  0.9872
14061SOL     OW44624   0.746   9.959   5.826 -0.5616  0.1833  0.2405
14061SOL    HW144625   0.781   9.927   5.909 -1.3779  1.1293  0.9856
14061SOL    HW244626   0.727   9.880   5.776 -0.2958 -0.4139  1.0484
14062SOL     OW44627   1.556   0.770   6.912  0.7667  0.2436  0.1016
14062SOL    HW144628   1.515   0.724   6.839  1.8636  1.0684 -1.0833
14062SOL    HW244629   1.603   0.702   6.960 -0.6959 -0.4481  0.5760
14063SOL     OW44630   1.209   2.050   4.091  0.0488 -0.0211  0.4440
14063SOL    HW144631   1.290   2.014   4.055 -0.7111 -0.3523 -1.0066
14063SOL    HW244632   1.141   1.991   4.059 -0.7775  0.2303  1.6734
14064SOL     OW44633  10.345   2.936   8.544  0.2230  0.0121  0.2376
14064SOL    HW144634  10.310   2.978   8.466 -0.8794 -2.0371 -0.4482
14064SOL    HW244635  10.276   2.945   8.609 -0.6801 -1.9568 -0.3821
14065SOL     OW44636   7.975   3.384  10.095  0.7642 -0.1732  0.1026
14065SOL    HW144637   8.000   3.368  10.005  1.1118 -0.2238  0.2069
14065SOL    HW244638   7.882   3.408  10.091  0.9167  0.3665 -0.3277
14066SOL     OW44639   9.878   5.796   8.410  0.1232  0.3737  0.2101
14066SOL    HW144640   9.906   5.858   8.341  1.0802 -0.5297 -0.2485
14066SOL    HW244641   9.958   5.777   8.458  0.2681 -1.8423 -0.7627
14067SOL     OW44642   3.400   2.073   9.164 -0.5059  0.0664  0.5211
14067SOL    HW144643   3.349   2.093   9.085 -0.0888  0.3595  0.3249
14067SOL    HW244644   3.487   2.107   9.145 -0.4085  0.1445  1.1185
14068SOL     OW44645   7.694  10.107   5.665  0.0408 -0.2993 -0.4062
14068SOL    HW144646   7.725  10.047   5.597 -1.7641 -0.4045 -1.2133
14068SOL    HW244647   7.733  10.074   5.746  0.4743 -1.5202 -1.0860
14069SOL     OW44648   9.249   3.199   2.451 -0.4319  0.0088  0.9717
14069SOL    HW144649   9.232   3.287   2.483 -2.1143 -0.0983  0.4146
14069SOL    HW244650   9.311   3.211   2.379 -0.5820  0.7235  0.9562
14070SOL     OW44651   1.016   2.727   5.427  0.6380 -0.3482 -0.4248
14070SOL    HW144652   1.100   2.766   5.403 -0.1303  0.4072 -2.0122
14070SOL    HW244653   1.040   2.645   5.471  2.2258 -0.8804 -2.1202
14071SOL     OW44654   6.958   1.657   9.142 -0.1596 -0.3468  0.0977
14071SOL    HW144655   7.031   1.657   9.204  1.1675 -1.5603 -1.3594
14071SOL    HW244656   6.881   1.676   9.195  1.3195  2.4510  1.5021
14072SOL     OW44657   5.289   2.262   2.004 -0.7776  0.1311 -0.3848
14072SOL    HW144658   5.197   2.286   2.015 -0.4450  1.2893  0.0721
14072SOL    HW244659   5.334   2.346   1.994  0.4322 -0.3210  0.9728
14073SOL     OW44660  10.414   1.642   8.215  0.2581 -0.4683  0.7005
14073SOL    HW144661  10.475   1.569   8.217 -0.4932 -1.1327 -0.0440
14073SOL    HW244662  10.402   1.667   8.307 -0.2283 -1.9103  1.0438
14074SOL     OW44663   2.206   9.242   3.675  0.4346  0.3788  0.5471
14074SOL    HW144664   2.229   9.328   3.711  0.3499  1.2408 -1.3352
14074SOL    HW244665   2.291   9.199   3.661  0.5470  0.7213  0.1758
14075SOL     OW44666   0.091   0.026   7.090 -0.1162 -0.2742  0.1998
14075SOL    HW144667   0.111  -0.065   7.114 -0.6516 -0.4072  0.1743
14075SOL    HW244668   0.007   0.020   7.044 -0.5486  0.3151  0.8803
14076SOL     OW44669   6.408   6.267   6.731  0.2103  0.0226 -0.1570
14076SOL    HW144670   6.434   6.236   6.817  1.2589  0.9686 -0.1170
14076SOL    HW244671   6.333   6.325   6.748 -0.3827 -0.7587 -0.0278
14077SOL     OW44672   7.296   0.107   4.360  0.1795  0.4038  0.6213
14077SOL    HW144673   7.233   0.096   4.432  0.9455  1.0877  1.4136
14077SOL    HW244674   7.282   0.030   4.305  0.1020 -0.5327  1.8969
14078SOL     OW44675   9.340   4.182   6.702  1.1251  0.1951 -0.4115
14078SOL    HW144676   9.260   4.131   6.691  0.9943  0.3053  0.0244
14078SOL    HW244677   9.327   4.230   6.783  0.8132  1.7157 -1.3209
14079SOL     OW44678   6.670  10.346   8.794  0.2157  0.3787 -0.3458
14079SOL    HW144679   6.603  10.412   8.810  0.2832  0.4698 -0.4397
14079SOL    HW244680   6.704  10.325   8.881 -0.8224 -0.6095 -0.1521
14080SOL     OW44681   8.558   0.727   0.621  0.4080  0.2142 -0.2712
14080SOL    HW144682   8.515   0.650   0.583 -0.0777  0.8967 -1.1567
14080SOL    HW244683   8.492   0.766   0.678  1.1290 -0.7925  1.2982
14081SOL     OW44684   0.016   9.939   1.546 -0.1775  0.6004  0.9220
14081SOL    HW144685   0.086   9.981   1.596 -0.9875  1.2383  1.5533
14081SOL    HW244686   0.006   9.994   1.468 -0.3511  0.8302  1.1059
14082SOL     OW44687   2.562   6.611   3.793  0.2789 -0.6032 -0.2784
14082SOL    HW144688   2.585   6.702   3.810 -0.1605 -0.6184  0.4735
14082SOL    HW244689   2.638   6.574   3.748 -0.2849  0.6288 -2.3776
14083SOL     OW44690   4.454   9.298   6.151 -0.0221 -0.3936 -0.0283
14083SOL    HW144691   4.503   9.216   6.138  1.6850  0.2820  1.6697
14083SOL    HW244692   4.492   9.336   6.230 -1.7091  1.3974 -0.0142
14084SOL     OW44693   4.814   5.212   6.409  0.4877 -0.6587  0.0698
14084SOL    HW144694   4.856   5.127   6.422  0.0385 -1.1887 -1.7690
14084SOL    HW244695   4.726   5.191   6.377  0.1057  0.5008  0.3106
14085SOL     OW44696   8.591   8.800   0.367 -0.0833  0.4993  0.0868
14085SOL    HW144697   8.552   8.857   0.433 -0.8060  1.4081 -1.0900
14085SOL    HW244698   8.679   8.835   0.354  1.1244 -1.3662  2.5187
14086SOL     OW44699   5.611   3.924   8.899 -0.0115  0.5513 -0.4400
14086SOL    HW144700   5.577   3.954   8.983  1.9133  0.8170  0.2939
14086SOL    HW244701   5.584   3.832   8.894 -1.5274  0.9651 -0.3150
14087SOL     OW44702   9.565   9.143   1.007 -0.2119 -0.1375 -0.4404
14087SOL    HW144703   9.605   9.057   0.998 -2.3755 -1.3950  0.8803
14087SOL    HW244704   9.631   9.204   0.976  1.2224 -2.2924 -1.8850
14088SOL     OW44705   0.596   5.077   4.474  0.1316  0.3678 -0.1435
14088SOL    HW144706   0.591   5.051   4.382 -1.5879 -0.2438  0.0715
14088SOL    HW244707   0.621   5.169   4.471  0.0269  0.3834 -1.2337
14089SOL     OW44708   2.591   2.905   8.368 -0.6021 -0.3197 -0.2224
14089SOL    HW144709   2.595   2.903   8.273 -0.6685 -1.7964 -0.2155
14089SOL    HW244710   2.633   2.988   8.392  0.4408 -0.4488 -1.4889
14090SOL     OW44711   3.654   1.734   6.797 -0.1232  0.6803 -0.0634
14090SOL    HW144712   3.639   1.663   6.858  1.0627 -0.5511 -1.1290
14090SOL    HW244713   3.578   1.791   6.806 -2.0121 -1.6294 -0.4103
14091SOL     OW44714   0.242   4.770   4.751 -0.4458  0.2256  0.4019
14091SOL    HW144715   0.232   4.712   4.827  0.7500 -1.3637 -0.5720
14091SOL    HW244716   0.337   4.776   4.738 -0.5008 -2.5769 -3.0298
14092SOL     OW44717   0.884   2.480   0.743  0.3490  0.5232 -0.1214
14092SOL    HW144718   0.887   2.556   0.684  0.1755  1.3456  0.8957
14092SOL    HW244719   0.862   2.517   0.828 -0.6268 -0.7910  0.2292
14093SOL     OW44720   8.964   6.210   1.970 -0.5092 -0.0298 -0.1086
14093SOL    HW144721   8.917   6.277   1.922 -1.1083 -1.0761 -1.0215
14093SOL    HW244722   9.055   6.240   1.972 -0.5074  0.1257 -1.7408
14094SOL     OW44723   3.082   7.307   2.400  0.3030  0.1420 -0.0714
14094SOL    HW144724   3.173   7.330   2.383  0.4563  0.5128  1.1782
14094SOL    HW244725   3.053   7.367   2.469 -0.7230 -0.3206 -0.0678
14095SOL     OW44726   5.853   1.528   0.488 -0.1268  0.5047 -0.1114
14095SOL    HW144727   5.876   1.455   0.430 -2.1760 -1.4493  1.3600
14095SOL    HW244728   5.914   1.520   0.561 -0.6593 -0.0843  0.2813
14096SOL     OW44729   4.884   8.902  10.105  0.4134  0.0583 -0.4754
14096SOL    HW144730   4.839   8.859  10.178  0.4597 -0.5421 -0.7999
14096SOL    HW244731   4.874   8.996  10.123  0.7975 -0.0772  0.5394
14097SOL     OW44732   6.658  10.258   4.082 -0.1689 -0.3583  0.5614
14097SOL    HW144733   6.711  10.296   4.012 -0.9852 -0.4676 -0.1306
14097SOL    HW244734   6.611  10.332   4.119 -0.3492 -0.4161  0.4504
14098SOL     OW44735   7.795   4.126   0.382  0.3453  0.1452  0.7110
14098SOL    HW144736   7.864   4.162   0.327  0.5541  0.3457  1.0989
14098SOL    HW244737   7.840   4.097   0.462  0.4205 -2.3398 -0.1611
14099SOL     OW44738   3.204   8.704   6.649 -0.2071  0.1591  0.1056
14099SOL    HW144739   3.120   8.693   6.603 -0.8237 -1.3416  1.5165
14099SOL    HW244740   3.188   8.669   6.736  2.3137 -1.6245 -0.0500
14100SOL     OW44741   5.214   9.604   9.674 -0.6211 -0.4925  0.1698
14100SOL    HW144742   5.218   9.547   9.597 -1.7787  1.2537 -1.2633
14100SOL    HW244743   5.306   9.624   9.693 -0.2790 -1.5677 -0.2678
14101SOL     OW44744   9.889   4.111   1.309  0.4430 -0.4492 -0.1529
14101SOL    HW144745   9.915   4.193   1.267  1.4493 -0.6122  0.1343
14101SOL    HW244746   9.879   4.049   1.236 -3.3293  0.5976 -0.7601
14102SOL     OW44747   8.697   1.045   5.326  0.0412 -0.4873  0.8735
14102SOL    HW144748   8.705   0.992   5.247 -1.0416 -0.7724  0.9485
14102SOL    HW244749   8.780   1.031   5.372  1.0094  0.2942 -0.5672
14103SOL     OW44750   8.454   2.629   9.278 -0.3904 -0.6914 -0.5148
14103SOL    HW144751   8.421   2.545   9.308 -1.6911 -0.4756 -1.2771
14103SOL    HW244752   8.539   2.608   9.238 -0.5019 -1.5614 -0.3157
14104SOL     OW44753   5.036   2.475   5.537  0.2111  0.4652  0.3439
14104SOL    HW144754   5.061   2.504   5.625  0.2288  1.6509 -0.0470
14104SOL    HW244755   5.119   2.453   5.495  0.1889 -0.3014  0.6734
14105SOL     OW44756   6.822   2.622   8.081 -0.2725 -0.0385  0.5689
14105SOL    HW144757   6.854   2.578   8.002 -2.5962  1.5883 -1.4182
14105SOL    HW244758   6.886   2.692   8.096 -0.5399  0.5308 -0.7867
14106SOL     OW44759   0.337   0.940   6.098 -0.1068  0.1820 -0.6744
14106SOL    HW144760   0.325   0.934   6.003 -0.0848  0.5690 -0.7006
14106SOL    HW244761   0.383   1.022   6.112  0.8618 -0.3944 -0.4172
14107SOL     OW44762   5.744   2.250   5.083  0.3443 -0.2775  0.4528
14107SOL    HW144763   5.716   2.207   5.164  0.6147  0.3090  0.8627
14107SOL    HW244764   5.683   2.323   5.072  0.9547  0.2822  0.7018
14108SOL     OW44765   8.203   7.592   6.092  0.1607 -0.0096  0.3511
14108SOL    HW144766   8.221   7.572   6.000  0.2948  0.4583  0.2725
14108SOL    HW244767   8.268   7.541   6.141  2.0605  1.9927  0.0502
14109SOL     OW44768   8.795   8.185   2.095  0.4902 -0.6651  0.0551
14109SOL    HW144769   8.760   8.269   2.065  1.1973 -0.7758 -1.1502
14109SOL    HW244770   8.818   8.200   2.187 -1.8571 -0.3455  0.6445
14110SOL     OW44771   1.034   1.617   9.994 -0.2437  0.5586 -0.0224
14110SOL    HW144772   1.031   1.525   9.969 -1.2478  1.0980 -2.0778
14110SOL    HW244773   0.952   1.632  10.041 -0.3967  0.5611 -0.2902
14111SOL     OW44774   9.417   4.489   7.195  0.2990  0.4861  0.1625
14111SOL    HW144775   9.435   4.400   7.226 -2.2525 -0.7376 -1.4966
14111SOL    HW244776   9.352   4.523   7.256  0.5986  0.8630  0.2725
14112SOL     OW44777   2.758   5.022   5.249 -0.4700 -0.1687 -0.7648
14112SOL    HW144778   2.672   4.994   5.218 -0.6972  1.1247 -1.3577
14112SOL    HW244779   2.739   5.088   5.315  0.0724 -0.5234 -0.2417
14113SOL     OW44780   0.712   7.085  10.050  0.3711  0.0876 -0.4993
14113SOL    HW144781   0.713   7.071  10.145 -2.4460 -0.1400 -0.4019
14113SOL    HW244782   0.710   7.180  10.039 -0.2940  0.1075 -0.2571
14114SOL     OW44783  10.289   7.907   8.878  0.2831 -0.6516 -0.0632
14114SOL    HW144784  10.195   7.912   8.860  0.4662  0.5815 -0.7776
14114SOL    HW244785  10.314   7.996   8.904  1.2060 -1.0246  0.4039
14115SOL     OW44786   2.972   6.798   4.526  0.4105  0.6007  0.3526
14115SOL    HW144787   2.951   6.834   4.613  1.4581  0.1726  0.8006
14115SOL    HW244788   2.981   6.704   4.540  1.0671  0.5851 -0.1156
14116SOL     OW44789   4.989   0.338   2.176 -0.0056  0.1815 -0.7648
14116SOL    HW144790   4.970   0.308   2.264 -0.9005 -0.1346 -1.0515
14116SOL    HW244791   5.066   0.394   2.185  0.2405 -0.2924  0.1258
14117SOL     OW44792   8.507   9.973   4.667 -0.1829  0.3400 -0.0768
14117SOL    HW144793   8.597   9.980   4.698 -0.2109 -0.3819  0.2012
14117SOL    HW244794   8.505  10.020   4.584  0.6684 -0.3995 -0.5282
14118SOL     OW44795   2.896   2.935   2.614 -0.1281 -0.0159  0.2559
14118SOL    HW144796   2.907   2.884   2.694 -1.3272 -1.8285 -0.6601
14118SOL    HW244797   2.967   2.907   2.557 -0.5757 -0.4236 -0.1157
14119SOL     OW44798   4.927   7.575   0.271  0.5093  0.1029  0.1094
14119SOL    HW144799   4.901   7.665   0.254  1.5248  0.1770 -1.2848
14119SOL    HW244800   4.847   7.531   0.301 -0.5702  0.9233 -1.4325
14120SOL     OW44801   9.530   4.223   3.643 -0.8897  0.9875 -0.3035
14120SOL    HW144802   9.527   4.229   3.738  0.4221  1.8444 -0.2819
14120SOL    HW244803   9.461   4.281   3.613 -0.6404  1.5174  0.1266
14121SOL     OW44804   1.666   8.706   3.952 -0.0447  0.0974  0.1768
14121SOL    HW144805   1.655   8.798   3.931 -1.1046  0.2008  1.1030
14121SOL    HW244806   1.760   8.695   3.965  0.1670  0.8868 -0.6280
14122SOL     OW44807   2.583   6.242   1.772  0.3126 -0.2524 -0.3642
14122SOL    HW144808   2.602   6.246   1.678  1.8297 -2.1951 -0.2124
14122SOL    HW244809   2.669   6.240   1.814 -0.3111  1.9569  1.2262
14123SOL     OW44810   8.812   0.028   9.890 -0.3626 -0.2835 -0.1012
14123SOL    HW144811   8.832   0.067   9.974 -1.0619 -1.0807  0.4514
14123SOL    HW244812   8.897   0.012   9.850 -0.0174 -0.0950  0.5513
14124SOL     OW44813   2.239   4.165  10.381 -0.2367 -0.3465  0.1823
14124SOL    HW144814   2.152   4.188  10.416 -0.1491  0.6318 -0.2180
14124SOL    HW244815   2.295   4.158  10.459  0.2298  2.9690  0.2546
14125SOL     OW44816   3.015   7.271   9.948 -0.0115 -0.3720  0.0213
14125SOL    HW144817   3.074   7.263  10.023 -0.9485  0.2326  0.8436
14125SOL    HW244818   2.929   7.288   9.986 -0.7211 -1.1351 -1.1585
14126SOL     OW44819   6.286   9.342   5.704 -0.3195  0.4229 -0.0540
14126SOL    HW144820   6.308   9.435   5.707  0.8052  0.1665 -0.0812
14126SOL    HW244821   6.210   9.337   5.646 -0.4958  1.3356  0.0878
14127SOL     OW44822   1.789   4.898   2.267 -0.1272 -0.2137  0.0297
14127SOL    HW144823   1.725   4.969   2.272  0.6839  0.5736 -0.4948
14127SOL    HW244824   1.846   4.912   2.343  0.3632  0.0320 -0.3781
14128SOL     OW44825   5.387   4.260   9.031  0.2480 -0.3398 -0.2133
14128SOL    HW144826   5.347   4.220   8.954  0.1524 -0.2490 -0.2113
14128SOL    HW244827   5.313   4.290   9.084  0.3161 -0.2675 -0.1589
14129SOL     OW44828   5.445   5.784   8.096 -0.0516  0.4128 -0.3145
14129SOL    HW144829   5.382   5.797   8.025 -1.3406 -0.9176  0.5216
14129SOL    HW244830   5.521   5.743   8.055 -0.8381 -0.4584 -0.9236
14130SOL     OW44831  10.432  10.115   2.820  0.3078 -0.3337 -0.0494
14130SOL    HW144832  10.475  10.052   2.878 -0.8545  0.0781  1.2971
14130SOL    HW244833  10.480  10.108   2.737  1.7591 -1.1981  0.8387
14131SOL     OW44834   0.264   4.866   0.001 -0.5170  0.0315  1.0595
14131SOL    HW144835   0.199   4.929  -0.030 -0.4247  0.6767  2.1383
14131SOL    HW244836   0.222   4.823   0.076 -0.1449 -0.3876  1.0288
14132SOL     OW44837   0.732   2.925  10.016  0.5127  0.0455 -0.0628
14132SOL    HW144838   0.738   2.849   9.959 -0.2065  0.1722 -0.3306
14132SOL    HW244839   0.669   2.983   9.972 -1.0644 -0.4111  1.4682
14133SOL     OW44840   7.888   8.982   5.943 -0.0594  0.1302 -0.1329
14133SOL    HW144841   7.873   8.889   5.926  0.1904  0.0648  0.0066
14133SOL    HW244842   7.933   9.014   5.864 -0.3322  0.1802 -0.2688
14134SOL     OW44843   3.932   3.908  10.385 -0.1910  0.2460  0.1299
14134SOL    HW144844   3.909   3.965  10.312 -1.1077 -0.9922 -0.5977
14134SOL    HW244845   3.886   3.826  10.366  1.7792 -1.0528  0.6341
14135SOL     OW44846   3.254   5.734   9.690  0.4932 -0.3772  0.0713
14135SOL    HW144847   3.347   5.756   9.678  0.4222 -0.7291 -1.2504
14135SOL    HW244848   3.213   5.755   9.607 -0.1331 -2.5818 -0.2365
14136SOL     OW44849   7.074   1.843   1.695 -0.0924 -0.3266  0.2330
14136SOL    HW144850   7.084   1.825   1.789  0.6014  1.7170  0.6111
14136SOL    HW244851   7.154   1.890   1.671 -1.3849  1.5292 -0.7033
14137SOL     OW44852   7.324   9.168   4.786 -0.0258  0.2111 -0.5515
14137SOL    HW144853   7.392   9.235   4.783 -1.3892  1.6213 -1.3848
14137SOL    HW244854   7.368   9.088   4.756  1.3831  0.9464 -0.5406
14138SOL     OW44855   5.314   5.011   7.707 -0.2974  0.5003 -0.6523
14138SOL    HW144856   5.226   4.985   7.681 -0.1932 -0.1658 -0.3731
14138SOL    HW244857   5.303   5.049   7.795 -0.3640  0.8306 -0.8020
14139SOL     OW44858   2.750   2.077   9.764 -0.2040  0.5506 -0.0676
14139SOL    HW144859   2.659   2.103   9.781  0.1092  0.2583  2.4703
14139SOL    HW244860   2.796   2.096   9.846  1.3699 -2.1217 -0.2137
14140SOL     OW44861   0.806   0.644   8.244 -0.3254  0.2235  0.1101
14140SOL    HW144862   0.814   0.566   8.299 -1.5523 -0.0107 -0.0148
14140SOL    HW244863   0.893   0.657   8.208 -0.3029 -1.6278 -0.6061
14141SOL     OW44864   6.339   4.004   8.039 -0.3240 -0.1709  0.7924
14141SOL    HW144865   6.326   4.088   7.994 -2.9821 -2.1592 -2.6816
14141SOL    HW244866   6.352   4.028   8.131  0.5358  4.0506 -0.1914
14142SOL     OW44867   1.830   5.633   6.244  0.2570  0.3050 -0.0616
14142SOL    HW144868   1.905   5.574   6.238 -1.3195 -1.8913  0.5104
14142SOL    HW244869   1.804   5.629   6.336 -1.0340  0.3942 -0.4099
14143SOL     OW44870   5.959   6.220   9.856 -0.1208  0.1550  0.3404
14143SOL    HW144871   6.000   6.278   9.792 -0.5496 -0.1779 -0.2349
14143SOL    HW244872   5.909   6.278   9.913 -0.7841  0.3357 -0.4090
14144SOL     OW44873   4.126   6.922   2.653 -0.1824 -0.0386  0.1178
14144SOL    HW144874   4.189   6.994   2.651  0.0261 -0.2092  0.5492
14144SOL    HW244875   4.144   6.873   2.573 -0.8195  0.8022 -0.5621
14145SOL     OW44876   8.478   9.294   6.871 -0.0738  0.0721  0.4855
14145SOL    HW144877   8.408   9.358   6.884  0.0018  0.5273 -1.2086
14145SOL    HW244878   8.505   9.270   6.960 -1.9883  0.2990  1.1653
14146SOL     OW44879   5.366   1.097   1.690  0.4905  0.3125 -0.0530
14146SOL    HW144880   5.279   1.096   1.730  0.7551 -1.2405  0.5597
14146SOL    HW244881   5.419   1.041   1.747  1.8290  1.0223 -0.5651
14147SOL     OW44882   7.583   5.227  10.429 -0.8789  0.0441  0.2377
14147SOL    HW144883   7.647   5.216  10.358 -0.9674 -1.5584  0.3622
14147SOL    HW244884   7.554   5.318  10.421 -0.3899  0.1019 -1.3588
14148SOL     OW44885   1.617   0.939   8.780 -0.5561  0.3110 -0.0752
14148SOL    HW144886   1.647   0.848   8.767 -0.6009 -0.0026  1.7433
14148SOL    HW244887   1.671   0.990   8.720 -0.1844 -0.8686 -0.7832
14149SOL     OW44888   0.995   7.940   4.975 -0.2280  0.3942  0.0190
14149SOL    HW144889   0.904   7.930   4.948 -0.4306 -0.8619  1.0525
14149SOL    HW244890   1.039   7.978   4.899 -1.3171 -0.3845 -1.0411
14150SOL     OW44891   8.237   1.218   5.033  1.0106 -0.2817  0.3397
14150SOL    HW144892   8.274   1.306   5.035 -1.0575  0.7051 -1.2655
14150SOL    HW244893   8.309   1.162   5.003  1.3349  1.5222 -2.5623
14151SOL     OW44894   0.049   2.556   4.014  0.0947 -0.0644 -0.5733
14151SOL    HW144895   0.110   2.530   4.083 -0.8055 -0.6197  0.0401
14151SOL    HW244896   0.053   2.651   4.012  0.3185 -0.0595  0.0696
14152SOL     OW44897   9.362   8.988   5.569 -0.3175  0.0878 -0.3684
14152SOL    HW144898   9.317   9.072   5.568  2.3963  1.6560 -0.9394
14152SOL    HW244899   9.331   8.942   5.491 -1.8223  0.5285 -0.0546
14153SOL     OW44900   0.673   6.790   4.594  0.3489  0.2193 -0.0834
14153SOL    HW144901   0.595   6.791   4.649 -0.0813 -0.2015 -0.6835
14153SOL    HW244902   0.745   6.809   4.655  0.0713 -1.7926  0.9371
14154SOL     OW44903   1.987   1.414   3.769  0.0537 -0.8184  0.1953
14154SOL    HW144904   1.980   1.357   3.692  0.1940  1.1036 -1.3189
14154SOL    HW244905   2.081   1.430   3.778 -0.0281 -0.3196  0.1920
14155SOL     OW44906   3.238   3.977   2.636 -0.3273 -1.0738  0.5522
14155SOL    HW144907   3.194   3.943   2.558 -1.9778  0.1023  0.9037
14155SOL    HW244908   3.199   3.929   2.709  0.4433 -1.4208  0.7467
14156SOL     OW44909   0.614   7.537   5.205 -0.2526  0.3966  0.0109
14156SOL    HW144910   0.645   7.574   5.123 -0.8090 -1.4496 -1.0960
14156SOL    HW244911   0.583   7.449   5.182  1.6207 -1.0794  2.5666
14157SOL     OW44912   5.704   3.025   4.504 -0.1266  0.2003 -0.2869
14157SOL    HW144913   5.619   2.985   4.524 -0.5714  0.9555 -0.6129
14157SOL    HW244914   5.741   2.970   4.435 -0.5188  0.0723 -0.3973
14158SOL     OW44915   7.234   4.125   7.797  0.2435  0.1839  0.5244
14158SOL    HW144916   7.324   4.093   7.789  0.6255  0.6538  2.4567
14158SOL    HW244917   7.235   4.210   7.752  0.7785  0.2044  0.5661
14159SOL     OW44918   9.820   1.582   2.195  0.2318  0.0518 -0.4304
14159SOL    HW144919   9.850   1.503   2.151  0.4394  0.9264 -1.9071
14159SOL    HW244920   9.786   1.638   2.125 -0.6517  0.9605  0.6692
14160SOL     OW44921   9.890  10.264   0.287 -0.7934 -0.4297 -0.6178
14160SOL    HW144922   9.939  10.272   0.206 -0.5589 -1.7136 -0.6122
14160SOL    HW244923   9.953  10.232   0.351 -1.3068 -0.7738 -0.2713
14161SOL     OW44924   7.790   0.598   2.081 -0.0303  0.0442 -0.2017
14161SOL    HW144925   7.794   0.515   2.129 -1.2265  0.0715 -0.0198
14161SOL    HW244926   7.712   0.641   2.115  1.1107  1.7067  0.4231
14162SOL     OW44927   3.231   5.434   2.816 -0.4407  0.0608 -0.2444
14162SOL    HW144928   3.213   5.425   2.909 -1.1295 -0.0699 -0.3828
14162SOL    HW244929   3.236   5.528   2.801 -2.5089  0.1938 -0.4444
14163SOL     OW44930   4.035   2.295   8.972  0.7294  0.4271 -0.6325
14163SOL    HW144931   3.943   2.282   8.994  0.7647 -0.0571 -0.7537
14163SOL    HW244932   4.073   2.340   9.048  0.7663 -0.8660  0.1511
14164SOL     OW44933   9.720   3.322   7.359 -0.8112 -0.7881  0.2201
14164SOL    HW144934   9.775   3.311   7.436 -2.0811 -0.5263  1.2104
14164SOL    HW244935   9.752   3.257   7.296  1.0223 -0.1846  0.4878
14165SOL     OW44936   1.867   4.006   0.508  0.1780  0.3396  0.0109
14165SOL    HW144937   1.791   3.995   0.565 -0.9972  0.5407 -1.4318
14165SOL    HW244938   1.889   4.099   0.516 -1.1106  0.7820 -1.1522
14166SOL     OW44939   3.088   2.204   2.943 -0.1296 -0.2655  0.1727
14166SOL    HW144940   3.160   2.219   2.881  0.3220 -1.9558  0.2396
14166SOL    HW244941   3.093   2.278   3.003  1.6437 -0.3842  0.2252
14167SOL     OW44942   0.218   8.987   9.338  0.1636 -0.0078 -0.5169
14167SOL    HW144943   0.155   8.972   9.268 -0.9886  0.6320  0.3572
14167SOL    HW244944   0.257   9.073   9.317  2.1370 -1.1871 -2.0512
14168SOL     OW44945   5.604   4.473   6.303 -0.3449  0.6059 -0.1839
14168SOL    HW144946   5.589   4.539   6.235  0.2442 -0.3357 -1.2505
14168SOL    HW244947   5.522   4.425   6.309 -1.0196  1.8328  1.0916
14169SOL     OW44948   9.253   4.404   5.667  0.4940 -0.4502  0.0796
14169SOL    HW144949   9.158   4.407   5.674  0.3407 -1.6173 -1.1655
14169SOL    HW244950   9.284   4.411   5.758 -0.7476  0.3236  0.4615
14170SOL     OW44951   0.958   2.715   2.489  0.0304  0.0583 -0.0686
14170SOL    HW144952   0.965   2.791   2.431  1.4451 -1.2143 -1.6204
14170SOL    HW244953   0.992   2.747   2.573  2.3470  0.6846 -1.1699
14171SOL     OW44954   7.163   9.962   8.846  0.1981  0.4453 -0.0856
14171SOL    HW144955   7.217   9.887   8.824  0.2857  0.6472 -0.5731
14171SOL    HW244956   7.074   9.935   8.823  0.1906  0.3865  0.0111
14172SOL     OW44957   2.812   5.226   3.691 -0.2029 -0.0266  0.8487
14172SOL    HW144958   2.810   5.317   3.660  0.4304 -0.0786  0.6333
14172SOL    HW244959   2.880   5.226   3.759  0.7339 -0.6035 -0.0536
14173SOL     OW44960  10.395   7.827   0.748 -0.3990  0.2789 -0.2034
14173SOL    HW144961  10.446   7.908   0.739  1.7563 -1.0048 -0.1560
14173SOL    HW244962  10.398   7.807   0.841  0.8482 -0.8923 -0.4612
14174SOL     OW44963   0.290   2.180   5.372  0.4973 -0.0065  0.2670
14174SOL    HW144964   0.335   2.256   5.336  0.9715  0.4875  1.8126
14174SOL    HW244965   0.210   2.172   5.320  0.6504  1.2890 -0.2048
14175SOL     OW44966   6.318   3.772   3.948 -0.0226  0.0459 -0.3338
14175SOL    HW144967   6.248   3.814   3.998 -0.0515  0.2900 -0.5769
14175SOL    HW244968   6.391   3.766   4.011  0.1465  0.9154 -0.4287
14176SOL     OW44969  10.216   0.300   1.280 -0.1752 -0.3526 -0.1785
14176SOL    HW144970  10.161   0.356   1.225 -0.1921 -0.9702 -0.8117
14176SOL    HW244971  10.298   0.348   1.289 -0.1887 -0.2214 -0.7136
14177SOL     OW44972   4.614   1.358   5.786  0.0400  0.1330  0.3450
14177SOL    HW144973   4.680   1.291   5.807  0.8814  0.3275 -1.5139
14177SOL    HW244974   4.664   1.431   5.749 -1.1024  0.8213  0.0954
14178SOL     OW44975   9.798   5.245   8.822 -0.7956 -0.2132  0.0299
14178SOL    HW144976   9.834   5.194   8.749 -0.6755  0.9494 -0.7431
14178SOL    HW244977   9.708   5.264   8.795 -0.5376  0.8015 -0.1365
14179SOL     OW44978   8.369   6.987   1.700  0.1203  0.2983  0.2574
14179SOL    HW144979   8.351   7.065   1.648 -0.0833 -0.7513 -1.3452
14179SOL    HW244980   8.291   6.932   1.688  0.4206 -0.3107  1.0242
14180SOL     OW44981   1.963   4.809   2.067 -0.6569 -0.2343 -0.2805
14180SOL    HW144982   1.894   4.854   2.115 -2.0643 -0.7189 -1.7742
14180SOL    HW244983   1.936   4.717   2.068  1.4887 -0.9401  1.5874
14181SOL     OW44984   6.281   3.796   2.844 -0.1930  0.4919 -0.1390
14181SOL    HW144985   6.255   3.856   2.914 -1.5658  0.6189 -0.7243
14181SOL    HW244986   6.348   3.741   2.883 -1.2147  0.2956  1.4240
14182SOL     OW44987   8.755   7.632   4.668 -0.1868 -0.0911 -0.5924
14182SOL    HW144988   8.689   7.585   4.618 -0.8604 -0.4441  0.5870
14182SOL    HW244989   8.724   7.722   4.670  0.8428  0.3557 -2.4167
14183SOL     OW44990   7.831   7.217   2.058  0.3395 -0.3804 -0.4642
14183SOL    HW144991   7.862   7.162   2.131  1.3233  0.7436  0.0059
14183SOL    HW244992   7.774   7.281   2.099 -1.3942 -1.4558 -1.1170
14184SOL     OW44993   2.004   5.762   4.520  0.1173 -0.0567 -0.2766
14184SOL    HW144994   1.949   5.817   4.578 -0.4445 -0.1132 -0.7460
14184SOL    HW244995   1.945   5.692   4.492  0.7009 -0.6341 -0.0623
14185SOL     OW44996   4.585   4.648   0.118  0.0836 -0.2296 -0.3844
14185SOL    HW144997   4.572   4.554   0.112  2.2236 -0.4957 -2.4458
14185SOL    HW244998   4.532   4.684   0.047  0.4286 -0.0551 -0.5594
14186SOL     OW44999   5.048   0.275   7.583  0.7765  0.0525  0.5908
14186SOL    HW145000   5.115   0.280   7.652  1.2632 -0.5020  0.1671
14186SOL    HW245001   5.075   0.341   7.519  1.3382 -0.6728  0.0661
14187SOL     OW45002   6.471   8.238   6.400  0.2609  0.2154 -0.4092
14187SOL    HW145003   6.513   8.211   6.482  1.3702 -2.1192 -1.6464
14187SOL    HW245004   6.542   8.278   6.349  0.4664 -1.4987 -1.5401
14188SOL     OW45005   7.427   8.630   7.957 -0.0381 -0.1323 -0.3310
14188SOL    HW145006   7.348   8.606   7.908 -0.5521  2.5393 -0.9542
14188SOL    HW245007   7.395   8.682   8.030  1.1130  0.6130 -0.3329
14189SOL     OW45008   6.207   3.164   3.020  0.3283 -0.2800  0.2354
14189SOL    HW145009   6.275   3.224   2.992 -2.5548  2.3721 -1.7922
14189SOL    HW245010   6.175   3.200   3.103  0.0366 -0.3083  0.1381
14190SOL     OW45011   6.427   5.716   2.539 -0.2442 -0.3931 -0.0812
14190SOL    HW145012   6.445   5.640   2.484 -0.1248 -0.1482 -0.3803
14190SOL    HW245013   6.487   5.784   2.508 -0.9392  0.0922 -0.3791
14191SOL     OW45014   1.447   2.015   6.100 -0.2388 -0.4040  0.0173
14191SOL    HW145015   1.502   1.960   6.045 -1.4576 -0.6050 -1.0323
14191SOL    HW245016   1.509   2.063   6.156  1.0909  0.2777 -1.9356
14192SOL     OW45017   3.564   0.974   0.748  0.3480  0.1696  0.8658
14192SOL    HW145018   3.479   0.987   0.791  0.4964 -1.4135  1.7462
14192SOL    HW245019   3.544   0.972   0.655 -0.8462 -1.5986  1.1083
14193SOL     OW45020   0.507   1.389   3.175 -0.2198  0.5623 -0.1556
14193SOL    HW145021   0.439   1.422   3.233  0.6124  0.8882  0.6504
14193SOL    HW245022   0.567   1.463   3.163 -0.9468  0.8829 -2.3701
14194SOL     OW45023   4.423   2.172   2.950  0.2680  0.0048  0.6136
14194SOL    HW145024   4.406   2.241   3.014 -0.0379 -1.0950  1.7612
14194SOL    HW245025   4.338   2.128   2.939  0.7568 -1.0688  0.9962
14195SOL     OW45026   4.045   1.177   4.908  0.2572 -0.5127  0.2380
14195SOL    HW145027   4.060   1.082   4.914 -1.1443 -0.8366 -0.9331
14195SOL    HW245028   3.961   1.191   4.951  0.6819  0.2959  0.8340
14196SOL     OW45029   7.792   0.600   9.612 -0.0578  0.3063 -0.3260
14196SOL    HW145030   7.719   0.615   9.672  0.4624  0.7899  0.1936
14196SOL    HW245031   7.752   0.555   9.537 -1.3733  2.6466 -1.1677
14197SOL     OW45032   5.551   5.951   5.278  0.0824 -0.1009 -0.0309
14197SOL    HW145033   5.616   5.889   5.310 -0.5564 -0.4143  0.6914
14197SOL    HW245034   5.578   6.035   5.317 -1.1267 -0.6138  2.0667
14198SOL     OW45035   8.840   1.761   3.656 -0.2457 -0.1066 -0.1124
14198SOL    HW145036   8.854   1.751   3.750  1.2206  0.5785 -0.2284
14198SOL    HW245037   8.805   1.677   3.628 -1.4463 -0.0704  1.1594
14199SOL     OW45038   3.836   1.966   7.516 -0.0254 -0.5981 -0.0441
14199SOL    HW145039   3.857   1.932   7.429  0.5670  1.0074 -0.5779
14199SOL    HW245040   3.916   1.954   7.567  0.5837  0.9547 -0.5767
14200SOL     OW45041   5.828   2.941   6.372  0.1059  0.2953 -0.0228
14200SOL    HW145042   5.790   3.008   6.315  0.6631  0.4993 -0.1561
14200SOL    HW245043   5.768   2.937   6.447  0.8320  1.9903  0.6916
14201SOL     OW45044   5.607   6.091   3.509  0.2402  0.5456  0.7247
14201SOL    HW145045   5.540   6.126   3.451  0.0144  0.8534  1.1618
14201SOL    HW245046   5.650   6.169   3.546  1.1721  0.3589  0.0720
14202SOL     OW45047   6.028   1.093   5.222 -0.0570  0.1025 -0.4590
14202SOL    HW145048   5.996   1.167   5.169 -1.3267  1.5437  2.0910
14202SOL    HW245049   6.123   1.105   5.225 -0.1916  1.3910 -0.4933
14203SOL     OW45050   8.332   3.365   0.490 -0.1709  0.1921  0.0658
14203SOL    HW145051   8.309   3.420   0.416 -0.0237  0.5386  0.2762
14203SOL    HW245052   8.333   3.276   0.455  0.2670  0.3929 -0.4323
14204SOL     OW45053   9.251   0.814   4.366  0.6118  0.4196  0.2340
14204SOL    HW145054   9.289   0.792   4.281  0.1077  3.1683 -0.8323
14204SOL    HW245055   9.299   0.893   4.394 -1.4514  1.5413  0.8180
14205SOL     OW45056   9.851   3.202   7.129  0.4694 -0.0116 -0.1811
14205SOL    HW145057   9.897   3.142   7.188  0.0955 -0.0364  0.0883
14205SOL    HW245058   9.914   3.222   7.060  1.6797  1.7106  1.3405
14206SOL     OW45059   6.800   1.033   2.673 -0.5379 -0.2082  0.2003
14206SOL    HW145060   6.709   1.020   2.644 -0.1863 -1.8654 -0.2889
14206SOL    HW245061   6.805   0.985   2.756 -0.0195 -0.4552  0.0296
14207SOL     OW45062   5.688   9.945   7.577 -0.1817 -0.5793  0.4847
14207SOL    HW145063   5.704  10.039   7.573 -1.6500 -0.3186  0.2725
14207SOL    HW245064   5.690   9.924   7.671 -0.0263 -0.3169  0.5399
14208SOL     OW45065   8.388   3.909   8.494  0.1479 -0.0522  0.0120
14208SOL    HW145066   8.463   3.900   8.435  1.2077  0.7803  1.1830
14208SOL    HW245067   8.336   3.831   8.479  0.0459  0.4211 -2.4727
14209SOL     OW45068   7.339   8.856   1.054 -0.5803  0.6443 -0.3294
14209SOL    HW145069   7.424   8.897   1.040 -0.2982  0.9121  1.8067
14209SOL    HW245070   7.355   8.790   1.122 -2.0560  0.6459  0.0563
14210SOL     OW45071   9.528   1.653   3.204 -0.1612 -0.7634 -0.2050
14210SOL    HW145072   9.598   1.697   3.156 -0.2623 -0.8925 -0.4699
14210SOL    HW245073   9.448   1.675   3.156 -0.7834  2.0426  1.8427
14211SOL     OW45074   0.911   4.982   2.671  0.4933  0.0013 -0.0373
14211SOL    HW145075   0.972   5.004   2.600 -0.0039 -0.2927 -0.5618
14211SOL    HW245076   0.898   4.887   2.664 -0.3525  0.1208 -0.1962
14212SOL     OW45077   5.698   7.011   1.021  0.2888  0.3185  0.1662
14212SOL    HW145078   5.750   6.966   1.087  1.0686 -0.6190 -1.0349
14212SOL    HW245079   5.607   6.998   1.050  0.6381  0.7213  1.5132
14213SOL     OW45080   8.303   3.083   6.533 -0.4540  0.0647  0.0741
14213SOL    HW145081   8.362   3.130   6.591 -1.0909  0.6846  0.2256
14213SOL    HW245082   8.336   2.993   6.534  0.8423  0.5088 -0.3093
14214SOL     OW45083   3.104   9.886   5.023  0.3239 -0.5547 -0.0944
14214SOL    HW145084   3.160   9.809   5.036 -1.4406 -2.3038 -2.0599
14214SOL    HW245085   3.114   9.908   4.931  0.3859  1.3261  0.3117
14215SOL     OW45086   7.833   8.746   5.814 -0.0251  0.3846 -0.0343
14215SOL    HW145087   7.901   8.679   5.815 -0.5560 -0.2170 -1.4940
14215SOL    HW245088   7.793   8.739   5.727 -0.1331  2.5815 -0.2264
14216SOL     OW45089   1.254   8.260   4.399 -0.1565  0.0276 -0.1452
14216SOL    HW145090   1.171   8.248   4.353 -0.0950  1.3846 -0.6366
14216SOL    HW245091   1.287   8.171   4.413 -1.4625 -0.4992 -0.3609
14217SOL     OW45092   9.243  10.404   6.728  0.3911 -0.3052  0.1050
14217SOL    HW145093   9.288  10.329   6.690  1.3995  0.3275  0.0368
14217SOL    HW245094   9.156  10.402   6.688  1.0680 -0.2899 -1.4087
14218SOL     OW45095   7.775   8.620   0.265  0.2371  0.2499  0.0636
14218SOL    HW145096   7.827   8.545   0.296 -0.8509  0.0527  1.4984
14218SOL    HW245097   7.838   8.692   0.261  0.6543  0.0385  1.8660
14219SOL     OW45098   4.929   3.201   8.482 -0.4814 -0.4830 -0.3404
14219SOL    HW145099   4.865   3.177   8.549  0.2466 -2.8464 -0.4010
14219SOL    HW245100   5.010   3.157   8.509  0.5864  0.8161 -1.3127
14220SOL     OW45101   5.340   2.589   2.863  0.1802 -0.1094 -0.6797
14220SOL    HW145102   5.254   2.622   2.837  0.6075  0.0884 -1.9116
14220SOL    HW245103   5.324   2.543   2.946 -0.4921  2.7891  0.9405
14221SOL     OW45104   5.677   8.946  10.262 -0.0754 -0.3771 -0.1296
14221SOL    HW145105   5.597   8.946  10.314  0.3037 -0.4956  0.4542
14221SOL    HW245106   5.651   8.987  10.179 -0.8749 -0.9298 -0.1605
14222SOL     OW45107   1.302   6.929  10.224 -0.6238 -0.3969  0.1925
14222SOL    HW145108   1.264   7.016  10.226 -0.3866 -0.2591 -0.8135
14222SOL    HW245109   1.340   6.917  10.311  2.5013  1.9457 -0.6753
14223SOL     OW45110   3.485  10.059   3.344  0.3590 -0.3977 -0.2437
14223SOL    HW145111   3.400  10.026   3.315  0.2129  0.4066 -0.7769
14223SOL    HW245112   3.533  10.075   3.262  0.8534 -0.4112  0.0407
14224SOL     OW45113   9.972   6.125   3.384  0.1023 -0.2567  0.3996
14224SOL    HW145114   9.976   6.199   3.323 -0.2085  1.9871  2.9463
14224SOL    HW245115   9.880   6.102   3.387  0.2023 -0.8225 -0.4153
14225SOL     OW45116   1.726   6.223   9.815  0.0386 -0.5049 -0.0222
14225SOL    HW145117   1.782   6.227   9.738 -0.4253  0.7447 -0.3256
14225SOL    HW245118   1.676   6.142   9.804  0.5436 -0.7449 -0.6243
14226SOL     OW45119   5.467   3.855   4.535  0.1528 -0.4578  0.1974
14226SOL    HW145120   5.388   3.822   4.579 -0.9406 -1.4862 -2.3342
14226SOL    HW245121   5.517   3.777   4.512 -0.0620 -0.1126 -1.6143
14227SOL     OW45122   0.276   0.937   3.223  0.3585 -0.3074 -0.1641
14227SOL    HW145123   0.213   1.003   3.192 -0.0856 -0.5448  0.2233
14227SOL    HW245124   0.332   0.984   3.285 -0.4819 -0.4783  0.7509
14228SOL     OW45125   0.598   4.365   8.702  0.3233  0.4426  0.5375
14228SOL    HW145126   0.551   4.448   8.693 -0.1216  0.3100  1.5017
14228SOL    HW245127   0.657   4.362   8.626  0.4520  1.7112  0.5664
14229SOL     OW45128   4.192   2.164   4.163 -0.0631 -0.0157 -0.2970
14229SOL    HW145129   4.205   2.241   4.219  0.4543 -0.1934 -0.1703
14229SOL    HW245130   4.273   2.157   4.113 -0.0724 -0.5358 -0.2431
14230SOL     OW45131   1.673   1.246   3.772  0.1416  0.5119 -0.1769
14230SOL    HW145132   1.658   1.240   3.678 -0.2194 -1.3840 -0.0489
14230SOL    HW245133   1.762   1.213   3.784 -0.0344  0.1574  0.1887
14231SOL     OW45134   2.953   5.282   8.356  0.6715 -0.4128 -0.3831
14231SOL    HW145135   3.035   5.238   8.380  2.3777  2.0529 -1.2211
14231SOL    HW245136   2.977   5.337   8.281 -1.2518  1.9143  0.5888
14232SOL     OW45137   9.739   3.300   1.116  0.0661  0.0963 -0.3047
14232SOL    HW145138   9.779   3.281   1.031  0.8188  0.2256  0.0139
14232SOL    HW245139   9.745   3.395   1.126 -1.1228  0.2309 -0.6318
14233SOL     OW45140   2.568   3.008   2.829  0.5209  0.0454  0.2670
14233SOL    HW145141   2.567   3.104   2.837 -1.4869  0.0621  0.4575
14233SOL    HW245142   2.591   2.978   2.917 -0.1906  0.3634  0.5728
14234SOL     OW45143   7.250   6.171  10.044  0.2758 -0.3090 -0.2010
14234SOL    HW145144   7.323   6.116  10.072  1.5446  0.7632 -1.2234
14234SOL    HW245145   7.171   6.125  10.073  1.3827 -0.8257  2.1413
14235SOL     OW45146   7.449   4.138   6.551  0.0082 -0.7048  0.1345
14235SOL    HW145147   7.395   4.188   6.490 -0.4781 -1.6394 -0.2197
14235SOL    HW245148   7.523   4.196   6.570 -0.9138  0.4626  0.3446
14236SOL     OW45149   4.303   6.590   2.941  0.6120 -0.1643 -0.3574
14236SOL    HW145150   4.289   6.602   3.035  1.5149 -1.9949  0.0501
14236SOL    HW245151   4.216   6.575   2.905  0.0627  2.0378 -0.1131
14237SOL     OW45152   3.918   2.252   0.540 -0.4786 -0.1193  0.5995
14237SOL    HW145153   3.965   2.335   0.536 -1.7796  0.6190  0.1333
14237SOL    HW245154   3.948   2.203   0.463  0.0820  0.0197  0.7254
14238SOL     OW45155   2.161   5.515   6.505  0.3277  0.2273  0.2932
14238SOL    HW145156   2.183   5.538   6.595 -1.6470  0.8885  0.6469
14238SOL    HW245157   2.125   5.595   6.467  0.8635 -0.1173 -1.0158
14239SOL     OW45158   4.373   0.921   9.995  0.6547 -0.3364 -0.6604
14239SOL    HW145159   4.378   0.899   9.902  2.1816 -1.3358 -0.3886
14239SOL    HW245160   4.319   0.852  10.033  1.9170 -1.2705 -0.4835
14240SOL     OW45161   2.295   4.987   9.243 -0.3483 -0.4276 -0.2505
14240SOL    HW145162   2.259   4.898   9.250  1.6829 -1.3321 -0.3480
14240SOL    HW245163   2.277   5.012   9.152 -2.4758  0.0281  0.2449
14241SOL     OW45164   5.994   9.651   9.980  0.1840 -0.3394  0.1928
14241SOL    HW145165   6.027   9.566  10.008  1.2012 -0.8881 -2.4362
14241SOL    HW245166   6.071   9.697   9.946 -0.6849  0.8594 -0.2243
14242SOL     OW45167   1.295   9.035   8.563 -0.5722 -0.0395  0.0764
14242SOL    HW145168   1.227   9.013   8.499 -1.9313  0.2581  1.3538
14242SOL    HW245169   1.250   9.030   8.648  1.3357 -1.1267  1.0925
14243SOL     OW45170   8.231   2.617   2.180 -0.2776  0.0275 -0.2065
14243SOL    HW145171   8.255   2.681   2.112  1.3568  0.6241  0.8809
14243SOL    HW245172   8.247   2.662   2.262 -1.0133 -1.1260  0.5978
14244SOL     OW45173   9.391   7.669   6.806  0.3017 -0.5076 -0.2787
14244SOL    HW145174   9.312   7.684   6.858 -0.6334 -0.3874 -1.6757
14244SOL    HW245175   9.447   7.616   6.862 -1.2826 -1.6433  0.2953
14245SOL     OW45176   3.744   7.666   4.560 -0.0504  0.5821 -0.0079
14245SOL    HW145177   3.824   7.614   4.549 -0.1769 -0.3239  2.7011
14245SOL    HW245178   3.674   7.608   4.530 -0.0098 -0.0864  1.1592
14246SOL     OW45179   2.820   6.717   6.834  0.1027 -0.2660  0.0444
14246SOL    HW145180   2.789   6.627   6.844 -1.6414  0.4314  1.3363
14246SOL    HW245181   2.749   6.762   6.787  0.5051  0.6632  0.3031
14247SOL     OW45182   4.952   8.382   4.479 -0.0697 -0.3414  0.1974
14247SOL    HW145183   4.965   8.315   4.411  2.3913 -1.0789  1.2920
14247SOL    HW245184   4.915   8.333   4.552  1.4275 -0.4902  0.8851
14248SOL     OW45185   8.681   6.407   9.072 -0.3960  0.2572  0.2587
14248SOL    HW145186   8.715   6.346   9.138  0.5305  2.0995  1.5612
14248SOL    HW245187   8.743   6.400   8.999 -1.7772 -2.2667 -0.8214
14249SOL     OW45188   9.499   5.797   6.627 -0.2075 -0.1935 -0.1578
14249SOL    HW145189   9.507   5.832   6.538 -0.7493  1.2380  0.3250
14249SOL    HW245190   9.412   5.756   6.629  0.0177 -0.6949 -0.4273
14250SOL     OW45191   4.536   4.018   2.029  0.7059 -0.3916 -0.7473
14250SOL    HW145192   4.474   3.986   2.095  1.0625 -1.6288 -0.9747
14250SOL    HW245193   4.489   4.086   1.982  0.1166 -0.1461  0.1679
14251SOL     OW45194   9.429   9.998   6.227 -0.3809 -0.2277 -0.1711
14251SOL    HW145195   9.333   9.994   6.224 -0.3776 -0.0187 -0.7302
14251SOL    HW245196   9.453   9.946   6.303 -0.9460 -0.2018  0.0294
14252SOL     OW45197   2.684   3.921   1.351 -0.3152  0.0142 -0.5481
14252SOL    HW145198   2.649   4.009   1.336 -1.4437 -0.4942 -0.9711
14252SOL    HW245199   2.693   3.915   1.446 -1.2016  0.2321 -0.4419
14253SOL     OW45200   7.829   9.692   9.323 -0.2738 -0.3958  0.7471
14253SOL    HW145201   7.874   9.767   9.362  1.0340 -0.9424  0.3690
14253SOL    HW245202   7.860   9.617   9.374  0.3537 -0.9517 -0.4011
14254SOL     OW45203   4.381   0.707   4.606  0.1965  0.1415 -0.2633
14254SOL    HW145204   4.359   0.800   4.606  1.0146  0.3618  1.1439
14254SOL    HW245205   4.302   0.664   4.640 -0.1490  0.3188 -0.8336
14255SOL     OW45206   4.383   3.137   3.575  0.1690 -0.3688 -0.1958
14255SOL    HW145207   4.335   3.139   3.658  0.3974  2.3472 -0.0395
14255SOL    HW245208   4.380   3.227   3.544 -0.2717 -1.3713 -3.3863
14256SOL     OW45209   3.789   0.783   3.455 -0.3501 -0.0274 -0.1734
14256SOL    HW145210   3.850   0.806   3.385 -0.0450  0.9514  0.3924
14256SOL    HW245211   3.712   0.749   3.409 -0.2574  0.8360 -1.0094
14257SOL     OW45212   4.229   4.209   5.033 -0.0377  0.3302  0.1526
14257SOL    HW145213   4.181   4.129   5.055 -0.6561  0.7007  0.1690
14257SOL    HW245214   4.319   4.192   5.063  0.0471 -0.6893 -0.6113
14258SOL     OW45215   7.970   5.430   4.177  0.0642  0.2156 -0.1884
14258SOL    HW145216   7.981   5.524   4.188  0.9214  0.0170  0.8038
14258SOL    HW245217   8.001   5.392   4.260 -0.2891 -0.9325 -0.5616
14259SOL     OW45218   4.866   2.995   5.738 -0.5789 -0.2052  0.2516
14259SOL    HW145219   4.927   2.950   5.797  0.6296  0.3427 -0.5443
14259SOL    HW245220   4.883   2.957   5.652 -1.3378 -0.0099  0.0052
14260SOL     OW45221   2.887   6.863   2.227  0.5701  0.3284 -0.1380
14260SOL    HW145222   2.857   6.851   2.317  0.1084 -0.4042 -0.3802
14260SOL    HW245223   2.970   6.816   2.223  0.6937  0.5382 -0.0393
14261SOL     OW45224   6.951   4.485   6.054 -0.0373 -0.0317  0.2116
14261SOL    HW145225   6.922   4.555   5.995 -1.1290  0.5232  1.3609
14261SOL    HW245226   6.928   4.516   6.141  1.3136 -0.9530  0.9283
14262SOL     OW45227   9.897   8.472   0.163 -0.0452  0.4579  0.2043
14262SOL    HW145228   9.869   8.557   0.198  1.3610  1.2856 -0.5578
14262SOL    HW245229   9.971   8.494   0.105  0.7043 -1.3566  0.4183
14263SOL     OW45230   9.509   9.972   3.379  0.4271  0.5693  0.3505
14263SOL    HW145231   9.433  10.005   3.428 -0.7112 -1.0045 -0.2502
14263SOL    HW245232   9.556   9.917   3.442 -0.6418 -0.8786 -0.0550
14264SOL     OW45233   1.267   2.192   4.581 -0.0867  0.0943 -0.2757
14264SOL    HW145234   1.252   2.243   4.661  1.9180  1.1940 -0.5132
14264SOL    HW245235   1.266   2.257   4.511 -0.3170 -0.6291 -0.9540
14265SOL     OW45236   6.163   8.826   9.895  0.2094 -0.4064 -0.0798
14265SOL    HW145237   6.159   8.743   9.942 -0.4279 -0.1993  0.2454
14265SOL    HW245238   6.132   8.806   9.807 -1.5990 -0.1939  0.4750
14266SOL     OW45239   1.729   4.142   3.980 -0.0674 -0.0720  0.4909
14266SOL    HW145240   1.647   4.095   3.964  0.5245 -0.7516 -0.6003
14266SOL    HW245241   1.762   4.105   4.062 -0.5649 -0.1971  0.6366
14267SOL     OW45242   5.904   7.689   3.066 -0.1350  0.9338  0.0113
14267SOL    HW145243   5.825   7.652   3.026 -0.9731 -0.7040  2.8747
14267SOL    HW245244   5.882   7.781   3.081 -0.9328  0.8402 -0.4992
14268SOL     OW45245   4.496  10.091   2.493  0.7087 -0.2598  0.2945
14268SOL    HW145246   4.514  10.017   2.435 -0.3266 -0.1446 -0.1786
14268SOL    HW245247   4.404  10.082   2.516  1.0278 -0.1365  1.7042
14269SOL     OW45248   1.532   1.007   0.187  0.5849 -0.1318 -0.6994
14269SOL    HW145249   1.529   0.945   0.114 -1.2803  0.9636 -1.6438
14269SOL    HW245250   1.449   0.992   0.233  0.3887  1.1864 -0.5832
14270SOL     OW45251   9.405   1.402   9.313  0.2335  0.5469 -0.1710
14270SOL    HW145252   9.341   1.413   9.383 -0.2365 -2.6509  0.0619
14270SOL    HW245253   9.487   1.382   9.359  0.2092 -0.3093 -0.4698
14271SOL     OW45254   0.436   1.361   8.067 -0.3925  0.0008  0.3829
14271SOL    HW145255   0.394   1.402   8.143  0.8122  0.1600  0.9892
14271SOL    HW245256   0.528   1.384   8.075  0.0525 -1.4492 -0.1822
14272SOL     OW45257   5.119   7.061   3.300 -0.3292 -0.5034 -0.3758
14272SOL    HW145258   5.147   7.016   3.380 -0.4895  0.2673  0.1306
14272SOL    HW245259   5.080   6.992   3.246  0.2239 -1.1208  0.0008
14273SOL     OW45260   2.573   8.232   5.269 -0.0940  0.1921  0.5072
14273SOL    HW145261   2.528   8.310   5.300 -0.7850 -0.3816  0.9725
14273SOL    HW245262   2.629   8.263   5.198 -0.7139  1.0314  0.3737
14274SOL     OW45263   4.437   2.050  10.400  0.2703  0.2113  0.0182
14274SOL    HW145264   4.454   2.108  10.325  0.8633  1.2640  0.9368
14274SOL    HW245265   4.493   1.974  10.384  2.2008  1.4494  0.5042
14275SOL     OW45266   7.007   4.404   8.391  0.1414 -0.1253  0.0158
14275SOL    HW145267   7.066   4.474   8.363  0.7450 -1.3650 -2.0660
14275SOL    HW245268   6.928   4.418   8.339  0.5627 -1.3879 -1.0279
14276SOL     OW45269   1.885   2.565   9.982 -0.5169 -0.1880  0.0026
14276SOL    HW145270   1.965   2.544   9.934 -0.1978  1.4750 -0.2415
14276SOL    HW245271   1.858   2.650   9.948 -1.5609 -0.0376  1.1485
14277SOL     OW45272   7.659   7.125   6.383 -0.0313  0.2563 -0.2657
14277SOL    HW145273   7.674   7.216   6.409  0.0933 -0.3248  1.8115
14277SOL    HW245274   7.568   7.109   6.405 -0.4706  0.2513 -1.9374
14278SOL     OW45275   3.381   3.743   3.561 -0.3792  0.1538  0.3695
14278SOL    HW145276   3.372   3.809   3.492  0.3617 -2.1422 -2.0530
14278SOL    HW245277   3.293   3.732   3.595 -1.0252  0.4178 -1.1412
14279SOL     OW45278   8.367   9.470   0.226  0.2488 -0.2219  0.3597
14279SOL    HW145279   8.392   9.393   0.175  0.8980 -0.6515  1.3111
14279SOL    HW245280   8.389   9.448   0.316  1.3761  1.4422  0.5418
14280SOL     OW45281   5.528   1.570   0.709  0.1828 -0.0656  0.2453
14280SOL    HW145282   5.605   1.595   0.760 -0.3955 -0.1153  1.1531
14280SOL    HW245283   5.533   1.626   0.631  0.4526  0.8519  0.8998
14281SOL     OW45284   4.202   2.729   2.756 -0.0869  0.1152  0.2140
14281SOL    HW145285   4.291   2.726   2.791 -0.6003 -0.2081  1.5826
14281SOL    HW245286   4.197   2.812   2.709  0.3159  1.1947  1.9545
14282SOL     OW45287   2.081   5.366   1.627  0.3586 -0.6192 -0.2185
14282SOL    HW145288   2.157   5.370   1.684  0.6632 -0.0730 -0.6583
14282SOL    HW245289   2.116   5.345   1.540 -0.0163 -0.6041 -0.3772
14283SOL     OW45290   0.990   6.668   5.777 -0.0312 -0.1868  0.4513
14283SOL    HW145291   1.024   6.685   5.865  0.6821  2.7094 -0.2758
14283SOL    HW245292   0.900   6.638   5.791  0.4353 -0.9205  2.1641
14284SOL     OW45293   4.499   9.261   4.991 -0.1083  0.0381  0.2637
14284SOL    HW145294   4.521   9.348   5.023 -0.4547  0.4955 -0.7269
14284SOL    HW245295   4.430   9.275   4.927 -1.3108 -1.1129  1.2395
14285SOL     OW45296   8.966   5.264   8.714  0.4741 -0.0205  0.1077
14285SOL    HW145297   8.964   5.169   8.716  2.1562 -0.0853  0.5101
14285SOL    HW245298   8.912   5.288   8.638  1.1919 -1.3624 -0.8720
14286SOL     OW45299   5.383   0.674   8.243  0.5213 -0.1705  0.2650
14286SOL    HW145300   5.357   0.609   8.309 -0.2249 -0.8701 -0.6939
14286SOL    HW245301   5.402   0.753   8.294  0.4409 -0.8378  1.3628
14287SOL     OW45302   1.724   2.761   9.215 -0.1615 -0.1117 -0.2172
14287SOL    HW145303   1.729   2.753   9.311  1.4793 -0.3766 -0.2963
14287SOL    HW245304   1.690   2.849   9.200  1.5366  0.7121  0.6189
14288SOL     OW45305   6.364   7.856   2.489  0.0930 -0.2267  0.0066
14288SOL    HW145306   6.325   7.770   2.476  0.8248 -0.4493 -0.8485
14288SOL    HW245307   6.458   7.841   2.478  0.3271  0.4819  0.9652
14289SOL     OW45308   8.434   9.982   0.424 -0.3141  0.0247  0.6604
14289SOL    HW145309   8.470  10.031   0.350  1.9270  0.2125  1.7962
14289SOL    HW245310   8.367  10.039   0.460 -0.7164  0.3723 -0.5830
14290SOL     OW45311   4.878   5.233   7.346 -0.5133  0.0247 -0.3079
14290SOL    HW145312   4.968   5.263   7.357 -0.7868  0.5075  0.6774
14290SOL    HW245313   4.881   5.141   7.372 -0.2640 -0.0312 -0.5238
14291SOL     OW45314   9.586   3.787   7.109  0.5354  0.1260 -0.0893
14291SOL    HW145315   9.634   3.739   7.175  1.9035 -0.8653 -1.7259
14291SOL    HW245316   9.648   3.852   7.076 -1.3166  3.3704  2.2036
14292SOL     OW45317   8.981   8.369   7.655  0.3930  0.3171 -0.3434
14292SOL    HW145318   8.915   8.332   7.596 -0.5155  1.8474 -0.3330
14292SOL    HW245319   8.952   8.342   7.742  0.6678 -0.3391 -0.4514
14293SOL     OW45320   2.363   1.848   4.972 -0.3862 -0.4936  0.0483
14293SOL    HW145321   2.377   1.812   5.060 -2.0548  1.2489  1.1058
14293SOL    HW245322   2.309   1.782   4.928  0.2013 -1.2478  0.4243
14294SOL     OW45323   6.767   2.319   6.333 -0.0586 -0.7613 -0.3860
14294SOL    HW145324   6.859   2.332   6.310 -0.1476  1.9565  0.4892
14294SOL    HW245325   6.719   2.384   6.281 -1.1659 -0.3275  1.1010
14295SOL     OW45326   2.505   3.007   4.804 -0.3070  0.0711 -0.1436
14295SOL    HW145327   2.553   3.009   4.722 -0.9065  0.5058 -0.4962
14295SOL    HW245328   2.570   3.029   4.871 -0.1043  1.1485 -0.6643
14296SOL     OW45329   7.955   7.347   0.880 -0.7600 -0.1460 -0.2231
14296SOL    HW145330   7.994   7.430   0.852 -0.8365 -0.0487 -0.0446
14296SOL    HW245331   7.868   7.346   0.841 -0.7834 -0.1123 -0.1713
14297SOL     OW45332  10.410   3.214   3.974 -0.5746  0.2242 -0.2069
14297SOL    HW145333  10.376   3.174   4.053 -1.8526  1.2462 -0.2213
14297SOL    HW245334  10.346   3.192   3.906  1.7310 -2.8409 -1.6273
14298SOL     OW45335   8.790   3.591   8.312  0.7120 -0.1518  0.2066
14298SOL    HW145336   8.861   3.588   8.377  1.2282 -0.7801 -0.3865
14298SOL    HW245337   8.802   3.513   8.259 -0.8931 -0.6867  0.5646
14299SOL     OW45338   1.809   1.157   1.898 -0.5307 -0.5462  0.0323
14299SOL    HW145339   1.717   1.149   1.922 -0.9962  0.8495 -1.1129
14299SOL    HW245340   1.808   1.171   1.803  1.0285 -2.9213 -0.4314
14300SOL     OW45341   9.277   7.644   2.276  0.5062 -0.2068  0.0555
14300SOL    HW145342   9.352   7.588   2.299 -1.4061 -2.8440  0.3923
14300SOL    HW245343   9.221   7.642   2.353 -0.2923  1.1070 -0.4542
14301SOL     OW45344   7.392   1.728   4.137 -0.0517  0.4104  0.3496
14301SOL    HW145345   7.434   1.781   4.069  0.1627 -0.4822 -0.2334
14301SOL    HW245346   7.418   1.770   4.220  0.0758  1.2267 -0.0877
14302SOL     OW45347   3.749   1.172   4.930  0.2011 -0.8418  0.4572
14302SOL    HW145348   3.744   1.151   4.836 -1.2712  0.0280  0.3039
14302SOL    HW245349   3.685   1.114   4.971  1.6023 -1.9876  1.1209
14303SOL     OW45350   4.706   9.358   2.254 -0.0136  0.6197  0.4067
14303SOL    HW145351   4.699   9.275   2.302  0.4459  1.5501  2.1363
14303SOL    HW245352   4.660   9.341   2.171  0.0059 -1.3305  0.7439
14304SOL     OW45353  10.032   1.528   6.050  0.0304  0.3311  0.9368
14304SOL    HW145354   9.967   1.594   6.027 -0.7200 -0.1363  1.6717
14304SOL    HW245355  10.059   1.550   6.139  0.8176  0.4609  0.6776
14305SOL     OW45356   9.692   6.477  10.308  0.6014 -0.2051 -0.1568
14305SOL    HW145357   9.662   6.568  10.318  1.5337  0.1626 -0.5697
14305SOL    HW245358   9.629   6.438  10.247  0.3029  0.2173 -0.1285
14306SOL     OW45359   7.423   5.290   1.433  0.2136  0.6599  0.3597
14306SOL    HW145360   7.372   5.345   1.493  1.7244  2.0062  0.4899
14306SOL    HW245361   7.360   5.227   1.399 -0.7979  0.1236  3.0091
14307SOL     OW45362   6.849   9.575   9.560  0.5030 -0.7907  0.2157
14307SOL    HW145363   6.775   9.536   9.514  0.2251 -1.7620  1.4331
14307SOL    HW245364   6.886   9.637   9.497 -1.2277 -0.4030 -0.4733
14308SOL     OW45365   4.368   2.719   6.401  0.4108  0.6675  0.3890
14308SOL    HW145366   4.278   2.723   6.370  0.1374  1.1036  1.2108
14308SOL    HW245367   4.413   2.789   6.352  0.6193 -0.3406 -0.9289
14309SOL     OW45368   6.120   8.677   5.478  0.0911  0.2690  0.2188
14309SOL    HW145369   6.156   8.764   5.497  0.1253  0.3006  0.0159
14309SOL    HW245370   6.046   8.668   5.538 -2.0036  1.7933 -1.9173
14310SOL     OW45371   6.335   9.995   9.307 -0.4144 -0.2412 -0.2932
14310SOL    HW145372   6.240  10.005   9.316 -0.4546 -1.7221  1.1727
14310SOL    HW245373   6.349   9.901   9.300  1.0643 -0.1520  1.0605
14311SOL     OW45374   3.743   7.233   4.254 -0.0659 -0.2410  0.2505
14311SOL    HW145375   3.650   7.253   4.256  0.4690  2.5916  1.4470
14311SOL    HW245376   3.759   7.187   4.337 -0.6330 -2.4299 -0.7779
14312SOL     OW45377  10.364   7.152   1.514  0.5607  0.0336 -0.3143
14312SOL    HW145378  10.422   7.225   1.497  1.3588 -0.8198 -1.4134
14312SOL    HW245379  10.357   7.106   1.430  0.2784 -1.2804  0.3879
14313SOL     OW45380   1.100   5.968   2.436  0.0203 -0.3694 -0.2331
14313SOL    HW145381   1.188   5.943   2.464 -0.0821  0.8684  1.3594
14313SOL    HW245382   1.115   6.032   2.366  0.4485  0.7128  0.8139
14314SOL     OW45383   1.791   9.552   1.149  0.0222  0.5149 -0.4631
14314SOL    HW145384   1.838   9.566   1.231  1.1548  2.0571 -1.3058
14314SOL    HW245385   1.704   9.524   1.175  0.4869  0.5465  1.2484
14315SOL     OW45386   5.799  10.310   3.586 -0.0871 -0.0984  0.6899
14315SOL    HW145387   5.764  10.398   3.602  0.6055  0.1875  0.6787
14315SOL    HW245388   5.882  10.309   3.633 -0.6312 -1.1613  1.6706
14316SOL     OW45389   4.709   8.178   9.861  0.2388  0.1853  0.0501
14316SOL    HW145390   4.750   8.236   9.925  2.0466  0.0052 -0.8847
14316SOL    HW245391   4.762   8.188   9.782 -1.5977 -0.0155 -1.2735
14317SOL     OW45392   8.391   3.405   0.921  0.1445  0.5118  0.0069
14317SOL    HW145393   8.356   3.396   1.010  0.3659  0.4477  0.0873
14317SOL    HW245394   8.402   3.499   0.910 -2.0702  0.7369 -0.7958
14318SOL     OW45395   8.245   9.165   6.355  0.4291  0.3901 -0.4067
14318SOL    HW145396   8.181   9.146   6.286  1.9399 -1.1421 -1.4746
14318SOL    HW245397   8.233   9.094   6.418  0.8176  0.3113 -0.4207
14319SOL     OW45398   4.944   3.268   8.815  0.2002  0.0412  0.3754
14319SOL    HW145399   4.904   3.181   8.822  0.5623 -0.0458  1.5573
14319SOL    HW245400   4.912   3.316   8.891 -1.1638  1.4739 -1.0322
14320SOL     OW45401   7.471   4.138   0.775 -0.0856 -0.1072  0.2143
14320SOL    HW145402   7.466   4.168   0.866  1.1739 -0.8362  0.5562
14320SOL    HW245403   7.515   4.210   0.729 -0.7714  0.2851  0.1699
14321SOL     OW45404   8.644   6.136   5.020 -0.2640  0.4627 -0.0543
14321SOL    HW145405   8.717   6.194   5.041  1.0852 -0.6505 -1.4474
14321SOL    HW245406   8.672   6.088   4.942 -1.9073 -1.0419  0.1991
14322SOL     OW45407   7.839   0.814   1.309  0.0533  0.0590  0.2380
14322SOL    HW145408   7.850   0.753   1.236 -3.6661  0.5238 -0.9042
14322SOL    HW245409   7.878   0.896   1.279  0.8320 -0.4516 -0.1623
14323SOL     OW45410   2.822   0.823   0.685 -0.5595  0.2349  0.1480
14323SOL    HW145411   2.808   0.795   0.594 -1.0457 -0.1481  0.3352
14323SOL    HW245412   2.898   0.881   0.681 -0.6660  0.3374 -0.5277
14324SOL     OW45413   5.694   7.854   5.860 -0.2603  0.2773  0.2710
14324SOL    HW145414   5.776   7.850   5.810  0.2737 -1.4216  1.1989
14324SOL    HW245415   5.628   7.878   5.796  0.2715 -2.4619 -1.4466
14325SOL     OW45416   0.370   3.320   5.127  0.1920  0.1676 -0.0017
14325SOL    HW145417   0.337   3.383   5.191 -0.8075  1.6804 -1.9141
14325SOL    HW245418   0.456   3.294   5.162 -0.3643  0.8042  1.9850
14326SOL     OW45419   7.649   7.390   0.991 -0.1037 -0.0984 -0.0784
14326SOL    HW145420   7.721   7.377   1.052  0.5206 -1.0377 -0.9865
14326SOL    HW245421   7.643   7.485   0.981  1.4995 -0.0146 -0.5441
14327SOL     OW45422   4.035   0.901   7.635 -0.0737 -0.3542  0.2146
14327SOL    HW145423   3.957   0.939   7.596 -0.6554  0.1273  1.7891
14327SOL    HW245424   4.090   0.976   7.658 -0.1520 -0.5762  1.1504
14328SOL     OW45425   4.333   0.322   8.207 -0.0116  0.2359 -0.3555
14328SOL    HW145426   4.384   0.271   8.269  0.4474  1.1297  0.0274
14328SOL    HW245427   4.327   0.409   8.247 -0.0718  0.7061 -1.3543
14329SOL     OW45428   2.882   8.825   4.756 -0.7221  0.0078 -0.3184
14329SOL    HW145429   2.971   8.858   4.762  0.4476 -2.8260 -0.7548
14329SOL    HW245430   2.837   8.888   4.698  1.6160  0.3007 -1.9566
14330SOL     OW45431   5.331  10.157   0.930 -0.9122 -0.2740  0.3565
14330SOL    HW145432   5.355  10.110   1.010 -1.0332  1.9817  1.8095
14330SOL    HW245433   5.408  10.148   0.874  0.5655  0.7962  2.0663
14331SOL     OW45434   3.355  10.239   2.431  0.0456 -0.0779 -0.5766
14331SOL    HW145435   3.361  10.313   2.371 -0.8100  1.1193  0.7451
14331SOL    HW245436   3.421  10.257   2.499  0.4424 -0.9869 -0.7093
14332SOL     OW45437   5.438   6.107   2.925 -0.0604  0.3940 -0.0680
14332SOL    HW145438   5.436   6.196   2.962  1.6225  0.0249  1.0357
14332SOL    HW245439   5.370   6.060   2.972  0.6762  0.4808  1.1346
14333SOL     OW45440   8.717   9.094   4.172  0.1510  0.8623  0.4129
14333SOL    HW145441   8.717   9.187   4.196 -0.3677  1.0311 -0.2080
14333SOL    HW245442   8.810   9.069   4.176  0.1524  1.0143  1.9897
14334SOL     OW45443   9.840   4.064   8.778  0.1435  0.5832 -0.1923
14334SOL    HW145444   9.839   4.059   8.873 -1.3789  0.2492 -0.2053
14334SOL    HW245445   9.843   4.158   8.759  0.5812  0.6475  0.1741
14335SOL     OW45446   2.614  10.213   1.043  0.4166 -0.5155 -0.4822
14335SOL    HW145447   2.627  10.261   0.961 -0.0558 -1.0565 -0.8864
14335SOL    HW245448   2.651  10.126   1.025  0.1042 -0.7097 -0.2034
14336SOL     OW45449   5.943   4.267   0.688  0.2369  0.0740 -0.4248
14336SOL    HW145450   5.905   4.355   0.683 -1.6821 -0.6378  0.4498
14336SOL    HW245451   5.963   4.245   0.597 -2.6488  0.0992 -1.1842
14337SOL     OW45452   8.058   3.307   0.873  0.1282  0.1045 -0.3875
14337SOL    HW145453   8.126   3.241   0.887  0.9857  1.1134  0.4785
14337SOL    HW245454   8.055   3.318   0.778  2.1997  1.0040 -0.4048
14338SOL     OW45455   6.010   6.719   5.514 -0.5134 -0.3749  0.1315
14338SOL    HW145456   5.973   6.675   5.438 -0.6580  0.6543 -0.4004
14338SOL    HW245457   6.099   6.685   5.521 -0.5997 -0.6941 -0.3077
14339SOL     OW45458   7.743   8.273   5.353  0.1334 -0.2650  0.0700
14339SOL    HW145459   7.761   8.350   5.298  0.1475  1.1951  2.0280
14339SOL    HW245460   7.812   8.211   5.330  1.0765  0.9248 -0.4259
14340SOL     OW45461   7.679   7.633   7.102  0.3385  0.0079 -0.1046
14340SOL    HW145462   7.707   7.719   7.131  2.5231 -0.7555  0.2142
14340SOL    HW245463   7.688   7.636   7.007 -1.6307  0.7621 -0.3149
14341SOL     OW45464   8.159  10.186   7.821 -0.1736  0.4455  0.6011
14341SOL    HW145465   8.189  10.149   7.904  0.7575  3.8089  1.9505
14341SOL    HW245466   8.240  10.211   7.775 -0.7184  1.5278  0.1844
14342SOL     OW45467   0.785   4.980   5.535 -0.6294  0.2896  0.0173
14342SOL    HW145468   0.847   5.001   5.605  0.2533  0.0829 -0.6757
14342SOL    HW245469   0.699   4.983   5.577 -0.0813 -0.4447  1.2486
14343SOL     OW45470   5.734   3.958   1.319  0.1761 -0.2928  0.3076
14343SOL    HW145471   5.756   4.025   1.254 -0.5259  1.0020  1.3468
14343SOL    HW245472   5.750   4.000   1.404 -3.2165 -0.2590  1.0818
14344SOL     OW45473   0.422   5.387   9.367 -0.2819 -0.2341  0.6557
14344SOL    HW145474   0.341   5.368   9.318 -0.4699  1.2101  0.3501
14344SOL    HW245475   0.391   5.410   9.454 -0.0400 -1.4648  1.0911
14345SOL     OW45476   6.807   1.066   9.926 -0.3507  0.2998 -0.2226
14345SOL    HW145477   6.746   1.122   9.878 -0.9043  1.0069  1.2425
14345SOL    HW245478   6.810   0.985   9.876 -1.8513  0.5586 -0.7675
14346SOL     OW45479   1.703   3.541   3.760  0.3538  0.4667  0.2953
14346SOL    HW145480   1.748   3.523   3.843 -1.3273  0.5327  1.2611
14346SOL    HW245481   1.668   3.457   3.733  2.2267  0.0892 -1.2591
14347SOL     OW45482   9.974   5.462   8.289  0.2783  0.0720 -0.0615
14347SOL    HW145483   9.945   5.472   8.380  0.3446  0.5084 -0.0830
14347SOL    HW245484   9.998   5.370   8.281  1.8427  0.3706  0.8345
14348SOL     OW45485   9.879   6.113   7.238  0.5844  0.3874  0.0970
14348SOL    HW145486   9.911   6.116   7.148  0.0670  0.1353 -0.1010
14348SOL    HW245487   9.886   6.203   7.270 -0.0717  0.6594 -0.5009
14349SOL     OW45488   0.804   3.655   6.748  0.4769 -0.1084 -0.3520
14349SOL    HW145489   0.884   3.607   6.768  0.5693 -0.1884 -0.8959
14349SOL    HW245490   0.788   3.709   6.825  1.1959  0.0927 -0.3435
14350SOL     OW45491   3.401   0.583   7.501 -0.2149  0.2802 -0.0835
14350SOL    HW145492   3.407   0.639   7.424  0.4058 -0.8394 -0.8783
14350SOL    HW245493   3.309   0.558   7.506 -0.5818  1.6006  0.4898
14351SOL     OW45494   6.666   1.880   4.364  0.2883  0.2973 -0.1362
14351SOL    HW145495   6.628   1.844   4.444  1.3669  0.2556  0.3698
14351SOL    HW245496   6.720   1.954   4.393 -0.3169  1.0874 -0.9606
14352SOL     OW45497   8.208   4.210   6.993  0.4502  0.5790 -0.1797
14352SOL    HW145498   8.250   4.136   7.037 -1.6185 -0.1721  0.6731
14352SOL    HW245499   8.160   4.254   7.062 -0.4288  1.1880 -1.1563
14353SOL     OW45500   3.846   0.814   9.968 -0.2468  0.3993 -0.6106
14353SOL    HW145501   3.850   0.900  10.011 -2.3504  1.6380 -2.6723
14353SOL    HW245502   3.891   0.827   9.885 -2.2899  0.1636 -1.8175
14354SOL     OW45503   6.491   7.802   2.929  0.0199  0.1375  0.3083
14354SOL    HW145504   6.558   7.758   2.982 -0.3767 -1.4920 -0.4903
14354SOL    HW245505   6.408   7.780   2.972 -0.1701  0.3373  0.0467
14355SOL     OW45506   9.172   0.273   1.127 -0.4310 -0.3929 -0.2853
14355SOL    HW145507   9.188   0.339   1.194  1.6580 -1.0054 -0.1216
14355SOL    HW245508   9.082   0.291   1.098 -0.3214  1.8245  0.4930
14356SOL     OW45509   5.200   2.564   0.818 -0.1906  0.4651 -0.4363
14356SOL    HW145510   5.179   2.472   0.836 -1.3916  0.6872 -0.6206
14356SOL    HW245511   5.281   2.561   0.767  0.6332 -0.4051  0.8706
14357SOL     OW45512   4.707   9.395   5.154 -0.3720  0.0557  0.2867
14357SOL    HW145513   4.744   9.443   5.228 -1.6513 -0.3145  1.2034
14357SOL    HW245514   4.667   9.463   5.099  0.1919  0.2927  0.1684
14358SOL     OW45515  10.151   5.156   1.678  0.1167  0.6984  0.0750
14358SOL    HW145516  10.182   5.244   1.698  0.5245  0.6209 -0.2241
14358SOL    HW245517  10.230   5.104   1.661 -0.1575  0.5023 -0.6783
14359SOL     OW45518  10.254   4.271   9.387 -0.5262  0.2272  0.6062
14359SOL    HW145519  10.322   4.320   9.434  0.2112 -2.7979  3.0712
14359SOL    HW245520  10.183   4.263   9.450 -1.3293 -0.3687 -0.3556
14360SOL     OW45521   0.577   1.037   4.076  0.0006  0.3950  0.2945
14360SOL    HW145522   0.526   1.067   4.002  2.6651  0.4158 -1.6828
14360SOL    HW245523   0.591   0.944   4.059  1.5217  0.6256  0.1462
14361SOL     OW45524   0.215   8.605   8.198 -0.2586  0.2324  0.0212
14361SOL    HW145525   0.166   8.680   8.233  0.5888  0.2679  1.1584
14361SOL    HW245526   0.147   8.542   8.175 -0.8829  0.4746  1.1209
14362SOL     OW45527   8.500   8.117   1.765  0.4997  0.0647 -0.5246
14362SOL    HW145528   8.411   8.126   1.732  0.3477 -0.1316 -0.1719
14362SOL    HW245529   8.495   8.147   1.856  0.1092 -2.8512  0.5011
14363SOL     OW45530   4.013   0.420   0.355 -0.7008 -0.2446 -0.0981
14363SOL    HW145531   3.929   0.461   0.334  0.1358  0.9526 -1.2717
14363SOL    HW245532   4.019   0.345   0.295 -0.6418  0.0646 -0.4816
14364SOL     OW45533   5.789   7.936  10.325 -0.1507  0.5026  0.3514
14364SOL    HW145534   5.750   8.023  10.317  0.2294  0.5266 -1.6366
14364SOL    HW245535   5.878   7.946  10.290  0.2732 -0.4598  1.1095
14365SOL     OW45536   6.689   1.249   4.049  0.3017  0.1090 -0.4502
14365SOL    HW145537   6.676   1.164   4.090 -0.6467  0.3631 -0.2084
14365SOL    HW245538   6.783   1.267   4.060  0.1851 -0.1194  1.0358
14366SOL     OW45539   2.419   0.389   2.453  0.0863 -0.2380  0.1140
14366SOL    HW145540   2.351   0.382   2.520 -1.0995  3.9975 -0.3636
14366SOL    HW245541   2.497   0.351   2.494 -1.7165 -2.3480  1.8857
14367SOL     OW45542   2.501   1.490   6.249 -0.5531 -0.2563 -0.1978
14367SOL    HW145543   2.482   1.491   6.156  0.9307  3.2179 -0.6091
14367SOL    HW245544   2.473   1.576   6.281 -0.8327 -1.2548  2.5579
14368SOL     OW45545   9.982   3.183   1.291 -0.3281 -0.5472  0.5294
14368SOL    HW145546  10.057   3.173   1.232  0.8192  1.4774  1.5368
14368SOL    HW245547   9.912   3.215   1.234  0.5970  0.8376  0.1222
14369SOL     OW45548   7.443   5.138   8.920  0.5781 -0.4038  0.6569
14369SOL    HW145549   7.444   5.132   9.016  0.4433 -2.0855  0.5766
14369SOL    HW245550   7.362   5.096   8.894  0.6446 -0.0158 -0.2072
14370SOL     OW45551   8.994   1.470   7.499  0.7411 -0.1223  0.3281
14370SOL    HW145552   9.023   1.383   7.526 -0.1174 -0.2377  0.9248
14370SOL    HW245553   8.981   1.463   7.405 -1.2697 -1.2481  0.6416
14371SOL     OW45554   1.288   3.984   7.380  0.5441 -0.0855  1.3774
14371SOL    HW145555   1.272   3.897   7.345  0.4515 -0.2683  1.8686
14371SOL    HW245556   1.267   4.043   7.308  0.3343 -0.4560  1.1324
14372SOL     OW45557   1.162   4.554   5.067  0.1689 -0.3168  0.2530
14372SOL    HW145558   1.204   4.504   4.997  2.4217 -0.2209  1.4534
14372SOL    HW245559   1.198   4.517   5.147 -2.5088 -0.5754  1.4593
14373SOL     OW45560   8.478   4.461   8.588 -0.3103 -0.1325 -0.6223
14373SOL    HW145561   8.419   4.518   8.637  0.6472  2.0444 -1.8436
14373SOL    HW245562   8.550   4.518   8.561  2.7816 -2.7509  1.2883
14374SOL     OW45563   0.476   9.353   3.727  0.0944 -0.3658 -0.1925
14374SOL    HW145564   0.532   9.322   3.657  0.2593  0.0460 -0.2433
14374SOL    HW245565   0.526   9.336   3.807 -0.0447 -0.7265 -0.1769
14375SOL     OW45566   1.942   4.314   5.832 -0.4808  0.0635  0.3599
14375SOL    HW145567   1.916   4.405   5.819 -1.1827 -0.1029  0.5372
14375SOL    HW245568   1.877   4.263   5.784 -0.1309 -0.3508  0.3168
14376SOL     OW45569   5.360   2.778   5.570  0.6360  0.1751  0.0843
14376SOL    HW145570   5.384   2.804   5.659  1.5776  0.7456 -0.3255
14376SOL    HW245571   5.441   2.743   5.532  0.5645  1.0635 -0.9411
14377SOL     OW45572   3.653   9.857   4.234  0.2628  0.1323  0.3883
14377SOL    HW145573   3.652   9.886   4.142  2.3555  0.0850  0.2887
14377SOL    HW245574   3.563   9.831   4.252 -0.2603  0.3912 -1.5769
14378SOL     OW45575   4.147   1.561   3.221 -0.5516  0.3634  0.0402
14378SOL    HW145576   4.127   1.468   3.227  0.9209 -0.0180 -0.3439
14378SOL    HW245577   4.240   1.567   3.247 -0.2501  1.5268 -1.1951
14379SOL     OW45578   7.379   4.344   7.677 -0.3447 -0.2514 -0.1629
14379SOL    HW145579   7.462   4.332   7.631 -0.4743  0.2022 -0.5177
14379SOL    HW245580   7.313   4.344   7.608 -0.4934  0.9246 -0.0451
14380SOL     OW45581   7.824   2.315   3.401  0.4227  0.9252  0.5337
14380SOL    HW145582   7.780   2.332   3.319  1.6117  0.9211 -0.1312
14380SOL    HW245583   7.755   2.284   3.460 -0.1441 -1.1319 -1.0735
14381SOL     OW45584   2.556   5.400   9.951  0.0159  0.0302  0.7207
14381SOL    HW145585   2.519   5.444   9.875 -0.7049 -3.2288 -0.9644
14381SOL    HW245586   2.480   5.382  10.007  0.1136 -0.2540  0.7600
14382SOL     OW45587   9.762   7.143   7.582  0.2469  0.5792  0.7764
14382SOL    HW145588   9.796   7.205   7.517  1.1520  0.3039  0.9722
14382SOL    HW245589   9.684   7.186   7.617 -0.3330  0.6784 -0.5710
14383SOL     OW45590   3.876   4.683   7.612  0.1457  0.0507 -0.8472
14383SOL    HW145591   3.865   4.753   7.676 -0.1816 -1.6217  1.0562
14383SOL    HW245592   3.788   4.670   7.576 -0.4818 -1.2189  0.9512
14384SOL     OW45593   1.820   2.459   5.420 -0.3060 -0.1814 -0.3421
14384SOL    HW145594   1.806   2.423   5.332 -0.5656  1.6133 -1.0684
14384SOL    HW245595   1.752   2.417   5.473  0.1022 -1.5880 -0.8716
14385SOL     OW45596   5.523   9.998   5.736  0.5584 -0.7801 -0.1256
14385SOL    HW145597   5.584  10.072   5.743 -1.0566  0.8203 -1.8234
14385SOL    HW245598   5.476   9.998   5.819 -0.6131  1.2998 -0.7054
14386SOL     OW45599   7.121   9.293   2.068  0.7792  0.1159 -0.5605
14386SOL    HW145600   7.197   9.349   2.084 -0.4427  1.2058  1.8372
14386SOL    HW245601   7.046   9.353   2.066 -0.2393 -1.1038 -1.2459
14387SOL     OW45602   6.379   0.702   8.260  0.0238  0.4869 -0.2092
14387SOL    HW145603   6.413   0.771   8.202 -1.2999  1.0003 -0.3963
14387SOL    HW245604   6.325   0.647   8.204  0.0978 -0.0012  0.1928
14388SOL     OW45605   7.693   0.286   7.269  0.4132  0.0028 -0.0711
14388SOL    HW145606   7.634   0.362   7.263  1.7783  1.0782 -0.3772
14388SOL    HW245607   7.708   0.274   7.362  1.6580  1.3161 -0.0748
14389SOL     OW45608   3.580   9.012   7.142  0.1653 -0.3173  0.6145
14389SOL    HW145609   3.503   9.028   7.087  0.3159 -0.3000  0.4047
14389SOL    HW245610   3.608   9.099   7.170  2.3029  0.1148 -2.3299
14390SOL     OW45611   9.832   2.246   0.289 -0.3295 -0.0393  0.1890
14390SOL    HW145612   9.797   2.160   0.266 -0.3617  0.0936 -0.2719
14390SOL    HW245613   9.826   2.297   0.208  1.3238 -0.1489 -0.0347
14391SOL     OW45614   5.807   5.506   8.884  0.1775 -0.1374 -0.0472
14391SOL    HW145615   5.738   5.572   8.876 -0.2905 -0.5317  0.5849
14391SOL    HW245616   5.777   5.449   8.955  1.8975  0.6143  1.3763
14392SOL     OW45617   3.173   0.237  10.433  0.1787  0.1562  0.2962
14392SOL    HW145618   3.109   0.166  10.426  0.1808  0.1609  0.2209
14392SOL    HW245619   3.240   0.214  10.368 -0.5884  1.0168 -0.8516
14393SOL     OW45620   4.783  10.069   8.844  0.0026  0.4073 -0.0434
14393SOL    HW145621   4.837  10.023   8.908 -0.2616  3.5534  2.6948
14393SOL    HW245622   4.845  10.105   8.781  0.4041 -1.4266 -0.7620
14394SOL     OW45623   7.956   0.026   6.554 -0.2820 -0.7998 -0.3061
14394SOL    HW145624   7.944   0.121   6.558  1.7915 -0.5230  1.4201
14394SOL    HW245625   7.881  -0.011   6.601 -0.7218  0.0130 -0.3597
14395SOL     OW45626   4.559   2.604   6.567  0.3658  0.3425 -0.2200
14395SOL    HW145627   4.520   2.534   6.619 -0.8790  1.1342 -0.0465
14395SOL    HW245628   4.485   2.647   6.524  0.9046  2.5592  0.9292
14396SOL     OW45629   6.446   2.230   0.630 -0.1774 -0.0874 -0.0355
14396SOL    HW145630   6.475   2.295   0.694  1.0730  0.4892 -1.1315
14396SOL    HW245631   6.517   2.227   0.565 -0.4367 -2.1683 -0.2993
14397SOL     OW45632   6.061  10.341   9.351 -0.7504 -0.2064 -0.2917
14397SOL    HW145633   6.066  10.246   9.358  1.2342 -0.1837 -0.9457
14397SOL    HW245634   6.151  10.370   9.341 -1.2645  1.8123  0.3862
14398SOL     OW45635   4.084   1.627   1.772  0.4522  0.4709 -0.0732
14398SOL    HW145636   4.149   1.638   1.841  1.0706 -1.5052 -0.2937
14398SOL    HW245637   4.002   1.658   1.811  0.9040 -0.0871  1.3481
14399SOL     OW45638   9.426   3.420   1.527 -0.4591 -0.1668  0.4414
14399SOL    HW145639   9.333   3.413   1.550 -0.7404  0.5924 -0.4089
14399SOL    HW245640   9.452   3.330   1.506 -1.3397 -0.2170 -0.5185
14400SOL     OW45641   5.155   1.019   9.579  0.4551 -0.2179  0.3082
14400SOL    HW145642   5.125   0.957   9.646 -1.8594 -1.2126 -1.5195
14400SOL    HW245643   5.246   1.037   9.603  0.6105 -2.7491  2.0778
14401SOL     OW45644   1.678  10.184   5.820  0.1922 -0.3695  0.5009
14401SOL    HW145645   1.692  10.177   5.915  0.7600  1.3710  0.5840
14401SOL    HW245646   1.594  10.142   5.804  0.0162 -0.5392  1.8019
14402SOL     OW45647   0.545   6.224   6.736  0.8834 -0.1029 -0.6045
14402SOL    HW145648   0.463   6.264   6.708  0.8187  0.7139  0.6816
14402SOL    HW245649   0.595   6.295   6.775 -0.2867 -1.5079  4.2308
14403SOL     OW45650   2.018   4.306   6.949 -0.2032 -0.0052 -0.4675
14403SOL    HW145651   2.082   4.365   6.910 -0.0062  1.2592  1.6075
14403SOL    HW245652   2.065   4.262   7.019 -0.9051 -1.1044 -0.6607
14404SOL     OW45653   2.687   1.728   4.466  0.0815  0.6593  0.6101
14404SOL    HW145654   2.755   1.672   4.504 -0.5487  0.0269  0.8407
14404SOL    HW245655   2.657   1.680   4.388 -1.5118 -0.1101  1.6335
14405SOL     OW45656   5.501   9.348   8.098 -0.2543 -0.0070  0.7241
14405SOL    HW145657   5.519   9.441   8.114 -0.7261  0.2178  0.0084
14405SOL    HW245658   5.496   9.341   8.003  1.2903 -1.0686  0.6906
14406SOL     OW45659   7.754   4.793   5.700 -0.2494  0.2417  0.8745
14406SOL    HW145660   7.753   4.725   5.768 -0.6267 -0.4537  0.1821
14406SOL    HW245661   7.684   4.768   5.640  2.1443 -1.0055 -1.5630
14407SOL     OW45662   1.939   4.790   7.134  0.8707 -0.4253  0.3939
14407SOL    HW145663   1.984   4.725   7.081 -1.2741 -0.3317 -1.7302
14407SOL    HW245664   1.936   4.868   7.079  0.8499  0.5505  1.7349
14408SOL     OW45665   6.794   8.139   6.276  0.2965  0.4412 -0.0207
14408SOL    HW145666   6.723   8.158   6.214  1.3723  0.9924 -1.1332
14408SOL    HW245667   6.778   8.198   6.350  1.0197  2.4881 -1.4143
14409SOL     OW45668   6.532   2.349   5.399 -0.5981  0.1010 -0.1704
14409SOL    HW145669   6.477   2.273   5.417 -1.3124  0.6875  0.1448
14409SOL    HW245670   6.591   2.319   5.329  0.5900 -1.4269  1.3909
14410SOL     OW45671   5.579   4.621   8.415  0.0748 -0.1004  0.0415
14410SOL    HW145672   5.623   4.687   8.468 -3.4634  2.2425  0.3924
14410SOL    HW245673   5.620   4.538   8.441  3.6411  1.6843  0.7355
14411SOL     OW45674   8.028   2.607   3.908 -0.5731 -0.1153 -0.1980
14411SOL    HW145675   7.956   2.551   3.879 -1.5040  0.7977  0.2965
14411SOL    HW245676   8.106   2.570   3.865 -1.3546 -1.0036 -0.8907
14412SOL     OW45677   0.970   8.425   7.585 -0.6447  0.6930 -0.0299
14412SOL    HW145678   0.919   8.496   7.624  0.1443  2.4592 -2.0100
14412SOL    HW245679   0.933   8.414   7.497 -0.0419 -0.6342 -0.1464
14413SOL     OW45680   5.662   4.046   5.021  0.6255  0.1560 -0.2483
14413SOL    HW145681   5.665   4.035   5.116  1.3024 -0.2627 -0.3044
14413SOL    HW245682   5.624   4.132   5.007 -0.7014 -0.3071  0.3663
14414SOL     OW45683   9.588   9.282   8.167 -0.3836  0.1802 -0.0213
14414SOL    HW145684   9.658   9.237   8.120  0.1831 -0.6477  1.5558
14414SOL    HW245685   9.511   9.272   8.110  0.6426  0.6772 -1.5354
14415SOL     OW45686   2.407   1.374   4.064 -0.4199 -0.2117  0.2398
14415SOL    HW145687   2.396   1.294   4.115 -1.2070  0.2475  0.8066
14415SOL    HW245688   2.342   1.435   4.099 -0.6798  0.2630 -1.0115
14416SOL     OW45689   9.871   1.088   0.297 -0.6926 -0.2721  0.2833
14416SOL    HW145690   9.832   1.002   0.312 -0.9009 -0.3064 -0.4147
14416SOL    HW245691   9.845   1.139   0.374  0.4986 -1.1808  1.3386
14417SOL     OW45692   8.226   9.217  10.403 -0.0408  0.2377  0.2750
14417SOL    HW145693   8.194   9.290  10.456  0.6207  1.8901 -1.4784
14417SOL    HW245694   8.171   9.218  10.324  2.8604  1.9314 -1.9194
14418SOL     OW45695   2.969   9.302   0.389  0.2261 -0.0420 -0.3045
14418SOL    HW145696   3.031   9.345   0.448  0.3686 -0.6656  0.0088
14418SOL    HW245697   2.884   9.313   0.431  0.1413  0.7068 -0.6723
14419SOL     OW45698   7.924   8.915   2.557  0.3010 -0.1933  0.1138
14419SOL    HW145699   7.907   8.833   2.512  1.9389 -0.8234  0.5575
14419SOL    HW245700   7.839   8.942   2.592 -0.1349 -2.1007  0.6246
14420SOL     OW45701   4.903   1.106   8.896  0.4134 -1.0795 -0.4689
14420SOL    HW145702   4.979   1.155   8.865 -1.0630  0.1079 -2.4511
14420SOL    HW245703   4.885   1.043   8.827 -0.3730 -1.3627 -0.0171
14421SOL     OW45704   9.248   6.829   1.336  0.8078 -0.3921 -0.4470
14421SOL    HW145705   9.154   6.838   1.355  1.2552 -0.4336  2.0830
14421SOL    HW245706   9.284   6.916   1.354  1.4156 -0.6659 -0.3438
14422SOL     OW45707   0.017   2.797  10.161 -0.6297 -0.8724 -1.0800
14422SOL    HW145708  -0.021   2.841  10.085  1.2574 -1.2965 -2.3576
14422SOL    HW245709   0.078   2.733  10.123  0.1614 -1.2919  0.7973
14423SOL     OW45710   0.854   5.023   0.858  0.5430  0.2504 -0.1996
14423SOL    HW145711   0.872   5.019   0.764 -0.6213 -0.5098 -0.4181
14423SOL    HW245712   0.894   5.104   0.887 -0.9814  1.6540 -1.7977
14424SOL     OW45713   4.926   8.913   6.271 -0.6584  0.2571  0.0683
14424SOL    HW145714   4.915   8.861   6.191 -0.7124  0.0821  0.1901
14424SOL    HW245715   5.008   8.881   6.309  0.2612  1.4845 -0.7837
14425SOL     OW45716   2.453   1.182   6.898  0.2955 -0.4471 -0.2001
14425SOL    HW145717   2.368   1.191   6.855  0.6814  0.8403 -0.7555
14425SOL    HW245718   2.440   1.219   6.986  0.1057 -0.9176 -0.0269
14426SOL     OW45719   1.932   1.267   6.059  0.3119  0.1868  0.0039
14426SOL    HW145720   1.935   1.283   6.153 -2.0527 -3.1569  0.8099
14426SOL    HW245721   1.842   1.241   6.041  1.1423 -1.1698 -2.8151
14427SOL     OW45722   0.675   3.109   4.385 -0.4714 -0.3132 -0.2813
14427SOL    HW145723   0.752   3.123   4.441 -1.4744  0.3837  0.9669
14427SOL    HW245724   0.635   3.029   4.419 -2.7682  1.6549  2.1360
14428SOL     OW45725   0.019   7.410   4.329 -0.4471 -0.1755  0.3815
14428SOL    HW145726   0.051   7.325   4.360 -2.0496 -0.1691  2.2266
14428SOL    HW245727  -0.057   7.389   4.274  0.8383 -0.0280 -1.5677
14429SOL     OW45728   1.696   4.906   3.968 -0.6482 -0.6110  0.2214
14429SOL    HW145729   1.700   4.817   3.933 -1.2502 -0.3287 -0.5949
14429SOL    HW245730   1.712   4.896   4.062 -0.8862 -1.6007  0.1630
14430SOL     OW45731   1.045  10.008   3.642  0.2938 -0.1269 -0.0571
14430SOL    HW145732   1.045   9.987   3.735 -0.4849 -0.0042 -0.0214
14430SOL    HW245733   1.039  10.104   3.639  2.3749  0.0450 -0.2283
14431SOL     OW45734   0.158   7.115   1.614 -0.3393  0.6874 -0.4246
14431SOL    HW145735   0.082   7.097   1.669  0.8443 -0.5203  0.8834
14431SOL    HW245736   0.142   7.203   1.579 -2.8208  0.0660 -1.0617
14432SOL     OW45737   6.197   1.828   5.943 -0.9321  0.4868  0.0232
14432SOL    HW145738   6.261   1.889   5.978 -1.8003  0.1427  2.3783
14432SOL    HW245739   6.249   1.754   5.910 -0.0668  0.4017  1.4987
14433SOL     OW45740   1.881   1.551   7.862 -0.6942  0.0147 -0.6009
14433SOL    HW145741   1.858   1.509   7.945  0.0177 -0.1311 -0.4716
14433SOL    HW245742   1.976   1.558   7.864 -0.7084  0.4483 -1.1991
14434SOL     OW45743   5.594   9.157   9.186 -0.3874 -0.1006 -0.0165
14434SOL    HW145744   5.524   9.094   9.198 -0.0502 -0.0393  2.8415
14434SOL    HW245745   5.661   9.132   9.249  0.7488  1.7584 -0.3901
14435SOL     OW45746   0.046   3.829   2.934  0.8764  0.3705  0.2341
14435SOL    HW145747   0.076   3.771   2.864  1.9400 -0.4440  1.3173
14435SOL    HW245748   0.090   3.797   3.012 -0.5241  1.0593  1.3508
14436SOL     OW45749   5.785   5.239   3.831 -0.1067 -0.0762  0.2878
14436SOL    HW145750   5.751   5.325   3.856 -0.5890 -0.1897  0.0371
14436SOL    HW245751   5.856   5.222   3.893  0.0451  0.5340  0.2958
14437SOL     OW45752   0.701   5.561   8.188  0.0604 -0.7317 -0.1770
14437SOL    HW145753   0.627   5.551   8.129  0.6265 -1.5744 -0.7577
14437SOL    HW245754   0.778   5.542   8.135  0.6309 -0.8085  0.6501
14438SOL     OW45755   2.946   3.415   3.849 -0.3577 -0.4317 -0.4078
14438SOL    HW145756   2.919   3.431   3.759 -2.8779 -1.6949  0.0409
14438SOL    HW245757   2.959   3.502   3.887  1.5834  0.1142 -2.1505
14439SOL     OW45758   7.022   4.265   3.368  0.0576  0.5343  0.2192
14439SOL    HW145759   6.997   4.357   3.353  2.5154  1.1752 -0.3078
14439SOL    HW245760   7.045   4.262   3.461  0.7162  0.6589  0.0644
14440SOL     OW45761   0.539   6.120   8.555  0.1004 -0.4956  0.1397
14440SOL    HW145762   0.623   6.136   8.598 -0.2497  1.7636  0.0924
14440SOL    HW245763   0.477   6.105   8.627  0.2305 -0.4838  0.2538
14441SOL     OW45764   9.386   5.876  10.086 -0.0102  0.2887 -0.5101
14441SOL    HW145765   9.373   5.792  10.042  1.3102  0.2174 -0.8047
14441SOL    HW245766   9.348   5.864  10.173  1.7925 -1.2662  0.1322
14442SOL     OW45767   7.116   9.009   0.964 -0.1841  0.0783 -0.3944
14442SOL    HW145768   7.198   8.966   0.988  1.3356  1.4380 -2.7311
14442SOL    HW245769   7.095   8.974   0.877 -3.0884 -1.4889  0.7833
14443SOL     OW45770   3.361   4.621   3.729  0.1498 -0.0361  0.5176
14443SOL    HW145771   3.425   4.648   3.795 -0.0559 -0.1982  0.7843
14443SOL    HW245772   3.309   4.554   3.772 -1.3485  1.3368  0.9089
14444SOL     OW45773   2.184   3.587   1.968  0.3010 -0.5293 -0.1393
14444SOL    HW145774   2.221   3.505   1.936  0.6962 -0.3241 -0.2101
14444SOL    HW245775   2.089   3.577   1.956  0.1482 -1.7424  1.6276
14445SOL     OW45776   6.022   0.354   2.798 -0.1854 -0.0197 -0.4884
14445SOL    HW145777   5.983   0.411   2.732 -0.3531  0.8424  0.3467
14445SOL    HW245778   6.107   0.394   2.818  0.1887 -0.6825 -0.6989
14446SOL     OW45779   6.634   1.158   6.283  0.9833 -0.2931  0.0641
14446SOL    HW145780   6.656   1.134   6.193 -0.0266  1.9890 -0.8782
14446SOL    HW245781   6.718   1.181   6.324  1.2214  1.3580 -1.2283
14447SOL     OW45782   6.450   2.899   4.769 -0.1949 -0.3353  0.1603
14447SOL    HW145783   6.362   2.883   4.734  0.0321 -0.5154 -0.3371
14447SOL    HW245784   6.497   2.940   4.696  0.3242 -0.8356  0.2166
14448SOL     OW45785   5.782   9.806   1.899  0.0373  0.0076 -0.1965
14448SOL    HW145786   5.771   9.820   1.805  2.3911 -0.1137 -0.5578
14448SOL    HW245787   5.696   9.826   1.937 -0.5489  1.6123 -2.1974
14449SOL     OW45788   1.388   1.125   2.513 -0.2377  0.5994 -0.4657
14449SOL    HW145789   1.459   1.174   2.556  0.4299  0.3745 -1.2976
14449SOL    HW245790   1.432   1.064   2.455 -1.0815 -0.7346  0.2530
14450SOL     OW45791   5.143   7.571   8.610  0.2022  0.2758 -0.4515
14450SOL    HW145792   5.122   7.661   8.632 -1.2629 -0.2938  0.6704
14450SOL    HW245793   5.230   7.556   8.648 -1.0010  0.2262  2.5741
14451SOL     OW45794   6.035   5.621   7.006 -0.1701 -0.4740  0.1488
14451SOL    HW145795   6.019   5.712   6.983 -0.5340 -0.5974 -0.0834
14451SOL    HW245796   5.951   5.589   7.037  0.0742 -0.5925  0.7061
14452SOL     OW45797   1.231   8.158   0.955 -0.1400 -0.1177 -0.5772
14452SOL    HW145798   1.150   8.108   0.963 -1.0345  1.5542  2.9715
14452SOL    HW245799   1.294   8.111   1.010  0.1677  0.4929 -0.3961
14453SOL     OW45800   1.750   9.219   1.365 -0.2510 -0.2872 -0.1160
14453SOL    HW145801   1.727   9.308   1.391 -0.3008 -0.6251  1.0721
14453SOL    HW245802   1.825   9.230   1.306  0.4645  0.4907  0.8994
14454SOL     OW45803   3.410   5.316   5.217  0.1445  0.5617  0.7293
14454SOL    HW145804   3.420   5.243   5.278  1.0550 -0.0381 -0.1038
14454SOL    HW245805   3.315   5.328   5.210  0.0215  0.6750  2.2582
14455SOL     OW45806   3.549   8.585   5.033  0.0867  0.3259 -0.5982
14455SOL    HW145807   3.543   8.490   5.046 -0.1063  0.2910 -0.9265
14455SOL    HW245808   3.528   8.622   5.119  0.5325  0.0626 -0.3736
14456SOL     OW45809   6.674   4.242   0.455  0.5789 -0.0439  0.2801
14456SOL    HW145810   6.756   4.283   0.482  0.9297 -1.0806  0.8511
14456SOL    HW245811   6.697   4.187   0.381  0.1628  0.5670 -0.3126
14457SOL     OW45812   7.993   1.733   1.088 -0.0441 -0.1694  0.7599
14457SOL    HW145813   7.920   1.741   1.148 -1.5314  0.3617 -1.0108
14457SOL    HW245814   7.989   1.642   1.058  1.1552 -0.6517  1.9526
14458SOL     OW45815   7.863   3.615   0.132 -0.7392 -1.0219  0.0231
14458SOL    HW145816   7.857   3.684   0.198  1.8490 -1.4675  0.8372
14458SOL    HW245817   7.789   3.557   0.151 -0.5380 -0.6837  2.0257
14459SOL     OW45818   9.365   7.722   2.032 -0.1995 -0.2965 -0.5019
14459SOL    HW145819   9.313   7.802   2.022  0.2504 -0.1793 -2.4218
14459SOL    HW245820   9.331   7.680   2.110 -1.3409  1.1173 -0.1981
14460SOL     OW45821   4.435   3.160   2.530 -0.1991  0.1476 -0.3862
14460SOL    HW145822   4.393   3.207   2.458  1.7727  2.3017 -0.2451
14460SOL    HW245823   4.495   3.099   2.488  0.3016  0.7796 -0.6113
14461SOL     OW45824   1.871   5.912   4.689  0.9726 -0.6834  0.1536
14461SOL    HW145825   1.939   5.949   4.745  1.2039 -0.2463 -0.4039
14461SOL    HW245826   1.813   5.986   4.671 -0.0476 -1.1948  1.1740
14462SOL     OW45827   5.761   1.755   2.582 -0.1500  0.2618 -0.4105
14462SOL    HW145828   5.799   1.842   2.592  1.5246 -0.5371  0.4738
14462SOL    HW245829   5.792   1.725   2.497  2.5309 -0.9441  0.8835
14463SOL     OW45830   6.518   2.149   3.040 -0.0644  0.1240 -0.6239
14463SOL    HW145831   6.439   2.133   2.987 -0.3293  1.5970 -0.7211
14463SOL    HW245832   6.507   2.239   3.071  0.8037 -0.2193  0.7275
14464SOL     OW45833   6.384  10.223   7.156  0.4005  0.0275 -0.5138
14464SOL    HW145834   6.393  10.262   7.243  0.3985  0.9162 -0.9019
14464SOL    HW245835   6.415  10.133   7.167  2.4197  0.7203 -0.0560
14465SOL     OW45836   7.889  10.181  10.366 -0.0974 -0.2735  0.3159
14465SOL    HW145837   7.903  10.143  10.452 -0.6318 -0.0276  0.5178
14465SOL    HW245838   7.898  10.275  10.379 -1.6298 -0.1117  0.4234
14466SOL     OW45839  10.102  10.189   2.572 -0.1447  0.3567 -0.1756
14466SOL    HW145840  10.097  10.219   2.481 -0.4531  0.7804 -0.0240
14466SOL    HW245841  10.182  10.137   2.575 -0.5926 -0.4132 -0.9057
14467SOL     OW45842  10.464   4.012   8.032  0.4536 -0.1552  0.0364
14467SOL    HW145843  10.372   4.036   8.045  0.0181 -1.8602  0.4051
14467SOL    HW245844  10.494   3.985   8.119  0.6576 -1.5613 -0.4339
14468SOL     OW45845   7.182  10.151   6.221  0.6538  0.1724 -0.3008
14468SOL    HW145846   7.246  10.081   6.222  1.0141  0.5048  0.5043
14468SOL    HW245847   7.215  10.216   6.284 -0.8966 -0.0430  0.7989
14469SOL     OW45848   7.420   4.844   0.697  0.4318 -0.0782 -0.4678
14469SOL    HW145849   7.410   4.837   0.792 -0.1474 -0.5328 -0.5505
14469SOL    HW245850   7.450   4.757   0.670 -2.6900 -1.1127 -1.0568
14470SOL     OW45851   7.957   8.508   0.682  0.2143 -0.2504  0.4603
14470SOL    HW145852   8.032   8.510   0.742 -0.2961  3.2663  1.1901
14470SOL    HW245853   7.927   8.598   0.679 -3.6317 -1.4046 -0.3435
14471SOL     OW45854   6.311   0.112   6.500  0.4820  0.1993  0.4203
14471SOL    HW145855   6.397   0.109   6.543  0.6096 -0.3704  0.1301
14471SOL    HW245856   6.283   0.203   6.510  1.0334  0.3462  0.6846
14472SOL     OW45857   5.186   7.774   2.150  0.5188 -0.2915  0.0575
14472SOL    HW145858   5.263   7.757   2.095  0.3592 -0.9040  0.0176
14472SOL    HW245859   5.222   7.816   2.227  0.8251 -0.0147 -0.2309
14473SOL     OW45860   0.320   7.479   4.969  0.1025  0.3548 -0.4571
14473SOL    HW145861   0.238   7.478   5.019 -1.5403  0.6510 -2.9180
14473SOL    HW245862   0.385   7.440   5.027 -1.6281  0.6938  1.8466
14474SOL     OW45863   8.531   4.720   9.233 -0.1467  0.7181 -0.3002
14474SOL    HW145864   8.472   4.722   9.158  2.0392 -1.9341 -2.2979
14474SOL    HW245865   8.566   4.809   9.239 -1.5145  1.3687 -1.4031
14475SOL     OW45866   3.961   2.798   3.235 -0.3019 -0.3165 -0.3620
14475SOL    HW145867   3.993   2.888   3.229 -1.3701  0.1067  0.0207
14475SOL    HW245868   4.018   2.757   3.300  0.2765  0.0297 -0.6324
14476SOL     OW45869   7.252   7.666   2.312 -0.4647  0.0103 -0.0851
14476SOL    HW145870   7.232   7.579   2.276  0.8689  0.0455 -0.9782
14476SOL    HW245871   7.307   7.648   2.388 -1.5967  0.0225  0.7573
14477SOL     OW45872   5.018   7.897   6.832 -0.0646 -0.0879 -0.7498
14477SOL    HW145873   4.924   7.903   6.814 -0.4183 -3.1212 -0.3740
14477SOL    HW245874   5.023   7.882   6.927  0.7635 -0.3728 -0.8270
14478SOL     OW45875   2.899   1.676   9.696 -0.2182  0.1397 -0.0118
14478SOL    HW145876   2.837   1.715   9.634 -2.9708  2.0303  3.5911
14478SOL    HW245877   2.883   1.581   9.689 -2.3325  0.4653 -0.4347
14479SOL     OW45878   8.795   0.828   8.404 -0.1440  0.3376  0.1662
14479SOL    HW145879   8.730   0.896   8.388  0.7305  1.1893  0.1185
14479SOL    HW245880   8.838   0.855   8.485 -0.7150 -0.9123  0.9146
14480SOL     OW45881   4.162  10.366   5.701  0.2368  0.3347  0.2817
14480SOL    HW145882   4.232  10.302   5.689 -0.2931 -0.2098  0.0655
14480SOL    HW245883   4.207  10.445   5.731  0.7977 -0.3850  1.3993
14481SOL     OW45884   4.666   5.456   5.435  0.4126 -0.4514 -0.0732
14481SOL    HW145885   4.723   5.431   5.362 -0.8851 -1.1541 -0.8846
14481SOL    HW245886   4.596   5.391   5.433 -1.8353  1.8425 -0.7451
14482SOL     OW45887   8.061   4.064   2.532  0.1922 -0.1976 -0.4224
14482SOL    HW145888   8.014   4.080   2.450 -0.5792 -3.6932 -0.8484
14482SOL    HW245889   8.005   4.002   2.579  3.5505 -3.5457 -0.3141
14483SOL     OW45890   1.217   3.785   6.554  0.6269 -0.0827  0.2702
14483SOL    HW145891   1.206   3.841   6.630  1.5358  1.2301 -0.5231
14483SOL    HW245892   1.146   3.808   6.495  1.1400  0.4275 -0.1590
14484SOL     OW45893   5.364   7.926   9.256  0.8496  0.3091  0.8874
14484SOL    HW145894   5.383   8.018   9.272  0.0284  0.4371  1.1898
14484SOL    HW245895   5.437   7.879   9.295  1.9625  0.8654 -0.4391
14485SOL     OW45896   2.207   3.568   4.320 -0.0836  0.1825 -0.1048
14485SOL    HW145897   2.228   3.653   4.360 -1.1477  0.1970  0.4500
14485SOL    HW245898   2.118   3.578   4.287  0.4460 -0.1401 -1.6871
14486SOL     OW45899   3.207   0.339   4.324  0.3998 -0.1446 -0.4469
14486SOL    HW145900   3.133   0.299   4.279  1.6046 -0.7487 -1.9648
14486SOL    HW245901   3.282   0.324   4.267  1.7179  0.4615  1.0282
14487SOL     OW45902   6.032   4.843   2.790  0.2961  0.1939 -0.1683
14487SOL    HW145903   6.110   4.898   2.804  0.2117  0.1476  0.5426
14487SOL    HW245904   5.959   4.899   2.814 -0.0905  0.9252 -2.7535
14488SOL     OW45905   1.659   5.414   5.404 -0.0204  0.0417  0.1844
14488SOL    HW145906   1.705   5.412   5.488 -1.4398  0.5751  0.9986
14488SOL    HW245907   1.714   5.468   5.348  0.5372  0.3702  1.0273
14489SOL     OW45908   4.657   8.780   7.306 -0.1918  0.0027  0.4116
14489SOL    HW145909   4.611   8.766   7.389  0.6574  2.9464  1.4890
14489SOL    HW245910   4.587   8.795   7.242 -0.8367  1.1774  1.3513
14490SOL     OW45911   9.364   0.109   9.225  0.3088  0.9030 -0.2478
14490SOL    HW145912   9.322   0.184   9.266 -1.0302  0.0844 -0.0473
14490SOL    HW245913   9.323   0.103   9.138  0.3939  0.4144 -0.2584
14491SOL     OW45914   5.553   4.244   7.038 -0.4262  0.4808 -0.0780
14491SOL    HW145915   5.514   4.330   7.049  0.7665  0.8443  1.7893
14491SOL    HW245916   5.496   4.185   7.087 -0.2421  0.5178  0.1814
14492SOL     OW45917   7.302   9.124   7.212 -0.3463  0.5047  0.4623
14492SOL    HW145918   7.369   9.177   7.169 -0.3663  2.3375  2.4725
14492SOL    HW245919   7.219   9.159   7.179 -0.3301  0.5147  0.4329
14493SOL     OW45920   9.474   8.988   7.029  0.8095 -0.0263  0.3470
14493SOL    HW145921   9.406   8.957   7.090  0.5515  0.5817  0.3715
14493SOL    HW245922   9.554   8.942   7.058  0.2705 -1.3052 -0.1421
14494SOL     OW45923   8.827   7.647   7.553 -0.3754 -0.3208 -0.4393
14494SOL    HW145924   8.808   7.630   7.645 -1.7885  2.0126 -0.2122
14494SOL    HW245925   8.779   7.579   7.505 -2.3406  0.3327  0.4864
14495SOL     OW45926  10.376   3.874   9.930  0.4488 -0.2825  0.6895
14495SOL    HW145927  10.313   3.831   9.872 -0.8328 -0.5450  2.1894
14495SOL    HW245928  10.386   3.962   9.894 -0.5465 -0.3463  0.2177
14496SOL     OW45929   9.160   4.509   9.275 -0.3210  0.2118 -0.0002
14496SOL    HW145930   9.092   4.489   9.339  0.2976 -0.2375  0.5321
14496SOL    HW245931   9.207   4.584   9.311  0.6079 -0.6075  0.5463
14497SOL     OW45932   3.238   0.016   3.639 -0.2130 -0.2569  0.6510
14497SOL    HW145933   3.280   0.100   3.660 -0.5687 -0.0556  0.5651
14497SOL    HW245934   3.164   0.040   3.583 -0.3466 -0.6258  0.6686
14498SOL     OW45935   0.405   2.038   8.870  0.3081 -0.1649  0.1985
14498SOL    HW145936   0.381   1.946   8.858  1.9277 -0.7933  1.3810
14498SOL    HW245937   0.499   2.041   8.853  0.3710  1.1814  0.6426
14499SOL     OW45938   0.535   2.297   2.819 -0.4541 -0.7253 -0.0030
14499SOL    HW145939   0.524   2.211   2.858  0.2995 -0.6044  0.4976
14499SOL    HW245940   0.629   2.315   2.827 -0.2707 -0.6647 -1.8059
14500SOL     OW45941   0.408   7.471   8.873 -0.7806 -0.3584 -0.0360
14500SOL    HW145942   0.320   7.504   8.853 -0.8605  2.2665  3.5351
14500SOL    HW245943   0.467   7.528   8.823 -1.0820 -0.2376 -0.2595
14501SOL     OW45944   9.086   7.058   7.736 -0.4695  0.2900  0.2722
14501SOL    HW145945   9.096   7.111   7.815 -0.9468 -0.0161  0.5414
14501SOL    HW245946   9.170   7.013   7.727 -0.1880  0.8190  0.2423
14502SOL     OW45947   3.917   8.416   2.233 -0.2609 -0.0622  0.2593
14502SOL    HW145948   3.964   8.365   2.168 -0.9194 -0.4647  0.0926
14502SOL    HW245949   3.959   8.394   2.316 -1.3006 -1.8343  0.3675
14503SOL     OW45950   7.156   5.509   9.137  0.6571  0.3412  0.5437
14503SOL    HW145951   7.070   5.510   9.094  1.1371 -2.1794 -0.7022
14503SOL    HW245952   7.142   5.553   9.221 -1.7528  0.3408  0.2145
14504SOL     OW45953   6.032   8.064   7.799  0.1736 -0.1914 -0.1135
14504SOL    HW145954   5.947   8.062   7.844 -0.3577 -0.4199 -1.1054
14504SOL    HW245955   6.068   8.150   7.821 -0.0109 -0.3402  0.8435
14505SOL     OW45956   8.273   4.377   7.826  0.1405 -0.1270  0.6134
14505SOL    HW145957   8.367   4.392   7.821  0.2729 -1.1498 -0.4625
14505SOL    HW245958   8.238   4.421   7.747 -0.1741 -0.4749  0.5567
14506SOL     OW45959   9.874   2.212   8.729  0.5975  0.3932 -0.2294
14506SOL    HW145960   9.942   2.158   8.771  0.5621  1.0825  0.7447
14506SOL    HW245961   9.798   2.203   8.786  0.5137  1.2685 -0.1903
14507SOL     OW45962   1.146   7.815   3.031  0.2499 -0.3336 -0.2772
14507SOL    HW145963   1.213   7.842   2.968 -0.9036  0.0808 -1.3795
14507SOL    HW245964   1.183   7.837   3.117  1.5136 -0.1336 -0.8462
14508SOL     OW45965   4.471   0.935   0.227 -0.7648  0.2155  0.1543
14508SOL    HW145966   4.450   0.841   0.228  0.1128 -0.0937  3.8496
14508SOL    HW245967   4.565   0.938   0.212 -0.8677  0.5533 -0.4355
14509SOL     OW45968   1.534   0.347   6.346 -0.0856  0.4412 -0.2716
14509SOL    HW145969   1.535   0.438   6.377 -0.1095  0.8223 -1.3531
14509SOL    HW245970   1.510   0.354   6.253  0.3308 -0.6366 -0.4682
14510SOL     OW45971   7.279   6.844   0.772  0.0007 -0.2093  0.7398
14510SOL    HW145972   7.244   6.778   0.832  0.5101 -0.1205  1.1421
14510SOL    HW245973   7.361   6.806   0.740 -1.2272 -1.1394 -1.4731
14511SOL     OW45974  10.490   3.760   5.940 -0.1414  0.0048 -0.2750
14511SOL    HW145975  10.460   3.831   5.997  1.3908 -1.1843  2.2020
14511SOL    HW245976  10.420   3.749   5.876 -1.1272  2.6699  0.2386
14512SOL     OW45977   9.467   7.083   5.712  0.1501 -0.3618 -0.7153
14512SOL    HW145978   9.430   7.003   5.674 -1.4955 -1.2536  2.4004
14512SOL    HW245979   9.393   7.126   5.755  1.5756  1.3059  0.2216
14513SOL     OW45980   6.792   8.632   1.469  0.3950  0.0113 -0.2633
14513SOL    HW145981   6.873   8.662   1.427  0.3023 -0.5401 -0.8375
14513SOL    HW245982   6.792   8.677   1.554  1.5026 -0.2921 -0.0846
14514SOL     OW45983   8.625   7.868   4.645  0.1694 -0.3234 -0.4773
14514SOL    HW145984   8.622   7.888   4.552 -2.2632 -1.5992 -0.7515
14514SOL    HW245985   8.576   7.939   4.686  1.7094  0.5422 -0.0433
14515SOL     OW45986   5.882  10.415   9.160  0.2601 -0.1128 -0.1942
14515SOL    HW145987   5.952  10.399   9.223 -0.4829 -1.5765  0.2838
14515SOL    HW245988   5.803  10.427   9.213 -0.0052  0.8240 -0.7615
14516SOL     OW45989   3.961   2.884   0.790 -0.1242 -0.0755 -0.4016
14516SOL    HW145990   3.996   2.972   0.774  1.3978 -0.7917 -1.1193
14516SOL    HW245991   3.958   2.843   0.704  1.2906 -1.4706  0.1763
14517SOL     OW45992   8.969   8.893   2.522  0.0169  0.0565 -0.1426
14517SOL    HW145993   8.876   8.878   2.537  0.2147  0.6706  2.0651
14517SOL    HW245994   8.979   8.887   2.427 -2.0685 -1.0431 -0.3540
14518SOL     OW45995   5.257   1.126   5.697 -0.4417  0.4665  0.1281
14518SOL    HW145996   5.341   1.118   5.741  0.0150  1.3755 -0.5330
14518SOL    HW245997   5.230   1.036   5.679  0.2514  0.1607  0.5938
14519SOL     OW45998   5.026   1.492   5.640  0.3007  0.2586 -0.3414
14519SOL    HW145999   5.072   1.419   5.599  2.2767 -0.4257  2.7940
14519SOL    HW246000   5.095   1.553   5.665 -0.5489  0.1077  2.8029
14520SOL     OW46001   2.408   2.603  10.372  0.3015 -0.2102 -0.1228
14520SOL    HW146002   2.414   2.622  10.278  2.8848  1.8407  0.3580
14520SOL    HW246003   2.345   2.531  10.377 -0.6195  0.1899 -3.3243
14521SOL     OW46004   6.922   2.549   6.610  0.4350  0.0977  0.0668
14521SOL    HW146005   6.906   2.457   6.590 -2.0823  0.6657 -0.9513
14521SOL    HW246006   6.840   2.581   6.646  1.6591  1.6801  1.6166
14522SOL     OW46007  10.136   2.508   1.085 -0.7139 -0.5001 -0.0800
14522SOL    HW146008  10.094   2.593   1.099 -0.9838 -0.6223 -0.1505
14522SOL    HW246009  10.092   2.471   1.008 -1.3086 -1.1481  0.5497
14523SOL     OW46010   2.961   1.288   5.747 -0.2126 -0.0596 -0.0266
14523SOL    HW146011   2.980   1.247   5.662  0.0904  0.7417 -0.3586
14523SOL    HW246012   2.921   1.373   5.724  0.7032  0.5587  0.6112
14524SOL     OW46013   4.600   4.903   2.733  0.3545  0.1069  0.4013
14524SOL    HW146014   4.598   4.997   2.750  0.0527  0.2912 -0.5954
14524SOL    HW246015   4.525   4.868   2.781  0.0618  0.4791  0.2230
14525SOL     OW46016   2.007   4.729   8.322  0.3889  0.2185  0.5414
14525SOL    HW146017   1.945   4.784   8.274  1.7626  0.4656 -1.0716
14525SOL    HW246018   2.084   4.785   8.333  1.1212 -0.7575  0.5300
14526SOL     OW46019   9.685   8.893   3.164  0.1882  1.0156 -0.5310
14526SOL    HW146020   9.683   8.863   3.073 -0.4011 -3.8553  0.8389
14526SOL    HW246021   9.596   8.923   3.182 -0.4368 -0.5323 -0.9048
14527SOL     OW46022  10.026   2.757   5.888 -0.6044 -0.2211 -0.3633
14527SOL    HW146023  10.044   2.666   5.909 -1.8038 -0.5571 -0.6893
14527SOL    HW246024  10.033   2.761   5.792 -1.9305 -0.3186 -0.4844
14528SOL     OW46025   7.665   4.106   1.052 -0.6745 -0.0897 -0.0601
14528SOL    HW146026   7.689   4.198   1.051 -0.8230 -0.0107  1.2583
14528SOL    HW246027   7.747   4.059   1.041 -0.6186  0.1898 -0.9023
14529SOL     OW46028   5.550   3.470  10.067 -0.6721 -0.3961  0.1113
14529SOL    HW146029   5.572   3.538  10.004  1.0999 -0.3372  0.7421
14529SOL    HW246030   5.576   3.388  10.025 -0.5921 -0.4653  0.2944
14530SOL     OW46031   6.567   1.066  10.283 -0.1818 -0.5651 -0.2386
14530SOL    HW146032   6.557   0.986  10.231  1.4872 -0.3168 -1.0212
14530SOL    HW246033   6.567   1.136  10.218  2.5263 -0.2891 -0.0622
14531SOL     OW46034   2.799   2.213   9.009 -0.2725  0.0441 -0.5766
14531SOL    HW146035   2.825   2.297   8.971 -0.5287  0.3739 -0.0472
14531SOL    HW246036   2.705   2.224   9.027  0.1788  0.5797  1.8122
14532SOL     OW46037   6.056   4.989   3.400  0.0126  0.1328  0.4673
14532SOL    HW146038   6.058   4.898   3.371  1.2152 -0.3658  1.9753
14532SOL    HW246039   6.019   4.985   3.488 -0.4354  1.1931  0.3465
14533SOL     OW46040   7.387   3.105   0.009  0.2492 -0.0262 -0.2064
14533SOL    HW146041   7.382   3.174   0.075 -1.2579  2.3873 -2.6386
14533SOL    HW246042   7.375   3.024   0.058 -3.5050  1.7529  2.2815
14534SOL     OW46043   2.146   4.477   6.767  0.2145  0.0061 -0.4631
14534SOL    HW146044   2.205   4.437   6.703 -2.9628 -1.8775 -2.5376
14534SOL    HW246045   2.107   4.551   6.720 -0.9125 -0.3410 -0.1100
14535SOL     OW46046   8.884   8.983   5.040  0.0893 -0.0082  0.1464
14535SOL    HW146047   8.807   9.039   5.049 -0.6014 -1.0214  0.7143
14535SOL    HW246048   8.942   9.032   4.982  0.4595  2.3157  2.2865
14536SOL     OW46049   4.117   4.002   2.156 -0.1975 -0.3167 -0.1494
14536SOL    HW146050   4.046   4.059   2.186  0.5661 -0.0162  1.1470
14536SOL    HW246051   4.087   3.913   2.177  0.4477 -0.1004  1.8981
14537SOL     OW46052   5.961   2.653   3.033  0.2117  0.1790  0.3348
14537SOL    HW146053   6.029   2.617   2.976 -1.8895 -1.3810 -1.3732
14537SOL    HW246054   5.909   2.577   3.059 -0.8812  1.3107  1.6132
14538SOL     OW46055   3.443   4.665   5.003 -0.7406 -0.6032 -0.0113
14538SOL    HW146056   3.435   4.755   5.036 -1.0059 -0.7526  0.3362
14538SOL    HW246057   3.476   4.675   4.914 -1.7754 -0.1023 -0.3501
14539SOL     OW46058   6.752   3.315   1.511  0.4857  0.6053 -0.2987
14539SOL    HW146059   6.807   3.393   1.518  2.2175 -0.7293  3.5676
14539SOL    HW246060   6.813   3.245   1.490  0.0704 -0.6264  2.2986
14540SOL     OW46061   2.454   1.873   0.758 -0.4175  1.0225 -0.1929
14540SOL    HW146062   2.451   1.954   0.707 -0.4704  0.8672 -0.4362
14540SOL    HW246063   2.364   1.840   0.757 -0.2032  0.4279 -0.9584
14541SOL     OW46064   1.345   3.139   3.921  0.1050  0.5667 -0.8121
14541SOL    HW146065   1.270   3.083   3.940 -0.1930  0.9614 -0.8322
14541SOL    HW246066   1.344   3.150   3.826 -0.1435  1.0395 -0.7539
14542SOL     OW46067   1.345   6.931   2.273 -0.4863 -0.4247 -0.2191
14542SOL    HW146068   1.401   6.859   2.243 -1.0506 -0.5110 -1.1198
14542SOL    HW246069   1.406   6.997   2.304  0.0349 -1.4103  0.9433
14543SOL     OW46070   8.280   7.836  10.406  0.4364 -0.1413  0.4513
14543SOL    HW146071   8.193   7.870  10.385  0.7782  0.6555  0.3105
14543SOL    HW246072   8.279   7.746  10.373  1.0711  1.0814 -3.3986
14544SOL     OW46073   7.564   4.079   6.135  0.6390 -0.1111  0.3784
14544SOL    HW146074   7.534   4.038   6.216  0.1249  0.7868  0.6563
14544SOL    HW246075   7.645   4.032   6.113  0.2979 -0.9762  0.9052
14545SOL     OW46076   1.374   5.536   4.020 -0.1229  0.1934  0.3721
14545SOL    HW146077   1.352   5.623   3.989  0.6630  0.5081  0.6779
14545SOL    HW246078   1.328   5.477   3.960 -1.5450  0.8084  0.8105
14546SOL     OW46079   3.433   1.486   2.030  0.1948 -0.1324 -0.0395
14546SOL    HW146080   3.350   1.468   1.986  0.7214 -1.0251 -0.6761
14546SOL    HW246081   3.413   1.474   2.123  0.2291 -3.0045 -0.3280
14547SOL     OW46082   6.807   9.368   1.276  0.1155 -0.5850 -0.3816
14547SOL    HW146083   6.822   9.380   1.370  2.5548 -1.7424 -0.5550
14547SOL    HW246084   6.892   9.342   1.241 -0.8222 -0.5782 -2.8749
14548SOL     OW46085   5.917   8.498   5.313  0.2557  0.5915  0.3914
14548SOL    HW146086   5.989   8.546   5.272 -0.0657  0.8426  0.1186
14548SOL    HW246087   5.894   8.550   5.389 -0.6616  1.3365 -0.3749
14549SOL     OW46088   9.915   5.641   1.000  0.1094  0.3161 -0.0257
14549SOL    HW146089   9.916   5.577   1.071  1.8231  0.0921 -0.2011
14549SOL    HW246090   9.891   5.723   1.042  0.7316  0.1114  0.7533
14550SOL     OW46091   0.027  10.085   7.793  0.3212 -0.0673  0.5826
14550SOL    HW146092  -0.023  10.052   7.718  1.1462 -1.3933  0.5892
14550SOL    HW246093  -0.019  10.051   7.869 -0.0334  0.5757  0.6591
14551SOL     OW46094   0.205   2.976   4.236 -0.6285 -0.0576  0.0534
14551SOL    HW146095   0.164   3.062   4.224 -1.6661  0.0507  3.2188
14551SOL    HW246096   0.247   2.983   4.322  3.6210 -1.1926 -1.7295
14552SOL     OW46097   1.513   8.206   8.322 -0.0205 -0.3629  0.2198
14552SOL    HW146098   1.460   8.231   8.247 -0.1163  0.1068  0.4390
14552SOL    HW246099   1.586   8.156   8.285  1.2073  1.8008 -0.4716
14553SOL     OW46100   9.247   2.110   6.554 -0.0593  0.0314 -0.4387
14553SOL    HW146101   9.319   2.070   6.504  0.4119  0.4974 -0.1440
14553SOL    HW246102   9.168   2.084   6.507  0.2741 -0.7806 -0.5713
14554SOL     OW46103   7.211   5.775   3.587 -0.4994  0.5619 -0.1077
14554SOL    HW146104   7.191   5.722   3.664 -3.1296  2.2225  0.4792
14554SOL    HW246105   7.177   5.724   3.514  1.5514 -0.7863 -0.2181
14555SOL     OW46106   5.237   7.118   3.764 -0.1744 -0.1762  0.3791
14555SOL    HW146107   5.246   7.213   3.763  2.9050 -0.3719  0.1015
14555SOL    HW246108   5.234   7.095   3.857 -0.1471  0.1173  0.4539
14556SOL     OW46109   7.917   4.258   8.701  0.1487 -0.2835  0.2414
14556SOL    HW146110   7.985   4.193   8.720 -0.6976 -1.4118 -0.4410
14556SOL    HW246111   7.893   4.242   8.610  0.6867  1.7560 -0.3157
14557SOL     OW46112   2.143   0.697   5.615 -0.1865  0.0691  0.3990
14557SOL    HW146113   2.154   0.606   5.588  1.9806 -0.0633  1.4689
14557SOL    HW246114   2.169   0.698   5.707  0.3361  1.8442  0.2765
14558SOL     OW46115  10.435   8.021   2.619  0.0005 -0.4459 -0.5033
14558SOL    HW146116  10.436   8.117   2.629  0.0587 -0.3142 -1.7204
14558SOL    HW246117  10.527   7.996   2.626 -0.0724 -0.5043  0.4682
14559SOL     OW46118   6.285   1.765   1.983  0.0627  0.0105 -0.7739
14559SOL    HW146119   6.339   1.840   2.008  1.9895 -1.2000 -1.1042
14559SOL    HW246120   6.286   1.766   1.887  1.5658 -1.3597 -0.8204
14560SOL     OW46121   8.279   5.404   7.504  0.5905 -0.6165  0.0421
14560SOL    HW146122   8.335   5.332   7.532 -0.8490 -1.1689  1.6871
14560SOL    HW246123   8.239   5.436   7.584  2.1136  2.9278 -0.4323
14561SOL     OW46124   1.772   8.099   6.861  0.7752 -0.3388 -0.5810
14561SOL    HW146125   1.716   8.031   6.823 -2.8694  2.4223 -0.7561
14561SOL    HW246126   1.827   8.129   6.788  0.8481 -1.6031 -1.0623
14562SOL     OW46127   8.544   8.427   4.800  0.1850 -0.1756 -0.1797
14562SOL    HW146128   8.586   8.352   4.842 -1.6227 -0.7988  0.5979
14562SOL    HW246129   8.607   8.456   4.734  2.0667 -0.6798  1.3325
14563SOL     OW46130   1.714   6.288   0.896 -0.4155 -0.3577 -0.3941
14563SOL    HW146131   1.710   6.208   0.949  1.9582 -0.4395 -0.1969
14563SOL    HW246132   1.807   6.298   0.875 -0.9856  0.9438 -2.6431
14564SOL     OW46133   5.231   6.387   3.318 -0.3983 -0.3451 -0.0664
14564SOL    HW146134   5.269   6.470   3.291 -0.2106 -0.1433  0.7971
14564SOL    HW246135   5.167   6.410   3.385 -1.3893 -0.7678 -0.8424
14565SOL     OW46136   2.270   4.391  10.216  0.1253  0.4588 -0.2118
14565SOL    HW146137   2.303   4.353  10.135  0.2993 -1.9906  0.9140
14565SOL    HW246138   2.230   4.317  10.262  0.5876  1.6329  2.2064
14566SOL     OW46139   9.096   1.266   7.632 -0.3874 -0.3596  0.0987
14566SOL    HW146140   9.184   1.256   7.594  0.5148  0.0827  1.9351
14566SOL    HW246141   9.059   1.178   7.630  0.7321 -0.8717  0.6893
14567SOL     OW46142   3.369   9.438  10.371 -0.4374 -0.0975 -0.0180
14567SOL    HW146143   3.372   9.363  10.312 -0.1977 -0.0070 -0.1193
14567SOL    HW246144   3.278   9.440  10.401 -0.4390 -0.4467  0.0111
14568SOL     OW46145   6.399   9.010   2.855  0.2589  0.0885 -0.5256
14568SOL    HW146146   6.459   8.950   2.811  1.2262  0.1584  0.6583
14568SOL    HW246147   6.392   9.085   2.796  0.8150 -0.2143 -0.9810
14569SOL     OW46148   1.133   2.430   8.274  0.2128 -0.4530 -0.1084
14569SOL    HW146149   1.220   2.390   8.265 -0.1748 -1.1918 -0.6638
14569SOL    HW246150   1.150   2.515   8.314  1.0669 -1.1448  1.0451
14570SOL     OW46151   5.107   5.138   0.101  0.1220  0.2453 -0.2025
14570SOL    HW146152   5.078   5.227   0.084  0.6759  0.2804 -1.0390
14570SOL    HW246153   5.200   5.138   0.080  0.5550 -0.0950  1.5139
14571SOL     OW46154   5.066   3.164   6.200  0.4895  0.5336 -0.4043
14571SOL    HW146155   5.090   3.249   6.162  1.2652  1.5160  2.0939
14571SOL    HW246156   5.145   3.111   6.189  0.8193  0.9135  0.0852
14572SOL     OW46157   9.701   2.366   4.158  0.0361  0.1520 -0.1052
14572SOL    HW146158   9.741   2.375   4.244  2.0742  0.1558 -0.9852
14572SOL    HW246159   9.690   2.272   4.146  0.3613  0.1097 -0.0871
14573SOL     OW46160   5.339   2.158   9.781  0.1606 -0.5536  0.0907
14573SOL    HW146161   5.381   2.241   9.755  1.5136 -1.1691  0.2526
14573SOL    HW246162   5.411   2.103   9.811 -0.6642 -1.9564 -0.4268
14574SOL     OW46163   4.200   5.241   2.789 -0.4407 -0.1822 -0.6378
14574SOL    HW146164   4.186   5.209   2.878 -0.6112 -0.8198 -0.8879
14574SOL    HW246165   4.118   5.225   2.744 -0.1114 -0.5540 -1.1135
14575SOL     OW46166   7.422   9.158   9.224  1.3827  0.4099  0.1153
14575SOL    HW146167   7.413   9.076   9.175  0.6538  0.7087 -0.2682
14575SOL    HW246168   7.362   9.219   9.180  2.1155  1.2325  0.2196
14576SOL     OW46169   7.725   5.837   3.202 -0.7593 -0.6416  0.2395
14576SOL    HW146170   7.800   5.855   3.145 -1.2514  0.2169 -0.1505
14576SOL    HW246171   7.734   5.899   3.274 -1.0838 -0.5624  0.2095
14577SOL     OW46172   6.234   2.240   7.779 -0.4643  0.2764  0.2346
14577SOL    HW146173   6.251   2.209   7.868  2.0157 -3.4914 -1.2960
14577SOL    HW246174   6.142   2.219   7.764 -0.1659 -1.8567  1.0287
14578SOL     OW46175  10.147   9.066   9.095 -0.4725  0.3330 -0.5812
14578SOL    HW146176  10.093   8.990   9.075 -0.3987  0.1779 -0.2000
14578SOL    HW246177  10.182   9.049   9.182 -0.4657  0.8106 -0.4844
14579SOL     OW46178   8.152  10.139   2.392 -0.5808  0.2527 -0.8142
14579SOL    HW146179   8.234  10.167   2.351  0.4072 -0.2417  0.7304
14579SOL    HW246180   8.123  10.216   2.442 -0.0362 -0.1493  0.1481
14580SOL     OW46181   8.736   7.405   7.403  0.3510  0.2552  0.1945
14580SOL    HW146182   8.757   7.391   7.311  0.9156  0.7745  0.2432
14580SOL    HW246183   8.669   7.338   7.422  1.1773 -0.7197 -0.2370
14581SOL     OW46184   5.281   8.888   2.261 -0.7558 -0.1275  0.9371
14581SOL    HW146185   5.350   8.954   2.269 -1.2797  0.2068  3.2803
14581SOL    HW246186   5.313   8.828   2.194 -0.0553  2.2157 -0.9588
14582SOL     OW46187   3.979   9.019   5.838  0.4298 -0.1192  0.1456
14582SOL    HW146188   3.959   9.107   5.807  0.8788  0.2090  0.7658
14582SOL    HW246189   3.905   8.966   5.808  1.5179 -0.1546 -2.7499
14583SOL     OW46190   6.695   6.219   9.474 -0.0073  0.0404 -0.2602
14583SOL    HW146191   6.673   6.301   9.430  0.6841  0.5074  0.2362
14583SOL    HW246192   6.614   6.193   9.517  0.3826  1.8355  1.7255
14584SOL     OW46193   6.344   3.817   6.907 -0.0862 -0.0574  0.2872
14584SOL    HW146194   6.405   3.779   6.843  0.2344  0.2237  0.4279
14584SOL    HW246195   6.262   3.770   6.891 -0.5129  1.1703 -1.5077
14585SOL     OW46196   0.126   2.656   5.068 -0.5936 -0.4381 -0.1925
14585SOL    HW146197   0.034   2.677   5.083 -0.2928  0.3792  0.5888
14585SOL    HW246198   0.145   2.588   5.134 -0.0544  1.0376  1.2368
14586SOL     OW46199   2.578  10.345   7.444 -0.9376  0.0995 -0.0076
14586SOL    HW146200   2.595  10.414   7.507 -0.1253  1.6204 -1.7973
14586SOL    HW246201   2.491  10.366   7.409 -0.9889 -0.1957 -0.0595
14587SOL     OW46202   0.898   2.081   8.838 -0.2304  0.2164  0.1209
14587SOL    HW146203   0.914   2.135   8.915  0.0956  0.1635  0.0930
14587SOL    HW246204   0.806   2.054   8.845  0.2471 -1.2171  1.4239
14588SOL     OW46205   0.112   1.831  10.247 -0.1718 -0.3014 -0.3129
14588SOL    HW146206   0.182   1.863  10.191 -0.3836  1.0508  0.1585
14588SOL    HW246207   0.041   1.810  10.187  0.8188 -2.2876 -0.8583
14589SOL     OW46208   1.153   9.950   1.770  0.3519  0.2961  0.2093
14589SOL    HW146209   1.171   9.865   1.810 -1.3689 -0.9397 -1.4237
14589SOL    HW246210   1.239   9.989   1.757  1.2651 -1.5337  0.3510
14590SOL     OW46211   8.468   6.648   4.797 -0.0580  0.1161  0.1954
14590SOL    HW146212   8.523   6.570   4.812  2.1869  0.4601 -4.4806
14590SOL    HW246213   8.411   6.623   4.724  0.0639  2.5529 -0.8065
14591SOL     OW46214   0.359   4.497   8.041 -0.3445  0.1272 -0.6275
14591SOL    HW146215   0.451   4.505   8.067 -0.6794  2.5173  0.0417
14591SOL    HW246216   0.360   4.431   7.972  1.4061 -2.2423  1.4330
14592SOL     OW46217   2.103   1.659   7.651  0.3953 -0.1512  0.7092
14592SOL    HW146218   2.127   1.692   7.738 -0.4740 -0.7404  1.1888
14592SOL    HW246219   2.114   1.735   7.593 -0.5673  0.7300  1.6189
14593SOL     OW46220   2.344   5.743   4.390 -0.4519  0.5953  0.3248
14593SOL    HW146221   2.301   5.804   4.450  0.8577  1.5953  0.2627
14593SOL    HW246222   2.357   5.664   4.443 -0.4974  1.0018  0.9549
14594SOL     OW46223   3.231   1.893   3.653 -0.1137  0.2359 -0.6981
14594SOL    HW146224   3.244   1.960   3.586 -0.6739  0.2592 -0.7905
14594SOL    HW246225   3.136   1.888   3.664 -0.0085  0.5607  0.4440
14595SOL     OW46226   9.648   8.628   4.580  0.9255  0.1906  0.6029
14595SOL    HW146227   9.704   8.557   4.612  2.2742  0.5803 -0.7854
14595SOL    HW246228   9.693   8.708   4.606  1.5641  0.5105 -1.3708
14596SOL     OW46229   5.512   7.660   7.338  0.1974 -0.0733  0.2058
14596SOL    HW146230   5.422   7.664   7.371  0.0598 -1.0777 -0.0241
14596SOL    HW246231   5.550   7.744   7.363 -0.4467 -0.0963  1.3670
14597SOL     OW46232   5.265   9.481   3.623 -0.2716  0.3165  0.1198
14597SOL    HW146233   5.314   9.475   3.705 -0.8541  0.0391  0.4503
14597SOL    HW246234   5.305   9.555   3.577 -1.1983  1.7429  1.5086
14598SOL     OW46235   4.032   1.780   6.535 -0.5612  0.6172 -0.0392
14598SOL    HW146236   3.992   1.750   6.454  0.4016 -2.3367  0.4441
14598SOL    HW246237   4.122   1.803   6.511 -0.1151 -0.7583  0.2041
14599SOL     OW46238   0.969   8.941  10.471  0.5588  0.6677 -0.1462
14599SOL    HW146239   0.978   9.005  10.542  0.8709  1.3303 -0.7760
14599SOL    HW246240   1.058   8.906  10.460  0.4491  0.3457 -0.0066
14600SOL     OW46241   2.946   9.437   1.775  0.4796 -0.3707  0.2927
14600SOL    HW146242   3.008   9.388   1.721  0.0222 -1.4153  0.7056
14600SOL    HW246243   2.999   9.507   1.814  0.8856  0.2194 -1.2263
14601SOL     OW46244   9.690   3.132   3.607 -0.2908 -0.3286  0.2244
14601SOL    HW146245   9.761   3.126   3.543  1.3981  0.8496  1.8556
14601SOL    HW246246   9.715   3.071   3.676 -0.8093  0.1420  0.8435
14602SOL     OW46247   8.444   4.245   6.291 -0.4270 -0.2174  0.0494
14602SOL    HW146248   8.408   4.317   6.239 -0.7958  1.0912  1.9712
14602SOL    HW246249   8.539   4.250   6.278 -0.2385  1.9568  1.6192
14603SOL     OW46250   9.334   7.370   0.352  0.5017 -0.2303 -0.0487
14603SOL    HW146251   9.336   7.381   0.447 -1.1710  1.2020 -0.1351
14603SOL    HW246252   9.242   7.356   0.330  0.2819  2.8468 -1.7163
14604SOL     OW46253   8.694   5.285   9.521  0.1456  0.0433 -0.7311
14604SOL    HW146254   8.718   5.262   9.431  1.9854 -0.7077 -0.0811
14604SOL    HW246255   8.609   5.329   9.512 -0.4537 -1.3763 -2.6647
14605SOL     OW46256   6.015   8.690   9.684 -0.4453 -0.2199 -0.0252
14605SOL    HW146257   6.105   8.679   9.653 -0.4069  0.7120 -0.2761
14605SOL    HW246258   5.988   8.603   9.713  2.0575  0.1248  4.2580
14606SOL     OW46259   9.266   9.936   6.731  0.1374  0.6758  0.0307
14606SOL    HW146260   9.251   9.931   6.825  0.1793  2.7458  0.2021
14606SOL    HW246261   9.336   9.873   6.714 -0.1482 -0.0150  1.2996
14607SOL     OW46262   5.564   8.904   9.987 -0.4627 -0.0863 -0.4116
14607SOL    HW146263   5.527   8.838  10.046 -0.1827 -0.7444 -0.9522
14607SOL    HW246264   5.573   8.858   9.904  1.0881  0.2143 -0.4250
14608SOL     OW46265   1.951   1.791   9.389 -0.3804  0.4789 -0.0591
14608SOL    HW146266   2.027   1.777   9.446 -0.6411 -0.7529  0.0168
14608SOL    HW246267   1.987   1.834   9.311  0.6017 -1.0455 -0.4955
14609SOL     OW46268   5.708   0.673   9.590  0.3411 -0.2450  0.1343
14609SOL    HW146269   5.799   0.654   9.614  0.3102  0.8754  1.2583
14609SOL    HW246270   5.660   0.668   9.673 -0.6924 -1.1592 -0.5010
14610SOL     OW46271   8.299   4.016   5.985  0.6168  0.2806  0.4730
14610SOL    HW146272   8.234   4.031   5.917  1.3877  1.8453  0.0251
14610SOL    HW246273   8.372   3.974   5.940  1.0870  1.2224  0.3384
14611SOL     OW46274   2.482   9.664   9.758  0.2725  0.0426 -0.2588
14611SOL    HW146275   2.419   9.598   9.787  1.1883 -0.5410  0.4614
14611SOL    HW246276   2.445   9.697   9.676 -2.1120  1.3651  1.2390
14612SOL     OW46277   9.338   5.699   6.916  0.1724  0.6206  0.2903
14612SOL    HW146278   9.327   5.645   6.839  1.3759  1.4014 -0.4658
14612SOL    HW246279   9.267   5.673   6.975 -1.4265  0.7406 -1.4927
14613SOL     OW46280   7.790   9.624   6.494 -0.5523  0.8728 -0.3662
14613SOL    HW146281   7.801   9.700   6.553 -1.5510  0.3182  0.5782
14613SOL    HW246282   7.805   9.548   6.550  0.5564  0.3548 -1.3358
14614SOL     OW46283   8.156   4.342   6.040  0.0220 -0.3613 -0.5127
14614SOL    HW146284   8.152   4.418   5.983 -0.5117 -0.6469 -0.8737
14614SOL    HW246285   8.234   4.355   6.094  0.8808 -0.3769 -1.7173
14615SOL     OW46286   7.198   8.043   5.003  0.0217 -0.0967  0.0039
14615SOL    HW146287   7.139   8.099   5.054  0.9305  0.2771  0.6735
14615SOL    HW246288   7.272   8.026   5.062  0.6642 -0.4140 -0.8706
14616SOL     OW46289   0.702   3.109   1.657  0.6352  0.0706 -0.7340
14616SOL    HW146290   0.723   3.181   1.598  1.6823  0.5734  0.2246
14616SOL    HW246291   0.775   3.048   1.648  0.1652 -0.4845 -0.9076
14617SOL     OW46292   9.988   3.361   6.681  0.2505 -0.1261  0.0898
14617SOL    HW146293   9.997   3.305   6.604 -0.2630 -0.4170  0.2383
14617SOL    HW246294   9.894   3.371   6.693  0.2070 -2.2793  2.2250
14618SOL     OW46295   7.051   9.963   7.147  0.0118 -0.2142  0.1140
14618SOL    HW146296   7.113   9.942   7.218  0.2459 -2.3369 -0.6431
14618SOL    HW246297   7.012   9.879   7.124 -2.3006  0.8942 -0.2683
14619SOL     OW46298   2.965   6.081   1.115  0.4742 -0.1995 -0.1664
14619SOL    HW146299   3.032   6.026   1.075  0.1603 -0.6966 -0.0234
14619SOL    HW246300   2.886   6.027   1.114 -0.1645  0.7277 -1.2111
14620SOL     OW46301   5.155   4.884   9.371 -0.1739 -0.1427  0.0430
14620SOL    HW146302   5.083   4.832   9.335  1.1433 -0.9578 -1.5796
14620SOL    HW246303   5.127   4.975   9.361 -0.2950 -0.3796 -2.2185
14621SOL     OW46304   6.656   6.990   7.210  0.1349 -0.2154  0.6552
14621SOL    HW146305   6.642   7.080   7.241 -0.5684 -0.8765  2.4122
14621SOL    HW246306   6.575   6.968   7.163  1.0062  0.6189 -1.3702
14622SOL     OW46307   3.779   3.851   5.785  0.2396 -0.3261  0.6292
14622SOL    HW146308   3.757   3.800   5.707 -1.5885  0.0213  0.8821
14622SOL    HW246309   3.764   3.790   5.857  0.0660 -0.0683  0.8116
14623SOL     OW46310   0.905   0.913   4.753  0.9784 -0.3085  0.2998
14623SOL    HW146311   0.976   0.870   4.801  1.2699 -0.0378  0.1189
14623SOL    HW246312   0.828   0.859   4.769  1.2554 -0.6738  0.3993
14624SOL     OW46313   5.960   3.112   4.582 -0.0874 -0.3216  0.8193
14624SOL    HW146314   5.979   3.204   4.565  1.0386 -0.8725 -1.2768
14624SOL    HW246315   5.885   3.092   4.526 -0.6387 -0.5940  1.6243
14625SOL     OW46316   4.659   9.764   9.078  0.0412 -0.0547  0.0745
14625SOL    HW146317   4.569   9.734   9.084  0.1076 -0.0822  1.0897
14625SOL    HW246318   4.653   9.859   9.068 -0.1204 -0.1921 -1.4502
14626SOL     OW46319   7.808  10.286   1.972  0.0583 -0.7735  0.0706
14626SOL    HW146320   7.810  10.375   1.937  1.1572 -1.1067 -0.7744
14626SOL    HW246321   7.739  10.287   2.039 -0.2783  0.5690 -0.2855
14627SOL     OW46322   2.149   3.070   2.195  0.1293  0.0320  0.1550
14627SOL    HW146323   2.205   3.146   2.180 -0.4605  0.3664 -0.4122
14627SOL    HW246324   2.174   3.039   2.282 -0.0938  1.2896  0.6989
14628SOL     OW46325   6.151  10.015   1.284  0.8451 -0.1335 -0.1020
14628SOL    HW146326   6.210   9.990   1.213 -0.8282 -1.7464 -1.0077
14628SOL    HW246327   6.134  10.108   1.269  1.0619 -0.2867 -1.4211
14629SOL     OW46328   9.318   2.012   6.067  0.2354  0.0110 -0.7970
14629SOL    HW146329   9.256   1.985   6.135  0.2793 -0.6737 -1.0185
14629SOL    HW246330   9.308   1.945   5.999 -0.6957  1.3380 -2.0169
14630SOL     OW46331   6.619   2.595   5.523  0.0533 -0.3454 -0.5515
14630SOL    HW146332   6.588   2.527   5.462  1.0917 -0.6041 -0.8012
14630SOL    HW246333   6.685   2.550   5.576  1.1645  0.6105 -1.0911
14631SOL     OW46334   3.332   5.145   6.767  0.2042  0.0297  0.2240
14631SOL    HW146335   3.323   5.208   6.839 -1.8266 -0.6085  0.5721
14631SOL    HW246336   3.278   5.181   6.696  0.4033 -0.4633 -0.1870
14632SOL     OW46337   5.613   2.124   4.107  0.0241  0.2684  0.3192
14632SOL    HW146338   5.676   2.112   4.036  0.5498  1.0468  0.6408
14632SOL    HW246339   5.628   2.051   4.166  0.8488  0.6171  0.5525
14633SOL     OW46340   7.323   2.057   3.093  0.0588  0.3260  0.3973
14633SOL    HW146341   7.230   2.049   3.069 -1.9286  3.3165  5.4558
14633SOL    HW246342   7.358   2.119   3.028 -1.5639 -0.4084 -1.2934
14634SOL     OW46343   3.830   5.948   0.321 -0.0444 -0.6302 -0.1601
14634SOL    HW146344   3.891   5.898   0.376  0.3092  0.0297  0.0537
14634SOL    HW246345   3.846   6.039   0.343 -1.1674 -0.4398 -0.0512
14635SOL     OW46346   6.878   1.077   5.842 -0.3727 -0.2541 -0.1506
14635SOL    HW146347   6.920   0.995   5.868 -0.0670 -0.0090  0.1501
14635SOL    HW246348   6.875   1.129   5.922 -0.5899  0.0170 -0.3322
14636SOL     OW46349   1.162   2.617   2.075 -0.2781  0.0982 -0.2932
14636SOL    HW146350   1.101   2.545   2.062 -0.4341  0.0886  0.4336
14636SOL    HW246351   1.114   2.679   2.129  0.8183 -0.5743  1.5566
14637SOL     OW46352   2.118   6.461   6.818 -0.1743 -0.9167  0.4304
14637SOL    HW146353   2.109   6.392   6.884  1.3562  0.9181  2.7472
14637SOL    HW246354   2.028   6.490   6.801 -0.5943 -0.9659  2.3434
14638SOL     OW46355  10.080   3.920   4.286 -1.0669  0.6057  0.2733
14638SOL    HW146356  10.027   3.843   4.303  1.8553 -1.4364  0.9687
14638SOL    HW246357  10.074   3.932   4.191 -2.1175 -0.0280  0.2414
14639SOL     OW46358   0.005   7.966   8.598  0.4496  0.6003  0.7536
14639SOL    HW146359   0.029   8.031   8.532  0.1397 -0.5471 -0.5358
14639SOL    HW246360  -0.002   8.016   8.680  0.6496  2.0958 -0.1091
14640SOL     OW46361   2.566   7.637   6.466 -0.3243  0.0865  0.1568
14640SOL    HW146362   2.573   7.685   6.383 -1.3681  0.2312  0.1404
14640SOL    HW246363   2.565   7.545   6.441  1.4593  0.0191  0.1735
14641SOL     OW46364   3.031   1.865   3.448 -0.0224  0.1366 -0.4856
14641SOL    HW146365   2.975   1.847   3.372 -0.4500  0.1320 -0.1758
14641SOL    HW246366   2.969   1.885   3.519  0.3936  1.6037 -0.5051
14642SOL     OW46367  10.013   8.923   9.347 -0.1872  0.5234 -0.0741
14642SOL    HW146368   9.935   8.979   9.345 -0.3866  0.2844  0.6200
14642SOL    HW246369  10.062   8.954   9.424  0.5739  0.8929 -0.6970
14643SOL     OW46370   7.320   8.949   9.994  0.1761 -0.2928 -0.6341
14643SOL    HW146371   7.375   8.976   9.920 -1.1185 -1.2881 -2.0193
14643SOL    HW246372   7.382   8.927  10.064  1.3978  3.3593 -0.3484
14644SOL     OW46373   0.312   9.155   4.437 -0.0593 -0.0454 -0.0047
14644SOL    HW146374   0.403   9.132   4.452  0.1025  0.3921 -0.2805
14644SOL    HW246375   0.304   9.161   4.341  0.3711  2.7564  0.0429
14645SOL     OW46376   1.936   3.918   2.717  0.0462 -0.2813 -0.4366
14645SOL    HW146377   1.954   3.830   2.684  2.3588 -0.1446  0.3222
14645SOL    HW246378   1.946   3.974   2.641  0.5819 -0.4735 -0.5136
14646SOL     OW46379   4.682   1.390   3.633  0.3594 -0.1820 -0.3889
14646SOL    HW146380   4.663   1.430   3.718 -1.7760 -1.6685 -0.0785
14646SOL    HW246381   4.739   1.316   3.655 -0.2443 -0.6058 -0.2056
14647SOL     OW46382   4.316   8.286   2.003 -0.2003  0.1064  0.2276
14647SOL    HW146383   4.328   8.379   2.022 -0.7158  0.0763  0.7458
14647SOL    HW246384   4.295   8.247   2.088 -1.2279 -0.2711 -0.1801
14648SOL     OW46385   5.292   3.686  10.150 -0.0617  0.1532  0.0025
14648SOL    HW146386   5.338   3.768  10.163 -2.1494  1.3038  0.5328
14648SOL    HW246387   5.337   3.623  10.206  1.9593  0.7301 -0.8863
14649SOL     OW46388   0.889   8.697   7.968 -0.2416 -0.6159 -0.1486
14649SOL    HW146389   0.976   8.716   7.935  0.1635 -0.5422  0.9213
14649SOL    HW246390   0.852   8.782   7.993 -0.8821 -0.5698 -1.1780
14650SOL     OW46391   1.052   5.376   2.926 -0.2313 -0.3646 -0.8457
14650SOL    HW146392   1.009   5.302   2.970  0.7191 -0.9529 -0.8728
14650SOL    HW246393   1.089   5.428   2.996  1.8673 -1.6641 -0.9075
14651SOL     OW46394   7.679  10.217   3.451  0.0286  0.0245  0.4850
14651SOL    HW146395   7.769  10.186   3.441 -0.2199 -0.4599 -0.3995
14651SOL    HW246396   7.652  10.185   3.537  0.3667 -0.6925  0.3344
14652SOL     OW46397   7.263   5.434   1.171  0.0343  0.5820 -0.5575
14652SOL    HW146398   7.215   5.352   1.161 -0.8594  1.1616 -1.2052
14652SOL    HW246399   7.349   5.408   1.202 -0.2894 -0.5877 -0.5905
14653SOL     OW46400   7.873   7.090   5.069  0.0368 -0.2931  0.1186
14653SOL    HW146401   7.891   7.009   5.117  1.6363 -0.4280 -0.6526
14653SOL    HW246402   7.957   7.115   5.031 -0.5090  1.5602  0.0556
14654SOL     OW46403   1.577   9.498   8.382  0.0795  0.2550  1.0259
14654SOL    HW146404   1.637   9.529   8.313 -1.5210 -0.3709 -0.7527
14654SOL    HW246405   1.501   9.555   8.375 -0.5468 -0.5007  1.5741
14655SOL     OW46406   9.997   6.117   6.441 -0.5365 -0.3662  0.0223
14655SOL    HW146407  10.000   6.029   6.479  0.3564  0.1710  1.3055
14655SOL    HW246408   9.920   6.158   6.480 -0.7296 -0.4514 -0.2692
14656SOL     OW46409   4.083   7.163  10.486  0.0869  0.0998 -0.1242
14656SOL    HW146410   4.094   7.198  10.574  0.3983 -0.3318  0.0109
14656SOL    HW246411   4.100   7.237  10.428  1.8401 -0.0733  0.1337
14657SOL     OW46412   2.696  10.246   1.493  0.2398  0.9921  0.2402
14657SOL    HW146413   2.686  10.328   1.445 -1.6477  0.0763 -1.0454
14657SOL    HW246414   2.743  10.188   1.433  0.1540  0.6315  0.5155
14658SOL     OW46415   9.038  10.371   5.056  0.5036  0.3448 -0.0854
14658SOL    HW146416   9.075  10.332   5.135  0.0773 -1.3474 -0.6741
14658SOL    HW246417   8.966  10.426   5.087 -0.0217 -0.7455  0.6821
14659SOL     OW46418   2.602   7.726   3.031  0.0204 -0.4043 -0.2888
14659SOL    HW146419   2.596   7.802   2.973  1.4699 -0.2574 -0.2628
14659SOL    HW246420   2.614   7.764   3.118 -1.7116 -0.6361  0.0894
14660SOL     OW46421   2.969   2.925   4.432 -0.9003  0.1868  0.3596
14660SOL    HW146422   3.046   2.868   4.426  0.4470  1.8057  1.4046
14660SOL    HW246423   2.926   2.917   4.347 -0.1119 -1.4538  0.0750
14661SOL     OW46424   5.940   8.595   2.111 -0.3903 -0.0669  0.7107
14661SOL    HW146425   6.013   8.654   2.127  1.0729 -1.3891 -0.7969
14661SOL    HW246426   5.888   8.639   2.044  1.8478 -1.2534 -2.0168
14662SOL     OW46427   0.811   1.959   9.275 -0.5167  0.2437  0.2725
14662SOL    HW146428   0.839   1.868   9.260  0.2858  0.7887 -1.8764
14662SOL    HW246429   0.885   2.012   9.245 -1.5837  1.6404 -0.0087
14663SOL     OW46430   3.188   8.806   3.896  0.1483 -0.3879 -0.2198
14663SOL    HW146431   3.161   8.716   3.876 -0.0471 -0.4707  0.3936
14663SOL    HW246432   3.108   8.857   3.889  0.3026 -0.2188 -0.7909
14664SOL     OW46433   2.491   1.207   4.355 -0.3593 -0.2867  0.1759
14664SOL    HW146434   2.549   1.145   4.311 -0.0010  1.0689 -1.3328
14664SOL    HW246435   2.403   1.178   4.331 -0.2036 -0.4137 -0.2532
14665SOL     OW46436   4.234   1.494   7.547 -0.1256  0.5995 -0.3810
14665SOL    HW146437   4.248   1.449   7.464  1.5529 -0.4124  0.4043
14665SOL    HW246438   4.283   1.576   7.539  0.4682  0.2651 -0.2126
14666SOL     OW46439   0.971   9.932   0.304 -0.0154 -1.0825 -0.1773
14666SOL    HW146440   0.903   9.972   0.359 -0.0605  0.4446 -1.2765
14666SOL    HW246441   0.927   9.858   0.262 -1.5745  0.8266 -2.1242
14667SOL     OW46442   6.633   6.057   2.140 -0.4167  0.2112 -0.2396
14667SOL    HW146443   6.702   6.107   2.098 -1.7955  0.0469 -2.9993
14667SOL    HW246444   6.632   5.974   2.092 -1.9013 -0.1294  0.3309
14668SOL     OW46445   1.624   5.959   5.662 -0.4972 -0.3568 -0.2671
14668SOL    HW146446   1.573   5.919   5.733 -2.5115  0.4575 -1.1726
14668SOL    HW246447   1.569   5.947   5.584  0.8066  0.4253 -1.3480
14669SOL     OW46448   9.002   5.151   4.326 -0.5440 -0.3799 -0.4871
14669SOL    HW146449   8.934   5.217   4.342  0.7271  1.4107 -1.9630
14669SOL    HW246450   9.077   5.182   4.376 -0.0503 -0.9493 -0.8630
14670SOL     OW46451   3.902   6.821   7.802  0.3866  0.1690 -0.3346
14670SOL    HW146452   3.959   6.779   7.866 -2.0223  1.6234  3.0400
14670SOL    HW246453   3.929   6.913   7.802 -0.8832  0.5649  0.1301
14671SOL     OW46454   3.688   8.309   8.107  0.2216  0.6133  0.4977
14671SOL    HW146455   3.755   8.308   8.175 -1.6680 -1.6609  2.4956
14671SOL    HW246456   3.671   8.217   8.088 -1.1688  1.1518 -1.1819
14672SOL     OW46457   7.494   3.856   4.737 -0.2073  0.3121  0.5634
14672SOL    HW146458   7.404   3.861   4.704  0.3319  1.3191 -0.8425
14672SOL    HW246459   7.545   3.823   4.663  0.1428 -3.7949  2.3566
14673SOL     OW46460   4.655   0.297   4.969  0.1275  0.3111 -0.2396
14673SOL    HW146461   4.748   0.316   4.955  0.3815 -0.6998 -0.0681
14673SOL    HW246462   4.616   0.301   4.882  0.3861  0.4879 -0.3490
14674SOL     OW46463   2.641   8.076   6.184  0.1476 -0.8644  0.2827
14674SOL    HW146464   2.616   8.066   6.276 -2.0449  0.1363 -0.1424
14674SOL    HW246465   2.582   8.019   6.136 -0.0497  0.0852 -0.6478
14675SOL     OW46466   5.198   3.268   4.834  0.7682  0.0203 -0.1090
14675SOL    HW146467   5.255   3.333   4.793 -0.1150  0.9606  0.1096
14675SOL    HW246468   5.237   3.184   4.811  1.9883  0.6247 -0.3317
14676SOL     OW46469   4.834   9.363   0.071  0.5459 -0.3772 -0.5580
14676SOL    HW146470   4.743   9.339   0.085  0.6014 -0.0025  0.5468
14676SOL    HW246471   4.855   9.421   0.144  1.3644  0.3919 -1.3786
14677SOL     OW46472   6.274   8.600   8.558 -0.0256 -0.4902 -0.2499
14677SOL    HW146473   6.221   8.594   8.637 -0.3715  1.6418 -0.2598
14677SOL    HW246474   6.252   8.522   8.508 -1.8073 -0.5583  0.5733
14678SOL     OW46475   8.695   2.902  10.272 -0.8549 -0.4735  0.1342
14678SOL    HW146476   8.772   2.957  10.288 -1.7157 -0.0972  3.7285
14678SOL    HW246477   8.635   2.958  10.223  0.4382 -0.2427 -1.2863
14679SOL     OW46478   8.306   9.751   9.056 -0.4608 -0.7732  0.1785
14679SOL    HW146479   8.385   9.799   9.031 -0.0545 -1.1697  0.6908
14679SOL    HW246480   8.321   9.661   9.026 -0.0752 -1.2004  1.5626
14680SOL     OW46481   1.394   2.511   5.498  0.5257 -0.3292 -0.1390
14680SOL    HW146482   1.424   2.481   5.412 -1.0765 -1.0820 -0.4617
14680SOL    HW246483   1.453   2.469   5.560 -1.1613 -3.7000 -0.6247
14681SOL     OW46484   7.087   6.005   3.445  0.6900 -0.1032 -0.2758
14681SOL    HW146485   7.122   6.092   3.465  0.8062 -0.3694  0.7520
14681SOL    HW246486   7.150   5.945   3.483  1.0371 -0.6744 -1.7023
14682SOL     OW46487   1.320   6.636   2.617 -0.4089 -0.1751  0.2580
14682SOL    HW146488   1.276   6.602   2.539 -0.9696  0.2072  0.4032
14682SOL    HW246489   1.252   6.683   2.664  0.4356  1.5432 -0.1692
14683SOL     OW46490   0.686   5.167   9.703  0.0063  0.3280  0.0192
14683SOL    HW146491   0.605   5.177   9.653  0.3376  0.1177 -0.5813
14683SOL    HW246492   0.675   5.223   9.779 -1.3043 -0.7963  0.7167
14684SOL     OW46493   5.860   2.249   0.774  0.0872 -0.6518 -0.3786
14684SOL    HW146494   5.905   2.204   0.846 -0.1483 -0.1770  0.0722
14684SOL    HW246495   5.926   2.308   0.737 -0.0771 -0.1473  0.1142
14685SOL     OW46496   4.830   4.002   2.669 -0.3270  0.2299  0.0024
14685SOL    HW146497   4.922   4.018   2.693  0.1980 -1.2906 -0.8643
14685SOL    HW246498   4.813   4.063   2.598 -0.5424  1.6892  1.2401
14686SOL     OW46499   4.015   4.059   2.607 -0.0209  0.4929  0.2927
14686SOL    HW146500   4.085   4.099   2.556  1.5926  0.2392  2.1601
14686SOL    HW246501   3.963   4.009   2.544  1.3729  0.8578 -1.1860
14687SOL     OW46502   9.016   7.056   1.608 -0.1755  0.3799  0.1146
14687SOL    HW146503   8.922   7.055   1.622 -0.3500  0.1761 -1.0023
14687SOL    HW246504   9.047   7.131   1.660 -1.2035  1.6434 -1.0120
14688SOL     OW46505   2.365   5.790  10.162 -0.3145  0.6353 -0.2936
14688SOL    HW146506   2.349   5.882  10.142 -0.9801  0.2422 -1.7306
14688SOL    HW246507   2.304   5.743  10.105  1.2760 -0.7394 -0.9309
14689SOL     OW46508   9.492   5.869   2.316 -0.0287 -0.3040  1.0595
14689SOL    HW146509   9.431   5.937   2.345 -0.3915  0.1475 -0.6145
14689SOL    HW246510   9.436   5.803   2.274  0.5930  0.3371 -0.9153
14690SOL     OW46511   0.804   7.701   5.641  0.0928 -0.2796  0.0921
14690SOL    HW146512   0.744   7.660   5.579 -0.8261 -0.7854  1.2720
14690SOL    HW246513   0.841   7.775   5.592 -0.6675 -0.6009 -1.0252
14691SOL     OW46514   8.516   2.634   0.739  0.2558 -0.0710  0.1533
14691SOL    HW146515   8.602   2.673   0.724 -0.2187  0.7087 -0.6253
14691SOL    HW246516   8.460   2.708   0.765 -0.1656 -0.5832  0.7609
14692SOL     OW46517   1.987   2.478   0.069  0.6114 -0.7849 -0.1760
14692SOL    HW146518   2.004   2.449  -0.021  0.1197 -0.6857 -0.3057
14692SOL    HW246519   2.037   2.559   0.078 -0.4002 -0.0551 -0.8215
14693SOL     OW46520   4.081   8.631   2.948 -0.1561 -0.1396 -0.3101
14693SOL    HW146521   4.013   8.611   3.012 -0.6896  1.2358 -0.4104
14693SOL    HW246522   4.121   8.547   2.927 -1.7988 -0.9663 -0.2185
14694SOL     OW46523   3.439   4.315   7.492 -0.3188  0.6128 -0.0249
14694SOL    HW146524   3.360   4.267   7.515 -0.0659  0.4769  0.5648
14694SOL    HW246525   3.410   4.381   7.428 -0.5198 -0.8591 -1.5202
14695SOL     OW46526   8.328   7.706   1.628  0.6026  0.3518  0.3960
14695SOL    HW146527   8.240   7.682   1.600  0.6756 -1.1166  1.2845
14695SOL    HW246528   8.316   7.785   1.681 -0.2141  0.0458  0.6867
14696SOL     OW46529   5.845  10.297   4.322 -0.1289 -0.3617  0.6160
14696SOL    HW146530   5.912  10.240   4.285 -0.5267 -0.3076 -0.2185
14696SOL    HW246531   5.789  10.240   4.375 -1.2744 -1.0288 -1.2144
14697SOL     OW46532   9.506   7.277   4.806 -0.4003  0.2087 -0.2015
14697SOL    HW146533   9.506   7.297   4.900 -0.2628  1.1394 -0.3894
14697SOL    HW246534   9.583   7.324   4.772 -0.8376  0.4358 -0.8925
14698SOL     OW46535   4.258   6.296   3.854  0.6351 -0.1142 -0.3813
14698SOL    HW146536   4.191   6.304   3.921  0.4857  0.7598 -0.6278
14698SOL    HW246537   4.281   6.203   3.854 -0.3929 -0.3745 -0.1282
14699SOL     OW46538   6.637   0.717   9.081 -0.3939  0.2463  0.1126
14699SOL    HW146539   6.579   0.784   9.044 -1.6241 -0.0975  1.2876
14699SOL    HW246540   6.712   0.766   9.115 -0.1242  0.7451 -1.1616
14700SOL     OW46541   6.621   4.137   3.281 -0.2063  0.0035  0.0642
14700SOL    HW146542   6.646   4.062   3.227  0.2022  0.0518  0.1872
14700SOL    HW246543   6.637   4.213   3.225 -0.8315 -0.0051 -0.1422
14701SOL     OW46544   9.948   7.016   3.831  0.1451 -0.0841 -0.1792
14701SOL    HW146545   9.874   7.008   3.770  0.3215 -0.8515 -0.3062
14701SOL    HW246546   9.993   7.095   3.803 -0.7640  0.5317  0.0500
14702SOL     OW46547   8.660   1.677   6.044 -0.0976 -0.2358  0.4634
14702SOL    HW146548   8.654   1.760   6.092  1.5916 -0.7050  1.5573
14702SOL    HW246549   8.665   1.704   5.952 -1.7832  0.7537  0.6213
14703SOL     OW46550   3.592   5.727   4.807  0.0669 -0.4709 -0.0421
14703SOL    HW146551   3.600   5.725   4.903  1.4449 -0.0609 -0.1190
14703SOL    HW246552   3.563   5.639   4.784 -0.0815 -0.6388  0.7464
14704SOL     OW46553   0.829   5.044   8.790  0.2436 -0.2555  0.5108
14704SOL    HW146554   0.849   5.133   8.760  0.8607  0.5527  3.0615
14704SOL    HW246555   0.900   4.990   8.754 -0.0679  0.2797 -0.9544
14705SOL     OW46556   5.020   8.239   9.862 -0.6134  0.7904  0.2761
14705SOL    HW146557   4.976   8.194   9.934 -0.2226 -0.3621 -0.1710
14705SOL    HW246558   4.987   8.196   9.783 -0.3130  1.3722 -0.1753
14706SOL     OW46559   0.867   0.940   5.322  0.1264 -0.1383  0.3397
14706SOL    HW146560   0.858   0.976   5.234 -2.1077 -0.8947  0.2054
14706SOL    HW246561   0.835   1.008   5.380 -0.4177 -0.4408  0.3960
14707SOL     OW46562   2.148   6.375   7.249  0.5087 -0.0569  0.1270
14707SOL    HW146563   2.212   6.440   7.279  0.3115 -0.1482  0.7439
14707SOL    HW246564   2.169   6.364   7.156  1.2181  0.1172  0.2536
14708SOL     OW46565   4.921   9.037   2.782 -0.1562 -0.0530 -0.0393
14708SOL    HW146566   4.860   9.004   2.847  0.9645  1.0348  1.6430
14708SOL    HW246567   5.004   9.046   2.829  0.4998  1.5302 -1.3804
14709SOL     OW46568   7.620   4.657   6.046  0.2359 -0.3762 -0.1277
14709SOL    HW146569   7.691   4.598   6.072 -0.5665 -1.2290  0.1632
14709SOL    HW246570   7.562   4.603   5.993 -1.4426 -0.3513  1.6085
14710SOL     OW46571   5.973   7.626   6.776  0.3888 -0.9586 -0.6490
14710SOL    HW146572   6.009   7.589   6.856 -0.2047  3.4182  2.0085
14710SOL    HW246573   5.888   7.584   6.766  0.6220 -1.8433  0.8272
14711SOL     OW46574   5.892   7.403   2.755 -0.3502  0.3979  0.7214
14711SOL    HW146575   5.877   7.437   2.844 -0.0103 -1.5211  1.5790
14711SOL    HW246576   5.887   7.308   2.766 -0.6695  0.1332 -1.4135
14712SOL     OW46577   8.366   6.966   5.245  0.1669 -0.5158  0.6393
14712SOL    HW146578   8.443   6.983   5.190 -0.5283 -0.4469 -0.3328
14712SOL    HW246579   8.359   6.871   5.248 -1.8667 -0.5945 -2.4478
14713SOL     OW46580  10.259   6.918   6.887  0.1927  0.0769  0.0772
14713SOL    HW146581  10.253   6.936   6.793  1.7327 -2.7174 -0.6690
14713SOL    HW246582  10.168   6.912   6.916 -0.3781 -1.1455 -1.7625
14714SOL     OW46583   4.272   2.243   0.283 -0.2631 -0.0216 -0.2701
14714SOL    HW146584   4.270   2.227   0.189  1.6317 -0.3260 -0.3121
14714SOL    HW246585   4.241   2.332   0.293 -0.6754 -0.0531 -1.1609
14715SOL     OW46586   8.522   0.414   3.984  0.3601 -0.3334 -0.3909
14715SOL    HW146587   8.555   0.482   4.042  0.1106  0.2866 -0.9564
14715SOL    HW246588   8.432   0.441   3.965  0.0996 -1.0809 -0.2342
14716SOL     OW46589   0.238   8.792   6.554 -0.8285 -1.0884  0.2863
14716SOL    HW146590   0.149   8.791   6.589 -1.5134 -1.0110 -1.3618
14716SOL    HW246591   0.227   8.813   6.461  1.0034  0.1536  0.2975
14717SOL     OW46592   4.753   3.119   7.887 -0.2818 -0.1804 -0.0081
14717SOL    HW146593   4.833   3.097   7.936 -1.3521 -2.0473  0.9980
14717SOL    HW246594   4.766   3.078   7.801  0.4372  0.7852 -0.3829
14718SOL     OW46595   9.695   9.133   6.816 -0.2883  0.2871 -0.0907
14718SOL    HW146596   9.737   9.048   6.825 -1.4482 -0.3333 -0.3843
14718SOL    HW246597   9.703   9.155   6.724  1.6947  1.4176  0.3021
14719SOL     OW46598   7.572   9.584   0.428  0.0237 -0.3390 -0.3074
14719SOL    HW146599   7.613   9.533   0.359  1.9126  1.7181 -0.8024
14719SOL    HW246600   7.513   9.644   0.382  0.1675  0.0301 -0.0172
14720SOL     OW46601   2.450   7.717   4.462 -0.0047  0.0727  0.3698
14720SOL    HW146602   2.496   7.784   4.513 -2.0000  2.2951 -0.5275
14720SOL    HW246603   2.492   7.720   4.376  0.5594 -0.5854  0.6145
14721SOL     OW46604   1.329   1.765   7.656 -0.5312  0.0808 -0.0560
14721SOL    HW146605   1.373   1.680   7.667 -1.1964 -0.0869  1.7352
14721SOL    HW246606   1.271   1.753   7.581 -0.8648 -1.1810  0.3746
14722SOL     OW46607   2.425   9.483   4.910 -0.5430 -0.2186 -0.2040
14722SOL    HW146608   2.436   9.388   4.904 -3.3109 -0.8361  2.3156
14722SOL    HW246609   2.343   9.501   4.865  0.6443  1.3250 -1.9541
14723SOL     OW46610  10.176   3.883   0.069  0.0496 -0.8971 -0.0280
14723SOL    HW146611  10.246   3.818   0.065  0.5787 -0.4343  1.1635
14723SOL    HW246612  10.162   3.897   0.162 -0.5170  0.1980 -0.2620
14724SOL     OW46613   9.042   3.344   4.875 -0.0464 -0.1998 -0.4246
14724SOL    HW146614   9.095   3.277   4.833 -0.9375 -1.3957  0.2931
14724SOL    HW246615   8.952   3.325   4.846 -0.2519  1.0615 -0.6820
14725SOL     OW46616   4.588   9.331   9.070 -0.2829  0.1830 -0.2153
14725SOL    HW146617   4.493   9.332   9.061 -0.8124  2.0862  3.4427
14725SOL    HW246618   4.611   9.239   9.078 -1.3394 -0.5186 -3.6960
14726SOL     OW46619   7.985   9.139   4.550  0.0697 -0.6738  0.0224
14726SOL    HW146620   7.944   9.100   4.627 -0.0309 -0.8553 -0.1234
14726SOL    HW246621   7.989   9.232   4.570  0.7259 -0.8102  0.5665
14727SOL     OW46622   0.499   2.920   8.166 -0.5284  0.2048  0.9531
14727SOL    HW146623   0.437   2.854   8.135  2.8576 -1.5817 -2.8737
14727SOL    HW246624   0.504   2.983   8.095  0.3638  1.6276  2.2131
14728SOL     OW46625   8.345   0.565   0.521  0.1694  0.0584 -0.2147
14728SOL    HW146626   8.292   0.544   0.444 -1.3123 -2.6707  1.3937
14728SOL    HW246627   8.306   0.644   0.556 -2.0107 -1.1090  0.1240
14729SOL     OW46628   6.175   0.784   8.652  0.9864  0.0075 -0.4177
14729SOL    HW146629   6.203   0.714   8.593  2.3393  0.4524 -0.3360
14729SOL    HW246630   6.250   0.842   8.658 -0.2188  1.6848 -0.7684
14730SOL     OW46631   8.416   7.744   3.621  0.1771  0.4323 -0.5141
14730SOL    HW146632   8.329   7.740   3.583 -0.2298  0.5148  0.3826
14730SOL    HW246633   8.401   7.764   3.714  1.1497  0.5701 -0.3736
14731SOL     OW46634   4.772   7.674   2.232 -0.0982 -0.0803 -0.4691
14731SOL    HW146635   4.726   7.745   2.276  1.1184  0.6627 -0.3453
14731SOL    HW246636   4.703   7.618   2.197 -1.2233 -1.2820  3.1914
14732SOL     OW46637   1.197   5.659   3.519  0.0486  0.0361  0.0886
14732SOL    HW146638   1.271   5.693   3.468  0.4619 -0.2693  0.4846
14732SOL    HW246639   1.221   5.569   3.539 -1.0703 -0.5358 -1.0081
14733SOL     OW46640   9.342   6.517   7.453 -0.0589 -0.1547  0.0658
14733SOL    HW146641   9.305   6.504   7.366  0.2768 -0.1406 -0.0803
14733SOL    HW246642   9.292   6.458   7.509 -0.4231 -0.0035 -0.0958
14734SOL     OW46643   4.201   3.517   2.366 -0.8243  0.1344  0.1679
14734SOL    HW146644   4.209   3.595   2.421 -1.6614  0.2984  0.0697
14734SOL    HW246645   4.285   3.472   2.376  0.2797  1.8449 -1.0068
14735SOL     OW46646  10.068   6.715   4.762 -0.1862 -0.4819 -0.7930
14735SOL    HW146647  10.038   6.644   4.819  1.0391 -0.1121  0.3711
14735SOL    HW246648   9.988   6.746   4.718 -0.9855 -1.5210 -0.1310
14736SOL     OW46649   1.549   5.446   0.398  0.1976  0.7742  0.4825
14736SOL    HW146650   1.617   5.502   0.435  0.4742 -0.5277  2.1152
14736SOL    HW246651   1.502   5.501   0.337  2.0259  2.0355  0.1310
14737SOL     OW46652   1.021   6.533  10.206 -0.1364  0.2586  0.4389
14737SOL    HW146653   1.096   6.515  10.150 -0.3281  1.9269 -0.4206
14737SOL    HW246654   0.951   6.557  10.145 -0.7442  0.8033  1.3246
14738SOL     OW46655   3.595   6.770   9.683  0.0554 -0.1376  0.1001
14738SOL    HW146656   3.500   6.772   9.698 -0.0764 -0.2337 -0.6924
14738SOL    HW246657   3.604   6.741   9.592  0.8820 -1.5090  0.5895
14739SOL     OW46658   8.597   5.639  10.265  0.3209 -0.4018  0.0558
14739SOL    HW146659   8.555   5.661  10.348  3.1203 -0.0471  1.4901
14739SOL    HW246660   8.635   5.721  10.234 -0.4167 -0.5924 -1.4717
14740SOL     OW46661   3.160   8.097   2.136 -0.1216  0.2452  0.7988
14740SOL    HW146662   3.172   8.131   2.224 -2.2140 -1.0903  1.6698
14740SOL    HW246663   3.226   8.028   2.128 -0.4015 -0.1335  1.6227
14741SOL     OW46664   8.494   8.745   5.720 -0.1042 -0.2321  0.4458
14741SOL    HW146665   8.538   8.830   5.710  0.3377 -0.3135  1.5973
14741SOL    HW246666   8.510   8.720   5.811  0.6841 -2.0698 -0.1552
14742SOL     OW46667   6.005   7.788   4.246 -0.3707  0.1878  0.0215
14742SOL    HW146668   6.012   7.850   4.173  0.4944  0.4829  0.3501
14742SOL    HW246669   6.092   7.788   4.286 -0.4144 -1.0922  0.1506
14743SOL     OW46670   5.677   3.988   1.706  0.1541  0.1774  0.2946
14743SOL    HW146671   5.593   4.001   1.662 -0.8703 -0.0857  2.0736
14743SOL    HW246672   5.700   4.076   1.737  0.2485  0.1518  0.2958
14744SOL     OW46673   2.313   7.953   4.486  0.4547 -0.4574  0.1275
14744SOL    HW146674   2.224   7.982   4.464  0.4065 -0.2053  0.6178
14744SOL    HW246675   2.302   7.863   4.515  0.3922 -0.5062 -0.0498
14745SOL     OW46676   8.961   6.920   8.597 -0.0544 -0.0619 -0.8348
14745SOL    HW146677   8.932   6.990   8.656  1.0500 -0.5564  0.3321
14745SOL    HW246678   9.011   6.965   8.529  0.4794  0.3170 -0.2054
14746SOL     OW46679   9.453   3.077   3.453 -0.0415 -0.2794 -0.0266
14746SOL    HW146680   9.495   3.140   3.511 -0.0525  0.0363 -0.3615
14746SOL    HW246681   9.359   3.086   3.471 -0.0078 -0.6082  0.3362
14747SOL     OW46682   5.680   6.143   7.213 -0.4012  0.3243 -0.2851
14747SOL    HW146683   5.625   6.073   7.179 -0.7811  2.6784 -5.4089
14747SOL    HW246684   5.769   6.107   7.211 -0.6715 -0.3380 -2.0320
14748SOL     OW46685   7.353   0.002   5.790  0.0074 -0.3987  0.1993
14748SOL    HW146686   7.344   0.044   5.704  0.8055  1.4399  0.9787
14748SOL    HW246687   7.435  -0.047   5.784  0.6979  0.7124  0.2785
14749SOL     OW46688   3.364   3.445   1.673  0.2797  0.3391  0.3009
14749SOL    HW146689   3.335   3.386   1.742  0.7005 -1.2085 -0.7814
14749SOL    HW246690   3.283   3.476   1.632  0.0702 -0.6309 -0.0303
14750SOL     OW46691   6.081   7.413   6.020 -0.4735 -0.5681 -0.0269
14750SOL    HW146692   6.097   7.451   6.106 -1.0116  0.3199 -0.3000
14750SOL    HW246693   6.167   7.412   5.977 -0.2708 -0.6509  0.3801
14751SOL     OW46694   0.069   2.473   2.955  1.1361 -0.0166 -0.0235
14751SOL    HW146695   0.063   2.568   2.971  0.6100 -0.0213 -0.1830
14751SOL    HW246696   0.139   2.465   2.890 -0.2644  0.4797 -1.6837
14752SOL     OW46697   6.554   0.523  10.402 -0.0536  0.3214  0.7481
14752SOL    HW146698   6.591   0.542  10.488 -0.4850  2.3404  0.5364
14752SOL    HW246699   6.495   0.596  10.384 -0.7766 -0.5817 -0.8264
14753SOL     OW46700   0.542  10.455   2.680  0.0211 -0.9161 -0.2587
14753SOL    HW146701   0.484  10.513   2.729  1.1291  0.5993 -0.6870
14753SOL    HW246702   0.487  10.417   2.611 -0.9004 -1.0199  0.5239
14754SOL     OW46703   8.762   4.371   0.625  0.6325 -0.5932 -0.0218
14754SOL    HW146704   8.795   4.444   0.677  1.3183  0.4570 -1.8355
14754SOL    HW246705   8.685   4.341   0.672 -0.3811  2.0769  0.1928
14755SOL     OW46706   2.032   2.919   1.993 -0.0775  0.0669 -0.2367
14755SOL    HW146707   2.096   2.906   1.924 -0.9216  0.6525 -1.1458
14755SOL    HW246708   2.077   2.974   2.057  0.6576 -0.3610 -0.3712
14756SOL     OW46709   5.430   5.700   4.657  1.0022  0.5022  0.4264
14756SOL    HW146710   5.462   5.626   4.708  1.8370  1.3069  1.1252
14756SOL    HW246711   5.455   5.777   4.708  2.8548  1.4180 -1.6786
14757SOL     OW46712   6.974   3.938   5.406 -0.2489  0.1805 -0.1852
14757SOL    HW146713   6.966   4.010   5.343 -0.4078 -0.9150 -1.4579
14757SOL    HW246714   6.891   3.890   5.399  0.6093 -1.2773 -0.8423
14758SOL     OW46715   2.420   5.805   3.833  0.3445  0.0313  0.1185
14758SOL    HW146716   2.327   5.794   3.855  0.1561  2.0616  0.5357
14758SOL    HW246717   2.461   5.831   3.916  0.8723  1.2219 -0.4889
14759SOL     OW46718  10.221   6.781   1.077 -0.3723  0.1893 -0.5488
14759SOL    HW146719  10.190   6.811   1.162 -1.5186 -3.1932  0.4040
14759SOL    HW246720  10.144   6.783   1.020  0.2120  1.7074 -1.3320
14760SOL     OW46721   0.290  10.048   5.416  0.0702 -0.0321 -0.3540
14760SOL    HW146722   0.262   9.969   5.370  1.9077 -0.3051 -1.0950
14760SOL    HW246723   0.304  10.019   5.506 -0.2980 -0.2907 -0.3761
14761SOL     OW46724   0.230   1.969   5.838  0.0628 -0.1758  0.1166
14761SOL    HW146725   0.246   2.018   5.757  0.1459  0.0117  0.2462
14761SOL    HW246726   0.315   1.932   5.860 -0.2030 -1.1953 -0.5125
14762SOL     OW46727   3.316   2.432   0.896 -0.1248  0.0243  0.4046
14762SOL    HW146728   3.341   2.392   0.979  1.6962  5.0594  2.7419
14762SOL    HW246729   3.229   2.469   0.912  0.2170  0.9816  0.1484
14763SOL     OW46730   4.631   4.889   4.838  0.7110 -0.2257  0.1051
14763SOL    HW146731   4.656   4.806   4.878 -0.4541 -0.1762  1.0028
14763SOL    HW246732   4.608   4.945   4.912  0.0491  0.4024 -0.5593
14764SOL     OW46733   8.478   0.634   4.722 -0.4719 -0.1606 -0.0094
14764SOL    HW146734   8.461   0.722   4.689  3.0320  0.7199  0.1273
14764SOL    HW246735   8.533   0.593   4.656 -0.9633 -1.8005  0.5381
14765SOL     OW46736   6.580   1.694   1.035 -0.1889  0.0761  0.0006
14765SOL    HW146737   6.594   1.672   1.128  0.4372  0.0529 -0.0939
14765SOL    HW246738   6.605   1.614   0.988 -1.1505 -0.1444 -0.1579
14766SOL     OW46739   8.930   5.529   6.984  0.3894  0.4950 -0.1199
14766SOL    HW146740   8.852   5.577   7.013  0.2060  0.4498 -0.5307
14766SOL    HW246741   8.990   5.597   6.954 -0.2546  0.4407 -1.6425
14767SOL     OW46742   4.632   4.379   9.959  0.0798  0.2754 -0.0874
14767SOL    HW146743   4.724   4.407   9.960  0.6842 -1.4008  3.0510
14767SOL    HW246744   4.635   4.287   9.933 -0.5025 -0.2145  1.4813
14768SOL     OW46745   5.367   9.010   3.419  0.1684  0.2614  0.1781
14768SOL    HW146746   5.399   9.050   3.338  0.3687 -0.7585 -0.2707
14768SOL    HW246747   5.289   9.060   3.442  0.7367  1.2747 -0.0271
14769SOL     OW46748   7.950   6.814   7.267  0.1144 -0.1481 -0.1780
14769SOL    HW146749   8.043   6.831   7.251 -0.1852  1.1924 -0.6282
14769SOL    HW246750   7.905   6.853   7.191 -0.8163 -0.7805  0.0304
14770SOL     OW46751   8.729   2.623   9.925  0.3534  0.4847 -0.1373
14770SOL    HW146752   8.746   2.531   9.901  1.8867  0.3703  1.2002
14770SOL    HW246753   8.804   2.671   9.889 -0.5359  1.2885 -0.9991
14771SOL     OW46754  10.049   9.152   6.315 -0.0453 -0.6380  0.4808
14771SOL    HW146755   9.967   9.181   6.354  1.2000  1.9492  1.4621
14771SOL    HW246756  10.113   9.159   6.387  1.5605  0.3592 -0.9708
14772SOL     OW46757   7.763   2.471   8.980  0.1733 -0.2100  0.7828
14772SOL    HW146758   7.735   2.494   9.069  0.6884  1.6757  0.5199
14772SOL    HW246759   7.693   2.504   8.924  1.1790  1.2928  0.3460
14773SOL     OW46760   9.123   9.052   6.348 -0.6141 -0.0848  0.2538
14773SOL    HW146761   9.098   9.007   6.429  0.1019  1.3787  1.3381
14773SOL    HW246762   9.059   9.122   6.339 -0.7545 -0.3012 -0.5295
14774SOL     OW46763   4.631   0.801   8.108  0.2698 -0.0205 -0.4283
14774SOL    HW146764   4.649   0.782   8.200 -0.4937 -1.0008 -0.4600
14774SOL    HW246765   4.548   0.850   8.110  2.2106  3.5729 -0.3460
14775SOL     OW46766   6.830   5.374   9.773 -0.0632  0.1434  0.3540
14775SOL    HW146767   6.760   5.354   9.836  0.6816 -1.0123  0.8507
14775SOL    HW246768   6.806   5.324   9.695 -0.2021  0.3837  0.2410
14776SOL     OW46769   3.119   6.770   1.837  0.4713  0.2081  0.5314
14776SOL    HW146770   3.042   6.721   1.809  0.1948  0.6805  0.4557
14776SOL    HW246771   3.111   6.854   1.794  1.2940  0.0891  0.1312
14777SOL     OW46772   7.006   3.830   8.571 -0.4527  0.4992 -0.0355
14777SOL    HW146773   7.012   3.753   8.516 -3.0611  0.5811 -0.5520
14777SOL    HW246774   6.926   3.817   8.623  0.9760  1.2166  2.5103
14778SOL     OW46775   2.589   0.149   9.137 -0.7577 -0.1246  0.6868
14778SOL    HW146776   2.499   0.181   9.138 -0.6166  0.4050 -1.1978
14778SOL    HW246777   2.600   0.109   9.224 -2.8291 -0.3310  0.9129
14779SOL     OW46778   1.616   9.594   6.949  0.0424  0.4681  0.2003
14779SOL    HW146779   1.563   9.516   6.964  0.0405  0.4170 -0.0685
14779SOL    HW246780   1.669   9.573   6.873  0.0361  0.7322  0.1219
14780SOL     OW46781   3.503   5.272   0.525 -0.3488  0.2092 -0.4866
14780SOL    HW146782   3.510   5.196   0.583  0.0586 -0.5408 -1.4950
14780SOL    HW246783   3.593   5.290   0.498 -0.6297 -0.0522 -1.6372
14781SOL     OW46784   5.064   8.913   5.368 -1.1651  0.1478 -0.1896
14781SOL    HW146785   5.097   8.870   5.289 -0.6605 -2.6224  1.4177
14781SOL    HW246786   5.129   8.980   5.388  0.2191 -1.0352 -0.5663
14782SOL     OW46787   9.780   1.485   1.865 -0.3678 -0.3068  0.2848
14782SOL    HW146788   9.749   1.544   1.798 -1.4606 -1.4404 -0.2483
14782SOL    HW246789   9.857   1.442   1.826  0.3225  0.6069  0.6102
14783SOL     OW46790   0.717   0.348   3.236 -0.1532 -0.0889 -0.1564
14783SOL    HW146791   0.760   0.280   3.185  1.4577  0.1211  0.8518
14783SOL    HW246792   0.789   0.403   3.268 -1.2519  0.8544  0.7859
14784SOL     OW46793   5.386   9.080   1.344  0.1298  0.0680 -0.5955
14784SOL    HW146794   5.421   9.026   1.273 -0.0990 -0.6833 -0.1536
14784SOL    HW246795   5.463   9.120   1.384  0.3735 -0.5129 -0.4706
14785SOL     OW46796   6.910   7.560   8.762  0.0155  0.0223 -0.3410
14785SOL    HW146797   6.901   7.531   8.671  0.8409  0.0739 -0.4448
14785SOL    HW246798   6.976   7.502   8.800 -0.4927 -0.1482  0.2959
14786SOL     OW46799   4.974   0.927   6.789 -0.1929  0.5455  0.3363
14786SOL    HW146800   4.992   0.882   6.707 -1.1013 -1.7748  1.3274
14786SOL    HW246801   4.881   0.949   6.785 -0.8892 -1.8440  1.6920
14787SOL     OW46802   4.195   9.412   3.562  0.7912  0.1140 -0.1511
14787SOL    HW146803   4.246   9.459   3.497  1.0171  1.8822  1.2193
14787SOL    HW246804   4.125   9.473   3.586 -1.3141 -1.7847 -1.1225
14788SOL     OW46805   0.293   5.657  10.038  0.3410 -0.4611 -0.8050
14788SOL    HW146806   0.331   5.569  10.025 -0.3978 -0.5706 -2.3145
14788SOL    HW246807   0.359   5.716  10.003  0.5460 -0.4331 -0.3877
14789SOL     OW46808   1.101  10.394   5.481 -0.1930  0.2644  0.0305
14789SOL    HW146809   1.045  10.320   5.458 -1.1962  1.1315 -0.4023
14789SOL    HW246810   1.104  10.447   5.402 -0.2497  1.1579  0.6150
14790SOL     OW46811   7.459   4.292   3.420  0.7503 -0.1694 -0.0927
14790SOL    HW146812   7.500   4.226   3.363  1.1116 -1.6306  1.7538
14790SOL    HW246813   7.376   4.253   3.446  0.9144  0.1314  0.9350
14791SOL     OW46814   8.354   1.792   3.908 -0.1802  0.0785 -0.1504
14791SOL    HW146815   8.331   1.843   3.831 -1.0047 -0.7815 -0.4950
14791SOL    HW246816   8.449   1.783   3.904  0.0756  2.1871  0.3281
14792SOL     OW46817   5.347   5.054   3.510  0.4938 -0.3051 -0.2376
14792SOL    HW146818   5.394   4.998   3.572  1.7574 -1.4938 -2.1397
14792SOL    HW246819   5.377   5.142   3.531  0.9075 -0.6754  0.8078
14793SOL     OW46820   4.831   7.153   5.800 -0.0384 -0.1477 -0.0766
14793SOL    HW146821   4.759   7.090   5.796  0.0866 -0.2755 -0.4465
14793SOL    HW246822   4.853   7.168   5.708  0.1671  0.1675  0.0245
14794SOL     OW46823   8.693   7.814   2.657 -0.5664  0.1392 -0.1502
14794SOL    HW146824   8.649   7.775   2.733 -0.5570  1.2190  0.4248
14794SOL    HW246825   8.683   7.908   2.670  0.4137  0.3531 -0.9126
14795SOL     OW46826   0.327   4.040   2.714 -0.7056 -0.0985 -0.1200
14795SOL    HW146827   0.333   4.031   2.619 -1.1222 -0.2718 -0.1315
14795SOL    HW246828   0.253   4.099   2.728  0.7551  1.8030  0.0262
14796SOL     OW46829   9.153   3.475   5.628  0.1625  0.1870  0.3243
14796SOL    HW146830   9.215   3.448   5.695 -0.0331  0.1409  0.4906
14796SOL    HW246831   9.174   3.566   5.610  1.3578 -0.2794 -0.8194
14797SOL     OW46832   2.398   0.469   0.394  0.0997 -0.1358  0.0616
14797SOL    HW146833   2.311   0.442   0.424  0.3069 -0.2034  0.6124
14797SOL    HW246834   2.382   0.514   0.311 -0.2485 -1.9687 -0.9104
14798SOL     OW46835   4.593   6.916   2.802  0.1617 -0.4443 -0.6675
14798SOL    HW146836   4.665   6.966   2.841  0.6865 -0.7912 -1.1921
14798SOL    HW246837   4.559   6.863   2.874 -0.3228  0.5601 -0.1293
14799SOL     OW46838   5.946   5.314   8.553 -0.1469 -0.0214  0.0945
14799SOL    HW146839   5.854   5.290   8.566 -0.3164 -0.7131 -1.9100
14799SOL    HW246840   5.995   5.240   8.586 -0.4658 -0.8804 -1.2558
14800SOL     OW46841   5.562   2.589   4.807 -0.2375  0.2939  0.0727
14800SOL    HW146842   5.628   2.527   4.775  0.8152  1.4384 -0.0493
14800SOL    HW246843   5.609   2.672   4.816 -1.6218  1.0980  0.1878
14801SOL     OW46844   4.585   5.657   9.325  0.0986 -0.2135  0.5783
14801SOL    HW146845   4.594   5.659   9.421  2.5959  1.1508  0.3919
14801SOL    HW246846   4.632   5.735   9.295 -0.0580 -0.9728 -1.8102
14802SOL     OW46847   7.894   6.543   0.284 -0.5553  0.2716 -0.7429
14802SOL    HW146848   7.874   6.475   0.220 -1.4390  0.1853 -0.3900
14802SOL    HW246849   7.889   6.625   0.234  0.3402  0.1066 -1.1284
14803SOL     OW46850   0.541   8.609   0.739 -0.7152 -0.5476 -0.0096
14803SOL    HW146851   0.478   8.676   0.712 -2.4434 -1.9997  0.2560
14803SOL    HW246852   0.502   8.569   0.817  1.3037 -0.4684  1.0984
14804SOL     OW46853   1.690   0.658   5.112 -0.5058  0.1809  0.5401
14804SOL    HW146854   1.685   0.696   5.199  1.2134  0.2643  0.6336
14804SOL    HW246855   1.712   0.566   5.127  1.2168  0.5074  0.1902
14805SOL     OW46856   1.720   0.479   4.246 -0.4812 -0.6504  0.1543
14805SOL    HW146857   1.641   0.437   4.213 -0.5354  0.1488 -0.7963
14805SOL    HW246858   1.768   0.504   4.167  0.6284 -0.9298  0.7133
14806SOL     OW46859   8.218   4.531   5.288 -0.5881  0.6550  0.2881
14806SOL    HW146860   8.239   4.624   5.274 -1.4469  0.9599  0.8783
14806SOL    HW246861   8.302   4.486   5.283 -0.1727  1.4470 -0.1542
14807SOL     OW46862   8.586  10.194   4.204 -0.2740  0.2669 -0.6956
14807SOL    HW146863   8.549  10.147   4.129  0.4338  0.3449 -1.1006
14807SOL    HW246864   8.666  10.235   4.170  0.2869 -0.0424  0.1983
14808SOL     OW46865   6.782   6.203   9.161 -0.4925 -0.4181  0.5414
14808SOL    HW146866   6.847   6.268   9.190 -0.6779  0.6234 -1.2530
14808SOL    HW246867   6.709   6.214   9.221 -0.4658  0.9700  0.3484
14809SOL     OW46868   7.035   1.208   9.997  0.0103  0.0202  0.1091
14809SOL    HW146869   7.086   1.157  10.061 -0.7940 -1.1124 -0.1132
14809SOL    HW246870   6.969   1.146   9.966 -0.1557  0.8202 -1.1765
14810SOL     OW46871   7.279   5.705   1.684 -0.3493  0.0893  0.2638
14810SOL    HW146872   7.321   5.722   1.769 -0.8390 -1.5760  0.8875
14810SOL    HW246873   7.191   5.675   1.707 -1.2979  1.7792 -0.9522
14811SOL     OW46874   5.857   5.067   2.901 -0.0475  0.0463  0.1016
14811SOL    HW146875   5.817   5.152   2.880 -1.1847  0.2682  2.8430
14811SOL    HW246876   5.934   5.089   2.953  1.7999 -0.5541 -2.1810
14812SOL     OW46877   9.199   6.068   1.159 -0.8186  0.2771  0.0320
14812SOL    HW146878   9.105   6.077   1.173 -0.6965  2.3023 -0.2178
14812SOL    HW246879   9.231   6.020   1.236 -1.9024  0.4960  0.6288
14813SOL     OW46880   4.834   9.750  10.230  0.3348  0.1335  0.1953
14813SOL    HW146881   4.812   9.750  10.137  2.6385  0.3480 -0.4124
14813SOL    HW246882   4.928   9.770  10.233  0.2000  0.7845  2.6072
14814SOL     OW46883   6.580   4.493  10.227  0.3464  0.0464  0.1872
14814SOL    HW146884   6.636   4.568  10.249  0.2772 -0.3132  1.7058
14814SOL    HW246885   6.630   4.417  10.257 -0.8397 -0.2953  1.4289
14815SOL     OW46886   5.404   0.857   9.379  0.6467 -0.1666 -0.4516
14815SOL    HW146887   5.348   0.866   9.456  0.1143  1.2025 -0.9744
14815SOL    HW246888   5.365   0.784   9.330  0.6227 -0.6378  0.2559
14816SOL     OW46889  10.056   9.827   6.996  0.4222  0.8666  0.5700
14816SOL    HW146890  10.061   9.743   6.951  0.9178  0.6810  0.9660
14816SOL    HW246891  10.090   9.809   7.084 -1.8626  0.8737  1.5278
14817SOL     OW46892   7.906   8.642   5.506 -0.4183 -0.0303  0.5201
14817SOL    HW146893   7.905   8.689   5.423 -0.1501 -1.1186 -0.1313
14817SOL    HW246894   7.993   8.658   5.542 -0.0506 -0.6133 -0.0698
14818SOL     OW46895   5.416   9.423   4.432 -0.2501  0.6682 -0.1816
14818SOL    HW146896   5.436   9.359   4.363 -0.7628 -1.4530  1.4977
14818SOL    HW246897   5.483   9.490   4.423  0.8667 -0.5570 -1.5217
14819SOL     OW46898   2.897   9.787   1.218  0.3786 -0.2448 -0.0447
14819SOL    HW146899   2.928   9.862   1.166 -2.6108  0.4436 -1.0332
14819SOL    HW246900   2.940   9.711   1.178  0.3729  0.5710 -1.6900
14820SOL     OW46901   8.779   7.321   0.201 -0.0413  0.6924 -0.0663
14820SOL    HW146902   8.695   7.364   0.187  0.2651  0.8874 -1.4215
14820SOL    HW246903   8.767   7.233   0.166  0.2408  0.6376 -0.0249
14821SOL     OW46904   1.978   1.915   8.858 -0.5502  0.0116  0.7315
14821SOL    HW146905   1.994   1.992   8.913 -1.2841 -0.5911  1.8393
14821SOL    HW246906   1.951   1.847   8.920 -3.6895 -0.0768 -0.5453
14822SOL     OW46907   4.824   8.585   8.196  0.1043 -0.1614  0.4176
14822SOL    HW146908   4.750   8.541   8.237 -0.6868 -0.5607 -1.3473
14822SOL    HW246909   4.871   8.627   8.268 -1.4436 -0.4743  1.6414
14823SOL     OW46910   9.395   0.916   5.992  0.2780 -0.1005 -0.2887
14823SOL    HW146911   9.300   0.916   5.989  0.2058 -1.4834  0.8307
14823SOL    HW246912   9.419   1.005   6.018 -0.7848 -0.0530  0.6086
14824SOL     OW46913  10.368   8.970   8.422  0.6416  0.2540 -0.7077
14824SOL    HW146914  10.280   8.933   8.424  0.0595  0.8454  5.7040
14824SOL    HW246915  10.354   9.062   8.400 -0.4722  0.4031  0.4930
14825SOL     OW46916   5.390   8.527   6.899  0.5118 -0.4242 -0.5010
14825SOL    HW146917   5.323   8.490   6.840 -0.2233  1.0494 -0.6320
14825SOL    HW246918   5.396   8.619   6.874  1.4519 -0.1659  0.5947
14826SOL     OW46919   5.288   1.664   7.317 -0.0642 -0.7246 -0.0119
14826SOL    HW146920   5.236   1.638   7.240 -0.0304 -0.2004 -0.2169
14826SOL    HW246921   5.223   1.683   7.384 -0.2226  0.8653 -0.5537
14827SOL     OW46922   8.416   0.111   3.775  0.7588  0.3067  0.2167
14827SOL    HW146923   8.480   0.172   3.739  1.2061 -1.5570 -2.4872
14827SOL    HW246924   8.346   0.107   3.709  0.2941 -1.3717  0.7418
14828SOL     OW46925   6.944   5.966   9.197 -0.0966 -0.2819  0.4165
14828SOL    HW146926   6.891   5.896   9.157 -2.0547  0.7466  1.1009
14828SOL    HW246927   6.883   6.039   9.206  1.4758  0.9612  1.2779
14829SOL     OW46928   5.534   7.549   8.181  0.4909  0.0693 -0.2571
14829SOL    HW146929   5.530   7.582   8.270 -0.5460 -0.9430  0.1010
14829SOL    HW246930   5.604   7.599   8.139  0.4451  1.1161  0.8816
14830SOL     OW46931   4.464   2.746   4.660 -0.0728 -0.0656 -0.0299
14830SOL    HW146932   4.429   2.692   4.731 -0.3249 -0.0748 -0.1596
14830SOL    HW246933   4.544   2.702   4.633 -0.2166 -0.3119 -0.0551
14831SOL     OW46934   8.887   5.771   3.072  0.1550 -0.6466  0.1227
14831SOL    HW146935   8.851   5.689   3.106  1.0097 -1.4473 -0.8242
14831SOL    HW246936   8.907   5.823   3.149  0.5929 -1.7799  0.8017
14832SOL     OW46937   9.187   2.012   1.561  0.1229 -0.2519 -0.6303
14832SOL    HW146938   9.123   2.081   1.580  0.4298 -0.3315  0.8417
14832SOL    HW246939   9.151   1.934   1.602  0.0900 -0.8370 -1.7412
14833SOL     OW46940   4.005   1.633   3.976 -0.5385 -0.4439  0.1644
14833SOL    HW146941   3.947   1.636   4.051 -0.0334  1.5809  0.5424
14833SOL    HW246942   4.025   1.725   3.958 -0.0025 -0.9220 -1.9438
14834SOL     OW46943   4.906   3.944   5.052 -0.4613 -0.3841 -0.6513
14834SOL    HW146944   4.881   3.914   5.139 -0.6851 -1.9492 -1.2270
14834SOL    HW246945   4.979   3.887   5.027  0.4692  0.9031 -0.9803
14835SOL     OW46946   7.518   3.204   9.438  0.0169 -0.3396 -0.4315
14835SOL    HW146947   7.597   3.160   9.470  0.9454 -0.3927 -2.6279
14835SOL    HW246948   7.550   3.285   9.400 -1.2674  0.5927  0.4089
14836SOL     OW46949   2.308  10.484   5.857 -0.4144  0.1525 -0.1846
14836SOL    HW146950   2.379  10.529   5.904  0.0636 -1.1240  0.3714
14836SOL    HW246951   2.238  10.549   5.850  0.4580  1.1411  0.0966
14837SOL     OW46952   5.816   5.701   4.429  0.2082 -0.3226  0.3883
14837SOL    HW146953   5.734   5.686   4.382 -0.7721 -0.7367  2.1426
14837SOL    HW246954   5.879   5.642   4.388 -0.5351 -0.4812 -0.5519
14838SOL     OW46955   6.600   1.982   5.529  0.0998  0.1691  0.4713
14838SOL    HW146956   6.523   2.022   5.488  0.3440  1.0967  0.9002
14838SOL    HW246957   6.674   2.032   5.496  0.4748 -0.3683  0.4916
14839SOL     OW46958   4.783   5.878   5.948 -0.2644  0.2804  0.2055
14839SOL    HW146959   4.852   5.813   5.939  0.1557  0.6870  0.4658
14839SOL    HW246960   4.814   5.937   6.016 -1.1508  0.1099  0.7682
14840SOL     OW46961   8.671   2.799   5.880  0.0495 -0.1439 -0.3482
14840SOL    HW146962   8.698   2.891   5.878  0.9802 -0.2153  3.2107
14840SOL    HW246963   8.669   2.773   5.788  2.3601  2.7011 -1.3587
14841SOL     OW46964   4.099   1.694   8.844  0.6866 -0.0492  0.2313
14841SOL    HW146965   4.122   1.783   8.815  0.4237 -0.1861 -0.3981
14841SOL    HW246966   4.119   1.694   8.938 -0.6112  1.1204  0.5506
14842SOL     OW46967   5.198   1.945   5.880  0.1093  0.4290  0.2097
14842SOL    HW146968   5.134   1.889   5.923 -0.2906  0.7126 -0.0026
14842SOL    HW246969   5.211   2.017   5.942  0.4150  0.2437  0.3626
14843SOL     OW46970   8.748   5.639   7.150 -0.4394 -0.1722  0.3419
14843SOL    HW146971   8.788   5.726   7.148  1.5849 -0.9937  1.4691
14843SOL    HW246972   8.681   5.644   7.218 -0.7046  0.6206  0.0366
14844SOL     OW46973   6.155   5.802   1.940 -0.3809 -0.4472 -0.0492
14844SOL    HW146974   6.075   5.822   1.988  0.0191 -0.6567  0.7226
14844SOL    HW246975   6.198   5.733   1.991 -0.0202 -0.7897 -0.7923
14845SOL     OW46976   7.182   9.694   1.063 -0.4268  0.1030  0.1878
14845SOL    HW146977   7.189   9.630   0.992 -1.1035  0.1594  0.0635
14845SOL    HW246978   7.191   9.779   1.020  0.3903  0.1093  0.3425
14846SOL     OW46979   8.348   1.685   0.211  0.1663 -0.3797 -0.3344
14846SOL    HW146980   8.428   1.673   0.263  0.1911 -0.8260 -0.4709
14846SOL    HW246981   8.362   1.630   0.134 -0.5190 -0.9183 -0.0868
14847SOL     OW46982   8.058   9.585   6.949  0.5527 -0.0429  0.0839
14847SOL    HW146983   8.024   9.674   6.941 -0.0041 -0.3056 -0.5595
14847SOL    HW246984   7.999   9.541   7.010 -0.6191 -0.6474 -1.4231
14848SOL     OW46985   9.028   2.356   0.187 -0.1892  0.0816  0.1064
14848SOL    HW146986   8.933   2.363   0.190 -0.0766  1.5466  2.0408
14848SOL    HW246987   9.049   2.350   0.094 -2.1757 -0.8282 -0.3351
14849SOL     OW46988   1.199   9.215   4.712 -0.1852  0.5695 -0.4364
14849SOL    HW146989   1.185   9.292   4.767  1.6173  0.3197  0.4418
14849SOL    HW246990   1.237   9.150   4.771 -0.6982 -0.6535 -1.3978
14850SOL     OW46991   3.329   6.108   8.203 -0.4269 -0.2356  0.5731
14850SOL    HW146992   3.403   6.098   8.264  0.3176  0.8581 -0.1250
14850SOL    HW246993   3.295   6.019   8.192  2.1439 -1.1310 -0.7754
14851SOL     OW46994   3.252   0.771   2.796 -0.2844 -0.3833 -0.2844
14851SOL    HW146995   3.247   0.675   2.786 -0.6059 -0.3562 -0.3897
14851SOL    HW246996   3.234   0.786   2.889  0.0505 -0.4420 -0.2052
14852SOL     OW46997   5.738   8.686   6.383 -0.1360  0.4390 -0.8362
14852SOL    HW146998   5.774   8.610   6.336  1.1432  0.6164 -0.2032
14852SOL    HW246999   5.645   8.686   6.362 -0.2940 -1.6896 -0.3681
14853SOL     OW47000   4.514   9.527   8.648 -0.9720  0.0665  0.4518
14853SOL    HW147001   4.486   9.616   8.629  0.4308  0.6003  0.7496
14853SOL    HW247002   4.461   9.472   8.591 -0.6518  1.2250 -1.0254
14854SOL     OW47003   0.390   7.812   1.393 -0.3364  0.3468 -0.2022
14854SOL    HW147004   0.398   7.780   1.304 -1.1211  0.3517 -0.2803
14854SOL    HW247005   0.401   7.735   1.448 -3.6480 -0.4252 -0.4205
14855SOL     OW47006   5.856   9.499   7.787 -0.1450 -0.8061 -0.2128
14855SOL    HW147007   5.932   9.551   7.814 -0.6968  0.5575 -1.1672
14855SOL    HW247008   5.894   9.427   7.735  0.4721  0.3532 -1.4227
14856SOL     OW47009   5.176   6.273   1.345  0.1121  0.7309 -0.0250
14856SOL    HW147010   5.178   6.363   1.377  1.6359 -0.1084  2.5651
14856SOL    HW247011   5.109   6.230   1.399  0.6106 -0.0613 -0.0211
14857SOL     OW47012   9.151   7.594   5.499 -0.0841  0.2714  0.0980
14857SOL    HW147013   9.087   7.626   5.436 -0.9249 -1.1955  0.1752
14857SOL    HW247014   9.218   7.662   5.501 -1.8834  2.1036  0.4219
14858SOL     OW47015   3.492   0.127   1.892  0.4670  0.5346  0.3640
14858SOL    HW147016   3.503   0.210   1.847  0.7680 -0.8466 -2.3364
14858SOL    HW247017   3.568   0.076   1.867  0.0494 -0.7385  1.5509
14859SOL     OW47018   7.821   7.119   9.495  0.4235 -0.1827 -0.6088
14859SOL    HW147019   7.748   7.162   9.449  0.4867 -0.8965 -1.4096
14859SOL    HW247020   7.778   7.056   9.553  0.3893 -2.2434 -2.7291
14860SOL     OW47021   6.963   0.595   0.975  0.1283 -0.1643 -0.1470
14860SOL    HW147022   6.959   0.691   0.978  0.7210 -0.1624  1.2430
14860SOL    HW247023   6.900   0.571   0.907  0.5850  1.2447 -1.1427
14861SOL     OW47024   7.918   5.816   8.345  0.5115 -0.2429 -0.4178
14861SOL    HW147025   7.997   5.836   8.395  0.2253  0.6003 -0.3050
14861SOL    HW247026   7.866   5.761   8.403  0.2850  0.5401  0.1347
14862SOL     OW47027   1.858   6.471   0.431 -0.3005 -0.0604 -0.4594
14862SOL    HW147028   1.821   6.475   0.342  1.1149 -1.2470 -1.1458
14862SOL    HW247029   1.832   6.384   0.463  0.7889 -0.4116 -0.4839
14863SOL     OW47030   8.611   9.936   7.197  0.1174 -0.1272 -0.3242
14863SOL    HW147031   8.526   9.940   7.241 -0.3996  0.9512 -1.3716
14863SOL    HW247032   8.594   9.888   7.116  0.3241  0.7344 -0.8922
14864SOL     OW47033   8.242   1.489   2.357  0.5673 -0.3828 -0.0479
14864SOL    HW147034   8.295   1.529   2.288  0.0929 -0.4015 -0.4324
14864SOL    HW247035   8.287   1.407   2.377  0.2016 -0.8387 -1.0173
14865SOL     OW47036   1.758   6.354   7.520  0.2230 -0.2612  0.3717
14865SOL    HW147037   1.812   6.401   7.584  1.0684 -0.9333  0.1604
14865SOL    HW247038   1.713   6.287   7.571 -1.8235  1.4039  0.8754
14866SOL     OW47039   2.902   0.726   2.608  0.6354 -0.0755  0.4784
14866SOL    HW147040   2.959   0.693   2.539  0.1106 -2.4339  1.0958
14866SOL    HW247041   2.814   0.723   2.570  0.7164  2.2894 -0.0180
14867SOL     OW47042   5.490   5.491   0.125  0.0997 -0.1638 -0.4903
14867SOL    HW147043   5.413   5.467   0.073  0.3720  0.5626 -1.2653
14867SOL    HW247044   5.470   5.579   0.157 -0.0489 -0.5978  0.6305
14868SOL     OW47045   9.045  10.477   3.634  0.1137  0.2398 -0.1925
14868SOL    HW147046   9.139  10.465   3.648 -0.4688 -0.4870  4.8889
14868SOL    HW247047   9.017  10.397   3.590  1.5709 -0.3400 -0.1314
14869SOL     OW47048   2.706   5.274   8.286 -0.5497 -0.0622  0.5206
14869SOL    HW147049   2.798   5.258   8.309 -0.5118 -1.5884 -0.5111
14869SOL    HW247050   2.705   5.364   8.253  0.3160  0.4175  1.7234
14870SOL     OW47051   2.255   5.561   2.630  0.5665 -0.2556 -0.7466
14870SOL    HW147052   2.296   5.629   2.684  0.5897  1.2412 -2.5745
14870SOL    HW247053   2.180   5.532   2.681  2.1149 -0.8867  1.3135
14871SOL     OW47054   7.667   7.000   6.768  0.0189  0.4891  0.2436
14871SOL    HW147055   7.751   7.002   6.722 -0.4870  0.1087 -0.7183
14871SOL    HW247056   7.612   6.941   6.717 -0.4920 -0.1593  1.4857
14872SOL     OW47057   4.100   8.247   6.693 -0.1956  0.4407 -0.0604
14872SOL    HW147058   4.019   8.236   6.744  1.0852 -0.4351  1.9204
14872SOL    HW247059   4.075   8.223   6.604 -2.6942  2.5641 -0.0668
14873SOL     OW47060   1.047   9.391   1.835  0.4878  0.2551  0.0389
14873SOL    HW147061   1.015   9.330   1.901  0.4656  0.4920  0.2457
14873SOL    HW247062   1.005   9.474   1.855  0.2939  0.2734 -0.4181
14874SOL     OW47063   9.615   9.567   8.163  0.1303  0.3026  0.4691
14874SOL    HW147064   9.594   9.474   8.173 -1.2409  0.3031 -1.7261
14874SOL    HW247065   9.682   9.569   8.094  0.7953  0.9216  1.1085
14875SOL     OW47066   7.228   5.978   9.237  0.8822 -0.3439 -0.1273
14875SOL    HW147067   7.141   5.939   9.237 -0.0414  1.5508  1.4272
14875SOL    HW247068   7.233   6.023   9.152 -0.1773  0.5361  0.2482
14876SOL     OW47069   3.398   6.178   1.710 -0.4920  0.9137 -0.4019
14876SOL    HW147070   3.305   6.158   1.717 -0.6193  1.0168 -1.6518
14876SOL    HW247071   3.439   6.094   1.690  0.0203  0.3836  2.3791
14877SOL     OW47072   9.254   4.160   0.197  0.3139  0.3649 -0.2688
14877SOL    HW147073   9.240   4.200   0.111  1.2295 -0.3506 -0.7701
14877SOL    HW247074   9.266   4.234   0.256 -0.9825  0.8896 -0.6076
14878SOL     OW47075   8.330   9.855   1.236  0.6429  0.1882 -0.3224
14878SOL    HW147076   8.403   9.907   1.202 -0.0089  0.8800 -0.7119
14878SOL    HW247077   8.296   9.907   1.309 -0.4662  0.6880 -1.1683
14879SOL     OW47078   6.466   2.467  10.224 -0.0341  0.5724 -0.2487
14879SOL    HW147079   6.470   2.380  10.263 -0.1461  1.3046  1.5044
14879SOL    HW247080   6.517   2.460  10.144 -0.6656 -1.2824 -0.5522
14880SOL     OW47081   1.036   7.543   2.033  0.4047  0.2463 -0.1488
14880SOL    HW147082   1.023   7.504   1.946  0.9827  0.4967 -0.3473
14880SOL    HW247083   1.032   7.637   2.018 -0.2898  0.2835  0.2259
14881SOL     OW47084   8.719   5.954   2.567  0.2949  0.1096  0.0667
14881SOL    HW147085   8.644   5.999   2.606 -0.0503 -0.2892 -0.1327
14881SOL    HW247086   8.691   5.935   2.477  0.9552  0.7243 -0.2773
14882SOL     OW47087   8.583   3.075   0.821 -0.4013  0.1294  0.0337
14882SOL    HW147088   8.625   3.151   0.861 -0.3469 -0.3090  0.8235
14882SOL    HW247089   8.589   3.091   0.727  1.1466  0.2948  0.1285
14883SOL     OW47090   4.030   3.321   5.289 -0.0781  0.3931 -0.1133
14883SOL    HW147091   4.054   3.266   5.364  0.8479  1.2180  0.2097
14883SOL    HW247092   4.009   3.259   5.220 -1.3126 -0.4039  0.9112
14884SOL     OW47093   2.456   8.488  10.471  0.5401 -0.6339  0.3104
14884SOL    HW147094   2.363   8.480  10.450  0.3464 -1.1472  1.2591
14884SOL    HW247095   2.483   8.571  10.434 -0.7063  0.2950  1.3902
14885SOL     OW47096   0.652   9.046   4.722  0.1170  0.2007 -0.1665
14885SOL    HW147097   0.584   8.997   4.768  0.5775  0.6523  1.0455
14885SOL    HW247098   0.728   9.042   4.780  0.5632  1.2280 -0.6536
14886SOL     OW47099   1.735   2.241   9.660 -0.0261 -0.1799 -0.6033
14886SOL    HW147100   1.679   2.196   9.597  0.1702 -1.5508  0.1577
14886SOL    HW247101   1.710   2.205   9.745  1.6131 -0.4458 -0.1935
14887SOL     OW47102   0.742   8.080   8.026  0.1446  0.0415 -0.3649
14887SOL    HW147103   0.746   8.168   7.991 -0.3335  0.9602  1.7166
14887SOL    HW247104   0.744   8.092   8.121 -0.9529 -2.1202  0.0011
14888SOL     OW47105   4.868   9.787   7.501 -0.1439 -0.1191 -0.2407
14888SOL    HW147106   4.811   9.853   7.462 -3.5234 -1.3421  2.1682
14888SOL    HW247107   4.817   9.706   7.500  1.6926 -1.4417  1.7657
14889SOL     OW47108   4.225   0.476   7.909  0.1275 -0.1266  0.1969
14889SOL    HW147109   4.279   0.435   7.842  2.0797  0.1922  1.4789
14889SOL    HW247110   4.183   0.550   7.866 -0.0335 -0.9296 -1.0656
14890SOL     OW47111   9.913   7.630   0.142 -0.4635 -0.2603  0.0710
14890SOL    HW147112   9.896   7.559   0.080  2.6106  0.6977 -2.1640
14890SOL    HW247113   9.845   7.695   0.124 -0.3532 -0.5357 -1.4740
14891SOL     OW47114   3.811   7.510   1.448  0.0725 -0.0457 -0.3741
14891SOL    HW147115   3.880   7.450   1.474 -1.0802 -1.3805 -0.2603
14891SOL    HW247116   3.824   7.523   1.354 -0.5792 -1.7814 -0.7489
14892SOL     OW47117   0.311   3.304   7.297  0.2550  0.1486  0.2735
14892SOL    HW147118   0.241   3.245   7.269  0.8954 -0.8111  0.6241
14892SOL    HW247119   0.313   3.372   7.230 -0.9753  0.1802  0.2350
14893SOL     OW47120   7.780   8.192   0.805 -0.2158  0.4197  0.0972
14893SOL    HW147121   7.714   8.183   0.736  1.5483  1.4438 -1.8280
14893SOL    HW247122   7.791   8.103   0.839 -1.8647  0.0720 -0.1762
14894SOL     OW47123   9.907   5.338   0.186  0.1237  0.0210  0.0965
14894SOL    HW147124   9.939   5.249   0.197 -2.1992 -0.8497  0.3178
14894SOL    HW247125   9.842   5.332   0.116 -0.1823  1.5161  0.2137
14895SOL     OW47126   5.027   2.778   8.583 -0.2053  0.2376 -0.0895
14895SOL    HW147127   4.977   2.702   8.553 -1.4799  1.1966 -0.5200
14895SOL    HW247128   5.056   2.820   8.502  2.6636 -1.0914  0.1390
14896SOL     OW47129  10.024  10.299   2.274 -0.0608  0.5330  0.2490
14896SOL    HW147130   9.939  10.312   2.232 -1.6389 -2.4384  2.1729
14896SOL    HW247131  10.038  10.379   2.325 -1.5361  1.1826 -0.2975
14897SOL     OW47132   3.889   0.598   3.647  0.2635  0.3399  0.4460
14897SOL    HW147133   3.948   0.637   3.711  0.1054  0.8844  0.2606
14897SOL    HW247134   3.863   0.670   3.590 -0.3238  0.0420  0.3255
14898SOL     OW47135  10.342   6.985   8.421 -0.0650 -0.2472 -0.5385
14898SOL    HW147136  10.340   6.910   8.363  0.7985 -0.5127 -0.2410
14898SOL    HW247137  10.430   7.022   8.410  0.4295 -0.8046  1.2027
14899SOL     OW47138   6.168   6.236   5.744 -0.8037 -0.1201  0.5383
14899SOL    HW147139   6.102   6.191   5.797  0.8994 -2.0988  1.1472
14899SOL    HW247140   6.251   6.207   5.781  0.4352  0.9822 -1.2278
14900SOL     OW47141   0.353   5.399   2.383 -0.1020  0.0615 -0.0344
14900SOL    HW147142   0.264   5.403   2.347 -1.1523 -0.2560  2.3466
14900SOL    HW247143   0.368   5.488   2.415  0.1444 -0.0867  0.2514
14901SOL     OW47144   3.865   7.183   1.564  0.2378  0.3184 -0.2995
14901SOL    HW147145   3.911   7.258   1.601  0.2968  0.1337  0.0089
14901SOL    HW247146   3.894   7.109   1.618 -0.9257  0.3045  0.3262
14902SOL     OW47147   2.550   0.465   3.175  0.1141 -0.6336 -0.0713
14902SOL    HW147148   2.502   0.382   3.169 -1.3586  0.1571  0.2381
14902SOL    HW247149   2.530   0.498   3.262  0.6948  0.0416 -0.1897
14903SOL     OW47150   9.530   4.465   1.830 -0.3835  0.3593 -0.1707
14903SOL    HW147151   9.597   4.450   1.764 -0.2863  0.4506 -0.0947
14903SOL    HW247152   9.515   4.559   1.828 -0.9830  0.2579 -0.6403
14904SOL     OW47153   1.257   6.708   7.980 -0.2771 -0.4505  0.2039
14904SOL    HW147154   1.275   6.741   7.892 -3.3554  1.1057  0.0441
14904SOL    HW247155   1.216   6.623   7.966  0.5537 -0.8675  0.2409
14905SOL     OW47156   2.381   1.001   1.252  0.4812  0.4116  0.2011
14905SOL    HW147157   2.285   1.002   1.255  0.4475  0.3582 -0.5688
14905SOL    HW247158   2.406   1.093   1.248  0.5125  0.4673  1.3815
14906SOL     OW47159   5.192   7.707   7.049  0.3968 -0.0392 -0.5668
14906SOL    HW147160   5.267   7.763   7.067  0.5485 -0.8560  1.6084
14906SOL    HW247161   5.226   7.618   7.055 -0.5870 -0.4049 -0.2325
14907SOL     OW47162   6.983   5.429  10.078  1.0247 -0.2228 -0.1442
14907SOL    HW147163   6.904   5.482  10.093  0.9061 -0.4393 -0.0056
14907SOL    HW247164   7.055   5.485  10.109  0.7976 -0.6193  1.1814
14908SOL     OW47165   1.204   9.834   6.963 -0.0161  0.8422 -0.1152
14908SOL    HW147166   1.117   9.800   6.941 -0.1098  1.0592 -0.0808
14908SOL    HW247167   1.193   9.929   6.962 -0.2499  0.8670  1.7720
14909SOL     OW47168   1.359   5.340   0.783 -0.3654 -0.1147  0.1368
14909SOL    HW147169   1.379   5.406   0.717 -1.7715 -0.7725 -1.0186
14909SOL    HW247170   1.440   5.330   0.833  0.2739  1.5050 -0.5022
14910SOL     OW47171   6.113   5.487   1.524 -0.0914 -0.4348  0.8515
14910SOL    HW147172   6.130   5.552   1.592 -2.2952 -0.7045  1.7163
14910SOL    HW247173   6.027   5.451   1.545  0.0118 -1.9171 -0.9907
14911SOL     OW47174   9.365   9.220   7.449 -0.1199 -1.0246  1.2330
14911SOL    HW147175   9.438   9.282   7.449 -1.6162  0.8356 -0.0380
14911SOL    HW247176   9.394   9.148   7.393  0.2110  0.3901 -0.4769
14912SOL     OW47177  10.033   2.538   0.525 -0.2408  0.3396 -0.0246
14912SOL    HW147178  10.021   2.615   0.581  0.4967  1.2856 -1.1252
14912SOL    HW247179  10.110   2.558   0.471 -1.2258 -0.2865 -1.7670
14913SOL     OW47180   9.723   7.091   2.925 -0.0215  0.1383 -0.2507
14913SOL    HW147181   9.708   7.061   2.836  0.7298 -0.6297 -0.1297
14913SOL    HW247182   9.657   7.044   2.977  1.5408 -1.8773  0.0275
14914SOL     OW47183   7.078   3.502   4.987  1.1978  0.2065  0.9257
14914SOL    HW147184   7.062   3.547   5.070  1.7686 -0.5498  1.4635
14914SOL    HW247185   7.170   3.521   4.966  1.0800  0.3284  0.5050
14915SOL     OW47186   8.514   2.159   8.202  0.6779  0.5790 -0.3751
14915SOL    HW147187   8.552   2.246   8.186  0.7562  1.0164  1.8305
14915SOL    HW247188   8.590   2.102   8.213  0.6372  0.4648 -0.6783
14916SOL     OW47189   6.697   9.151   1.124  0.6272 -0.2883 -0.3624
14916SOL    HW147190   6.754   9.204   1.179 -0.2771 -1.0684  1.4242
14916SOL    HW247191   6.609   9.164   1.160  0.0856 -1.3080 -1.2467
14917SOL     OW47192   7.344   7.156   5.103  0.3329  0.0881 -0.6548
14917SOL    HW147193   7.286   7.080   5.103 -0.5307  0.7125  1.1128
14917SOL    HW247194   7.432   7.119   5.109 -0.1399 -0.8132  2.0005
14918SOL     OW47195   1.423   6.378   1.066 -0.3512  0.2818  0.1809
14918SOL    HW147196   1.472   6.394   1.146  0.5390 -2.5498  0.2957
14918SOL    HW247197   1.453   6.445   1.005  0.5353  1.1593  1.5338
14919SOL     OW47198   5.771   9.467   9.129  0.0321 -0.7411  0.1280
14919SOL    HW147199   5.764   9.410   9.206  0.0549 -0.8721  0.0335
14919SOL    HW247200   5.684   9.506   9.120  0.1597 -0.3584  0.5002
14920SOL     OW47201   8.008   4.780   3.575 -0.0582  0.1224 -0.0943
14920SOL    HW147202   7.989   4.687   3.565  0.7064 -0.2650  1.7786
14920SOL    HW247203   8.052   4.804   3.493  0.9550 -1.4899 -0.0526
14921SOL     OW47204   8.325   9.411   5.584 -0.1969 -0.2623  0.1157
14921SOL    HW147205   8.399   9.396   5.525 -2.0551  0.1930 -2.4675
14921SOL    HW247206   8.340   9.500   5.618  0.0997  0.0903 -0.9058
14922SOL     OW47207   9.409   3.260   2.724  0.0211  0.0951  0.0531
14922SOL    HW147208   9.446   3.309   2.798  0.1964  0.6317 -0.3799
14922SOL    HW247209   9.485   3.241   2.668  0.4231 -2.9487  1.4391
14923SOL     OW47210  10.387   0.953  10.414 -0.2235  0.1573  0.5669
14923SOL    HW147211  10.379   1.012  10.489  0.2858  1.1355 -0.1279
14923SOL    HW247212  10.457   0.991  10.361 -1.2036  0.0202 -0.8877
14924SOL     OW47213   7.184   0.714   2.463  0.0894  0.3108 -0.2912
14924SOL    HW147214   7.250   0.782   2.454 -1.2122  1.8928  1.3046
14924SOL    HW247215   7.126   0.746   2.532 -1.1788 -1.9575 -0.2044
14925SOL     OW47216   3.400   5.446   1.289  0.0994  0.2222  0.1312
14925SOL    HW147217   3.467   5.511   1.269 -0.3533  0.8789  0.6902
14925SOL    HW247218   3.407   5.432   1.384  1.3159 -1.8216 -0.2077
14926SOL     OW47219   5.507   1.581   8.539 -0.1314 -0.5486  0.1426
14926SOL    HW147220   5.601   1.575   8.521  0.2059 -0.6345  1.7495
14926SOL    HW247221   5.492   1.673   8.557 -0.0962 -0.7232  1.1042
14927SOL     OW47222   4.649   0.762   1.408 -0.4881  0.4751 -0.3882
14927SOL    HW147223   4.666   0.673   1.437 -0.0015 -0.8684 -4.2444
14927SOL    HW247224   4.599   0.752   1.327 -0.3309  3.7024 -1.0253
14928SOL     OW47225   2.856   5.513   9.347 -0.2081  0.3698  0.2317
14928SOL    HW147226   2.842   5.420   9.332 -0.7840  0.6603 -1.2442
14928SOL    HW247227   2.774   5.542   9.388 -0.5859  0.4622 -0.5606
14929SOL     OW47228   9.142   6.839   1.995  0.4162 -0.0109 -0.1920
14929SOL    HW147229   9.166   6.868   1.907 -1.6148  0.1352 -0.7596
14929SOL    HW247230   9.218   6.860   2.049  1.7786 -0.2509 -1.9168
14930SOL     OW47231   4.689   3.844   7.296  0.6859 -0.1890 -0.5972
14930SOL    HW147232   4.665   3.934   7.321 -1.0391 -0.2936 -1.6877
14930SOL    HW247233   4.666   3.792   7.373  0.3619  0.1377 -0.4641
14931SOL     OW47234   4.418   0.078   1.933  0.0322  0.2929  0.4807
14931SOL    HW147235   4.418   0.161   1.982  3.4929  0.3917  0.5239
14931SOL    HW247236   4.474   0.020   1.985 -0.4949 -1.3466 -0.7208
14932SOL     OW47237   6.518   7.846   3.959  0.3022 -0.7055 -0.3767
14932SOL    HW147238   6.496   7.909   3.890 -1.9691  1.0374  1.7837
14932SOL    HW247239   6.554   7.771   3.911  2.4388  1.8256 -3.1350
14933SOL     OW47240   8.901   2.126   1.235 -0.4344 -0.6572 -0.0798
14933SOL    HW147241   8.959   2.076   1.178 -1.6624 -1.7848 -0.3663
14933SOL    HW247242   8.858   2.061   1.290  0.5345  0.3770  2.0236
14934SOL     OW47243   1.184   3.823   9.520  0.0476 -0.0392  0.3683
14934SOL    HW147244   1.149   3.912   9.523  1.0290  0.3836  3.4564
14934SOL    HW247245   1.238   3.820   9.442  0.0021  2.1017  0.2002
14935SOL     OW47246   0.101   3.428   2.367  0.7841 -0.4728  0.1168
14935SOL    HW147247   0.130   3.337   2.366 -2.0634 -1.5499 -2.6562
14935SOL    HW247248   0.131   3.464   2.283  0.1977  0.4989  0.3066
14936SOL     OW47249   3.067   3.162   8.823  0.6158  0.0417 -0.5709
14936SOL    HW147250   2.976   3.136   8.836  1.2989 -2.0394  0.4179
14936SOL    HW247251   3.091   3.124   8.738  0.4432  0.9979 -1.0590
14937SOL     OW47252   9.471   5.469   5.437 -0.3990  0.6033 -0.0694
14937SOL    HW147253   9.378   5.471   5.414 -0.1433  1.1074 -1.1605
14937SOL    HW247254   9.506   5.393   5.390  0.1508  1.6948 -1.5281
14938SOL     OW47255   8.271   0.565   7.732 -0.2206  0.0959 -0.5690
14938SOL    HW147256   8.311   0.645   7.765 -1.0352  0.2480  0.0852
14938SOL    HW247257   8.276   0.574   7.637 -1.6933  1.6803 -0.5546
14939SOL     OW47258   1.214   8.852  10.480  0.0878  0.7308 -0.6348
14939SOL    HW147259   1.256   8.779  10.525  0.1024  0.2975 -1.3196
14939SOL    HW247260   1.286   8.911  10.456  0.1975  0.4866 -0.9225
14940SOL     OW47261   3.805   3.843   3.921 -0.3960  0.0043 -0.0183
14940SOL    HW147262   3.764   3.804   3.844 -0.9395  0.2482  0.1424
14940SOL    HW247263   3.852   3.771   3.962 -0.6864 -0.2900 -0.1952
14941SOL     OW47264   6.152   5.927   5.876 -0.6583  0.0210  0.0425
14941SOL    HW147265   6.150   5.922   5.971  2.2682  0.0084  0.1904
14941SOL    HW247266   6.242   5.951   5.855 -1.0128 -0.7448 -2.7567
14942SOL     OW47267   4.206   0.798  10.465 -0.2950 -0.3503 -0.7588
14942SOL    HW147268   4.174   0.797  10.375 -1.4232 -1.7116 -0.3835
14942SOL    HW247269   4.290   0.752  10.462 -0.1689 -0.0916 -1.1695
14943SOL     OW47270   7.340   5.563   8.933 -0.6626  0.3615 -0.5698
14943SOL    HW147271   7.290   5.559   9.015  1.4293  0.6518  0.7946
14943SOL    HW247272   7.298   5.633   8.883 -2.5624 -0.4454 -0.1814
14944SOL     OW47273   2.321   3.637   7.865  0.5691  0.0305  0.2177
14944SOL    HW147274   2.248   3.585   7.831 -0.3932  1.1054  0.6081
14944SOL    HW247275   2.322   3.618   7.958 -0.0220  0.9774  0.4252
14945SOL     OW47276  10.413   9.753   1.147  0.5853  0.3617  0.3272
14945SOL    HW147277  10.325   9.720   1.163  1.2104 -0.8823  1.3574
14945SOL    HW247278  10.403   9.848   1.141 -0.6994  0.3016  1.2944
14946SOL     OW47279   0.203   6.035   4.757 -0.3507 -0.4397  0.1286
14946SOL    HW147280   0.185   5.963   4.817 -0.1505  0.2064  0.9807
14946SOL    HW247281   0.286   6.012   4.715 -0.3658 -0.7744  0.2823
14947SOL     OW47282   8.226   2.469   1.311  0.4126 -0.2472 -0.3909
14947SOL    HW147283   8.250   2.413   1.237 -1.4186  0.5967 -1.7085
14947SOL    HW247284   8.170   2.414   1.366 -0.6963  0.0036 -1.2435
14948SOL     OW47285   9.371   7.765   2.957  0.3026 -0.1143 -0.5782
14948SOL    HW147286   9.304   7.834   2.957  2.1490  1.8403 -2.7436
14948SOL    HW247287   9.327   7.689   2.918 -1.5852 -0.0291  1.2409
14949SOL     OW47288   1.434   1.350   9.851  0.4850  0.8237 -0.4705
14949SOL    HW147289   1.521   1.332   9.886  0.6423  1.2670 -0.6279
14949SOL    HW247290   1.374   1.331   9.924  0.7647  1.1601 -0.1482
14950SOL     OW47291   5.979   9.810   6.305 -0.3265 -0.5712  0.7933
14950SOL    HW147292   5.911   9.845   6.247 -0.7343 -0.5283  1.2970
14950SOL    HW247293   6.059   9.852   6.275 -0.6035 -0.2128  0.5430
14951SOL     OW47294   8.335   9.254   3.863  0.5939 -0.2402 -0.3183
14951SOL    HW147295   8.247   9.217   3.872  0.4534 -0.1102 -1.0708
14951SOL    HW247296   8.372   9.251   3.951  0.7253 -2.5227 -0.3937
14952SOL     OW47297   7.464   7.602   2.571 -0.3663  0.2157  0.6155
14952SOL    HW147298   7.442   7.509   2.564 -0.7349  0.2877  0.8371
14952SOL    HW247299   7.479   7.616   2.665  4.6171 -0.7624  0.2478
14953SOL     OW47300   1.712   4.531   4.408  0.3392  0.1933 -0.3986
14953SOL    HW147301   1.761   4.455   4.437 -1.1767 -0.0556  1.7664
14953SOL    HW247302   1.646   4.496   4.347  0.5105 -0.0258 -0.4573
14954SOL     OW47303   2.789   7.229   3.147  0.4548  0.5436 -0.5783
14954SOL    HW147304   2.738   7.157   3.109 -0.5171  0.2071  1.2866
14954SOL    HW247305   2.880   7.198   3.141  0.3052  0.2926 -2.0990
14955SOL     OW47306   0.021   6.012   5.473 -0.6521  0.6381 -0.3013
14955SOL    HW147307   0.038   6.023   5.380 -1.2937 -0.9498 -0.6435
14955SOL    HW247308   0.002   6.100   5.505  0.6111  1.3520 -1.4381
14956SOL     OW47309   1.320   7.920  10.092  0.6227  0.2389  0.7397
14956SOL    HW147310   1.380   7.963  10.152  0.7748 -1.0888  1.5971
14956SOL    HW247311   1.280   7.850  10.145 -0.7257  0.2991 -0.1615
14957SOL     OW47312   4.573   5.127   2.389  0.3832 -0.1703  0.6689
14957SOL    HW147313   4.590   5.142   2.482 -2.1080  3.1755  0.7674
14957SOL    HW247314   4.478   5.115   2.383  0.5250 -0.7217 -1.4133
14958SOL     OW47315   0.405   4.606   0.130  0.1064  0.4156 -0.3306
14958SOL    HW147316   0.386   4.599   0.036  0.7486  0.0000 -0.4393
14958SOL    HW247317   0.500   4.622   0.133  0.4562 -1.5049  0.2946
14959SOL     OW47318   2.214   1.152   9.302  0.0524  0.3395 -0.5226
14959SOL    HW147319   2.290   1.095   9.304  0.9250  1.4593 -0.6287
14959SOL    HW247320   2.220   1.197   9.218  0.2772  1.7091  0.1833
14960SOL     OW47321   8.338   9.448   4.200 -0.0260  0.3501  0.2818
14960SOL    HW147322   8.306   9.452   4.290  0.1175  3.0818  0.2709
14960SOL    HW247323   8.259   9.446   4.146 -0.2572  3.3512  0.3796
14961SOL     OW47324   6.297   2.032   1.735  0.4145 -0.0002  0.0533
14961SOL    HW147325   6.260   1.944   1.727  0.5567 -0.1001  0.4830
14961SOL    HW247326   6.386   2.023   1.700  0.1081  0.1991 -0.8110
14962SOL     OW47327   9.640   7.309   6.200  0.0804 -1.0276  1.0567
14962SOL    HW147328   9.721   7.316   6.250 -0.8435 -1.0715  2.6323
14962SOL    HW247329   9.608   7.399   6.193  0.1195 -1.0405  0.6672
14963SOL     OW47330   9.113   7.871   2.972 -0.2822  0.4256 -0.2986
14963SOL    HW147331   9.062   7.863   2.892  0.2254  2.0754 -0.8411
14963SOL    HW247332   9.097   7.790   3.020 -0.9491 -0.3988 -1.8597
14964SOL     OW47333  10.101   1.439   4.169 -0.6517  0.6785 -0.0332
14964SOL    HW147334  10.132   1.357   4.209 -1.1980  1.2039  1.5481
14964SOL    HW247335  10.077   1.414   4.080  0.6336 -0.5469 -0.0830
14965SOL     OW47336   9.669  10.139   5.874  0.0799 -0.2313 -0.0419
14965SOL    HW147337   9.730  10.111   5.805 -1.1977  1.6281 -2.0393
14965SOL    HW247338   9.646  10.229   5.852 -3.3596 -0.7943  0.6099
14966SOL     OW47339   0.808   8.328   5.404  0.3268 -0.0691 -0.3706
14966SOL    HW147340   0.839   8.261   5.344  0.8771  0.9779 -1.3009
14966SOL    HW247341   0.714   8.312   5.412  0.3024 -0.4303 -1.2636
14967SOL     OW47342   8.360   5.689   9.739  0.1832 -0.2587  0.3559
14967SOL    HW147343   8.393   5.775   9.712 -0.6019 -0.3665 -1.0293
14967SOL    HW247344   8.374   5.687   9.834  1.0477  1.0258  0.2784
14968SOL     OW47345   3.055   6.427   9.549  0.1060  0.1036  0.2302
14968SOL    HW147346   3.145   6.425   9.582 -0.9887 -2.0368  3.6903
14968SOL    HW247347   3.063   6.421   9.454  3.5827  0.8636  0.3668
14969SOL     OW47348   1.884   1.674   7.479 -0.4620 -0.1349  0.2732
14969SOL    HW147349   1.809   1.687   7.537 -1.7529 -2.2754 -0.7797
14969SOL    HW247350   1.959   1.665   7.537 -0.7191  3.0593  1.3426
14970SOL     OW47351   2.044   8.350   7.329 -0.4726  0.6669 -0.0008
14970SOL    HW147352   2.027   8.256   7.340 -0.1937  0.7287  1.2029
14970SOL    HW247353   1.967   8.384   7.286 -0.4068 -0.1839 -0.8194
14971SOL     OW47354   1.038   1.803   4.216  0.2526  0.1392  0.0230
14971SOL    HW147355   1.060   1.778   4.127 -0.8286  0.9576 -0.5073
14971SOL    HW247356   1.022   1.720   4.262  0.8440 -0.2849 -0.5275
14972SOL     OW47357   2.684  10.052   7.761  0.6881 -0.0297 -0.2732
14972SOL    HW147358   2.773  10.023   7.739  0.2674 -0.9964 -0.7525
14972SOL    HW247359   2.640  10.062   7.677  0.6362  1.4990 -0.0949
14973SOL     OW47360   7.434   2.421   7.420  0.5850 -0.6319  0.1543
14973SOL    HW147361   7.452   2.328   7.427  0.5174 -0.6413  0.2029
14973SOL    HW247362   7.499   2.463   7.477 -0.6353 -0.7761  1.7121
14974SOL     OW47363  10.023   5.716   9.107  0.1246  0.4496 -0.5303
14974SOL    HW147364  10.070   5.736   9.026 -0.1068 -2.4069 -1.4815
14974SOL    HW247365   9.938   5.757   9.097 -0.1850 -0.5118 -2.1207
14975SOL     OW47366   8.219   0.043   8.096 -0.0271  0.3566  0.3818
14975SOL    HW147367   8.293  -0.011   8.069 -1.2327 -1.7041  0.9687
14975SOL    HW247368   8.245   0.081   8.180  1.4395  2.0300 -0.7618
14976SOL     OW47369   2.918   0.493  10.222  0.7549 -0.1228  0.3546
14976SOL    HW147370   2.879   0.497  10.309  0.0932 -0.9321  0.1093
14976SOL    HW247371   2.859   0.545  10.167  0.0876 -1.2239  0.0117
14977SOL     OW47372   1.226   3.660   2.103 -0.1331 -0.3313  0.2321
14977SOL    HW147373   1.283   3.583   2.110 -0.5997 -0.8696 -1.4815
14977SOL    HW247374   1.272   3.728   2.153  0.6789 -1.4953  1.1142
14978SOL     OW47375   4.080   2.752   5.985 -0.2202  0.0790 -0.1981
14978SOL    HW147376   4.108   2.758   6.076  0.7063  1.3252 -0.5325
14978SOL    HW247377   3.986   2.771   5.987 -0.1993  0.1179  0.4902
14979SOL     OW47378  10.416   6.431   9.160 -0.2167 -0.8158  0.5553
14979SOL    HW147379  10.343   6.378   9.126 -1.3704  0.2884  1.2285
14979SOL    HW247380  10.494   6.380   9.138 -1.1696 -1.9888 -0.2895
14980SOL     OW47381   6.202   2.972   1.616  0.3642  0.0723  0.1312
14980SOL    HW147382   6.217   2.940   1.705  1.0831  1.4375  0.5317
14980SOL    HW247383   6.129   2.920   1.584  1.3472 -1.8229  0.7826
14981SOL     OW47384   4.544   0.610   7.829 -0.3219 -0.2735  0.0634
14981SOL    HW147385   4.473   0.674   7.822  0.6020  0.9546  1.3032
14981SOL    HW247386   4.531   0.570   7.915  0.0364 -0.6169 -0.0396
14982SOL     OW47387   4.665   4.058   7.740  0.1528 -0.6163  0.3977
14982SOL    HW147388   4.726   3.989   7.715  0.4573 -0.4707  0.7242
14982SOL    HW247389   4.639   4.099   7.657  2.0878  0.6525  0.3471
14983SOL     OW47390   0.829   7.022   6.047 -0.0840  0.1533  0.0493
14983SOL    HW147391   0.867   7.021   5.959  0.1588  0.5755  0.1428
14983SOL    HW247392   0.815   6.930   6.069  2.6092 -0.1892  0.7301
14984SOL     OW47393   3.775   2.801   5.927  0.4218  0.1238 -0.5905
14984SOL    HW147394   3.751   2.891   5.948 -0.7185 -0.2183 -0.3531
14984SOL    HW247395   3.734   2.784   5.842 -2.2340 -1.1860  0.8289
14985SOL     OW47396   6.180   8.508   5.853 -0.4081 -0.3135 -0.3240
14985SOL    HW147397   6.250   8.574   5.855 -0.2697 -0.4645 -0.0866
14985SOL    HW247398   6.166   8.486   5.945 -0.2431 -0.8318 -0.4175
14986SOL     OW47399   3.983   0.372   5.970 -0.4213 -0.0239 -0.0172
14986SOL    HW147400   3.950   0.290   6.007 -0.6933  1.3345  3.0135
14986SOL    HW247401   3.904   0.419   5.944 -0.4387  0.2950  0.5982
14987SOL     OW47402   7.598   2.399   0.788 -0.3567  0.4548 -0.5322
14987SOL    HW147403   7.685   2.433   0.768  1.5826 -3.0726  0.9492
14987SOL    HW247404   7.571   2.352   0.709 -0.5558  0.7919 -0.6707
14988SOL     OW47405   6.928   7.551   8.124  0.2174  0.0709  0.2792
14988SOL    HW147406   6.833   7.541   8.125 -0.0030  1.6639 -0.6783
14988SOL    HW247407   6.951   7.575   8.214 -0.3443  0.1259  0.4108
14989SOL     OW47408   4.101   6.082   3.030  0.3748 -0.0251  0.5861
14989SOL    HW147409   4.123   6.150   3.093  1.2776 -0.7250  1.0458
14989SOL    HW247410   4.128   6.118   2.946  0.3197  0.4043  0.7456
14990SOL     OW47411   2.144   8.427   7.593 -0.2994 -0.4991  0.3949
14990SOL    HW147412   2.140   8.392   7.504  0.7869  1.0216 -0.3087
14990SOL    HW247413   2.053   8.440   7.618 -0.6189  1.3667 -1.4994
14991SOL     OW47414   2.631   9.152   4.817 -0.5306 -0.3226  0.0376
14991SOL    HW147415   2.667   9.103   4.743 -0.1768 -0.2723  0.1739
14991SOL    HW247416   2.680   9.234   4.817  0.7352 -1.0227  1.3810
14992SOL     OW47417   2.921   5.142   6.284 -0.0669 -0.6899  0.3423
14992SOL    HW147418   2.999   5.099   6.250  0.6623  0.4563  0.5125
14992SOL    HW247419   2.864   5.152   6.208  0.9440  0.5641 -0.2881
14993SOL     OW47420   8.676   7.606   1.944 -0.7205  0.0679  0.1964
14993SOL    HW147421   8.640   7.559   1.869 -1.0579 -0.6081  0.7744
14993SOL    HW247422   8.677   7.542   2.015 -0.9234  0.8469  0.9257
14994SOL     OW47423   8.124   6.472   3.039  0.2219  0.4004  0.3067
14994SOL    HW147424   8.171   6.529   3.099  0.5562  0.2388  0.2010
14994SOL    HW247425   8.121   6.521   2.957  0.1629  0.4320  0.3279
14995SOL     OW47426   6.118   5.337   5.233  0.3414  0.1319 -0.1722
14995SOL    HW147427   6.039   5.321   5.284  1.0767 -0.5797  0.7673
14995SOL    HW247428   6.178   5.267   5.258  1.0736  0.3314 -1.2958
14996SOL     OW47429   9.693   5.800   1.618 -0.0189 -0.5077 -0.4473
14996SOL    HW147430   9.673   5.771   1.529 -2.1660  0.8351 -0.4605
14996SOL    HW247431   9.642   5.741   1.675 -0.1654 -0.1683 -0.2202
14997SOL     OW47432   1.779   2.113   2.946  0.1850  0.7755  0.1030
14997SOL    HW147433   1.828   2.172   2.889  0.8271  1.4085  1.2794
14997SOL    HW247434   1.712   2.075   2.888  0.6150  1.6121 -0.9968
14998SOL     OW47435   7.395   7.758   7.618 -0.3746 -0.1152  0.1196
14998SOL    HW147436   7.325   7.818   7.590 -0.9052 -1.4499 -1.6104
14998SOL    HW247437   7.376   7.742   7.711 -1.7118  0.4438 -0.0228
14999SOL     OW47438   4.763   8.098   9.030 -0.3943 -0.0992 -0.1133
14999SOL    HW147439   4.826   8.120   8.961 -0.9129  0.0228 -0.5519
14999SOL    HW247440   4.755   8.178   9.082 -0.1457 -0.1329 -0.0201
15000SOL     OW47441   4.242   2.782  10.068 -0.4948  0.7441  0.2135
15000SOL    HW147442   4.153   2.759  10.042 -0.1226  0.1654 -0.6077
15000SOL    HW247443   4.298   2.742  10.000  0.6828 -2.6213  2.8807
15001SOL     OW47444   3.295   8.965   1.096 -0.4977  0.8722 -0.1666
15001SOL    HW147445   3.234   8.922   1.037 -0.9584  2.1299 -0.6306
15001SOL    HW247446   3.291   8.913   1.177 -0.9634  0.0138 -0.7307
15002SOL     OW47447   2.355  10.029   1.594 -0.8801  0.2431  0.1969
15002SOL    HW147448   2.435   9.981   1.613 -2.0653 -0.9426  2.6381
15002SOL    HW247449   2.383  10.120   1.583  0.7689 -0.1070  1.2064
15003SOL     OW47450   0.604   5.959   4.318 -0.0638 -0.7516 -0.4424
15003SOL    HW147451   0.588   5.865   4.304 -0.2924 -1.2673  2.6428
15003SOL    HW247452   0.700   5.966   4.323 -0.0781 -0.9621  0.1385
15004SOL     OW47453   6.641   9.969   2.062  0.4825 -0.2668 -0.2129
15004SOL    HW147454   6.728   9.995   2.093  0.4599  0.3413 -0.6482
15004SOL    HW247455   6.593   9.948   2.142  0.7648  0.2281  0.0944
15005SOL     OW47456   5.490   2.080   5.277 -0.1114  0.0834  0.2790
15005SOL    HW147457   5.445   2.147   5.225  1.0948 -0.0267 -0.9943
15005SOL    HW247458   5.487   2.002   5.222  0.3262 -0.3149  0.8211
15006SOL     OW47459   9.510   9.289   3.253 -0.0331 -0.2439 -0.0388
15006SOL    HW147460   9.470   9.301   3.339  0.3666 -2.5197  0.5428
15006SOL    HW247461   9.603   9.272   3.272  0.2825  0.3325 -1.0032
15007SOL     OW47462   0.880   5.338   3.856  0.3258 -0.0623 -0.5376
15007SOL    HW147463   0.821   5.396   3.808 -0.5777 -0.0495  0.5395
15007SOL    HW247464   0.922   5.284   3.789  0.4913  1.2048 -1.4783
15008SOL     OW47465   6.505   6.390   0.191  0.3157 -0.1839 -0.4457
15008SOL    HW147466   6.486   6.469   0.142  1.9549  0.8324  0.4463
15008SOL    HW247467   6.477   6.409   0.281  0.6719 -0.6289 -0.2323
15009SOL     OW47468   4.806   9.916   0.828  0.0582  0.2228  0.1546
15009SOL    HW147469   4.893   9.917   0.869 -0.2126 -0.2416  0.7728
15009SOL    HW247470   4.763   9.995   0.861 -0.7119 -0.9161  2.0794
15010SOL     OW47471   2.021   9.997   9.151 -0.3433 -0.1069 -0.2151
15010SOL    HW147472   2.064   9.937   9.212 -0.8523 -1.0500 -0.7547
15010SOL    HW247473   2.030  10.083   9.192  0.8676 -0.4638  0.3229
15011SOL     OW47474   1.132   1.010   4.368  0.3293 -0.1472  0.1853
15011SOL    HW147475   1.100   0.926   4.399  0.5637 -0.1871  0.3145
15011SOL    HW247476   1.156   1.058   4.447 -1.5962  0.7756  0.2622
15012SOL     OW47477   6.402   1.534   1.231 -0.5106  0.0267  0.1727
15012SOL    HW147478   6.326   1.591   1.239  1.0796  2.7372 -2.1821
15012SOL    HW247479   6.390   1.491   1.147  0.4641  0.3828 -0.1593
15013SOL     OW47480   1.154   9.757   8.890  0.5902 -0.2276  0.0341
15013SOL    HW147481   1.237   9.750   8.936 -0.0111 -1.4880  0.9916
15013SOL    HW247482   1.162   9.697   8.816  0.2220 -1.0491  0.6473
15014SOL     OW47483   6.262   2.908   4.370  0.3822  0.2812  0.0318
15014SOL    HW147484   6.188   2.921   4.311  1.8498  4.7285 -1.2561
15014SOL    HW247485   6.338   2.902   4.311  1.4227 -0.1821  1.3710
15015SOL     OW47486   4.573  10.385   2.068 -0.3459  0.4547 -0.3461
15015SOL    HW147487   4.554  10.345   2.153 -0.6792  0.2057 -0.5330
15015SOL    HW247488   4.668  10.393   2.065 -0.4018  1.6819  0.5946
15016SOL     OW47489   3.744   8.483   3.830  0.3083  0.1194 -0.1206
15016SOL    HW147490   3.696   8.510   3.752  0.6396 -2.3703 -1.2850
15016SOL    HW247491   3.835   8.474   3.801  0.6517  0.2863  0.8482
15017SOL     OW47492   7.860   3.008   8.524 -0.1439 -0.5063  0.1146
15017SOL    HW147493   7.831   3.038   8.438  0.2300 -1.2494 -0.2845
15017SOL    HW247494   7.786   3.026   8.582 -0.7547 -0.8298 -0.5463
15018SOL     OW47495   5.302   6.637   7.820  0.2846  0.2551  0.8545
15018SOL    HW147496   5.367   6.605   7.758 -0.6844 -0.8621  0.3771
15018SOL    HW247497   5.353   6.669   7.894  1.4033  0.3776  0.0525
15019SOL     OW47498   3.094   9.871   3.437 -0.3485 -0.3372 -0.0219
15019SOL    HW147499   3.068   9.808   3.371  1.1270 -0.1129 -0.8574
15019SOL    HW247500   3.158   9.927   3.394  0.7446 -0.2449  1.5988
15020SOL     OW47501   3.588   2.509   4.256  0.3629 -0.1528 -0.0644
15020SOL    HW147502   3.571   2.528   4.164  0.1642  0.3566  0.0734
15020SOL    HW247503   3.641   2.429   4.255 -1.6205 -1.5572 -0.5437
15021SOL     OW47504   2.915   2.771   8.275 -0.3513  0.7291 -0.1605
15021SOL    HW147505   2.992   2.825   8.293 -1.0594  1.8912 -0.4419
15021SOL    HW247506   2.846   2.811   8.328 -1.0842  0.5920 -0.9965
15022SOL     OW47507   4.935   3.989   9.270  0.3866 -0.2224  0.2353
15022SOL    HW147508   4.976   3.931   9.206  0.3394 -1.6404  1.4473
15022SOL    HW247509   4.977   4.074   9.256 -0.1756 -0.2746 -2.1851
15023SOL     OW47510   8.281   9.084   5.363  0.0798  0.5531 -0.0894
15023SOL    HW147511   8.270   9.063   5.455  0.2770  0.0741 -0.1698
15023SOL    HW247512   8.362   9.039   5.338 -0.1107  0.4641 -0.5559
15024SOL     OW47513   6.902   4.672   2.871  0.8213 -0.0276  0.2195
15024SOL    HW147514   6.966   4.733   2.909  0.0835  0.1027  1.2750
15024SOL    HW247515   6.891   4.703   2.781  2.7278 -0.4529 -0.2047
15025SOL     OW47516   8.429  10.267   0.656  0.1039 -0.2867 -0.0382
15025SOL    HW147517   8.372  10.202   0.613 -0.8810  0.1290  0.6100
15025SOL    HW247518   8.396  10.273   0.745  2.5300 -1.6061  1.0359
15026SOL     OW47519   8.830   5.259   7.131 -0.3617  0.1872 -0.4915
15026SOL    HW147520   8.765   5.267   7.201 -0.1422  0.3068 -0.3039
15026SOL    HW247521   8.785   5.293   7.054 -0.5080  0.3164 -0.3513
15027SOL     OW47522   7.471   3.944   1.157  0.0894 -0.7161 -0.2531
15027SOL    HW147523   7.526   4.000   1.101 -2.5597  0.9336 -1.4162
15027SOL    HW247524   7.463   3.993   1.239  0.0353 -0.7539 -0.2355
15028SOL     OW47525   0.652   7.209   1.884 -0.1166  0.0351  0.9524
15028SOL    HW147526   0.574   7.192   1.831  0.4290  0.0799  0.1040
15028SOL    HW247527   0.644   7.301   1.911 -0.9928 -0.3250  1.9858
15029SOL     OW47528   4.713   4.619   9.666 -0.0179 -0.0922  0.2887
15029SOL    HW147529   4.664   4.623   9.748 -0.6511 -1.8050  0.0394
15029SOL    HW247530   4.716   4.526   9.644  0.7807  0.2566 -1.2522
15030SOL     OW47531   4.930   2.804   3.640 -0.6969 -0.1845 -0.2991
15030SOL    HW147532   4.951   2.744   3.712 -1.0757 -0.1323 -0.1460
15030SOL    HW247533   4.999   2.870   3.643 -1.0473  0.1516  0.3930
15031SOL     OW47534   9.294   9.201   7.762  0.5463  0.6747  0.1071
15031SOL    HW147535   9.367   9.169   7.709  0.2003 -1.0683  0.6324
15031SOL    HW247536   9.262   9.278   7.714  1.2686  0.1107 -1.3437
15032SOL     OW47537   7.775   1.238   1.373  0.2858  0.0793 -0.1381
15032SOL    HW147538   7.689   1.279   1.371  0.3219  0.1743  0.2087
15032SOL    HW247539   7.778   1.193   1.458 -0.0495 -1.2648 -0.8152
15033SOL     OW47540   8.644   2.092   4.166  0.0583  0.1613 -0.1431
15033SOL    HW147541   8.552   2.086   4.188  0.0108 -1.4840 -0.6540
15033SOL    HW247542   8.646   2.093   4.070  0.6397 -3.6729 -0.3210
15034SOL     OW47543   2.831   7.179   1.805 -0.1366  0.0624 -0.0955
15034SOL    HW147544   2.794   7.184   1.893 -3.6151  1.8328 -1.4630
15034SOL    HW247545   2.762   7.139   1.752  2.1989 -1.7973 -1.9565
15035SOL     OW47546   7.396   7.584   2.042  0.7768  0.1746  0.0617
15035SOL    HW147547   7.385   7.643   2.116 -0.4717  1.5959 -1.1754
15035SOL    HW247548   7.364   7.499   2.073  2.0745  0.2445  1.6998
15036SOL     OW47549   3.204   2.148   1.568 -0.2580 -0.0512  0.3368
15036SOL    HW147550   3.117   2.141   1.528  0.4555  0.0770 -1.3305
15036SOL    HW247551   3.197   2.222   1.628 -1.6153 -0.7837  1.1311
15037SOL     OW47552   9.019   0.698   3.294  0.1942  0.5413  0.2470
15037SOL    HW147553   9.050   0.617   3.254 -1.7753 -0.8330  1.3687
15037SOL    HW247554   9.100   0.747   3.314  1.3916 -0.8179 -1.0390
15038SOL     OW47555   9.161   0.765   9.806 -0.2181  0.2176 -0.2920
15038SOL    HW147556   9.130   0.777   9.716  0.8478  1.3891 -0.5151
15038SOL    HW247557   9.161   0.853   9.844  0.1115 -0.1614  0.6138
15039SOL     OW47558   7.016   0.502   2.727  0.1836  0.3903 -0.0032
15039SOL    HW147559   6.946   0.461   2.778  1.3570 -0.8913  0.6424
15039SOL    HW247560   7.012   0.595   2.751 -2.3242  0.6903 -1.2467
15040SOL     OW47561   4.437   9.690   5.679 -0.3925 -0.0123  0.0122
15040SOL    HW147562   4.363   9.710   5.622 -1.1308 -1.6908  0.3363
15040SOL    HW247563   4.406   9.713   5.767 -0.1455  0.2459  0.0337
15041SOL     OW47564  10.145  10.092   7.582  0.1834 -0.0132 -0.4628
15041SOL    HW147565  10.238  10.081   7.565  0.0135 -2.0663 -0.3603
15041SOL    HW247566  10.102  10.032   7.521 -1.0709  0.7053 -0.3304
15042SOL     OW47567   9.377   5.143   1.327  0.1936  0.0517  0.1933
15042SOL    HW147568   9.411   5.139   1.416 -1.2177  0.4553  0.7780
15042SOL    HW247569   9.284   5.119   1.336  0.0825 -0.1222 -1.2002
15043SOL     OW47570   4.633   8.167   1.461  0.5216 -0.3637 -0.0339
15043SOL    HW147571   4.657   8.152   1.552 -0.0981  2.6571  0.7319
15043SOL    HW247572   4.695   8.113   1.411  2.2760 -0.4826  2.1026
15044SOL     OW47573   2.235   0.429   2.654 -0.3433 -0.0395  0.5967
15044SOL    HW147574   2.259   0.512   2.614 -0.3838 -0.4772 -0.3569
15044SOL    HW247575   2.306   0.410   2.715  0.8850 -0.4409 -0.8990
15045SOL     OW47576   5.063   5.041   9.634  0.4622 -0.0412 -0.2951
15045SOL    HW147577   5.075   4.952   9.667  0.6133 -0.3166 -1.0802
15045SOL    HW247578   5.124   5.094   9.685  1.2898 -0.5924 -0.6982
15046SOL     OW47579   6.670   4.690   0.091  0.0406 -0.0158  0.1776
15046SOL    HW147580   6.758   4.727   0.094 -0.3021  0.8381  0.0328
15046SOL    HW247581   6.629   4.731   0.015 -0.4286 -0.5474  0.1340
15047SOL     OW47582   3.531   1.157   3.606 -0.4575  0.3670 -0.0602
15047SOL    HW147583   3.460   1.154   3.543 -1.1281  0.1493  0.6933
15047SOL    HW247584   3.490   1.137   3.690  0.5973 -0.3763  0.3008
15048SOL     OW47585   7.316   4.620   7.488 -0.1226 -0.0086 -0.7568
15048SOL    HW147586   7.363   4.701   7.467  1.1081 -0.8831 -1.5124
15048SOL    HW247587   7.310   4.620   7.583 -0.1396  0.9574 -0.7446
15049SOL     OW47588   2.331   4.863   6.170  0.1250 -0.5444 -0.5899
15049SOL    HW147589   2.249   4.912   6.180  0.4888  0.4191 -1.9878
15049SOL    HW247590   2.397   4.918   6.213  0.3396 -0.3547 -1.1475
15050SOL     OW47591   2.725   1.355  10.338  0.1878 -0.1501  0.3264
15050SOL    HW147592   2.798   1.417  10.329 -0.0186  0.0953  0.3335
15050SOL    HW247593   2.739   1.316  10.425  1.0743 -1.1035 -0.2151
15051SOL     OW47594   9.241   6.442   3.773  0.5170 -0.2543  0.7892
15051SOL    HW147595   9.329   6.403   3.771  0.6594  0.0384  1.2614
15051SOL    HW247596   9.198   6.401   3.847 -0.0499 -1.0257  0.0494
15052SOL     OW47597   2.590   3.079   9.178  0.1153  0.4831  0.0991
15052SOL    HW147598   2.647   3.156   9.171  2.0172 -0.8954 -0.1532
15052SOL    HW247599   2.644   3.012   9.219 -1.6596 -0.6170  0.7852
15053SOL     OW47600   2.531   0.060   6.639  0.4251  0.4109 -0.2469
15053SOL    HW147601   2.553   0.027   6.726 -0.9019 -0.0802 -0.0671
15053SOL    HW247602   2.438   0.083   6.645  0.4304  0.7977 -1.4086
15054SOL     OW47603   3.343   3.537   2.710 -0.6264  0.5145 -0.0370
15054SOL    HW147604   3.298   3.497   2.635  0.3398  0.7195 -0.7425
15054SOL    HW247605   3.335   3.472   2.780  0.8619 -0.9547 -1.1442
15055SOL     OW47606   0.109   1.865   9.076 -0.0113 -0.3581  0.1543
15055SOL    HW147607   0.167   1.846   9.150  0.2398 -2.0913 -0.4459
15055SOL    HW247608   0.028   1.818   9.096 -0.7078  0.8408  0.2751
15056SOL     OW47609   6.216   1.195   9.027 -0.1678  0.2989 -0.2775
15056SOL    HW147610   6.227   1.110   9.069 -0.0261  0.4613  0.0156
15056SOL    HW247611   6.259   1.185   8.942  0.2285  0.2081 -0.0712
15057SOL     OW47612   0.542   5.904   3.525 -0.2940 -0.4489 -0.3207
15057SOL    HW147613   0.517   5.929   3.614  0.0425 -3.0763  0.5895
15057SOL    HW247614   0.636   5.918   3.520 -0.3088 -0.3316 -0.2680
15058SOL     OW47615  10.129   2.431   8.177  0.0325 -0.3798 -0.3012
15058SOL    HW147616  10.175   2.513   8.193  2.1109 -1.9632  2.9941
15058SOL    HW247617  10.192   2.377   8.130  0.3475 -1.3978  1.2026
15059SOL     OW47618   2.321   5.981   5.000  0.4170 -0.0087  0.1118
15059SOL    HW147619   2.346   5.981   4.908 -2.3911  1.4978 -0.7674
15059SOL    HW247620   2.310   5.888   5.022  1.3171 -0.3983 -0.9799
15060SOL     OW47621   9.036   9.502   9.623  0.2114 -0.5283 -0.1238
15060SOL    HW147622   9.059   9.593   9.608 -2.2288 -0.0856 -1.7166
15060SOL    HW247623   9.013   9.497   9.715  0.0334  0.5460 -0.1066
15061SOL     OW47624   7.730   5.783   5.127 -0.0041 -0.0138 -0.2922
15061SOL    HW147625   7.765   5.798   5.040  1.6349 -1.2546  0.1001
15061SOL    HW247626   7.649   5.735   5.112 -1.3156  2.3297 -1.1987
15062SOL     OW47627   5.761   0.026   5.424 -0.1974 -0.6989 -0.9600
15062SOL    HW147628   5.800   0.098   5.376 -1.7122  0.8311  0.0087
15062SOL    HW247629   5.666   0.040   5.416 -0.5332 -2.5591 -0.7081
15063SOL     OW47630   6.393   9.042   3.579  0.3692 -0.0128 -0.4770
15063SOL    HW147631   6.335   8.978   3.622  0.1532  0.6823  0.3011
15063SOL    HW247632   6.480   9.002   3.582  0.0556 -0.7403 -0.9812
15064SOL     OW47633   7.599   8.034   5.699  1.3836 -0.0022 -0.0947
15064SOL    HW147634   7.594   8.026   5.795  1.5080  0.6240 -0.0337
15064SOL    HW247635   7.508   8.050   5.672  1.2482 -0.8128 -0.1478
15065SOL     OW47636   9.814   2.299   9.732 -0.3725  0.1780 -0.2203
15065SOL    HW147637   9.801   2.394   9.730 -3.2641  0.1128  3.8917
15065SOL    HW247638   9.743   2.264   9.677 -1.8132  0.4154  1.4085
15066SOL     OW47639   7.849   1.847   7.514 -0.0219  0.3358  0.0848
15066SOL    HW147640   7.756   1.825   7.507  0.0700 -0.1761  0.4039
15066SOL    HW247641   7.893   1.763   7.527  0.4501  0.6136  0.3266
15067SOL     OW47642   3.938   7.196   1.285 -0.4505 -0.0232 -0.3669
15067SOL    HW147643   4.012   7.137   1.271 -0.5145 -0.4872  1.0574
15067SOL    HW247644   3.911   7.179   1.375 -0.0851  2.6044  0.3307
15068SOL     OW47645   4.157   6.230   6.781  0.1657  0.2834  0.0941
15068SOL    HW147646   4.193   6.291   6.717 -1.3016  2.6051  1.3599
15068SOL    HW247647   4.088   6.280   6.826 -2.1793 -2.7435  0.2165
15069SOL     OW47648   1.653   3.071   6.865  0.2166 -0.4311  0.2232
15069SOL    HW147649   1.692   3.110   6.943 -1.7800  0.0954  1.0368
15069SOL    HW247650   1.648   3.143   6.802 -1.9263  0.3329  1.1377
15070SOL     OW47651   7.324   2.100   8.929 -0.3687  0.1592 -0.3026
15070SOL    HW147652   7.297   2.126   8.841 -1.5012  0.5913  0.1465
15070SOL    HW247653   7.412   2.064   8.918 -0.6817 -0.2354 -1.6737
15071SOL     OW47654   3.646   2.962   5.472  0.0201  0.3515 -0.3531
15071SOL    HW147655   3.734   2.972   5.435  0.2084 -0.6346 -0.1956
15071SOL    HW247656   3.593   2.926   5.401 -0.0647  0.1992 -0.2132
15072SOL     OW47657   6.635   0.614   5.381  0.2666 -0.3146 -0.1629
15072SOL    HW147658   6.675   0.632   5.466  1.1559 -2.4705 -0.0618
15072SOL    HW247659   6.590   0.696   5.358  0.3017  0.4537  2.1859
15073SOL     OW47660   2.450  10.301   3.460  0.3954 -0.2282 -0.5773
15073SOL    HW147661   2.401  10.308   3.542 -0.0563  0.0072 -0.8622
15073SOL    HW247662   2.410  10.226   3.415  1.4367 -1.1152 -0.0585
15074SOL     OW47663   3.559   4.681   8.745  0.0951 -0.1991 -0.4699
15074SOL    HW147664   3.579   4.687   8.838  0.2839  0.1464 -0.5266
15074SOL    HW247665   3.625   4.737   8.703  0.4754 -0.9293 -0.8768
15075SOL     OW47666   7.854   6.403   1.507  0.5241  0.0387 -0.4715
15075SOL    HW147667   7.772   6.452   1.516 -0.6826 -1.4801 -2.4270
15075SOL    HW247668   7.826   6.311   1.498  2.4102 -0.4863 -1.4391
15076SOL     OW47669   8.621   4.051   2.791 -0.2513  0.0427  0.2262
15076SOL    HW147670   8.641   4.008   2.874 -1.8090  0.3437  0.7792
15076SOL    HW247671   8.537   4.094   2.805  1.0115  3.0044 -0.4158
15077SOL     OW47672   3.206   9.532   9.780  0.5304 -0.4532  0.0224
15077SOL    HW147673   3.114   9.539   9.808  0.8247  1.6756  0.6308
15077SOL    HW247674   3.256   9.565   9.854  1.5824  1.3512 -1.4065
15078SOL     OW47675   6.047   3.332   3.203 -0.4991 -0.2929  0.0362
15078SOL    HW147676   6.006   3.288   3.278  0.1910  0.3138  0.7868
15078SOL    HW247677   6.132   3.360   3.235  0.1086 -0.6532 -1.2117
15079SOL     OW47678   4.057   1.355   1.442  0.4301  0.1682  0.4947
15079SOL    HW147679   4.017   1.269   1.429  0.2204 -0.5259  4.4458
15079SOL    HW247680   3.999   1.400   1.503  1.5802  2.3911  0.0806
15080SOL     OW47681   9.580   3.470   5.016  0.2706 -0.2350  0.1692
15080SOL    HW147682   9.662   3.423   4.999  0.7059  0.8146 -0.7773
15080SOL    HW247683   9.608   3.552   5.057 -0.2965  0.2076 -0.3192
15081SOL     OW47684   9.106   6.442   5.815 -0.2247  0.3255 -0.0054
15081SOL    HW147685   9.191   6.430   5.858 -0.1722  0.3842 -0.0919
15081SOL    HW247686   9.094   6.362   5.763 -0.2073  0.3314 -0.0190
15082SOL     OW47687   8.330   8.938   7.997 -0.7436 -0.7614  0.7354
15082SOL    HW147688   8.247   8.923   7.951  1.0558 -2.8513 -2.1303
15082SOL    HW247689   8.349   9.031   7.982 -2.3089 -0.3421  1.1295
15083SOL     OW47690   7.801   9.346   8.951 -0.4950  0.3343 -0.2309
15083SOL    HW147691   7.856   9.347   9.030 -2.0339 -1.6035  0.9731
15083SOL    HW247692   7.753   9.428   8.955 -0.8557  0.0846  1.1176
15084SOL     OW47693   4.519   6.409   6.600  0.2132  0.4572  0.2251
15084SOL    HW147694   4.489   6.417   6.691 -0.8626 -1.4184  0.1060
15084SOL    HW247695   4.512   6.315   6.581  0.4252  0.7978 -1.7973
15085SOL     OW47696   7.605   2.079   8.608 -0.6170 -0.6080  0.8303
15085SOL    HW147697   7.518   2.117   8.622 -0.1276  0.4757  1.0254
15085SOL    HW247698   7.621   2.027   8.687 -1.5616 -1.7869  0.2766
15086SOL     OW47699   8.828   0.958   8.715 -0.1565  0.2676  0.0849
15086SOL    HW147700   8.765   0.987   8.781  0.8384  0.6256  0.9189
15086SOL    HW247701   8.814   1.017   8.641  0.0013  1.1603  0.7318
15087SOL     OW47702   2.912  10.114   2.286  0.2221  0.0982  0.2466
15087SOL    HW147703   2.977  10.060   2.242 -1.9058 -0.6358 -2.2494
15087SOL    HW247704   2.902  10.191   2.230  0.3371  1.1691  1.6472
15088SOL     OW47705   9.755   0.347   6.845 -1.0492 -0.1300  0.0757
15088SOL    HW147706   9.737   0.261   6.809 -3.7026  0.7758 -0.9634
15088SOL    HW247707   9.851   0.352   6.850 -0.8231 -3.4847  1.1947
15089SOL     OW47708   5.940   0.052   4.417  0.5385  0.3457 -0.3113
15089SOL    HW147709   5.894  -0.024   4.380 -2.0968  1.2503  0.8333
15089SOL    HW247710   5.989   0.089   4.343  0.1714 -1.2589 -1.3948
15090SOL     OW47711   4.053   8.593   1.060 -0.2052 -0.3551 -0.9180
15090SOL    HW147712   3.971   8.632   1.028  0.3588  0.4541 -1.4362
15090SOL    HW247713   4.053   8.610   1.154  0.3235  1.5443 -1.2183
15091SOL     OW47714   4.562   6.264   0.548  0.4238 -0.3928  0.6904
15091SOL    HW147715   4.518   6.314   0.617 -0.2119 -1.2603  0.9261
15091SOL    HW247716   4.615   6.200   0.595  0.0235 -0.9606  0.3752
15092SOL     OW47717   5.159   4.703   9.854  0.6731 -0.4131  0.4151
15092SOL    HW147718   5.228   4.734   9.797 -0.1118  0.4145 -0.1167
15092SOL    HW247719   5.172   4.752   9.936 -0.7287  1.6581 -0.5106
15093SOL     OW47720   2.080   1.155   1.220  0.2912  0.2638 -0.3491
15093SOL    HW147721   2.124   1.229   1.178 -2.7055  1.8245 -0.9984
15093SOL    HW247722   2.032   1.112   1.149 -2.2984  1.0246  0.8304
15094SOL     OW47723  10.098   2.530   4.864 -0.0112 -0.4618 -0.3811
15094SOL    HW147724  10.188   2.528   4.833 -0.1618 -0.1007 -0.8545
15094SOL    HW247725  10.062   2.445   4.839  0.3892 -0.8622  0.3979
15095SOL     OW47726   5.317   7.970   7.764  0.2118  0.3642  0.1658
15095SOL    HW147727   5.251   8.025   7.807  0.5936  1.5308 -0.6656
15095SOL    HW247728   5.278   7.883   7.761 -0.6789  0.7201  0.9853
15096SOL     OW47729   0.973   4.630  10.340  0.1600  0.0563 -0.3459
15096SOL    HW147730   0.888   4.671  10.326  0.6929  0.6758 -1.9224
15096SOL    HW247731   1.037   4.700  10.326  0.9695 -0.6044 -0.0728
15097SOL     OW47732   8.028   8.734   6.549  0.5504  0.6460  0.1474
15097SOL    HW147733   7.943   8.697   6.574  0.4902  0.7226  0.0527
15097SOL    HW247734   8.089   8.697   6.613  0.5274  0.2020 -0.0806
15098SOL     OW47735   6.036   7.443   0.442  0.0655  0.3192 -0.2915
15098SOL    HW147736   6.064   7.527   0.479 -0.1250 -0.4631  1.7449
15098SOL    HW247737   6.045   7.454   0.347 -0.9346  2.9929 -0.1576
15099SOL     OW47738   9.071   8.594   5.133 -0.1057 -0.0559  0.5530
15099SOL    HW147739   9.026   8.648   5.068 -1.7200 -0.5312  1.2211
15099SOL    HW247740   9.098   8.516   5.086 -1.9948 -0.7706  0.5827
15100SOL     OW47741   1.331   7.781   4.765 -0.1093 -0.2787  0.4217
15100SOL    HW147742   1.373   7.798   4.850  1.7858  0.7005 -0.6302
15100SOL    HW247743   1.380   7.708   4.728 -0.4088 -0.1953 -0.1549
15101SOL     OW47744   5.016   1.806   6.036 -0.4499  0.2292  0.1272
15101SOL    HW147745   4.950   1.784   6.102  0.0765  1.3255  1.0285
15101SOL    HW247746   5.062   1.724   6.020 -0.1506  0.0892  1.6125
15102SOL     OW47747   8.521   7.685   9.072 -0.0651  0.0695  0.5120
15102SOL    HW147748   8.519   7.773   9.110  0.3728  1.0630 -1.6238
15102SOL    HW247749   8.598   7.686   9.015 -0.2792 -1.5758  0.1588
15103SOL     OW47750   8.496   6.183   0.763  0.4975 -0.1575  0.2331
15103SOL    HW147751   8.504   6.089   0.748  0.8941 -0.4947  2.2049
15103SOL    HW247752   8.515   6.193   0.857  1.5858  2.0074 -0.1621
15104SOL     OW47753   1.316   0.759   0.694 -0.4345  0.5049  0.0093
15104SOL    HW147754   1.353   0.707   0.766 -1.4056  1.9436  1.6252
15104SOL    HW247755   1.230   0.719   0.677  0.4464 -0.8426 -1.5331
15105SOL     OW47756   8.441   0.871   5.648 -0.1871  0.2631  0.3840
15105SOL    HW147757   8.421   0.877   5.554  0.9285 -1.1083  0.0187
15105SOL    HW247758   8.368   0.914   5.691 -1.2320  0.0427 -1.0840
15106SOL     OW47759   7.869   3.327   0.348 -0.3048  0.1855 -0.3219
15106SOL    HW147760   7.793   3.384   0.350  0.9229  1.9209  1.7150
15106SOL    HW247761   7.889   3.315   0.256 -0.5115  3.2588 -0.8496
15107SOL     OW47762   8.150   8.826   0.663  0.7774 -0.0011  0.1615
15107SOL    HW147763   8.090   8.825   0.738  1.9895  0.1869  1.1714
15107SOL    HW247764   8.234   8.853   0.700  1.1350  1.3602 -1.4925
15108SOL     OW47765   0.498   6.806   1.841 -0.1363 -0.1501 -0.2787
15108SOL    HW147766   0.452   6.852   1.912 -0.1302 -0.2902 -0.1826
15108SOL    HW247767   0.579   6.856   1.829  1.2344 -1.7150  1.7642
15109SOL     OW47768  10.120   6.343   3.653  0.1391  0.1257  0.0492
15109SOL    HW147769  10.192   6.300   3.698 -0.9761 -3.4861 -1.2678
15109SOL    HW247770  10.150   6.352   3.562  0.5357  2.7959  0.3794
15110SOL     OW47771   1.935   2.465   2.617  0.8505  0.2327  0.4178
15110SOL    HW147772   1.864   2.424   2.567  0.4335  0.4521  0.8200
15110SOL    HW247773   1.915   2.558   2.614 -0.3066  0.1354  2.6308
15111SOL     OW47774  10.089   4.365   1.610 -0.4797 -0.0407 -0.2117
15111SOL    HW147775  10.010   4.320   1.641 -0.0498 -1.0629 -0.5706
15111SOL    HW247776  10.063   4.457   1.604 -1.3079 -0.1927  0.7600
15112SOL     OW47777   5.357   6.657   9.484  0.6894  0.5986  0.2467
15112SOL    HW147778   5.400   6.737   9.456 -0.1089  1.4837  1.4218
15112SOL    HW247779   5.265   6.669   9.460  0.3865  0.4770  1.2801
15113SOL     OW47780   6.839   0.122   0.363 -0.3052  0.1223 -0.2058
15113SOL    HW147781   6.766   0.137   0.303  0.3556  1.5751 -0.6874
15113SOL    HW247782   6.808   0.157   0.447 -0.5960 -0.3662 -0.1034
15114SOL     OW47783   0.925   5.723   6.255  0.1492 -0.3692  0.5566
15114SOL    HW147784   0.955   5.666   6.184 -1.7641 -0.2009 -0.4490
15114SOL    HW247785   0.942   5.811   6.223 -0.0127 -0.3078  0.6389
15115SOL     OW47786   5.121   0.934   5.038  0.6948 -0.3046  0.1562
15115SOL    HW147787   5.063   0.858   5.033  1.2460 -0.7324  0.2024
15115SOL    HW247788   5.209   0.899   5.024  1.1003  0.1217  1.4574
15116SOL     OW47789   7.756   8.876   6.353  0.2349 -0.1724 -0.2493
15116SOL    HW147790   7.850   8.867   6.335 -0.1144  0.0447 -2.4997
15116SOL    HW247791   7.714   8.854   6.270 -1.6544  0.9462  0.3478
15117SOL     OW47792   4.242   6.353   1.921  0.3286 -0.3700 -0.2048
15117SOL    HW147793   4.247   6.324   2.013  1.5178  2.3559  0.7139
15117SOL    HW247794   4.312   6.305   1.877 -0.0579 -1.4918  0.3718
15118SOL     OW47795   8.071   0.780   8.744  0.0982  0.0900  0.6289
15118SOL    HW147796   8.081   0.870   8.774 -1.1853  0.4304  0.0746
15118SOL    HW247797   8.001   0.744   8.798 -2.2772  0.7126 -1.7950
15119SOL     OW47798   0.310   1.797   1.164 -0.1721 -0.1498  0.0435
15119SOL    HW147799   0.281   1.713   1.199 -0.2228 -0.5155 -0.8661
15119SOL    HW247800   0.405   1.790   1.158  0.0129  0.5151  1.6268
15120SOL     OW47801   1.253   8.416   1.130  0.1474  0.2293 -0.1244
15120SOL    HW147802   1.341   8.393   1.158  0.3138  1.1469  0.1158
15120SOL    HW247803   1.219   8.335   1.091  0.6764 -0.4532  0.7899
15121SOL     OW47804   3.490   8.214   0.825  0.5927 -0.1677  0.4266
15121SOL    HW147805   3.437   8.217   0.745  1.7211 -0.9096 -0.3795
15121SOL    HW247806   3.427   8.226   0.896 -0.3147  1.5112 -0.5869
15122SOL     OW47807   8.179   1.653   9.333 -0.2954 -0.3451  0.3293
15122SOL    HW147808   8.163   1.623   9.243  2.8620  0.1617 -0.4956
15122SOL    HW247809   8.246   1.594   9.366 -0.3109  0.4437  1.8383
15123SOL     OW47810   1.494   5.762   3.751  0.2474 -0.4039 -0.3324
15123SOL    HW147811   1.503   5.848   3.712 -0.4951 -0.2353 -0.1459
15123SOL    HW247812   1.455   5.778   3.837 -2.1237 -1.0735 -1.1988
15124SOL     OW47813   0.504   4.835   4.634 -0.1370 -0.2475  0.8927
15124SOL    HW147814   0.559   4.859   4.708 -0.6331 -0.5287  1.3589
15124SOL    HW247815   0.516   4.906   4.571 -1.5225  1.2221  2.1927
15125SOL     OW47816   9.897   3.742   4.251  0.4707  0.3487  0.3625
15125SOL    HW147817   9.865   3.754   4.162  0.2879  0.3066  0.4223
15125SOL    HW247818   9.867   3.654   4.276 -0.9603  1.0036  1.0788
15126SOL     OW47819   0.618   0.507   3.684 -0.0378 -0.7141  0.4155
15126SOL    HW147820   0.610   0.449   3.608  1.2160 -0.3623  0.0054
15126SOL    HW247821   0.712   0.512   3.701 -0.2808 -0.6352  1.8814
15127SOL     OW47822   2.541   6.943   9.126  0.2217  0.3949 -0.4276
15127SOL    HW147823   2.519   6.903   9.211  0.2362  0.2931 -0.4716
15127SOL    HW247824   2.558   6.868   9.068  1.2324  0.4764 -0.2577
15128SOL     OW47825   0.509   9.463   6.934 -0.1484  0.5267  0.2272
15128SOL    HW147826   0.430   9.437   6.981 -1.3879  3.3851 -0.0448
15128SOL    HW247827   0.477   9.524   6.867  2.0794  0.0476 -1.3725
15129SOL     OW47828   1.653   4.017   1.690 -0.3019 -0.4837  0.1782
15129SOL    HW147829   1.634   4.107   1.663 -1.2358 -0.9284 -0.7686
15129SOL    HW247830   1.714   4.025   1.762  0.1509  0.8915 -0.3322
15130SOL     OW47831   5.991   0.829   1.245  0.0788  0.1980  0.2657
15130SOL    HW147832   6.017   0.814   1.336  1.2582  0.9545  0.0801
15130SOL    HW247833   5.998   0.924   1.233  0.2135  0.0834 -0.6945
15131SOL     OW47834   4.875   5.352   8.035  0.1779  0.3600 -0.0562
15131SOL    HW147835   4.889   5.430   8.088 -1.4096  0.1432  0.7647
15131SOL    HW247836   4.940   5.290   8.066 -0.0640  0.5895  0.9540
15132SOL     OW47837   7.740   3.346   0.650  0.4233  0.5663 -0.0840
15132SOL    HW147838   7.830   3.315   0.645 -0.3481 -2.0568  0.8196
15132SOL    HW247839   7.717   3.340   0.743 -1.2804 -0.8113 -0.5326
15133SOL     OW47840   1.513   0.324   3.384 -0.0092 -0.3292 -0.1170
15133SOL    HW147841   1.577   0.262   3.349 -1.2212 -1.4907 -0.3675
15133SOL    HW247842   1.560   0.407   3.391  1.6555 -1.2789  0.2308
15134SOL     OW47843   1.123   3.611   4.520  0.0979  0.2082  0.0532
15134SOL    HW147844   1.070   3.598   4.598 -4.0230  0.3029 -2.4108
15134SOL    HW247845   1.116   3.705   4.502 -0.5620 -0.0728 -1.3028
15135SOL     OW47846   4.536   8.615   9.209  0.0911 -0.3290 -0.2518
15135SOL    HW147847   4.580   8.660   9.137  0.6437 -1.0082 -0.3452
15135SOL    HW247848   4.603   8.606   9.276 -0.2829 -0.1586  0.1491
15136SOL     OW47849   6.849   8.205   3.636  0.1137 -0.1543 -0.3051
15136SOL    HW147850   6.800   8.267   3.690  1.9935  0.2769  0.9897
15136SOL    HW247851   6.878   8.137   3.697 -0.0192 -1.1429 -1.3039
15137SOL     OW47852   5.478   1.992   6.805  0.0277 -0.6549  0.0445
15137SOL    HW147853   5.464   2.071   6.857  0.6879 -1.2713  1.2087
15137SOL    HW247854   5.569   1.969   6.821 -0.4542 -2.2945  0.6894
15138SOL     OW47855   5.326   8.132   1.316  0.1126 -0.1649  0.2060
15138SOL    HW147856   5.319   8.037   1.329 -0.9679 -0.2149 -0.6021
15138SOL    HW247857   5.259   8.152   1.250  0.8447  1.0485 -0.1979
15139SOL     OW47858   8.810   9.494   6.173  0.0895  0.0155  0.0957
15139SOL    HW147859   8.755   9.442   6.232 -1.6239  0.0022 -1.4259
15139SOL    HW247860   8.833   9.433   6.102 -0.2676  0.7693 -0.6865
15140SOL     OW47861   2.375   0.843   2.194  0.0878 -0.6019 -0.2195
15140SOL    HW147862   2.297   0.789   2.207  0.2461 -0.6704  0.4857
15140SOL    HW247863   2.342   0.928   2.167 -0.2091 -0.7819 -0.4154
15141SOL     OW47864   1.676   7.041   7.434 -0.6154  0.6537  0.3429
15141SOL    HW147865   1.727   7.114   7.472 -0.2825  0.2124  0.7585
15141SOL    HW247866   1.728   7.012   7.359 -0.8092  0.9216  0.1035
15142SOL     OW47867   8.312   0.123   8.831 -0.1622 -0.4897  0.1515
15142SOL    HW147868   8.260   0.157   8.904  1.5028 -0.8409  1.5806
15142SOL    HW247869   8.328   0.198   8.775 -0.0944  0.1619  1.0266
15143SOL     OW47870   0.887   5.926   4.327  0.1401 -0.1579  0.4077
15143SOL    HW147871   0.962   5.939   4.270  1.2290 -0.5761  1.6929
15143SOL    HW247872   0.883   5.831   4.341 -1.3219 -0.2595 -0.5328
15144SOL     OW47873   9.058   8.320   0.393  0.2233 -0.0282 -0.1461
15144SOL    HW147874   9.142   8.282   0.367  0.1872 -0.7169  0.6892
15144SOL    HW247875   8.995   8.249   0.379 -0.3144  0.6410 -1.2344
15145SOL     OW47876   2.137   2.144   1.833  0.5096  0.3460 -0.1763
15145SOL    HW147877   2.128   2.054   1.865  1.4904 -0.5594 -2.3083
15145SOL    HW247878   2.102   2.197   1.905  0.2517 -1.6811  1.3132
15146SOL     OW47879   5.685   0.423   6.888 -0.6863 -0.0767 -0.6091
15146SOL    HW147880   5.620   0.411   6.957 -1.9593  0.1185 -1.7141
15146SOL    HW247881   5.634   0.454   6.813  0.7429  0.3619 -1.4377
15147SOL     OW47882   5.941   4.748   4.961 -0.2439 -0.2415 -0.1727
15147SOL    HW147883   5.861   4.778   4.918  0.9188  2.7864 -0.4708
15147SOL    HW247884   5.924   4.761   5.055  0.5340  2.3792 -0.3379
15148SOL     OW47885   2.954   4.212   1.108 -0.7527 -0.0164  0.7449
15148SOL    HW147886   2.979   4.119   1.106  0.2355  0.2454 -0.0005
15148SOL    HW247887   2.885   4.220   1.043 -1.6098 -0.4180  1.5764
15149SOL     OW47888   5.433   1.889   8.510 -0.9687 -0.4199 -0.1578
15149SOL    HW147889   5.373   1.912   8.581  0.4642  0.8648  0.6907
15149SOL    HW247890   5.386   1.913   8.430 -1.4064  1.0860  0.5113
15150SOL     OW47891   8.834   5.889   9.192  0.0307  0.2198  0.0712
15150SOL    HW147892   8.847   5.848   9.107 -0.2913  1.2245 -0.4712
15150SOL    HW247893   8.786   5.969   9.173  0.5208  0.7806  1.1310
15151SOL     OW47894   3.653   4.695   6.084 -0.1481  0.6195 -0.1544
15151SOL    HW147895   3.621   4.689   5.994  0.9064  2.8606 -0.7460
15151SOL    HW247896   3.659   4.604   6.114  0.2932 -0.2386 -2.6422
15152SOL     OW47897   3.167   4.936   7.079 -0.4064  0.2973 -0.0408
15152SOL    HW147898   3.115   4.858   7.097  0.3622 -0.5838 -1.4878
15152SOL    HW247899   3.256   4.911   7.104  0.0641  0.2574 -1.6754
15153SOL     OW47900   0.540  10.373   9.296 -0.3594  0.3991  0.2687
15153SOL    HW147901   0.620  10.396   9.249 -0.7840  0.4894 -0.4217
15153SOL    HW247902   0.471  10.422   9.252 -0.9274 -0.3720  0.2858
15154SOL     OW47903   2.800   9.979   2.749 -0.5753  0.5202  0.1539
15154SOL    HW147904   2.794   9.892   2.709 -0.2818  1.2790 -1.6466
15154SOL    HW247905   2.811  10.039   2.675 -0.4162  2.0689  1.3702
15155SOL     OW47906   7.414   1.686   2.069 -0.4276  0.0433  0.0919
15155SOL    HW147907   7.374   1.773   2.077  0.9617  0.7515 -0.3757
15155SOL    HW247908   7.480   1.696   2.001  0.2119 -1.2270  0.4898
15156SOL     OW47909   6.549   8.897   0.648 -0.6724  0.2735  0.5343
15156SOL    HW147910   6.570   8.938   0.732 -0.5253 -2.4068  1.8907
15156SOL    HW247911   6.454   8.884   0.651 -0.6143 -0.1718  0.4394
15157SOL     OW47912   2.912   5.983  10.020 -0.2916  0.2849 -0.3524
15157SOL    HW147913   2.944   5.916   9.959 -0.3780 -0.0256 -0.0608
15157SOL    HW247914   2.943   5.954  10.106  1.1120  1.4923 -0.3992
15158SOL     OW47915   1.594   9.531   0.439  0.1251 -0.0055  0.2929
15158SOL    HW147916   1.514   9.477   0.440 -0.5288  0.9360  0.2030
15158SOL    HW247917   1.563   9.618   0.415  1.2464  0.2905 -0.1054
15159SOL     OW47918   4.898   5.659   8.692  0.0309  0.1374  0.1973
15159SOL    HW147919   4.847   5.584   8.662  2.3348 -0.8172 -1.6272
15159SOL    HW247920   4.900   5.651   8.787 -0.9006 -1.3286  0.1175
15160SOL     OW47921   9.216   9.379  10.114  0.2708  0.3564 -0.3096
15160SOL    HW147922   9.177   9.377  10.201 -1.9486  1.5264 -1.1891
15160SOL    HW247923   9.176   9.454  10.071  1.3652 -0.1216 -2.3212
15161SOL     OW47924   8.091   0.738   8.473  0.5386  0.0420 -1.1238
15161SOL    HW147925   8.178   0.756   8.438 -0.0022  2.5278 -1.3622
15161SOL    HW247926   8.101   0.748   8.568  0.7699 -1.0944 -1.0051
15162SOL     OW47927   4.395   7.729   8.312 -0.4411 -0.3796  0.2690
15162SOL    HW147928   4.423   7.653   8.363  1.1433 -0.3967 -0.5560
15162SOL    HW247929   4.359   7.693   8.232 -1.2442 -0.2980  0.5865
15163SOL     OW47930   1.349   7.050   4.192  0.2629 -0.0693  0.1315
15163SOL    HW147931   1.253   7.060   4.194  0.0385 -1.4948 -1.6464
15163SOL    HW247932   1.377   7.105   4.119  0.8005  0.2003  0.5352
15164SOL     OW47933   7.034   6.665   3.645 -0.0823 -0.2859 -0.6784
15164SOL    HW147934   6.960   6.649   3.703  0.1912  0.8384  0.0060
15164SOL    HW247935   7.002   6.732   3.584 -0.0583 -0.7715 -1.2296
15165SOL     OW47936   3.232   3.910   2.914  0.2933 -0.0009 -0.7670
15165SOL    HW147937   3.203   3.954   2.994 -0.7188 -2.2099  0.1716
15165SOL    HW247938   3.299   3.848   2.944  0.5304 -0.2408 -1.7665
15166SOL     OW47939   8.882   7.739   4.388  0.4940 -0.0249  0.2097
15166SOL    HW147940   8.800   7.743   4.340 -0.7582  2.5977  2.3249
15166SOL    HW247941   8.857   7.714   4.476  1.7289  1.8639  1.1742
15167SOL     OW47942   8.469   3.020   9.201 -0.4268 -0.0855 -0.2590
15167SOL    HW147943   8.549   2.989   9.244 -0.3919  0.2670 -0.0679
15167SOL    HW247944   8.400   2.966   9.239 -0.1210 -1.3583 -1.4473
15168SOL     OW47945   4.679   1.948   4.504 -0.0285 -0.0458  0.0102
15168SOL    HW147946   4.689   2.041   4.487 -1.0191 -0.0484 -0.6503
15168SOL    HW247947   4.619   1.917   4.436 -1.7576 -0.6525  1.7121
15169SOL     OW47948   1.540   3.306   3.358  0.0540 -0.3343 -0.4795
15169SOL    HW147949   1.603   3.367   3.320 -0.7505  0.0985 -1.1635
15169SOL    HW247950   1.573   3.219   3.334  0.2525 -0.1051 -1.0531
15170SOL     OW47951   4.710   3.086   9.097 -0.4144 -0.1096  0.6114
15170SOL    HW147952   4.673   3.115   9.181  0.5519  1.1958  0.6191
15170SOL    HW247953   4.804   3.093   9.109 -0.2481 -0.5004 -0.3852
15171SOL     OW47954   0.369   6.247   4.095 -0.7132  0.1994  0.4202
15171SOL    HW147955   0.335   6.332   4.069 -1.8778  0.2590  2.0458
15171SOL    HW247956   0.294   6.187   4.087  0.1071 -0.7355 -0.7909
15172SOL     OW47957   6.115   3.312   4.706 -0.2594  0.7818  0.1313
15172SOL    HW147958   6.191   3.287   4.758  0.2689  0.0511 -0.9591
15172SOL    HW247959   6.044   3.320   4.770  0.1447 -1.0311  0.8667
15173SOL     OW47960   5.373   0.630   6.763  0.0528  0.0439  0.8925
15173SOL    HW147961   5.426   0.703   6.792 -1.7482  2.2204 -0.8815
15173SOL    HW247962   5.284   0.652   6.790 -0.7701 -0.7105 -1.0157
15174SOL     OW47963   7.767   3.472   3.685 -0.1650  0.3710 -0.2088
15174SOL    HW147964   7.703   3.428   3.741  0.2464 -0.9875 -0.7839
15174SOL    HW247965   7.846   3.477   3.738  0.2540 -1.0012 -0.6645
15175SOL     OW47966  10.392   4.599   0.811  0.1226  0.4721 -0.6067
15175SOL    HW147967  10.439   4.653   0.748  2.4623 -0.6243  0.1025
15175SOL    HW247968  10.398   4.510   0.776  0.7621 -0.0371  0.7265
15176SOL     OW47969   6.304   9.999   2.098  0.1922  0.0728 -0.0817
15176SOL    HW147970   6.346  10.070   2.049 -0.3608  0.8703  0.5726
15176SOL    HW247971   6.225   9.978   2.048  1.1351 -1.1735 -1.1133
15177SOL     OW47972   8.565   1.791   8.961 -0.2849 -0.5635  0.3815
15177SOL    HW147973   8.559   1.864   8.900  1.9117  1.9792  2.9432
15177SOL    HW247974   8.477   1.782   8.998 -1.6630 -2.1466 -2.8761
15178SOL     OW47975   2.294   7.783   3.388  0.1046 -0.0656  0.2161
15178SOL    HW147976   2.332   7.869   3.368 -1.2712  0.6579  0.5248
15178SOL    HW247977   2.369   7.726   3.401  1.0817  0.6280 -1.8804
15179SOL     OW47978   2.332  10.056  10.045  0.3200  0.3999  0.1378
15179SOL    HW147979   2.357  10.129  10.101  0.7832  1.6597 -1.6216
15179SOL    HW247980   2.329   9.981  10.103  2.0372  1.3931  1.5885
15180SOL     OW47981   8.406  10.144   3.760 -0.1239 -0.0780 -0.2980
15180SOL    HW147982   8.330  10.197   3.738 -1.5907 -1.2472  1.5861
15180SOL    HW247983   8.425  10.095   3.680 -2.7805 -1.3486 -0.2624
15181SOL     OW47984   3.821   3.604   7.898  0.2213 -0.2773 -0.1512
15181SOL    HW147985   3.903   3.562   7.872 -0.1664 -1.4493  0.4368
15181SOL    HW247986   3.753   3.550   7.859 -0.3166 -0.8158  1.4283
15182SOL     OW47987   7.039   2.802   7.405  1.3737 -0.4030  0.1729
15182SOL    HW147988   6.991   2.778   7.326 -0.9017 -0.8338  1.5827
15182SOL    HW247989   7.130   2.777   7.387  0.5781 -2.3250 -1.5518
15183SOL     OW47990   4.675   7.027   0.413 -0.2141  0.3544  0.4051
15183SOL    HW147991   4.728   7.080   0.354  0.7904 -0.9247  0.1205
15183SOL    HW247992   4.738   6.980   0.467 -0.9328 -2.4083 -0.9898
15184SOL     OW47993   4.590   7.090   6.018 -0.4553 -0.2469 -0.3771
15184SOL    HW147994   4.654   7.155   6.050 -1.1279  0.1683  0.1643
15184SOL    HW247995   4.510   7.111   6.066 -0.8644 -1.0696 -0.6952
15185SOL     OW47996   7.850   9.600   5.772  0.1362 -0.0685 -0.0391
15185SOL    HW147997   7.777   9.618   5.712  0.6388 -4.6103 -2.4523
15185SOL    HW247998   7.810   9.560   5.849 -0.1447 -3.4692 -1.7644
15186SOL     OW47999   5.644   7.281   7.900  0.1097 -0.0402  0.4528
15186SOL    HW148000   5.732   7.248   7.878  0.4253 -0.2313  1.8928
15186SOL    HW248001   5.631   7.254   7.991 -2.0178 -1.2103 -0.1497
15187SOL     OW48002   5.866   0.591   6.591 -0.4172  0.2956 -0.3315
15187SOL    HW148003   5.815   0.519   6.555  1.9976 -1.1403 -1.1255
15187SOL    HW248004   5.953   0.581   6.553  0.2983  3.0945  0.2945
15188SOL     OW48005   7.486   6.401  10.135 -0.1765  0.2428  0.2839
15188SOL    HW148006   7.454   6.371  10.051 -2.2246  1.0410  0.7239
15188SOL    HW248007   7.576   6.368  10.140  0.0037  0.1799 -2.1856
15189SOL     OW48008   6.718   0.057   6.929 -0.2757 -0.5714 -0.8011
15189SOL    HW148009   6.706   0.119   7.001 -3.3594 -1.3211 -0.5430
15189SOL    HW248010   6.742  -0.025   6.972  1.2877 -0.2126 -0.9455
15190SOL     OW48011   1.384   9.157  10.022  0.6411 -0.0545 -0.0385
15190SOL    HW148012   1.451   9.189  10.083  2.5109  0.0890 -2.0301
15190SOL    HW248013   1.302   9.194  10.055  1.2529 -1.2696  3.2530
15191SOL     OW48014   5.152   3.211   4.091 -0.4475 -0.0503 -0.1736
15191SOL    HW148015   5.220   3.177   4.148  0.6526  1.9555 -0.1877
15191SOL    HW248016   5.153   3.306   4.106 -2.4555  0.1722 -1.0365
15192SOL     OW48017   9.731   8.093   7.827 -0.1663  0.1437 -0.1036
15192SOL    HW148018   9.793   8.021   7.843 -0.1147  0.4424  1.2130
15192SOL    HW248019   9.765   8.165   7.881 -1.4020  0.4547  0.2831
15193SOL     OW48020   6.364   9.167   8.972  0.1462 -0.1191 -0.2182
15193SOL    HW148021   6.339   9.165   9.064  0.2791 -0.8653 -0.1917
15193SOL    HW248022   6.306   9.232   8.932  1.6514  2.0059  0.8386
15194SOL     OW48023   9.410   4.059   1.574 -0.3051 -0.2755  0.2427
15194SOL    HW148024   9.362   3.980   1.549 -0.1532 -0.8765  1.7351
15194SOL    HW248025   9.355   4.131   1.544 -2.0311 -0.9358  1.6528
15195SOL     OW48026   2.649   1.933   7.472  0.2187  0.1854 -0.6032
15195SOL    HW148027   2.659   1.842   7.497  1.7851  0.7942  1.2651
15195SOL    HW248028   2.652   1.933   7.377 -0.2526 -1.7375 -0.6492
15196SOL     OW48029   7.128   1.102   9.385  0.1167  0.0731 -0.0999
15196SOL    HW148030   7.198   1.098   9.450  0.9817 -1.7276 -1.0362
15196SOL    HW248031   7.063   1.038   9.416 -0.2100  0.3510 -0.2081
15197SOL     OW48032   8.754   3.808   9.655 -0.3140  0.4369 -0.7597
15197SOL    HW148033   8.672   3.850   9.630 -0.3565  0.5469 -0.4423
15197SOL    HW248034   8.821   3.853   9.604 -0.4128  0.5837 -0.7598
15198SOL     OW48035   9.252   2.219   0.243  0.8953 -0.6726 -0.3745
15198SOL    HW148036   9.231   2.275   0.168 -2.0780 -0.3914  0.5300
15198SOL    HW248037   9.180   2.156   0.246  0.2505  0.0601  2.8874
15199SOL     OW48038   1.385   4.102   8.420  0.2095  0.2301 -0.2949
15199SOL    HW148039   1.378   4.018   8.467  0.9422 -1.2951 -2.7360
15199SOL    HW248040   1.342   4.165   8.478  0.2167 -1.6827  1.9502
15200SOL     OW48041   3.495   0.547   5.718  0.0687 -0.1492 -0.6070
15200SOL    HW148042   3.538   0.492   5.784 -0.0521 -1.3497 -1.5040
15200SOL    HW248043   3.468   0.624   5.767  2.4992  0.3130  0.1848
15201SOL     OW48044   7.464   0.327   0.185 -0.5182  0.0435 -0.0583
15201SOL    HW148045   7.420   0.407   0.156 -1.1088 -0.3888 -0.3782
15201SOL    HW248046   7.410   0.256   0.150  0.2101 -0.4986 -0.1003
15202SOL     OW48047   5.471   8.019   5.360 -0.3413 -0.6836  0.2554
15202SOL    HW148048   5.414   7.944   5.342  0.7089 -1.3586 -0.3888
15202SOL    HW248049   5.510   8.040   5.276  0.1665 -0.0792  0.6355
15203SOL     OW48050   1.107   7.366   6.641  0.0690  0.3589 -0.3884
15203SOL    HW148051   1.194   7.331   6.660 -0.9465 -0.9740  2.3408
15203SOL    HW248052   1.076   7.315   6.566  0.6763 -0.9197  0.2131
15204SOL     OW48053   2.016   5.630   1.500  0.3263 -0.2997  0.2077
15204SOL    HW148054   2.069   5.709   1.492  0.7183 -0.7192 -2.0582
15204SOL    HW248055   1.928   5.662   1.519  0.9778  0.4921  2.1549
15205SOL     OW48056   9.851   5.565   0.480  0.0697  0.3124  0.3927
15205SOL    HW148057   9.845   5.470   0.477 -1.4112  0.3891 -0.0662
15205SOL    HW248058   9.832   5.593   0.390 -0.5839  1.0688  0.7520
15206SOL     OW48059   0.621   4.521   1.514  0.0692 -0.9019 -0.7488
15206SOL    HW148060   0.683   4.551   1.581  0.2571  0.3486 -1.4437
15206SOL    HW248061   0.544   4.492   1.564  0.3952 -0.4554  0.0361
15207SOL     OW48062   4.763   4.987   4.617  0.2589  0.4544 -0.2579
15207SOL    HW148063   4.852   4.954   4.604 -0.3380 -0.5159 -2.2343
15207SOL    HW248064   4.733   4.944   4.697  0.8747 -0.7895 -0.6764
15208SOL     OW48065   7.145   4.701   1.271  0.6873 -0.4294  0.6532
15208SOL    HW148066   7.113   4.640   1.205 -2.5282  0.9294  0.8019
15208SOL    HW248067   7.115   4.666   1.354 -0.0642  0.6556  0.8558
15209SOL     OW48068   7.847   4.505  10.425  0.1792  0.9290 -0.4554
15209SOL    HW148069   7.911   4.490  10.355 -1.2198 -1.6471 -1.3353
15209SOL    HW248070   7.766   4.465  10.393  0.0603 -2.7656  3.5335
15210SOL     OW48071   1.141  10.340   4.269  0.3150  0.4622 -0.1121
15210SOL    HW148072   1.185  10.256   4.261  2.6400  1.5606  0.2005
15210SOL    HW248073   1.057  10.320   4.311  1.4736 -1.5232  1.4115
15211SOL     OW48074   6.816   6.627   5.070 -0.4366  0.1387  0.0733
15211SOL    HW148075   6.773   6.595   5.149  0.7150  0.6392  0.9419
15211SOL    HW248076   6.875   6.556   5.045 -0.6133  0.0861 -0.1983
15212SOL     OW48077   6.772  10.156   8.098 -0.2592 -0.3399 -0.2177
15212SOL    HW148078   6.818  10.087   8.050  0.0319 -1.2340  1.2588
15212SOL    HW248079   6.742  10.217   8.031  0.5538 -1.2660 -1.4632
15213SOL     OW48080   6.514   5.276   6.172 -0.4172 -0.5360 -0.6024
15213SOL    HW148081   6.445   5.316   6.119 -0.7597 -0.5410 -0.1598
15213SOL    HW248082   6.579   5.345   6.182 -0.8992 -0.1542 -0.0335
15214SOL     OW48083   6.246   3.642  10.091 -0.1621 -0.0676 -0.0468
15214SOL    HW148084   6.273   3.724  10.049 -0.2917  0.2061  0.3905
15214SOL    HW248085   6.155   3.657  10.116  0.1476  0.0917  1.0662
15215SOL     OW48086   8.054   7.542  10.484  0.0978 -0.3536 -0.0090
15215SOL    HW148087   7.968   7.583  10.494  1.0236  1.4475  1.2019
15215SOL    HW248088   8.086   7.575  10.400 -0.1673 -0.5775 -0.1986
15216SOL     OW48089   2.128   0.204   8.117 -0.3038 -0.1730 -0.0106
15216SOL    HW148090   2.210   0.164   8.087  0.0637  2.0495 -2.2466
15216SOL    HW248091   2.113   0.165   8.203  2.9619 -0.8733  0.3730
15217SOL     OW48092   0.175  10.447   6.284 -0.3970 -0.1817  0.5579
15217SOL    HW148093   0.263  10.417   6.306  0.5226  1.7923 -0.2503
15217SOL    HW248094   0.162  10.421   6.193  0.0461  1.0337  0.1390
15218SOL     OW48095   0.884   8.115   5.665 -0.1687  0.5139  0.4324
15218SOL    HW148096   0.946   8.145   5.731  0.3132 -0.9991  0.7148
15218SOL    HW248097   0.829   8.191   5.647 -1.3309  0.5767  3.6984
15219SOL     OW48098   9.085   8.435   3.913 -0.0611 -0.1873 -0.0017
15219SOL    HW148099   9.073   8.409   3.822 -0.8493  0.3682 -0.0668
15219SOL    HW248100   9.146   8.509   3.910 -0.6057  0.2607 -0.1444
15220SOL     OW48101   0.508   2.439   9.175 -0.2132  0.1649 -0.1908
15220SOL    HW148102   0.469   2.459   9.090 -0.4976  0.7360  0.0713
15220SOL    HW248103   0.433   2.437   9.236  0.0680  0.4479  0.1666
15221SOL     OW48104   7.045   4.749  10.229  0.3040 -0.2003  0.1075
15221SOL    HW148105   6.967   4.773  10.180  0.6369  0.4627 -0.1056
15221SOL    HW248106   7.036   4.793  10.313  0.0904 -0.7367  0.3725
15222SOL     OW48107   1.658   7.570   7.891 -0.3701  0.0159  0.3099
15222SOL    HW148108   1.611   7.654   7.887 -1.6982 -0.7249 -0.4853
15222SOL    HW248109   1.594   7.505   7.860  0.1768 -1.4876  2.1288
15223SOL     OW48110   7.121   1.107   5.474  0.8968  0.4243 -0.2810
15223SOL    HW148111   7.052   1.149   5.525 -0.3179 -0.3947 -1.2132
15223SOL    HW248112   7.184   1.177   5.458  0.8352  0.9408  1.4690
15224SOL     OW48113   6.418   9.319   1.088  0.2883 -0.4029  0.3299
15224SOL    HW148114   6.449   9.353   1.172  0.8856 -0.9359  0.3305
15224SOL    HW248115   6.344   9.375   1.065  1.8169  1.5473 -0.1443
15225SOL     OW48116   5.920   7.576   3.569 -0.5854  0.3613  0.5479
15225SOL    HW148117   5.885   7.665   3.566 -0.8421  0.3028  1.5356
15225SOL    HW248118   5.950   7.559   3.480 -1.1080  1.2076  0.2012
15226SOL     OW48119   2.787   1.808   4.125 -0.4802 -0.6100 -0.1729
15226SOL    HW148120   2.723   1.756   4.173  0.8881 -1.0542  1.2419
15226SOL    HW248121   2.812   1.877   4.187 -0.2882  0.1279 -1.0576
15227SOL     OW48122   1.996   9.028   0.168 -0.0424 -0.5314 -0.2364
15227SOL    HW148123   2.064   8.985   0.116  0.3983 -0.4267  0.2461
15227SOL    HW248124   2.039   9.106   0.204 -0.2597 -0.7424  0.4963
15228SOL     OW48125  10.069   7.843   1.495 -0.3424  0.0306  0.2511
15228SOL    HW148126  10.100   7.896   1.422  0.6663 -0.3623  0.3808
15228SOL    HW248127   9.974   7.844   1.486 -0.2792  0.7544 -0.5195
15229SOL     OW48128   5.804  10.311   2.179 -0.2120 -0.1387 -0.1690
15229SOL    HW148129   5.891  10.349   2.173 -1.2190  2.3033 -0.6577
15229SOL    HW248130   5.803  10.266   2.264  1.2942  0.3660  0.1371
15230SOL     OW48131   5.704   9.088   5.788  0.2070 -0.0303 -0.0402
15230SOL    HW148132   5.769   9.069   5.856 -0.6575  0.9806  1.0947
15230SOL    HW248133   5.635   9.137   5.833 -0.8844 -0.2336 -1.4339
15231SOL     OW48134   5.771   2.501   5.352 -1.1822  0.3487 -0.5913
15231SOL    HW148135   5.709   2.430   5.339 -1.8845  1.0538 -1.1225
15231SOL    HW248136   5.857   2.460   5.345 -1.5541 -0.1760 -2.5699
15232SOL     OW48137   7.769   0.500   6.242 -0.2726  0.1979  0.1498
15232SOL    HW148138   7.686   0.452   6.248 -1.3540  2.0292  1.3229
15232SOL    HW248139   7.752   0.568   6.176  0.4167  0.3594  0.1381
15233SOL     OW48140   3.986   3.771   6.625  0.1413 -0.1944  0.0228
15233SOL    HW148141   4.021   3.682   6.632 -0.3779 -0.3056  1.5561
15233SOL    HW248142   4.036   3.811   6.554  1.3926 -1.2451  0.2777
15234SOL     OW48143   6.429   3.079   3.241  0.5814  0.1149  0.1154
15234SOL    HW148144   6.336   3.057   3.240  0.3796  0.9318 -0.4976
15234SOL    HW248145   6.430   3.174   3.253  1.3970 -0.1074  2.1953
15235SOL     OW48146   3.723   0.327   6.749  0.4700 -0.0463 -0.2362
15235SOL    HW148147   3.812   0.314   6.782  0.9005  0.5368 -1.1166
15235SOL    HW248148   3.731   0.320   6.654 -0.4198  0.0530 -0.3306
15236SOL     OW48149   8.508   2.312   5.972 -0.3639 -0.4563 -0.2979
15236SOL    HW148150   8.451   2.329   5.897  0.0012  0.4875 -0.3722
15236SOL    HW248151   8.499   2.391   6.026  2.2633  0.5412 -1.1950
15237SOL     OW48152   4.881   0.617   8.626 -0.0494  0.4126  0.6231
15237SOL    HW148153   4.896   0.667   8.546 -0.8291  0.5990  0.5842
15237SOL    HW248154   4.859   0.529   8.595  2.5089 -0.3450  0.7122
15238SOL     OW48155   9.206   3.870   9.912  0.5654 -0.3047  0.2232
15238SOL    HW148156   9.285   3.868   9.859 -0.1750 -2.6418 -0.9312
15238SOL    HW248157   9.150   3.936   9.871  2.0192  1.7853  1.3825
15239SOL     OW48158   2.953   8.037   2.593  0.2252  0.6248 -0.1321
15239SOL    HW148159   2.908   8.063   2.673  1.5371  0.0468  0.8354
15239SOL    HW248160   2.883   8.011   2.533 -0.8396  1.9216  0.4866
15240SOL     OW48161   6.149  10.334   4.170 -0.1057  0.2752  0.3707
15240SOL    HW148162   6.232  10.321   4.217  0.0202  0.4308  0.1932
15240SOL    HW248163   6.135  10.428   4.172  0.1813  0.3445 -0.3715
15241SOL     OW48164   8.049   1.665   2.440  0.2226 -0.3465 -0.1673
15241SOL    HW148165   7.996   1.692   2.365  0.0970  1.3713  0.4980
15241SOL    HW248166   8.098   1.589   2.409 -1.5158 -1.0728 -1.2566
15242SOL     OW48167   5.929   0.670   6.845  0.0363  0.1218  0.1231
15242SOL    HW148168   5.918   0.659   6.751 -0.1468  2.3297 -0.1564
15242SOL    HW248169   5.853   0.625   6.883 -0.4387  0.0902 -0.8353
15243SOL     OW48170   4.914   8.946   8.821  0.7867  1.0180 -0.1199
15243SOL    HW148171   4.911   8.854   8.797  0.4890  0.5021  1.7373
15243SOL    HW248172   4.847   8.988   8.766 -1.3859 -0.4629  1.2605
15244SOL     OW48173   2.391   4.820   7.090  0.2425  0.2718 -0.3035
15244SOL    HW148174   2.379   4.734   7.049  0.1759  0.7275 -1.2490
15244SOL    HW248175   2.374   4.804   7.183 -0.8928 -0.5101 -0.6248
15245SOL     OW48176   3.158   4.111  10.439  0.4553  0.1681  0.1580
15245SOL    HW148177   3.236   4.125  10.492 -0.1465  0.8131  0.9041
15245SOL    HW248178   3.161   4.019  10.415  2.0102  0.4347 -0.7591
15246SOL     OW48179   1.907   0.019   6.765 -0.6387  0.6095 -0.0261
15246SOL    HW148180   1.902   0.038   6.671 -0.8378 -0.2129 -0.1876
15246SOL    HW248181   1.898  -0.076   6.771 -3.0392  0.8425  1.0005
15247SOL     OW48182   5.046   1.734   9.261  0.0106  0.0910  0.0507
15247SOL    HW148183   5.119   1.792   9.238 -0.2928  0.2665 -0.4796
15247SOL    HW248184   4.982   1.792   9.301  0.4941 -0.1958  1.2841
15248SOL     OW48185   3.812   5.056   7.450 -0.2328 -0.4348  0.0943
15248SOL    HW148186   3.878   4.998   7.410  0.6648  0.9217 -0.5065
15248SOL    HW248187   3.804   5.026   7.540  0.4394 -1.2929 -0.1218
15249SOL     OW48188   7.950   9.609   3.002 -0.4520  0.3286  0.1647
15249SOL    HW148189   7.955   9.704   2.992  1.3936  0.5920  2.5542
15249SOL    HW248190   8.039   9.578   2.985 -0.6953 -0.7837  0.8041
15250SOL     OW48191   7.586   6.768   7.719 -0.1459 -0.1645 -0.1397
15250SOL    HW148192   7.659   6.824   7.745  0.5569  0.2187 -2.6312
15250SOL    HW248193   7.518   6.830   7.690  1.4000 -0.2986 -4.9525
15251SOL     OW48194   3.373   6.717   4.367 -0.6271  1.0727 -0.2062
15251SOL    HW148195   3.467   6.728   4.358 -0.5776  1.3885  0.5750
15251SOL    HW248196   3.342   6.801   4.401 -0.6588 -0.0635  2.9769
15252SOL     OW48197   1.079   5.739   0.801  0.1705  0.0902 -0.1772
15252SOL    HW148198   1.124   5.803   0.856  0.1693  0.8037 -0.9863
15252SOL    HW248199   1.025   5.792   0.742  0.6854 -0.6200 -1.3174
15253SOL     OW48200   9.736   3.504   8.110 -0.2068 -0.5516 -0.2134
15253SOL    HW148201   9.830   3.498   8.096 -0.3055 -1.3669 -0.5933
15253SOL    HW248202   9.718   3.598   8.111  0.5328 -0.3915 -0.6764
15254SOL     OW48203   3.604   8.091   3.880  0.2058  0.5010 -0.0060
15254SOL    HW148204   3.528   8.043   3.914  0.3135  0.0214 -0.4348
15254SOL    HW248205   3.570   8.179   3.862  0.1972  0.8344  1.5268
15255SOL     OW48206   7.193   3.777   4.213  0.1074 -0.7076 -0.3090
15255SOL    HW148207   7.189   3.706   4.150 -0.4123 -0.5904 -0.4131
15255SOL    HW248208   7.113   3.768   4.265 -0.3662  0.2683 -0.8374
15256SOL     OW48209   9.415   1.857   6.897 -0.1121  0.0365  0.6563
15256SOL    HW148210   9.455   1.856   6.810 -0.4187  1.3049  0.4782
15256SOL    HW248211   9.331   1.902   6.885 -1.3991 -2.0500  1.1315
15257SOL     OW48212   8.732   4.101  10.229  0.3524 -0.3286  0.4609
15257SOL    HW148213   8.676   4.163  10.182  0.3279 -0.6909  0.0072
15257SOL    HW248214   8.753   4.145  10.311  0.4701  0.3538  0.0705
15258SOL     OW48215   2.920   9.061   3.175  0.1986  0.7001 -0.3205
15258SOL    HW148216   2.864   9.135   3.197 -1.8725 -0.9133  0.1872
15258SOL    HW248217   2.871   9.013   3.107  0.9258 -0.7677  0.1442
15259SOL     OW48218   7.473   0.443   1.066 -0.2875  0.2519  0.2021
15259SOL    HW148219   7.430   0.468   0.984  0.3608  1.8450  0.3018
15259SOL    HW248220   7.436   0.503   1.131  0.7682  0.4671  0.6244
15260SOL     OW48221   7.750   7.084   3.231  0.2524 -0.5489  0.6204
15260SOL    HW148222   7.708   7.144   3.293  0.9729  1.3902 -0.6772
15260SOL    HW248223   7.842   7.081   3.259  0.4941  0.0223 -0.0859
15261SOL     OW48224   0.397   2.182   1.287  0.2338  0.0600  0.6741
15261SOL    HW148225   0.427   2.256   1.341  1.5511  0.7314 -0.8865
15261SOL    HW248226   0.365   2.118   1.350 -0.0630  1.5618  2.1417
15262SOL     OW48227   4.472   3.617   0.796 -0.1831 -0.0833  0.6326
15262SOL    HW148228   4.402   3.555   0.774  0.3867 -0.3018 -0.6503
15262SOL    HW248229   4.523   3.626   0.715  0.3403  1.3023  1.0855
15263SOL     OW48230  10.252   1.063   7.023 -1.0520  0.3936  0.4047
15263SOL    HW148231  10.213   1.099   6.944 -2.2369 -0.6232  0.4954
15263SOL    HW248232  10.216   0.974   7.030  0.4424 -0.1927  1.1031
15264SOL     OW48233   0.195   9.626   6.361  0.4922  0.1011 -0.3262
15264SOL    HW148234   0.147   9.701   6.396 -1.7186 -2.0690  1.6111
15264SOL    HW248235   0.287   9.646   6.379 -0.2084  1.3282  2.3005
15265SOL     OW48236   7.926  10.150  10.109  0.0064 -0.0311  0.2273
15265SOL    HW148237   7.852  10.205  10.084  0.2027  0.3360  0.4393
15265SOL    HW248238   7.918  10.139  10.204  0.4269  0.3191  0.3073
15266SOL     OW48239   9.292   2.864   6.946  0.0747  0.3790  0.3108
15266SOL    HW148240   9.353   2.901   6.882 -2.3255  1.9113 -1.2639
15266SOL    HW248241   9.265   2.781   6.909  2.2074 -1.0793  1.7621
15267SOL     OW48242   6.719   6.155   2.465  0.3697 -0.1452  0.2615
15267SOL    HW148243   6.810   6.177   2.486  0.9540 -1.8090 -0.3831
15267SOL    HW248244   6.670   6.177   2.544  1.7801 -1.8775  1.7208
15268SOL     OW48245   1.737   1.527   5.745 -0.2731 -0.3259  0.2605
15268SOL    HW148246   1.749   1.433   5.759  0.4601 -0.1616  0.8221
15268SOL    HW248247   1.822   1.565   5.766 -0.8594  0.5762  1.0972
15269SOL     OW48248   8.429   7.122   9.677  0.7889 -0.1028  0.3737
15269SOL    HW148249   8.428   7.116   9.773 -0.8464 -0.9308  0.3347
15269SOL    HW248250   8.387   7.042   9.647  1.9471 -0.2077 -1.0962
15270SOL     OW48251   1.256   7.845   7.845 -0.6495 -0.2624  0.2803
15270SOL    HW148252   1.279   7.764   7.892  0.9427  0.8616  1.5714
15270SOL    HW248253   1.205   7.896   7.907 -0.1472  0.4524  0.1214
15271SOL     OW48254   4.632   5.425   3.545  0.0788  0.9487  0.5588
15271SOL    HW148255   4.583   5.369   3.485  1.3176  1.6520 -1.1891
15271SOL    HW248256   4.618   5.385   3.631 -0.4730 -1.0383 -0.3841
15272SOL     OW48257   3.385   3.111   8.652  0.4756  0.0127 -0.2260
15272SOL    HW148258   3.405   3.200   8.680  2.8770 -0.2089 -1.0451
15272SOL    HW248259   3.469   3.065   8.655 -0.7512 -2.3636  0.5535
15273SOL     OW48260   6.315   3.227   1.129 -0.2604  0.4211 -0.0939
15273SOL    HW148261   6.273   3.182   1.202 -0.6080 -1.4955 -1.3929
15273SOL    HW248262   6.380   3.165   1.096 -0.0827  1.2468 -1.4011
15274SOL     OW48263   7.461   9.005   1.660  0.3147 -0.5641 -0.0605
15274SOL    HW148264   7.554   9.017   1.679  0.3452 -0.8502 -0.0125
15274SOL    HW248265   7.450   8.910   1.656  0.1479 -0.5203 -0.6883
15275SOL     OW48266   1.031   2.547   9.980 -0.2912 -0.5719  0.6980
15275SOL    HW148267   1.040   2.615   9.913 -0.4033  0.3634  1.6037
15275SOL    HW248268   1.045   2.465   9.933  0.1524  0.0891 -0.3653
15276SOL     OW48269   7.122   1.729   6.018  0.1784 -0.7907 -0.0643
15276SOL    HW148270   7.102   1.636   6.022  0.3136 -0.8219 -0.0995
15276SOL    HW248271   7.087   1.765   6.100  0.0606 -0.8590 -0.0856
15277SOL     OW48272  10.177   0.049   2.629 -0.1530 -0.2833  0.4580
15277SOL    HW148273  10.201  -0.006   2.704  1.1584  0.2071  0.4298
15277SOL    HW248274  10.243   0.119   2.629 -0.4466  0.0141 -0.8398
15278SOL     OW48275   6.184   1.878   3.454  0.0050 -0.1062 -0.4153
15278SOL    HW148276   6.201   1.966   3.490  0.3735  0.1585 -1.2056
15278SOL    HW248277   6.222   1.818   3.518 -1.4270  0.2327  0.8128
15279SOL     OW48278   9.911   4.924   6.396  0.4674  0.1454 -0.0298
15279SOL    HW148279   9.834   4.960   6.439  1.0281  1.4467 -0.0574
15279SOL    HW248280   9.985   4.970   6.436  1.3131 -1.6409  0.5668
15280SOL     OW48281   3.397   8.836   2.574  0.4228 -0.3035 -0.1335
15280SOL    HW148282   3.437   8.872   2.654  0.7264 -0.4200 -0.2317
15280SOL    HW248283   3.457   8.767   2.546 -0.2778 -1.0510  0.1801
15281SOL     OW48284   1.494   9.264   8.537 -0.8528 -0.0653 -0.0223
15281SOL    HW148285   1.527   9.314   8.462  0.4966 -0.7393  0.0965
15281SOL    HW248286   1.499   9.325   8.611  0.6922 -0.3109  0.1039
15282SOL     OW48287   3.674   6.835   4.375  0.0264 -0.4875  0.1964
15282SOL    HW148288   3.742   6.893   4.410  0.7977 -0.4318 -1.2904
15282SOL    HW248289   3.622   6.891   4.317 -0.7326 -0.7460  0.6118
15283SOL     OW48290   7.864   5.973   4.878  0.1241  0.7919  0.1806
15283SOL    HW148291   7.905   5.922   4.947  1.3967  1.1591 -0.2773
15283SOL    HW248292   7.937   6.011   4.829 -0.7453  0.6453 -1.2913
15284SOL     OW48293   0.088   2.759   6.890  0.0847 -0.1686  0.1561
15284SOL    HW148294   0.140   2.822   6.840  0.2623 -1.4345 -1.3317
15284SOL    HW248295   0.135   2.676   6.880 -2.0245 -1.3172 -1.0267
15285SOL     OW48296   4.859   2.647   7.208  0.6936  0.0264 -0.0124
15285SOL    HW148297   4.877   2.573   7.150  0.1746 -0.7440  0.7851
15285SOL    HW248298   4.796   2.700   7.159 -3.1849 -2.8047  1.3880
15286SOL     OW48299   8.214   4.328   0.755  0.0979  0.5818  0.2754
15286SOL    HW148300   8.214   4.356   0.847  0.8514 -1.3913  0.9356
15286SOL    HW248301   8.302   4.349   0.724  0.5357 -0.5668  0.6587
15287SOL     OW48302   3.492   8.204   3.189 -0.0800 -0.2910 -0.2589
15287SOL    HW148303   3.503   8.267   3.260 -2.0779 -2.2578  1.9404
15287SOL    HW248304   3.490   8.259   3.110 -1.0692  2.3650  1.4460
15288SOL     OW48305   0.081   0.239   8.620 -0.3468 -0.0016  0.2416
15288SOL    HW148306   0.056   0.309   8.680  1.4523  1.8721 -1.0315
15288SOL    HW248307   0.030   0.256   8.541  1.3232  1.0146 -0.6892
15289SOL     OW48308   3.031   4.517   0.308 -0.2421 -0.0371  0.0274
15289SOL    HW148309   3.036   4.491   0.217  3.0883  0.0243  0.0565
15289SOL    HW248310   3.082   4.451   0.355 -2.2718 -0.3384  1.9661
15290SOL     OW48311   5.068   3.474   8.684  0.4830  0.2180  0.0532
15290SOL    HW148312   5.156   3.452   8.652  0.3550  0.3561 -0.3971
15290SOL    HW248313   5.032   3.391   8.715  1.2495  0.3630  1.4299
15291SOL     OW48314   2.115   3.864   0.500  0.6883  0.1954 -0.0591
15291SOL    HW148315   2.119   3.904   0.587 -0.4545 -0.1319  0.1670
15291SOL    HW248316   2.022   3.870   0.475  1.2421  1.7852 -1.9826
15292SOL     OW48317   0.736   8.338   0.166 -0.0400 -0.0442  0.7260
15292SOL    HW148318   0.727   8.275   0.094  2.4792 -0.1215  0.3670
15292SOL    HW248319   0.733   8.423   0.124 -1.1692  0.0063  0.8992
15293SOL     OW48320   2.372   7.003   6.444  0.1155 -0.0984 -0.6599
15293SOL    HW148321   2.381   7.015   6.349 -0.4585  0.8928 -0.6020
15293SOL    HW248322   2.303   7.064   6.470 -0.1399 -0.7734  0.3171
15294SOL     OW48323   3.399   6.893   6.017 -0.1697  0.2470  0.2479
15294SOL    HW148324   3.358   6.942   5.945 -0.6966 -0.1298  0.2831
15294SOL    HW248325   3.367   6.804   6.006  1.0787 -0.1837 -0.0357
15295SOL     OW48326   8.189   6.725   4.999 -0.0019  0.1256  0.2395
15295SOL    HW148327   8.226   6.652   4.950  1.1211  1.5617 -1.1383
15295SOL    HW248328   8.142   6.777   4.934 -1.3347  0.3366  1.3083
15296SOL     OW48329   4.694   7.272   5.526  0.4807  0.3009 -0.3740
15296SOL    HW148330   4.699   7.356   5.571  0.2288  0.8397 -1.3424
15296SOL    HW248331   4.639   7.288   5.450  0.7739 -0.6357 -0.7977
15297SOL     OW48332   5.791   6.086   9.486 -0.3765 -0.0186  0.7991
15297SOL    HW148333   5.835   6.036   9.555  0.6089  0.7222  0.7253
15297SOL    HW248334   5.753   6.161   9.532 -0.2555  0.1441  0.6353
15298SOL     OW48335  10.375   1.502   2.811  0.4707 -0.2204 -0.6431
15298SOL    HW148336  10.287   1.535   2.825  0.2789 -1.1349  0.4996
15298SOL    HW248337  10.374   1.414   2.848  2.4365  0.5249  1.4551
15299SOL     OW48338   3.773   6.675   5.579 -0.3457 -0.8054  0.2842
15299SOL    HW148339   3.815   6.595   5.610  0.2930 -1.9049 -3.0168
15299SOL    HW248340   3.704   6.645   5.520 -1.4594  1.0910  0.5278
15300SOL     OW48341   2.992  10.297   5.893  0.8090  0.1987  0.1258
15300SOL    HW148342   3.013  10.369   5.953 -0.7732  0.0748  0.8632
15300SOL    HW248343   2.903  10.314   5.864  0.7608 -0.9397 -0.4659
15301SOL     OW48344  10.239   9.379   3.706  0.4575 -0.1337 -0.3455
15301SOL    HW148345  10.319   9.327   3.703  0.5282 -0.0911  0.6584
15301SOL    HW248346  10.173   9.319   3.740  0.0453 -0.1701 -1.1723
15302SOL     OW48347   4.951   3.053   7.416  0.4628 -0.0906 -1.4245
15302SOL    HW148348   5.035   3.087   7.446  0.2412 -0.5038 -0.2590
15302SOL    HW248349   4.971   3.006   7.335  1.0074  1.5050 -2.2576
15303SOL     OW48350   6.427   9.858   5.550  0.8083 -0.2001 -0.1202
15303SOL    HW148351   6.498   9.901   5.598 -1.0496  2.0406  0.8399
15303SOL    HW248352   6.439   9.885   5.459  0.7525  0.8305  0.1692
15304SOL     OW48353   0.765   6.112  10.017 -0.6471  0.1274  0.4178
15304SOL    HW148354   0.840   6.054  10.005  0.2630  0.9249  2.0466
15304SOL    HW248355   0.710   6.067  10.081 -0.0383  0.9307  1.5320
15305SOL     OW48356   8.791   7.610   3.173 -0.0517  0.1253 -0.9158
15305SOL    HW148357   8.697   7.611   3.188 -0.2367 -2.1538 -1.4768
15305SOL    HW248358   8.826   7.676   3.232 -1.8243 -0.3721  0.7798
15306SOL     OW48359   3.110   9.165   1.228  0.2371  0.2241  0.4377
15306SOL    HW148360   3.018   9.155   1.252  0.2182  1.1358  0.8008
15306SOL    HW248361   3.118   9.122   1.143 -0.1628 -1.2494  1.1176
15307SOL     OW48362   9.565   6.893   6.048 -0.3551  0.0081 -0.0042
15307SOL    HW148363   9.544   6.956   6.116  0.0749 -1.0725  1.1723
15307SOL    HW248364   9.608   6.944   5.979  1.9038  0.7057  1.8250
15308SOL     OW48365   2.614   5.991   5.028  0.6225 -0.6865  0.0738
15308SOL    HW148366   2.651   5.992   4.939  2.2260 -2.4097  0.6442
15308SOL    HW248367   2.551   5.919   5.027  0.5135 -0.5946  0.2868
15309SOL     OW48368   0.473   1.774   7.233  0.1170  0.4451 -0.4149
15309SOL    HW148369   0.567   1.764   7.215  0.7735 -0.3460  2.8051
15309SOL    HW248370   0.456   1.868   7.220  1.2110  0.5013 -1.5663
15310SOL     OW48371   1.909  10.131   0.081 -0.0837  0.3673  0.2930
15310SOL    HW148372   1.953  10.128   0.166  1.0791 -0.7891 -0.3206
15310SOL    HW248373   1.879  10.042   0.066 -1.5133  0.8567  0.0870
15311SOL     OW48374   9.723   1.279   2.186  0.6455  0.3756 -0.1866
15311SOL    HW148375   9.697   1.350   2.127 -1.2955 -1.1474 -1.2771
15311SOL    HW248376   9.649   1.219   2.186  2.5066 -2.0644  0.0902
15312SOL     OW48377   3.379   4.906   9.836 -0.3035 -0.5425 -0.2345
15312SOL    HW148378   3.390   4.837   9.902  0.0472 -1.4534 -1.2323
15312SOL    HW248379   3.466   4.915   9.796 -0.7626 -0.7718 -1.3135
15313SOL     OW48380   7.022   2.866   1.800  0.2737  0.0240  0.1897
15313SOL    HW148381   7.073   2.924   1.856  0.4310  1.2755 -1.2022
15313SOL    HW248382   6.952   2.921   1.765 -0.1905 -0.8832 -0.3476
15314SOL     OW48383   0.087   3.277   1.246 -0.1814 -0.2506  0.2408
15314SOL    HW148384   0.042   3.208   1.198 -0.9512 -0.1426  0.8026
15314SOL    HW248385   0.085   3.352   1.186 -0.1938 -0.4287  0.0159
15315SOL     OW48386   9.943   3.310   2.002  0.0426  0.1850 -0.1430
15315SOL    HW148387   9.868   3.324   1.944  0.7288  0.4506 -0.9919
15315SOL    HW248388   9.935   3.378   2.069 -0.0272  0.7309 -0.7009
15316SOL     OW48389   3.751   3.930   7.588  0.4899 -0.7452  0.0635
15316SOL    HW148390   3.819   3.996   7.578 -0.0967 -0.1558 -0.1527
15316SOL    HW248391   3.712   3.923   7.501  0.1495 -0.9306  0.2293
15317SOL     OW48392   6.121   2.518   0.401 -0.5710 -0.0708 -0.2261
15317SOL    HW148393   6.095   2.480   0.317  0.7929  0.5805 -0.9894
15317SOL    HW248394   6.209   2.552   0.385  0.6714 -1.8906  2.0986
15318SOL     OW48395   9.270   1.618   2.232 -0.0502  0.0676  0.3362
15318SOL    HW148396   9.362   1.645   2.234 -0.3722  1.4165 -0.8640
15318SOL    HW248397   9.255   1.593   2.141 -0.3219 -2.3850  0.9833
15319SOL     OW48398   3.177   6.922   6.461 -0.2214 -0.1038 -0.6608
15319SOL    HW148399   3.192   6.972   6.542 -0.0810 -0.7998 -0.2417
15319SOL    HW248400   3.082   6.918   6.453 -0.2912  2.5638 -2.2037
15320SOL     OW48401   3.544   6.085   4.353  0.4733  0.0957 -0.2784
15320SOL    HW148402   3.583   6.027   4.288 -2.2681  0.3086 -2.3022
15320SOL    HW248403   3.566   6.173   4.323  0.8219  0.1787  0.2088
15321SOL     OW48404   1.968   8.669   4.107  0.6147  0.0631 -0.2553
15321SOL    HW148405   1.965   8.576   4.088 -1.4557 -0.0235  0.1532
15321SOL    HW248406   2.012   8.708   4.032  1.9988 -1.2753 -0.1771
15322SOL     OW48407   5.747   2.890   2.240  0.1910  0.7466  0.3764
15322SOL    HW148408   5.841   2.900   2.225 -0.0632  1.7683 -0.6225
15322SOL    HW248409   5.706   2.947   2.175 -1.1935 -1.4899 -0.8445
15323SOL     OW48410   9.047  10.337   8.292  0.2224 -0.3860  0.4808
15323SOL    HW148411   8.993  10.280   8.347  0.0763  0.3228  1.0830
15323SOL    HW248412   9.100  10.388   8.354  0.7282 -0.2340 -0.0660
15324SOL     OW48413  10.452   3.918   8.962  0.3895  0.0543 -0.2137
15324SOL    HW148414  10.530   3.973   8.948 -1.7477  3.3066 -0.4730
15324SOL    HW248415  10.421   3.942   9.049 -1.8522  1.0997 -1.2069
15325SOL     OW48416   2.196   5.028   0.207 -0.2230  0.1938 -0.2738
15325SOL    HW148417   2.156   5.080   0.137 -0.8814 -1.4346 -1.1828
15325SOL    HW248418   2.123   5.002   0.263 -0.0203 -0.3761 -0.2683
15326SOL     OW48419   9.315   6.190   8.705  0.4955  0.2636 -0.5988
15326SOL    HW148420   9.239   6.189   8.763  0.2713 -0.9313 -0.8805
15326SOL    HW248421   9.375   6.253   8.744 -0.3777  0.7564 -0.0277
15327SOL     OW48422   3.647   2.361   9.593 -0.4737 -0.5190  0.2779
15327SOL    HW148423   3.637   2.281   9.644  0.3040 -0.0708  1.1524
15327SOL    HW248424   3.599   2.427   9.643  1.2109  0.1690  1.0353
15328SOL     OW48425   8.225   0.522   0.290 -0.0342  0.4281 -0.7229
15328SOL    HW148426   8.266   0.442   0.258 -0.3978  0.0586 -0.2879
15328SOL    HW248427   8.207   0.573   0.211 -2.5716 -1.2460 -1.3364
15329SOL     OW48428   9.084   2.014   2.061  0.0470  0.4954  0.5807
15329SOL    HW148429   9.170   2.000   2.022 -0.5827  0.6599 -0.9033
15329SOL    HW248430   9.098   2.083   2.126  0.9604  0.7907  0.0863
15330SOL     OW48431   0.747   3.654   4.607  0.1633 -0.6528  0.3632
15330SOL    HW148432   0.796   3.578   4.639 -0.6427 -2.0144 -1.4346
15330SOL    HW248433   0.699   3.685   4.684  2.3166 -0.4450  1.7109
15331SOL     OW48434   2.767   7.275   8.919  0.0587 -0.1529 -0.2638
15331SOL    HW148435   2.715   7.255   8.842 -0.0880  1.1870 -0.5322
15331SOL    HW248436   2.856   7.287   8.887  0.2949 -1.0996  0.0044
15332SOL     OW48437   7.631   8.794   4.305 -0.2368 -0.0174 -0.0143
15332SOL    HW148438   7.590   8.749   4.231 -0.4967  0.2269 -0.0219
15332SOL    HW248439   7.635   8.728   4.374 -1.1260  0.0943  0.1581
15333SOL     OW48440  10.402   1.143   1.703 -0.4378  0.1448  0.4962
15333SOL    HW148441  10.435   1.068   1.654  0.1176  1.2874 -0.9425
15333SOL    HW248442  10.330   1.108   1.755 -0.5933 -1.2512 -0.6052
15334SOL     OW48443   0.563   0.756   0.328  0.7895  0.1359  0.1656
15334SOL    HW148444   0.633   0.749   0.393  1.1678 -0.3243 -0.2842
15334SOL    HW248445   0.608   0.768   0.245  0.4736 -2.5981 -0.4931
15335SOL     OW48446   0.306   0.532   1.093 -0.3410  0.2584  0.3133
15335SOL    HW148447   0.225   0.505   1.136 -0.7118  0.8413 -0.0071
15335SOL    HW248448   0.302   0.492   1.006  0.1122 -0.3991  0.5861
15336SOL     OW48449   2.554   0.465   9.512  0.3028 -0.5569 -0.0398
15336SOL    HW148450   2.476   0.520   9.512  0.9060  0.3713  1.8770
15336SOL    HW248451   2.520   0.376   9.509 -0.7482 -0.1496 -1.1779
15337SOL     OW48452   8.521   3.855   7.176  0.3925  0.1179 -0.3047
15337SOL    HW148453   8.586   3.798   7.135 -0.1299 -1.0986  0.4875
15337SOL    HW248454   8.459   3.794   7.218 -1.6750  1.1937 -1.6221
15338SOL     OW48455   1.205   0.515   7.563 -0.2692  0.4304 -0.5852
15338SOL    HW148456   1.255   0.540   7.485 -1.3712  1.5588 -0.9562
15338SOL    HW248457   1.181   0.424   7.548  0.3491  0.3423 -1.1050
15339SOL     OW48458   7.923   2.297   1.622 -0.3739 -0.9831  0.2067
15339SOL    HW148459   7.877   2.300   1.538 -2.0656  1.8466  1.1032
15339SOL    HW248460   8.000   2.353   1.610 -0.8509 -0.2149  0.6066
15340SOL     OW48461   6.874   5.504   9.093  0.5720  0.2115 -0.1127
15340SOL    HW148462   6.866   5.590   9.053  2.0524  0.0919 -0.7567
15340SOL    HW248463   6.796   5.495   9.148 -0.3954  1.3005 -1.2519
15341SOL     OW48464   9.937   3.439   3.430  0.5491  0.1746  0.0004
15341SOL    HW148465   9.903   3.528   3.417 -0.4016 -0.2450 -0.4856
15341SOL    HW248466  10.027   3.443   3.398 -0.0925  0.4896 -1.8578
15342SOL     OW48467   0.050   8.321   5.331  0.2917  0.1103 -0.2482
15342SOL    HW148468   0.070   8.302   5.240  0.3918 -0.8394 -0.0367
15342SOL    HW248469   0.132   8.309   5.378 -0.2485 -1.8545  0.3194
15343SOL     OW48470   8.497   5.917   3.656  0.8751 -0.0350  0.5748
15343SOL    HW148471   8.551   5.842   3.680 -0.3860 -0.2975  2.9158
15343SOL    HW248472   8.428   5.919   3.722 -0.6308  1.6763 -0.9292
15344SOL     OW48473   3.963   0.853   3.268 -0.6631 -0.1659  0.2080
15344SOL    HW148474   4.002   0.932   3.231 -0.1301 -1.2650 -1.7167
15344SOL    HW248475   4.027   0.821   3.331 -1.0493  1.1028  1.2739
15345SOL     OW48476   5.905   4.052   8.631 -0.3243  0.1164 -0.3912
15345SOL    HW148477   5.932   4.029   8.542  2.6206 -0.0022  0.4238
15345SOL    HW248478   5.980   4.027   8.686 -1.2206  2.0318  1.8735
15346SOL     OW48479   8.232   9.901   0.032 -0.0016  0.5823 -0.1501
15346SOL    HW148480   8.323   9.924   0.019  0.6331 -0.4768  1.8628
15346SOL    HW248481   8.232   9.848   0.112 -2.2954  0.0176 -0.4399
15347SOL     OW48482   0.050   3.219  10.367 -0.1483  0.4743  0.3298
15347SOL    HW148483   0.094   3.300  10.391  1.3117 -0.2915  0.3861
15347SOL    HW248484   0.040   3.224  10.272  0.0293  0.6850  0.3219
15348SOL     OW48485   9.880   5.664   5.631 -0.5068 -0.4773 -0.4463
15348SOL    HW148486   9.968   5.666   5.669 -0.9591 -0.9964  0.6527
15348SOL    HW248487   9.822   5.645   5.705 -1.2804 -3.0167 -1.6152
15349SOL     OW48488   3.631   3.641   3.465  0.1421  0.0159  0.3145
15349SOL    HW148489   3.545   3.672   3.494  0.2675  1.1878 -0.5007
15349SOL    HW248490   3.614   3.602   3.379  0.2486 -0.8084  0.6580
15350SOL     OW48491   8.686   0.149   3.497 -0.2919  0.3420 -0.1347
15350SOL    HW148492   8.676   0.077   3.559  1.2364  0.4875  0.3173
15350SOL    HW248493   8.628   0.217   3.531  0.1628  0.2430  0.8806
15351SOL     OW48494   7.065   1.740   8.636 -0.4387 -0.0751  0.2084
15351SOL    HW148495   7.107   1.657   8.616  0.8935  0.4764  0.5539
15351SOL    HW248496   7.024   1.768   8.554 -0.6093 -0.9072  0.0079
15352SOL     OW48497   8.181   2.515   4.260 -0.5436  0.5033 -0.1168
15352SOL    HW148498   8.249   2.486   4.199 -0.6798 -1.7761  0.6975
15352SOL    HW248499   8.199   2.608   4.275  2.5609 -0.0463  0.2573
15353SOL     OW48500   1.647  10.149   5.337  0.1685 -0.2199 -0.4771
15353SOL    HW148501   1.635  10.055   5.355 -1.3525 -0.0756 -0.6202
15353SOL    HW248502   1.694  10.152   5.254  2.0333 -0.8466  0.4940
15354SOL     OW48503   7.649   5.092   4.997  0.1902  0.3689  0.1373
15354SOL    HW148504   7.684   5.054   4.916  2.8867 -0.5907  1.6285
15354SOL    HW248505   7.568   5.134   4.970  0.3859 -0.8902 -2.8481
15355SOL     OW48506   7.428   0.821   2.675 -0.1701 -0.0139 -0.1539
15355SOL    HW148507   7.382   0.900   2.646 -0.7047 -0.4482 -0.4997
15355SOL    HW248508   7.509   0.854   2.715 -0.0195  0.6646 -0.9931
15356SOL     OW48509   3.322   7.113   2.058 -0.4667  0.0965 -0.4470
15356SOL    HW148510   3.247   7.172   2.048  1.0265  2.7855  2.3256
15356SOL    HW248511   3.383   7.142   1.990 -0.5490  0.3176 -0.4297
15357SOL     OW48512   8.936   3.197   8.758 -0.7836 -0.1771 -0.0099
15357SOL    HW148513   9.020   3.152   8.768  0.7342  2.0408 -1.7995
15357SOL    HW248514   8.906   3.212   8.848  0.1213 -2.0407  0.6489
15358SOL     OW48515   7.565   8.049   4.158 -0.0308  0.3562  0.7337
15358SOL    HW148516   7.579   8.101   4.237  1.0983  0.7051  0.3177
15358SOL    HW248517   7.648   8.004   4.143 -1.2136 -2.3764  1.6040
15359SOL     OW48518   7.352  10.146   1.275 -0.4620 -0.3219  0.4555
15359SOL    HW148519   7.341  10.154   1.370 -0.1044  0.3115  0.4454
15359SOL    HW248520   7.265  10.166   1.239 -0.1681  1.2642  0.5620
15360SOL     OW48521  10.062   4.420  10.447  0.0914  0.4022 -0.1974
15360SOL    HW148522  10.012   4.423  10.529  1.7701  1.2949  0.8542
15360SOL    HW248523  10.154   4.425  10.475  0.7695 -0.5531 -2.0818
15361SOL     OW48524   7.142   1.998   5.094 -0.7819  0.7069 -0.5466
15361SOL    HW148525   7.141   2.093   5.087 -1.4196  0.6982 -0.6419
15361SOL    HW248526   7.142   1.967   5.003  0.6362  0.6039 -0.5441
15362SOL     OW48527   0.916   0.564   3.343 -0.2128 -0.1229  0.1394
15362SOL    HW148528   0.956   0.579   3.257 -0.7808  0.8934  0.0328
15362SOL    HW248529   0.938   0.643   3.393 -0.3596 -0.4625  0.7446
15363SOL     OW48530   2.018   4.082   9.412 -0.1544 -0.3065  0.0647
15363SOL    HW148531   1.958   4.084   9.486 -0.1710  1.8552  0.0549
15363SOL    HW248532   2.104   4.068   9.450 -0.1625  0.8084  0.5260
15364SOL     OW48533   5.643  10.405   9.286  0.3819  0.3100 -0.0711
15364SOL    HW148534   5.584  10.356   9.343  0.0062  0.8606  0.0279
15364SOL    HW248535   5.601  10.402   9.200  0.4046  0.3671 -0.0839
15365SOL     OW48536   7.158   1.313   9.204  0.0363  0.4295 -0.0555
15365SOL    HW148537   7.176   1.391   9.256 -0.1335 -0.9310  2.2010
15365SOL    HW248538   7.140   1.245   9.269  1.0815 -1.7155 -1.8699
15366SOL     OW48539   5.588   5.510   6.867 -0.4003 -0.5040  0.6040
15366SOL    HW148540   5.666   5.477   6.822 -0.5456 -1.7425  1.2160
15366SOL    HW248541   5.549   5.432   6.906 -0.8864  0.3866  1.9373
15367SOL     OW48542   3.804   2.920   2.860  0.0268 -0.0779 -0.5016
15367SOL    HW148543   3.806   2.836   2.906 -0.0498  0.2156  0.0546
15367SOL    HW248544   3.887   2.924   2.814  0.2692 -0.2103 -0.0768
15368SOL     OW48545   6.548   0.884   0.120  0.1127 -0.0275 -0.5106
15368SOL    HW148546   6.577   0.970   0.090 -1.4170  0.9196  0.5688
15368SOL    HW248547   6.505   0.844   0.045  3.1699 -1.0930 -1.8766
15369SOL     OW48548   1.237   6.628   3.335 -0.9865  0.2187 -0.5004
15369SOL    HW148549   1.162   6.610   3.391 -1.6534 -1.0412 -1.7490
15369SOL    HW248550   1.304   6.566   3.362 -0.8325  0.5048 -0.2197
15370SOL     OW48551   3.133   5.514   9.016 -0.4803  0.1396  0.0991
15370SOL    HW148552   3.113   5.572   8.942 -1.6577  0.8318  0.9370
15370SOL    HW248553   3.133   5.426   8.978 -2.8261  0.3048 -0.4490
15371SOL     OW48554   6.383   6.806   6.376  0.3889 -0.0236  0.4085
15371SOL    HW148555   6.469   6.844   6.395  0.1806  0.0603  1.2103
15371SOL    HW248556   6.360   6.842   6.290  1.0506  0.1343  0.2887
15372SOL     OW48557   2.639   5.044   6.999  0.2300  0.1225  0.0842
15372SOL    HW148558   2.585   5.001   6.934 -0.1846  0.0758  0.4556
15372SOL    HW248559   2.578   5.094   7.053  0.7519  1.6263 -0.6654
15373SOL     OW48560   5.498   2.442   8.719  0.0184  0.9907  0.3622
15373SOL    HW148561   5.458   2.468   8.802 -0.3263 -0.6295  0.7386
15373SOL    HW248562   5.456   2.359   8.697 -1.8081  2.5602 -2.7895
15374SOL     OW48563   2.833   1.293   8.646 -0.1373 -0.2048  0.1753
15374SOL    HW148564   2.759   1.354   8.642 -0.8081 -1.0174  0.0033
15374SOL    HW248565   2.798   1.210   8.615  1.1429 -0.3307 -1.0957
15375SOL     OW48566   9.970   4.283   5.249  0.2889  0.0327 -0.0691
15375SOL    HW148567   9.878   4.290   5.223  0.3006  2.2978  0.3038
15375SOL    HW248568   9.977   4.336   5.328  2.1697  0.9515 -0.7946
15376SOL     OW48569   4.707   8.853  10.327  0.3931  0.2558  0.4115
15376SOL    HW148570   4.621   8.895  10.319  0.5095  0.5653  0.7722
15376SOL    HW248571   4.691   8.776  10.381  0.0709 -0.4933 -0.7089
15377SOL     OW48572   0.856   2.061   9.924 -0.2176 -0.1892  0.4757
15377SOL    HW148573   0.932   2.016   9.888 -0.9078 -0.6157 -0.4774
15377SOL    HW248574   0.893   2.128   9.982  0.8504 -0.9863  0.7366
15378SOL     OW48575   1.247   8.580   2.936  0.8740 -0.3652 -0.3883
15378SOL    HW148576   1.321   8.633   2.966  1.5229  0.1204 -2.6928
15378SOL    HW248577   1.192   8.642   2.888 -0.9048 -0.8006  0.9754
15379SOL     OW48578   5.936   1.330   0.305 -0.3527 -0.3667  0.1083
15379SOL    HW148579   5.912   1.240   0.288 -0.8069 -0.2089 -0.0849
15379SOL    HW248580   5.862   1.382   0.273 -0.8179 -0.0138  1.6903
15380SOL     OW48581   0.846   8.951   3.960 -0.0618 -0.1944  0.3858
15380SOL    HW148582   0.840   8.872   4.012 -2.3288  0.2074  0.8592
15380SOL    HW248583   0.857   9.022   4.024  0.5749  0.0149  0.0589
15381SOL     OW48584   2.574   0.526   4.400  0.7010  0.0312  0.8601
15381SOL    HW148585   2.667   0.526   4.379  0.3472  1.8283 -0.9650
15381SOL    HW248586   2.556   0.437   4.431  2.7301 -0.7229  0.0028
15382SOL     OW48587   4.068   9.493   2.980 -0.1096 -0.1592  0.8963
15382SOL    HW148588   4.134   9.523   3.043  0.1871  0.7817  0.1719
15382SOL    HW248589   3.992   9.548   2.997  0.8670  2.1026 -1.3026
15383SOL     OW48590   1.599   8.116   0.484 -0.2841  0.0069 -0.1291
15383SOL    HW148591   1.639   8.176   0.547  1.8002 -0.8032 -0.5964
15383SOL    HW248592   1.508   8.109   0.512  0.2432  0.7470  1.9715
15384SOL     OW48593   1.532  10.400   5.387 -0.0989  0.4684 -0.0505
15384SOL    HW148594   1.552  10.307   5.379 -0.0519  0.2863  1.7965
15384SOL    HW248595   1.444  10.403   5.424 -0.2316  1.1728 -0.4075
15385SOL     OW48596   8.660   8.057   6.190 -0.5851  0.1081 -0.1991
15385SOL    HW148597   8.652   7.967   6.221  0.2424  0.3939  0.9069
15385SOL    HW248598   8.605   8.108   6.250 -0.9276  0.3605 -0.7247
15386SOL     OW48599   9.351   7.341   4.530  0.7047  0.1005  0.2216
15386SOL    HW148600   9.367   7.246   4.536  0.1500 -0.0831 -0.9096
15386SOL    HW248601   9.433   7.377   4.497  1.1299  0.1119  1.2497
15387SOL     OW48602   1.992   3.369   0.039 -0.1563  0.4503 -0.1670
15387SOL    HW148603   2.065   3.416  -0.000 -0.7589 -0.2766 -2.3193
15387SOL    HW248604   1.928   3.361  -0.032 -0.7653 -2.1465  0.5521
15388SOL     OW48605   7.266   0.977   0.116  0.4348 -0.5154  0.1332
15388SOL    HW148606   7.336   0.989   0.180 -0.7595 -0.6676  1.5285
15388SOL    HW248607   7.224   1.063   0.111  0.2961 -0.6021 -0.1827
15389SOL     OW48608   5.374   5.372   6.296 -0.4945 -0.1421 -0.3308
15389SOL    HW148609   5.325   5.378   6.214 -2.4544  0.2913  0.8085
15389SOL    HW248610   5.318   5.320   6.354 -0.5677  1.9841  1.6535
15390SOL     OW48611   8.527   3.952   0.121 -0.2054 -0.0132  0.3405
15390SOL    HW148612   8.435   3.965   0.096 -0.2018 -0.4367  0.0904
15390SOL    HW248613   8.555   3.877   0.069  0.0289 -0.4453  1.0785
15391SOL     OW48614   6.287   4.512   3.217  0.0082 -0.3289  0.3896
15391SOL    HW148615   6.248   4.450   3.280  0.0880 -1.3976 -0.5787
15391SOL    HW248616   6.232   4.505   3.139  1.2384 -0.7420 -0.4703
15392SOL     OW48617   0.358   0.131   9.430 -0.1369  0.1310  0.0746
15392SOL    HW148618   0.449   0.131   9.400  0.4554  3.9554  1.3432
15392SOL    HW248619   0.362   0.101   9.521  0.4122  2.7443  1.0168
15393SOL     OW48620   7.507   2.193   4.927 -0.2186 -0.2412  0.2184
15393SOL    HW148621   7.467   2.212   5.012 -1.0770  3.0635 -0.7488
15393SOL    HW248622   7.434   2.161   4.873 -0.7049  1.6492 -0.3372
15394SOL     OW48623   6.464   8.983   5.820 -0.4925  0.2869 -0.3820
15394SOL    HW148624   6.385   8.979   5.766 -1.2793  0.6685  0.6962
15394SOL    HW248625   6.444   9.049   5.886 -0.2763 -1.3478  1.4270
15395SOL     OW48626  10.183   2.956   8.775 -0.2950  0.2901  0.2386
15395SOL    HW148627  10.100   2.937   8.819 -0.1438  0.4487  0.5996
15395SOL    HW248628  10.170   3.042   8.735  0.2953  1.1759  1.8482
15396SOL     OW48629   5.534   7.998   1.826  0.0888 -0.0825  0.0396
15396SOL    HW148630   5.527   7.911   1.865 -1.1078  0.3596  0.8517
15396SOL    HW248631   5.509   7.986   1.735  0.1093 -0.6103  0.1023
15397SOL     OW48632   3.354   8.266   2.612 -0.0921  0.4611  0.4333
15397SOL    HW148633   3.304   8.204   2.560 -1.7206  1.3248  0.9100
15397SOL    HW248634   3.354   8.346   2.560  1.2096  0.3587  0.2382
15398SOL     OW48635   8.303   3.312   9.784  0.2504  0.1670  0.2768
15398SOL    HW148636   8.396   3.323   9.804  0.1010  0.6184  0.7448
15398SOL    HW248637   8.298   3.313   9.688  0.8214 -0.6612  0.2278
15399SOL     OW48638   5.288   7.144   6.256 -0.4815  0.3718 -0.3588
15399SOL    HW148639   5.376   7.126   6.288 -0.2071  1.9149 -0.1836
15399SOL    HW248640   5.291   7.234   6.224 -1.9507  0.4089 -0.4868
15400SOL     OW48641   7.035   0.796  10.018 -0.6868  0.0112 -0.0892
15400SOL    HW148642   7.045   0.738  10.093 -0.6598 -0.6523 -0.5943
15400SOL    HW248643   7.062   0.882  10.050  1.3579 -0.6438  0.1098
15401SOL     OW48644   5.659   2.447   9.359  0.1336 -0.0564  0.2792
15401SOL    HW148645   5.693   2.426   9.446  0.7487  1.1166  0.3471
15401SOL    HW248646   5.733   2.487   9.314 -0.4694  0.2659 -0.4339
15402SOL     OW48647   1.213   5.505   8.226  0.0506  0.7854 -0.2979
15402SOL    HW148648   1.261   5.436   8.180 -0.9701 -0.2621  0.1597
15402SOL    HW248649   1.254   5.586   8.197  1.0681  0.0077 -1.1044
15403SOL     OW48650   6.739   1.239   8.916 -0.7119 -0.2580  0.5390
15403SOL    HW148651   6.716   1.309   8.976 -0.0735  1.0738 -0.7144
15403SOL    HW248652   6.830   1.218   8.938 -0.8015 -0.4761  0.7033
15404SOL     OW48653   3.461   4.999   0.607  0.4017  0.1910  0.0906
15404SOL    HW148654   3.403   5.000   0.531  0.5180 -0.5778 -0.0073
15404SOL    HW248655   3.402   5.012   0.682  0.1099 -0.4789 -0.0153
15405SOL     OW48656   3.139   7.294   3.851  0.3191 -0.6893  0.0710
15405SOL    HW148657   3.160   7.203   3.832  0.9038 -0.2741 -1.3959
15405SOL    HW248658   3.204   7.321   3.916 -0.4867 -1.5770  1.2954
15406SOL     OW48659   1.094   0.761   2.065 -0.0731  0.2859  0.2727
15406SOL    HW148660   1.006   0.800   2.059 -0.6745 -1.0329  0.1570
15406SOL    HW248661   1.106   0.716   1.982 -0.9314 -2.7935  1.6535
15407SOL     OW48662   2.114   3.698   8.498  0.5629 -0.0770 -0.8362
15407SOL    HW148663   2.195   3.747   8.508  0.6693 -0.3169 -0.4906
15407SOL    HW248664   2.056   3.734   8.565 -0.0682  0.9805 -1.9132
15408SOL     OW48665   7.330   5.796   5.493 -0.2563  0.1128 -0.2979
15408SOL    HW148666   7.323   5.859   5.421  0.2193 -0.2068 -0.6277
15408SOL    HW248667   7.399   5.736   5.466  1.0391  0.9041  1.1409
15409SOL     OW48668   0.969   2.767   2.748  0.0325  0.4881  0.1281
15409SOL    HW148669   0.935   2.856   2.760  0.1974  0.3332  2.0682
15409SOL    HW248670   0.892   2.711   2.762  0.1302  0.2994 -0.1015
15410SOL     OW48671   8.184  10.469   7.028  0.1307  0.4753 -0.3802
15410SOL    HW148672   8.185  10.565   7.027  0.5903  0.4748 -1.4121
15410SOL    HW248673   8.221  10.445   7.113  1.9572  1.2179 -0.9122
15411SOL     OW48674   6.429  10.221   9.194  0.5487  0.2510  0.1103
15411SOL    HW148675   6.384  10.149   9.238 -0.9788 -0.0500 -1.8248
15411SOL    HW248676   6.409  10.298   9.247 -1.8380  0.0227 -0.3731
15412SOL     OW48677   1.952   3.844   1.441 -0.1725  0.0202 -0.0686
15412SOL    HW148678   1.863   3.872   1.461  0.1302  0.5213  0.6379
15412SOL    HW248679   1.997   3.844   1.526 -0.0138 -2.1660 -0.0902
15413SOL     OW48680   1.150   6.384   1.073 -0.0277 -0.3421 -0.2316
15413SOL    HW148681   1.240   6.362   1.047 -0.2536  0.9613 -2.4516
15413SOL    HW248682   1.129   6.322   1.143  1.6189 -2.5564 -1.5472
15414SOL     OW48683   3.929   7.847   1.109  0.0513 -0.4574 -0.5128
15414SOL    HW148684   4.008   7.892   1.080  1.6008 -1.3917  1.9441
15414SOL    HW248685   3.935   7.760   1.071  0.4427 -0.6696  0.0310
15415SOL     OW48686   8.559   8.088   9.817  0.3165 -0.1046  0.0890
15415SOL    HW148687   8.605   8.079   9.900  0.1339  0.1853  0.2233
15415SOL    HW248688   8.581   8.176   9.786 -0.9186  0.4268  0.6363
15416SOL     OW48689   6.397   7.029   2.285 -0.5843  0.4206  0.4542
15416SOL    HW148690   6.475   7.085   2.284 -0.9484  0.9451 -0.9666
15416SOL    HW248691   6.339   7.072   2.348 -0.7326  1.4973 -0.3811
15417SOL     OW48692  10.106   7.596   1.808  0.1019 -0.1490  0.5694
15417SOL    HW148693  10.047   7.533   1.766  0.6752 -1.1742  1.2437
15417SOL    HW248694  10.066   7.611   1.894 -0.2921  0.8056  0.2300
15418SOL     OW48695   7.491   7.148   3.546 -0.0065 -0.2340 -0.1401
15418SOL    HW148696   7.410   7.097   3.545 -1.9266  2.5424 -1.3174
15418SOL    HW248697   7.475   7.218   3.482  3.9562 -0.3852 -1.5627
15419SOL     OW48698   6.552   6.654   9.402  0.3409  0.3659 -0.2080
15419SOL    HW148699   6.602   6.728   9.366  0.1617 -0.6994 -2.8451
15419SOL    HW248700   6.463   6.688   9.410  0.5984  0.9477  0.2880
15420SOL     OW48701   6.199   7.319   4.101  0.3563 -0.1447 -0.3330
15420SOL    HW148702   6.112   7.357   4.112  0.1480 -0.6024 -0.3731
15420SOL    HW248703   6.255   7.370   4.160  0.0455  0.1011 -0.2468
15421SOL     OW48704   1.472   6.886   7.559  0.1357 -0.3692  0.5261
15421SOL    HW148705   1.508   6.814   7.507  0.6364  1.4682 -1.8712
15421SOL    HW248706   1.543   6.950   7.564 -0.7427  0.5784  1.3463
15422SOL     OW48707   6.153   5.965   3.628 -0.3962  0.1728 -0.3510
15422SOL    HW148708   6.111   5.927   3.704  0.0269 -0.9152 -0.6382
15422SOL    HW248709   6.247   5.962   3.648 -0.2676 -0.2813 -0.9661
15423SOL     OW48710   5.318   4.403   9.991 -0.3195 -0.1758  0.1622
15423SOL    HW148711   5.273   4.333   9.944 -1.6208  0.3451  0.5858
15423SOL    HW248712   5.334   4.470   9.925  0.3684 -0.5906 -0.1089
15424SOL     OW48713   2.779   4.242   0.906 -1.0749  0.5120 -0.8441
15424SOL    HW148714   2.823   4.311   0.857 -0.8473  2.0176  1.3218
15424SOL    HW248715   2.688   4.244   0.876 -0.7674  0.7869 -1.7781
15425SOL     OW48716   3.326   3.134   3.168  0.0007 -0.3361  0.2234
15425SOL    HW148717   3.326   3.225   3.139  0.4117 -0.2628  0.4399
15425SOL    HW248718   3.240   3.121   3.208 -0.7099 -0.5306 -1.2813
15426SOL     OW48719  10.266   6.891   7.331  0.3829  0.2273 -0.4817
15426SOL    HW148720  10.255   6.956   7.262 -1.2131 -0.2753 -0.7366
15426SOL    HW248721  10.190   6.903   7.388  1.5985  0.5532  1.1598
15427SOL     OW48722   5.496   7.094   8.811 -0.4828  0.1750  0.2956
15427SOL    HW148723   5.555   7.021   8.827 -0.4719  0.7065  3.2845
15427SOL    HW248724   5.554   7.170   8.804 -0.5043  0.0472 -2.6558
15428SOL     OW48725   6.388   6.309   0.983 -0.4101 -0.2457  0.0472
15428SOL    HW148726   6.480   6.310   1.009 -0.1036 -0.9566 -0.9426
15428SOL    HW248727   6.363   6.401   0.980  0.2472 -0.0523  0.3991
15429SOL     OW48728   6.198   2.239   0.153  0.1105 -0.2284 -0.1094
15429SOL    HW148729   6.198   2.183   0.230  0.2376  0.0614  0.1034
15429SOL    HW248730   6.258   2.197   0.092  2.1648  0.9579  0.9917
15430SOL     OW48731   6.226   1.782   1.703  0.6929 -0.2722 -0.0404
15430SOL    HW148732   6.246   1.707   1.648 -1.2420 -0.0460 -1.1220
15430SOL    HW248733   6.134   1.771   1.728  0.8409  0.8697  1.1883
15431SOL     OW48734   1.090   9.613   4.184  0.4788  0.3837  0.0824
15431SOL    HW148735   1.011   9.652   4.146  0.2324  0.1395  0.3407
15431SOL    HW248736   1.112   9.668   4.259  1.1794  1.0851 -0.6182
15432SOL     OW48737   2.856   4.690   0.447 -0.0867  0.3073  0.3356
15432SOL    HW148738   2.895   4.775   0.470  0.5286  0.4069 -0.9876
15432SOL    HW248739   2.921   4.648   0.391 -1.3719 -0.0218 -0.9695
15433SOL     OW48740  10.327   9.322   9.512 -0.0254  0.0738  0.2071
15433SOL    HW148741  10.354   9.402   9.558  0.4319  0.6997 -1.0968
15433SOL    HW248742  10.378   9.252   9.553  1.7267  0.8707 -0.4860
15434SOL     OW48743   3.997   0.378   4.170 -0.9238  0.5119 -0.1105
15434SOL    HW148744   3.929   0.422   4.119 -1.0674  0.3179 -0.0910
15434SOL    HW248745   3.951   0.306   4.214 -0.6276  0.1066 -0.4473
15435SOL     OW48746   9.973   4.560   4.381 -0.2408 -0.2601  0.0234
15435SOL    HW148747  10.043   4.625   4.378  0.0049 -0.5644 -2.3520
15435SOL    HW248748  10.019   4.476   4.390 -0.4089 -0.3504  0.0449
15436SOL     OW48749   2.480   5.819   5.725  0.7863 -0.0242  0.0632
15436SOL    HW148750   2.399   5.828   5.674 -0.2749  0.7073  1.7662
15436SOL    HW248751   2.549   5.811   5.660 -0.7078 -1.2205 -1.4554
15437SOL     OW48752   0.725   8.347   8.189 -0.0804 -0.2738 -0.0171
15437SOL    HW148753   0.711   8.437   8.162  0.9485  0.4124  1.5843
15437SOL    HW248754   0.646   8.323   8.237 -0.0878  0.0263  0.1250
15438SOL     OW48755   7.095  10.226   4.517  0.1841 -0.0101  0.3068
15438SOL    HW148756   7.113  10.135   4.492 -0.7372 -0.4833  1.2838
15438SOL    HW248757   7.106  10.276   4.436 -1.5469 -1.3117 -0.7946
15439SOL     OW48758   7.429   7.098   6.496 -0.3127 -0.2385  0.1620
15439SOL    HW148759   7.449   7.129   6.584 -0.6435  0.2756  0.0606
15439SOL    HW248760   7.346   7.052   6.505  1.1323 -2.9395  0.7084
15440SOL     OW48761   9.337   0.060   8.926 -0.2792 -0.2610  0.0812
15440SOL    HW148762   9.353  -0.028   8.892 -0.9847  0.0837 -1.2098
15440SOL    HW248763   9.422   0.103   8.921  0.1130 -0.9179  0.9035
15441SOL     OW48764   9.236   9.568   2.193  0.0882  0.3493 -0.6181
15441SOL    HW148765   9.243   9.472   2.191  0.3514  0.3574 -2.5894
15441SOL    HW248766   9.167   9.586   2.257  1.4123 -1.0303  1.2916
15442SOL     OW48767   4.223   3.306   0.947  0.0917 -0.2826 -0.4325
15442SOL    HW148768   4.257   3.255   0.874 -0.1158  1.3272 -1.6969
15442SOL    HW248769   4.200   3.241   1.013  1.5637 -1.6809 -1.2508
15443SOL     OW48770   2.159   2.600   0.707  0.5064  0.4304  0.2787
15443SOL    HW148771   2.129   2.560   0.625  0.3674  2.8877 -0.9691
15443SOL    HW248772   2.191   2.527   0.759 -1.4134 -1.4811 -1.0656
15444SOL     OW48773   5.072   6.031   3.518 -0.0054 -0.7601  0.3910
15444SOL    HW148774   4.990   6.075   3.497  0.6760  0.7841  0.8016
15444SOL    HW248775   5.095   6.063   3.605  1.1877 -0.9266  0.1577
15445SOL     OW48776   5.997   3.250   5.519  0.3154 -0.4564 -0.4270
15445SOL    HW148777   5.988   3.187   5.448  0.7843  0.4589 -1.3366
15445SOL    HW248778   6.032   3.200   5.592 -1.2060 -1.6450 -0.4897
15446SOL     OW48779   1.886   0.010   6.483  0.1324 -0.0789  0.2013
15446SOL    HW148780   1.846   0.095   6.462  1.4839  1.1174  2.1018
15446SOL    HW248781   1.977   0.019   6.454  0.3540 -0.7767  0.6492
15447SOL     OW48782   1.334   3.455   3.459  0.7675 -1.1654 -0.3741
15447SOL    HW148783   1.349   3.538   3.414  1.6556 -0.6316  0.8797
15447SOL    HW248784   1.401   3.397   3.423  0.6262 -1.1380 -0.6936
15448SOL     OW48785   4.566   2.959   5.587 -0.0380 -0.0325 -0.1305
15448SOL    HW148786   4.554   2.891   5.521 -0.3409 -0.5913  0.4960
15448SOL    HW248787   4.661   2.963   5.600  0.2458  1.6697 -2.2348
15449SOL     OW48788   7.764   3.838  10.441  0.6704 -0.7528 -0.3093
15449SOL    HW148789   7.857   3.822  10.452  0.8530  0.8548  0.9201
15449SOL    HW248790   7.731   3.848  10.531  0.0000  1.9895 -0.7702
15450SOL     OW48791   9.715   8.197   3.915  0.6712 -0.7117 -0.7439
15450SOL    HW148792   9.735   8.165   4.003 -0.1470 -2.4140 -1.1373
15450SOL    HW248793   9.798   8.233   3.883  1.6636 -2.4358 -0.2418
15451SOL     OW48794   3.041   7.665   2.084  0.3974  0.1748  0.1639
15451SOL    HW148795   3.106   7.633   2.021 -0.0082 -0.1791 -0.0854
15451SOL    HW248796   3.005   7.585   2.123 -0.8450  0.2874 -0.6873
15452SOL     OW48797   6.323   2.411   1.955 -0.1652 -0.7954 -0.2000
15452SOL    HW148798   6.285   2.425   2.042  0.7465  3.1207 -0.2585
15452SOL    HW248799   6.414   2.387   1.972 -0.3591 -1.4498 -0.0789
15453SOL     OW48800   1.060   6.936   2.581  0.8578  0.0231  0.2560
15453SOL    HW148801   1.140   6.988   2.581 -0.0699  1.5462  1.2385
15453SOL    HW248802   1.022   6.949   2.495  1.2737 -0.0967  0.0515
15454SOL     OW48803   1.685   4.134   7.525  0.7571 -0.0968  0.2477
15454SOL    HW148804   1.695   4.043   7.496  0.1219 -0.4330  1.0241
15454SOL    HW248805   1.600   4.135   7.569  0.2421  1.1407 -0.7188
15455SOL     OW48806   5.515   0.851   6.047 -0.3494  0.2642  0.0094
15455SOL    HW148807   5.505   0.784   6.114 -0.8553 -0.3499 -0.6638
15455SOL    HW248808   5.468   0.816   5.971  0.4903  0.7894 -0.7750
15456SOL     OW48809   8.348   5.661   5.426  0.9654  0.2294  0.1733
15456SOL    HW148810   8.371   5.569   5.413 -0.6007 -0.3301  1.1487
15456SOL    HW248811   8.364   5.702   5.340 -0.7821 -1.5033 -1.0733
15457SOL     OW48812   1.837   2.214   1.898  0.7504 -0.1119  0.4448
15457SOL    HW148813   1.747   2.224   1.931  0.5475  1.0798 -0.4392
15457SOL    HW248814   1.832   2.139   1.839  0.4248 -0.2639  0.6588
15458SOL     OW48815   8.620   2.289   9.845  0.0040  0.2353  0.1759
15458SOL    HW148816   8.576   2.332   9.771  0.1029  1.7230  0.9398
15458SOL    HW248817   8.703   2.336   9.854  1.2239 -1.6873 -0.4220
15459SOL     OW48818   1.198   6.373   1.632 -0.6371 -0.0934 -0.1029
15459SOL    HW148819   1.277   6.407   1.590 -0.3195 -1.3682 -0.6088
15459SOL    HW248820   1.205   6.278   1.620 -1.7008 -0.3011  0.8259
15460SOL     OW48821   4.054   3.650   5.461  0.8040 -0.1807  0.2406
15460SOL    HW148822   4.074   3.578   5.521  0.7039  0.7430  1.4221
15460SOL    HW248823   4.096   3.726   5.501  1.0537  0.3964 -1.0708
15461SOL     OW48824   7.504   7.498   8.921 -0.2722  0.1932  0.4159
15461SOL    HW148825   7.477   7.502   8.829  1.0741  0.2164  0.0024
15461SOL    HW248826   7.513   7.590   8.947 -0.4517  0.1841  0.5088
15462SOL     OW48827   1.684   6.861   2.484 -0.2913  0.1987 -0.3466
15462SOL    HW148828   1.767   6.879   2.527 -0.0582  0.9574 -1.0932
15462SOL    HW248829   1.640   6.946   2.479 -0.3320  0.1190 -1.5529
15463SOL     OW48830   5.155   5.539   4.781 -0.6788 -0.1074 -0.1885
15463SOL    HW148831   5.189   5.600   4.715  0.4637 -1.6215 -1.0727
15463SOL    HW248832   5.195   5.569   4.863  2.0266 -1.1238 -1.0184
15464SOL     OW48833   2.587   1.147   8.540 -0.1905 -0.3438  0.8277
15464SOL    HW148834   2.565   1.239   8.556 -1.2123 -0.2924 -0.6540
15464SOL    HW248835   2.502   1.102   8.537 -0.1518 -0.5134 -2.9259
15465SOL     OW48836   4.073   8.413   0.629  0.0619 -0.4410  0.1464
15465SOL    HW148837   4.124   8.432   0.550  0.2895 -0.1192  0.3661
15465SOL    HW248838   4.130   8.440   0.701 -0.9554  1.3362  0.3648
15466SOL     OW48839   2.795   3.766   3.693 -0.0178  0.1146  0.0019
15466SOL    HW148840   2.876   3.804   3.726 -0.4387  0.7659  0.3012
15466SOL    HW248841   2.733   3.839   3.691 -0.5286 -0.3233 -0.4531
15467SOL     OW48842  10.481   8.443   3.646  0.1684  0.2371 -0.3754
15467SOL    HW148843  10.538   8.493   3.704  0.3667  1.2222 -1.3829
15467SOL    HW248844  10.443   8.508   3.587 -0.5242 -0.6468 -0.9428
15468SOL     OW48845   0.918   9.497  10.142 -0.4578 -0.6221 -0.0693
15468SOL    HW148846   0.935   9.478  10.235 -2.4399  2.3955  1.0456
15468SOL    HW248847   0.870   9.579  10.143 -2.6324 -1.6482 -3.6857
15469SOL     OW48848   2.539   2.948   1.324 -0.3041 -0.0071 -0.5446
15469SOL    HW148849   2.623   2.951   1.278 -0.4047 -0.0421 -0.7312
15469SOL    HW248850   2.473   2.956   1.255 -0.4564 -0.0766 -0.4094
15470SOL     OW48851   2.891   0.004   8.808 -0.0221 -0.1514  0.1804
15470SOL    HW148852   2.867   0.071   8.744  0.2308 -0.0412  0.2012
15470SOL    HW248853   2.984  -0.011   8.793 -0.0798 -0.5009  0.1737
15471SOL     OW48854   3.497   7.739   1.485  0.7351 -0.0045 -0.3371
15471SOL    HW148855   3.406   7.746   1.459  0.5940 -0.3249  0.0624
15471SOL    HW248856   3.498   7.674   1.555  0.9061  1.7478  1.3875
15472SOL     OW48857   4.924   0.671   4.053 -0.7295  0.4201  0.1712
15472SOL    HW148858   4.914   0.607   4.123  0.7915 -0.3657 -0.2962
15472SOL    HW248859   4.856   0.647   3.989 -2.7426  1.7027  1.7081
15473SOL     OW48860   1.493   6.453   6.713 -0.0342 -0.1106  0.1967
15473SOL    HW148861   1.546   6.531   6.696 -0.9671  0.1976 -1.5936
15473SOL    HW248862   1.412   6.488   6.750  0.6797 -0.5258  2.2875
15474SOL     OW48863   1.634   1.248   3.492 -0.0645  0.2171 -0.1123
15474SOL    HW148864   1.656   1.334   3.458 -0.9392  0.7976  0.7408
15474SOL    HW248865   1.628   1.192   3.415  2.5602  0.3943 -0.5566
15475SOL     OW48866   8.894  10.040   7.695 -0.0447  0.1119 -0.0634
15475SOL    HW148867   8.810  10.086   7.694 -0.0642  0.0701 -0.2940
15475SOL    HW248868   8.939  10.071   7.617 -0.3970 -0.8896 -0.6892
15476SOL     OW48869   0.075   1.271   3.633 -0.0660  0.3648  0.4591
15476SOL    HW148870   0.061   1.343   3.694 -1.0079 -0.4024  1.1952
15476SOL    HW248871   0.109   1.200   3.687 -3.9438 -1.4225  0.8598
15477SOL     OW48872   4.517   1.232   8.677  0.5001  0.1032  0.7137
15477SOL    HW148873   4.461   1.214   8.753  1.5436  2.4667  2.1711
15477SOL    HW248874   4.595   1.275   8.714  1.8094 -0.1314 -1.5520
15478SOL     OW48875  10.439   4.663   9.150 -0.3691  0.5650  0.0981
15478SOL    HW148876  10.364   4.698   9.100 -0.9252 -0.3390  0.2844
15478SOL    HW248877  10.405   4.651   9.239 -0.2126 -0.5198  0.0184
15479SOL     OW48878   3.097   0.632   8.377  0.0359 -0.0161 -0.1674
15479SOL    HW148879   3.032   0.696   8.348  1.7257  1.5211 -0.7818
15479SOL    HW248880   3.154   0.680   8.436  1.2922 -0.9877 -0.5331
15480SOL     OW48881   4.019   1.239   7.834  0.1393  0.0950  0.5088
15480SOL    HW148882   3.949   1.291   7.794  0.8457  1.1782  0.6387
15480SOL    HW248883   4.087   1.234   7.767 -0.1536 -1.1918  0.2820
15481SOL     OW48884   9.786  10.167   9.189  0.5289 -0.0560  0.1795
15481SOL    HW148885   9.736  10.146   9.268 -1.6418  0.3192 -1.0185
15481SOL    HW248886   9.852  10.230   9.218 -1.7024  1.9058  1.3445
15482SOL     OW48887   9.703   0.715  10.085  0.3850  0.3568  0.3536
15482SOL    HW148888   9.696   0.810  10.077  1.6176  0.4352 -0.0939
15482SOL    HW248889   9.778   0.701  10.143  1.2729 -0.3168 -0.8875
15483SOL     OW48890   1.644   8.583   0.037  0.0296  0.1532 -0.3368
15483SOL    HW148891   1.696   8.663   0.048  0.7387 -0.5074  1.6454
15483SOL    HW248892   1.557   8.606   0.069 -0.0295  0.3963 -0.6713
15484SOL     OW48893   8.214   3.121   1.712 -0.0454 -0.3628 -0.0394
15484SOL    HW148894   8.167   3.202   1.726 -0.3853 -0.5238 -0.2333
15484SOL    HW248895   8.160   3.072   1.650  1.5187  0.4551 -2.2162
15485SOL     OW48896   6.830   2.155   9.052  0.0369  0.1783  0.1851
15485SOL    HW148897   6.758   2.092   9.059  0.3702 -0.0714  1.8530
15485SOL    HW248898   6.900   2.107   9.007 -0.6606  0.2916 -1.0710
15486SOL     OW48899   3.134   9.988   1.610  0.4699 -0.1601  0.1284
15486SOL    HW148900   3.190   9.964   1.537 -0.7235 -1.7461 -0.3294
15486SOL    HW248901   3.054   9.938   1.596 -0.6906  1.2853  1.2850
15487SOL     OW48902   2.639   7.758   6.217  0.4539  0.1639 -0.6954
15487SOL    HW148903   2.569   7.795   6.163 -1.4196 -1.0431  0.8298
15487SOL    HW248904   2.666   7.679   6.170  1.9653  1.4111 -2.0797
15488SOL     OW48905   9.379   2.084   0.468  0.3362 -0.0345  0.3111
15488SOL    HW148906   9.320   2.014   0.496  0.6663 -0.7781 -0.8021
15488SOL    HW248907   9.334   2.126   0.395 -0.5414  1.9223  1.8591
15489SOL     OW48908   9.993   3.093   1.713 -0.0106  0.1002  0.0367
15489SOL    HW148909   9.976   3.101   1.807 -1.2286  0.7499 -0.2182
15489SOL    HW248910  10.052   3.165   1.693 -0.9922  0.9282  0.0399
15490SOL     OW48911   0.023   8.021   3.915  0.3929  0.3641 -0.2611
15490SOL    HW148912   0.111   8.011   3.878 -0.4007 -1.9264 -1.7586
15490SOL    HW248913   0.015   7.947   3.975 -1.0134 -0.4323 -1.3596
15491SOL     OW48914   5.029   3.350   6.730  0.2989  0.2763 -0.8751
15491SOL    HW148915   5.117   3.345   6.767  0.3828 -0.1650 -1.1194
15491SOL    HW248916   5.035   3.301   6.648  0.1562  1.3663 -1.5549
15492SOL     OW48917   7.677   8.557   3.450  0.4538 -0.0466 -0.7542
15492SOL    HW148918   7.680   8.544   3.545 -0.1486 -1.3730 -0.8887
15492SOL    HW248919   7.598   8.611   3.437  1.0916  0.9919 -0.4411
15493SOL     OW48920   6.266   8.391   3.493  0.1710 -0.2426 -0.0143
15493SOL    HW148921   6.277   8.482   3.464  1.1476 -0.5135 -0.5375
15493SOL    HW248922   6.307   8.339   3.424 -1.4853 -1.1691 -0.3467
15494SOL     OW48923   7.798   1.056   8.890 -0.0440 -0.1526  0.4951
15494SOL    HW148924   7.860   1.125   8.915 -0.8408  1.3437 -1.3358
15494SOL    HW248925   7.713   1.099   8.893 -0.3955 -0.4171 -2.3950
15495SOL     OW48926   5.074   8.221   3.894 -0.1671 -0.5510 -0.1060
15495SOL    HW148927   5.149   8.279   3.884  0.2833 -1.1492 -0.2963
15495SOL    HW248928   5.046   8.233   3.985 -0.1422  0.0221 -0.1708
15496SOL     OW48929   7.176   3.894   9.477  0.8894  0.0807 -0.2653
15496SOL    HW148930   7.088   3.887   9.441  1.6241  1.1949 -2.5346
15496SOL    HW248931   7.213   3.806   9.467  0.1330 -0.3315  0.4750
15497SOL     OW48932   1.512   5.527   3.627 -0.1745  0.0312 -0.2457
15497SOL    HW148933   1.511   5.610   3.674 -1.1307 -0.1044 -0.0107
15497SOL    HW248934   1.454   5.469   3.677  0.3596 -0.7374 -0.4879
15498SOL     OW48935   7.089   6.662   5.693  0.0168  0.3738  0.1381
15498SOL    HW148936   7.175   6.699   5.711 -0.6434  2.0352 -0.0299
15498SOL    HW248937   7.049   6.651   5.779 -0.7661  2.5416  0.1108
15499SOL     OW48938   2.294   3.627   1.725  0.2078  0.3100 -0.0763
15499SOL    HW148939   2.265   3.639   1.816 -1.3753 -0.0630 -0.5050
15499SOL    HW248940   2.227   3.571   1.686  0.1546  1.5161 -1.8199
15500SOL     OW48941   8.199   2.407   4.515 -0.2299 -0.4370 -0.2033
15500SOL    HW148942   8.141   2.470   4.557 -0.4159  0.4014 -1.6742
15500SOL    HW248943   8.176   2.410   4.422  1.1309 -1.2065 -0.6011
15501SOL     OW48944   2.185   8.691   5.410 -0.2245  0.4323  0.2445
15501SOL    HW148945   2.152   8.685   5.321  0.7807  1.3863 -0.2227
15501SOL    HW248946   2.269   8.737   5.402  0.2521 -0.1244  1.5979
15502SOL     OW48947   6.989   3.937   0.944 -0.4237  0.1307 -0.5073
15502SOL    HW148948   7.042   3.952   1.022 -1.2939  3.0227 -0.3855
15502SOL    HW248949   6.955   3.848   0.956  1.7959 -0.6168  0.9203
15503SOL     OW48950   4.913   5.614   4.957 -0.4172 -0.1745 -0.0831
15503SOL    HW148951   4.945   5.540   4.905  2.5309 -0.9152  2.4569
15503SOL    HW248952   4.938   5.691   4.906  1.7439 -0.8814 -0.2364
15504SOL     OW48953   9.595   6.557   7.512 -0.1338  0.5838 -0.0752
15504SOL    HW148954   9.501   6.543   7.518  0.0590 -1.0910 -0.4541
15504SOL    HW248955   9.622   6.508   7.434  1.5797 -2.3905  2.1808
15505SOL     OW48956   8.307   5.874   6.038  0.0883 -0.2584  0.1006
15505SOL    HW148957   8.382   5.918   5.999  0.4846  0.3990  1.5468
15505SOL    HW248958   8.236   5.939   6.036 -0.0395 -0.3974  0.0307
15506SOL     OW48959   7.065   2.552   4.630 -0.8013 -0.1491  0.3259
15506SOL    HW148960   6.975   2.573   4.604 -0.6533 -0.8057 -0.7979
15506SOL    HW248961   7.099   2.500   4.557  0.2731 -0.4759  1.0390
15507SOL     OW48962   5.097   7.918   4.086  0.1317  0.4231 -0.2396
15507SOL    HW148963   5.146   7.970   4.148  1.4300  0.3542 -1.1643
15507SOL    HW248964   5.005   7.937   4.105  0.3945 -0.7314  2.6521
15508SOL     OW48965   9.222   4.752   0.092 -0.1905 -0.0824  0.5180
15508SOL    HW148966   9.147   4.791   0.048 -0.9474 -1.3836  0.6151
15508SOL    HW248967   9.281   4.826   0.109 -0.9630  0.7920 -0.5039
15509SOL     OW48968   3.308   5.912   4.922  0.4558 -0.3307 -0.0848
15509SOL    HW148969   3.302   5.817   4.910  0.4422 -0.3963  0.4248
15509SOL    HW248970   3.328   5.945   4.834  2.7604 -1.0012  0.1052
15510SOL     OW48971   7.746   4.902   2.965  0.6516  0.0624  0.1865
15510SOL    HW148972   7.680   4.962   2.931  0.2387 -0.2401  0.4379
15510SOL    HW248973   7.730   4.820   2.918  2.2109  0.5596 -1.3020
15511SOL     OW48974   0.763   2.861   9.161  0.2891  0.3724 -0.7836
15511SOL    HW148975   0.727   2.946   9.187 -1.1410 -0.5069  0.2961
15511SOL    HW248976   0.691   2.799   9.175  1.4343 -1.0992 -1.0899
15512SOL     OW48977  10.254   7.807   5.346 -0.2527  0.0994  0.4772
15512SOL    HW148978  10.282   7.728   5.392 -0.4402 -0.3942 -0.2435
15512SOL    HW248979  10.335   7.855   5.329  0.2218 -1.2854 -1.5303
15513SOL     OW48980   9.330   5.909   1.362  0.5759  0.1178 -0.0684
15513SOL    HW148981   9.386   5.972   1.407  1.2347  0.6000 -1.5045
15513SOL    HW248982   9.356   5.824   1.397  0.3621  0.5355  1.1718
15514SOL     OW48983   6.230   7.829   3.611 -0.2956  0.3670 -0.2498
15514SOL    HW148984   6.325   7.839   3.617 -0.2071 -0.6003  0.1002
15514SOL    HW248985   6.195   7.885   3.680  0.0066  0.8486 -0.4843
15515SOL     OW48986   4.172   4.389   8.034 -0.0891 -0.4146 -0.0261
15515SOL    HW148987   4.211   4.456   8.089  0.4978 -0.2058 -0.6917
15515SOL    HW248988   4.180   4.422   7.945  2.0761 -2.2241 -0.5966
15516SOL     OW48989   8.710   2.900   0.109 -0.3416 -0.1404  0.3072
15516SOL    HW148990   8.754   2.817   0.087 -0.3728 -0.1676  0.3482
15516SOL    HW248991   8.651   2.916   0.035  0.6948  0.5695 -0.3981
15517SOL     OW48992   6.535   1.957   0.997  0.2387 -0.4965 -0.1996
15517SOL    HW148993   6.574   1.871   1.011 -2.3198 -1.6746  0.3064
15517SOL    HW248994   6.512   1.958   0.904  1.3371  0.1628 -0.4805
15518SOL     OW48995   4.145   5.143   5.985 -0.0107  0.3174 -0.1423
15518SOL    HW148996   4.197   5.065   6.005  1.2931  1.2172  0.0885
15518SOL    HW248997   4.063   5.130   6.032  0.5178 -0.5422  0.5577
15519SOL     OW48998   7.577   2.952   4.165 -0.0908 -0.4770 -0.5283
15519SOL    HW148999   7.542   3.023   4.111 -0.7524 -0.5001 -0.1398
15519SOL    HW249000   7.671   2.957   4.152 -0.1718  0.1188 -0.9459
15520SOL     OW49001   2.691   4.900   7.230 -0.0407  0.0358 -0.0787
15520SOL    HW149002   2.764   4.960   7.243  1.2382 -1.1445 -1.4864
15520SOL    HW249003   2.661   4.918   7.141  0.0078 -1.0168 -0.3224
15521SOL     OW49004   0.048   7.075   3.715  0.4271  0.0507 -0.0777
15521SOL    HW149005   0.088   7.157   3.746  0.4610 -0.2513  0.6870
15521SOL    HW249006   0.066   7.012   3.784 -0.3980 -0.3791 -0.2481
15522SOL     OW49007   6.463   2.940   4.187  1.0816 -0.4174  0.4237
15522SOL    HW149008   6.426   2.971   4.104  0.1119  1.1442  1.4040
15522SOL    HW249009   6.557   2.935   4.170  1.1393  1.8226 -0.1972
15523SOL     OW49010   8.643   3.312   5.346  0.1650 -0.2853  0.3431
15523SOL    HW149011   8.725   3.360   5.360  0.3148  0.0782 -1.4813
15523SOL    HW249012   8.600   3.359   5.274 -1.0945 -1.1629  0.4987
15524SOL     OW49013   0.023   7.231   4.826  0.0904  0.2554 -0.0731
15524SOL    HW149014   0.027   7.146   4.783 -1.1911 -0.4871  1.1655
15524SOL    HW249015  -0.068   7.259   4.814  0.5944  1.6474 -0.7978
15525SOL     OW49016   3.349  10.147   0.871  1.1158 -0.1886 -0.2494
15525SOL    HW149017   3.316  10.099   0.947  0.2478 -0.5665 -0.8495
15525SOL    HW249018   3.373  10.234   0.906 -0.2168 -0.0116  0.2699
15526SOL     OW49019   9.780   5.851   9.166  0.6747  0.5822  0.1125
15526SOL    HW149020   9.695   5.806   9.170  1.8640 -1.7150  2.7486
15526SOL    HW249021   9.774   5.906   9.087 -1.6868 -2.6582 -2.2617
15527SOL     OW49022   8.492   2.573   4.513 -0.1224 -0.4180  0.3301
15527SOL    HW149023   8.411   2.521   4.513 -0.5305  0.1806 -0.5257
15527SOL    HW249024   8.554   2.519   4.463 -0.3235 -0.4141  0.0692
15528SOL     OW49025   3.562   1.896   9.835 -0.6643  0.1360 -0.0234
15528SOL    HW149026   3.532   1.819   9.884 -0.5210  0.5824  0.7739
15528SOL    HW249027   3.638   1.928   9.883  0.1239 -0.0170 -1.1170
15529SOL     OW49028   9.254   7.734  10.297 -0.5797 -0.0382  0.5543
15529SOL    HW149029   9.333   7.731  10.243 -1.8488 -0.8461 -1.3791
15529SOL    HW249030   9.229   7.827  10.298 -1.2575 -0.1472 -1.4712
15530SOL     OW49031  10.277   2.772   7.091  0.0849 -0.5173  0.6945
15530SOL    HW149032  10.319   2.859   7.089  0.8599 -0.8334  2.0637
15530SOL    HW249033  10.184   2.790   7.083  0.1963  0.4993  1.4803
15531SOL     OW49034   2.085   1.236   5.039 -0.3255  0.3490  0.2124
15531SOL    HW149035   2.100   1.142   5.051  0.0718  0.3378 -0.3434
15531SOL    HW249036   2.166   1.277   5.070 -0.9887  0.6009  1.6832
15532SOL     OW49037   9.004   3.982   0.997  0.0919 -0.0781 -0.0402
15532SOL    HW149038   8.991   4.020   0.910 -0.2108  2.3506  0.9884
15532SOL    HW249039   8.946   4.033   1.054  0.1723 -1.7013  1.5921
15533SOL     OW49040   6.325   9.062   2.548 -0.7035  0.1868  0.4927
15533SOL    HW149041   6.413   9.057   2.512 -1.1042 -2.0163 -0.3486
15533SOL    HW249042   6.305   8.972   2.574 -2.1097  0.9302  2.1830
15534SOL     OW49043  10.319   3.046   8.024 -0.2977  0.3538 -0.8657
15534SOL    HW149044  10.309   3.071   8.116 -0.9057 -1.7876 -0.2948
15534SOL    HW249045  10.273   3.115   7.975 -0.6597  1.0965  0.4727
15535SOL     OW49046   9.495   2.087   8.638  0.1459 -0.0058 -0.1009
15535SOL    HW149047   9.564   2.096   8.573  0.3726 -0.0151  0.1377
15535SOL    HW249048   9.448   2.007   8.612 -0.2199  0.3878 -0.6703
15536SOL     OW49049   3.732   9.598   2.781  0.2533 -0.6069  0.0141
15536SOL    HW149050   3.650   9.568   2.743 -0.7273 -0.7679  2.1278
15536SOL    HW249051   3.783   9.518   2.794  1.4349 -0.3861 -2.6254
15537SOL     OW49052   5.455   9.020   2.549 -0.7319  0.6012  0.1345
15537SOL    HW149053   5.449   9.062   2.463 -0.4542  2.5480  1.0356
15537SOL    HW249054   5.384   9.058   2.600  0.7740  1.5717  1.6190
15538SOL     OW49055   1.628   6.873   0.810  0.1133  0.5673  0.4837
15538SOL    HW149056   1.607   6.928   0.885  0.0013  0.0760  0.8219
15538SOL    HW249057   1.720   6.848   0.823 -0.1954 -0.3611  1.0230
15539SOL     OW49058   3.361   6.203   8.612  0.1274  0.1175 -0.0390
15539SOL    HW149059   3.279   6.198   8.563 -0.5693  0.4868  1.0389
15539SOL    HW249060   3.422   6.246   8.553 -0.8866  1.1965 -0.3319
15540SOL     OW49061   0.446   4.446   7.275  0.0838 -0.0247  0.6358
15540SOL    HW149062   0.373   4.508   7.278 -0.1696 -0.3499  1.9759
15540SOL    HW249063   0.455   4.424   7.182 -0.4406  1.2756  0.2536
15541SOL     OW49064   4.886   0.774   6.146 -0.0332  0.0592 -0.2291
15541SOL    HW149065   4.819   0.773   6.213 -0.4566  1.8154 -0.5923
15541SOL    HW249066   4.968   0.760   6.193 -0.3466  1.0379  0.6367
15542SOL     OW49067   8.835   2.545   3.765 -0.2270 -0.5436 -0.2272
15542SOL    HW149068   8.924   2.518   3.741 -0.4160 -0.5049 -0.9930
15542SOL    HW249069   8.783   2.528   3.686 -0.5448  1.1649 -0.4182
15543SOL     OW49070  10.236   0.493   7.410 -0.2923  0.2590 -0.2907
15543SOL    HW149071  10.264   0.514   7.500  0.1170 -0.4478 -0.2439
15543SOL    HW249072  10.180   0.417   7.420 -1.0870  0.8064 -0.5387
15544SOL     OW49073   7.735  10.474   8.989 -0.0486  0.7545  0.4512
15544SOL    HW149074   7.782  10.505   8.912 -0.5482  1.2675  0.3427
15544SOL    HW249075   7.675  10.546   9.010  0.7453  1.0400  1.8952
15545SOL     OW49076   2.304   2.558   1.648 -0.0631  0.1700  0.0608
15545SOL    HW149077   2.390   2.558   1.689  0.0367  0.8179 -0.1359
15545SOL    HW249078   2.244   2.532   1.718  0.1655  0.7712  0.4837
15546SOL     OW49079   2.957   2.406   9.926 -0.4962  0.6655  0.2372
15546SOL    HW149080   3.007   2.483   9.953 -1.0546  0.9609  0.4449
15546SOL    HW249081   3.003   2.373   9.849  0.9166  0.0288  1.3011
15547SOL     OW49082   5.349   1.232   8.034 -0.1505  0.1822 -0.3057
15547SOL    HW149083   5.359   1.272   7.948 -0.7818  0.3683 -0.3001
15547SOL    HW249084   5.351   1.138   8.018  0.5735  0.2135 -0.4166
15548SOL     OW49085   3.662   0.173   9.033 -0.3493  0.1114 -0.1854
15548SOL    HW149086   3.668   0.100   8.971 -0.4854 -0.5442  0.5615
15548SOL    HW249087   3.571   0.203   9.025  0.0982  1.2444 -1.6274
15549SOL     OW49088   0.584   3.514   9.891 -0.8805 -0.0177  0.2088
15549SOL    HW149089   0.578   3.567   9.812  0.9879 -1.0536 -0.6944
15549SOL    HW249090   0.677   3.493   9.900 -1.2453 -1.2013  1.8267
15550SOL     OW49091   7.550   0.058   2.999  0.1577 -0.0748 -0.4559
15550SOL    HW149092   7.586   0.081   2.914 -2.1928  0.7360 -1.3107
15550SOL    HW249093   7.610   0.098   3.062  1.8248 -0.5059 -1.6839
15551SOL     OW49094   4.686   8.004   5.324  0.4802  0.0393  0.4073
15551SOL    HW149095   4.702   8.083   5.272 -0.7722  0.5868  0.8135
15551SOL    HW249096   4.740   7.937   5.282 -0.4200  0.4818 -1.5861
15552SOL     OW49097   0.214   1.986  10.042  0.1185 -0.0219  0.2382
15552SOL    HW149098   0.186   1.953   9.957  0.9003 -2.5913  0.8806
15552SOL    HW249099   0.180   2.076  10.045 -1.4917 -0.4512 -2.0052
15553SOL     OW49100   0.478   0.659   4.702 -0.0316  0.0100 -0.1430
15553SOL    HW149101   0.451   0.736   4.753  2.2219 -0.3435  1.7347
15553SOL    HW249102   0.486   0.589   4.767  3.2132 -0.4086 -0.8239
15554SOL     OW49103   1.822   6.535   0.690 -0.4174 -0.1553 -0.8309
15554SOL    HW149104   1.826   6.552   0.596 -0.3685  0.6517 -0.6853
15554SOL    HW249105   1.907   6.496   0.710 -0.2086  0.1970 -1.0212
15555SOL     OW49106   0.631   8.661   9.798  0.4825  0.2406 -0.2712
15555SOL    HW149107   0.611   8.591   9.860 -0.4061  1.7267  1.2230
15555SOL    HW249108   0.551   8.670   9.746  1.3385 -1.2226 -1.9452
15556SOL     OW49109   2.319  10.095   3.316 -0.3867  0.9955 -0.1517
15556SOL    HW149110   2.384  10.076   3.247 -0.3476  2.1597 -0.4547
15556SOL    HW249111   2.258  10.021   3.312 -0.6280  1.2355 -1.7442
15557SOL     OW49112   2.449   3.363   8.111 -0.4199  0.3743 -0.0802
15557SOL    HW149113   2.434   3.271   8.092 -0.3679 -0.4980  3.4136
15557SOL    HW249114   2.510   3.392   8.043 -1.7849 -1.6048 -2.3070
15558SOL     OW49115   7.298   8.885   0.634 -0.0946  0.0744 -0.5061
15558SOL    HW149116   7.206   8.876   0.658 -0.3159  0.8587 -1.0137
15558SOL    HW249117   7.339   8.804   0.663 -1.0668 -0.5478 -0.8313
15559SOL     OW49118   0.346   2.648   5.917 -0.0106  0.1260  0.2395
15559SOL    HW149119   0.417   2.598   5.876 -0.7903 -0.8165 -0.0039
15559SOL    HW249120   0.353   2.736   5.880  0.4097 -0.2291 -0.5443
15560SOL     OW49121   2.296   5.553   2.183  0.4247 -0.2424 -0.5203
15560SOL    HW149122   2.313   5.643   2.155  0.3023  0.5297  1.6675
15560SOL    HW249123   2.326   5.551   2.273 -0.9878 -1.9653 -0.0385
15561SOL     OW49124   1.860   7.156   3.960 -0.0789  0.2612 -0.5219
15561SOL    HW149125   1.796   7.103   4.006 -1.1181  2.4582  0.7441
15561SOL    HW249126   1.845   7.137   3.867  0.8710 -2.9357 -0.1271
15562SOL     OW49127   7.140   3.207   3.836 -0.0228  0.4622  0.2783
15562SOL    HW149128   7.089   3.151   3.778 -0.3241  0.3737  0.6247
15562SOL    HW249129   7.097   3.292   3.831  0.2092  0.5692  0.0441
15563SOL     OW49130   9.183   6.820   3.803  0.2653  0.7946 -0.1726
15563SOL    HW149131   9.224   6.779   3.879 -1.9484  0.9545  1.1990
15563SOL    HW249132   9.127   6.751   3.766  1.1451  0.7853 -1.5583
15564SOL     OW49133   7.036   3.366   8.443 -0.7356  0.4639  0.4058
15564SOL    HW149134   6.994   3.448   8.418 -0.9098 -0.2222 -1.7318
15564SOL    HW249135   6.982   3.333   8.515 -2.2049  0.9849 -0.4145
15565SOL     OW49136   3.393   8.369   5.948 -0.3278 -0.1595 -0.2134
15565SOL    HW149137   3.354   8.317   5.877 -1.1339  1.0264 -0.6749
15565SOL    HW249138   3.319   8.391   6.004 -0.2074  1.4166 -0.6376
15566SOL     OW49139   3.651   7.644   2.876 -0.5184  0.3068  0.6522
15566SOL    HW149140   3.557   7.662   2.867 -0.3682  1.6856  1.5961
15566SOL    HW249141   3.679   7.699   2.949  1.1451  0.3691  0.0097
15567SOL     OW49142   5.641   3.253   2.259 -0.3217  0.0742  0.5519
15567SOL    HW149143   5.656   3.271   2.351 -1.4315  1.6076  0.4812
15567SOL    HW249144   5.615   3.337   2.222 -2.5690 -1.0184 -0.5693
15568SOL     OW49145   4.772   0.644   6.370 -0.1713 -0.1241  0.4712
15568SOL    HW149146   4.793   0.565   6.419 -0.8978 -0.8504 -0.3709
15568SOL    HW249147   4.678   0.657   6.382 -0.6075 -0.9560 -1.5833
15569SOL     OW49148   2.107   7.578   7.905  0.3001  0.3064  0.1729
15569SOL    HW149149   2.172   7.607   7.842  0.1413 -0.2835 -0.2756
15569SOL    HW249150   2.139   7.493   7.936 -0.9854 -0.7159 -1.1827
15570SOL     OW49151   9.956   9.953   8.737  0.2778  0.0813 -0.6629
15570SOL    HW149152   9.987   9.913   8.818  0.1246  1.6170  0.2074
15570SOL    HW249153   9.860   9.948   8.743  0.2751 -0.3366 -1.0385
15571SOL     OW49154   8.276   8.806   0.400 -0.0285  0.1781 -0.3790
15571SOL    HW149155   8.273   8.724   0.350  2.3869 -0.8917  1.0523
15571SOL    HW249156   8.231   8.786   0.482 -2.0938  1.2759 -1.1814
15572SOL     OW49157   1.394   4.764   2.790 -0.0591 -0.8118  0.3720
15572SOL    HW149158   1.317   4.717   2.758  0.1764  0.1239 -1.7041
15572SOL    HW249159   1.464   4.739   2.730  0.7789 -0.0639  1.0092
15573SOL     OW49160   3.239   3.845   4.849 -0.5463 -0.3994 -0.1481
15573SOL    HW149161   3.250   3.896   4.768 -1.2606  0.2461  0.1517
15573SOL    HW249162   3.264   3.756   4.824  0.3664  0.0147 -0.7781
15574SOL     OW49163  10.283   8.458   6.711 -0.3637 -0.4704  0.0655
15574SOL    HW149164  10.341   8.533   6.720  0.9424 -1.3915 -0.3908
15574SOL    HW249165  10.250   8.463   6.621 -0.3102 -0.4224  0.0495
15575SOL     OW49166   5.112   0.712  10.254 -0.2588  0.4288 -0.2321
15575SOL    HW149167   5.153   0.626  10.247 -0.4512  0.2654  0.5536
15575SOL    HW249168   5.141   0.746  10.339 -0.3255  1.0671 -0.4542
15576SOL     OW49169   1.848   9.719   7.972 -0.8735  0.4779  0.1451
15576SOL    HW149170   1.943   9.720   7.980 -0.6066 -0.7216 -2.0758
15576SOL    HW249171   1.816   9.704   8.061  1.1601 -2.5357  0.5117
15577SOL     OW49172   9.258   0.743   7.379 -0.4408 -0.2110  0.2725
15577SOL    HW149173   9.171   0.710   7.399 -0.8223  0.3216 -0.4861
15577SOL    HW249174   9.268   0.821   7.434 -1.5219  1.2984 -1.5456
15578SOL     OW49175   6.783   7.626  10.160  0.0836  0.0050 -0.5091
15578SOL    HW149176   6.847   7.676  10.211 -0.8264  0.5155  0.1560
15578SOL    HW249177   6.822   7.539  10.152  1.3411  0.5952 -1.0263
15579SOL     OW49178   4.179  10.187  10.008 -0.4494 -0.8280  0.1980
15579SOL    HW149179   4.132  10.216  10.086 -1.9308 -0.8656 -0.6389
15579SOL    HW249180   4.258  10.145  10.041 -0.1990  0.6457  1.6011
15580SOL     OW49181   8.931   2.051   9.731 -0.2928 -0.5702  0.4466
15580SOL    HW149182   8.846   2.008   9.742  0.6312 -2.3238  1.1271
15580SOL    HW249183   8.910   2.135   9.692 -2.4345 -0.5319  1.5151
15581SOL     OW49184   1.600   7.243   3.741  0.1316 -0.0176 -0.4019
15581SOL    HW149185   1.566   7.155   3.726  0.8218 -0.3102 -0.2929
15581SOL    HW249186   1.600   7.283   3.654 -1.2908  0.3027 -0.2853
15582SOL     OW49187   7.436   4.294   2.646  0.3916  0.9996 -0.1194
15582SOL    HW149188   7.529   4.310   2.665  0.7411 -0.0923 -0.7906
15582SOL    HW249189   7.434   4.278   2.552 -0.6937  2.2981 -0.3476
15583SOL     OW49190   3.396   3.281   7.213 -0.0872 -0.3227  0.0280
15583SOL    HW149191   3.318   3.246   7.170  0.4140 -0.0728 -1.1468
15583SOL    HW249192   3.417   3.359   7.163  1.3937 -0.8450 -0.2236
15584SOL     OW49193   1.343   4.502   1.821  0.5194  0.2634 -0.2102
15584SOL    HW149194   1.262   4.549   1.841  0.3212  0.4012 -1.2889
15584SOL    HW249195   1.394   4.506   1.902 -0.6837 -0.1112  0.5853
15585SOL     OW49196   5.603   4.232   0.279 -0.2869  0.2128 -0.3925
15585SOL    HW149197   5.587   4.294   0.350  1.7223 -0.1822  0.4790
15585SOL    HW249198   5.554   4.153   0.305 -1.5314  0.8582 -0.7013
15586SOL     OW49199   8.764   7.655   5.025  0.2316 -0.3520  0.1952
15586SOL    HW149200   8.843   7.615   4.988  0.7170  1.2448 -0.6077
15586SOL    HW249201   8.769   7.747   4.998 -0.6126  0.3728  2.2834
15587SOL     OW49202   2.624   2.170   3.900  0.3805  0.5050  0.2595
15587SOL    HW149203   2.589   2.096   3.851  0.9690 -1.2288  2.3175
15587SOL    HW249204   2.581   2.247   3.861 -1.5524 -1.0364 -0.8285
15588SOL     OW49205   7.035   9.237   0.841 -0.1940  0.0775 -0.3688
15588SOL    HW149206   7.063   9.151   0.873 -1.1675 -0.7841 -1.7224
15588SOL    HW249207   6.941   9.228   0.829 -0.5664  1.8471  0.9181
15589SOL     OW49208   8.758   2.077   3.347 -0.9466 -0.0089 -0.4445
15589SOL    HW149209   8.817   2.136   3.300 -0.0019 -0.1122  0.5986
15589SOL    HW249210   8.700   2.043   3.279 -0.7269  1.1804 -1.2582
15590SOL     OW49211   1.332   4.660   7.282 -0.6191 -0.4211  0.0726
15590SOL    HW149212   1.385   4.581   7.280  0.0953  0.0497 -0.3366
15590SOL    HW249213   1.389   4.728   7.245 -1.2900  0.2349  0.2098
15591SOL     OW49214   5.969   4.226   1.854 -0.5495 -0.9323  0.0517
15591SOL    HW149215   6.056   4.244   1.892  0.0048  0.7636 -1.8488
15591SOL    HW249216   5.987   4.182   1.772 -1.6966 -3.5579  1.1175
15592SOL     OW49217   6.763   3.049   2.033 -0.0383  0.0418  0.0972
15592SOL    HW149218   6.758   3.081   1.943 -0.6450 -0.9260 -0.2309
15592SOL    HW249219   6.710   3.110   2.084  0.8054  0.9457 -0.0902
15593SOL     OW49220   6.101   0.047   8.722 -0.1218  0.3255 -0.1547
15593SOL    HW149221   6.175   0.006   8.676 -1.2306  0.4694 -2.2303
15593SOL    HW249222   6.080   0.125   8.669 -0.8733  1.0682  1.1794
15594SOL     OW49223   1.061   7.865   1.760 -0.3835  0.4558 -0.2406
15594SOL    HW149224   1.023   7.867   1.848 -0.3589  0.6616 -0.2332
15594SOL    HW249225   0.986   7.866   1.701 -0.4019  0.2408 -0.2227
15595SOL     OW49226   6.649   3.494   3.287 -0.5729 -0.0567  0.0358
15595SOL    HW149227   6.556   3.480   3.269 -0.9454  2.3486 -0.3099
15595SOL    HW249228   6.651   3.524   3.378 -0.3062  0.9420 -0.2802
15596SOL     OW49229   8.750   6.104   6.181 -0.6804  0.1998  0.0921
15596SOL    HW149230   8.676   6.126   6.239 -0.3823 -0.1755  0.6178
15596SOL    HW249231   8.709   6.066   6.103 -0.9708 -3.3869  1.8039
15597SOL     OW49232   9.575   6.388   6.113  0.1157  0.4296 -0.6251
15597SOL    HW149233   9.567   6.484   6.115 -0.5635  0.4068 -1.6131
15597SOL    HW249234   9.669   6.372   6.119  0.2088  1.1406  0.0381
15598SOL     OW49235   2.560   8.253   3.684 -0.4509 -0.4934 -0.1289
15598SOL    HW149236   2.618   8.291   3.618 -0.6128 -0.4890 -0.2690
15598SOL    HW249237   2.472   8.277   3.655 -0.4807  0.4083  0.6482
15599SOL     OW49238   9.332   8.756  10.400  0.0717  0.0255 -0.1527
15599SOL    HW149239   9.371   8.675  10.431  0.0944  0.2965  0.5357
15599SOL    HW249240   9.238   8.737  10.394 -0.2040  0.5084  1.8919
15600SOL     OW49241   3.915   5.498   8.265 -0.1126  0.1495 -0.1100
15600SOL    HW149242   3.970   5.499   8.186  2.6044  1.0721  1.6609
15600SOL    HW249243   3.962   5.441   8.326  0.1638  2.7669  2.2831
15601SOL     OW49244   5.473   0.581   4.915  0.2799  0.1568 -0.1156
15601SOL    HW149245   5.466   0.547   4.826  1.6693  0.7226 -0.4660
15601SOL    HW249246   5.545   0.531   4.955 -2.0861 -2.0854  1.6913
15602SOL     OW49247   1.775   6.783   4.945 -0.3048 -0.1401  0.2972
15602SOL    HW149248   1.799   6.720   5.012 -0.4091 -0.9748 -0.4331
15602SOL    HW249249   1.760   6.731   4.866 -2.2045  0.5736  0.1106
15603SOL     OW49250   1.702   1.470   3.348 -0.4539 -0.0531 -0.2213
15603SOL    HW149251   1.615   1.509   3.351  0.0532  1.1571 -0.7662
15603SOL    HW249252   1.753   1.521   3.411  0.2694  0.2929 -1.0800
15604SOL     OW49253   2.827   0.182   8.586 -0.1894 -0.0180  0.1127
15604SOL    HW149254   2.792   0.255   8.536  1.1938  1.7756  1.5868
15604SOL    HW249255   2.921   0.181   8.565  0.1273 -0.2146  1.4033
15605SOL     OW49256   6.509   7.889   7.278 -0.2491 -0.1328  0.4931
15605SOL    HW149257   6.540   7.871   7.190 -0.5640  0.5210  0.2375
15605SOL    HW249258   6.578   7.857   7.336 -0.4180 -1.3557  0.0517
15606SOL     OW49259  10.023  10.332   6.224 -0.4110  0.0189  0.4991
15606SOL    HW149260  10.004  10.347   6.131  0.6367 -0.3192  0.2143
15606SOL    HW249261  10.027  10.237   6.233 -2.3129 -0.0343  1.3006
15607SOL     OW49262   1.539   5.510   4.737  0.1927 -0.0214  0.6595
15607SOL    HW149263   1.580   5.427   4.712 -0.2567 -0.7567  2.2842
15607SOL    HW249264   1.446   5.492   4.735 -0.1149  1.3066 -1.8077
15608SOL     OW49265   9.128   3.476   1.270  0.7494 -0.5205 -0.3948
15608SOL    HW149266   9.037   3.507   1.263  0.5592 -1.1567 -0.8993
15608SOL    HW249267   9.176   3.527   1.205  1.2833  1.5701  1.5165
15609SOL     OW49268   3.287  10.456   6.150  0.1957  0.5365 -0.0815
15609SOL    HW149269   3.353  10.499   6.096 -0.0441  0.8334 -0.1420
15609SOL    HW249270   3.205  10.501   6.129 -0.2392 -0.5556 -0.8293
15610SOL     OW49271   7.079   7.954   6.908 -0.2989  0.0068  0.5617
15610SOL    HW149272   7.132   8.032   6.925  0.5239 -0.2173 -0.8591
15610SOL    HW249273   7.133   7.881   6.941  0.2324 -0.2047 -0.7261
15611SOL     OW49274   5.455  10.306   9.482 -0.3589  0.0123  0.4047
15611SOL    HW149275   5.381  10.314   9.422 -1.0210 -0.3338  1.1582
15611SOL    HW249276   5.421  10.254   9.555  0.4450  0.3754  1.0525
15612SOL     OW49277   3.354   2.152  10.399 -0.9849 -0.8843 -0.1013
15612SOL    HW149278   3.280   2.134  10.457 -0.9265  0.7542  0.5217
15612SOL    HW249279   3.350   2.082  10.333 -3.8128 -0.1892 -0.7978
15613SOL     OW49280   6.581   8.376  10.182 -0.5570 -0.2743  0.0791
15613SOL    HW149281   6.608   8.285  10.171 -0.3082 -0.1984  0.0622
15613SOL    HW249282   6.515   8.373  10.251 -0.3410 -0.4321  0.2823
15614SOL     OW49283  10.279   4.125   6.778 -0.0511  0.0115 -0.2358
15614SOL    HW149284  10.282   4.213   6.742 -0.3876  0.0834 -0.0947
15614SOL    HW249285  10.366   4.089   6.761  0.4582  0.7551  0.6887
15615SOL     OW49286   4.680   3.586   6.170 -0.0775 -0.3982  0.0832
15615SOL    HW149287   4.597   3.540   6.179  0.9658 -2.0888  1.6683
15615SOL    HW249288   4.668   3.667   6.219 -1.1920  0.0188 -0.8312
15616SOL     OW49289   5.118   0.304   4.431  0.1596 -0.1615 -0.6227
15616SOL    HW149290   5.193   0.341   4.477  0.2053 -0.8838 -0.0885
15616SOL    HW249291   5.138   0.211   4.424 -0.4150 -0.2637 -1.0151
15617SOL     OW49292   9.116   5.337   1.714 -0.6212  0.4872  0.5402
15617SOL    HW149293   9.099   5.321   1.807  1.0125  2.5867  1.2904
15617SOL    HW249294   9.113   5.250   1.674 -1.1173 -0.5137  2.5949
15618SOL     OW49295   9.326   8.308   6.951  0.1449 -0.0972  0.2259
15618SOL    HW149296   9.233   8.308   6.974  0.3855  0.0277  1.2381
15618SOL    HW249297   9.334   8.240   6.884 -1.0132  1.2136 -1.3213
15619SOL     OW49298   6.673   5.455   8.278  0.4571 -0.4465 -0.5070
15619SOL    HW149299   6.736   5.521   8.308 -0.7939  1.1925 -1.3210
15619SOL    HW249300   6.588   5.488   8.308 -0.0688 -2.5708  0.5182
15620SOL     OW49301   3.586   6.042   4.866 -0.5349 -0.1326 -0.6204
15620SOL    HW149302   3.585   5.948   4.844  2.9205  0.0125 -2.0584
15620SOL    HW249303   3.589   6.086   4.781  0.0529  1.1498  0.0373
15621SOL     OW49304   4.503   5.234   5.349  0.1004  0.6193 -0.1085
15621SOL    HW149305   4.472   5.229   5.258 -0.3994 -0.7006  0.1149
15621SOL    HW249306   4.577   5.173   5.352 -0.9086 -0.6132  0.7462
15622SOL     OW49307   4.184   1.959   5.653  0.0157 -0.1422 -0.2594
15622SOL    HW149308   4.220   2.047   5.654  0.3461 -0.2245 -2.0336
15622SOL    HW249309   4.240   1.910   5.713  0.0875  0.7487  0.4137
15623SOL     OW49310  10.306   5.956   2.297 -0.3887 -0.1498  0.6538
15623SOL    HW149311  10.349   6.007   2.228 -0.2871 -0.7630  0.2591
15623SOL    HW249312  10.217   5.992   2.300 -0.5559 -0.4567 -0.1700
15624SOL     OW49313   1.640   5.260   4.160 -0.2255 -0.1369 -0.2541
15624SOL    HW149314   1.674   5.193   4.219 -2.8986 -2.3525 -1.0278
15624SOL    HW249315   1.561   5.292   4.203 -0.0785  1.0908 -0.8488
15625SOL     OW49316   6.457   5.770   1.180  0.0429  0.0243  0.1418
15625SOL    HW149317   6.439   5.842   1.119  1.3299 -0.2891 -0.6394
15625SOL    HW249318   6.373   5.724   1.188 -0.7173  1.3990  0.4059
15626SOL     OW49319   7.356   2.583   0.801  0.4332  0.1963  0.3997
15626SOL    HW149320   7.434   2.551   0.755  0.5777  0.6868  0.3021
15626SOL    HW249321   7.317   2.504   0.840  1.2045  0.0122  0.8065
15627SOL     OW49322   5.602   3.539   7.309 -0.1409  0.2134  0.5685
15627SOL    HW149323   5.602   3.455   7.356 -1.0727  1.0194  2.0989
15627SOL    HW249324   5.514   3.546   7.273  0.8375 -0.8607 -2.3269
15628SOL     OW49325   1.985   2.333   2.846  0.2193 -0.2732 -0.4185
15628SOL    HW149326   2.034   2.399   2.895 -0.3694 -0.1300 -0.0034
15628SOL    HW249327   1.974   2.372   2.758 -1.4318  0.8961  0.2433
15629SOL     OW49328   8.049   7.578   7.854 -0.3699 -0.0391  0.2172
15629SOL    HW149329   8.112   7.649   7.839 -0.9178  0.2104 -0.9849
15629SOL    HW249330   8.009   7.600   7.938  0.5145  0.2658  0.5805
15630SOL     OW49331   2.914   1.554   0.640  0.2147  0.3737 -0.6038
15630SOL    HW149332   2.983   1.619   0.651  0.1366  0.5718 -1.2394
15630SOL    HW249333   2.876   1.544   0.727  0.2935  1.1043 -0.4778
15631SOL     OW49334   5.507   4.390   3.686 -0.3822 -0.0762  0.0042
15631SOL    HW149335   5.566   4.322   3.720 -1.1899 -0.8729 -0.1710
15631SOL    HW249336   5.419   4.355   3.698 -0.8435  1.0834  0.2132
15632SOL     OW49337   2.414   8.439   0.771  0.5835 -0.2258  0.7442
15632SOL    HW149338   2.374   8.525   0.782 -0.3835 -0.4943 -0.4945
15632SOL    HW249339   2.363   8.381   0.827 -0.9516 -0.5950 -0.9375
15633SOL     OW49340   4.107   5.886   7.452  0.1303  0.0526 -0.3915
15633SOL    HW149341   4.164   5.956   7.422  0.6334  0.1058  0.6267
15633SOL    HW249342   4.162   5.835   7.513 -1.0358  0.3868  0.9937
15634SOL     OW49343   7.097   8.240   0.071  0.4217 -0.0027  0.6411
15634SOL    HW149344   7.006   8.235   0.044  0.3947  1.2619  0.4463
15634SOL    HW249345   7.114   8.156   0.113 -0.2516 -1.0590 -1.0775
15635SOL     OW49346   5.648   7.006   4.939  0.0592  0.3233 -0.2325
15635SOL    HW149347   5.611   7.032   5.024  1.1171 -0.4563  0.5034
15635SOL    HW249348   5.597   6.929   4.914  1.2182 -0.8523  0.8638
15636SOL     OW49349   4.463   2.824   9.265  0.4340 -0.2726 -0.2236
15636SOL    HW149350   4.403   2.821   9.190  1.0551 -1.0486 -0.7012
15636SOL    HW249351   4.532   2.762   9.243  1.1222  0.1945  0.5796
15637SOL     OW49352   7.476   7.048   0.193  0.1225 -0.4017 -0.2712
15637SOL    HW149353   7.527   7.019   0.269  0.6179 -0.6387 -0.6955
15637SOL    HW249354   7.424   6.971   0.169  1.0390 -0.7880 -1.0639
15638SOL     OW49355   6.488   0.661   2.493  0.3903 -0.0594  0.2962
15638SOL    HW149356   6.580   0.659   2.520 -0.3032 -1.7842  2.9218
15638SOL    HW249357   6.442   0.702   2.566 -1.2174 -1.6230  0.2432
15639SOL     OW49358   1.312   2.012   0.770  0.4024 -0.1845 -0.1124
15639SOL    HW149359   1.243   1.957   0.734 -0.3058 -0.1240  1.0850
15639SOL    HW249360   1.383   2.005   0.707 -0.6334 -0.3571 -1.3200
15640SOL     OW49361   8.922   5.752   2.689 -0.3887 -0.1270 -0.0934
15640SOL    HW149362   8.877   5.830   2.721 -0.1161 -0.1726  0.4049
15640SOL    HW249363   8.853   5.701   2.646 -0.7937 -0.1294  0.5394
15641SOL     OW49364   0.285   5.487   8.565 -0.1159 -0.2826  0.4224
15641SOL    HW149365   0.286   5.460   8.657 -0.6773  0.1355  0.5547
15641SOL    HW249366   0.372   5.463   8.532  0.5662  0.7807  1.4090
15642SOL     OW49367   1.080   8.802   4.888 -0.0858  0.1553 -0.0357
15642SOL    HW149368   1.072   8.713   4.923  1.7021  0.7690  2.1814
15642SOL    HW249369   1.124   8.790   4.803  2.8274 -1.0273  1.4796
15643SOL     OW49370   8.613   7.892   5.158  0.3715  0.4967  0.0906
15643SOL    HW149371   8.557   7.832   5.108  1.2076  0.1997 -0.5087
15643SOL    HW249372   8.645   7.955   5.093  4.9673 -2.3700 -0.8908
15644SOL     OW49373   6.915  10.106   0.258  0.2333 -0.5777  0.3830
15644SOL    HW149374   6.860  10.183   0.275 -0.7481 -0.8709 -1.2979
15644SOL    HW249375   6.962  10.092   0.340 -1.8658 -0.0372  1.7610
15645SOL     OW49376   3.525   4.436   5.442  0.6020 -0.1780 -0.4150
15645SOL    HW149377   3.592   4.497   5.410  0.6920  0.6463  1.2308
15645SOL    HW249378   3.482   4.405   5.363  1.0682  1.4521 -1.3731
15646SOL     OW49379   4.995   5.694   2.477  0.6414 -0.6468  0.0232
15646SOL    HW149380   5.060   5.752   2.517  1.6676 -1.3512 -0.5928
15646SOL    HW249381   4.920   5.697   2.538 -0.0359  2.5920 -0.7880
15647SOL     OW49382  10.001   7.270   6.662 -0.4320 -0.4383  0.2088
15647SOL    HW149383  10.000   7.271   6.758 -0.2804  0.1877  0.2127
15647SOL    HW249384   9.976   7.181   6.638  0.8983 -1.0128  0.8422
15648SOL     OW49385   6.064   7.268   5.513 -0.0835 -0.2212 -0.4879
15648SOL    HW149386   6.147   7.293   5.473 -0.5418  0.6251 -0.9123
15648SOL    HW249387   6.049   7.179   5.481  0.4531 -0.2266 -0.7425
15649SOL     OW49388   5.991   8.100   8.588 -0.6689  0.1606  0.0311
15649SOL    HW149389   5.978   8.108   8.682 -0.2809  1.2767  0.0148
15649SOL    HW249390   6.086   8.109   8.576 -0.8490  1.7621 -0.5651
15650SOL     OW49391   3.411   6.248   6.893 -0.3189  0.6356 -0.2814
15650SOL    HW149392   3.350   6.257   6.819 -1.3211  2.0942  0.6760
15650SOL    HW249393   3.497   6.256   6.853 -0.7393 -0.5435 -1.5397
15651SOL     OW49394   9.727   8.306  10.466  0.3287  0.1914  0.2274
15651SOL    HW149395   9.757   8.230  10.417 -0.8905 -0.4451  0.4408
15651SOL    HW249396   9.793   8.319  10.534  1.3716  0.3161 -0.7883
15652SOL     OW49397   7.596   8.099   2.314 -0.1448 -0.1288  0.5195
15652SOL    HW149398   7.602   8.077   2.407 -2.0343  0.7966  0.9035
15652SOL    HW249399   7.578   8.015   2.271  2.5741 -0.8987  0.6903
15653SOL     OW49400   8.460   2.938   8.109  0.0034 -0.0729 -0.4954
15653SOL    HW149401   8.486   2.952   8.200  0.0044  1.5169 -0.7064
15653SOL    HW249402   8.376   2.893   8.115  0.5968 -1.1286  0.2513
15654SOL     OW49403   4.485   5.929   2.689 -0.0984 -0.4003  0.4795
15654SOL    HW149404   4.548   5.874   2.642 -0.6376 -1.9703  1.5192
15654SOL    HW249405   4.495   5.904   2.781 -1.8545 -0.3118  0.7247
15655SOL     OW49406   4.673   7.879   4.643  0.0420 -0.0905  0.3676
15655SOL    HW149407   4.585   7.854   4.616 -0.5509  0.9206  1.2666
15655SOL    HW249408   4.677   7.973   4.628  1.8590 -0.4345 -1.9730
15656SOL     OW49409   3.642   1.979   2.315 -0.0699  0.7425  0.1941
15656SOL    HW149410   3.621   1.896   2.272  0.7324 -0.2451  1.6327
15656SOL    HW249411   3.734   1.971   2.341 -0.4066  1.4129  1.7393
15657SOL     OW49412   3.164  10.293   8.046 -0.0967  0.1185  0.4997
15657SOL    HW149413   3.107  10.359   8.007 -0.4870 -0.9110 -0.7333
15657SOL    HW249414   3.208  10.252   7.971  0.6969 -0.5135  1.2893
15658SOL     OW49415   1.295   4.384   2.279  0.3695 -0.1512  0.0636
15658SOL    HW149416   1.362   4.426   2.225 -0.6155  0.4093 -0.7582
15658SOL    HW249417   1.314   4.290   2.273 -0.3845 -0.2085 -2.2395
15659SOL     OW49418   2.220   0.236   0.066  0.2117  0.4326 -0.3577
15659SOL    HW149419   2.202   0.148   0.098 -0.4160  0.6163 -0.1843
15659SOL    HW249420   2.172   0.242  -0.017  0.2374  0.6171 -0.3595
15660SOL     OW49421   7.885   4.020   1.256  0.5821 -0.0118 -0.5199
15660SOL    HW149422   7.924   4.047   1.173 -1.2278 -0.9281 -1.7350
15660SOL    HW249423   7.857   3.930   1.241 -0.0870 -0.0779  0.9840
15661SOL     OW49424  10.059   0.696   0.209 -1.1344 -0.2191 -1.2248
15661SOL    HW149425   9.992   0.725   0.146 -1.6861  0.0159 -0.5398
15661SOL    HW249426  10.135   0.750   0.188 -0.9922 -0.7979 -2.3044
15662SOL     OW49427   0.304   0.039   5.957 -0.1155  0.7580 -0.6155
15662SOL    HW149428   0.305   0.045   5.862  0.6396  1.2075 -0.5841
15662SOL    HW249429   0.265  -0.047   5.975  1.3202 -0.0834 -1.3581
15663SOL     OW49430   9.710   7.027  10.480 -0.0110 -0.4311 -0.1929
15663SOL    HW149431   9.655   7.088  10.530 -0.4266 -1.1215  0.2201
15663SOL    HW249432   9.691   7.046  10.389  0.5739  0.6892 -0.0954
15664SOL     OW49433   5.475   6.950   2.592  0.6881 -0.1728 -0.2129
15664SOL    HW149434   5.483   6.976   2.500 -1.2101  0.2537 -0.3078
15664SOL    HW249435   5.430   6.866   2.589  0.0527  0.1403  0.3386
15665SOL     OW49436   6.429  10.335   7.441  0.5941  0.1599 -0.2949
15665SOL    HW149437   6.478  10.334   7.523 -1.4743  0.6838  1.0283
15665SOL    HW249438   6.455  10.418   7.400  0.5093  0.6552  0.6070
15666SOL     OW49439   1.783   2.843   5.614  0.0896 -0.0955 -0.3390
15666SOL    HW149440   1.778   2.789   5.535  1.4359 -1.2893  0.3441
15666SOL    HW249441   1.756   2.930   5.585  1.0374 -0.3793 -2.2579
15667SOL     OW49442  10.220   3.357   1.930  0.5031 -0.7594 -0.1030
15667SOL    HW149443  10.133   3.319   1.936  1.0274 -1.8974  0.5029
15667SOL    HW249444  10.211   3.443   1.973 -0.0956 -1.2586  0.8035
15668SOL     OW49445   7.087   0.074   0.213 -0.1147  0.2632 -0.1964
15668SOL    HW149446   7.007   0.117   0.245  0.1376  0.2356  0.5015
15668SOL    HW249447   7.059   0.027   0.135 -0.9952 -0.5228  0.5615
15669SOL     OW49448   8.555   3.675   5.824  0.4467 -0.1717 -0.0718
15669SOL    HW149449   8.510   3.634   5.898  0.6931 -0.8929 -0.3123
15669SOL    HW249450   8.645   3.645   5.831  1.0713  1.7040  0.7319
15670SOL     OW49451  10.419   4.854   5.845  0.1480 -0.2228  0.6595
15670SOL    HW149452  10.463   4.797   5.908 -1.5389 -0.6165  1.5450
15670SOL    HW249453  10.460   4.939   5.858  0.6752 -0.5727  1.4048
15671SOL     OW49454   2.624   8.699   0.389  0.2203 -0.2079  0.0336
15671SOL    HW149455   2.645   8.617   0.433 -0.3808 -1.2468 -1.5383
15671SOL    HW249456   2.550   8.677   0.332  0.8341  1.1108 -1.3344
15672SOL     OW49457   9.583   8.489   8.265 -0.3159  0.1502 -0.3752
15672SOL    HW149458   9.575   8.514   8.173  0.2822 -0.4069 -0.5929
15672SOL    HW249459   9.585   8.393   8.263  1.7929  0.1263 -0.0083
15673SOL     OW49460   6.331   2.714   3.179 -0.0036  0.1728 -0.0483
15673SOL    HW149461   6.293   2.773   3.114  1.7164  1.4724  0.0444
15673SOL    HW249462   6.256   2.685   3.232 -1.1244  0.9137 -1.1658
15674SOL     OW49463   2.485   4.249   9.380 -0.0989 -0.4706 -0.6390
15674SOL    HW149464   2.521   4.227   9.294 -0.2391  0.9354 -1.0816
15674SOL    HW249465   2.417   4.314   9.361 -0.3777 -0.4076  0.5153
15675SOL     OW49466   8.225   4.985   3.610 -0.3986 -0.5754 -0.4067
15675SOL    HW149467   8.197   5.002   3.520 -3.5662 -2.9715 -0.0327
15675SOL    HW249468   8.237   4.890   3.614 -0.0310 -0.4919  1.6080
15676SOL     OW49469   7.738   0.916   7.286  0.6454 -0.3210 -0.0675
15676SOL    HW149470   7.716   0.826   7.308 -0.0140 -0.3370 -0.7590
15676SOL    HW249471   7.730   0.921   7.191 -3.3179  1.3900  0.1515
15677SOL     OW49472   8.274   3.474   2.730  0.3323 -0.0740 -0.1729
15677SOL    HW149473   8.257   3.467   2.824 -1.3098 -0.3700 -0.4627
15677SOL    HW249474   8.221   3.549   2.702  0.1154 -0.5277 -1.0085
15678SOL     OW49475   3.863   0.462   4.742  0.6788  0.1186  0.0035
15678SOL    HW149476   3.815   0.388   4.779 -0.8966  0.5911 -0.9934
15678SOL    HW249477   3.858   0.448   4.647  2.9107 -0.0228 -0.1456
15679SOL     OW49478   5.217   7.226   0.916 -0.3625 -0.2165  0.2738
15679SOL    HW149479   5.233   7.136   0.947  0.6123 -0.2033 -0.1421
15679SOL    HW249480   5.155   7.262   0.979  1.5938 -0.1652  2.3418
15680SOL     OW49481   7.204   2.829   7.650 -0.3492  0.5286 -0.1740
15680SOL    HW149482   7.175   2.738   7.652  0.4554  0.2728  0.2037
15680SOL    HW249483   7.177   2.861   7.563  0.4872 -0.4493 -0.8224
15681SOL     OW49484   4.232   5.860   4.987 -0.5635 -0.3724  0.3252
15681SOL    HW149485   4.143   5.824   4.985 -1.1287  0.8869  1.5741
15681SOL    HW249486   4.268   5.829   5.070 -0.6097  0.8522  0.8178
15682SOL     OW49487   2.747   2.265   7.875  1.4523  0.0229  0.6035
15682SOL    HW149488   2.685   2.194   7.892  2.0136 -0.4262  0.8048
15682SOL    HW249489   2.816   2.253   7.940  2.3283 -0.1714 -0.3330
15683SOL     OW49490   7.280   2.802  10.185 -0.5109  0.6633  0.6785
15683SOL    HW149491   7.220   2.857  10.134 -0.7965 -0.1467  0.1260
15683SOL    HW249492   7.335   2.865  10.232  0.4575  1.4621 -1.3961
15684SOL     OW49493   8.933   6.586   4.108 -0.4517  0.2700 -0.0695
15684SOL    HW149494   8.991   6.567   4.035 -0.8681 -2.0825  0.1416
15684SOL    HW249495   8.992   6.603   4.182 -0.0427  0.8043 -0.5139
15685SOL     OW49496   9.706   2.586   0.943 -0.1398 -0.0548  0.1336
15685SOL    HW149497   9.643   2.573   1.013  1.2586  0.3089  1.5357
15685SOL    HW249498   9.682   2.523   0.876 -1.3893 -0.5785  1.0396
15686SOL     OW49499   5.212   5.670   3.891 -0.1229  0.2549  0.2603
15686SOL    HW149500   5.231   5.635   3.979 -1.3367  0.1967  0.5101
15686SOL    HW249501   5.128   5.633   3.868 -0.7008  1.7308 -0.1483
15687SOL     OW49502   6.344   3.053   5.275  0.2738  0.3554  0.1221
15687SOL    HW149503   6.354   3.075   5.368 -0.8070  0.1308  0.3038
15687SOL    HW249504   6.250   3.040   5.264  0.5228 -0.7550 -0.7546
15688SOL     OW49505   8.409   5.418   1.129  0.5013  0.1358 -0.0752
15688SOL    HW149506   8.468   5.355   1.087  2.7975  1.8350  0.4290
15688SOL    HW249507   8.427   5.409   1.223 -1.0775 -0.2342  0.2258
15689SOL     OW49508   1.822   2.320   4.765  0.1214  0.0313 -0.0097
15689SOL    HW149509   1.762   2.340   4.693  0.2623  1.1816  0.1620
15689SOL    HW249510   1.823   2.225   4.771  0.3534 -0.0967 -1.7246
15690SOL     OW49511   4.736   7.303   6.617  0.0100  0.1642  0.3041
15690SOL    HW149512   4.788   7.224   6.602  0.9774  0.6004  1.2059
15690SOL    HW249513   4.755   7.359   6.541 -0.4247 -0.3215 -0.1730
15691SOL     OW49514   7.308   1.801   3.281  0.1063 -0.0280 -0.2556
15691SOL    HW149515   7.296   1.812   3.186 -0.5476  0.6927 -0.0983
15691SOL    HW249516   7.310   1.890   3.316  2.3169 -0.2010  0.2074
15692SOL     OW49517   9.791   4.078   2.023 -0.1605  0.4065 -0.3013
15692SOL    HW149518   9.716   4.126   2.060  0.2912  1.5482 -0.8401
15692SOL    HW249519   9.797   4.109   1.933 -0.1655 -1.0612 -0.8415
15693SOL     OW49520   6.642   9.360   3.411 -0.4029  0.0708  0.0789
15693SOL    HW149521   6.595   9.434   3.373 -2.4720 -1.3275 -0.2827
15693SOL    HW249522   6.733   9.373   3.386 -0.9931  1.5631 -1.4740
15694SOL     OW49523  10.024   7.061   9.352 -0.7466  0.6399  0.0607
15694SOL    HW149524   9.998   7.089   9.264 -0.8957  0.0477 -0.0872
15694SOL    HW249525   9.943   7.027   9.391 -0.3162 -0.8218 -0.2510
15695SOL     OW49526   5.280   6.371   4.196 -0.0053 -0.1450 -0.5590
15695SOL    HW149527   5.207   6.320   4.164 -0.2400  0.0114 -0.2813
15695SOL    HW249528   5.241   6.452   4.228 -0.0985 -1.1446  2.1386
15696SOL     OW49529   3.567   7.102  10.478  0.5713  0.2907  0.4379
15696SOL    HW149530   3.538   7.188  10.506  0.2861  0.0169  1.0089
15696SOL    HW249531   3.495   7.043  10.501  0.2023  0.0737 -1.1297
15697SOL     OW49532   2.060   5.295   8.805  0.1419 -0.1768 -0.5569
15697SOL    HW149533   2.099   5.375   8.840 -0.5383  1.1404 -2.6607
15697SOL    HW249534   1.966   5.306   8.817  0.0960 -2.0040  1.7034
15698SOL     OW49535   1.040   0.194   7.181  0.3791 -0.0326  0.3869
15698SOL    HW149536   1.057   0.210   7.274  1.1065 -0.3913  0.3238
15698SOL    HW249537   1.112   0.237   7.136  0.3597 -0.3740  0.0214
15699SOL     OW49538   8.385   3.147  10.181 -0.1137 -0.3398  0.5424
15699SOL    HW149539   8.402   3.159  10.275 -0.9503  1.7381  0.4695
15699SOL    HW249540   8.468   3.112  10.147  1.0375  1.1360  1.6657
15700SOL     OW49541   9.966   7.290   3.638 -0.5117 -0.2555 -0.0219
15700SOL    HW149542  10.015   7.352   3.582 -0.6031 -0.4027 -0.2650
15700SOL    HW249543   9.924   7.230   3.577  0.8646 -1.5539  0.2437
15701SOL     OW49544   3.660   8.882   4.274 -0.5409 -0.1585 -0.5494
15701SOL    HW149545   3.595   8.812   4.261 -1.0121  0.2912 -0.6402
15701SOL    HW249546   3.689   8.904   4.186  0.9489 -1.4716 -0.4291
15702SOL     OW49547   3.818   4.575   6.518 -0.2326  0.0720 -0.4882
15702SOL    HW149548   3.748   4.638   6.502  0.1377  0.8395  0.7435
15702SOL    HW249549   3.854   4.556   6.431  0.0383  2.0446 -0.8519
15703SOL     OW49550   6.288   6.039   8.440  0.1778 -0.2791 -0.2355
15703SOL    HW149551   6.199   6.012   8.464  0.5864  1.1837  3.6106
15703SOL    HW249552   6.294   6.130   8.467  2.4699  0.0995 -1.7264
15704SOL     OW49553   1.746   6.241   6.443  0.1213 -1.2168 -0.2584
15704SOL    HW149554   1.653   6.253   6.425 -0.0280  0.7518  1.3666
15704SOL    HW249555   1.753   6.152   6.477 -1.4259 -0.9643  0.8302
15705SOL     OW49556   7.335   0.226   8.706 -0.1926 -0.2275  0.4383
15705SOL    HW149557   7.422   0.206   8.672 -0.8294 -2.9062  0.2209
15705SOL    HW249558   7.306   0.301   8.654  1.6360  0.1943 -0.0493
15706SOL     OW49559   2.233   7.007   6.797 -0.5436 -0.5419  0.5597
15706SOL    HW149560   2.162   6.981   6.856 -1.1488  0.7756  0.4452
15706SOL    HW249561   2.292   7.060   6.852 -0.6121 -0.1095  0.2210
15707SOL     OW49562  10.285   3.585   7.340  0.3961 -0.5070 -0.1829
15707SOL    HW149563  10.212   3.566   7.399  0.0827  0.8688 -0.0758
15707SOL    HW249564  10.269   3.531   7.263 -0.2724 -0.8455  0.1871
15708SOL     OW49565   7.476   2.313   1.708 -0.8657 -0.2008 -0.1426
15708SOL    HW149566   7.468   2.368   1.631  0.4361 -0.1441 -0.2629
15708SOL    HW249567   7.507   2.228   1.674  2.0885  0.5155  0.4625
15709SOL     OW49568   1.296   8.384   1.816 -0.4251 -0.6246  0.3220
15709SOL    HW149569   1.358   8.457   1.827 -0.9703 -0.1502  0.3355
15709SOL    HW249570   1.337   8.327   1.752 -1.0408  0.9048 -1.5303
15710SOL     OW49571   4.298   1.766   6.261  0.3925  0.4403 -0.0681
15710SOL    HW149572   4.205   1.758   6.239  0.2221  0.8470  0.4960
15710SOL    HW249573   4.314   1.860   6.264  1.1244  0.3796 -1.3811
15711SOL     OW49574   6.799   6.718   5.512  0.0814 -0.0864 -0.5886
15711SOL    HW149575   6.798   6.672   5.596  1.0552  1.1535  0.1168
15711SOL    HW249576   6.886   6.702   5.477 -0.0446  0.0885 -0.9845
15712SOL     OW49577   3.093   5.912   7.108 -0.1335  0.1232 -0.2845
15712SOL    HW149578   3.122   5.836   7.158  0.0904  0.9970  0.9392
15712SOL    HW249579   3.170   5.969   7.104 -0.8597  1.1855  0.5360
15713SOL     OW49580   3.539   5.184   8.433  0.3177  0.5097 -0.3857
15713SOL    HW149581   3.506   5.273   8.417  0.2564  0.8026  1.2348
15713SOL    HW249582   3.500   5.131   8.363  0.2333  1.7169 -1.2883
15714SOL     OW49583   4.497   8.616   8.200  0.0194 -0.0964  0.3320
15714SOL    HW149584   4.550   8.655   8.129 -1.0964  0.2884 -0.3131
15714SOL    HW249585   4.547   8.539   8.228  0.8433  0.1700 -0.3632
15715SOL     OW49586   5.751   9.678   0.129  0.3099  0.0885  0.4335
15715SOL    HW149587   5.818   9.731   0.172 -3.5603  4.8441  1.4200
15715SOL    HW249588   5.698   9.643   0.200 -0.3003 -0.6787 -0.3715
15716SOL     OW49589   9.851   5.902   2.337  0.5335 -0.0723 -0.1724
15716SOL    HW149590   9.939   5.939   2.345 -0.0253  1.5167 -1.1018
15716SOL    HW249591   9.803   5.963   2.281 -1.2679 -0.7344  0.5644
15717SOL     OW49592   9.656   8.376   7.715 -0.0343  0.3199  0.4560
15717SOL    HW149593   9.661   8.391   7.620 -1.4627 -2.4670 -0.1568
15717SOL    HW249594   9.690   8.288   7.727  3.2880  1.7320  3.0812
15718SOL     OW49595   5.733   4.576   1.507  0.5433  0.8419 -0.4131
15718SOL    HW149596   5.790   4.500   1.492  0.1316  0.6155 -0.8768
15718SOL    HW249597   5.646   4.546   1.479 -0.0211  0.8288  1.2605
15719SOL     OW49598   3.932   5.991   9.403 -0.5601 -0.0897  0.4978
15719SOL    HW149599   4.007   6.036   9.441  0.0275 -1.8205  1.5074
15719SOL    HW249600   3.869   5.984   9.475  0.2230 -2.6618  1.0351
15720SOL     OW49601   3.626   3.684   2.087  0.7227  0.2294 -0.1508
15720SOL    HW149602   3.596   3.650   2.002 -1.3458  1.1094  0.1734
15720SOL    HW249603   3.633   3.778   2.073  2.7346  0.1487  0.0244
15721SOL     OW49604   6.191   6.504   2.178 -0.2274 -0.0024 -0.1463
15721SOL    HW149605   6.102   6.483   2.206  0.7551 -2.0295  1.6776
15721SOL    HW249606   6.211   6.587   2.221 -0.7389 -0.2587  0.5892
15722SOL     OW49607   4.635   0.517   8.285  0.0267 -0.4438  0.0003
15722SOL    HW149608   4.650   0.603   8.323 -0.0171  0.0610 -1.0905
15722SOL    HW249609   4.615   0.460   8.360 -0.0189  0.5049  0.7174
15723SOL     OW49610   4.435   2.392   8.422  0.2897 -0.5142 -0.6651
15723SOL    HW149611   4.384   2.343   8.358  0.6344  1.6354 -2.7037
15723SOL    HW249612   4.503   2.332   8.450 -1.0101 -2.1410 -0.8168
15724SOL     OW49613   8.438  10.191   5.960  0.2809  0.1108 -0.4980
15724SOL    HW149614   8.412  10.119   6.018  0.7552  0.1433 -0.2424
15724SOL    HW249615   8.534  10.192   5.963  0.2948  0.4165 -0.9121
15725SOL     OW49616  10.467   5.237   1.918  0.1476 -0.4127 -0.0388
15725SOL    HW149617  10.541   5.186   1.885 -0.4332  0.6168 -3.3055
15725SOL    HW249618  10.439   5.191   1.997  0.7597 -4.1652 -1.7899
15726SOL     OW49619   8.993   2.204   1.599  0.0453  0.5326 -0.0719
15726SOL    HW149620   9.008   2.294   1.570  1.6355  0.1344 -0.6259
15726SOL    HW249621   8.959   2.159   1.521  0.4376  0.3881 -0.1648
15727SOL     OW49622   2.851   5.467   6.405 -0.1517  0.5488  0.0290
15727SOL    HW149623   2.933   5.504   6.439 -0.4534 -0.9441  2.6485
15727SOL    HW249624   2.788   5.479   6.476 -1.4841 -0.7514 -0.8750
15728SOL     OW49625   8.000   1.041   7.831 -0.0861 -0.5037  0.0634
15728SOL    HW149626   8.076   1.050   7.889  0.3700  1.7845 -0.8126
15728SOL    HW249627   7.992   0.946   7.818  2.3576 -0.8487  0.5349
15729SOL     OW49628   8.638   1.581   5.439  0.1052  0.3444  0.4588
15729SOL    HW149629   8.583   1.655   5.466  1.0636  1.5847 -0.8024
15729SOL    HW249630   8.644   1.526   5.517 -0.8244  1.4784  1.3735
15730SOL     OW49631   6.273   1.851   2.808 -0.0001  0.3321  0.5180
15730SOL    HW149632   6.329   1.812   2.875  0.3017  0.1674  0.1726
15730SOL    HW249633   6.234   1.776   2.762  0.0824  0.4421  0.2686
15731SOL     OW49634   0.585   5.132   0.178  0.1051  0.9217 -0.1893
15731SOL    HW149635   0.640   5.128   0.099  2.4027 -0.3227  1.3566
15731SOL    HW249636   0.551   5.043   0.188  0.0719  0.9942  0.3636
15732SOL     OW49637   6.403   3.675   3.086  0.2078 -0.3208 -0.2870
15732SOL    HW149638   6.323   3.655   3.134  0.0074  1.2466  0.1002
15732SOL    HW249639   6.458   3.721   3.150 -0.5111  2.8743 -1.7159
15733SOL     OW49640   9.549   3.428   0.723  0.4015  0.1027  0.2409
15733SOL    HW149641   9.504   3.411   0.806  1.0941 -2.3555  0.1885
15733SOL    HW249642   9.487   3.481   0.673 -1.7288 -1.6320  0.8585
15734SOL     OW49643   6.650   2.027  10.227 -0.6347  0.6378  0.2487
15734SOL    HW149644   6.689   1.939  10.226  0.8136  1.2628  0.0009
15734SOL    HW249645   6.633   2.045  10.320 -0.0690  0.4733  0.3847
15735SOL     OW49646   9.058   1.424   8.261 -0.1002  0.4622 -0.4140
15735SOL    HW149647   9.093   1.348   8.214 -1.3462 -1.2267  1.2163
15735SOL    HW249648   9.105   1.423   8.345 -1.7789  0.0033  0.5661
15736SOL     OW49649   7.688   6.763   0.164 -0.4838  0.2861 -0.1812
15736SOL    HW149650   7.689   6.728   0.075  1.7338 -2.7233  0.8514
15736SOL    HW249651   7.747   6.838   0.161  0.0091 -0.1191 -1.1545
15737SOL     OW49652   9.021   0.199   9.029 -0.2151 -0.1050 -0.2250
15737SOL    HW149653   9.000   0.290   9.053  0.0714  0.0036 -0.3748
15737SOL    HW249654   8.959   0.146   9.078  0.9433  0.0634  1.4917
15738SOL     OW49655   7.194   7.170   4.141 -0.2082 -0.1560 -0.4164
15738SOL    HW149656   7.131   7.101   4.159  1.4388 -2.4852 -2.8074
15738SOL    HW249657   7.278   7.125   4.136  1.3985  2.4736  0.4337
15739SOL     OW49658  10.292   5.416   4.938  0.2822 -0.0376 -0.4475
15739SOL    HW149659  10.229   5.451   5.000  1.2852  2.7616 -0.8569
15739SOL    HW249660  10.367   5.475   4.943  1.1673 -0.7765 -2.9702
15740SOL     OW49661   1.298   5.915   9.281  0.3109 -0.2233 -0.1789
15740SOL    HW149662   1.376   5.928   9.334  0.2110  2.1624 -0.4704
15740SOL    HW249663   1.317   5.840   9.226  0.8193 -2.1429  2.4465
15741SOL     OW49664   6.330   4.797   5.249  0.0325 -0.0272 -0.7608
15741SOL    HW149665   6.305   4.772   5.161 -1.3329 -0.1003 -0.3726
15741SOL    HW249666   6.425   4.809   5.245  0.1500 -1.1682 -1.9428
15742SOL     OW49667   0.355   9.179   6.481  0.1758  0.0704  0.2544
15742SOL    HW149668   0.343   9.245   6.413  0.1644 -0.6281 -0.4447
15742SOL    HW249669   0.350   9.096   6.434 -0.9476 -0.4680  1.2828
15743SOL     OW49670   6.780   2.365   3.366 -0.2042  0.5938 -0.1041
15743SOL    HW149671   6.761   2.446   3.317  0.4670  0.4312 -0.6482
15743SOL    HW249672   6.832   2.394   3.441 -0.6775  0.7638  0.1636
15744SOL     OW49673   1.409   1.471   7.245  0.1909 -0.0791 -0.3499
15744SOL    HW149674   1.438   1.540   7.305  2.7991 -0.9138 -0.5312
15744SOL    HW249675   1.421   1.390   7.294  0.1764 -0.6132 -1.2095
15745SOL     OW49676   1.570   8.983   4.611  0.6053  0.2232 -0.2177
15745SOL    HW149677   1.476   8.976   4.623  0.6663 -0.0472  0.1099
15745SOL    HW249678   1.608   8.949   4.692  0.9855  0.2053 -0.3970
15746SOL     OW49679   4.089   5.153   2.003 -0.4817  0.6377  0.1105
15746SOL    HW149680   4.158   5.155   2.070  0.0362 -0.1795 -0.3796
15746SOL    HW249681   4.007   5.156   2.053 -0.0972  0.3488  0.7665
15747SOL     OW49682   9.678   7.471   4.733  0.5056  0.5806  0.2531
15747SOL    HW149683   9.731   7.545   4.763  1.9221 -0.5924  0.7715
15747SOL    HW249684   9.663   7.489   4.640  1.4028  1.2062  0.2109
15748SOL     OW49685   9.476   4.708   9.588 -0.4565  0.1668 -0.0770
15748SOL    HW149686   9.409   4.696   9.521 -1.0914  0.9095  0.4126
15748SOL    HW249687   9.442   4.662   9.665 -0.7694  1.1491  0.3951
15749SOL     OW49688   7.672   1.429   7.499  0.7652  0.1805  0.0851
15749SOL    HW149689   7.612   1.450   7.426  0.6238 -0.2160  0.0835
15749SOL    HW249690   7.624   1.365   7.551  0.4966  1.1351  1.0371
15750SOL     OW49691   4.861   3.039   4.532  0.6464 -0.0536 -0.0434
15750SOL    HW149692   4.825   2.982   4.465 -1.0453  1.2989 -0.3694
15750SOL    HW249693   4.785   3.089   4.564  2.0084  1.9203  0.2872
15751SOL     OW49694   5.355   4.937   7.246  0.0199  0.0326 -0.1752
15751SOL    HW149695   5.444   4.928   7.211  0.3678  2.0450  0.1078
15751SOL    HW249696   5.353   4.877   7.321  1.5705  0.8628  0.5751
15752SOL     OW49697   0.802   7.497   6.087 -0.9477 -0.4396 -0.0158
15752SOL    HW149698   0.717   7.535   6.109 -0.8327 -0.4032  0.3653
15752SOL    HW249699   0.863   7.534   6.152 -0.5996 -0.3009 -0.4096
15753SOL     OW49700   5.467   1.703   2.263 -0.2780 -0.0021  0.3385
15753SOL    HW149701   5.434   1.772   2.205 -1.4675  0.3694  1.3869
15753SOL    HW249702   5.522   1.648   2.208 -2.5042 -0.5094 -1.5197
15754SOL     OW49703   5.426   0.698   5.538  0.1262 -0.1243  0.2335
15754SOL    HW149704   5.387   0.714   5.452  2.7243 -1.0758 -1.2154
15754SOL    HW249705   5.374   0.627   5.576 -1.3351  0.6209 -0.3017
15755SOL     OW49706   2.200   5.980   5.947  0.0935  0.3162  0.2441
15755SOL    HW149707   2.204   5.887   5.969  0.9244  0.2741 -0.0782
15755SOL    HW249708   2.238   6.024   6.022  0.8823  0.3068 -0.1348
15756SOL     OW49709   8.436   6.412   9.890  0.1032  0.6107 -0.1326
15756SOL    HW149710   8.361   6.467   9.867 -0.5076 -0.7085 -1.4433
15756SOL    HW249711   8.494   6.420   9.814  0.3502  0.0322 -0.0066
15757SOL     OW49712   3.323   0.119   7.705 -0.2826 -0.2682 -0.1678
15757SOL    HW149713   3.326   0.027   7.732  0.2934  0.0373  0.8810
15757SOL    HW249714   3.379   0.124   7.628  0.6122 -0.5970  0.4459
15758SOL     OW49715   6.658   2.643   6.645 -0.5902 -0.1038  0.1566
15758SOL    HW149716   6.615   2.565   6.611  0.6027 -0.3717 -0.7941
15758SOL    HW249717   6.643   2.640   6.740 -2.1983 -0.4448 -0.0795
15759SOL     OW49718   3.778   5.461   7.880 -0.7242  0.2823 -0.2325
15759SOL    HW149719   3.766   5.448   7.975 -2.4058  0.9853 -0.3082
15759SOL    HW249720   3.712   5.527   7.857 -0.4148  0.0295 -1.9155
15760SOL     OW49721   9.709   8.485   1.082  0.4014 -0.1080  0.5381
15760SOL    HW149722   9.791   8.493   1.032 -0.0284 -0.7860 -0.2938
15760SOL    HW249723   9.680   8.576   1.094 -0.6850  0.0748 -2.5335
15761SOL     OW49724   6.634   3.701   2.400  0.5928 -0.1307 -0.2877
15761SOL    HW149725   6.626   3.612   2.434  0.0992  0.8409  2.3246
15761SOL    HW249726   6.723   3.728   2.423  1.0784 -0.2057 -1.9052
15762SOL     OW49727   7.261   9.459   1.288  0.1120 -0.7234  0.2036
15762SOL    HW149728   7.212   9.535   1.258  1.7430  0.2123 -0.1700
15762SOL    HW249729   7.236   9.389   1.228  1.6444  0.5541 -2.0451
15763SOL     OW49730   9.915   1.612   8.222  0.8342 -0.4191 -0.1354
15763SOL    HW149731   9.910   1.672   8.147 -0.6553 -0.0483  0.2220
15763SOL    HW249732   9.959   1.663   8.290 -2.2361  1.1879  0.8811
15764SOL     OW49733   9.235   5.055   9.606  0.4122  0.2282 -0.6101
15764SOL    HW149734   9.158   4.998   9.598  0.8571 -0.2865 -1.3527
15764SOL    HW249735   9.232   5.111   9.528  1.2934 -0.4409 -1.1489
15765SOL     OW49736   5.646   7.563   7.142  0.1289  0.0995 -0.0445
15765SOL    HW149737   5.724   7.618   7.146  0.2652 -0.1314  0.5211
15765SOL    HW249738   5.591   7.593   7.214  0.7492 -1.3039  1.0616
15766SOL     OW49739   0.445   3.629   7.106 -0.0922  0.5297  0.1282
15766SOL    HW149740   0.518   3.598   7.159 -0.2828 -2.4642 -1.1642
15766SOL    HW249741   0.486   3.658   7.024 -0.2514 -1.1352 -0.5908
15767SOL     OW49742   4.168   5.671   7.140  0.0913 -0.2456  0.2126
15767SOL    HW149743   4.213   5.602   7.091  0.1597  0.3201 -0.5493
15767SOL    HW249744   4.168   5.641   7.230  0.9389 -0.8147  0.0345
15768SOL     OW49745   0.191   3.260   9.871  0.4138  0.0236 -0.2983
15768SOL    HW149746   0.283   3.279   9.853  0.4241  0.5975  0.3123
15768SOL    HW249747   0.145   3.339   9.845  0.1799  0.0127  0.0847
15769SOL     OW49748   7.007   7.115   1.689 -0.0602 -0.0747  0.4204
15769SOL    HW149749   7.009   7.019   1.686  0.4630 -0.1579 -3.7062
15769SOL    HW249750   7.098   7.141   1.675 -0.4400  0.9314 -0.3645
15770SOL     OW49751   7.697   5.149   8.811 -0.5834 -0.2736 -0.4348
15770SOL    HW149752   7.709   5.060   8.777 -1.1654 -0.9744  1.1134
15770SOL    HW249753   7.605   5.152   8.838 -0.7452  1.0299 -1.0832
15771SOL     OW49754   8.111   8.546   4.636 -0.0381  0.6530  0.2735
15771SOL    HW149755   8.197   8.507   4.652  0.3766  2.4655  3.0904
15771SOL    HW249756   8.051   8.493   4.689 -1.0550 -1.5447 -2.8161
15772SOL     OW49757   7.367  10.427   6.051  0.5841 -0.4984 -0.5414
15772SOL    HW149758   7.454  10.453   6.083 -0.1390  2.0611 -0.4805
15772SOL    HW249759   7.362  10.466   5.964 -0.7200 -0.1228 -0.3081
15773SOL     OW49760   0.556   3.768   1.312  0.1118 -0.0290  0.0771
15773SOL    HW149761   0.479   3.809   1.352 -0.4706  1.2568 -2.1734
15773SOL    HW249762   0.522   3.688   1.272  0.0201  0.2493 -0.4220
15774SOL     OW49763   1.894  10.297   4.487  0.0200 -0.4477 -0.4689
15774SOL    HW149764   1.834  10.258   4.550  0.6594  0.9081  1.0636
15774SOL    HW249765   1.979  10.257   4.507  0.0770 -0.5903 -0.9993
15775SOL     OW49766   0.158   9.105   8.652 -0.0408  0.0588 -0.2194
15775SOL    HW149767   0.176   9.173   8.717  2.8393  0.5944 -1.4537
15775SOL    HW249768   0.128   9.153   8.575 -0.9512 -0.3806 -0.1627
15776SOL     OW49769   8.806   4.197   7.951 -0.1470  0.0138 -0.6519
15776SOL    HW149770   8.770   4.150   7.876  0.9169 -1.8768 -0.0308
15776SOL    HW249771   8.756   4.164   8.026  0.7915 -0.3484 -0.1741
15777SOL     OW49772   2.089   6.303   0.560  0.3187 -0.2343  0.3897
15777SOL    HW149773   2.148   6.236   0.595  0.3731  0.9338  2.6935
15777SOL    HW249774   2.003   6.262   0.561  0.7875 -1.4710 -1.7073
15778SOL     OW49775   3.359   3.196   0.326 -0.2007  0.0051 -0.0194
15778SOL    HW149776   3.413   3.242   0.390  0.5392 -1.3450  0.3572
15778SOL    HW249777   3.361   3.252   0.248  1.9147 -0.1019 -0.0953
15779SOL     OW49778   2.946   3.264   4.080  0.5368  0.3003 -0.1979
15779SOL    HW149779   2.867   3.256   4.134  0.3626 -1.5105 -0.6424
15779SOL    HW249780   2.913   3.289   3.994  0.7548  2.4727  0.2807
15780SOL     OW49781  10.491   1.511   1.141  0.2982 -0.3000 -0.4537
15780SOL    HW149782  10.438   1.579   1.099 -0.0865 -0.4986 -0.2927
15780SOL    HW249783  10.555   1.486   1.075  0.1970 -0.0477 -0.6471
15781SOL     OW49784   5.879   5.723   1.681  0.3544 -0.0541  0.7089
15781SOL    HW149785   5.951   5.713   1.744  1.6031 -0.6316 -0.7234
15781SOL    HW249786   5.907   5.671   1.606 -2.5545 -2.0060  0.8559
15782SOL     OW49787   5.856   0.831   4.208  0.0750 -0.0981 -0.1377
15782SOL    HW149788   5.915   0.789   4.145  0.4137  0.8728 -0.4902
15782SOL    HW249789   5.817   0.904   4.160 -1.4234 -0.7122  0.1026
15783SOL     OW49790   9.515   5.244   2.745  0.0919  0.4813  0.4124
15783SOL    HW149791   9.429   5.287   2.740 -0.3680 -0.4207  0.5062
15783SOL    HW249792   9.496   5.153   2.767  1.1036  0.3705  0.8900
15784SOL     OW49793   5.490   9.442   2.119 -0.1881  0.2456 -0.2556
15784SOL    HW149794   5.420   9.378   2.108 -0.1805  0.4884 -1.8444
15784SOL    HW249795   5.555   9.418   2.053  0.3224  1.2206 -0.1278
15785SOL     OW49796   7.643   8.779   7.332 -0.0238  0.1315  0.4059
15785SOL    HW149797   7.579   8.824   7.277  0.2048  0.0124  0.0340
15785SOL    HW249798   7.727   8.820   7.308 -0.0108  0.6064  1.2152
15786SOL     OW49799   2.313   0.202   4.895  0.0699  0.1341  0.0592
15786SOL    HW149800   2.310   0.155   4.978  1.5382  2.4036  1.5413
15786SOL    HW249801   2.255   0.277   4.907 -1.0002 -0.3552 -1.6344
15787SOL     OW49802   8.001   6.504   8.668 -0.8334  0.3864 -0.4315
15787SOL    HW149803   8.001   6.569   8.598  1.4437 -1.8011 -2.6901
15787SOL    HW249804   8.077   6.527   8.722  0.1085 -0.4442 -1.3622
15788SOL     OW49805   3.594   3.554   9.909  0.4170 -0.4099 -0.2671
15788SOL    HW149806   3.574   3.497   9.835 -0.5797 -0.7043  0.2239
15788SOL    HW249807   3.524   3.620   9.909 -0.7769 -1.6020  1.6157
15789SOL     OW49808   3.609   2.185   3.228 -0.3569  0.1586  0.0636
15789SOL    HW149809   3.679   2.140   3.275  0.1404  1.5912  0.7677
15789SOL    HW249810   3.654   2.240   3.164 -0.7227  1.8468  1.1758
15790SOL     OW49811   0.009   6.889   6.365 -1.1895  0.2460  0.4489
15790SOL    HW149812   0.011   6.796   6.345  0.8351  0.2069  0.6238
15790SOL    HW249813   0.087   6.925   6.322 -0.6856  1.4359  2.2072
15791SOL     OW49814   5.200   0.215   5.966  1.0185 -0.6136 -0.1817
15791SOL    HW149815   5.190   0.121   5.955  0.4559 -0.6858  0.8496
15791SOL    HW249816   5.113   0.251   5.950  0.6316 -0.5380  1.8056
15792SOL     OW49817   1.482   9.341   9.292 -0.5786  0.2736 -0.5439
15792SOL    HW149818   1.411   9.378   9.240 -0.1258  0.7853 -0.8079
15792SOL    HW249819   1.518   9.272   9.237 -0.9169 -0.0366 -0.3781
15793SOL     OW49820   2.293   9.050   3.852  0.9355 -0.0883  0.1898
15793SOL    HW149821   2.223   9.114   3.863  0.1108 -0.8598 -0.4990
15793SOL    HW249822   2.368   9.102   3.822 -0.1740  0.3727 -2.0034
15794SOL     OW49823   8.849   9.435   0.766 -0.0338  0.2355 -0.2450
15794SOL    HW149824   8.879   9.356   0.812  0.0075  1.2188  1.5026
15794SOL    HW249825   8.769   9.461   0.812  0.5799  1.8490 -0.0206
15795SOL     OW49826   2.410   1.711   1.597 -0.6584  0.3716 -0.1829
15795SOL    HW149827   2.362   1.629   1.599  1.1312 -0.7316  0.1958
15795SOL    HW249828   2.426   1.727   1.504  0.1171 -0.4470 -0.2091
15796SOL     OW49829   2.610   6.705   1.740 -0.1497  0.0595 -0.5294
15796SOL    HW149830   2.687   6.763   1.739 -1.5118  1.9469 -0.4115
15796SOL    HW249831   2.618   6.657   1.822 -0.1803  1.8414  0.5777
15797SOL     OW49832   8.771   5.384   1.825 -0.0704  0.1495  0.2118
15797SOL    HW149833   8.857   5.373   1.866 -0.7359  0.3416  1.7112
15797SOL    HW249834   8.766   5.478   1.806  0.2040  0.0748 -0.2391
15798SOL     OW49835   2.325   2.144   9.593 -0.0443  0.6363 -0.0664
15798SOL    HW149836   2.318   2.197   9.513  0.9175  1.7759  0.5727
15798SOL    HW249837   2.259   2.181   9.652 -0.6532 -0.1115 -0.2556
15799SOL     OW49838   6.358   2.532   3.548 -0.1997  0.2900  0.4185
15799SOL    HW149839   6.342   2.456   3.491 -1.3884 -0.1084  1.2582
15799SOL    HW249840   6.411   2.498   3.619  1.3844  0.8147 -0.4495
15800SOL     OW49841   7.539   0.934   5.911  0.0630 -0.0844 -0.8545
15800SOL    HW149842   7.581   0.985   5.842 -0.6848  1.4033 -0.2502
15800SOL    HW249843   7.494   0.999   5.965 -0.7734 -1.3744  0.0571
15801SOL     OW49844   7.905   9.780   4.469 -0.4137 -0.1856  0.5777
15801SOL    HW149845   7.833   9.761   4.529  0.4118  0.1013  1.6850
15801SOL    HW249846   7.910   9.703   4.412 -1.5865 -0.2066  0.4802
15802SOL     OW49847   5.875   5.534  10.390 -0.1594 -0.5923  0.4616
15802SOL    HW149848   5.938   5.541  10.462 -0.1881 -0.1097  0.4411
15802SOL    HW249849   5.809   5.473  10.422 -1.1341  0.9611  1.5631
15803SOL     OW49850   7.693   4.377   4.068  0.1745 -0.0455  0.0390
15803SOL    HW149851   7.685   4.426   4.149  2.3714 -2.4398  1.8593
15803SOL    HW249852   7.773   4.411   4.027 -0.4735  0.5796 -0.7368
15804SOL     OW49853   1.873   1.506   8.139  0.8482 -0.1447 -0.2826
15804SOL    HW149854   1.887   1.466   8.225  1.0672 -0.5549 -0.5052
15804SOL    HW249855   1.902   1.597   8.149 -1.2170  0.4502  0.7042
15805SOL     OW49856   5.160   7.443   2.589 -0.6640  0.9716  0.3874
15805SOL    HW149857   5.241   7.405   2.555 -1.5699 -0.3338 -0.4094
15805SOL    HW249858   5.181   7.535   2.604  0.8503  0.7412 -0.1492
15806SOL     OW49859   1.444   8.296   0.802 -0.6488 -0.4230 -0.1767
15806SOL    HW149860   1.500   8.220   0.817 -0.5289 -0.1597  0.7773
15806SOL    HW249861   1.386   8.299   0.878 -0.0352  0.9656  0.2617
15807SOL     OW49862   5.020   7.766   7.574 -0.2901 -0.1922 -0.9266
15807SOL    HW149863   5.045   7.753   7.666 -2.1433 -2.1331 -0.6268
15807SOL    HW249864   5.020   7.861   7.563  2.1372  0.0494  0.3990
15808SOL     OW49865   9.022   1.934   7.752 -0.3676 -0.6706 -0.1921
15808SOL    HW149866   9.080   1.996   7.709  1.3923 -2.9121 -1.2741
15808SOL    HW249867   9.048   1.935   7.844 -0.3681  0.1776 -0.1986
15809SOL     OW49868   6.553   0.084   6.606  0.4761  0.1504  0.0712
15809SOL    HW149869   6.529   0.071   6.698 -0.9387  0.4771 -0.2160
15809SOL    HW249870   6.625   0.023   6.591 -0.2714 -1.0092  1.0021
15810SOL     OW49871   1.367   4.648   0.327 -0.2448 -0.0648  0.2503
15810SOL    HW149872   1.334   4.597   0.253  0.3776  0.6605 -0.5558
15810SOL    HW249873   1.423   4.715   0.287  0.7866 -0.1696  1.4324
15811SOL     OW49874   6.444   0.433   9.469  0.2732  0.3835 -0.0252
15811SOL    HW149875   6.503   0.464   9.538  1.9696 -0.3687 -1.0629
15811SOL    HW249876   6.440   0.505   9.406  0.1557  0.3987 -0.0010
15812SOL     OW49877   1.655   2.175   3.427 -0.3979 -0.4048 -0.6268
15812SOL    HW149878   1.572   2.220   3.444  0.0446 -0.0220  0.5693
15812SOL    HW249879   1.633   2.082   3.432 -0.4458 -0.3245  1.4619
15813SOL     OW49880   3.241   2.512   7.900  0.4516 -0.3037  0.0465
15813SOL    HW149881   3.316   2.533   7.844  2.0024 -0.1660  2.0486
15813SOL    HW249882   3.224   2.419   7.885  0.6028 -0.1780 -0.9139
15814SOL     OW49883   5.997   5.562   4.242  0.2793  0.4412 -0.0117
15814SOL    HW149884   6.045   5.544   4.323 -1.8514  0.2104  1.2891
15814SOL    HW249885   6.064   5.588   4.179  2.3399 -1.8779  1.0496
15815SOL     OW49886   4.401   1.625   4.519 -0.1687 -0.6465  0.2260
15815SOL    HW149887   4.477   1.590   4.473 -0.2229 -0.4084 -0.0480
15815SOL    HW249888   4.372   1.554   4.575 -0.7240 -1.3000 -0.8576
15816SOL     OW49889   0.362   8.807   0.680  0.0163  0.2299 -0.6429
15816SOL    HW149890   0.325   8.880   0.629  0.5844  0.5005 -0.6788
15816SOL    HW249891   0.320   8.815   0.766 -0.4620  0.1638 -0.8660
15817SOL     OW49892   9.005   9.676   9.210  0.3009  0.4327  0.2170
15817SOL    HW149893   9.077   9.614   9.207  0.4096  0.5464  0.5014
15817SOL    HW249894   8.928   9.623   9.231  0.6871  0.6381  2.3706
15818SOL     OW49895   4.686  10.013   6.444  0.4172 -0.0262 -0.0042
15818SOL    HW149896   4.759  10.071   6.420  1.3632 -0.6128  1.3445
15818SOL    HW249897   4.726   9.946   6.500 -0.5812 -2.1755 -1.7198
15819SOL     OW49898   1.043   6.082   7.840 -0.0125 -0.0127 -0.4859
15819SOL    HW149899   1.050   6.143   7.914 -3.7450  1.0690 -0.8083
15819SOL    HW249900   0.968   6.114   7.790 -1.0717 -3.8403 -1.6913
15820SOL     OW49901   6.851   0.460   5.673  0.4846  0.2206 -0.0504
15820SOL    HW149902   6.789   0.532   5.678  0.6324  0.3536 -0.1183
15820SOL    HW249903   6.890   0.455   5.760  0.6235  0.3568 -0.1043
15821SOL     OW49904   9.496  10.084   2.630 -0.5305 -0.2743  0.0405
15821SOL    HW149905   9.542  10.168   2.623 -2.3039  0.7440  0.0853
15821SOL    HW249906   9.528  10.046   2.712 -0.0820  0.5963  0.2833
15822SOL     OW49907   1.379   3.931   1.080  0.5252 -0.5732  0.3746
15822SOL    HW149908   1.292   3.936   1.118 -0.1015  0.4490 -1.0609
15822SOL    HW249909   1.414   4.020   1.087  0.1873 -0.2013 -1.7315
15823SOL     OW49910   5.414   9.405   5.012 -0.0493  0.0278  0.0771
15823SOL    HW149911   5.441   9.397   4.920 -0.7748  0.3748 -0.1752
15823SOL    HW249912   5.365   9.487   5.015  1.3815  0.8858  1.1354
15824SOL     OW49913   2.184   2.892   7.732 -0.3667  0.2686  0.6155
15824SOL    HW149914   2.119   2.841   7.682 -1.0511  1.4212  0.2802
15824SOL    HW249915   2.154   2.983   7.722 -1.1598  0.4891  3.9956
15825SOL     OW49916   6.415   9.618   4.380 -0.0741  0.3736 -0.2549
15825SOL    HW149917   6.359   9.552   4.338 -0.0455  0.4210 -0.3659
15825SOL    HW249918   6.476   9.644   4.312  0.1967  0.1933 -0.0827
15826SOL     OW49919   7.171   4.689   7.716 -0.3382  0.3574  0.6912
15826SOL    HW149920   7.183   4.699   7.811  0.4581  0.1407  0.6265
15826SOL    HW249921   7.085   4.650   7.706  0.3419 -1.4415  1.4400
15827SOL     OW49922   0.272   0.434  10.475  0.1010 -0.2261  0.5154
15827SOL    HW149923   0.272   0.403  10.565 -1.7888  0.2415  0.7302
15827SOL    HW249924   0.242   0.358  10.424 -0.4369 -0.0084  0.5022
15828SOL     OW49925   2.815   7.109   2.114  0.8591 -0.6743 -0.1651
15828SOL    HW149926   2.798   7.017   2.096  1.8191 -0.8934  0.0065
15828SOL    HW249927   2.856   7.110   2.200 -1.5765  0.1715  1.0788
15829SOL     OW49928   6.645   9.022   5.583  0.9870 -0.2771 -0.0738
15829SOL    HW149929   6.649   9.106   5.536  0.3228 -0.1787  0.0420
15829SOL    HW249930   6.566   9.028   5.636  0.9567 -0.9682 -0.0380
15830SOL     OW49931   1.860   6.813   1.808  1.2433  0.4118  0.2925
15830SOL    HW149932   1.931   6.749   1.807  1.4509  0.6192 -1.4532
15830SOL    HW249933   1.896   6.889   1.763  0.0891  0.6949 -0.1997
15831SOL     OW49934   1.917   7.256   4.290  0.1162 -0.0711 -0.5045
15831SOL    HW149935   1.866   7.182   4.258 -0.1626  0.2563 -0.8238
15831SOL    HW249936   2.008   7.233   4.270 -0.1501  0.8809 -3.1758
15832SOL     OW49937   6.687   4.621   8.730 -0.0315  0.1688 -0.2400
15832SOL    HW149938   6.638   4.587   8.655 -0.2454 -1.6326  0.6706
15832SOL    HW249939   6.682   4.716   8.720 -2.2837  0.0342 -1.1041
15833SOL     OW49940   2.295   1.592   2.400 -0.3921  0.7505  0.2608
15833SOL    HW149941   2.351   1.525   2.438  0.3732  0.6566 -0.9643
15833SOL    HW249942   2.339   1.674   2.419 -0.3453  0.7541  0.1379
15834SOL     OW49943   6.947  10.344   5.546  0.5521 -0.4070 -0.3861
15834SOL    HW149944   7.013  10.384   5.489  2.0638 -0.7852  1.0080
15834SOL    HW249945   6.999  10.296   5.611 -1.1359 -1.0711  0.5116
15835SOL     OW49946   0.495   9.407   5.846 -0.5974  0.4087  0.0249
15835SOL    HW149947   0.459   9.325   5.879  0.0101  0.1224 -0.0000
15835SOL    HW249948   0.422   9.451   5.804 -0.3489 -1.4077 -2.5172
15836SOL     OW49949   8.983   0.698   3.844 -0.0538  0.2699  0.3248
15836SOL    HW149950   8.892   0.670   3.831  0.1700 -0.1653 -0.3822
15836SOL    HW249951   9.007   0.741   3.761  0.6340 -0.3444  0.1882
15837SOL     OW49952   8.572   3.878  10.221  0.2416 -0.8015  0.8350
15837SOL    HW149953   8.630   3.952  10.241  2.3576 -2.1789  0.0455
15837SOL    HW249954   8.498   3.919  10.175  1.0194  0.9042  0.9992
15838SOL     OW49955   3.950   3.736   6.107  0.0167  0.0354  0.1184
15838SOL    HW149956   4.015   3.802   6.083 -0.4106 -0.1225 -1.5343
15838SOL    HW249957   3.879   3.786   6.147  1.6858  0.0915  3.3508
15839SOL     OW49958   0.915   2.382  10.486 -0.1050 -0.0446  0.1320
15839SOL    HW149959   0.835   2.433  10.478  0.5926  1.0763  0.1419
15839SOL    HW249960   0.891   2.307  10.540 -0.7499  1.1562  1.5532
15840SOL     OW49961   6.510   5.076   8.738  0.1769  0.0222 -0.1325
15840SOL    HW149962   6.520   5.108   8.828  1.3894 -0.3729 -0.1168
15840SOL    HW249963   6.561   5.137   8.685 -0.3735  0.1383 -0.5461
15841SOL     OW49964   3.076   0.082   4.187 -0.3311 -0.0225 -0.4412
15841SOL    HW149965   2.999   0.035   4.154 -1.4497 -0.0955  2.0230
15841SOL    HW249966   3.116   0.022   4.250  0.1678  1.0348  0.2788
15842SOL     OW49967   7.709   0.632   5.994 -0.3550 -0.8421  0.0241
15842SOL    HW149968   7.619   0.664   6.000 -0.9649 -2.3494 -0.5444
15842SOL    HW249969   7.736   0.655   5.905 -1.5522 -3.5799 -1.1785
15843SOL     OW49970   2.182  10.033   9.519  0.4559 -0.0277  0.1898
15843SOL    HW149971   2.114  10.067   9.576 -0.8779  2.8781 -2.8121
15843SOL    HW249972   2.141   9.961   9.472  0.7305 -0.7358  1.0108
15844SOL     OW49973   9.029   4.895   4.331  0.4420 -0.0418  0.5249
15844SOL    HW149974   9.042   4.882   4.425  2.2165 -0.2827  0.2672
15844SOL    HW249975   9.017   4.989   4.322  0.2202 -0.0197  0.9795
15845SOL     OW49976   9.331   6.895  10.447 -0.0787 -0.2258 -0.5039
15845SOL    HW149977   9.365   6.927  10.530  0.3758 -1.4792 -0.1851
15845SOL    HW249978   9.393   6.827  10.420  0.4561  0.9420 -2.4667
15846SOL     OW49979   6.347   0.369   1.831  0.0560 -0.2058 -0.3205
15846SOL    HW149980   6.359   0.375   1.736  0.8024  1.1908 -0.1627
15846SOL    HW249981   6.424   0.413   1.868  0.1710 -1.3997  0.9616
15847SOL     OW49982   8.418   4.971   3.284 -0.1241  0.2140 -0.1412
15847SOL    HW149983   8.459   4.984   3.198  0.2089 -1.9328 -0.3741
15847SOL    HW249984   8.354   4.901   3.269 -0.9472  0.6699  1.1104
15848SOL     OW49985   6.816   0.377   0.762 -0.0421  0.7164 -0.9243
15848SOL    HW149986   6.787   0.320   0.691 -1.4903 -0.6805  0.6909
15848SOL    HW249987   6.904   0.346   0.783 -0.9339 -1.2849  0.1668
15849SOL     OW49988   0.675   6.929   1.616 -0.1001  0.5215  0.2191
15849SOL    HW149989   0.585   6.900   1.600  1.0311 -2.7211 -0.9383
15849SOL    HW249990   0.698   6.981   1.538 -0.3299 -0.3983 -0.4793
15850SOL     OW49991   4.067   0.618   5.874 -0.2207 -0.6440  0.3965
15850SOL    HW149992   4.049   0.674   5.949 -0.3303 -2.4359  1.7848
15850SOL    HW249993   3.983   0.577   5.853 -0.0039 -0.8231 -0.1418
15851SOL     OW49994   2.032   9.251  10.146 -0.1284  0.0737  0.1267
15851SOL    HW149995   2.109   9.240  10.202  0.5893 -0.3431 -0.9056
15851SOL    HW249996   2.064   9.232  10.057 -1.8339 -1.9528 -0.1229
15852SOL     OW49997   7.684   3.991   7.081 -0.0348  0.0554  0.3028
15852SOL    HW149998   7.775   4.018   7.068  0.3110 -1.9521 -2.2459
15852SOL    HW249999   7.686   3.935   7.159  0.4743  1.5673  1.4345
15853SOL     OW50000   0.642   9.452   7.829  0.5100  0.7562 -0.1937
15853SOL    HW150001   0.568   9.456   7.891  0.5333  1.0333 -0.1802
15853SOL    HW250002   0.606   9.487   7.747  0.4862  0.4121 -0.3284
15854SOL     OW50003  10.295   6.234  10.314  0.3612 -0.1441  0.7953
15854SOL    HW150004  10.332   6.169  10.374  1.1709  0.0410  0.5002
15854SOL    HW250005  10.303   6.317  10.359  0.3496 -0.0945  0.7074
15855SOL     OW50006   7.809   1.956   8.002 -0.2712 -0.1399 -0.6301
15855SOL    HW150007   7.891   1.956   8.052  0.5059 -0.7578 -1.8446
15855SOL    HW250008   7.835   1.982   7.914 -1.2332 -1.2360 -1.2575
15856SOL     OW50009   9.511   6.742   1.722 -0.0991  0.0413  0.2629
15856SOL    HW150010   9.555   6.720   1.640  2.5018 -0.4607  1.7182
15856SOL    HW250011   9.420   6.714   1.708  0.8650 -2.5247 -1.4807
15857SOL     OW50012   5.658   8.013   8.592 -1.0392  0.1698 -0.3180
15857SOL    HW150013   5.733   7.959   8.615  0.0362  1.0030 -1.6910
15857SOL    HW250014   5.582   7.958   8.611 -0.0431 -1.1541 -0.0208
15858SOL     OW50015   7.384   3.580   3.883 -0.0297 -0.2812  0.0196
15858SOL    HW150016   7.344   3.632   3.814 -0.2541 -0.5446 -0.0505
15858SOL    HW250017   7.326   3.592   3.958  0.3252  0.1720  0.2288
15859SOL     OW50018   2.439   9.885   4.833  0.0368 -0.2110 -0.3345
15859SOL    HW150019   2.504   9.952   4.817  0.6487 -0.7549 -0.1637
15859SOL    HW250020   2.488   9.813   4.872 -0.7332 -0.4760  0.1567
15860SOL     OW50021   4.413   0.651   0.222 -0.1357 -0.3804 -0.2478
15860SOL    HW150022   4.466   0.575   0.243 -1.1932 -1.4507 -1.2759
15860SOL    HW250023   4.332   0.639   0.271  0.1857  0.7840  0.6190
15861SOL     OW50024   6.321   4.946   8.597 -0.0548  0.3025 -0.0013
15861SOL    HW150025   6.261   5.015   8.570 -0.0639  0.4086  0.2846
15861SOL    HW250026   6.385   4.990   8.652  2.1658  0.8230 -2.7775
15862SOL     OW50027   5.215   8.044   4.293  0.2581  0.0834 -0.6127
15862SOL    HW150028   5.266   7.979   4.342 -0.5228 -0.5180 -0.5690
15862SOL    HW250029   5.257   8.128   4.313  0.3212 -0.2151  0.6290
15863SOL     OW50030  10.063   9.284   6.847 -0.1628  0.1704 -0.0224
15863SOL    HW150031   9.996   9.310   6.784 -2.0880  0.0930  1.8644
15863SOL    HW250032  10.029   9.204   6.886  1.0748  0.0803  0.9387
15864SOL     OW50033   6.768   6.883   7.423 -0.7037 -0.4275 -0.4507
15864SOL    HW150034   6.755   6.905   7.331  2.8776  0.0330 -0.9781
15864SOL    HW250035   6.759   6.966   7.469 -1.2551 -0.4393 -0.5321
15865SOL     OW50036   1.342   3.745   4.990 -0.0876 -0.3688 -0.0907
15865SOL    HW150037   1.321   3.696   5.069  0.2461 -1.4349 -0.6360
15865SOL    HW250038   1.260   3.746   4.940 -0.4847  0.8956  0.5526
15866SOL     OW50039   9.651   0.108   6.450  0.0356  0.2869 -0.2760
15866SOL    HW150040   9.595   0.111   6.527 -1.6443  0.8766 -1.4625
15866SOL    HW250041   9.688   0.020   6.450 -1.5935 -0.4284  0.0899
15867SOL     OW50042   9.875   7.135   2.161 -0.0951 -0.0584  0.0129
15867SOL    HW150043   9.786   7.129   2.195  0.6141 -0.6432  1.9106
15867SOL    HW250044   9.913   7.048   2.179  0.3786 -0.3717 -2.2519
15868SOL     OW50045   4.392   8.174   3.924 -0.2582 -0.3878 -0.1187
15868SOL    HW150046   4.382   8.246   3.986  0.5501 -0.4257  0.0659
15868SOL    HW250047   4.308   8.171   3.877  0.0248  1.3369 -0.8386
15869SOL     OW50048   4.118   6.692   0.545 -0.2362 -0.0074  0.2247
15869SOL    HW150049   4.048   6.634   0.576  0.0851  1.3447  3.9243
15869SOL    HW250050   4.072   6.764   0.503 -0.9505 -0.3169  0.4564
15870SOL     OW50051   1.293   5.147   2.160  0.4516 -0.1913 -0.1955
15870SOL    HW150052   1.259   5.064   2.130 -1.6130  0.5287  0.0345
15870SOL    HW250053   1.243   5.213   2.113  1.4522  0.9323  0.2518
15871SOL     OW50054   5.721   9.703   5.964  0.4496 -0.3757  0.5397
15871SOL    HW150055   5.765   9.657   5.892 -2.1824  0.7461 -1.9858
15871SOL    HW250056   5.777   9.779   5.981  1.5050 -1.0557  0.2154
15872SOL     OW50057   2.669   9.491   2.683  0.2730 -0.4400  0.3037
15872SOL    HW150058   2.619   9.551   2.738  0.7256  1.3771 -1.1654
15872SOL    HW250059   2.639   9.403   2.709  0.0338  0.3501  2.9477
15873SOL     OW50060   3.172   1.773   6.479 -0.9927 -0.2398  0.0288
15873SOL    HW150061   3.188   1.681   6.457 -0.1833  0.4634 -2.6205
15873SOL    HW250062   3.247   1.798   6.533 -1.0727 -1.0203  0.5278
15874SOL     OW50063   0.551   1.892   0.184  0.3121 -0.4676  0.1053
15874SOL    HW150064   0.481   1.955   0.197  0.5999  0.2263 -1.4618
15874SOL    HW250065   0.549   1.873   0.090  2.0031 -0.6828  0.0844
15875SOL     OW50066   9.281   4.718  10.292 -1.0084  0.1441  0.0679
15875SOL    HW150067   9.204   4.662  10.294 -1.2894  0.5017  2.1270
15875SOL    HW250068   9.309   4.722  10.384  0.0622  1.9287 -0.2950
15876SOL     OW50069   3.071   7.828   3.298  0.6733 -0.2264  0.4165
15876SOL    HW150070   3.153   7.876   3.293  2.1898 -2.5872  0.9438
15876SOL    HW250071   3.073   7.784   3.383 -1.4528  0.0899  0.7094
15877SOL     OW50072   0.770   7.051   8.333 -0.0406 -0.4947 -0.0833
15877SOL    HW150073   0.757   7.132   8.283  2.8145 -0.2031 -0.5220
15877SOL    HW250074   0.705   6.990   8.298 -0.8954  0.9781 -1.1709
15878SOL     OW50075   6.019   5.868   5.617 -0.0699 -0.0266 -0.4102
15878SOL    HW150076   6.034   5.902   5.705 -0.3804  0.1513 -0.4254
15878SOL    HW250077   6.015   5.946   5.562  1.6184 -0.1838 -0.8279
15879SOL     OW50078   4.514   0.388   0.533 -0.5402  0.5513 -0.1609
15879SOL    HW150079   4.445   0.380   0.467 -2.0339  0.1781  1.3806
15879SOL    HW250080   4.583   0.438   0.489 -0.8173 -0.9417 -2.4654
15880SOL     OW50081   8.740   1.358   2.498 -0.8557  0.1135  0.1151
15880SOL    HW150082   8.676   1.304   2.545 -0.7157  0.9991  1.3721
15880SOL    HW250083   8.718   1.347   2.406 -3.1497  0.8186  0.5336
15881SOL     OW50084   1.114   5.214   5.192  0.4839 -0.1308 -0.1409
15881SOL    HW150085   1.203   5.181   5.205  0.9646  1.0035 -0.4221
15881SOL    HW250086   1.067   5.190   5.272  1.3678  0.2975  0.5225
15882SOL     OW50087   3.125   6.849   3.047  0.5926 -0.1211  0.0372
15882SOL    HW150088   3.121   6.930   3.098  0.1239 -0.2303  0.1794
15882SOL    HW250089   3.090   6.783   3.106  1.0910 -0.4537 -0.0352
15883SOL     OW50090   2.445   0.810   9.898  0.0437  0.2159 -0.1921
15883SOL    HW150091   2.438   0.729   9.949  0.0896 -0.4029 -1.1386
15883SOL    HW250092   2.426   0.879   9.960 -1.0318 -0.5883  0.4107
15884SOL     OW50093   9.620   8.681   5.253 -0.0928  0.1740  0.5543
15884SOL    HW150094   9.696   8.684   5.311  0.8122  1.0551 -0.6234
15884SOL    HW250095   9.601   8.773   5.233 -1.8975  0.0111  1.3372
15885SOL     OW50096  10.186   6.883   9.478  0.5516  0.2787 -0.4670
15885SOL    HW150097  10.139   6.801   9.495  0.2847  0.5983  0.3461
15885SOL    HW250098  10.130   6.929   9.414  0.6619 -0.1256 -0.8637
15886SOL     OW50099   0.444   3.622   3.043  0.2535 -0.6465  0.0391
15886SOL    HW150100   0.448   3.698   2.985  0.4020 -0.0413  0.8270
15886SOL    HW250101   0.522   3.571   3.021  1.2352  0.4467  0.8821
15887SOL     OW50102   4.389   5.769   5.215  0.1040 -0.5885  0.3234
15887SOL    HW150103   4.366   5.688   5.260 -0.2214  0.0449  1.3342
15887SOL    HW250104   4.482   5.759   5.195  0.4897 -0.5573  1.9127
15888SOL     OW50105   6.737   7.572   0.071  0.1033  0.0481  0.0315
15888SOL    HW150106   6.799   7.608   0.007  0.8726 -2.1462 -0.5635
15888SOL    HW250107   6.793   7.532   0.138 -0.6805 -0.3004  0.4863
15889SOL     OW50108  10.007   0.630   9.539 -0.1009 -0.1408 -0.2285
15889SOL    HW150109   9.962   0.711   9.561 -0.2048 -0.2571 -0.0166
15889SOL    HW250110   9.941   0.561   9.552  0.0409 -0.2773 -0.2304
15890SOL     OW50111   3.911   1.863   7.012 -0.1773 -0.3786  0.0646
15890SOL    HW150112   3.844   1.916   6.970  2.5010  2.4409 -0.9994
15890SOL    HW250113   3.938   1.801   6.945 -0.4796 -0.3310 -0.1035
15891SOL     OW50114   4.384   4.491   5.305  0.5683  0.8168 -0.8389
15891SOL    HW150115   4.345   4.577   5.288  0.5436  1.3792  1.5654
15891SOL    HW250116   4.313   4.440   5.345  1.0769  0.3418 -0.5281
15892SOL     OW50117   1.971   3.561   7.115 -0.0208  0.1413  0.0603
15892SOL    HW150118   2.056   3.547   7.074  0.3179  1.6712  0.1771
15892SOL    HW250119   1.944   3.474   7.146  2.3861 -0.0915  1.7548
15893SOL     OW50120   1.904   8.173   0.052  0.1517  0.4795  0.3667
15893SOL    HW150121   1.980   8.179  -0.006  0.2179 -0.4731  0.3301
15893SOL    HW250122   1.869   8.262   0.056 -0.6389  0.3521 -2.2029
15894SOL     OW50123   9.758   8.734   4.336  0.3037  0.0184  0.5943
15894SOL    HW150124   9.701   8.698   4.404 -1.1339  0.6468 -0.2231
15894SOL    HW250125   9.706   8.727   4.256  0.9292  1.6843  0.0106
15895SOL     OW50126   9.544   5.850   3.439  0.1535  0.3407  0.0389
15895SOL    HW150127   9.597   5.864   3.517  0.4789  1.6401 -0.3900
15895SOL    HW250128   9.455   5.839   3.471  0.1320  1.8206  0.5486
15896SOL     OW50129   8.582   0.264   4.297  0.3172  0.1395 -0.4114
15896SOL    HW150130   8.672   0.262   4.264  0.6320  1.6348  0.2945
15896SOL    HW250131   8.557   0.171   4.301  2.0038 -0.3525 -0.1459
15897SOL     OW50132   6.194   1.989   3.945 -0.4387 -0.9233  0.1651
15897SOL    HW150133   6.174   2.038   4.024  0.5205 -0.2997  0.0366
15897SOL    HW250134   6.177   2.051   3.873  1.8206 -0.3587  0.0507
15898SOL     OW50135   8.862   8.375   5.932  0.2383 -0.6943  0.0455
15898SOL    HW150136   8.947   8.331   5.934  0.0661 -1.0053  1.7023
15898SOL    HW250137   8.801   8.311   5.968 -0.9351 -0.8587 -2.0891
15899SOL     OW50138   0.155   8.303   0.631 -0.0961  0.4744 -0.7503
15899SOL    HW150139   0.082   8.294   0.692  0.3531 -1.2945 -0.4119
15899SOL    HW250140   0.178   8.396   0.634 -0.6486  0.5851  1.1092
15900SOL     OW50141   2.747   0.455   4.651  0.1904 -0.3460  0.3192
15900SOL    HW150142   2.804   0.397   4.601 -0.1750  0.6673 -1.3671
15900SOL    HW250143   2.658   0.427   4.627  0.0109  0.8085 -0.4412
15901SOL     OW50144   3.752   4.519   8.491 -0.1330 -0.7280 -0.4178
15901SOL    HW150145   3.674   4.530   8.438 -0.4910  0.2763  0.2770
15901SOL    HW250146   3.736   4.573   8.569  1.0431 -0.8887 -0.0375
15902SOL     OW50147   3.173   2.923   0.589 -0.0403  0.3761  0.6046
15902SOL    HW150148   3.144   2.841   0.630  0.4896  0.0625  0.3604
15902SOL    HW250149   3.249   2.898   0.537  0.2463  1.0635  0.6813
15903SOL     OW50150   4.929   0.674  10.026 -0.1539  0.3684  0.6472
15903SOL    HW150151   4.914   0.723  10.106 -0.7589  2.1944 -0.5171
15903SOL    HW250152   5.023   0.653  10.028 -0.1229  0.5646  1.7190
15904SOL     OW50153   0.374   6.918   0.441 -0.2994  0.1150  0.5158
15904SOL    HW150154   0.322   6.919   0.521 -1.8223  2.8932 -0.3538
15904SOL    HW250155   0.313   6.890   0.373  0.6791 -1.1636  0.1347
15905SOL     OW50156   9.174   1.130   0.191 -0.4492 -0.3360  0.2929
15905SOL    HW150157   9.247   1.071   0.207 -1.4032 -1.8906 -0.7402
15905SOL    HW250158   9.189   1.205   0.249  1.1936 -1.2625  1.1134
15906SOL     OW50159   2.271   1.881   3.547 -0.2937  0.3862  0.5169
15906SOL    HW150160   2.276   1.788   3.522 -0.2944  0.6617 -0.5779
15906SOL    HW250161   2.245   1.880   3.639 -1.4440 -0.6927  0.2200
15907SOL     OW50162   5.517   6.143   0.599 -0.1411  0.1888  0.5054
15907SOL    HW150163   5.435   6.138   0.648 -0.6232 -0.0684 -0.2931
15907SOL    HW250164   5.537   6.052   0.577  1.3158  0.0588  2.1772
15908SOL     OW50165   4.274   5.648   2.744 -0.5326 -0.1532 -0.0737
15908SOL    HW150166   4.260   5.742   2.731 -2.4599 -0.1456  1.6262
15908SOL    HW250167   4.349   5.643   2.804  0.3814  0.2121 -1.1488
15909SOL     OW50168   4.495  10.216   4.170  0.0245  0.0526 -0.6649
15909SOL    HW150169   4.411  10.194   4.131 -0.7568  0.6523  0.6179
15909SOL    HW250170   4.556  10.151   4.134 -1.1188 -0.8346 -1.0567
15910SOL     OW50171   2.792   2.378   3.647  0.1379 -0.4700  0.2673
15910SOL    HW150172   2.719   2.412   3.699  0.5085 -0.6160  0.8990
15910SOL    HW250173   2.860   2.445   3.654 -0.1702 -0.0125 -0.8894
15911SOL     OW50174   5.504   9.120   8.470 -0.0368  0.3511  0.0160
15911SOL    HW150175   5.497   9.099   8.563  1.1509 -1.4333 -0.2526
15911SOL    HW250176   5.553   9.202   8.468  1.3809 -0.4261  0.9406
15912SOL     OW50177  10.260   4.579   3.441  0.1754  1.1774 -0.3948
15912SOL    HW150178  10.191   4.641   3.465  0.2456  1.3871 -0.7313
15912SOL    HW250179  10.296   4.613   3.360  1.3218  1.5838  0.2596
15913SOL     OW50180   6.092   6.719   4.686 -0.2510 -0.2663  0.0136
15913SOL    HW150181   6.013   6.772   4.688 -0.8024 -1.0437 -0.5908
15913SOL    HW250182   6.067   6.636   4.726 -0.3678 -1.3035 -2.0674
15914SOL     OW50183   2.360   3.169   0.818 -0.3515  0.4895 -0.0388
15914SOL    HW150184   2.265   3.165   0.832 -0.4780 -0.4516 -0.9984
15914SOL    HW250185   2.374   3.118   0.738  1.0390 -0.0007  0.4888
15915SOL     OW50186   9.157   0.196   2.465  0.2166  0.0273 -0.8050
15915SOL    HW150187   9.122   0.202   2.376 -1.4317 -1.9711 -0.3720
15915SOL    HW250188   9.200   0.111   2.469  0.7710  0.3378  0.1368
15916SOL     OW50189   2.367   0.895   3.692 -0.4931 -0.6736 -0.7583
15916SOL    HW150190   2.321   0.812   3.697  1.1072 -1.5225  1.1386
15916SOL    HW250191   2.433   0.882   3.623 -0.2065 -1.0166 -0.4231
15917SOL     OW50192   0.799   2.009   4.713  0.8882  0.0566  0.3782
15917SOL    HW150193   0.879   2.038   4.668  0.9989  0.7954  1.0111
15917SOL    HW250194   0.819   2.021   4.806 -0.9981  3.2693  0.5318
15918SOL     OW50195   3.146   6.432   7.962 -0.0621 -0.0498 -0.2248
15918SOL    HW150196   3.190   6.427   8.048 -0.1730 -0.9891 -0.2129
15918SOL    HW250197   3.087   6.507   7.970  1.7048  1.4223 -0.3222
15919SOL     OW50198   5.405   7.228   7.375 -0.1661  0.2718  0.7574
15919SOL    HW150199   5.361   7.143   7.375  0.3185  0.0184  0.6622
15919SOL    HW250200   5.348   7.284   7.428 -0.1821 -0.2765  1.3367
15920SOL     OW50201   0.875  10.103   4.181  0.6031 -0.0460 -0.3356
15920SOL    HW150202   0.814  10.079   4.252  0.1949 -1.1431 -1.0340
15920SOL    HW250203   0.838  10.183   4.143  0.5416  0.2555  0.3422
15921SOL     OW50204   5.372   0.827   5.797 -0.0123  0.5100  0.5275
15921SOL    HW150205   5.379   0.808   5.704 -0.2857  0.7973  0.4470
15921SOL    HW250206   5.331   0.749   5.835 -0.5589  0.6789  0.2953
15922SOL     OW50207   6.938   2.022   0.772 -0.6378  0.1277 -0.1723
15922SOL    HW150208   6.956   1.976   0.690 -3.0577 -1.0504 -0.1315
15922SOL    HW250209   6.968   1.963   0.841  2.3100  1.5310 -0.1022
15923SOL     OW50210   1.622   1.202   3.151  0.0294  0.7302 -0.1266
15923SOL    HW150211   1.547   1.259   3.138  0.1650  1.0284  0.3754
15923SOL    HW250212   1.586   1.113   3.144  0.0287  0.8505 -2.0783
15924SOL     OW50213   9.578   8.890  10.246 -0.4038 -0.0371  0.1530
15924SOL    HW150214   9.559   8.797  10.243 -1.8715  0.2224  0.3590
15924SOL    HW250215   9.584   8.917  10.154  4.0434 -0.9891 -0.0563
15925SOL     OW50216   4.818   5.814   9.547 -0.3524  0.0455  0.5168
15925SOL    HW150217   4.739   5.766   9.573 -1.1489  0.1887 -1.4737
15925SOL    HW250218   4.800   5.905   9.572 -1.0052  0.1431 -0.2512
15926SOL     OW50219   3.562   2.624   5.195  0.5202 -0.1597  0.5195
15926SOL    HW150220   3.536   2.603   5.106 -0.5234  2.3130  0.1772
15926SOL    HW250221   3.534   2.548   5.246 -1.0987 -0.5813 -0.9080
15927SOL     OW50222   4.004   3.144  10.317  0.4437 -0.3095  1.1926
15927SOL    HW150223   3.940   3.195  10.367  0.1808 -0.3698  0.9266
15927SOL    HW250224   4.062   3.210  10.279  0.3257 -0.2305  1.1476
15928SOL     OW50225   7.203   5.526   4.052 -0.4004  0.3897 -0.7026
15928SOL    HW150226   7.224   5.539   4.144 -1.8070  2.1008 -0.5488
15928SOL    HW250227   7.276   5.476   4.017  0.0714 -0.4696  1.3698
15929SOL     OW50228   2.011   2.327   4.502 -0.1778 -0.4772  0.2172
15929SOL    HW150229   1.950   2.257   4.481 -0.6771 -0.1393  0.5273
15929SOL    HW250230   1.960   2.388   4.555  1.3183 -1.8557  3.5415
15930SOL     OW50231   8.474  10.080   8.917  0.3717  0.3061 -0.0427
15930SOL    HW150232   8.476  10.161   8.969  0.4846  0.8219 -0.8306
15930SOL    HW250233   8.405  10.096   8.853  0.7697 -0.0097 -0.5504
15931SOL     OW50234   0.303  10.419   9.181 -0.2334 -0.1175 -0.1884
15931SOL    HW150235   0.249  10.378   9.114 -0.5319  0.1040 -0.0878
15931SOL    HW250236   0.272  10.510   9.184  1.0250  0.3576 -1.0442
15932SOL     OW50237   1.610  10.290   7.323  0.9280  0.2708 -0.5519
15932SOL    HW150238   1.696  10.249   7.330  0.4707 -0.6292 -0.0176
15932SOL    HW250239   1.592  10.324   7.411  0.5840  0.1318 -0.5660
15933SOL     OW50240   6.549   3.579   0.813 -0.1565  0.1446  0.2635
15933SOL    HW150241   6.460   3.611   0.830 -0.1240  0.0344  0.6604
15933SOL    HW250242   6.539   3.483   0.811  0.0499  0.1016  0.9212
15934SOL     OW50243   6.630   7.153   2.378  0.2936  0.3419 -0.0278
15934SOL    HW150244   6.706   7.186   2.330  0.4773  0.1884  0.1572
15934SOL    HW250245   6.623   7.210   2.454  0.3277  0.2501  0.0448
15935SOL     OW50246   4.583   6.002   8.947 -0.5741 -0.9968 -0.3305
15935SOL    HW150247   4.518   6.025   8.879  0.3131 -0.3766 -0.9902
15935SOL    HW250248   4.579   6.074   9.009  1.6725  0.7307 -2.0125
15936SOL     OW50249   0.624  10.143   2.684 -0.2452  0.1001  0.3323
15936SOL    HW150250   0.655  10.066   2.732  2.5177  1.1334  0.3610
15936SOL    HW250251   0.552  10.176   2.738 -1.8493 -2.6497  0.0715
15937SOL     OW50252   7.966   5.972   6.647  0.6074 -0.1035  0.0575
15937SOL    HW150253   8.032   5.971   6.578 -0.2700  0.4662 -0.8318
15937SOL    HW250254   7.902   5.906   6.619 -1.4056  2.2857 -1.4503
15938SOL     OW50255   8.261   4.292   9.852  0.7251  0.3718  0.2616
15938SOL    HW150256   8.257   4.342   9.934 -0.9906 -0.8755  0.9853
15938SOL    HW250257   8.211   4.344   9.789  2.8169  1.7967 -0.3270
15939SOL     OW50258   3.286   6.893   4.557  0.9278  0.0099 -0.2768
15939SOL    HW150259   3.201   6.852   4.542  0.1606  1.2634  0.4796
15939SOL    HW250260   3.323   6.845   4.632  0.6667 -0.1917 -0.2764
15940SOL     OW50261   3.636   4.919   7.051 -0.1924 -0.1655 -0.2225
15940SOL    HW150262   3.613   4.929   6.959 -0.7244 -0.3457 -0.1203
15940SOL    HW250263   3.718   4.871   7.051 -0.1046 -0.0133 -0.6068
15941SOL     OW50264   5.296   0.976   4.369  0.4583 -0.1131  0.2047
15941SOL    HW150265   5.367   1.005   4.427  0.8387  0.8924 -0.7349
15941SOL    HW250266   5.339   0.918   4.306 -0.1561 -2.1685  1.5674
15942SOL     OW50267   5.830   3.487  10.458  0.3303  0.2425 -0.9971
15942SOL    HW150268   5.857   3.562  10.511  1.2423 -0.8352  0.1371
15942SOL    HW250269   5.911   3.441  10.438 -0.3290 -1.3814 -0.1523
15943SOL     OW50270   0.104   2.948   9.108  0.4229  0.1887 -0.7316
15943SOL    HW150271   0.060   3.002   9.173  0.1369  1.1153 -1.6730
15943SOL    HW250272   0.039   2.935   9.039  1.3034  0.7993 -1.7045
15944SOL     OW50273   9.593   4.356   5.641  0.3617  0.2066 -0.2016
15944SOL    HW150274   9.646   4.411   5.583  0.3441 -1.6855 -2.1346
15944SOL    HW250275   9.534   4.309   5.583 -0.8367 -0.5946  1.5535
15945SOL     OW50276   4.525   9.820   2.217  0.6414 -0.1188 -0.7399
15945SOL    HW150277   4.540   9.902   2.170 -1.5235 -0.0538 -1.4136
15945SOL    HW250278   4.548   9.752   2.154 -0.5254 -0.0202 -1.2921
15946SOL     OW50279   8.908   9.881   1.158 -0.1150  0.2221 -0.2493
15946SOL    HW150280   8.847   9.842   1.220  0.3089  0.1984  0.1604
15946SOL    HW250281   8.977   9.919   1.212  0.7029 -0.5362 -0.7234
15947SOL     OW50282   6.146   1.167   2.478 -0.2894 -0.0374  0.0465
15947SOL    HW150283   6.118   1.228   2.410  0.2980 -1.3300 -1.4112
15947SOL    HW250284   6.200   1.221   2.537 -1.1885  1.2119 -0.2221
15948SOL     OW50285   4.650   8.388   8.273  0.6665  0.4313  0.2817
15948SOL    HW150286   4.666   8.353   8.360 -1.4425 -0.3140  0.4345
15948SOL    HW250287   4.660   8.313   8.214 -1.5892  0.0033  0.3522
15949SOL     OW50288   5.846   9.793   5.652 -0.6212 -0.5234  0.4357
15949SOL    HW150289   5.786   9.735   5.698  0.0049 -0.1560  1.7504
15949SOL    HW250290   5.926   9.741   5.641 -0.2606 -0.1162  1.0935
15950SOL     OW50291   5.325   9.912   5.110 -0.5949  0.5246 -0.0196
15950SOL    HW150292   5.239   9.945   5.083 -0.1164  0.4382 -1.7772
15950SOL    HW250293   5.377   9.990   5.126 -0.6496  0.5833 -0.1282
15951SOL     OW50294   6.193   7.463   6.948 -0.4416  0.0954 -0.0615
15951SOL    HW150295   6.284   7.477   6.974 -0.0112 -1.0585 -0.8967
15951SOL    HW250296   6.198   7.424   6.861 -1.6799 -1.2022  0.4089
15952SOL     OW50297   5.975   9.713   8.484 -0.3205  0.1848  0.2007
15952SOL    HW150298   6.039   9.727   8.554  1.2696 -0.3686 -1.0720
15952SOL    HW250299   5.924   9.638   8.512  1.4453 -1.1494  0.0444
15953SOL     OW50300   9.515   8.210   6.058  0.5110  0.4006  0.6371
15953SOL    HW150301   9.466   8.130   6.038 -1.2568  1.6027 -0.0238
15953SOL    HW250302   9.576   8.219   5.984 -0.1625  0.3335  0.0702
15954SOL     OW50303   4.802   3.764   6.872 -0.2299  0.3502 -0.1041
15954SOL    HW150304   4.886   3.737   6.835  0.4264 -0.1977  1.6759
15954SOL    HW250305   4.747   3.686   6.867  0.3899 -0.2275  1.4721
15955SOL     OW50306   8.397   4.050   9.747 -0.3034 -0.3698 -0.7481
15955SOL    HW150307   8.395   3.996   9.826  3.1756 -0.0172 -0.2906
15955SOL    HW250308   8.344   4.126   9.769  2.6766  1.0571  2.4457
15956SOL     OW50309   8.753  10.189   9.760 -0.0724 -0.2414 -0.2327
15956SOL    HW150310   8.709  10.224   9.837  1.0104 -2.1887  1.3885
15956SOL    HW250311   8.833  10.241   9.752  0.5427 -0.9683  0.9208
15957SOL     OW50312   9.170   8.332   0.822  0.4199 -0.1981 -0.0940
15957SOL    HW150313   9.247   8.283   0.795 -0.6485 -1.4783 -0.9406
15957SOL    HW250314   9.181   8.419   0.783  0.0187 -1.2884 -2.8751
15958SOL     OW50315   0.439   1.872   3.760 -0.1402 -1.0172 -0.7210
15958SOL    HW150316   0.459   1.882   3.667 -0.8377 -1.3956 -0.9142
15958SOL    HW250317   0.383   1.947   3.781  0.4216 -0.6572 -0.4819
15959SOL     OW50318   9.545   4.861   1.541 -0.1468  0.2661  0.0712
15959SOL    HW150319   9.466   4.808   1.540 -1.0074  1.4766 -1.8257
15959SOL    HW250320   9.517   4.946   1.576  0.6005  0.3212  0.5751
15960SOL     OW50321   1.258   6.251   6.936 -0.5459 -0.5461 -0.8461
15960SOL    HW150322   1.269   6.176   6.878 -2.3425 -0.5854 -1.2002
15960SOL    HW250323   1.172   6.286   6.914 -0.2371  0.9235  0.1216
15961SOL     OW50324   8.777   2.005   4.391  0.5090  0.2205  0.0041
15961SOL    HW150325   8.814   1.920   4.366  0.5738  0.7906 -1.9432
15961SOL    HW250326   8.710   2.023   4.326  0.2050  1.4904  0.6364
15962SOL     OW50327   0.037   3.920   1.127  0.2466  0.4492 -0.1387
15962SOL    HW150328   0.025   4.010   1.154  2.3391  1.0222 -0.8703
15962SOL    HW250329   0.042   3.924   1.031  0.8490 -0.3452 -0.1560
15963SOL     OW50330   2.520   4.627   1.965  0.9682  0.2330  0.1937
15963SOL    HW150331   2.502   4.710   1.920 -1.0282 -0.0106  0.4555
15963SOL    HW250332   2.570   4.653   2.043  0.4059  1.2050  0.2533
15964SOL     OW50333   8.941   2.465   5.544 -0.6481  0.1158 -0.3132
15964SOL    HW150334   8.905   2.429   5.625 -1.7853 -0.9458 -1.2407
15964SOL    HW250335   9.005   2.530   5.573 -1.2647  0.0130  1.4235
15965SOL     OW50336   4.467   4.274   5.150  0.0479  0.3255 -0.2452
15965SOL    HW150337   4.559   4.300   5.143  0.3686 -0.7429 -0.1007
15965SOL    HW250338   4.430   4.336   5.213  1.3779 -1.0175  1.9967
15966SOL     OW50339   6.404   7.062   8.687  0.1439  0.0271  0.0174
15966SOL    HW150340   6.351   6.983   8.680 -2.2859  1.6437 -1.2699
15966SOL    HW250341   6.370   7.107   8.765  1.6030 -0.1965  0.8293
15967SOL     OW50342   7.053   1.750   7.742 -0.5050 -0.2788  0.2966
15967SOL    HW150343   6.977   1.701   7.710  0.2642 -0.7848 -0.8067
15967SOL    HW250344   7.036   1.840   7.715 -0.1106 -0.6118 -1.1518
15968SOL     OW50345   6.018   9.847   2.037  0.0893  0.5563 -0.4916
15968SOL    HW150346   5.998   9.882   1.950 -1.5471  1.2424  0.1238
15968SOL    HW250347   5.941   9.797   2.061  0.9333 -0.4605  0.1870
15969SOL     OW50348   4.746   0.831   7.834 -0.0900  0.6356 -0.1093
15969SOL    HW150349   4.698   0.794   7.908 -0.3106  0.1867 -0.4733
15969SOL    HW250350   4.721   0.777   7.759  0.1521  1.0671 -0.5099
15970SOL     OW50351   3.836   2.693   3.613  0.0002 -0.4793  0.4565
15970SOL    HW150352   3.810   2.785   3.607 -0.4922 -0.5778  1.0148
15970SOL    HW250353   3.922   2.696   3.655 -0.0341 -0.2736  0.5141
15971SOL     OW50354   3.550   2.159   0.468  0.0303 -0.3755 -0.3592
15971SOL    HW150355   3.583   2.091   0.527 -0.4210 -1.7455 -1.6101
15971SOL    HW250356   3.529   2.233   0.526  4.1105  0.2210  0.6545
15972SOL     OW50357   5.931   8.950   1.886 -0.4305  0.1003 -0.0158
15972SOL    HW150358   5.902   8.860   1.897  0.7236 -0.3698 -0.6043
15972SOL    HW250359   6.016   8.954   1.930 -0.5126  0.9243  0.0888
15973SOL     OW50360   3.762   3.629   1.335  0.1424 -0.5599  0.3213
15973SOL    HW150361   3.845   3.643   1.380  2.1189 -1.3549 -2.8167
15973SOL    HW250362   3.757   3.534   1.322 -1.7460 -0.6334  1.1854
15974SOL     OW50363   0.689   0.995   5.818 -0.8544  0.5807  0.4103
15974SOL    HW150364   0.631   1.071   5.828 -1.8822  0.2010 -2.0707
15974SOL    HW250365   0.777   1.029   5.832 -1.3891  1.9610  0.5234
15975SOL     OW50366   3.092   7.454   2.645 -0.2506  0.5618 -0.1559
15975SOL    HW150367   3.062   7.522   2.705 -1.6714  0.9060 -1.1871
15975SOL    HW250368   3.053   7.373   2.678 -1.3012  0.8015 -0.7573
15976SOL     OW50369   9.705   1.216   4.905  0.5587  0.5627  0.1616
15976SOL    HW150370   9.768   1.274   4.949  1.8525 -0.0010 -0.8864
15976SOL    HW250371   9.759   1.161   4.849 -0.6208 -1.7699  1.2060
15977SOL     OW50372   8.802   1.678   6.838 -0.5882  0.3601 -0.1750
15977SOL    HW150373   8.799   1.670   6.742  1.0338 -1.1224 -0.1573
15977SOL    HW250374   8.765   1.595   6.869 -0.2774  0.4575  0.4643
15978SOL     OW50375   3.970   3.753   8.874 -0.1880 -0.6075 -0.6380
15978SOL    HW150376   3.941   3.666   8.847 -0.7078 -0.5621 -0.2307
15978SOL    HW250377   4.061   3.757   8.844  0.4603 -2.0086  0.9738
15979SOL     OW50378   1.372   1.649   8.646 -0.4236  0.4867 -0.4150
15979SOL    HW150379   1.327   1.611   8.722  0.2442 -1.2045 -0.8298
15979SOL    HW250380   1.317   1.723   8.620 -0.3898  1.4698  2.0277
15980SOL     OW50381   8.416   2.681   9.596  0.0630  0.2096  0.1479
15980SOL    HW150382   8.326   2.649   9.591  0.9668 -2.6275 -0.1076
15980SOL    HW250383   8.422   2.726   9.680 -1.4206 -0.1281  0.4544
15981SOL     OW50384   9.927   7.362   4.033 -0.6920  0.0986 -0.5433
15981SOL    HW150385   9.913   7.410   3.951 -1.3163  1.1490  0.1671
15981SOL    HW250386   9.843   7.318   4.049 -0.8612  0.6185 -0.0025
15982SOL     OW50387   1.577   7.315   5.048  0.1103  0.4939 -0.2713
15982SOL    HW150388   1.634   7.246   5.012 -1.7004 -0.3047 -1.7656
15982SOL    HW250389   1.617   7.397   5.019 -0.0051 -0.0755 -2.1564
15983SOL     OW50390   8.040   7.439   9.349  0.1110  0.2337 -0.1712
15983SOL    HW150391   8.135   7.442   9.365  0.2854 -1.7552 -0.4967
15983SOL    HW250392   8.032   7.447   9.254  0.3630 -3.5664 -0.6724
15984SOL     OW50393   0.958   4.839   2.996 -0.1205 -0.9990  0.2880
15984SOL    HW150394   0.902   4.775   2.952 -0.1905 -1.0645  0.4704
15984SOL    HW250395   0.906   4.869   3.071 -0.3252 -0.2991 -0.1193
15985SOL     OW50396   5.308   8.600   0.492 -0.0168 -0.6717  0.2708
15985SOL    HW150397   5.361   8.523   0.512  0.1157 -0.1874  1.9358
15985SOL    HW250398   5.254   8.613   0.570 -1.6323 -0.3556 -0.8566
15986SOL     OW50399   4.499   3.632   5.146 -0.0458  0.2731  0.4154
15986SOL    HW150400   4.502   3.687   5.068  1.0878  0.1270  0.3396
15986SOL    HW250401   4.500   3.695   5.219 -0.7698  0.3990  0.3237
15987SOL     OW50402   4.717  10.147   5.738 -0.1231 -0.1921 -0.1884
15987SOL    HW150403   4.720  10.144   5.834  1.2979 -0.8851 -0.2257
15987SOL    HW250404   4.700  10.057   5.712  1.9005 -0.4857 -0.6151
15988SOL     OW50405   3.034   9.883   5.616 -0.6043 -0.2416 -0.2367
15988SOL    HW150406   3.073   9.964   5.651 -0.8859 -0.0583 -0.3388
15988SOL    HW250407   2.947   9.910   5.587 -0.3060 -0.3506 -1.2543
15989SOL     OW50408   4.544   1.984   9.172  0.0467  0.2869  0.3618
15989SOL    HW150409   4.532   2.068   9.129  0.8670  1.0107  1.4635
15989SOL    HW250410   4.631   1.991   9.212  1.0203 -1.8671 -1.2037
15990SOL     OW50411   8.130   5.189   2.899 -0.2284  0.2169 -0.3019
15990SOL    HW150412   8.118   5.274   2.855 -0.2198 -0.7872 -2.3955
15990SOL    HW250413   8.220   5.191   2.932  0.0924  0.6804 -1.1712
15991SOL     OW50414   1.935   2.603   6.035 -0.7862 -0.2054  0.7962
15991SOL    HW150415   1.844   2.576   6.018 -0.7482  0.7272 -1.1107
15991SOL    HW250416   1.978   2.595   5.951  0.3206  1.6257  1.1527
15992SOL     OW50417   3.321   8.442   4.233  0.2854  0.1611  0.1468
15992SOL    HW150418   3.404   8.420   4.191  0.0868 -1.5490  0.5893
15992SOL    HW250419   3.314   8.381   4.306 -1.4746  0.1272 -0.0137
15993SOL     OW50420   7.589   6.519   1.588 -0.1005  0.0555  0.1850
15993SOL    HW150421   7.579   6.599   1.536  0.4393 -0.1298 -0.2176
15993SOL    HW250422   7.502   6.480   1.590 -0.2954  0.4804  0.1032
15994SOL     OW50423   7.942   6.507   3.893  0.2586  0.1366  0.6414
15994SOL    HW150424   7.996   6.445   3.941  0.2482 -0.1961  0.2301
15994SOL    HW250425   7.857   6.463   3.884  0.8393 -0.6683 -1.4071
15995SOL     OW50426  10.375   0.304   0.311 -0.5213  0.1586  0.1206
15995SOL    HW150427  10.282   0.283   0.305 -0.3649 -0.2206 -1.1910
15995SOL    HW250428  10.390   0.319   0.405 -2.1831  1.5906  0.2071
15996SOL     OW50429   0.654   4.705   3.566 -0.1608 -0.1034 -0.9993
15996SOL    HW150430   0.652   4.621   3.521 -1.6227 -0.6751  0.0796
15996SOL    HW250431   0.585   4.756   3.525  0.5716  0.5237 -1.4937
15997SOL     OW50432   4.014   4.384   8.687  0.1240  0.0928 -0.5369
15997SOL    HW150433   3.954   4.455   8.711 -1.9099 -1.2882 -1.2097
15997SOL    HW250434   3.964   4.304   8.704  1.5339 -1.1139 -1.7716
15998SOL     OW50435   9.781   4.070   1.049 -0.2848  0.2403 -0.0776
15998SOL    HW150436   9.811   4.155   1.016  1.2369 -0.2227  0.0369
15998SOL    HW250437   9.825   4.006   0.995 -0.8534 -0.4996  0.3104
15999SOL     OW50438   8.938   8.693   1.475 -0.0859  0.6654 -0.2998
15999SOL    HW150439   9.006   8.741   1.428  1.6595 -0.5771  0.8306
15999SOL    HW250440   8.884   8.653   1.407 -0.6359  2.8579 -1.2428
16000SOL     OW50441   3.309   4.203   2.820  0.1820  0.0510  0.5922
16000SOL    HW150442   3.269   4.125   2.781  0.5063  1.1271 -2.1899
16000SOL    HW250443   3.397   4.175   2.845 -0.3043 -0.8942  1.2750
16001SOL     OW50444   6.574   8.226   9.617  0.0487 -0.4176 -0.5899
16001SOL    HW150445   6.571   8.218   9.521  0.0730  0.1285 -0.6397
16001SOL    HW250446   6.617   8.146   9.646 -0.3599 -0.7932 -1.0037
16002SOL     OW50447   6.984   8.122   6.061 -0.3243 -0.4701 -0.1342
16002SOL    HW150448   6.901   8.119   6.109 -0.7163  1.0078 -0.6623
16002SOL    HW250449   6.961   8.164   5.978  0.9733  0.0348 -0.2536
16003SOL     OW50450   1.000   3.230   1.291 -0.4288 -0.1778  0.4229
16003SOL    HW150451   1.079   3.282   1.286 -1.2756  1.1863  0.7702
16003SOL    HW250452   1.031   3.139   1.293  1.0621  0.2838 -0.4039
16004SOL     OW50453   7.941   5.882   9.679 -0.1047 -0.0222  0.3724
16004SOL    HW150454   7.902   5.949   9.623  0.6504 -0.3267 -0.5529
16004SOL    HW250455   8.030   5.913   9.696  0.5936 -1.1880 -0.8588
16005SOL     OW50456   1.435   2.263   7.280  0.0290 -0.1153 -0.4851
16005SOL    HW150457   1.370   2.292   7.215  0.5896 -0.1118 -1.0488
16005SOL    HW250458   1.487   2.197   7.234  0.3716 -0.1813 -0.0055
16006SOL     OW50459   7.641   5.453   1.892 -0.2614  0.3747 -0.0073
16006SOL    HW150460   7.657   5.526   1.832  0.3116  0.9871  0.8749
16006SOL    HW250461   7.713   5.456   1.954 -0.1712 -1.0126 -0.0037
16007SOL     OW50462   3.883   4.543   4.164  0.1807 -0.1276 -0.4108
16007SOL    HW150463   3.923   4.626   4.191 -2.0523  0.2152  2.3172
16007SOL    HW250464   3.919   4.479   4.225 -1.6207 -0.2194  0.6115
16008SOL     OW50465   8.435   4.043   6.478  0.1622 -0.3562  0.1013
16008SOL    HW150466   8.465   4.070   6.565  0.1229  1.0600 -0.3001
16008SOL    HW250467   8.434   4.124   6.427 -1.9728 -0.7679 -0.6017
16009SOL     OW50468   1.568   1.381   4.804  0.0760 -0.6014  0.0278
16009SOL    HW150469   1.651   1.376   4.757  0.8842  0.1615  1.3293
16009SOL    HW250470   1.507   1.416   4.739  1.6226  2.4466  0.0282
16010SOL     OW50471   4.324   4.262   9.988  0.0462 -0.4545 -0.1423
16010SOL    HW150472   4.317   4.251   9.893 -0.5500 -0.2988 -0.1227
16010SOL    HW250473   4.247   4.217  10.023 -0.6538  0.8933  0.1421
16011SOL     OW50474   0.432   5.446   0.719  0.1075 -0.1104 -0.9743
16011SOL    HW150475   0.407   5.408   0.635 -2.0147  0.6179 -0.7201
16011SOL    HW250476   0.352   5.447   0.770  1.0491  0.7658  0.5692
16012SOL     OW50477   0.286   9.073   3.062  0.3627 -1.0540 -0.0108
16012SOL    HW150478   0.360   9.133   3.049  0.1841 -0.7988  0.1408
16012SOL    HW250479   0.305   9.031   3.146 -1.2099  1.3111  1.6546
16013SOL     OW50480   7.496   6.001   3.879  0.3375 -0.2675  0.0435
16013SOL    HW150481   7.582   5.967   3.906  0.4163  0.7805  1.2286
16013SOL    HW250482   7.433   5.949   3.930  0.3696  0.1228  0.4911
16014SOL     OW50483   1.349   2.845  10.070  0.3073  0.0317 -0.6840
16014SOL    HW150484   1.261   2.862  10.102  1.5681 -0.3514  3.6486
16014SOL    HW250485   1.369   2.918  10.012 -2.5365  0.5187 -1.1575
16015SOL     OW50486   4.406   1.682   8.315  0.4128  0.7675  0.4379
16015SOL    HW150487   4.429   1.600   8.359  1.8165  1.8136  1.7482
16015SOL    HW250488   4.313   1.694   8.335 -0.3767 -1.4429 -1.4539
16016SOL     OW50489   1.088   9.356   3.478  0.1226  0.5615 -0.2073
16016SOL    HW150490   1.096   9.270   3.518  1.0615  0.6520 -0.1775
16016SOL    HW250491   1.048   9.411   3.546  0.4160  0.3772  0.1147
16017SOL     OW50492   8.295   6.773   7.557  0.0115 -0.0908  0.3889
16017SOL    HW150493   8.213   6.812   7.587  0.0343  0.4441 -0.2318
16017SOL    HW250494   8.307   6.696   7.613 -0.8866 -0.1506  0.5062
16018SOL     OW50495   2.855   3.623   6.098 -0.0703  0.0674 -0.2098
16018SOL    HW150496   2.910   3.689   6.056 -0.6718 -0.2742 -1.5959
16018SOL    HW250497   2.912   3.547   6.108  0.4191  0.5374  0.7417
16019SOL     OW50498   9.411   7.275   0.856  0.2347 -0.2855  0.2920
16019SOL    HW150499   9.331   7.229   0.883  0.9557 -2.9205 -1.6388
16019SOL    HW250500   9.381   7.341   0.793 -0.4824 -0.9689 -0.0993
16020SOL     OW50501   2.349   0.631   9.499 -0.6371 -0.5637  0.2333
16020SOL    HW150502   2.405   0.708   9.507  0.4426 -1.4734  2.3170
16020SOL    HW250503   2.266   0.658   9.541 -0.7732 -0.1010 -0.3232
16021SOL     OW50504   5.954   9.059   7.978 -0.1868 -0.6076  0.4965
16021SOL    HW150505   5.996   8.976   7.955  0.2255 -0.0428 -0.9464
16021SOL    HW250506   6.028   9.117   8.000 -0.4961 -0.7249  1.9470
16022SOL     OW50507   0.942   1.342   2.524  0.3301 -0.2045 -0.5116
16022SOL    HW150508   0.896   1.337   2.440  0.7148  0.6710 -0.7866
16022SOL    HW250509   1.033   1.361   2.500  0.4026  0.2492  0.1107
16023SOL     OW50510   2.225   3.328   6.029  0.7784 -0.1072  0.0378
16023SOL    HW150511   2.151   3.388   6.036  0.8202  0.0489 -0.7340
16023SOL    HW250512   2.279   3.365   5.959  0.9908 -0.8459 -0.2038
16024SOL     OW50513   5.975   5.426   2.853  0.2104  0.1467 -0.3815
16024SOL    HW150514   5.997   5.336   2.876  0.8613 -0.3705 -2.6902
16024SOL    HW250515   5.999   5.478   2.930  0.5793 -1.5566  0.6926
16025SOL     OW50516  10.245   2.854   5.392  0.3304  0.0055  0.0222
16025SOL    HW150517  10.176   2.797   5.426 -0.4705 -0.3000 -1.9745
16025SOL    HW250518  10.287   2.802   5.323  1.3478  0.8633 -0.0263
16026SOL     OW50519   1.956   9.443   1.624  0.3847 -0.1706  0.0112
16026SOL    HW150520   1.963   9.450   1.529 -1.6383 -1.7203 -0.3202
16026SOL    HW250521   2.042   9.410   1.652  1.3455  1.2373 -1.1075
16027SOL     OW50522   9.573   9.263   1.294 -0.5031  0.0686  0.1798
16027SOL    HW150523   9.573   9.359   1.293  0.1000  0.0665 -0.7339
16027SOL    HW250524   9.591   9.238   1.203  0.7743 -0.8984  0.6678
16028SOL     OW50525   8.243   0.866   2.233  0.1651  0.3330 -0.0056
16028SOL    HW150526   8.277   0.817   2.308 -0.3779  0.9306  0.6483
16028SOL    HW250527   8.185   0.804   2.189  2.1071 -0.7237 -1.1867
16029SOL     OW50528  10.428   4.638   9.437 -0.6538 -0.2520  0.3686
16029SOL    HW150529  10.440   4.546   9.459 -2.1295  0.2413  3.8511
16029SOL    HW250530  10.333   4.648   9.426 -0.7688  1.2114  2.2634
16030SOL     OW50531   3.106   6.664   2.836 -0.9995  0.0394  0.3720
16030SOL    HW150532   3.145   6.709   2.911  0.6061 -0.8694  0.1253
16030SOL    HW250533   3.165   6.591   2.818 -1.6274 -0.0738 -1.4482
16031SOL     OW50534   0.544   6.000   9.159  0.3045  0.4748 -0.6665
16031SOL    HW150535   0.570   6.060   9.229  1.6504 -1.1265  0.2979
16031SOL    HW250536   0.622   5.993   9.104  0.2606 -0.5734 -0.6067
16032SOL     OW50537   2.490  10.365   6.423 -0.0341 -0.6540 -0.2597
16032SOL    HW150538   2.488  10.380   6.518 -0.3553 -2.3741  0.0362
16032SOL    HW250539   2.472  10.272   6.413  1.0825 -0.7297 -1.9661
16033SOL     OW50540   5.656   5.249   5.554  0.5752  0.4096 -0.2015
16033SOL    HW150541   5.714   5.262   5.630  1.9436  0.2182 -1.1832
16033SOL    HW250542   5.618   5.336   5.539 -0.2039  0.3143  1.0729
16034SOL     OW50543   0.822   7.589   1.683  0.4117  0.5066  0.4047
16034SOL    HW150544   0.728   7.573   1.670  0.9356 -1.3162 -1.6341
16034SOL    HW250545   0.839   7.671   1.637  0.2783 -0.6192 -1.7847
16035SOL     OW50546   6.912   4.095   5.193 -0.0602 -0.0089 -0.8868
16035SOL    HW150547   6.998   4.094   5.150  0.5310  1.5173  0.1986
16035SOL    HW250548   6.858   4.038   5.138  1.4901 -0.5994 -1.8853
16036SOL     OW50549   4.390   4.767   2.592 -0.4731  0.2393 -0.0687
16036SOL    HW150550   4.334   4.829   2.638  1.0775  0.6583  1.3835
16036SOL    HW250551   4.470   4.816   2.574  0.2049 -0.8978 -0.2622
16037SOL     OW50552   9.740   7.836   9.721  0.1697  0.2255 -0.3714
16037SOL    HW150553   9.719   7.753   9.762 -0.7849  1.7268  2.4621
16037SOL    HW250554   9.656   7.881   9.711  0.6301  0.8308 -2.0252
16038SOL     OW50555  10.000   4.313   1.113 -0.3752  0.4921  0.0789
16038SOL    HW150556   9.975   4.297   1.022  0.8914  0.0234 -0.2207
16038SOL    HW250557   9.978   4.404   1.129  1.1394  1.1562 -1.3359
16039SOL     OW50558   4.946   6.341   2.449 -0.4356 -0.0999  0.0060
16039SOL    HW150559   4.998   6.291   2.512  2.0931  1.8805 -0.3689
16039SOL    HW250560   4.870   6.369   2.500 -0.7752 -2.2942  0.8440
16040SOL     OW50561  10.019   2.097   0.009  0.0831 -0.4078 -0.1393
16040SOL    HW150562   9.960   2.172   0.021  1.9609  1.2135 -0.4137
16040SOL    HW250563   9.973   2.041  -0.054 -0.3617  1.7674 -1.9067
16041SOL     OW50564   1.926   2.267   3.488 -0.4103 -0.4083  1.1534
16041SOL    HW150565   1.982   2.189   3.480  1.4363  0.9141  0.5561
16041SOL    HW250566   1.981   2.332   3.532 -1.1180  1.2720 -0.3095
16042SOL     OW50567   6.042   7.177   7.061  0.1288 -0.1271  0.1123
16042SOL    HW150568   6.108   7.144   7.121 -0.9544  2.3834  2.9316
16042SOL    HW250569   6.089   7.240   7.005  0.4246  0.6146  1.1697
16043SOL     OW50570   6.583   1.716   0.209 -0.3835  0.0817 -0.1175
16043SOL    HW150571   6.528   1.795   0.206  0.1006  0.4066 -1.6345
16043SOL    HW250572   6.656   1.740   0.266 -0.3932  0.6469 -0.3306
16044SOL     OW50573   1.802   9.546   8.722 -0.0264 -0.6023  0.3117
16044SOL    HW150574   1.846   9.552   8.807  0.4543 -2.8149  0.2770
16044SOL    HW250575   1.709   9.548   8.742  0.0860 -0.5639  0.8362
16045SOL     OW50576   1.488   9.989   1.467 -0.0260 -0.4905  0.2871
16045SOL    HW150577   1.578   9.967   1.445 -0.1587 -2.9972  1.8354
16045SOL    HW250578   1.439   9.908   1.453 -2.1245  0.8363 -0.6704
16046SOL     OW50579   0.203   8.932   9.753 -0.1786 -0.2811 -0.0235
16046SOL    HW150580   0.266   8.961   9.818 -1.4362  0.8747  0.7199
16046SOL    HW250581   0.257   8.898   9.681  1.2621  0.0623  0.8558
16047SOL     OW50582   3.223   6.348   2.043 -0.2067 -0.2298 -0.0789
16047SOL    HW150583   3.294   6.412   2.039  0.1781 -0.6733 -0.5167
16047SOL    HW250584   3.258   6.271   1.998 -1.0677 -0.3572 -0.5399
16048SOL     OW50585   8.985   5.942   9.434 -0.1934 -0.5895 -0.1256
16048SOL    HW150586   8.956   5.909   9.349 -1.7318 -0.9685  0.5164
16048SOL    HW250587   8.968   6.036   9.430  1.9084 -0.2049 -1.0558
16049SOL     OW50588   2.290   6.033  10.084 -0.4013 -0.2888  1.1752
16049SOL    HW150589   2.199   6.023  10.056 -0.7829  0.0110  2.2386
16049SOL    HW250590   2.295   6.123  10.116  1.1862  0.9162 -2.0336
16050SOL     OW50591   9.211   7.549   1.255  0.3166  0.0745  0.3891
16050SOL    HW150592   9.209   7.454   1.247  0.8592 -0.0728  1.7117
16050SOL    HW250593   9.177   7.566   1.343 -0.7994  1.1800 -0.2196
16051SOL     OW50594   0.748   3.527   1.310  0.4153  0.4476 -0.2245
16051SOL    HW150595   0.786   3.526   1.222  1.7623 -1.0223  0.3062
16051SOL    HW250596   0.656   3.505   1.297  0.7007 -0.2252 -1.2480
16052SOL     OW50597   5.698   6.321   3.296 -0.1992  0.4250 -0.1672
16052SOL    HW150598   5.792   6.311   3.285 -0.2986  0.2750 -0.8850
16052SOL    HW250599   5.689   6.367   3.380  0.4125 -1.9043  1.2804
16053SOL     OW50600   3.399   0.262   8.717  0.8276 -0.1969  0.0638
16053SOL    HW150601   3.479   0.259   8.663  0.9676 -0.7542  0.2895
16053SOL    HW250602   3.431   0.250   8.807  0.3420 -2.6544 -0.0035
16054SOL     OW50603   3.441   0.646   3.103  0.2517  0.2047 -0.1707
16054SOL    HW150604   3.376   0.716   3.102  0.8288  0.9417  2.7325
16054SOL    HW250605   3.405   0.578   3.047 -2.9526  0.6981  1.0959
16055SOL     OW50606   0.998   4.360   2.112  0.2223 -0.1801 -0.2883
16055SOL    HW150607   1.008   4.364   2.208  0.9045  0.7302 -0.3793
16055SOL    HW250608   1.045   4.281   2.086 -1.0342 -1.1392  0.2310
16056SOL     OW50609   5.910   5.106   1.213 -0.2016  0.7275 -0.4249
16056SOL    HW150610   5.824   5.085   1.176 -0.2768 -0.2526  0.2804
16056SOL    HW250611   5.971   5.052   1.163 -0.2669 -0.3575  0.6500
16057SOL     OW50612   2.302   4.111   7.465  0.3913  0.4494 -0.2095
16057SOL    HW150613   2.349   4.030   7.447  0.6430 -0.0333  2.2817
16057SOL    HW250614   2.218   4.100   7.420 -0.2717 -2.0140  1.3954
16058SOL     OW50615   5.054   4.183   1.835  0.3669  0.3317  0.5333
16058SOL    HW150616   5.040   4.093   1.802 -0.2546  0.6120 -0.0025
16058SOL    HW250617   5.038   4.177   1.929 -0.2076 -0.0216  0.4198
16059SOL     OW50618   4.041   4.442   9.698 -0.3731 -0.6404  0.4984
16059SOL    HW150619   4.132   4.428   9.722 -0.2524 -0.8169 -0.0655
16059SOL    HW250620   4.038   4.427   9.604 -1.1820 -1.6114  0.6698
16060SOL     OW50621   6.603  10.146   5.764  0.4466  0.3419  0.1437
16060SOL    HW150622   6.676  10.085   5.756  0.5977  0.4055  0.9389
16060SOL    HW250623   6.599  10.166   5.858 -2.2231 -1.6672  0.5750
16061SOL     OW50624   1.349   8.577   5.902  0.3521 -0.2880  0.1272
16061SOL    HW150625   1.405   8.648   5.934 -2.6026  2.1222  0.3853
16061SOL    HW250626   1.407   8.501   5.898  3.3010  1.6985  1.4715
16062SOL     OW50627   8.506   8.294   3.746  0.5563  0.2352  0.0392
16062SOL    HW150628   8.537   8.256   3.664 -0.5312 -0.3053 -0.1547
16062SOL    HW250629   8.536   8.385   3.745 -0.3875  0.5541 -1.4950
16063SOL     OW50630   0.069   7.646   3.863 -0.3891  0.2671  0.1829
16063SOL    HW150631  -0.002   7.681   3.917 -0.7714  1.2118 -0.8928
16063SOL    HW250632   0.142   7.707   3.877 -0.0433 -0.2495  0.6658
16064SOL     OW50633   3.336   9.222   6.494 -0.1936 -0.6714  0.3939
16064SOL    HW150634   3.277   9.260   6.429  0.5979 -0.3186 -0.1454
16064SOL    HW250635   3.279   9.182   6.558 -0.9991 -1.5903 -0.8471
16065SOL     OW50636   0.748   2.892   1.022  0.2620 -0.2490 -0.6866
16065SOL    HW150637   0.727   2.985   1.032  0.0119  0.0536 -3.3486
16065SOL    HW250638   0.715   2.870   0.935  0.2278 -2.8824 -0.0694
16066SOL     OW50639   6.641   1.971   7.813 -0.0776  0.0347  0.2410
16066SOL    HW150640   6.672   2.026   7.741  0.6518  0.1384  0.6323
16066SOL    HW250641   6.624   1.886   7.771  1.5380 -0.2767  0.1585
16067SOL     OW50642   0.069   6.621   0.483 -0.2618  0.6335  0.3854
16067SOL    HW150643   0.009   6.546   0.487  0.9010 -0.2699  1.8994
16067SOL    HW250644   0.024   6.690   0.531 -0.4869  0.2640  0.7117
16068SOL     OW50645   6.849   8.468   6.128 -1.1871  0.1887 -0.1113
16068SOL    HW150646   6.906   8.542   6.150  1.1694 -1.4243 -0.4143
16068SOL    HW250647   6.825   8.482   6.037  0.8766 -0.3334 -0.7958
16069SOL     OW50648   2.057   5.605   8.238  0.0878 -0.3304 -0.3881
16069SOL    HW150649   2.140   5.558   8.228 -0.2068 -0.9168 -0.0984
16069SOL    HW250650   1.990   5.539   8.223 -0.3741 -0.6096  2.4499
16070SOL     OW50651   0.210   5.570   3.086 -0.3174 -0.6017  0.4306
16070SOL    HW150652   0.200   5.660   3.118  0.1146  0.0353 -1.1094
16070SOL    HW250653   0.235   5.519   3.163 -2.1350  0.2621  1.6790
16071SOL     OW50654   8.952  10.335   5.704  0.0344 -0.9120 -0.0010
16071SOL    HW150655   9.046  10.338   5.725 -0.2432 -1.0762  1.3559
16071SOL    HW250656   8.916  10.414   5.744 -0.2294 -0.1772 -1.6140
16072SOL     OW50657   3.981   2.937   2.644 -0.1366 -0.1930  0.6341
16072SOL    HW150658   4.050   3.003   2.636 -1.3989  1.2102  0.8807
16072SOL    HW250659   3.921   2.956   2.571  0.2483 -2.0927 -0.2647
16073SOL     OW50660   1.619   5.680   7.898 -0.4497  0.3762  0.4438
16073SOL    HW150661   1.569   5.725   7.966  0.7945  1.9334  0.3913
16073SOL    HW250662   1.686   5.743   7.872  1.4750 -1.5352  0.4291
16074SOL     OW50663   6.533   3.648   8.248 -0.0557  0.1211 -0.7699
16074SOL    HW150664   6.538   3.559   8.213 -1.7046  1.0802 -3.7125
16074SOL    HW250665   6.464   3.690   8.198  0.0205  2.8308  1.2006
16075SOL     OW50666   2.118   9.639   0.203 -0.1060 -0.2213 -0.1758
16075SOL    HW150667   2.051   9.607   0.142 -0.2561  0.6745 -0.5052
16075SOL    HW250668   2.091   9.605   0.288 -0.6299 -0.3974 -0.4032
16076SOL     OW50669   4.477   4.105   6.104  0.1176 -0.1797  0.3736
16076SOL    HW150670   4.458   4.193   6.071  0.2593 -0.2449  0.1102
16076SOL    HW250671   4.486   4.115   6.199  0.3356  0.1266  0.3210
16077SOL     OW50672   4.235   8.176   2.264  0.6905  0.5967 -0.4937
16077SOL    HW150673   4.194   8.121   2.332  2.0051 -0.7242 -0.7054
16077SOL    HW250674   4.246   8.261   2.306  2.4007 -0.4551  1.4005
16078SOL     OW50675   6.120   1.307   8.494  0.2183 -0.0453 -0.2702
16078SOL    HW150676   6.066   1.250   8.549  0.7841 -0.8503 -0.5203
16078SOL    HW250677   6.128   1.388   8.545 -2.8421  0.9010 -1.0902
16079SOL     OW50678   8.783   1.509   5.832 -0.1021 -0.4887  0.0801
16079SOL    HW150679   8.711   1.563   5.798  2.0950  1.4410 -1.9596
16079SOL    HW250680   8.833   1.485   5.754  2.3570 -0.3326  1.4943
16080SOL     OW50681   2.660   2.390   0.357  0.3887  0.1771  0.1009
16080SOL    HW150682   2.644   2.452   0.287 -0.1536  1.1956  1.0860
16080SOL    HW250683   2.647   2.304   0.317  1.5481  0.6594 -1.3852
16081SOL     OW50684   3.464   6.700   0.944  0.4346 -0.1304  0.2177
16081SOL    HW150685   3.446   6.609   0.968 -1.6488 -0.6174 -2.6020
16081SOL    HW250686   3.384   6.747   0.968  1.8854  1.2866  2.6375
16082SOL     OW50687   5.270   3.684   0.114 -0.0261 -0.1068 -0.2315
16082SOL    HW150688   5.336   3.730   0.062  0.5511  0.3658  0.8895
16082SOL    HW250689   5.224   3.753   0.162 -0.2466 -0.5713  0.2385
16083SOL     OW50690   8.201   1.763   7.439  0.6473 -0.2374  0.1773
16083SOL    HW150691   8.127   1.772   7.499  0.6706  0.4216  0.1113
16083SOL    HW250692   8.181   1.683   7.389  0.8584 -1.0621  1.3636
16084SOL     OW50693   9.911   9.557   4.795  0.2244  0.0742  0.2604
16084SOL    HW150694   9.966   9.599   4.729  2.4629 -1.1467  1.2512
16084SOL    HW250695   9.966   9.551   4.873 -0.4979 -3.1841  0.6647
16085SOL     OW50696   9.463   3.466   3.986 -0.1652  0.2548 -0.0667
16085SOL    HW150697   9.511   3.391   4.020 -0.4500  0.5253  0.9744
16085SOL    HW250698   9.475   3.461   3.891 -0.1583 -1.0721 -0.0146
16086SOL     OW50699   0.480  10.435   5.191  0.0899 -0.7232  0.0518
16086SOL    HW150700   0.557  10.440   5.248 -0.3577 -0.4001  0.6426
16086SOL    HW250701   0.503  10.484   5.113 -0.1097  0.8196  0.9338
16087SOL     OW50702   2.788   9.593   0.471  0.7186  0.5118 -0.7656
16087SOL    HW150703   2.733   9.523   0.507  2.5178 -0.3842  0.3527
16087SOL    HW250704   2.727   9.665   0.454 -0.7334 -0.2602  0.9019
16088SOL     OW50705   2.829   8.465   3.765 -1.0319 -0.2109 -0.4000
16088SOL    HW150706   2.904   8.511   3.728 -0.1099 -1.8730 -0.6335
16088SOL    HW250707   2.771   8.450   3.691  0.5004 -2.9223 -1.1616
16089SOL     OW50708   6.648   7.776   1.725  0.3694 -0.1938 -0.1619
16089SOL    HW150709   6.655   7.811   1.813 -0.8929  0.1460 -0.1732
16089SOL    HW250710   6.678   7.685   1.732  0.2667 -0.1697  0.6082
16090SOL     OW50711   9.920   4.032   5.387 -0.4061  0.5370  0.2299
16090SOL    HW150712   9.939   4.109   5.333  1.0402  0.2196  0.2318
16090SOL    HW250713  10.001   4.017   5.436 -0.8941 -0.5884  0.7336
16091SOL     OW50714   5.471   4.267   2.681 -0.0026 -0.5763 -0.1591
16091SOL    HW150715   5.472   4.305   2.769 -1.4586 -1.7602  0.4074
16091SOL    HW250716   5.380   4.273   2.653  0.6383  1.0620 -2.2237
16092SOL     OW50717   7.049   8.472   3.974 -0.1664 -0.3893 -0.4130
16092SOL    HW150718   6.967   8.487   4.022  0.5342  0.8908  0.4332
16092SOL    HW250719   7.109   8.437   4.039  1.2933  2.8441  0.2033
16093SOL     OW50720   2.689  10.314   0.793 -0.5691 -0.1961  0.1531
16093SOL    HW150721   2.777  10.353   0.797 -0.0839 -1.3192  1.0712
16093SOL    HW250722   2.640  10.373   0.736  0.2349  1.5213  1.1257
16094SOL     OW50723   4.216   4.342   1.653 -0.0820 -0.0407 -0.0386
16094SOL    HW150724   4.311   4.338   1.647 -0.0390  0.3327  0.3414
16094SOL    HW250725   4.199   4.361   1.745 -0.4896  0.9161 -0.2989
16095SOL     OW50726   2.286   0.184   6.802  0.0026 -0.1598 -0.5097
16095SOL    HW150727   2.306   0.111   6.861 -0.7350  0.2694  0.2818
16095SOL    HW250728   2.194   0.204   6.818  0.7074  2.3603  0.8630
16096SOL     OW50729   6.711   7.593   6.009 -0.3853  0.0512 -0.0891
16096SOL    HW150730   6.768   7.669   6.006 -0.8136  0.3344 -2.4227
16096SOL    HW250731   6.770   7.520   6.028  0.7183  0.4161 -1.8912
16097SOL     OW50732   5.698   3.651   6.916 -0.6780 -0.3579 -0.3219
16097SOL    HW150733   5.624   3.606   6.874 -1.2681  0.0934  0.2197
16097SOL    HW250734   5.662   3.735   6.943  0.2022  0.1162 -0.5913
16098SOL     OW50735   2.171   5.709   3.912 -0.0169  0.4640 -0.1950
16098SOL    HW150736   2.145   5.619   3.931  0.1776  0.2674 -0.8311
16098SOL    HW250737   2.176   5.751   3.998  0.9000 -0.4052  0.1986
16099SOL     OW50738   3.847   1.983   4.153  0.3523  0.2598 -0.5617
16099SOL    HW150739   3.938   1.971   4.125  0.3305 -2.0486  0.1382
16099SOL    HW250740   3.850   1.974   4.248 -0.5259  0.8673 -0.4714
16100SOL     OW50741   9.146   9.886   3.404  0.2032 -0.2165 -0.1836
16100SOL    HW150742   9.078   9.873   3.470  0.8656  1.0579  0.7983
16100SOL    HW250743   9.119   9.832   3.330 -1.5186 -0.2440  0.4361
16101SOL     OW50744   6.440   7.520   8.731  0.1669  0.7963 -0.1702
16101SOL    HW150745   6.515   7.572   8.703  0.1206  1.7017  1.2921
16101SOL    HW250746   6.472   7.468   8.804 -1.1016  2.8584  1.9946
16102SOL     OW50747   3.779   3.464   2.027 -0.6923  0.4432 -0.1976
16102SOL    HW150748   3.771   3.551   2.067 -1.5493  1.0839 -1.6672
16102SOL    HW250749   3.772   3.481   1.933  2.3188 -0.8671 -0.7651
16103SOL     OW50750   2.307   6.253   4.432  0.4281 -0.2719 -0.1490
16103SOL    HW150751   2.227   6.200   4.431 -0.2227  0.7025 -1.0151
16103SOL    HW250752   2.278   6.341   4.457  1.3148 -0.0198  0.0405
16104SOL     OW50753   2.336   4.251   9.014 -0.0957  0.7100  0.4817
16104SOL    HW150754   2.359   4.334   8.971 -2.0265  1.5240  0.9263
16104SOL    HW250755   2.243   4.260   9.035  0.0458 -0.9212  2.0207
16105SOL     OW50756   4.179   4.182   6.471 -0.0921  0.1615 -0.0724
16105SOL    HW150757   4.147   4.107   6.422 -0.2142  0.7015 -0.8356
16105SOL    HW250758   4.101   4.235   6.487  0.1653  0.6919 -0.5428
16106SOL     OW50759   6.742   6.890   5.742  0.2702  0.4414 -0.9066
16106SOL    HW150760   6.755   6.889   5.647 -1.1922 -0.5028 -1.1322
16106SOL    HW250761   6.713   6.801   5.763 -1.2984  1.1435  0.1112
16107SOL     OW50762   2.680   6.590  10.151 -0.3220 -0.4003  0.2323
16107SOL    HW150763   2.698   6.677  10.114  0.5359 -0.0390  1.4374
16107SOL    HW250764   2.747   6.534  10.114 -0.2590 -0.3195  0.2233
16108SOL     OW50765   6.051   3.699   3.113  0.0498  0.4382 -0.0218
16108SOL    HW150766   6.090   3.660   3.191 -0.7516  0.1938  0.2660
16108SOL    HW250767   6.091   3.786   3.107  1.3847 -0.1689 -0.3154
16109SOL     OW50768   5.771   9.250   7.320 -0.1115  0.1912 -0.2305
16109SOL    HW150769   5.863   9.228   7.307  0.2042  1.2758  0.0493
16109SOL    HW250770   5.769   9.346   7.316 -0.8846  0.3097  1.9559
16110SOL     OW50771  10.065   9.522   5.214 -0.3560  0.2736 -0.3250
16110SOL    HW150772  10.107   9.565   5.289 -1.5732  0.5330  0.2357
16110SOL    HW250773  10.100   9.568   5.138  1.8459 -0.7959 -0.0518
16111SOL     OW50774   6.120   8.363   4.283 -0.2903  0.3689 -0.4858
16111SOL    HW150775   6.126   8.458   4.267 -1.1465  0.5570  0.2229
16111SOL    HW250776   6.047   8.354   4.344  1.6154 -0.4591  1.8286
16112SOL     OW50777   8.468   3.223   6.677 -0.4728 -0.0992 -0.0555
16112SOL    HW150778   8.458   3.316   6.697 -1.3611 -0.4436  1.2269
16112SOL    HW250779   8.503   3.185   6.758  0.9080 -0.7303 -0.9108
16113SOL     OW50780   7.044   0.716   0.623  0.1701  0.3613 -0.2100
16113SOL    HW150781   7.103   0.720   0.698 -0.8981  0.8095  0.6194
16113SOL    HW250782   7.079   0.645   0.569  1.7216  0.9015  0.0298
16114SOL     OW50783   1.711   4.738   1.464 -0.2137  0.4000  0.4621
16114SOL    HW150784   1.646   4.713   1.399  0.0383 -0.4077  0.5055
16114SOL    HW250785   1.709   4.834   1.465  0.9818  0.5322 -1.9741
16115SOL     OW50786   6.392   9.203   4.296 -0.2073  0.5765 -0.2216
16115SOL    HW150787   6.345   9.172   4.219  1.2706 -1.5963 -0.3039
16115SOL    HW250788   6.375   9.137   4.363  2.3905 -0.0848 -0.1450
16116SOL     OW50789   2.561   1.439   1.718 -0.1726 -0.0072 -0.3351
16116SOL    HW150790   2.479   1.483   1.696  0.8545  1.5016 -1.3419
16116SOL    HW250791   2.586   1.393   1.638  0.3388  0.1685 -0.2806
16117SOL     OW50792   7.295   7.759   4.557  0.1867  0.3746 -0.0439
16117SOL    HW150793   7.335   7.742   4.471 -1.2420  1.8943 -1.0703
16117SOL    HW250794   7.358   7.815   4.602  2.0896 -2.3388  0.9743
16118SOL     OW50795   9.499   3.270   6.785  0.2273  0.0041 -0.4035
16118SOL    HW150796   9.412   3.309   6.791 -0.2508 -0.6018 -2.5372
16118SOL    HW250797   9.490   3.184   6.826  0.3096  0.6039  0.9300
16119SOL     OW50798   0.455   0.662   5.117  0.1464  0.0319  0.0343
16119SOL    HW150799   0.538   0.675   5.163  1.0502 -1.0498 -1.2038
16119SOL    HW250800   0.479   0.617   5.036 -1.7287 -0.8743 -0.0773
16120SOL     OW50801   3.563   9.509   0.421 -0.1625 -0.1289 -0.0065
16120SOL    HW150802   3.591   9.451   0.350  0.0558  0.2911 -0.2680
16120SOL    HW250803   3.493   9.461   0.465 -0.4944 -0.2760 -0.6821
16121SOL     OW50804   4.532   1.064   3.778 -0.8390 -0.0390  0.3345
16121SOL    HW150805   4.531   1.137   3.716  0.5105 -0.3502 -0.0877
16121SOL    HW250806   4.614   1.074   3.826 -0.3530 -1.5748 -0.1170
16122SOL     OW50807   2.571   5.434   9.068 -0.7775 -0.1416 -0.1761
16122SOL    HW150808   2.620   5.409   8.989 -1.5584  1.0603 -1.0841
16122SOL    HW250809   2.635   5.431   9.138  0.1663 -0.3365 -1.0185
16123SOL     OW50810  10.286   7.342   5.804 -0.2156  0.1581 -0.1461
16123SOL    HW150811  10.318   7.253   5.790  0.7870  0.2600  1.3606
16123SOL    HW250812  10.222   7.333   5.875  2.0667  0.9911  2.1529
16124SOL     OW50813   7.486   4.845   8.490  0.0232  0.2943  0.2633
16124SOL    HW150814   7.424   4.828   8.419 -1.7847  1.3653  1.4958
16124SOL    HW250815   7.470   4.936   8.514  0.2113 -0.1886  2.3680
16125SOL     OW50816   2.748   4.882   5.946  0.0023  0.3046 -0.1633
16125SOL    HW150817   2.729   4.794   5.978 -1.6518  0.8798  0.5257
16125SOL    HW250818   2.665   4.915   5.913  0.5199  1.7258 -0.1389
16126SOL     OW50819   7.337   0.234   7.912  0.4997 -0.5231 -0.3504
16126SOL    HW150820   7.361   0.326   7.916  1.4504 -0.6797 -1.6317
16126SOL    HW250821   7.253   0.228   7.958 -0.5820  1.3366 -1.9658
16127SOL     OW50822   0.538   4.682   1.081 -0.2916  0.1543 -0.5099
16127SOL    HW150823   0.631   4.688   1.059 -0.1278 -0.7890 -0.1520
16127SOL    HW250824   0.528   4.737   1.159 -0.0798  0.4303 -0.6763
16128SOL     OW50825  10.071   0.245   3.011 -0.3186 -0.1191  0.6992
16128SOL    HW150826  10.072   0.162   2.963  0.0705  0.3890 -0.1947
16128SOL    HW250827   9.978   0.266   3.021 -0.4094  0.1954 -0.6107
16129SOL     OW50828   8.220   0.667   0.019  0.4199 -0.3478  0.1753
16129SOL    HW150829   8.135   0.681  -0.022  0.7942  0.2112 -0.4396
16129SOL    HW250830   8.244   0.753   0.055 -0.6682 -1.1752  3.1690
16130SOL     OW50831   7.420   4.657   3.569  0.4403  0.2577  0.8130
16130SOL    HW150832   7.459   4.740   3.542 -1.7723  0.9901 -0.3645
16130SOL    HW250833   7.333   4.680   3.600 -0.6076 -1.6803 -0.4421
16131SOL     OW50834   1.968   0.984   4.355  0.5053 -0.2851  0.1946
16131SOL    HW150835   2.060   0.959   4.361  1.1024  1.9909  2.3915
16131SOL    HW250836   1.968   1.060   4.297  0.1985  0.3416  0.9956
16132SOL     OW50837   5.803   2.875   1.646 -0.0845  0.0513  0.0000
16132SOL    HW150838   5.718   2.845   1.679 -0.6624  0.4602 -1.0612
16132SOL    HW250839   5.858   2.882   1.724 -0.8626 -0.7280  0.6455
16133SOL     OW50840   9.779   8.261   4.345  0.0485 -0.2914 -0.6349
16133SOL    HW150841   9.798   8.332   4.284 -1.4318  0.5920 -0.1205
16133SOL    HW250842   9.813   8.290   4.429  2.2508 -1.5870 -0.9842
16134SOL     OW50843   3.476  10.012   1.916  0.5238  0.2412 -0.2500
16134SOL    HW150844   3.565  10.034   1.943  0.4405 -0.0936  0.3351
16134SOL    HW250845   3.436  10.096   1.895  0.6467  0.5175  0.5527
16135SOL     OW50846   2.088   5.890   7.165 -0.4393  0.0478 -0.6775
16135SOL    HW150847   2.099   5.856   7.076  1.3002 -0.1956 -0.3891
16135SOL    HW250848   2.173   5.925   7.189  0.2410 -3.0369  2.1568
16136SOL     OW50849   1.294  10.131   4.260  0.7306 -0.3554  0.0704
16136SOL    HW150850   1.351  10.060   4.291  0.5551 -0.4349  0.2124
16136SOL    HW250851   1.240  10.091   4.192  1.1957 -0.1508 -0.4303
16137SOL     OW50852   2.039   6.507   4.739  0.3218  0.2182  0.3740
16137SOL    HW150853   2.014   6.428   4.786  0.5047  0.2532  0.5318
16137SOL    HW250854   1.969   6.520   4.675  0.3642 -0.1565  0.2436
16138SOL     OW50855   9.364   1.593   9.691 -0.6588  0.3726 -0.0135
16138SOL    HW150856   9.412   1.511   9.706  1.1027  1.1489 -1.1448
16138SOL    HW250857   9.298   1.571   9.626 -0.2603 -0.1787 -0.2376
16139SOL     OW50858   6.342   4.013   0.729 -0.3169  0.5499 -0.1401
16139SOL    HW150859   6.314   4.001   0.639  0.8166 -1.2446 -0.3088
16139SOL    HW250860   6.422   4.064   0.723 -0.1945  0.3574 -0.1712
16140SOL     OW50861   7.169   0.342   9.408 -0.1430 -0.3609  0.0221
16140SOL    HW150862   7.178   0.347   9.313  0.3487 -0.1232  0.0764
16140SOL    HW250863   7.219   0.417   9.441 -1.4272  0.3374  0.4195
16141SOL     OW50864   0.096   4.992   4.664 -0.4030  0.4932  0.2018
16141SOL    HW150865   0.142   4.911   4.689  0.4526  1.1174  0.7148
16141SOL    HW250866   0.164   5.045   4.622 -0.5684  1.5819  1.2889
16142SOL     OW50867   8.996   6.070   6.415 -0.4987 -0.5012 -0.3466
16142SOL    HW150868   8.963   6.156   6.390  0.5060  0.2102  0.6795
16142SOL    HW250869   8.991   6.018   6.334 -0.8643  0.5983 -1.0524
16143SOL     OW50870   5.708   9.591   9.544  0.1870  0.5549 -0.2430
16143SOL    HW150871   5.785   9.609   9.598  1.4775 -0.4626 -1.6792
16143SOL    HW250872   5.692   9.673   9.497 -0.1549  1.0341  0.6773
16144SOL     OW50873   1.302   5.106   1.105  0.3029 -0.4439 -0.0651
16144SOL    HW150874   1.392   5.088   1.078  0.0738 -0.7306 -0.6445
16144SOL    HW250875   1.311   5.145   1.192  1.0395  0.3667 -0.4866
16145SOL     OW50876   9.206   2.209   2.229  0.2081 -0.5228 -0.5002
16145SOL    HW150877   9.202   2.210   2.325 -0.3247  0.4919 -0.5213
16145SOL    HW250878   9.281   2.265   2.208  1.1103 -1.7382 -0.6672
16146SOL     OW50879  10.269   2.410   4.045 -0.6554 -0.0728  0.0549
16146SOL    HW150880  10.359   2.423   4.014  0.9027 -2.4485  3.0625
16146SOL    HW250881  10.246   2.494   4.085  0.4996  0.3719 -0.1533
16147SOL     OW50882   5.687   8.149   2.011  0.1126 -0.8854  0.3918
16147SOL    HW150883   5.619   8.107   1.959  0.5862 -1.8599  0.5285
16147SOL    HW250884   5.643   8.176   2.092 -0.0127 -2.0037  0.7129
16148SOL     OW50885   2.519   2.853   5.797  0.3182  0.3495 -0.1342
16148SOL    HW150886   2.438   2.836   5.749  0.4529  0.7512 -0.5157
16148SOL    HW250887   2.501   2.932   5.847  0.1106 -0.1832  0.6442
16149SOL     OW50888   9.254   1.541   1.981 -0.3493  0.2667  0.7347
16149SOL    HW150889   9.179   1.591   1.949  0.0275  0.2092 -0.2699
16149SOL    HW250890   9.329   1.581   1.938 -0.0511 -1.2011 -0.1910
16150SOL     OW50891   1.789   6.081   0.052 -0.1964 -0.1342  0.3574
16150SOL    HW150892   1.884   6.076   0.046 -0.0638  1.4336  0.6741
16150SOL    HW250893   1.762   6.118  -0.032 -0.3203  1.2972  1.0013
16151SOL     OW50894   7.367   6.554   8.824 -0.8158  0.4852 -0.1378
16151SOL    HW150895   7.419   6.582   8.749  1.2347 -2.4727  0.0181
16151SOL    HW250896   7.388   6.617   8.893  1.4201  0.2543 -0.5442
16152SOL     OW50897   3.201   4.614   4.339 -0.0543 -0.3733  0.1653
16152SOL    HW150898   3.177   4.646   4.253 -1.3050  0.6029  0.8510
16152SOL    HW250899   3.126   4.562   4.368  0.8659 -1.7864  0.1722
16153SOL     OW50900   7.417   8.557   6.028 -0.4181 -0.2427 -0.2515
16153SOL    HW150901   7.480   8.542   6.099 -0.9579 -0.4353  0.1917
16153SOL    HW250902   7.387   8.470   6.003 -0.1294 -0.1848 -0.8163
16154SOL     OW50903   9.927   6.892   8.220 -0.2646  0.1842  0.7176
16154SOL    HW150904   9.973   6.835   8.282  0.0246  1.2419  1.4990
16154SOL    HW250905   9.934   6.846   8.136 -0.1100 -0.9639  1.3406
16155SOL     OW50906   0.051   7.910   7.670 -0.1321 -0.4022 -0.5247
16155SOL    HW150907   0.096   7.993   7.687  0.4609 -0.8625  0.2051
16155SOL    HW250908   0.051   7.864   7.754 -1.8084 -0.5125 -0.5329
16156SOL     OW50909   3.570   0.701   5.212  0.0555  0.0645 -0.3694
16156SOL    HW150910   3.607   0.622   5.250 -0.3881 -0.6760 -1.4364
16156SOL    HW250911   3.514   0.737   5.281 -2.6111 -2.5161 -0.9604
16157SOL     OW50912   8.816   5.992   8.286  0.1380  0.0089  0.9071
16157SOL    HW150913   8.779   6.080   8.287  0.2660  0.1580 -1.5531
16157SOL    HW250914   8.776   5.948   8.361 -0.4102  1.9465  1.8087
16158SOL     OW50915   3.301   1.977   7.347  0.2108  0.4564  0.1700
16158SOL    HW150916   3.388   1.992   7.384  0.4435 -1.4824  0.5146
16158SOL    HW250917   3.285   2.053   7.291  2.1269  0.8295  0.0688
16159SOL     OW50918   0.670   5.840   4.627  0.0956  0.0002 -0.1016
16159SOL    HW150919   0.737   5.890   4.675  1.1388  1.0223 -2.4888
16159SOL    HW250920   0.720   5.779   4.572 -1.0393 -0.7729 -0.3060
16160SOL     OW50921   8.116   4.686   7.832  0.2093 -0.2818 -0.5010
16160SOL    HW150922   8.105   4.748   7.759 -3.2054 -0.4459 -0.2826
16160SOL    HW250923   8.069   4.608   7.804  0.6811 -1.1475  1.0384
16161SOL     OW50924   7.401   7.466   3.715 -0.1487 -0.3656 -0.2471
16161SOL    HW150925   7.479   7.411   3.721 -0.3571 -0.6920 -0.5124
16161SOL    HW250926   7.340   7.428   3.778 -0.4043 -0.6281 -0.6455
16162SOL     OW50927   6.553   0.272   8.467  0.8829 -0.1846 -0.7362
16162SOL    HW150928   6.511   0.207   8.411  0.3022  0.3297 -0.9013
16162SOL    HW250929   6.645   0.244   8.472  0.2388 -2.2985  0.9835
16163SOL     OW50930   5.174   1.701   3.278  0.4799  0.6923  0.1272
16163SOL    HW150931   5.172   1.747   3.362 -1.0009  0.5641  0.1843
16163SOL    HW250932   5.241   1.633   3.289  0.8657  1.1908  0.9191
16164SOL     OW50933   7.098  10.113   0.518  0.0393  0.4228  0.3897
16164SOL    HW150934   7.136  10.199   0.534  1.3670  0.0680 -0.6505
16164SOL    HW250935   7.173  10.055   0.503 -0.8381 -0.7979  0.4827
16165SOL     OW50936   3.107   3.139   9.775 -0.4157  0.0741  0.6237
16165SOL    HW150937   3.067   3.160   9.691 -2.6237 -1.3922  1.2167
16165SOL    HW250938   3.091   3.216   9.829 -0.5044  0.3574  0.1989
16166SOL     OW50939   6.850   8.160   3.362  0.1990  0.0040  0.4340
16166SOL    HW150940   6.870   8.203   3.446  2.9510 -0.3521  0.0699
16166SOL    HW250941   6.870   8.227   3.296  0.8251 -0.5908  0.0025
16167SOL     OW50942   5.489   6.491   9.326 -0.2888 -0.2928 -0.3039
16167SOL    HW150943   5.416   6.535   9.369 -0.9942 -1.0024 -0.7383
16167SOL    HW250944   5.547   6.465   9.397  0.0023  1.0590 -0.0188
16168SOL     OW50945   2.488   9.419   6.701  0.2647 -0.3652 -0.6637
16168SOL    HW150946   2.501   9.340   6.649  0.5158 -0.6539 -0.1708
16168SOL    HW250947   2.432   9.475   6.647 -1.6833 -1.7215 -0.1973
16169SOL     OW50948   6.407   0.781  10.399 -0.4023 -0.8424  0.4876
16169SOL    HW150949   6.345   0.854  10.405  1.8254  1.2695 -0.3247
16169SOL    HW250950   6.395   0.746  10.311  1.0901  1.1676 -0.6055
16170SOL     OW50951   7.168   8.440   8.186 -0.4421 -0.1724  0.2526
16170SOL    HW150952   7.179   8.510   8.122  0.5065  1.4140  2.0802
16170SOL    HW250953   7.191   8.360   8.137  0.2872  0.9714 -1.3713
16171SOL     OW50954   1.123   2.520  10.324 -0.1605 -0.1229 -0.9398
16171SOL    HW150955   1.127   2.467  10.245 -1.3739  2.2273 -2.7468
16171SOL    HW250956   1.057   2.477  10.379 -1.8354 -0.0558 -2.7741
16172SOL     OW50957   1.277   2.895   1.997 -0.2701 -0.2520 -0.3083
16172SOL    HW150958   1.302   2.927   1.911 -0.9599 -1.2585 -0.9080
16172SOL    HW250959   1.353   2.845   2.027 -0.4737 -0.9238 -0.8816
16173SOL     OW50960   9.873   3.016   5.507 -0.1077  0.3858  0.0712
16173SOL    HW150961   9.899   3.083   5.570  2.0004 -1.3999  1.2857
16173SOL    HW250962   9.887   3.056   5.422  1.3840  1.4320  0.7647
16174SOL     OW50963   0.759   1.299   0.909 -0.1379 -0.8989  0.2345
16174SOL    HW150964   0.784   1.239   0.980  0.1218  0.8357  1.6568
16174SOL    HW250965   0.826   1.367   0.910 -2.1823  1.2104  0.8602
16175SOL     OW50966   3.897   2.609   6.480  0.3362  0.1612 -0.8592
16175SOL    HW150967   3.844   2.688   6.491 -1.4344 -1.2133  1.4438
16175SOL    HW250968   3.855   2.563   6.407 -0.4793 -0.0089 -0.2975
16176SOL     OW50969   9.181   8.210   4.065  0.2878 -0.1421 -0.3316
16176SOL    HW150970   9.141   8.282   4.017  1.1774  1.7308  1.5976
16176SOL    HW250971   9.125   8.197   4.141  0.1717 -1.4934 -0.6172
16177SOL     OW50972   1.607   5.321   5.925 -0.0389 -1.1278  0.2395
16177SOL    HW150973   1.536   5.272   5.967  0.8399 -0.4697  2.6361
16177SOL    HW250974   1.623   5.395   5.984  2.6294 -1.2427 -0.2392
16178SOL     OW50975   9.753   2.547   5.580 -0.1320  0.1547 -0.3041
16178SOL    HW150976   9.763   2.610   5.510 -0.5690 -1.7294 -2.1559
16178SOL    HW250977   9.842   2.516   5.598 -0.0039  0.7433  0.1023
16179SOL     OW50978   1.396   5.236   6.556 -0.7072 -0.5096  0.5126
16179SOL    HW150979   1.441   5.257   6.637  0.0177 -1.3676  0.3525
16179SOL    HW250980   1.432   5.297   6.492 -0.9538 -0.1257  0.7407
16180SOL     OW50981   1.512   1.991   7.531  0.0958  0.2974 -0.6714
16180SOL    HW150982   1.560   2.061   7.576  0.3070  1.1708 -2.1764
16180SOL    HW250983   1.488   1.930   7.600  2.6594  0.2256  0.2679
16181SOL     OW50984   4.641   6.209   1.128  0.3169 -0.2922  0.0174
16181SOL    HW150985   4.711   6.153   1.095  0.2158 -1.3554  1.5346
16181SOL    HW250986   4.660   6.295   1.090  3.1676 -0.2403  1.3355
16182SOL     OW50987   3.881   8.989   5.439  0.1368  0.1153 -0.0954
16182SOL    HW150988   3.902   8.906   5.481 -1.3537 -0.1709  0.1296
16182SOL    HW250989   3.789   9.003   5.457  0.1464  1.3979 -0.8776
16183SOL     OW50990   3.212   2.541   9.443 -0.1226 -0.5912  0.7539
16183SOL    HW150991   3.291   2.588   9.420  1.5192 -2.5679  2.0286
16183SOL    HW250992   3.178   2.586   9.520 -1.3132  1.3308 -0.8053
16184SOL     OW50993   8.130   4.229   4.115 -0.2804  0.2596  0.3116
16184SOL    HW150994   8.087   4.159   4.164  0.1727 -0.6751 -0.5804
16184SOL    HW250995   8.061   4.265   4.058 -0.1166 -0.6228 -0.4598
16185SOL     OW50996   7.424   2.250   1.216 -0.1538 -0.3571 -0.2159
16185SOL    HW150997   7.487   2.310   1.177 -0.7195 -0.7375 -1.8133
16185SOL    HW250998   7.459   2.163   1.195 -0.7283 -0.5660 -0.3148
16186SOL     OW50999   5.130   8.113   8.352 -0.1503  0.2305  0.1740
16186SOL    HW151000   5.104   8.022   8.338 -0.7763  0.3215  0.7075
16186SOL    HW251001   5.069   8.146   8.418 -0.2196  1.1719 -0.3390
16187SOL     OW51002   8.943   8.900   9.160  0.0524 -0.2339  0.5413
16187SOL    HW151003   8.875   8.949   9.207 -0.0457 -0.1526  0.3159
16187SOL    HW251004   8.909   8.811   9.156 -0.6157  0.0548 -0.6536
16188SOL     OW51005   0.178   4.101   8.877  0.3178  0.2182  0.2718
16188SOL    HW151006   0.185   4.110   8.782 -1.0895  2.5323  0.3091
16188SOL    HW251007   0.233   4.172   8.912 -0.3899  0.3668  1.1321
16189SOL     OW51008   8.041   7.114   4.647 -0.4309  0.0375 -0.7979
16189SOL    HW151009   7.965   7.114   4.588 -0.1630 -2.2189 -1.2406
16189SOL    HW251010   8.114   7.086   4.592  0.1730 -0.4779  0.2368
16190SOL     OW51011   6.016   9.270   3.008  0.1207  0.9302  0.7712
16190SOL    HW151012   5.953   9.280   2.937  1.9553  1.4160 -0.8661
16190SOL    HW251013   6.036   9.176   3.010 -0.2145  0.8617  0.8988
16191SOL     OW51014   9.417   7.192   0.064 -0.0187  0.2666  0.9117
16191SOL    HW151015   9.486   7.247   0.102 -0.6658  1.4381  0.4397
16191SOL    HW251016   9.441   7.103   0.089  0.3531  0.8667  2.8105
16192SOL     OW51017   0.926   2.978   9.564  0.0357  0.2561 -0.5914
16192SOL    HW151018   0.917   3.072   9.547  0.3304  0.0330 -2.2036
16192SOL    HW251019   0.965   2.943   9.484  1.2587 -1.0481  0.5179
16193SOL     OW51020   9.880   4.312  10.007  0.5897  0.1626  0.1419
16193SOL    HW151021   9.854   4.299  10.099  0.7006 -0.1010  0.1367
16193SOL    HW251022   9.952   4.375  10.011  0.7343 -0.0086  0.2538
16194SOL     OW51023   1.445  10.091   3.538 -0.6013 -0.1295 -0.0916
16194SOL    HW151024   1.383  10.153   3.577  1.4629  1.9584  0.0812
16194SOL    HW251025   1.503  10.146   3.485  0.2322 -2.1856 -1.4314
16195SOL     OW51026   2.309   9.490   9.830  0.0384 -0.2681  0.4117
16195SOL    HW151027   2.285   9.403   9.799  0.5352 -0.6443  1.0515
16195SOL    HW251028   2.226   9.531   9.853 -0.2608 -0.2824 -0.6259
16196SOL     OW51029   1.376   4.101   2.641 -0.7376  0.3598  0.4580
16196SOL    HW151030   1.458   4.079   2.685 -1.4518 -1.1016  1.1518
16196SOL    HW251031   1.392   4.081   2.549 -0.4048 -0.2302  0.6391
16197SOL     OW51032   3.936   6.235   0.366  0.0172 -0.3449 -0.9243
16197SOL    HW151033   4.001   6.305   0.374  0.0757 -0.3505 -1.3361
16197SOL    HW251034   3.877   6.249   0.441 -0.2647  0.4522 -1.2810
16198SOL     OW51035   4.087   5.155   7.747 -0.1593  0.2878  0.6161
16198SOL    HW151036   4.088   5.172   7.841 -1.2779 -0.8173  0.8591
16198SOL    HW251037   4.061   5.239   7.708 -0.4509  0.5536  1.3623
16199SOL     OW51038  10.288   6.470   8.455 -0.2222  0.5172  0.2263
16199SOL    HW151039  10.222   6.448   8.390  0.3159 -1.1055  0.2002
16199SOL    HW251040  10.367   6.488   8.404 -0.7406  3.1409  0.2051
16200SOL     OW51041   6.921   9.187   6.704 -0.3540 -0.2590  0.0560
16200SOL    HW151042   6.991   9.217   6.647 -0.3624  0.8119  0.5887
16200SOL    HW251043   6.882   9.113   6.658  0.8778 -0.6357 -0.4209
16201SOL     OW51044   0.103   9.089   2.855  0.0805  0.7594 -0.1438
16201SOL    HW151045   0.151   9.070   2.935  0.2186 -0.8940 -0.5858
16201SOL    HW251046   0.130   9.179   2.832 -0.4224  1.4998  1.9423
16202SOL     OW51047   5.928   4.465   5.454  0.0248 -0.4268  0.0429
16202SOL    HW151048   5.852   4.459   5.396 -0.3065 -1.2550  0.5609
16202SOL    HW251049   5.892   4.491   5.538  0.5723  1.3569 -0.2252
16203SOL     OW51050  10.453   5.710   9.040  0.0710 -0.6403 -0.1924
16203SOL    HW151051  10.415   5.662   8.967  1.6202 -0.7294 -0.9777
16203SOL    HW251052  10.433   5.657   9.117 -3.3962  0.4794 -0.1786
16204SOL     OW51053   0.524   7.500   4.409 -0.3915  0.6008  0.8243
16204SOL    HW151054   0.476   7.450   4.475 -0.4053 -0.1607  0.2544
16204SOL    HW251055   0.615   7.499   4.440 -0.2885 -0.2930  0.5288
16205SOL     OW51056   5.281   5.954   7.491  0.1996  0.0904  0.2217
16205SOL    HW151057   5.292   5.958   7.396 -0.9410  0.2675  0.0839
16205SOL    HW251058   5.256   5.863   7.508 -0.4403  0.2656  0.2468
16206SOL     OW51059   9.513   8.869   4.645  0.4117 -0.2010 -0.4030
16206SOL    HW151060   9.594   8.914   4.669  0.4550 -0.7076  0.4207
16206SOL    HW251061   9.510   8.793   4.703  0.1057 -1.0139 -1.4706
16207SOL     OW51062   5.482   8.570   7.868  0.2348  0.1848  0.1579
16207SOL    HW151063   5.411   8.633   7.881 -0.1746 -0.4342  1.0278
16207SOL    HW251064   5.447   8.487   7.902  0.6861 -0.5645 -1.1342
16208SOL     OW51065   3.369   3.994   1.021  0.2250  0.3553  0.1073
16208SOL    HW151066   3.405   4.059   0.961 -1.0791 -0.9514 -2.2382
16208SOL    HW251067   3.274   4.002   1.011  0.0200 -1.0157  0.7188
16209SOL     OW51068   5.986   4.019   9.016 -0.7796  0.2495  0.4175
16209SOL    HW151069   5.956   4.055   9.100 -1.6757  2.4505 -0.7466
16209SOL    HW251070   6.058   4.077   8.991  1.3990 -2.1071  0.9288
16210SOL     OW51071   0.408   6.854   1.582 -0.2489 -0.2458  0.5842
16210SOL    HW151072   0.421   6.813   1.667  0.4754 -1.1944  0.0410
16210SOL    HW251073   0.373   6.784   1.527  0.9919 -0.1566 -0.3564
16211SOL     OW51074   7.052   0.315   3.904  0.0777 -0.3894 -0.2506
16211SOL    HW151075   7.121   0.293   3.966 -1.0840  1.1679  1.6933
16211SOL    HW251076   7.026   0.404   3.926 -0.5354  0.1855 -2.8914
16212SOL     OW51077   1.750   9.260   7.554  0.3524  0.0280  0.4109
16212SOL    HW151078   1.768   9.185   7.498 -1.4772 -0.0946 -0.0606
16212SOL    HW251079   1.710   9.223   7.632 -0.2320  0.4680  0.3271
16213SOL     OW51080   4.861   8.427  10.052 -0.1968 -0.5996 -0.5917
16213SOL    HW151081   4.858   8.465   9.964  0.4641 -2.1676 -1.3175
16213SOL    HW251082   4.769   8.406  10.071 -0.3456 -0.2479 -0.8898
16214SOL     OW51083   1.515   6.388   6.401 -0.4173  0.5950 -0.4827
16214SOL    HW151084   1.473   6.377   6.486  0.8607 -2.2159 -0.1011
16214SOL    HW251085   1.442   6.397   6.339 -1.4621 -0.3703  0.5669
16215SOL     OW51086   0.128   0.834   4.605 -0.3000 -0.5175  0.0350
16215SOL    HW151087   0.066   0.858   4.537  0.5785 -0.3895 -0.7380
16215SOL    HW251088   0.174   0.758   4.570 -0.2646 -0.8416  0.7543
16216SOL     OW51089   3.950   9.580   0.774  0.0515  0.2172 -0.0012
16216SOL    HW151090   3.959   9.546   0.685 -0.7105 -0.3274  0.1123
16216SOL    HW251091   3.939   9.502   0.828 -1.2169  0.6041  0.3344
16217SOL     OW51092   6.551   5.544   1.999  0.4169 -0.1994  0.1236
16217SOL    HW151093   6.620   5.604   2.026  0.6218 -0.5804  0.4570
16217SOL    HW251094   6.543   5.558   1.904  1.9120 -1.1160 -0.1720
16218SOL     OW51095   7.220   5.728   0.664  0.0699  0.1456 -0.1641
16218SOL    HW151096   7.213   5.701   0.755 -1.8502  0.9965 -0.0135
16218SOL    HW251097   7.162   5.669   0.616 -1.6909  1.8540 -0.2776
16219SOL     OW51098   1.709   1.707  10.467 -0.6121 -0.2878  0.1437
16219SOL    HW151099   1.625   1.663  10.479  0.1726 -1.7805  0.4209
16219SOL    HW251100   1.736   1.682  10.379  0.1645 -0.9280  0.5594
16220SOL     OW51101  10.228   4.010   4.718 -0.1123  0.0302  0.3401
16220SOL    HW151102  10.295   3.978   4.778  0.3929  1.2188  0.4325
16220SOL    HW251103  10.255   4.099   4.696 -0.0233 -0.5245 -2.0337
16221SOL     OW51104   7.678   1.200   6.904 -0.0148 -0.3609  0.3889
16221SOL    HW151105   7.601   1.143   6.906 -0.7166  0.4799 -1.1901
16221SOL    HW251106   7.679   1.243   6.990  0.0141 -2.0297  1.2591
16222SOL     OW51107   5.659   5.384   7.359 -0.2031 -0.1250 -0.1481
16222SOL    HW151108   5.615   5.304   7.330  0.9004 -1.3152  1.2696
16222SOL    HW251109   5.726   5.353   7.420  2.0832  1.6475 -1.5817
16223SOL     OW51110   9.516   9.877   9.843 -0.2563  0.5162  0.4043
16223SOL    HW151111   9.586   9.928   9.884 -1.2466  1.9566  0.3673
16223SOL    HW251112   9.442   9.938   9.836 -0.7506 -0.2385 -1.7678
16224SOL     OW51113   0.481   8.848   0.421 -0.3370  0.0386  0.7481
16224SOL    HW151114   0.445   8.808   0.500 -1.1168 -0.8387 -0.0284
16224SOL    HW251115   0.470   8.781   0.353 -0.1214  0.9469 -0.2057
16225SOL     OW51116   7.946   4.027   0.607  0.2691 -0.0962  0.0266
16225SOL    HW151117   8.021   4.035   0.665 -0.1091  0.0375  0.5020
16225SOL    HW251118   7.890   3.961   0.649  1.0783 -1.7291 -1.3684
16226SOL     OW51119   7.215   5.451   7.400  0.6493 -0.1512  0.5172
16226SOL    HW151120   7.232   5.545   7.413 -0.1716  0.4140 -1.9370
16226SOL    HW251121   7.272   5.427   7.327 -1.1463 -0.8325 -0.7319
16227SOL     OW51122   9.032   7.892   5.106  0.7418  0.1566 -0.2801
16227SOL    HW151123   9.107   7.868   5.052  1.3677 -1.2367  1.1332
16227SOL    HW251124   9.039   7.836   5.184  0.0953  2.3121  1.4387
16228SOL     OW51125   8.669   5.716   3.747  0.2056  0.1891  0.3140
16228SOL    HW151126   8.697   5.697   3.657 -0.5762  0.1199  0.0841
16228SOL    HW251127   8.716   5.651   3.800  2.0405  1.3340  0.1751
16229SOL     OW51128   4.382   5.296   9.488 -0.2311 -0.0971  0.4241
16229SOL    HW151129   4.460   5.268   9.536  0.6749 -1.0171 -1.4706
16229SOL    HW251130   4.332   5.348   9.551  1.6730  0.1234  1.8360
16230SOL     OW51131   7.063   4.505   1.051  0.1459  0.4046  0.1900
16230SOL    HW151132   7.080   4.413   1.069  0.7853 -0.0841 -2.5052
16230SOL    HW251133   6.968   4.515   1.065 -0.1158 -0.9293 -0.5146
16231SOL     OW51134   6.589   5.936   3.098 -0.3988  0.1975 -0.0708
16231SOL    HW151135   6.549   5.972   3.019  0.2038  2.7497  0.6861
16231SOL    HW251136   6.680   5.920   3.073 -0.0359  1.6560  0.2551
16232SOL     OW51137   8.313   6.296   7.583 -0.5342 -0.6520 -0.3580
16232SOL    HW151138   8.357   6.254   7.656 -1.0305 -1.0674 -0.2925
16232SOL    HW251139   8.315   6.390   7.603  1.3635 -0.5295 -0.9310
16233SOL     OW51140   9.860   7.859   9.483  0.2904 -0.2867 -0.3928
16233SOL    HW151141   9.826   7.948   9.482  1.2752  0.1248  0.5710
16233SOL    HW251142   9.809   7.814   9.551  1.1200  0.1279  0.5383
16234SOL     OW51143   4.607   3.108   0.306 -0.1409 -0.1981  0.5953
16234SOL    HW151144   4.623   3.088   0.214  0.2259 -2.1070  1.0286
16234SOL    HW251145   4.630   3.027   0.352  0.0724  0.8465  2.4072
16235SOL     OW51146   0.942   1.240   6.954 -0.0219  0.1309  0.2124
16235SOL    HW151147   0.965   1.280   7.037 -0.9801  0.2668  0.4244
16235SOL    HW251148   0.989   1.156   6.954  0.7935  0.5849  0.4294
16236SOL     OW51149   6.283   8.846   8.464  0.1671 -0.0465 -0.2749
16236SOL    HW151150   6.280   8.752   8.483  3.2119  0.0072  0.9251
16236SOL    HW251151   6.220   8.885   8.524  1.5563 -1.0292  1.9551
16237SOL     OW51152   9.616   7.572   5.678  0.4410 -0.3147 -0.0380
16237SOL    HW151153   9.702   7.609   5.699  0.8747 -0.7650 -0.9665
16237SOL    HW251154   9.631   7.520   5.599 -0.6318 -0.6273 -0.0495
16238SOL     OW51155   3.124   2.953   2.871 -0.8106  0.0672 -0.0928
16238SOL    HW151156   3.083   2.946   2.957  0.0293 -0.6544  0.2712
16238SOL    HW251157   3.203   3.006   2.886 -1.0429  0.5545 -0.5665
16239SOL     OW51158   8.823   0.779   1.991  0.4937  0.1551 -1.0283
16239SOL    HW151159   8.848   0.760   1.901 -0.4704  1.4371 -1.6040
16239SOL    HW251160   8.758   0.849   1.983  1.8998  1.7627  0.7617
16240SOL     OW51161   2.889   2.503   8.187  0.4357  0.0497 -0.0454
16240SOL    HW151162   2.948   2.486   8.114  2.3114  0.7287  1.2548
16240SOL    HW251163   2.903   2.595   8.209 -0.4904  0.0018  0.8476
16241SOL     OW51164   8.097   7.779   8.950  0.4644  0.3309 -0.2364
16241SOL    HW151165   8.159   7.813   8.886  1.5600  0.4502  0.8527
16241SOL    HW251166   8.064   7.857   8.995  0.2086  0.2043 -0.2012
16242SOL     OW51167   6.440   6.144   1.509  0.1815 -0.4473 -0.1510
16242SOL    HW151168   6.531   6.138   1.481  0.3937  2.4348 -0.3032
16242SOL    HW251169   6.445   6.163   1.603 -0.2933 -0.7996 -0.0487
16243SOL     OW51170   4.026   6.812   2.887  0.0203  0.1070  0.2737
16243SOL    HW151171   4.002   6.722   2.865 -0.3125 -0.1042  1.4488
16243SOL    HW251172   4.031   6.856   2.802  1.8695 -1.4025 -0.4937
16244SOL     OW51173   8.470   4.543   5.005 -0.1929 -0.4433  0.9202
16244SOL    HW151174   8.433   4.456   5.018  0.5280 -1.1864 -1.6003
16244SOL    HW251175   8.565   4.530   5.009 -0.0702  0.1228 -0.0163
16245SOL     OW51176   8.978   4.441   9.739 -0.3890  0.0605 -0.6623
16245SOL    HW151177   8.898   4.491   9.751  0.4706  1.4289 -0.4334
16245SOL    HW251178   9.048   4.501   9.765  0.9750  0.1810 -4.0885
16246SOL     OW51179   9.700   2.610   8.327 -0.2277 -0.2228 -0.2354
16246SOL    HW151180   9.738   2.526   8.301 -0.7226 -1.0572  1.5281
16246SOL    HW251181   9.620   2.587   8.373 -0.5575  1.2503 -0.0106
16247SOL     OW51182   5.523   5.828   8.381 -0.5482  0.7967 -0.3512
16247SOL    HW151183   5.467   5.810   8.305 -0.1630  1.8166 -0.9040
16247SOL    HW251184   5.603   5.864   8.343  0.1354  0.1844  0.4834
16248SOL     OW51185   1.474   9.664   0.730 -0.3360 -0.7825 -0.4247
16248SOL    HW151186   1.556   9.618   0.750 -0.2869 -0.3255  0.4697
16248SOL    HW251187   1.408   9.621   0.785  0.3336  2.3943  3.2707
16249SOL     OW51188   0.804   0.404   8.727  0.5360 -0.3202 -0.0352
16249SOL    HW151189   0.719   0.416   8.770  2.0151  2.6788  2.4312
16249SOL    HW251190   0.842   0.327   8.770  0.0017 -0.2624  0.5588
16250SOL     OW51191   8.096   3.066   2.096 -0.3307 -0.2687  0.0127
16250SOL    HW151192   8.022   3.019   2.058 -0.9724  2.2829 -2.1119
16250SOL    HW251193   8.064   3.098   2.180  0.0202 -3.1109  1.3755
16251SOL     OW51194   6.324   3.667   1.074  0.1896  0.3425 -0.1059
16251SOL    HW151195   6.317   3.677   0.979  0.3151  0.6206 -0.0882
16251SOL    HW251196   6.321   3.757   1.107 -0.8085  0.2032  0.2216
16252SOL     OW51197   0.130   5.622   7.842 -0.0211  0.4923 -0.5932
16252SOL    HW151198   0.193   5.624   7.914  0.4147 -0.8881 -0.8976
16252SOL    HW251199   0.141   5.706   7.798  0.0691  1.1502  0.6286
16253SOL     OW51200   5.951  10.473   9.590  0.3984 -0.2832  0.0519
16253SOL    HW151201   5.972  10.423   9.511  0.8756  0.6248 -0.4158
16253SOL    HW251202   5.892  10.417   9.639 -1.3943 -0.1361 -1.8173
16254SOL     OW51203   8.675   0.960   9.696 -0.0508 -0.1660  0.2539
16254SOL    HW151204   8.662   0.869   9.670 -0.8174 -0.2287  0.8119
16254SOL    HW251205   8.631   1.011   9.627  0.6595 -0.1972 -0.2302
16255SOL     OW51206   4.241   5.369   8.960  0.2002 -0.3538  0.2585
16255SOL    HW151207   4.218   5.379   9.052 -1.5547 -2.0138  0.0695
16255SOL    HW251208   4.209   5.448   8.918  1.9087  0.8820  1.1780
16256SOL     OW51209   3.918   5.606   5.953  0.3034 -0.1692  0.5404
16256SOL    HW151210   3.844   5.639   6.005  0.3540  1.9057 -0.5859
16256SOL    HW251211   3.919   5.512   5.970 -0.9700  0.1188  2.6150
16257SOL     OW51212   3.470   0.449   6.722 -0.3207 -0.0606 -0.5069
16257SOL    HW151213   3.485   0.539   6.752 -0.4589 -0.0839 -0.3663
16257SOL    HW251214   3.551   0.403   6.741 -0.0474  0.1709 -1.0901
16258SOL     OW51215   4.467   9.053  10.235  0.3359  0.4399 -0.1940
16258SOL    HW151216   4.496   9.024  10.149 -1.2408 -0.5549 -0.4341
16258SOL    HW251217   4.416   9.132  10.218 -2.0612 -1.0672 -0.5637
16259SOL     OW51218   0.424   4.294   4.530 -0.6039  0.7168  0.7752
16259SOL    HW151219   0.447   4.387   4.532  2.3886  0.1138 -0.0461
16259SOL    HW251220   0.413   4.275   4.436 -1.0949  0.2125  0.9323
16260SOL     OW51221   0.501   1.191   3.612 -1.1113  0.3881 -0.5280
16260SOL    HW151222   0.477   1.224   3.699 -0.5026  1.0732 -0.6127
16260SOL    HW251223   0.597   1.191   3.612 -0.9343 -3.5052  0.2771
16261SOL     OW51224   9.556   2.052   2.477  0.7068  0.3282  0.4160
16261SOL    HW151225   9.635   2.105   2.471  0.5332  0.4058 -1.8867
16261SOL    HW251226   9.586   1.963   2.459  0.3425  0.2927 -0.0183
16262SOL     OW51227   5.063   5.579   1.426 -0.3035  0.4249  0.4455
16262SOL    HW151228   5.050   5.527   1.506  2.6415  0.7161  1.2318
16262SOL    HW251229   5.026   5.665   1.447  0.1189  0.3911  1.3822
16263SOL     OW51230   5.547   3.980   6.680 -0.0705 -0.4261 -0.3471
16263SOL    HW151231   5.452   3.994   6.679  0.0314  0.4104 -2.1222
16263SOL    HW251232   5.572   3.979   6.587  1.3037 -3.3163 -0.0765
16264SOL     OW51233   7.460   3.400   4.713 -0.4844 -0.6509 -0.2765
16264SOL    HW151234   7.366   3.417   4.715 -0.5138 -0.8249  0.4824
16264SOL    HW251235   7.470   3.319   4.763 -0.0538 -1.3120 -1.3971
16265SOL     OW51236   9.269   4.905   3.801 -0.1306  0.6009 -0.0289
16265SOL    HW151237   9.265   4.968   3.729 -0.5073 -0.1508 -0.6777
16265SOL    HW251238   9.259   4.958   3.880  1.5084  1.5893 -0.4474
16266SOL     OW51239   4.645   9.885   4.917  0.2659  0.0836  0.3847
16266SOL    HW151240   4.663   9.890   5.011  0.9140 -0.5427  0.3041
16266SOL    HW251241   4.721   9.927   4.876 -0.0858  0.4890  0.1442
16267SOL     OW51242   8.071   3.677   3.419 -0.0415 -0.4070  0.0582
16267SOL    HW151243   7.986   3.716   3.438 -1.6617 -3.4306 -0.2557
16267SOL    HW251244   8.062   3.644   3.329  1.4221 -0.8950  0.0643
16268SOL     OW51245   2.716  10.427   6.205 -0.5203 -0.7093 -0.1610
16268SOL    HW151246   2.766  10.409   6.126  0.8451  0.5947  0.3451
16268SOL    HW251247   2.714  10.343   6.252 -1.3537 -1.4908 -1.5472
16269SOL     OW51248   1.933   9.265   3.606 -0.2183  0.3473  0.7158
16269SOL    HW151249   2.023   9.237   3.622 -0.0911 -0.0453 -0.6036
16269SOL    HW251250   1.880   9.211   3.665  0.1034 -2.1096 -1.0944
16270SOL     OW51251   2.083   9.990   7.895  0.1890 -0.0846  0.2830
16270SOL    HW151252   2.105   9.906   7.935  1.6898  1.4423  2.9052
16270SOL    HW251253   2.167  10.033   7.882 -0.6718  2.2948  2.0322
16271SOL     OW51254  10.437   1.922   8.294 -0.6238  0.4197 -0.7327
16271SOL    HW151255  10.476   1.894   8.376 -1.5453  0.4080 -0.2852
16271SOL    HW251256  10.443   2.017   8.295 -1.0054  0.4442 -0.4537
16272SOL     OW51257   4.914   0.490   3.640 -0.1126  0.2743 -0.6192
16272SOL    HW151258   4.888   0.419   3.699 -1.3783  0.7993 -0.5176
16272SOL    HW251259   4.995   0.459   3.599  1.2121  0.1609  1.8881
16273SOL     OW51260   1.717   3.445   1.665  0.0753 -0.0867  0.3307
16273SOL    HW151261   1.705   3.397   1.583  0.3873  0.9756 -0.3589
16273SOL    HW251262   1.804   3.485   1.656  0.7091 -1.0648  1.7741
16274SOL     OW51263   7.699   4.307   2.676  0.3034  0.1651 -0.7684
16274SOL    HW151264   7.736   4.325   2.763  0.0228 -2.5116  0.0121
16274SOL    HW251265   7.762   4.345   2.615  0.9275  1.4230  0.5783
16275SOL     OW51266   5.371   6.280   2.194  0.1314  0.0016  0.1362
16275SOL    HW151267   5.436   6.210   2.191  0.5749  0.3867  0.7123
16275SOL    HW251268   5.392   6.336   2.119  1.0337  0.6251  0.8453
16276SOL     OW51269   6.956   0.278   1.137 -0.2683  0.0309  0.5947
16276SOL    HW151270   6.934   0.363   1.098  0.8283  0.3940  0.7169
16276SOL    HW251271   6.917   0.282   1.225 -0.6255  0.2206  0.4292
16277SOL     OW51272   4.511   4.684   1.265 -0.1172  0.1261 -1.0323
16277SOL    HW151273   4.573   4.752   1.293 -0.1156 -0.5604  0.7384
16277SOL    HW251274   4.563   4.625   1.210  0.5732  0.0694 -0.3273
16278SOL     OW51275   8.424   4.116   9.309  0.3071  0.2552 -0.7168
16278SOL    HW151276   8.406   4.187   9.371  0.3371 -1.1996  1.0648
16278SOL    HW251277   8.504   4.075   9.344 -0.6691 -1.7022 -0.6553
16279SOL     OW51278   9.770   8.153   7.312 -0.0261 -0.4888 -0.1417
16279SOL    HW151279   9.732   8.157   7.400 -0.9297  0.5137 -0.5547
16279SOL    HW251280   9.748   8.237   7.272  0.7782 -0.7460 -1.1702
16280SOL     OW51281   3.443   4.396   9.660  0.3211 -0.0083  0.0504
16280SOL    HW151282   3.517   4.407   9.600  1.4489  1.3086  1.6151
16280SOL    HW251283   3.466   4.321   9.714  0.4430  0.3215  0.4543
16281SOL     OW51284   5.810   9.023   0.705 -0.2645 -0.9118  0.0871
16281SOL    HW151285   5.793   8.994   0.795  0.0340 -0.8216  0.1743
16281SOL    HW251286   5.732   8.996   0.656  0.0432 -1.9534  0.1402
16282SOL     OW51287   8.368   2.626   5.770 -0.7364  0.1155 -0.6218
16282SOL    HW151288   8.334   2.539   5.793 -0.0075  0.1320  0.5990
16282SOL    HW251289   8.363   2.675   5.852 -0.0366  0.8651 -1.0243
16283SOL     OW51290   2.534   5.552   1.236 -0.7623 -0.3245 -0.6631
16283SOL    HW151291   2.553   5.462   1.261  0.3517  0.2717  0.8334
16283SOL    HW251292   2.618   5.587   1.206 -1.1992  0.1958 -1.3054
16284SOL     OW51293   3.457   1.243   4.776  0.6055 -0.0214  0.6111
16284SOL    HW151294   3.464   1.331   4.739  0.8761 -0.3444 -0.1271
16284SOL    HW251295   3.421   1.256   4.863 -0.9195  0.6925 -0.0916
16285SOL     OW51296   7.512   8.439   8.134  0.2823  0.7689 -0.1170
16285SOL    HW151297   7.454   8.498   8.085 -1.1019  0.6842  1.3162
16285SOL    HW251298   7.507   8.356   8.086 -1.0788  0.6736  0.1335
16286SOL     OW51299   7.791   3.121   6.536  0.8663  0.1968  0.2327
16286SOL    HW151300   7.822   3.171   6.460 -0.2098  0.8212  0.1955
16286SOL    HW251301   7.869   3.112   6.591  1.1674  1.6145  0.0753
16287SOL     OW51302   0.160   1.609   9.528 -0.3904  0.2696  0.2578
16287SOL    HW151303   0.227   1.541   9.518 -0.0548  0.8380 -1.8178
16287SOL    HW251304   0.183   1.654   9.609  1.1353 -0.2067  0.1105
16288SOL     OW51305   4.869   0.599   8.115 -0.5139  0.5264 -0.4164
16288SOL    HW151306   4.884   0.602   8.021 -1.1303 -1.3523 -0.6141
16288SOL    HW251307   4.774   0.599   8.124 -0.4840  2.2632  0.3182
16289SOL     OW51308   6.159   3.693   6.358  1.1300 -0.5148 -0.5068
16289SOL    HW151309   6.149   3.616   6.416 -0.6204 -0.6418 -0.9344
16289SOL    HW251310   6.069   3.722   6.341  1.7495  1.6261 -0.3988
16290SOL     OW51311   2.116   7.919   8.375 -0.2054  0.5842  0.1884
16290SOL    HW151312   2.143   7.978   8.305  0.0425  2.3178  1.6701
16290SOL    HW251313   2.161   7.952   8.453 -0.8430 -0.9869  1.2720
16291SOL     OW51314   0.639   5.139   5.737 -0.0662  0.3208  0.2058
16291SOL    HW151315   0.667   5.069   5.796 -0.1341  0.1433  0.0250
16291SOL    HW251316   0.562   5.104   5.692 -0.1789  0.5587  0.2092
16292SOL     OW51317   6.238   2.211   8.049 -0.1951  0.0768 -0.3038
16292SOL    HW151318   6.310   2.151   8.069 -1.2044 -1.6426 -1.6032
16292SOL    HW251319   6.161   2.167   8.084 -0.6609  2.0710  1.4179
16293SOL     OW51320   8.083   1.138   9.420 -0.2890 -0.1391  0.1123
16293SOL    HW151321   8.019   1.158   9.489  0.7307  0.7742  0.8321
16293SOL    HW251322   8.164   1.181   9.450  0.2078  0.1811 -1.6161
16294SOL     OW51323   1.241   8.238   6.241 -0.5656  0.5922  0.4398
16294SOL    HW151324   1.164   8.189   6.267 -0.3548  0.6859  1.2537
16294SOL    HW251325   1.260   8.295   6.316  0.4433  0.3855  0.3539
16295SOL     OW51326   3.578   3.831   4.597  0.4403 -0.6509 -0.0424
16295SOL    HW151327   3.537   3.763   4.650 -0.4680 -0.1208 -0.0370
16295SOL    HW251328   3.543   3.818   4.510 -1.1122  0.8485  0.3114
16296SOL     OW51329   7.596   6.327   7.236  0.8853  0.5456 -0.6324
16296SOL    HW151330   7.670   6.270   7.255 -0.5154 -0.7952  1.1309
16296SOL    HW251331   7.593   6.332   7.141  1.1645 -2.2133 -0.8451
16297SOL     OW51332   5.240   7.342   7.581 -0.4739 -0.4714  0.7272
16297SOL    HW151333   5.147   7.321   7.580 -0.7393  0.6904  0.0871
16297SOL    HW251334   5.246   7.431   7.545  1.0681 -1.3125 -1.3436
16298SOL     OW51335   1.363   3.435   6.905 -0.0010  0.3986  0.3745
16298SOL    HW151336   1.423   3.363   6.888  1.5679  1.5586  0.7444
16298SOL    HW251337   1.370   3.450   6.999  0.4819  1.6553  0.1620
16299SOL     OW51338   6.607   4.687   4.916 -0.7270  0.1881  0.3766
16299SOL    HW151339   6.651   4.627   4.855 -0.1584  0.9004  0.0713
16299SOL    HW251340   6.532   4.721   4.867 -0.9099 -0.0796  0.4662
16300SOL     OW51341   5.911   0.253   0.266  0.2119 -0.1797  0.3369
16300SOL    HW151342   5.981   0.192   0.243  0.0371 -0.3137  0.1550
16300SOL    HW251343   5.837   0.226   0.212 -0.2783 -0.6305  1.2201
16301SOL     OW51344   1.024   3.480   0.400 -0.4729  0.1695 -0.0113
16301SOL    HW151345   1.019   3.550   0.465  0.3890 -0.4770  0.7731
16301SOL    HW251346   1.085   3.416   0.437 -0.4943 -0.5472 -1.1445
16302SOL     OW51347   0.891   0.757   9.976  0.4494  0.1683  0.3165
16302SOL    HW151348   0.905   0.711  10.059 -1.4165  0.1723  0.6668
16302SOL    HW251349   0.926   0.845   9.992 -3.6909  1.6462  2.7280
16303SOL     OW51350   5.231   1.347   2.419  0.5028 -0.0346  0.4949
16303SOL    HW151351   5.195   1.429   2.383 -0.0453 -1.0345 -1.3758
16303SOL    HW251352   5.318   1.340   2.380  0.7432 -0.1114  1.0397
16304SOL     OW51353   1.235   0.875   9.078 -0.0585  0.4078 -0.5368
16304SOL    HW151354   1.215   0.820   9.153  0.0191  0.6111 -0.3628
16304SOL    HW251355   1.150   0.902   9.043 -0.0981  1.0736  0.0516
16305SOL     OW51356   6.684   3.229   8.218 -0.7750 -0.4601 -0.1967
16305SOL    HW151357   6.684   3.282   8.298 -1.0822 -1.2039  0.3007
16305SOL    HW251358   6.747   3.274   8.160 -3.7402  2.7063 -1.3170
16306SOL     OW51359   6.886   5.520   0.701  0.1925  0.2212  0.0983
16306SOL    HW151360   6.828   5.450   0.731  0.2451 -0.4834 -1.3542
16306SOL    HW251361   6.974   5.485   0.712  0.2053 -1.2003 -3.2194
16307SOL     OW51362   1.477   9.412   3.275  0.1089 -0.1456 -0.3135
16307SOL    HW151363   1.496   9.352   3.202  1.1622 -0.4627  0.2098
16307SOL    HW251364   1.557   9.464   3.285 -1.6307  3.3424 -2.5467
16308SOL     OW51365   6.007   7.625   6.234  0.3986 -0.2280  0.1007
16308SOL    HW151366   5.967   7.615   6.320  2.1192 -0.6807  0.9076
16308SOL    HW251367   6.059   7.705   6.241  0.2877 -0.0812 -0.6427
16309SOL     OW51368   9.747   7.689   2.442  0.1621  0.1162 -0.4319
16309SOL    HW151369   9.832   7.649   2.428  0.7973  1.3898 -0.3400
16309SOL    HW251370   9.746   7.713   2.534 -0.4159 -0.1556 -0.3636
16310SOL     OW51371   3.402   4.376   7.061 -0.1065 -0.2242  0.2474
16310SOL    HW151372   3.484   4.331   7.038  0.0565  0.7427 -1.1842
16310SOL    HW251373   3.337   4.307   7.065  0.3475 -0.7475 -0.8586
16311SOL     OW51374   3.992   8.636   5.394  0.1904  0.1719 -0.0446
16311SOL    HW151375   4.001   8.711   5.454  0.5760  0.1651 -0.0914
16311SOL    HW251376   4.082   8.612   5.372  0.1312 -1.3509  1.2566
16312SOL     OW51377   8.659   1.925   0.440 -0.2404 -0.3122  0.1087
16312SOL    HW151378   8.699   1.838   0.441 -1.1632 -0.7566  1.6048
16312SOL    HW251379   8.566   1.908   0.426 -0.6202  0.3082  1.6682
16313SOL     OW51380   4.790   1.252   2.232  0.5188 -0.3504 -0.5236
16313SOL    HW151381   4.700   1.218   2.235  0.0317  0.8664 -0.9551
16313SOL    HW251382   4.840   1.191   2.287 -0.5493 -1.0949 -0.3491
16314SOL     OW51383   9.924   8.528   4.786  0.6096  0.2652 -0.5134
16314SOL    HW151384   9.959   8.482   4.862  0.3308  0.3656 -0.3250
16314SOL    HW251385   9.992   8.592   4.763 -0.4870  2.2694  1.4369
16315SOL     OW51386   1.911   8.512   0.637  0.7025 -0.1717  0.6732
16315SOL    HW151387   1.970   8.562   0.582  0.0705 -0.4425 -0.2681
16315SOL    HW251388   1.960   8.496   0.718  2.0312 -0.6914 -0.2203
16316SOL     OW51389   5.224   1.920   8.699 -0.0621 -0.0226 -0.2970
16316SOL    HW151390   5.216   2.012   8.674  1.1041 -0.0668 -0.8658
16316SOL    HW251391   5.236   1.923   8.794  2.5850  0.6237 -0.5683
16317SOL     OW51392   6.890   2.504  10.273  0.4004  0.3679 -0.0384
16317SOL    HW151393   6.843   2.472  10.197 -2.2732  0.4665  1.4274
16317SOL    HW251394   6.894   2.599  10.261 -1.2648  0.5446  0.5057
16318SOL     OW51395   9.840   8.421   1.606 -0.0161 -0.3271  0.1731
16318SOL    HW151396   9.757   8.449   1.644  0.4008  1.2128 -0.0101
16318SOL    HW251397   9.827   8.427   1.511  0.8970  1.8777  0.1328
16319SOL     OW51398   6.328   0.334   0.694  0.1379  0.3946 -0.2436
16319SOL    HW151399   6.338   0.428   0.708 -1.2933  0.5858 -0.3089
16319SOL    HW251400   6.282   0.327   0.610  1.1836 -0.4190 -0.7836
16320SOL     OW51401   1.194   1.579   4.871  0.6040 -0.5038 -0.3318
16320SOL    HW151402   1.243   1.657   4.897 -0.8615  0.0086  0.9744
16320SOL    HW251403   1.248   1.539   4.802  2.9114 -0.0282  1.0993
16321SOL     OW51404   6.293   6.288   8.542  0.1382  0.2025 -0.2954
16321SOL    HW151405   6.303   6.303   8.636  2.4481  2.0715 -0.7331
16321SOL    HW251406   6.313   6.373   8.502  1.3770 -1.0376 -2.5424
16322SOL     OW51407   7.025   0.254   2.952 -0.1679  0.1705 -0.0019
16322SOL    HW151408   6.992   0.284   3.037 -1.9631 -0.7181 -0.3323
16322SOL    HW251409   7.061   0.168   2.968 -0.1770  0.1538 -0.0682
16323SOL     OW51410   6.324   3.583   0.577 -0.0509 -0.8245 -0.0876
16323SOL    HW151411   6.321   3.494   0.611  0.5307 -0.9478 -0.3548
16323SOL    HW251412   6.319   3.639   0.655 -0.6423 -1.0862  0.0631
16324SOL     OW51413  10.412   7.337   7.899 -0.6792  0.1488 -0.5021
16324SOL    HW151414  10.436   7.391   7.974 -0.5575 -1.7020  0.8523
16324SOL    HW251415  10.415   7.397   7.824 -0.7991  2.0410  0.9518
16325SOL     OW51416   1.332   0.651   0.154 -0.0119  0.1424 -0.4062
16325SOL    HW151417   1.399   0.705   0.196  1.8009 -2.5882  0.5262
16325SOL    HW251418   1.334   0.678   0.062  4.2149 -1.3026 -0.9711
16326SOL     OW51419   6.060   7.013   7.685 -0.5319 -0.4968  0.2558
16326SOL    HW151420   6.148   6.975   7.685 -0.8441 -1.2516 -0.1784
16326SOL    HW251421   6.071   7.099   7.726  0.5409 -0.2538 -0.4927
16327SOL     OW51422   0.682   1.900   7.913 -0.1590 -0.6436 -0.1888
16327SOL    HW151423   0.682   1.822   7.858  1.4701 -0.5550 -0.3605
16327SOL    HW251424   0.769   1.938   7.901 -0.7789  0.9890  0.1955
16328SOL     OW51425   0.625   2.077   1.093  0.3482 -0.0950 -0.5131
16328SOL    HW151426   0.542   2.047   1.130  0.2084 -2.1758 -2.2674
16328SOL    HW251427   0.601   2.143   1.029  0.1585  0.1307 -0.2095
16329SOL     OW51428   7.008   4.166   8.233  0.1069 -0.0838 -0.2860
16329SOL    HW151429   7.019   4.253   8.272 -2.7184 -0.7264  2.4220
16329SOL    HW251430   7.096   4.128   8.233  1.0275  1.8815  0.8312
16330SOL     OW51431   3.264   2.097   8.383 -0.0915 -0.1242  0.2225
16330SOL    HW151432   3.276   2.031   8.315 -1.5951  0.1253 -0.3268
16330SOL    HW251433   3.267   2.047   8.465 -3.4816 -1.3616 -0.2495
16331SOL     OW51434   9.756   6.859   7.587  0.3403 -0.3213  0.3759
16331SOL    HW151435   9.724   6.837   7.500  0.7876 -1.0186  0.3804
16331SOL    HW251436   9.759   6.955   7.588  1.3858 -0.3162 -0.7670
16332SOL     OW51437   0.096   1.633   1.656  0.0674  0.4885 -0.6164
16332SOL    HW151438   0.037   1.558   1.650  0.6086 -0.0060  0.0884
16332SOL    HW251439   0.062   1.695   1.592 -0.7356 -0.1176 -0.7971
16333SOL     OW51440   3.790  10.456   6.074  0.0770  0.4907  0.3711
16333SOL    HW151441   3.878  10.487   6.052 -0.3357  0.7509 -1.0209
16333SOL    HW251442   3.801  10.412   6.159  1.5707  0.4023  0.1683
16334SOL     OW51443   6.611   4.613   9.365  0.1832 -0.3608  0.1528
16334SOL    HW151444   6.582   4.603   9.456 -2.3726 -0.2429 -0.5653
16334SOL    HW251445   6.611   4.525   9.329  1.7901 -0.4823  0.3946
16335SOL     OW51446   8.005   0.783   7.045  0.1000  0.0132 -0.2020
16335SOL    HW151447   7.991   0.705   7.099  1.0237  0.2920  0.4523
16335SOL    HW251448   7.917   0.818   7.032 -0.1768 -0.2575  0.8169
16336SOL     OW51449   4.121   6.363   0.754 -0.3220 -0.0591  0.0178
16336SOL    HW151450   4.149   6.328   0.839 -2.1499  1.4163  1.3143
16336SOL    HW251451   4.107   6.285   0.699  0.5870 -1.0662  1.1538
16337SOL     OW51452   1.866   3.489   7.900  0.2017 -0.5520 -0.6379
16337SOL    HW151453   1.840   3.481   7.992 -0.6726 -0.7481 -0.8905
16337SOL    HW251454   1.794   3.449   7.851  1.0807 -1.2827 -1.3703
16338SOL     OW51455   6.350   3.767   4.909 -0.4541 -0.8313 -0.1697
16338SOL    HW151456   6.312   3.750   4.823  0.4286  0.3082 -0.8110
16338SOL    HW251457   6.330   3.688   4.960 -2.6497 -0.7545 -0.7966
16339SOL     OW51458  10.180   7.075   5.312  0.3242  0.1682  0.5915
16339SOL    HW151459  10.145   7.140   5.373 -2.1336  0.7156 -1.2512
16339SOL    HW251460  10.105   7.019   5.291  0.4678  1.1450 -3.2941
16340SOL     OW51461   5.332   6.566   3.160 -0.0015 -0.0390  0.4394
16340SOL    HW151462   5.375   6.558   3.075  1.2175 -2.4433  1.2244
16340SOL    HW251463   5.393   6.617   3.214  0.1769 -0.2978  0.4810
16341SOL     OW51464   5.936   4.090  10.422 -0.0706 -0.2623 -0.5447
16341SOL    HW151465   6.011   4.055  10.471 -0.5679 -0.8966 -0.2242
16341SOL    HW251466   5.876   4.016  10.414  0.8934 -0.8353 -4.0095
16342SOL     OW51467   5.867   3.795   3.393  0.5778 -0.1897  1.0780
16342SOL    HW151468   5.925   3.722   3.413  1.1478  0.6739  2.8591
16342SOL    HW251469   5.833   3.777   3.306 -0.6338 -3.4261  2.0964
16343SOL     OW51470   5.300   2.239   5.159 -0.7007  0.8834  0.2369
16343SOL    HW151471   5.227   2.178   5.168  0.7812 -0.9369  0.3993
16343SOL    HW251472   5.323   2.236   5.066  0.7030 -0.4547  0.5994
16344SOL     OW51473   0.196   5.335   1.480  0.1139  0.4519  0.4014
16344SOL    HW151474   0.246   5.416   1.490 -0.2246  0.4722  2.3517
16344SOL    HW251475   0.262   5.268   1.465  0.4474  0.9749 -0.5315
16345SOL     OW51476   5.525   9.806   9.513  0.1112 -0.0058  0.3975
16345SOL    HW151477   5.513   9.730   9.456 -0.1280  2.4209 -3.1603
16345SOL    HW251478   5.450   9.804   9.572 -0.7304 -1.7121 -0.6353
16346SOL     OW51479   6.553   7.397   8.958  0.0419  0.0505  0.1156
16346SOL    HW151480   6.637   7.352   8.963  0.3963  0.7765  0.7923
16346SOL    HW251481   6.564   7.475   9.011  0.3716  2.4333 -3.1148
16347SOL     OW51482   7.260   9.527   4.745  0.4693  0.2789 -0.4378
16347SOL    HW151483   7.342   9.541   4.793 -1.1375 -1.7091  3.3118
16347SOL    HW251484   7.213   9.610   4.754 -0.1235 -0.2418  2.4417
16348SOL     OW51485   4.809   6.142   8.087 -0.0327 -0.0318  0.1959
16348SOL    HW151486   4.835   6.234   8.089 -0.1239  0.0471 -1.0831
16348SOL    HW251487   4.892   6.094   8.079 -0.0383  0.0014 -0.0819
16349SOL     OW51488   5.543   7.707   5.262 -0.3597  0.2348 -0.0060
16349SOL    HW151489   5.555   7.733   5.353  0.1596  0.4164 -0.1202
16349SOL    HW251490   5.515   7.616   5.266  1.6227 -0.4179  0.2915
16350SOL     OW51491   0.455   7.261   3.719 -0.7316 -0.4752  0.0620
16350SOL    HW151492   0.517   7.256   3.646 -0.5992  0.0745  0.1305
16350SOL    HW251493   0.370   7.278   3.677 -0.4466  1.1687  0.0964
16351SOL     OW51494   4.907   4.523   6.491 -0.4704 -0.1150 -0.0316
16351SOL    HW151495   4.852   4.594   6.523 -0.3631  0.5153 -1.1944
16351SOL    HW251496   4.979   4.518   6.554  1.8112  3.6156 -1.9868
16352SOL     OW51497   0.222   2.488   4.209 -0.7627  1.1303  0.5472
16352SOL    HW151498   0.297   2.433   4.231  0.9849  3.0731 -0.2299
16352SOL    HW251499   0.166   2.484   4.286 -0.5447 -1.3961  0.6515
16353SOL     OW51500   0.324   7.592   1.591 -0.1423  0.6968 -0.1378
16353SOL    HW151501   0.276   7.610   1.511 -0.4103  2.6784  0.4338
16353SOL    HW251502   0.267   7.533   1.641  0.2315 -0.9498 -1.5460
16354SOL     OW51503   1.950   9.849   8.222 -0.4316 -0.0688  0.4749
16354SOL    HW151504   1.960   9.921   8.160  1.7953 -0.7507 -0.0600
16354SOL    HW251505   1.996   9.776   8.181 -2.0097 -1.6170  1.3271
16355SOL     OW51506   4.845   8.799   4.829  0.1308 -0.4681  1.0498
16355SOL    HW151507   4.763   8.776   4.784  0.4403  0.9722 -0.3422
16355SOL    HW251508   4.912   8.749   4.783  0.2580 -0.1802  0.9197
16356SOL     OW51509   8.419   3.296   5.563 -0.2984  0.5482  0.3042
16356SOL    HW151510   8.509   3.307   5.531 -0.7238 -0.2559 -1.2800
16356SOL    HW251511   8.365   3.338   5.497 -1.3251 -2.6445 -1.1171
16357SOL     OW51512  10.046   2.249   6.835 -0.1296 -0.9688  0.2480
16357SOL    HW151513  10.038   2.343   6.853  2.2361 -0.5184 -0.7706
16357SOL    HW251514  10.110   2.218   6.900  0.3394 -1.5194 -0.4649
16358SOL     OW51515   5.627   0.635   2.749 -0.2820  0.6747 -0.0067
16358SOL    HW151516   5.578   0.626   2.830  0.2263 -1.3740  0.1210
16358SOL    HW251517   5.610   0.554   2.701  1.6260  0.6061 -0.6749
16359SOL     OW51518   7.507   3.023   1.346 -0.8468  0.0009  0.2726
16359SOL    HW151519   7.535   3.103   1.302  0.0419 -0.5582 -0.2128
16359SOL    HW251520   7.489   2.962   1.275 -1.5732 -0.2171  0.6385
16360SOL     OW51521   4.215   3.678   4.632 -0.5674 -0.1726  1.0899
16360SOL    HW151522   4.310   3.680   4.618 -0.3751 -2.7635  1.4911
16360SOL    HW251523   4.182   3.755   4.587  1.6081  0.1012 -0.1505
16361SOL     OW51524   4.276   6.278   0.979 -0.0464  0.2340 -0.4945
16361SOL    HW151525   4.310   6.363   1.008 -0.4771  0.8785 -1.8024
16361SOL    HW251526   4.247   6.236   1.060 -1.4956  2.0810  0.0302
16362SOL     OW51527   6.962   1.285   8.237  0.5265 -0.1185  0.8555
16362SOL    HW151528   6.983   1.241   8.155 -1.4538 -0.2718  0.3819
16362SOL    HW251529   6.867   1.278   8.245  0.4758  1.4207  2.2980
16363SOL     OW51530   2.633   9.310   5.215 -0.2738 -0.4059 -0.2877
16363SOL    HW151531   2.558   9.254   5.234 -1.4320  1.2182  0.2035
16363SOL    HW251532   2.594   9.394   5.189  1.3288  1.1012  1.7772
16364SOL     OW51533   7.933   3.387   8.518  0.4123  0.1379 -0.0462
16364SOL    HW151534   7.995   3.459   8.506 -1.0029  1.3888 -0.0705
16364SOL    HW251535   7.975   3.313   8.474  2.2315  0.7234  0.5890
16365SOL     OW51536   8.486   2.418   0.561 -0.0536  0.1515  0.7342
16365SOL    HW151537   8.522   2.345   0.612  0.6098 -0.9411 -1.2046
16365SOL    HW251538   8.471   2.487   0.626  1.8719 -0.7440  2.2493
16366SOL     OW51539   4.775   8.935   5.775  0.1069  0.3225 -0.0290
16366SOL    HW151540   4.786   8.987   5.695  0.0623  0.3076 -0.0442
16366SOL    HW251541   4.681   8.919   5.781  0.0502  0.7555  0.2998
16367SOL     OW51542   9.205   5.754   7.336  0.3145  0.0697 -0.0541
16367SOL    HW151543   9.176   5.746   7.427  0.8160 -0.2768  0.0819
16367SOL    HW251544   9.281   5.811   7.339  1.0063 -0.8207 -0.0975
16368SOL     OW51545   8.679  10.278   9.433  0.3752 -0.4140  0.1145
16368SOL    HW151546   8.720  10.352   9.479 -0.2046  1.3333 -2.0153
16368SOL    HW251547   8.663  10.214   9.502  1.3529  1.2320  1.9972
16369SOL     OW51548   6.407   0.125   3.073 -0.2264  0.0492  0.6299
16369SOL    HW151549   6.395   0.215   3.044 -1.4200  0.0764  1.1161
16369SOL    HW251550   6.317   0.092   3.086  0.1756 -1.2759  0.2597
16370SOL     OW51551   4.838   9.879   8.652 -0.3684 -0.6447 -0.2543
16370SOL    HW151552   4.810   9.926   8.731  0.1683  1.6345 -1.3420
16370SOL    HW251553   4.770   9.897   8.588 -0.3479 -1.7244 -0.5965
16371SOL     OW51554   4.665   5.254   1.181  0.5417 -0.2571 -0.0946
16371SOL    HW151555   4.634   5.333   1.138  0.2476 -0.8156 -0.9372
16371SOL    HW251556   4.747   5.280   1.223  0.7181  0.3681 -0.8048
16372SOL     OW51557   8.435   6.085   3.449 -0.3134 -0.8267 -0.2136
16372SOL    HW151558   8.356   6.131   3.477 -0.4846 -0.5485 -1.1128
16372SOL    HW251559   8.444   6.013   3.511 -1.3169 -0.9026 -0.1420
16373SOL     OW51560   0.125   7.867   1.782 -0.3044  0.3915  0.1715
16373SOL    HW151561   0.106   7.954   1.817 -1.0255  0.7697 -1.1198
16373SOL    HW251562   0.073   7.807   1.836 -1.1519  0.9250 -0.0463
16374SOL     OW51563   2.689   9.619   1.099 -0.2994  0.4040  0.5313
16374SOL    HW151564   2.735   9.682   1.154  0.9724 -2.2164  2.7484
16374SOL    HW251565   2.756   9.554   1.076 -1.9175 -1.1788  0.0640
16375SOL     OW51566   3.018   7.221   2.732  0.1739 -0.4955 -0.1061
16375SOL    HW151567   2.923   7.232   2.736  0.0943 -1.3976  0.6854
16375SOL    HW251568   3.030   7.138   2.684  0.5760 -0.2432 -0.4497
16376SOL     OW51569   3.987   6.505   9.646  0.1163 -0.7466 -0.5607
16376SOL    HW151570   4.053   6.457   9.696  2.7265  2.1925 -0.8948
16376SOL    HW251571   3.936   6.551   9.712 -0.3089 -1.4648 -0.3831
16377SOL     OW51572   6.685   0.439   3.718  0.2259 -0.1859  0.5146
16377SOL    HW151573   6.698   0.466   3.627  2.3750 -2.3431  0.0885
16377SOL    HW251574   6.663   0.520   3.764  0.4438  1.1974 -1.6743
16378SOL     OW51575   0.431   3.487   5.594  0.0218 -0.1990 -0.5024
16378SOL    HW151576   0.487   3.435   5.652  1.1042  0.4614 -0.9060
16378SOL    HW251577   0.346   3.490   5.638  0.0148 -2.0178 -0.3137
16379SOL     OW51578   8.233   2.718   4.918 -0.0229 -0.8721  0.0885
16379SOL    HW151579   8.302   2.693   4.857 -0.8724 -0.0531 -1.2568
16379SOL    HW251580   8.161   2.747   4.862 -0.4851  0.8274  1.4825
16380SOL     OW51581   5.197   8.019   9.678 -0.4263 -0.6484 -0.3796
16380SOL    HW151582   5.284   8.051   9.655 -1.1671 -0.0566 -2.5764
16380SOL    HW251583   5.144   8.032   9.599 -2.3581 -1.5916  0.6718
16381SOL     OW51584   4.643   3.165   7.365 -0.2435  0.0412 -0.1002
16381SOL    HW151585   4.667   3.220   7.290 -0.1545  0.5920  0.3273
16381SOL    HW251586   4.725   3.124   7.392  0.2201  1.7284  1.2046
16382SOL     OW51587   3.214   6.549   2.436  0.0632 -0.1318  0.1976
16382SOL    HW151588   3.219   6.624   2.378  1.2375 -0.2546  0.1184
16382SOL    HW251589   3.145   6.571   2.498  1.4210  1.7339  1.1534
16383SOL     OW51590   7.550   0.520  10.212  0.0628 -0.5730 -0.0386
16383SOL    HW151591   7.511   0.474  10.286 -0.9829 -0.8802 -0.7563
16383SOL    HW251592   7.493   0.596  10.198 -0.0874 -0.8269 -0.8712
16384SOL     OW51593   4.890   8.130   9.663 -0.5148 -0.1437  0.2793
16384SOL    HW151594   4.840   8.131   9.582  1.8868 -1.2075 -1.3510
16384SOL    HW251595   4.915   8.039   9.675  2.7213  0.5330 -0.2350
16385SOL     OW51596   9.264   0.946   0.846  0.1526  0.2806  0.5046
16385SOL    HW151597   9.229   0.858   0.858 -1.2957  0.6119 -1.0038
16385SOL    HW251598   9.344   0.933   0.796  0.4770 -0.2306  1.1322
16386SOL     OW51599   0.821  10.302   6.021 -0.0922 -0.3997  0.1450
16386SOL    HW151600   0.804  10.284   5.928 -0.4231 -1.6659  0.4296
16386SOL    HW251601   0.828  10.397   6.026 -2.0576 -0.1583 -0.8480
16387SOL     OW51602   5.558   0.775   6.596 -0.0175 -0.0758 -0.1726
16387SOL    HW151603   5.607   0.786   6.515 -1.1655 -1.2191 -1.0556
16387SOL    HW251604   5.586   0.690   6.630  0.3588  0.3344  0.5902
16388SOL     OW51605   4.835   1.181   9.193 -0.0009 -0.1776  0.1406
16388SOL    HW151606   4.825   1.169   9.098 -1.3867  1.7014 -0.0082
16388SOL    HW251607   4.851   1.274   9.204 -0.0859 -0.3318  1.7780
16389SOL     OW51608   1.319   9.737   1.466 -0.4299  0.0747  0.1442
16389SOL    HW151609   1.296   9.741   1.559 -1.0497 -0.3402  0.0184
16389SOL    HW251610   1.371   9.657   1.457  1.1310  1.0151  0.4278
16390SOL     OW51611   4.082   2.290   6.124  0.0857  0.2937  0.5587
16390SOL    HW151612   4.071   2.265   6.032  2.3129 -2.5208  0.8844
16390SOL    HW251613   4.002   2.258   6.167 -1.7572  3.0984 -0.4819
16391SOL     OW51614   7.116   9.613   9.354 -0.4988  0.6436  0.2495
16391SOL    HW151615   7.129   9.708   9.359  1.0931  0.4484  0.4108
16391SOL    HW251616   7.125   9.593   9.260  0.0010  0.5568  0.3135
16392SOL     OW51617  10.413   5.550   8.822  0.5957  0.5229  0.7117
16392SOL    HW151618  10.436   5.564   8.730 -1.7104  1.8827  0.2516
16392SOL    HW251619  10.413   5.455   8.833  0.8526  0.3419 -0.7215
16393SOL     OW51620   6.766   6.791   1.684  0.3433 -0.2017  0.3973
16393SOL    HW151621   6.855   6.777   1.718  0.8297  0.6498 -0.4666
16393SOL    HW251622   6.731   6.862   1.738  0.8011  0.5582 -0.2602
16394SOL     OW51623   9.768   3.059   8.286 -0.1645 -0.5709  0.3612
16394SOL    HW151624   9.751   3.150   8.259  2.0025  0.8248  3.2038
16394SOL    HW251625   9.762   3.009   8.205 -0.6493  2.2090 -1.4779
16395SOL     OW51626   7.964   7.759   3.256  0.8650  0.0544 -0.2448
16395SOL    HW151627   7.923   7.733   3.339  0.8832  1.3110  0.1781
16395SOL    HW251628   7.896   7.807   3.209  0.6907 -1.0999 -1.2040
16396SOL     OW51629   0.482   3.827   0.244 -0.1229 -0.4996  0.2573
16396SOL    HW151630   0.493   3.855   0.335  0.9528 -2.4158  0.7795
16396SOL    HW251631   0.531   3.891   0.193  0.2646 -0.0687  1.1434
16397SOL     OW51632  10.096   4.243   8.789 -0.1222  0.2175 -0.2070
16397SOL    HW151633  10.151   4.166   8.803  0.6927  0.6693 -0.8412
16397SOL    HW251634  10.131   4.309   8.848 -0.9361  0.0644  0.4719
16398SOL     OW51635   7.235   8.625   8.449 -0.1278 -0.3619 -0.3963
16398SOL    HW151636   7.190   8.567   8.387 -0.6786 -0.7490  0.3504
16398SOL    HW251637   7.165   8.674   8.492  0.2775  0.2155 -0.3717
16399SOL     OW51638   6.963   6.904   3.529  0.0953 -0.0605 -0.0494
16399SOL    HW151639   6.976   6.986   3.481  0.1007  1.4128  2.3214
16399SOL    HW251640   6.875   6.875   3.502  1.1335 -0.8426 -2.9905
16400SOL     OW51641   6.728   2.853   6.463 -0.5672 -0.5695 -0.2047
16400SOL    HW151642   6.793   2.810   6.408 -1.9023 -1.0375 -1.4679
16400SOL    HW251643   6.692   2.783   6.517 -1.8777 -0.8572 -1.3997
16401SOL     OW51644   8.198   0.418   3.489  0.1192 -0.9798  0.1493
16401SOL    HW151645   8.108   0.439   3.513  0.6507  1.0060  0.6492
16401SOL    HW251646   8.221   0.485   3.424  1.2111 -1.4893 -0.0112
16402SOL     OW51647   7.614   9.884   3.862  0.3575  0.0190 -0.1181
16402SOL    HW151648   7.525   9.919   3.857  0.7869  1.0691 -0.8660
16402SOL    HW251649   7.605   9.790   3.846 -0.6977 -0.0262  0.6610
16403SOL     OW51650   5.471   2.418   2.255 -0.5064 -0.1026 -0.3605
16403SOL    HW151651   5.458   2.365   2.333  0.8534 -0.3275 -0.2559
16403SOL    HW251652   5.390   2.467   2.245 -0.8726 -0.4140  0.9236
16404SOL     OW51653   5.383   1.849   2.056 -0.4494  0.3621  0.3758
16404SOL    HW151654   5.334   1.897   1.989 -0.7594 -0.9232 -0.3592
16404SOL    HW251655   5.474   1.853   2.026 -0.5563 -0.0053 -0.0240
16405SOL     OW51656   9.470   1.987   6.431 -0.0773  0.3400  0.2791
16405SOL    HW151657   9.491   1.931   6.356 -0.2957  1.4455 -0.6333
16405SOL    HW251658   9.501   1.938   6.507 -0.0008 -0.8866 -0.5131
16406SOL     OW51659   4.820   5.488   5.739  0.3173 -0.3164 -0.1177
16406SOL    HW151660   4.741   5.521   5.783  0.3024  0.4403 -0.7037
16406SOL    HW251661   4.786   5.439   5.664  0.3824 -0.7279  0.1169
16407SOL     OW51662   5.127   8.364   4.999 -0.2369 -0.3647  0.7196
16407SOL    HW151663   5.083   8.285   5.032 -2.0592 -0.2450 -1.2244
16407SOL    HW251664   5.056   8.425   4.979  1.0387  1.1188  0.4953
16408SOL     OW51665   9.887   8.988   3.304  0.3536 -0.3143  0.3038
16408SOL    HW151666   9.897   8.958   3.394  1.5338 -0.3477  0.1877
16408SOL    HW251667   9.812   8.940   3.270 -0.1506 -0.2413  1.2895
16409SOL     OW51668   1.281   5.733  10.088  0.3158  0.0764 -0.1483
16409SOL    HW151669   1.350   5.794  10.116  2.1351 -1.5654 -0.8910
16409SOL    HW251670   1.260   5.759   9.999  0.9953 -0.2769 -0.4172
16410SOL     OW51671   6.272   4.692   4.498 -0.6085 -0.0813 -0.4520
16410SOL    HW151672   6.367   4.686   4.499 -0.3414  2.7671 -0.7179
16410SOL    HW251673   6.248   4.694   4.405 -0.9999 -0.9717 -0.3921
16411SOL     OW51674   5.386   1.500   4.822  0.4359 -0.3731 -0.1447
16411SOL    HW151675   5.345   1.428   4.774 -1.0248 -0.3722  1.0421
16411SOL    HW251676   5.479   1.477   4.825  0.2045 -1.5004 -0.9791
16412SOL     OW51677   1.966   6.035   6.412  0.1157  0.0671 -0.4638
16412SOL    HW151678   1.900   5.966   6.415 -0.3202  0.5083  1.0906
16412SOL    HW251679   1.953   6.077   6.326 -0.3466 -1.0541 -0.9596
16413SOL     OW51680   8.378   2.161   4.140  0.1979  0.4556 -0.0714
16413SOL    HW151681   8.290   2.134   4.117  0.3165  1.0984 -1.3767
16413SOL    HW251682   8.387   2.248   4.102  1.0368  0.8491  0.9693
16414SOL     OW51683   4.153   2.204   9.757  0.2583  0.0704  0.4912
16414SOL    HW151684   4.113   2.118   9.745  0.0823  0.2901 -0.6494
16414SOL    HW251685   4.190   2.202   9.845 -0.0906 -1.0269  0.6221
16415SOL     OW51686   6.895  10.428   9.578 -0.0330  0.5080 -0.1117
16415SOL    HW151687   6.877  10.445   9.486 -0.2644  0.3181 -0.0999
16415SOL    HW251688   6.962  10.359   9.577  1.3661  1.8105 -0.1747
16416SOL     OW51689   0.240   4.413   0.936 -0.3400  0.1340 -0.1925
16416SOL    HW151690   0.172   4.449   0.993 -0.0922  1.0058 -0.4321
16416SOL    HW251691   0.234   4.465   0.856  1.4292  1.0851  0.2543
16417SOL     OW51692   4.185   1.306   0.069 -0.5476  0.1778 -0.1071
16417SOL    HW151693   4.215   1.217   0.053  0.8412  0.6567 -0.2655
16417SOL    HW251694   4.119   1.297   0.138  0.0009 -0.9090  0.3009
16418SOL     OW51695   6.446  10.419   1.793  0.1934  0.1251  0.1542
16418SOL    HW151696   6.432  10.498   1.844 -0.2945  0.3476 -0.3126
16418SOL    HW251697   6.405  10.437   1.709  1.7520  0.1017 -0.6466
16419SOL     OW51698   1.348   3.356   4.183  0.1508 -0.0957  0.1999
16419SOL    HW151699   1.340   3.430   4.123 -2.2080 -1.8171 -1.7714
16419SOL    HW251700   1.286   3.375   4.253  0.0487  0.1137  0.0536
16420SOL     OW51701   5.465   9.948   8.647 -0.2715  0.2069  0.1801
16420SOL    HW151702   5.438  10.025   8.597 -0.6778 -0.6789 -1.0039
16420SOL    HW251703   5.560   9.944   8.636 -0.2298  0.6149  0.3711
16421SOL     OW51704   7.761   4.306   5.798 -0.0668  0.5277  0.2550
16421SOL    HW151705   7.799   4.378   5.747 -0.9668  1.3308  0.6810
16421SOL    HW251706   7.836   4.253   5.825  0.5313  0.7851 -0.8384
16422SOL     OW51707   5.665   5.893   9.786  0.1460 -0.3296 -0.2785
16422SOL    HW151708   5.743   5.857   9.744  0.6203 -1.2422  1.3086
16422SOL    HW251709   5.696   5.922   9.872 -0.7814  1.5128 -0.5233
16423SOL     OW51710   0.620   1.531   4.888  0.2362 -0.1853 -0.1172
16423SOL    HW151711   0.636   1.523   4.794  0.8570  0.7079 -0.0979
16423SOL    HW251712   0.703   1.563   4.923  1.0722 -3.4136  1.1903
16424SOL     OW51713   6.839   7.799   8.478 -0.4799  0.4949  0.2024
16424SOL    HW151714   6.923   7.754   8.472  1.3665  3.7250 -1.0313
16424SOL    HW251715   6.790   7.768   8.401 -0.5986 -1.5773  1.0513
16425SOL     OW51716   1.272   9.996  10.432  0.1637 -0.4640 -0.2323
16425SOL    HW151717   1.350  10.043  10.404 -0.8857  1.5342  0.0061
16425SOL    HW251718   1.279   9.991  10.527  0.1355 -0.5379 -0.2336
16426SOL     OW51719   2.351  10.415   8.258  0.2091 -0.1184 -0.1826
16426SOL    HW151720   2.417  10.452   8.316 -1.6336 -0.2695  2.1516
16426SOL    HW251721   2.397  10.346   8.210  1.0852 -2.8043  3.9780
16427SOL     OW51722   4.465   3.800   2.831 -0.3746  0.0974  0.3158
16427SOL    HW151723   4.462   3.704   2.831  0.5734  0.0321  1.9732
16427SOL    HW251724   4.374   3.827   2.845 -0.8433 -0.4890 -1.2967
16428SOL     OW51725   3.740  10.232   5.004  0.1366 -0.2364 -0.0470
16428SOL    HW151726   3.805  10.212   5.071 -0.7141 -0.7625  0.6427
16428SOL    HW251727   3.659  10.245   5.052 -0.1383  1.1234 -0.8317
16429SOL     OW51728   1.819   3.652   0.120 -0.2466 -0.0072  0.1350
16429SOL    HW151729   1.769   3.664   0.201 -3.0482  0.2070 -1.5199
16429SOL    HW251730   1.835   3.741   0.088 -0.5115 -0.1274 -0.3311
16430SOL     OW51731   2.153   4.135   5.941  0.0505 -0.3088  0.1733
16430SOL    HW151732   2.209   4.210   5.959  0.5803 -0.3445 -1.2162
16430SOL    HW251733   2.076   4.173   5.898  0.3154 -0.5531 -0.5231
16431SOL     OW51734   1.734   0.736   5.415 -0.5480  0.0143 -0.4813
16431SOL    HW151735   1.717   0.712   5.506  0.4747 -0.0453 -0.2932
16431SOL    HW251736   1.764   0.826   5.419 -0.7743  0.1059 -0.7949
16432SOL     OW51737   9.076   9.901   4.501  0.5378  0.5381 -0.2795
16432SOL    HW151738   9.018   9.971   4.471 -2.0610 -1.6455 -0.6390
16432SOL    HW251739   9.130   9.880   4.424  1.4485  2.1195 -0.1338
16433SOL     OW51740   0.754   1.583   2.460  0.3952 -0.3897 -0.5413
16433SOL    HW151741   0.849   1.578   2.461  0.4121 -0.1166 -0.5336
16433SOL    HW251742   0.732   1.641   2.533  0.2620  0.0418 -0.9121
16434SOL     OW51743   4.654   5.839   3.708  0.9066 -0.8831  0.1100
16434SOL    HW151744   4.741   5.799   3.705  0.8401 -1.0319  0.1433
16434SOL    HW251745   4.633   5.844   3.802  0.5731 -1.5229  0.0756
16435SOL     OW51746   3.374   4.905   9.001 -0.1693 -0.8411 -0.1920
16435SOL    HW151747   3.376   4.999   8.984  0.8663 -0.0308  3.6099
16435SOL    HW251748   3.283   4.880   8.982 -1.0817  1.4220  0.8619
16436SOL     OW51749   6.588   4.097   7.098  0.0649  0.0071  0.2977
16436SOL    HW151750   6.643   4.172   7.078  1.5593 -1.0024  0.3996
16436SOL    HW251751   6.506   4.134   7.129  1.2276  1.6321  1.6363
16437SOL     OW51752   7.075   3.120   5.499 -0.1912  0.6385  0.0658
16437SOL    HW151753   7.147   3.103   5.438 -0.9137  0.1541 -0.6755
16437SOL    HW251754   7.069   3.216   5.503  2.2634  0.8248  2.3011
16438SOL     OW51755   9.626   2.008   1.336  0.6847  0.4173 -0.5588
16438SOL    HW151756   9.691   2.034   1.401 -1.6645  0.8582  1.7538
16438SOL    HW251757   9.627   1.913   1.338 -0.0874  0.4159  0.9544
16439SOL     OW51758   6.345   9.753   1.391  0.2379  0.7570 -0.6426
16439SOL    HW151759   6.382   9.774   1.476 -0.5314 -1.5864  0.3393
16439SOL    HW251760   6.279   9.821   1.376  2.1815  2.7352 -0.6629
16440SOL     OW51761   6.637   8.213   8.496 -0.4674 -0.1611 -0.3872
16440SOL    HW151762   6.596   8.255   8.421  1.0669  0.0800 -1.1339
16440SOL    HW251763   6.713   8.167   8.460 -0.5590 -1.3293  0.8052
16441SOL     OW51764   1.233   0.545   3.671  0.1556  0.1054 -0.3412
16441SOL    HW151765   1.245   0.590   3.587 -0.6821  2.4060  0.6880
16441SOL    HW251766   1.209   0.455   3.647  0.7054  0.4762 -2.5238
16442SOL     OW51767   5.783   5.071   1.965  0.3866 -0.1257  0.4336
16442SOL    HW151768   5.792   5.161   1.933 -0.9820  0.9740  2.8911
16442SOL    HW251769   5.869   5.049   1.999  2.0110 -1.4664 -3.9063
16443SOL     OW51770   4.720   2.187   6.003  0.1652  0.1009 -0.1113
16443SOL    HW151771   4.627   2.163   6.008 -0.3658  0.8107 -3.6817
16443SOL    HW251772   4.722   2.279   6.031 -0.1483 -0.0138  0.2971
16444SOL     OW51773   0.458   5.990   3.214  0.1137  0.1024  0.2032
16444SOL    HW151774   0.488   6.030   3.133  3.6106 -1.1434  0.7039
16444SOL    HW251775   0.524   5.924   3.234 -2.2527 -1.8052  2.4820
16445SOL     OW51776  10.215   4.505   8.193  0.1865  0.3145 -0.2610
16445SOL    HW151777  10.213   4.438   8.125 -0.9539  0.3164 -0.2407
16445SOL    HW251778  10.300   4.548   8.181  0.3389 -0.2080 -1.1627
16446SOL     OW51779   4.519   6.257   7.284  0.0908 -0.2722  0.0190
16446SOL    HW151780   4.548   6.289   7.369  1.6680  1.1582 -0.9938
16446SOL    HW251781   4.591   6.200   7.254  0.4510  0.7447 -1.1435
16447SOL     OW51782   4.252   8.617   5.360 -0.1265  0.1905  0.4374
16447SOL    HW151783   4.325   8.619   5.422  0.6538 -0.3472 -0.4365
16447SOL    HW251784   4.228   8.524   5.354  0.7370  0.0429 -1.1073
16448SOL     OW51785   3.574   2.204   6.503  0.6725 -0.4396  0.1418
16448SOL    HW151786   3.596   2.119   6.466 -1.4190 -0.5738 -0.9356
16448SOL    HW251787   3.556   2.260   6.427  0.9597  0.6778  0.8617
16449SOL     OW51788   6.597   6.801   9.071 -0.7103 -0.3495  0.2126
16449SOL    HW151789   6.646   6.842   9.141  1.0984 -0.5452 -0.8838
16449SOL    HW251790   6.603   6.862   8.998  1.3286 -2.0917 -1.1844
16450SOL     OW51791   0.882   1.401   6.749 -0.2807 -0.5988  0.2619
16450SOL    HW151792   0.917   1.341   6.814  2.6063 -0.5166 -1.0619
16450SOL    HW251793   0.887   1.487   6.790  0.0989 -0.7157  0.4599
16451SOL     OW51794   0.815   5.962   8.725  0.2296  0.8708  0.1217
16451SOL    HW151795   0.814   5.867   8.716 -0.6291  0.9064 -0.2528
16451SOL    HW251796   0.847   5.994   8.640  0.4427  0.9201  0.2199
16452SOL     OW51797   9.612   8.973   7.925  0.3487 -0.5407 -0.0732
16452SOL    HW151798   9.526   8.932   7.935  0.3893 -0.7284 -0.4481
16452SOL    HW251799   9.663   8.908   7.876 -0.4772  1.0815 -3.3852
16453SOL     OW51800   2.613   4.488   1.330  0.4436  0.4527  0.4683
16453SOL    HW151801   2.573   4.543   1.263  0.5374  0.0135  0.0428
16453SOL    HW251802   2.707   4.492   1.313  0.2964 -2.6159 -1.8440
16454SOL     OW51803   0.193  10.119   2.676 -0.4568 -0.0932  0.6161
16454SOL    HW151804   0.200  10.062   2.753 -1.6306  1.0417  1.6080
16454SOL    HW251805   0.253  10.191   2.695 -0.5113  0.0277  0.3244
16455SOL     OW51806   7.359   6.072   8.680  0.0353  0.3607  0.3093
16455SOL    HW151807   7.311   6.038   8.604  1.0602  0.3345 -0.3486
16455SOL    HW251808   7.335   6.165   8.683 -1.4568 -0.0141  1.0989
16456SOL     OW51809   1.543   5.301   8.344 -0.1602 -0.2219  0.3955
16456SOL    HW151810   1.556   5.391   8.315 -1.4850  0.2406  1.1481
16456SOL    HW251811   1.561   5.248   8.267  1.7745  0.5817  0.2405
16457SOL     OW51812   5.001  10.151   8.700  0.3864 -0.1038 -0.5702
16457SOL    HW151813   4.990  10.238   8.661  0.6914 -0.2184 -0.9141
16457SOL    HW251814   5.093  10.131   8.689  0.2829 -0.5482 -0.6457
16458SOL     OW51815   9.846   2.673   3.163  0.2626  0.0621  0.2697
16458SOL    HW151816   9.922   2.698   3.111 -0.2157 -1.5376 -1.3167
16458SOL    HW251817   9.777   2.733   3.134  0.1652 -0.4146 -0.5092
16459SOL     OW51818   3.114   6.423   3.230  0.1052  0.0695 -0.3804
16459SOL    HW151819   3.057   6.363   3.278  0.7614  0.5001  1.0035
16459SOL    HW251820   3.054   6.485   3.188 -0.5889 -1.5245 -1.8909
16460SOL     OW51821   0.145   4.540   4.540 -0.4531 -0.0773  0.3155
16460SOL    HW151822   0.117   4.509   4.454 -0.6237  0.3533  0.2138
16460SOL    HW251823   0.181   4.627   4.524 -1.0070  0.2440  0.7587
16461SOL     OW51824   5.624   7.532   6.862  0.1833 -0.1797  0.0040
16461SOL    HW151825   5.620   7.573   6.948  2.4276  0.4777 -0.1528
16461SOL    HW251826   5.533   7.533   6.831 -0.1057  3.6933  0.4600
16462SOL     OW51827   6.339   9.516   3.986 -0.7373 -0.5735 -0.0609
16462SOL    HW151828   6.397   9.587   3.961  0.0062 -0.8596  0.7970
16462SOL    HW251829   6.324   9.468   3.905 -0.5828  0.0755 -0.4858
16463SOL     OW51830   6.323   7.153   6.280  0.1111 -0.0041  0.4857
16463SOL    HW151831   6.283   7.120   6.200 -1.4005  0.8138  0.8710
16463SOL    HW251832   6.307   7.247   6.279  0.2773  0.0568  1.6320
16464SOL     OW51833   3.155   6.312   9.955 -0.8536  0.1363 -0.4167
16464SOL    HW151834   3.184   6.259  10.030  0.9125  0.5606 -0.7510
16464SOL    HW251835   3.123   6.393   9.995  0.6086  0.5980 -0.0860
16465SOL     OW51836   8.629   6.140   3.723 -0.2258 -0.3813 -0.5020
16465SOL    HW151837   8.672   6.188   3.652 -0.1340  0.0204 -0.1792
16465SOL    HW251838   8.591   6.063   3.680 -0.7912  0.2216 -1.1238
16466SOL     OW51839   4.009   8.169   0.328  0.0438 -0.2367  0.0713
16466SOL    HW151840   4.012   8.161   0.424  0.0845 -2.1705 -0.0512
16466SOL    HW251841   3.917   8.186   0.308 -1.0067 -4.4894  0.2850
16467SOL     OW51842   0.952   9.203   2.159  0.3820  0.2329  0.8376
16467SOL    HW151843   0.928   9.155   2.079 -1.5004  0.3845  1.2577
16467SOL    HW251844   1.047   9.210   2.155  0.4442 -0.8947 -0.7432
16468SOL     OW51845   9.214   3.445   5.354  0.2891  0.0573 -0.3135
16468SOL    HW151846   9.272   3.513   5.320  1.4947 -0.0135  1.4898
16468SOL    HW251847   9.205   3.465   5.447 -1.8961 -0.4558 -0.3564
16469SOL     OW51848  10.099   9.328   8.245 -0.4598 -0.4388  0.1553
16469SOL    HW151849  10.058   9.413   8.263  0.5153 -0.1330  1.0020
16469SOL    HW251850  10.172   9.323   8.307  1.7306 -0.3240 -2.2349
16470SOL     OW51851   1.422   9.961   3.825 -0.1201  0.7991  0.2146
16470SOL    HW151852   1.353  10.002   3.877  0.0266  3.5379 -1.5250
16470SOL    HW251853   1.491   9.940   3.889 -1.3585  0.6904  1.5682
16471SOL     OW51854   0.189   0.296   3.822 -0.0737 -0.0315 -0.0671
16471SOL    HW151855   0.149   0.357   3.884 -1.3442  0.3903 -1.2297
16471SOL    HW251856   0.279   0.327   3.812 -0.7882  1.9635 -0.9327
16472SOL     OW51857   4.498   3.542   2.853  0.2663  0.2323 -0.3397
16472SOL    HW151858   4.520   3.532   2.946 -2.6107 -1.2694  0.2746
16472SOL    HW251859   4.560   3.484   2.808  0.2380 -0.8061  0.8893
16473SOL     OW51860   5.580   4.587   8.986 -0.2265 -0.2604 -0.0839
16473SOL    HW151861   5.532   4.595   8.904 -1.0758  0.1529  0.4425
16473SOL    HW251862   5.662   4.544   8.962 -0.0529  0.7157 -1.2927
16474SOL     OW51863   8.563   3.298   6.133 -0.4328  0.4349 -0.4351
16474SOL    HW151864   8.578   3.314   6.226 -0.8625  0.7339 -0.4164
16474SOL    HW251865   8.643   3.329   6.090 -0.2634  0.3592 -0.1752
16475SOL     OW51866  10.174   0.198   9.994  0.5215 -0.3544 -0.1868
16475SOL    HW151867  10.142   0.138   9.927  1.1815 -1.1054  0.1602
16475SOL    HW251868  10.095   0.239  10.029  0.1883  0.3030 -1.6448
16476SOL     OW51869   7.776   7.809   7.648  0.7457  0.1733 -0.3080
16476SOL    HW151870   7.792   7.728   7.695 -0.1446 -0.3383 -0.8713
16476SOL    HW251871   7.850   7.866   7.672  2.0044 -1.1940 -0.8355
16477SOL     OW51872   4.057   9.117  10.083 -0.2391  0.0668 -0.2412
16477SOL    HW151873   4.112   9.042  10.061 -1.5852 -1.2306  0.6725
16477SOL    HW251874   3.978   9.106  10.029 -0.9143  0.2044  0.6936
16478SOL     OW51875   3.001   1.470  10.075 -0.7857  0.3068 -0.1133
16478SOL    HW151876   2.967   1.494  10.162  0.6857  2.0898  0.0428
16478SOL    HW251877   2.996   1.375  10.073 -0.7869  0.2066  1.9763
16479SOL     OW51878   0.063   3.541   4.543 -1.0714  0.2381  0.0587
16479SOL    HW151879  -0.021   3.523   4.586 -0.9924  0.5675  0.3546
16479SOL    HW251880   0.129   3.527   4.611 -0.7797 -1.1592 -0.4758
16480SOL     OW51881   2.979   2.572   3.701 -0.3262  0.2270  0.1011
16480SOL    HW151882   3.061   2.619   3.682 -0.0077  0.0251  0.9396
16480SOL    HW251883   2.991   2.538   3.790 -1.0792 -0.3288 -0.0014
16481SOL     OW51884   9.207   9.953   8.532  0.7799  0.5266 -0.0824
16481SOL    HW151885   9.120   9.938   8.494  0.4175 -0.3512  1.0171
16481SOL    HW251886   9.266   9.898   8.481  0.4514  0.0661  0.0251
16482SOL     OW51887   6.595   6.254   3.924  0.0555 -0.1425  0.2300
16482SOL    HW151888   6.599   6.176   3.868  0.2696  1.0620 -1.5006
16482SOL    HW251889   6.560   6.323   3.868  0.2221  1.1146  1.6054
16483SOL     OW51890   9.532   6.665   7.760 -0.5526  0.1443  0.1506
16483SOL    HW151891   9.496   6.577   7.756  0.0500 -0.1140  0.3158
16483SOL    HW251892   9.580   6.675   7.678 -1.6830  0.7955 -0.4502
16484SOL     OW51893   6.094   3.443   3.894  0.0875 -0.4093 -0.0209
16484SOL    HW151894   6.020   3.503   3.888 -1.2334 -2.0101 -0.6538
16484SOL    HW251895   6.154   3.471   3.825  0.1529  0.9850  0.5809
16485SOL     OW51896   5.500   0.475   2.568 -0.7946  0.0163 -0.0731
16485SOL    HW151897   5.425   0.420   2.546 -1.3618  0.9142 -0.4391
16485SOL    HW251898   5.477   0.561   2.534  0.9585  0.0269 -1.3936
16486SOL     OW51899   4.103   0.440   8.424  0.0751  0.3671 -0.1154
16486SOL    HW151900   4.075   0.531   8.419  1.2704  0.8372  1.1203
16486SOL    HW251901   4.085   0.404   8.337 -0.0687  1.8860 -0.7385
16487SOL     OW51902   1.377   2.803   1.581  0.2711 -0.1335 -0.2919
16487SOL    HW151903   1.421   2.823   1.498  0.1417 -0.2981 -0.4020
16487SOL    HW251904   1.443   2.759   1.634 -0.2743 -2.1391 -1.1690
16488SOL     OW51905   7.259   0.026   4.080  0.3387  0.4513  0.4042
16488SOL    HW151906   7.287   0.118   4.087  0.8118  0.2904  0.7001
16488SOL    HW251907   7.309  -0.009   4.007  0.0660  0.4617  0.2132
16489SOL     OW51908   1.837   4.932   9.242 -0.0961  0.3498  0.2876
16489SOL    HW151909   1.805   4.957   9.156  1.8717  2.0346 -0.0158
16489SOL    HW251910   1.913   4.987   9.257  0.3697 -0.7841  2.5874
16490SOL     OW51911   5.571   3.242   5.617  0.0490  0.5610 -0.6659
16490SOL    HW151912   5.630   3.249   5.692 -0.5133  0.2143 -0.1904
16490SOL    HW251913   5.565   3.148   5.600  0.2493  0.6429 -1.2123
16491SOL     OW51914   2.364   9.951   5.360  0.2216 -0.1267 -0.6012
16491SOL    HW151915   2.391   9.866   5.397  0.6691 -1.0044 -2.8165
16491SOL    HW251916   2.415   9.959   5.279 -1.8878  0.9170 -1.8905
16492SOL     OW51917  10.348   9.637   2.190 -0.0277 -0.0251  0.0234
16492SOL    HW151918  10.435   9.677   2.199  0.3032 -0.6926 -0.1496
16492SOL    HW251919  10.304   9.657   2.273 -0.0064  1.0049 -0.2007
16493SOL     OW51920   0.392  10.294   7.705  0.2346 -0.0819 -0.6888
16493SOL    HW151921   0.446  10.319   7.779  0.4519 -1.8208 -0.2195
16493SOL    HW251922   0.435  10.218   7.667 -1.2315 -0.8014 -1.0162
16494SOL     OW51923   5.181   5.682   8.661  0.0296  0.0323 -0.1653
16494SOL    HW151924   5.091   5.688   8.691 -0.2307 -0.4872 -0.8035
16494SOL    HW251925   5.182   5.729   8.577  0.2918 -0.1635 -0.2769
16495SOL     OW51926   1.467   3.780   1.612 -0.2639  0.2838 -0.2001
16495SOL    HW151927   1.373   3.787   1.624 -0.1800 -2.5917  4.1530
16495SOL    HW251928   1.502   3.865   1.642 -1.3638  0.4018  0.8028
16496SOL     OW51929   9.660   4.424   1.611 -0.1606 -0.2861  0.3447
16496SOL    HW151930   9.743   4.469   1.594 -0.8511  0.6192 -0.8725
16496SOL    HW251931   9.666   4.343   1.560 -0.4871  0.3699 -0.7848
16497SOL     OW51932   9.818   3.531   7.674 -0.3773  0.1002 -0.3068
16497SOL    HW151933   9.830   3.441   7.646  0.7707  0.3179 -0.5574
16497SOL    HW251934   9.723   3.543   7.675 -0.6268 -1.5077  1.0681
16498SOL     OW51935   0.105   4.050   3.583  0.1412  0.1446  0.4633
16498SOL    HW151936   0.109   4.145   3.580 -0.0182  0.1559  0.5893
16498SOL    HW251937   0.196   4.022   3.573  0.0344  0.2571 -1.0774
16499SOL     OW51938   9.073   1.259   6.029  0.2233 -0.3667  0.6407
16499SOL    HW151939   9.166   1.276   6.012 -0.1568  0.3183 -0.9180
16499SOL    HW251940   9.039   1.342   6.062 -0.6005  0.6728 -2.4439
16500SOL     OW51941   5.122   3.434   9.582  0.3373  0.0889 -0.2084
16500SOL    HW151942   5.137   3.343   9.607 -0.5393  0.1918  0.7431
16500SOL    HW251943   5.184   3.485   9.634  0.6443  0.0614 -0.5439
16501SOL     OW51944   3.040   2.945   3.122 -0.2473  0.7825 -0.1216
16501SOL    HW151945   2.954   2.980   3.101 -1.2010 -0.6703  1.2013
16501SOL    HW251946   3.074   3.003   3.190  1.4904  3.5646 -3.0605
16502SOL     OW51947   4.807   9.170   6.204 -0.2640 -0.2675  0.0297
16502SOL    HW151948   4.872   9.101   6.208  0.3662  0.3242  0.3155
16502SOL    HW251949   4.751   9.148   6.130  0.3999 -0.6689 -0.3574
16503SOL     OW51950   0.464   3.412   3.436  0.0385  1.3044  0.7544
16503SOL    HW151951   0.523   3.418   3.512 -0.0236 -0.4955  0.9794
16503SOL    HW251952   0.383   3.376   3.472  0.4978 -1.0492 -0.3602
16504SOL     OW51953   5.854   6.776   1.176  0.1257 -0.3040 -0.3352
16504SOL    HW151954   5.790   6.752   1.243  0.1835 -1.6655 -0.7414
16504SOL    HW251955   5.932   6.802   1.227 -0.1277 -0.4337  0.1283
16505SOL     OW51956   6.376   0.511   7.864 -0.2238  0.0323 -0.0787
16505SOL    HW151957   6.408   0.421   7.856 -1.8158 -0.5210 -0.6498
16505SOL    HW251958   6.340   0.531   7.778  0.8900  1.5688 -0.2338
16506SOL     OW51959  10.328   2.568   2.548  0.5044  0.1846  0.0931
16506SOL    HW151960  10.253   2.516   2.521  1.1228  0.1217 -1.6281
16506SOL    HW251961  10.290   2.649   2.583 -0.3708 -0.0884 -0.2078
16507SOL     OW51962   5.988   5.493   5.771  0.5192  0.1770  0.7398
16507SOL    HW151963   5.940   5.538   5.701  0.9664 -0.4048  0.0368
16507SOL    HW251964   6.079   5.523   5.760  1.0908 -1.8545 -0.5916
16508SOL     OW51965  10.489  10.153   1.389 -0.1251 -0.1599  0.2148
16508SOL    HW151966  10.532  10.194   1.464 -0.9105 -2.5071  2.0997
16508SOL    HW251967  10.418  10.213   1.366  0.8297  1.1546  0.5838
16509SOL     OW51968   3.617   8.345   1.940 -0.2150 -0.0535 -0.5642
16509SOL    HW151969   3.707   8.367   1.913  0.1311  0.0573  0.6442
16509SOL    HW251970   3.575   8.429   1.954  0.7293 -0.0035  2.8044
16510SOL     OW51971   5.525   6.895   1.934  0.7911 -0.0241 -0.4511
16510SOL    HW151972   5.470   6.826   1.895  1.8083 -1.0079 -0.1987
16510SOL    HW251973   5.521   6.877   2.028  1.1468  0.2124 -0.3924
16511SOL     OW51974   0.655   3.233   3.292  0.1018  0.1483 -0.3956
16511SOL    HW151975   0.585   3.283   3.334 -0.9213 -0.8758 -0.8066
16511SOL    HW251976   0.646   3.145   3.327  0.7660 -0.1521 -0.9547
16512SOL     OW51977   0.242   4.898   6.879  0.1050  0.4246  0.1754
16512SOL    HW151978   0.262   4.978   6.929 -0.7457  1.2670 -0.8030
16512SOL    HW251979   0.310   4.894   6.812  0.4574  0.0183  0.5451
16513SOL     OW51980   9.937   9.832   7.806  0.1761  0.2839  0.0827
16513SOL    HW151981  10.019   9.810   7.850  1.1087 -3.0712 -2.7975
16513SOL    HW251982   9.954   9.916   7.763  1.1297  0.9243  1.6385
16514SOL     OW51983   6.178   9.027   2.272 -0.0094  0.4379 -0.6190
16514SOL    HW151984   6.096   8.987   2.301 -0.8889  2.5617  0.0282
16514SOL    HW251985   6.217   9.061   2.352  1.1601  0.0859 -1.0258
16515SOL     OW51986   6.090  10.209  10.065 -0.0022  0.0639  0.2226
16515SOL    HW151987   6.157  10.164  10.014 -0.4634 -1.0797  0.5900
16515SOL    HW251988   6.008  10.169  10.037 -0.6674  2.0449 -0.8624
16516SOL     OW51989   8.421   3.013   5.561 -0.1034 -0.2163  0.0467
16516SOL    HW151990   8.441   3.107   5.558 -0.2136 -0.1361  1.3108
16516SOL    HW251991   8.365   3.003   5.638 -2.2850 -0.9415 -1.5575
16517SOL     OW51992   1.974   9.869  10.263 -0.7001  0.1085  0.2214
16517SOL    HW151993   1.921   9.846  10.340 -2.0076 -0.6604 -0.8615
16517SOL    HW251994   1.974   9.789  10.210  1.6128  0.0787  0.1750
16518SOL     OW51995   4.801   3.870   2.013 -0.1888 -0.0850 -0.0024
16518SOL    HW151996   4.834   3.872   2.103  1.3945  2.2139 -0.5186
16518SOL    HW251997   4.734   3.938   2.010  0.0796  0.1683 -0.6241
16519SOL     OW51998   4.879   5.977   3.313  0.0115 -0.2307 -0.0759
16519SOL    HW151999   4.962   5.946   3.350  0.0182 -0.1885 -0.0550
16519SOL    HW252000   4.896   6.068   3.289 -0.4349  0.2289  1.2402
16520SOL     OW52001   2.901   2.976   5.385  0.0914  0.0160  0.0791
16520SOL    HW152002   2.825   2.975   5.443 -0.6285 -1.4560 -0.8355
16520SOL    HW252003   2.873   3.026   5.309 -0.4949 -1.6950 -0.8788
16521SOL     OW52004   8.059   5.662   5.500  0.5911 -0.2559 -0.1816
16521SOL    HW152005   8.148   5.694   5.486  0.8371 -0.0321  1.6028
16521SOL    HW252006   8.019   5.727   5.558 -0.9320 -0.0697 -1.4015
16522SOL     OW52007   3.238   5.277   0.581 -0.0865 -0.1916  0.1592
16522SOL    HW152008   3.331   5.260   0.563 -0.2870 -2.7341  1.1887
16522SOL    HW252009   3.235   5.299   0.674 -0.4347  1.1319 -0.1324
16523SOL     OW52010   1.180  10.119   6.985  0.1564  0.3107  0.5078
16523SOL    HW152011   1.196  10.141   6.893 -0.9462  2.2536  0.7375
16523SOL    HW252012   1.260  10.145   7.031 -0.6294  2.8852  0.5780
16524SOL     OW52013   9.901   1.919  10.288  0.2657 -0.3265 -0.6064
16524SOL    HW152014   9.893   2.012  10.267  1.9582 -0.4128 -1.7586
16524SOL    HW252015   9.931   1.878  10.207 -1.3116 -2.0483 -0.3868
16525SOL     OW52016   4.162   3.860   8.163 -0.5190 -0.1342 -0.3203
16525SOL    HW152017   4.130   3.945   8.133  2.0302  1.1984  0.3926
16525SOL    HW252018   4.221   3.831   8.093  0.3227 -0.2168  0.4030
16526SOL     OW52019   3.548   0.466   3.567  0.2148 -0.3213  0.4273
16526SOL    HW152020   3.524   0.532   3.632 -1.9640  0.3271 -0.9505
16526SOL    HW252021   3.544   0.511   3.483  1.9083 -1.4162 -0.3171
16527SOL     OW52022   5.819   6.921   6.058 -0.3627  0.1286  0.2188
16527SOL    HW152023   5.778   6.936   5.973 -0.2389  2.1476  0.4659
16527SOL    HW252024   5.800   7.000   6.108 -1.6006 -1.5876  2.5865
16528SOL     OW52025   5.835   3.105   7.183  0.7724 -0.1504  0.8779
16528SOL    HW152026   5.915   3.142   7.220  1.3341 -1.0574  0.6092
16528SOL    HW252027   5.866   3.038   7.122 -0.1955 -0.9606  1.2575
16529SOL     OW52028   8.720  10.237   1.788 -1.1771 -0.0050 -0.6395
16529SOL    HW152029   8.709  10.332   1.791 -1.2059 -0.0021 -0.8491
16529SOL    HW252030   8.641  10.203   1.830 -1.3077  0.0544 -0.8366
16530SOL     OW52031   7.719   4.943   5.970 -0.5837 -0.4121  0.6834
16530SOL    HW152032   7.637   4.922   5.925 -1.7154 -0.9331  2.8340
16530SOL    HW252033   7.748   4.860   6.007  1.7633 -0.5372 -1.2320
16531SOL     OW52034   9.930   7.854   1.742  0.0462 -0.2710 -0.1448
16531SOL    HW152035   9.941   7.946   1.768  0.1775  1.6803 -5.7912
16531SOL    HW252036   9.837   7.846   1.723  0.0144 -1.4298  0.4415
16532SOL     OW52037   2.531  10.390   8.469 -0.1744 -0.7011 -0.0745
16532SOL    HW152038   2.568  10.303   8.483 -0.7260 -1.0169 -0.5325
16532SOL    HW252039   2.556  10.439   8.548  0.5122 -1.1363 -0.0097
16533SOL     OW52040   9.352   2.397   6.521 -0.3631  0.2966  0.5703
16533SOL    HW152041   9.405   2.395   6.441 -0.1878  1.0853  0.6630
16533SOL    HW252042   9.315   2.309   6.527  0.1316  0.0395 -0.0370
16534SOL     OW52043   5.071   9.574   8.887 -0.4992  0.2397 -0.3418
16534SOL    HW152044   5.042   9.514   8.819  2.0033 -0.3680 -0.9850
16534SOL    HW252045   5.111   9.646   8.839  0.4082  0.2848  0.4656
16535SOL     OW52046   7.267   1.620   3.830  0.1398 -0.0584 -0.1207
16535SOL    HW152047   7.244   1.661   3.747  0.9488  0.3366 -0.1558
16535SOL    HW252048   7.337   1.674   3.866 -0.4857  0.0209  1.0259
16536SOL     OW52049   9.882   8.522   1.352  0.4331  0.0879 -0.2491
16536SOL    HW152050   9.950   8.555   1.293 -0.1350  1.7462 -0.0146
16536SOL    HW252051   9.799   8.544   1.308  0.0188 -0.7668  0.0751
16537SOL     OW52052   6.434   3.918   1.169 -0.4481 -0.3310  1.1032
16537SOL    HW152053   6.462   4.009   1.178 -2.4300  0.4221  0.0767
16537SOL    HW252054   6.492   3.881   1.103 -1.5770  1.1258 -0.8013
16538SOL     OW52055   2.820   2.449   4.877 -0.2421  0.1620  0.7849
16538SOL    HW152056   2.784   2.383   4.936 -0.7445  1.3598  1.8579
16538SOL    HW252057   2.829   2.527   4.931  0.0668  1.0656 -0.5253
16539SOL     OW52058   8.827   8.392  10.222  0.1649 -0.0134  0.0344
16539SOL    HW152059   8.782   8.320  10.265 -1.1926  0.8827  0.1833
16539SOL    HW252060   8.862   8.446  10.293 -1.6504  1.1984  0.0795
16540SOL     OW52061   1.695   0.474   8.040 -0.4918  0.1646 -0.7964
16540SOL    HW152062   1.741   0.468   7.957  1.0370  0.7429 -0.0205
16540SOL    HW252063   1.762   0.498   8.104 -1.3490 -1.5077  0.8484
16541SOL     OW52064   2.150   1.315   0.427  0.0242 -0.4719 -0.1347
16541SOL    HW152065   2.173   1.325   0.334 -0.3166 -1.3062 -0.3150
16541SOL    HW252066   2.160   1.403   0.463 -1.4844  0.2583 -1.3532
16542SOL     OW52067   8.451   5.588   7.728 -0.3055  0.5055 -0.0096
16542SOL    HW152068   8.515   5.548   7.669 -1.4707 -1.2903 -0.1270
16542SOL    HW252069   8.500   5.655   7.775  1.2463  0.3014 -1.2560
16543SOL     OW52070   3.375   1.246   0.438 -0.4086  0.0602  0.3539
16543SOL    HW152071   3.306   1.277   0.497 -0.1189 -1.1136  1.3547
16543SOL    HW252072   3.440   1.316   0.439 -1.5626  1.2097 -0.6480
16544SOL     OW52073   4.418   8.154   3.236 -0.3174 -0.0262  0.3251
16544SOL    HW152074   4.375   8.099   3.170  1.1855 -1.6856  0.6626
16544SOL    HW252075   4.435   8.237   3.190 -0.1192 -0.8166 -1.0882
16545SOL     OW52076   4.046   2.534   1.076 -0.2524 -0.2194  0.1960
16545SOL    HW152077   3.990   2.610   1.095 -0.9170 -0.0522 -2.1522
16545SOL    HW252078   4.133   2.560   1.106 -0.5070  1.4050 -0.3939
16546SOL     OW52079   4.964   7.288   2.477 -0.0715  0.0416  0.4589
16546SOL    HW152080   4.990   7.298   2.386 -1.9674 -1.8532 -0.3674
16546SOL    HW252081   5.032   7.333   2.527  0.0539  2.7813 -1.9413
16547SOL     OW52082   2.887   7.096   9.508  0.0233 -0.3499 -0.6174
16547SOL    HW152083   2.924   7.099   9.596  2.3886  0.4713 -1.5342
16547SOL    HW252084   2.806   7.146   9.514  1.1337  1.4250  0.7314
16548SOL     OW52085   6.952  10.223   6.950  0.0103 -0.4234  0.1541
16548SOL    HW152086   6.962  10.130   6.930 -1.4055 -0.1654 -2.0157
16548SOL    HW252087   7.038  10.249   6.985 -0.0555 -2.8479  2.4339
16549SOL     OW52088   4.979  10.036   4.083 -0.2567 -0.0255 -0.3288
16549SOL    HW152089   4.936  10.099   4.141 -0.7724 -0.9595  0.3316
16549SOL    HW252090   5.069  10.032   4.115 -0.3948 -0.1189  0.0527
16550SOL     OW52091   7.389   9.926   7.624 -0.1893 -0.2235 -0.7896
16550SOL    HW152092   7.482   9.906   7.638 -0.0285 -0.3259 -1.9696
16550SOL    HW252093   7.374  10.006   7.675  0.9298  0.6690 -1.7989
16551SOL     OW52094   5.099   1.556   4.808 -0.1899 -0.4743 -0.2548
16551SOL    HW152095   5.190   1.583   4.816 -0.4674  1.0341 -1.5302
16551SOL    HW252096   5.095   1.505   4.727 -0.5373 -0.1751 -0.4331
16552SOL     OW52097   1.880   2.159   3.193  0.2544  0.0225  0.5446
16552SOL    HW152098   1.974   2.154   3.176 -0.2417  0.5550 -2.9943
16552SOL    HW252099   1.839   2.125   3.114 -2.5872 -0.3663  2.0561
16553SOL     OW52100   9.864   9.208   2.063  0.0055  0.2642  0.6911
16553SOL    HW152101   9.868   9.299   2.090 -1.6288  0.2846  1.0099
16553SOL    HW252102   9.780   9.200   2.017  0.6528 -0.8152 -0.3693
16554SOL     OW52103   8.727   4.430   3.811  0.4159  0.0573 -0.5562
16554SOL    HW152104   8.749   4.337   3.819 -1.5102 -0.3763  0.4383
16554SOL    HW252105   8.807   4.471   3.779  1.0729 -2.0618 -1.8949
16555SOL     OW52106   0.849   2.010   5.759  0.1165 -0.0960 -0.4239
16555SOL    HW152107   0.840   2.105   5.753 -2.7433 -0.1962  0.6003
16555SOL    HW252108   0.905   1.986   5.686 -1.1076  2.1586 -2.2291
16556SOL     OW52109   0.067   1.156   4.413  0.5896 -0.2881 -0.5831
16556SOL    HW152110   0.032   1.170   4.501 -0.5693  1.1735 -1.2322
16556SOL    HW252111   0.152   1.200   4.414  1.1989 -1.4062  0.1526
16557SOL     OW52112   1.180   8.731   8.419 -0.8973  0.2881  0.4071
16557SOL    HW152113   1.191   8.651   8.368 -0.2473 -0.3710  1.5569
16557SOL    HW252114   1.263   8.777   8.410 -0.4806 -0.2299  1.5362
16558SOL     OW52115   9.017   4.986   2.158  0.5572 -0.0487 -0.2736
16558SOL    HW152116   9.112   4.986   2.149  0.4769  0.2516 -1.1904
16558SOL    HW252117   9.002   4.996   2.252  1.4267 -0.3314 -0.0918
16559SOL     OW52118   4.595   5.761   7.937  0.4486 -0.5944 -0.6153
16559SOL    HW152119   4.578   5.840   7.886 -1.1834 -1.6491 -1.8122
16559SOL    HW252120   4.623   5.793   8.023  2.2415  1.2394 -1.7984
16560SOL     OW52121   3.831   0.516   5.749 -0.8974 -0.1194  0.6830
16560SOL    HW152122   3.778   0.595   5.744 -0.0885  0.4022  0.0647
16560SOL    HW252123   3.793   0.457   5.684 -0.2623  0.5579 -0.3407
16561SOL     OW52124   4.339   6.699   7.355 -0.8284 -0.0645  0.1021
16561SOL    HW152125   4.354   6.643   7.431  1.1122  1.5167  0.9716
16561SOL    HW252126   4.275   6.651   7.302 -0.6372 -2.1977  1.6775
16562SOL     OW52127   2.838   3.208   6.730 -0.4390  0.5116 -0.4835
16562SOL    HW152128   2.748   3.200   6.762  0.0355 -1.1070  0.5522
16562SOL    HW252129   2.872   3.285   6.775 -0.5082 -0.3939  1.2221
16563SOL     OW52130   3.389   2.989   0.905  0.0259  0.2634  0.0295
16563SOL    HW152131   3.406   2.902   0.871 -0.1173  0.4306 -0.4717
16563SOL    HW252132   3.409   2.983   0.999  2.0058  0.2416 -0.3649
16564SOL     OW52133   6.795   3.069   4.393  0.4224  0.5192  0.0811
16564SOL    HW152134   6.761   3.070   4.303 -0.0795  0.9110  0.2737
16564SOL    HW252135   6.862   3.138   4.393 -0.5587  1.4906  0.3771
16565SOL     OW52136   0.812   6.558   7.893  0.0577  0.3273  0.1633
16565SOL    HW152137   0.735   6.502   7.901 -1.1191  1.5983 -1.7106
16565SOL    HW252138   0.781   6.636   7.848  2.2152  1.3853  0.3782
16566SOL     OW52139   4.240   5.098   3.042  0.5145  0.1489 -0.4429
16566SOL    HW152140   4.163   5.056   3.081  0.5932  1.0677  0.7413
16566SOL    HW252141   4.313   5.040   3.065  0.4727  0.3736  0.2940
16567SOL     OW52142   3.893   5.807   6.360 -0.3628 -0.1179  0.1856
16567SOL    HW152143   3.832   5.839   6.294  1.4751  0.4054 -1.3415
16567SOL    HW252144   3.882   5.712   6.359 -1.4425 -0.0054  0.2640
16568SOL     OW52145   1.351   9.111   0.391  0.1062  0.0865 -0.3096
16568SOL    HW152146   1.381   9.020   0.388 -1.0406 -0.3474  0.4214
16568SOL    HW252147   1.273   9.108   0.447  0.4494  1.6436  0.3062
16569SOL     OW52148   5.448   2.853   0.959 -0.6271 -0.2421  0.0742
16569SOL    HW152149   5.498   2.810   0.889 -0.7026  2.6517 -1.9484
16569SOL    HW252150   5.514   2.896   1.013 -0.6819 -0.5336  0.3724
16570SOL     OW52151   8.151   3.450   9.008 -0.2097  0.1525  0.1916
16570SOL    HW152152   8.102   3.454   8.926  0.6294 -1.3057 -0.4034
16570SOL    HW252153   8.201   3.532   9.010  0.1334 -0.0084 -0.9942
16571SOL     OW52154   0.114   0.747   9.884  0.3558  0.9941 -0.0385
16571SOL    HW152155   0.165   0.673   9.917  0.5538  1.2628  0.2724
16571SOL    HW252156   0.178   0.818   9.874  0.1454  1.1641 -0.2003
16572SOL     OW52157   3.212   3.371   4.077 -0.2300  0.2412 -0.0321
16572SOL    HW152158   3.148   3.307   4.108  0.5000 -1.2923 -1.5234
16572SOL    HW252159   3.267   3.388   4.153 -0.6105 -0.7070  0.4799
16573SOL     OW52160   2.099   7.501   7.150  0.2757  0.4643 -0.3252
16573SOL    HW152161   2.051   7.483   7.069  0.5507 -2.5255  0.0550
16573SOL    HW252162   2.189   7.517   7.121  0.4117 -0.7612 -0.6519
16574SOL     OW52163   5.819   9.534   8.621  0.4837  0.5208  0.1383
16574SOL    HW152164   5.845   9.490   8.701  0.1949  0.0350 -0.0300
16574SOL    HW252165   5.725   9.548   8.631  0.1914 -0.7036 -0.6513
16575SOL     OW52166   5.504   3.339   8.065 -0.0972  0.0580 -0.0817
16575SOL    HW152167   5.416   3.348   8.100 -0.5320 -0.1292 -1.0780
16575SOL    HW252168   5.562   3.365   8.137 -0.9614  0.1863  0.5796
16576SOL     OW52169  10.294   6.245   4.392  0.2391 -0.5291 -0.2169
16576SOL    HW152170  10.349   6.294   4.453 -0.4238 -0.0421  0.0018
16576SOL    HW252171  10.266   6.168   4.441 -0.2782 -0.1467  0.1010
16577SOL     OW52172   6.382   2.106   5.389  0.2060 -0.0927  0.2722
16577SOL    HW152173   6.326   2.034   5.417 -1.2910  0.4944 -1.0454
16577SOL    HW252174   6.331   2.151   5.322  1.6244  1.4435  0.1602
16578SOL     OW52175   6.511   6.802   1.832  0.5687  0.0260 -0.0797
16578SOL    HW152176   6.513   6.718   1.877 -0.6522  0.3788  0.7106
16578SOL    HW252177   6.447   6.791   1.761  1.9415 -0.3062 -1.3050
16579SOL     OW52178   9.592   3.395   8.950 -0.0210  0.3231  0.1827
16579SOL    HW152179   9.606   3.301   8.940  1.0916  0.5086 -0.1787
16579SOL    HW252180   9.583   3.408   9.045 -1.3466 -0.2772  0.1585
16580SOL     OW52181   7.890   0.313   4.364 -0.7951  0.3636  0.1312
16580SOL    HW152182   7.907   0.405   4.385  0.5794 -0.0112  0.7863
16580SOL    HW252183   7.821   0.286   4.424 -0.9210  0.8638  0.2114
16581SOL     OW52184   0.712   2.684   1.568 -0.0189  0.3183 -0.1758
16581SOL    HW152185   0.762   2.635   1.503  0.0687 -1.3340  1.0445
16581SOL    HW252186   0.751   2.771   1.569  0.8247 -0.0166 -1.3790
16582SOL     OW52187   6.852   9.875   8.861 -0.4063 -0.2533  0.1102
16582SOL    HW152188   6.815   9.805   8.809 -2.2633 -0.4378  1.5875
16582SOL    HW252189   6.834   9.955   8.811  0.0540 -0.6247 -0.6697
16583SOL     OW52190   6.328   6.551   8.452  0.5593 -0.1864 -0.2716
16583SOL    HW152191   6.265   6.602   8.502  0.3825 -0.4553 -0.2152
16583SOL    HW252192   6.323   6.585   8.363 -0.9646 -1.3774 -0.6916
16584SOL     OW52193   9.130   5.671   3.857 -0.1149 -0.0608 -0.2496
16584SOL    HW152194   9.083   5.664   3.940 -0.0804  1.4762 -0.0749
16584SOL    HW252195   9.154   5.581   3.836 -0.1741 -0.4897  1.3721
16585SOL     OW52196   6.609   5.258   7.288  0.3972 -0.1095  0.1163
16585SOL    HW152197   6.661   5.309   7.226  0.8343 -2.1615 -1.3066
16585SOL    HW252198   6.519   5.290   7.277  0.7456  0.7358 -0.3259
16586SOL     OW52199   0.962   4.198   7.019 -0.2014 -0.1104 -0.0346
16586SOL    HW152200   0.886   4.146   7.046 -0.9615  1.0021  0.0510
16586SOL    HW252201   0.966   4.187   6.924  0.4542 -1.3654  0.1213
16587SOL     OW52202   8.446   7.013   2.313 -0.4513 -0.2556  0.4420
16587SOL    HW152203   8.448   6.940   2.374  1.6948  0.0965  0.8835
16587SOL    HW252204   8.538   7.028   2.290 -1.0132  0.9474 -1.2895
16588SOL     OW52205   7.889   4.872  10.422 -0.0310  0.6622  0.1032
16588SOL    HW152206   7.921   4.786  10.396  0.9689  1.3438 -0.9955
16588SOL    HW252207   7.807   4.854  10.468 -0.6271 -0.7866 -1.4238
16589SOL     OW52208   2.880   9.248   6.525 -0.1563  0.2006 -0.5273
16589SOL    HW152209   2.819   9.308   6.481 -0.9007  0.3300  0.6502
16589SOL    HW252210   2.878   9.275   6.617  1.7606  0.2655 -0.4678
16590SOL     OW52211   6.850  10.433   1.062 -0.1750 -0.0326  0.0854
16590SOL    HW152212   6.934  10.455   1.102 -0.0827  0.6731 -0.4635
16590SOL    HW252213   6.857  10.467   0.973 -1.4149  0.9603  0.3416
16591SOL     OW52214   9.022   5.345   9.868 -0.2756 -0.1005 -0.0252
16591SOL    HW152215   8.984   5.299   9.793  1.4411 -2.2496  0.3387
16591SOL    HW252216   9.006   5.438   9.849  1.4923 -0.3956 -3.9115
16592SOL     OW52217   2.069  10.083  10.098  0.3394 -0.4205 -0.2949
16592SOL    HW152218   2.161  10.074  10.120  0.5649 -0.1733 -1.1231
16592SOL    HW252219   2.024  10.026  10.160  1.0048 -0.1868  0.4219
16593SOL     OW52220   7.354   5.418  10.426  0.3223  0.0537 -0.0985
16593SOL    HW152221   7.368   5.499  10.376  0.2953 -0.1070 -0.3684
16593SOL    HW252222   7.278   5.437  10.481  0.7448  0.4520  0.3582
16594SOL     OW52223   9.139   3.369   6.056  0.1043  0.3375 -0.4009
16594SOL    HW152224   9.154   3.441   6.118  2.5946 -0.4068 -0.0305
16594SOL    HW252225   9.219   3.318   6.059 -0.6478 -1.0972 -2.4950
16595SOL     OW52226   7.143   5.480   2.201 -0.1164 -0.0622 -0.3044
16595SOL    HW152227   7.127   5.487   2.295  1.4093 -3.1505  0.3371
16595SOL    HW252228   7.236   5.501   2.190 -0.4350  0.9723 -1.2750
16596SOL     OW52229   0.286   8.068   0.931 -0.0176 -0.4658  0.2205
16596SOL    HW152230   0.259   7.978   0.918  1.4363 -1.0234  0.8230
16596SOL    HW252231   0.362   8.062   0.990  0.8604  1.0391 -0.6874
16597SOL     OW52232   1.808   3.407   0.485 -0.1675 -0.4308  0.0162
16597SOL    HW152233   1.763   3.387   0.403 -1.2706  2.0497 -0.0884
16597SOL    HW252234   1.891   3.447   0.458 -0.7602  0.8776  0.0346
16598SOL     OW52235   4.277   7.862   3.240  0.2105 -0.0977 -0.4770
16598SOL    HW152236   4.274   7.898   3.152  0.6230  0.7746 -0.1487
16598SOL    HW252237   4.364   7.823   3.248  0.5608  0.7252 -0.1292
16599SOL     OW52238   0.916   9.510   7.075 -0.0718  0.0989  0.6487
16599SOL    HW152239   1.006   9.487   7.051 -0.2274  0.7427 -0.6528
16599SOL    HW252240   0.914   9.501   7.170  0.7569 -2.0155  0.5218
16600SOL     OW52241   6.950   5.762   9.395 -0.6575  0.2510  0.1265
16600SOL    HW152242   6.928   5.806   9.477 -0.4039 -0.3348  0.5126
16600SOL    HW252243   6.935   5.829   9.328 -0.0633  1.0072  0.7176
16601SOL     OW52244   9.641   6.542   1.940  0.1031  0.1613  0.1480
16601SOL    HW152245   9.657   6.634   1.959  1.9897  0.3639 -2.0354
16601SOL    HW252246   9.568   6.542   1.879  0.8886  0.3513 -0.8200
16602SOL     OW52247   6.396   7.444   0.236  0.1106 -0.4358  0.3792
16602SOL    HW152248   6.382   7.500   0.312 -1.5626 -0.8996  0.4613
16602SOL    HW252249   6.353   7.361   0.259 -2.1607  0.0266 -1.7625
16603SOL     OW52250   7.354   1.265   9.809  0.2573 -0.0794 -0.3034
16603SOL    HW152251   7.345   1.224   9.895 -0.3173  1.4261  0.4032
16603SOL    HW252252   7.422   1.332   9.822  1.0503 -0.6677 -1.3602
16604SOL     OW52253   6.777   6.933   8.625 -0.0589  0.4365 -0.1135
16604SOL    HW152254   6.806   6.885   8.703  1.2317  0.5015 -0.5429
16604SOL    HW252255   6.766   6.866   8.558 -3.3104  0.0373  0.6207
16605SOL     OW52256   9.353  10.421   1.970 -0.2279  0.0501  0.1595
16605SOL    HW152257   9.308  10.481   1.910 -0.9694 -1.5076 -0.9206
16605SOL    HW252258   9.384  10.477   2.041 -0.5430  1.7637 -0.9797
16606SOL     OW52259   9.482   0.476   7.418 -0.2099 -0.2334  0.5109
16606SOL    HW152260   9.562   0.512   7.380 -0.4437 -0.9012 -0.6461
16606SOL    HW252261   9.412   0.530   7.382 -0.3714 -0.3087  0.7077
16607SOL     OW52262   1.554   7.371   3.500 -0.1260  0.7256  0.6348
16607SOL    HW152263   1.627   7.429   3.478 -0.8685  1.3059 -0.3834
16607SOL    HW252264   1.479   7.429   3.510 -1.2071 -0.1078 -1.7871
16608SOL     OW52265   7.557   7.530   5.666 -0.3207 -0.0217  0.3339
16608SOL    HW152266   7.643   7.512   5.627 -0.2597  0.1183  0.4040
16608SOL    HW252267   7.573   7.600   5.728  0.3259 -2.6805  3.4251
16609SOL     OW52268   7.731   2.851   6.657 -0.1157  0.5021  0.0791
16609SOL    HW152269   7.711   2.941   6.633  2.8962  1.2101 -0.2093
16609SOL    HW252270   7.792   2.821   6.589 -1.0479 -1.7982  0.1593
16610SOL     OW52271  10.392   8.279  10.401  0.2168  0.4475  0.4278
16610SOL    HW152272  10.461   8.262  10.336 -0.4690  0.4065 -0.3005
16610SOL    HW252273  10.405   8.371  10.425  2.3011 -0.2817  2.4492
16611SOL     OW52274   6.090   1.178  10.215 -0.1175 -0.2850 -0.1095
16611SOL    HW152275   6.007   1.150  10.256  0.1749  1.0289  1.4795
16611SOL    HW252276   6.133   1.231  10.282  1.7303 -0.3888 -1.1499
16612SOL     OW52277   1.920   1.422   0.084  0.9700 -0.2365 -0.0807
16612SOL    HW152278   1.932   1.517   0.078 -0.3287 -0.0910 -0.9018
16612SOL    HW252279   1.833   1.407   0.047  1.6094 -1.8745 -1.0271
16613SOL     OW52280   5.563  10.223   6.354 -0.3967 -0.3957  0.2481
16613SOL    HW152281   5.615  10.298   6.323  0.2254 -0.4142  1.2078
16613SOL    HW252282   5.474  10.242   6.325 -0.1431  0.4352 -0.0204
16614SOL     OW52283   0.236   4.209   8.241 -0.1621  0.5303 -0.6165
16614SOL    HW152284   0.307   4.234   8.181  0.2150  2.5653  0.5789
16614SOL    HW252285   0.167   4.273   8.224 -1.0665 -0.4079 -0.5767
16615SOL     OW52286   2.637   1.697   8.574  0.1255 -0.0773  0.5267
16615SOL    HW152287   2.651   1.648   8.493 -0.7364  0.5161  0.0068
16615SOL    HW252288   2.547   1.730   8.567 -0.5691 -1.3842  2.4530
16616SOL     OW52289   5.981   7.303   6.652 -0.0973  0.1018  0.2943
16616SOL    HW152290   5.993   7.282   6.559  1.5745  2.8270 -0.2318
16616SOL    HW252291   5.891   7.336   6.657 -0.7619 -1.5532  0.0414
16617SOL     OW52292   8.437   0.258  10.420  0.1408  0.3404  0.4257
16617SOL    HW152293   8.402   0.276  10.508 -1.1327 -0.5107  0.1363
16617SOL    HW252294   8.481   0.173  10.430 -0.2155  0.1273  0.1970
16618SOL     OW52295   8.371   6.087   2.647  0.4339  0.3266 -0.3649
16618SOL    HW152296   8.378   6.029   2.723  3.0646  2.2072  0.9982
16618SOL    HW252297   8.362   6.175   2.685  0.2733  1.1753 -2.2642
16619SOL     OW52298   5.483   6.139   0.266 -0.0737  1.2887 -0.0157
16619SOL    HW152299   5.544   6.213   0.262 -0.1387  1.3651  0.4245
16619SOL    HW252300   5.407   6.173   0.312  0.1448  0.7679  0.7360
16620SOL     OW52301   6.221   2.479   8.161  0.5529 -0.2072 -0.6667
16620SOL    HW152302   6.228   2.399   8.109 -0.0979  0.6238 -2.1072
16620SOL    HW252303   6.307   2.520   8.153  0.6130 -0.3317 -0.6666
16621SOL     OW52304   2.803   7.452   5.238 -0.3997  0.0886 -0.2540
16621SOL    HW152305   2.835   7.511   5.170  1.2435 -0.4791 -0.0207
16621SOL    HW252306   2.867   7.460   5.309  1.1779 -3.4983 -1.0475
16622SOL     OW52307   1.566   2.223   5.787 -0.5369  0.4483  0.2592
16622SOL    HW152308   1.472   2.239   5.798 -0.5599  0.9187 -0.5152
16622SOL    HW252309   1.574   2.176   5.705  0.0379  2.1721 -0.7252
16623SOL     OW52310   4.411   0.838   0.772 -0.2025  0.6447 -0.1377
16623SOL    HW152311   4.479   0.771   0.775 -1.2921 -0.4754  1.3667
16623SOL    HW252312   4.451   0.912   0.726  1.0177 -1.0420 -1.9354
16624SOL     OW52313   3.564   9.833   1.349  0.4685 -0.0663 -0.0116
16624SOL    HW152314   3.654   9.840   1.380  1.1037 -0.0259 -1.7615
16624SOL    HW252315   3.572   9.828   1.253 -1.3115 -1.2690 -0.1400
16625SOL     OW52316   9.560   7.945   8.909  0.0547 -0.1561  0.3191
16625SOL    HW152317   9.514   7.886   8.849  1.4977  0.3880 -1.4268
16625SOL    HW252318   9.544   8.032   8.873 -0.5262  0.3865  1.8031
16626SOL     OW52319   9.687   6.789   9.565  0.3387  0.0921 -0.2282
16626SOL    HW152320   9.668   6.716   9.506 -0.7053 -1.0869  1.4567
16626SOL    HW252321   9.727   6.748   9.642  1.6085  1.5612 -0.0472
16627SOL     OW52322   1.772   7.893   3.522  0.2681 -0.5374  0.0420
16627SOL    HW152323   1.691   7.868   3.479 -0.2021  1.2404 -0.2049
16627SOL    HW252324   1.759   7.870   3.614 -0.9231  0.5433  0.1803
16628SOL     OW52325   6.216   5.494   4.818  0.0958 -0.0540  0.0782
16628SOL    HW152326   6.190   5.405   4.844 -0.7206  0.0569 -0.3338
16628SOL    HW252327   6.163   5.551   4.872 -2.4987  0.1961 -2.5081
16629SOL     OW52328   4.430   4.022   0.870  0.0078  0.5441  0.0797
16629SOL    HW152329   4.340   4.030   0.840  0.4784  1.6913 -1.0763
16629SOL    HW252330   4.437   3.930   0.898 -2.1296  0.9417  2.3776
16630SOL     OW52331   5.374   2.199   8.169 -0.1561 -0.4253  0.2549
16630SOL    HW152332   5.469   2.214   8.172 -0.3111  0.9007 -0.3360
16630SOL    HW252333   5.363   2.106   8.186  1.2649 -0.6145  0.2471
16631SOL     OW52334   6.832   3.967   0.263  0.1290  0.5697  0.1030
16631SOL    HW152335   6.864   3.966   0.172 -1.2665  2.3232 -0.4634
16631SOL    HW252336   6.904   4.006   0.313  1.5729 -1.9044  0.0967
16632SOL     OW52337   9.199   1.667   7.384 -0.1631  0.4386 -0.4102
16632SOL    HW152338   9.250   1.696   7.459 -0.5108 -1.3102  0.5551
16632SOL    HW252339   9.126   1.617   7.422  0.6505 -2.0783 -1.8921
16633SOL     OW52340   9.055   3.654   6.195 -0.5104 -0.2176 -0.1505
16633SOL    HW152341   9.006   3.734   6.174 -0.5528 -0.2771 -0.2768
16633SOL    HW252342   9.146   3.682   6.200 -0.5863 -0.0536  0.3550
16634SOL     OW52343   9.659   6.730   3.369 -0.7263 -0.3436  0.5717
16634SOL    HW152344   9.693   6.800   3.312 -3.1356  1.6126  1.3636
16634SOL    HW252345   9.732   6.669   3.378  1.8149  2.4350  0.4136
16635SOL     OW52346   2.916   6.907   7.169 -0.0962 -0.2229 -0.0638
16635SOL    HW152347   2.934   6.857   7.249  0.3548 -0.7911 -0.5125
16635SOL    HW252348   2.949   6.852   7.098 -0.7169  0.1641 -0.6682
16636SOL     OW52349   8.932   6.477   4.469 -0.1487  0.1359 -0.5355
16636SOL    HW152350   8.923   6.535   4.394  1.0653 -0.2149 -0.9811
16636SOL    HW252351   8.959   6.533   4.541 -0.9940  0.4218 -0.4299
16637SOL     OW52352   9.335   6.337   9.907  0.5115 -0.3206  0.8316
16637SOL    HW152353   9.357   6.368   9.819 -0.6471 -2.0546 -0.1396
16637SOL    HW252354   9.411   6.287   9.935  1.1327  0.7358  1.1145
16638SOL     OW52355   3.367   8.457   4.789 -0.1436  0.1006 -0.1734
16638SOL    HW152356   3.427   8.479   4.860 -0.4645 -0.6949  0.3575
16638SOL    HW252357   3.424   8.431   4.717  0.1995  1.3528 -0.3830
16639SOL     OW52358   1.343   4.226   9.137 -0.5830 -0.3151 -0.3748
16639SOL    HW152359   1.390   4.299   9.178 -2.0333  0.4454 -0.0073
16639SOL    HW252360   1.282   4.269   9.077 -1.0896 -1.2682 -0.5478
16640SOL     OW52361   2.264   5.246   3.353  0.3230 -0.3308  0.0792
16640SOL    HW152362   2.342   5.205   3.390  2.4933  0.2674 -3.4195
16640SOL    HW252363   2.297   5.323   3.307 -2.0031 -1.1129 -3.2071
16641SOL     OW52364   2.846   5.835   5.533 -0.2352  0.1947  0.4966
16641SOL    HW152365   2.917   5.848   5.470 -0.9444  0.6124 -0.2285
16641SOL    HW252366   2.890   5.824   5.617  0.6730  0.6704  0.0875
16642SOL     OW52367   8.932   3.261   1.157  0.0751 -0.1751  0.2437
16642SOL    HW152368   8.986   3.182   1.160  0.8556  0.2712 -1.3803
16642SOL    HW252369   8.992   3.333   1.173 -0.7750  0.1052  2.6047
16643SOL     OW52370   7.168   5.612   4.683  0.5054  0.0431  0.4344
16643SOL    HW152371   7.199   5.592   4.772  0.3838  1.9183  0.9456
16643SOL    HW252372   7.073   5.607   4.689  0.4818 -3.3403 -0.5462
16644SOL     OW52373   2.884   0.320   0.150  0.0613  0.2912  0.2216
16644SOL    HW152374   2.944   0.253   0.183  0.8126  2.5126  3.8810
16644SOL    HW252375   2.939   0.378   0.097  0.5400  0.6935  1.1386
16645SOL     OW52376   2.538   5.532   2.922 -0.3688 -0.3738 -0.5381
16645SOL    HW152377   2.598   5.562   2.991 -0.6885 -0.0880 -0.3768
16645SOL    HW252378   2.475   5.477   2.968 -2.1370  1.8569 -0.0709
16646SOL     OW52379   5.585   8.671   1.303  0.1945  0.2515 -0.3651
16646SOL    HW152380   5.497   8.707   1.296 -0.0996 -0.2300  0.6881
16646SOL    HW252381   5.588   8.631   1.390  0.9806 -0.9982 -0.9307
16647SOL     OW52382   8.840   8.846   2.034  0.0911  0.3438 -0.3945
16647SOL    HW152383   8.864   8.765   2.079  0.4625  1.5674  1.7620
16647SOL    HW252384   8.899   8.850   1.958  0.3327 -1.1803 -0.3169
16648SOL     OW52385   8.026   0.886   5.527 -0.7848  0.5529  0.7671
16648SOL    HW152386   7.988   0.798   5.526 -0.7175  0.5335 -0.1462
16648SOL    HW252387   8.012   0.916   5.617 -0.7619 -0.4070  1.1068
16649SOL     OW52388   7.305   8.613   0.655 -0.2609  0.6101  0.1581
16649SOL    HW152389   7.210   8.598   0.656 -0.0417 -1.0810  1.4590
16649SOL    HW252390   7.331   8.598   0.564 -1.1647  0.4789 -0.0888
16650SOL     OW52391   6.746   4.459   8.320  0.5453  0.3183  0.0803
16650SOL    HW152392   6.782   4.413   8.245 -1.0557 -1.5103  0.3523
16650SOL    HW252393   6.743   4.551   8.293  1.0915 -0.1271 -1.6239
16651SOL     OW52394   3.349   9.480   6.279 -0.0140 -0.2127  0.5759
16651SOL    HW152395   3.409   9.450   6.211 -0.8757 -0.9173  0.0977
16651SOL    HW252396   3.266   9.437   6.258  0.4045 -3.0413  3.8068
16652SOL     OW52397   1.622   6.573   4.070 -0.0060 -0.2710 -0.0845
16652SOL    HW152398   1.592   6.499   4.123  0.1967  0.3474  0.9209
16652SOL    HW252399   1.572   6.648   4.104 -0.0609  0.0986 -0.9489
16653SOL     OW52400   8.633   8.358   3.234  0.4069  0.0703 -0.1200
16653SOL    HW152401   8.622   8.368   3.139 -0.0446 -1.2192 -0.2244
16653SOL    HW252402   8.702   8.292   3.243  0.2274 -0.0414  0.4490
16654SOL     OW52403   0.124   0.678   2.024  0.2747  0.0244 -0.0681
16654SOL    HW152404   0.140   0.772   2.036  0.0709  0.2103 -1.1784
16654SOL    HW252405   0.207   0.643   1.993 -0.0714  0.1189 -1.1291
16655SOL     OW52406   2.930   5.776  10.223 -0.1672  0.6304  0.0419
16655SOL    HW152407   2.912   5.771  10.317 -0.1691  0.3163  0.0251
16655SOL    HW252408   2.954   5.687  10.198  0.3244  0.8171 -0.1600
16656SOL     OW52409   2.771   2.863   1.742 -0.1669 -0.4798  0.2053
16656SOL    HW152410   2.693   2.832   1.787 -0.9472 -1.8316 -1.8739
16656SOL    HW252411   2.844   2.818   1.786 -0.7530 -0.7707  0.8953
16657SOL     OW52412   9.783   6.224   6.553  0.3825  0.0847  0.2916
16657SOL    HW152413   9.714   6.284   6.526  0.8809  1.6055  2.1453
16657SOL    HW252414   9.780   6.225   6.649  1.8436 -1.1461  0.3927
16658SOL     OW52415   7.585   0.155   8.614 -0.6172  0.2556 -0.0657
16658SOL    HW152416   7.581   0.060   8.614  0.2794  0.1998  0.3076
16658SOL    HW252417   7.645   0.177   8.542 -0.4906  0.5060  0.1100
16659SOL     OW52418  10.432   1.811   0.799  0.5071  0.2976  0.1996
16659SOL    HW152419  10.441   1.904   0.777 -0.0580  0.2303 -0.3737
16659SOL    HW252420  10.429   1.767   0.714 -1.0724 -0.0510  0.3988
16660SOL     OW52421   2.799   1.251   3.749 -0.6218  0.0891 -1.0136
16660SOL    HW152422   2.760   1.335   3.723 -0.2401  0.7830  0.5379
16660SOL    HW252423   2.891   1.259   3.726 -0.4764  0.3259 -0.3743
16661SOL     OW52424   6.572   3.235   4.876  0.5796  0.7799  0.5224
16661SOL    HW152425   6.574   3.206   4.785 -2.5671 -0.6601  0.7753
16661SOL    HW252426   6.661   3.221   4.909  1.1813 -0.9185 -1.6636
16662SOL     OW52427   5.169   1.308   4.713  0.0627  0.1778  0.1561
16662SOL    HW152428   5.201   1.220   4.693 -1.0666 -0.2369  0.1207
16662SOL    HW252429   5.121   1.299   4.795  2.7189  1.4398  1.9987
16663SOL     OW52430   6.397   3.249   2.666  0.5490  0.1399 -0.5113
16663SOL    HW152431   6.406   3.212   2.754 -0.6214 -1.2599 -0.9350
16663SOL    HW252432   6.340   3.325   2.677  2.3229  1.3994  0.2618
16664SOL     OW52433   1.106   8.334   2.781 -0.5078  0.1647 -0.2470
16664SOL    HW152434   1.166   8.348   2.855 -2.7647  3.7431  1.2129
16664SOL    HW252435   1.161   8.337   2.704  1.3835  2.3529  1.0625
16665SOL     OW52436   9.101   8.847   1.302  0.0922  0.3008  0.1414
16665SOL    HW152437   9.114   8.859   1.208  0.1886 -0.1682  0.0928
16665SOL    HW252438   9.184   8.811   1.333  0.2621  0.9850  0.5052
16666SOL     OW52439   0.009   7.528   7.086  0.7508 -0.1090 -0.8549
16666SOL    HW152440   0.040   7.549   7.174  2.8568 -2.0545 -1.0268
16666SOL    HW252441  -0.071   7.478   7.100  0.3962  0.6404 -0.1232
16667SOL     OW52442   7.381   9.931  10.231 -0.0103 -0.4999 -0.1768
16667SOL    HW152443   7.327   9.919  10.309 -1.0266  0.2385 -0.7400
16667SOL    HW252444   7.383  10.025  10.217  0.6251 -0.5855 -0.7208
16668SOL     OW52445   1.051   5.478   0.688 -1.0630  0.1967  0.5288
16668SOL    HW152446   1.062   5.553   0.746 -0.6371 -0.3802  1.1981
16668SOL    HW252447   0.956   5.462   0.688 -1.3638  1.6861 -0.8537
16669SOL     OW52448   1.682   2.125   9.185 -0.4787  0.1723  0.6593
16669SOL    HW152449   1.661   2.203   9.237  0.9779  0.3601  1.0087
16669SOL    HW252450   1.711   2.160   9.101 -1.1438 -0.0629  0.3255
16670SOL     OW52451   0.450   0.963   0.475  0.0584  0.2465 -0.0051
16670SOL    HW152452   0.476   0.871   0.462 -0.2717  0.0795  0.5203
16670SOL    HW252453   0.531   1.006   0.502  0.1243  0.0334  0.1393
16671SOL     OW52454   7.193   1.705   7.099 -0.1102 -0.0346  0.2879
16671SOL    HW152455   7.154   1.786   7.068 -0.1891 -0.7449 -1.6252
16671SOL    HW252456   7.133   1.673   7.167 -0.9200  0.7111 -0.0640
16672SOL     OW52457   9.905   9.901   1.560  0.1447  0.2118 -0.0528
16672SOL    HW152458   9.883   9.927   1.649 -0.1130 -0.5775  0.1209
16672SOL    HW252459   9.958   9.973   1.526  0.6632  0.2959  0.9022
16673SOL     OW52460   2.329   8.096  10.250  0.2030  0.3093  0.2042
16673SOL    HW152461   2.326   8.137  10.164  1.2032 -1.4638 -0.7318
16673SOL    HW252462   2.337   8.002  10.232  0.8171 -0.0850  2.2336
16674SOL     OW52463   3.892   6.908   7.119  0.5415  0.5187  0.6329
16674SOL    HW152464   3.972   6.926   7.168  1.2907  1.2654 -0.8327
16674SOL    HW252465   3.830   6.974   7.150  2.2202  3.7483 -2.2036
16675SOL     OW52466   9.792   2.578   2.196  0.6729 -0.3614  0.2372
16675SOL    HW152467   9.752   2.626   2.124  2.1523  0.1768 -0.2730
16675SOL    HW252468   9.733   2.591   2.270 -0.3123 -0.0067 -0.5899
16676SOL     OW52469   5.529   9.136   4.857 -0.3806 -0.1149  0.6995
16676SOL    HW152470   5.450   9.082   4.849  0.7958 -1.8410 -0.0431
16676SOL    HW252471   5.509   9.216   4.810 -2.8155  0.9774  3.2649
16677SOL     OW52472   1.626   2.043   3.917  0.2237 -0.5771  0.2917
16677SOL    HW152473   1.679   2.061   3.839 -1.8596 -0.2634 -1.1511
16677SOL    HW252474   1.538   2.027   3.882 -0.7719 -0.4856  2.5976
16678SOL     OW52475   5.787   9.801   1.628  0.6208 -0.5829  0.4309
16678SOL    HW152476   5.856   9.830   1.568 -0.3122 -0.0320 -0.4158
16678SOL    HW252477   5.760   9.715   1.594 -1.2135  0.5326 -1.1773
16679SOL     OW52478   9.017   8.560   1.713 -0.2225 -0.5477 -0.1300
16679SOL    HW152479   9.094   8.504   1.716  0.6585  0.6599  1.6221
16679SOL    HW252480   9.010   8.588   1.621  3.0157  1.3424  0.0550
16680SOL     OW52481   1.262  10.384   5.161 -0.6259  0.3016 -0.6241
16680SOL    HW152482   1.203  10.459   5.154 -1.1304 -0.0906 -0.6614
16680SOL    HW252483   1.287  10.364   5.071  0.5911  1.2501 -0.5287
16681SOL     OW52484   9.616   7.063   8.548 -0.4313 -0.0393 -0.2062
16681SOL    HW152485   9.577   7.040   8.464 -1.3017  0.7625 -0.0363
16681SOL    HW252486   9.581   7.150   8.568 -3.7553 -1.8417  3.0362
16682SOL     OW52487   0.630   2.826   2.168  0.0343 -0.5993 -0.2834
16682SOL    HW152488   0.650   2.889   2.237 -2.3350 -1.1577  1.0387
16682SOL    HW252489   0.660   2.867   2.088  3.6075 -0.2505  1.0785
16683SOL     OW52490   6.956   7.515   2.001  0.3402  0.0886  0.1027
16683SOL    HW152491   6.991   7.594   2.043 -0.0367  0.3444 -0.0646
16683SOL    HW252492   7.028   7.485   1.945  0.0448  1.0476 -0.8296
16684SOL     OW52493   6.032   8.252   1.007 -0.4151 -0.3634 -0.3396
16684SOL    HW152494   6.123   8.224   1.009 -0.2784  0.1038  1.1771
16684SOL    HW252495   5.985   8.177   0.969  0.3907 -1.2440  0.3579
16685SOL     OW52496   6.242   2.580   8.977  0.0416  0.2932 -0.0524
16685SOL    HW152497   6.159   2.591   8.931  0.2481  2.1914 -0.0493
16685SOL    HW252498   6.219   2.583   9.070  0.1074  1.0497 -0.0493
16686SOL     OW52499   5.138   6.720   4.025 -0.0580 -0.4171  0.2012
16686SOL    HW152500   5.216   6.775   4.016 -1.2063  0.9848 -3.3838
16686SOL    HW252501   5.162   6.637   3.985  0.0098 -0.4625  0.3379
16687SOL     OW52502   9.631   1.920   7.641  0.2326  0.5153  0.1168
16687SOL    HW152503   9.701   1.945   7.580  0.7655  0.2042  0.5939
16687SOL    HW252504   9.574   1.863   7.590  0.1794  0.9735 -0.3517
16688SOL     OW52505   6.170   3.116   6.724  1.1018 -0.2434 -0.1460
16688SOL    HW152506   6.245   3.169   6.695  1.1851 -0.5377 -0.4684
16688SOL    HW252507   6.208   3.033   6.751  0.7441 -0.9544 -1.7454
16689SOL     OW52508   6.164   8.971   2.003 -0.9711  0.2054 -0.2512
16689SOL    HW152509   6.253   8.986   1.970 -1.3498  0.5282 -1.1524
16689SOL    HW252510   6.168   8.997   2.095 -0.1253  0.1778 -0.2684
16690SOL     OW52511   4.910   3.340   2.636 -0.8293  0.3690  0.1583
16690SOL    HW152512   4.947   3.396   2.568  1.7631  0.5791  1.6509
16690SOL    HW252513   4.943   3.253   2.616 -0.5379  0.3242  0.8163
16691SOL     OW52514   2.963   1.045   0.993 -0.2114  0.6826 -0.1985
16691SOL    HW152515   3.047   1.043   1.038 -0.4421  2.0141  0.3407
16691SOL    HW252516   2.933   0.954   0.992 -0.5768  0.6811  3.0823
16692SOL     OW52517   3.339   7.811   4.478  0.4245  0.0056  0.3261
16692SOL    HW152518   3.324   7.758   4.556 -1.4723  0.6187  0.4369
16692SOL    HW252519   3.330   7.750   4.405  1.8150 -0.4916  0.5441
16693SOL     OW52520   3.670   2.989   0.003 -0.1137  0.1747 -0.0720
16693SOL    HW152521   3.655   2.953  -0.084 -0.1994 -0.9348  0.3831
16693SOL    HW252522   3.678   3.084  -0.011 -1.2753  0.1455 -1.1337
16694SOL     OW52523   0.432   2.448   3.092 -0.0169  0.2669 -0.4439
16694SOL    HW152524   0.364   2.382   3.104  1.1110 -0.3948  3.1989
16694SOL    HW252525   0.438   2.457   2.996 -2.5917 -2.3047 -1.0188
16695SOL     OW52526   2.065  10.331   3.331  0.0288 -0.7876  0.5333
16695SOL    HW152527   2.039  10.251   3.375 -0.8473 -0.1096  1.3056
16695SOL    HW252528   2.097  10.303   3.246 -0.8186 -1.9013  0.5632
16696SOL     OW52529   2.577   5.512   6.249 -0.4017  0.1236 -0.2786
16696SOL    HW152530   2.511   5.450   6.282 -1.4017  2.5245  2.6167
16696SOL    HW252531   2.658   5.487   6.294 -1.1296  1.6688  2.0229
16697SOL     OW52532   2.983   2.542   6.773  0.0038  0.6542 -0.2630
16697SOL    HW152533   2.925   2.470   6.794 -0.6546  1.7200  1.8911
16697SOL    HW252534   2.950   2.576   6.690  0.6012 -1.7334 -1.5266
16698SOL     OW52535   2.260   2.766   3.131  0.5021  0.4745 -0.8899
16698SOL    HW152536   2.183   2.710   3.133  0.3296  0.7136  1.5654
16698SOL    HW252537   2.319   2.723   3.069  0.0786 -2.0159  0.3119
16699SOL     OW52538   5.477   7.555   4.693  1.1971 -0.0234  0.6640
16699SOL    HW152539   5.433   7.515   4.768  0.9402 -0.8140  0.1054
16699SOL    HW252540   5.552   7.601   4.731  0.7597  0.0515  1.4609
16700SOL     OW52541   8.918   8.340   7.950 -0.2535  0.0352 -0.7313
16700SOL    HW152542   8.864   8.313   8.024 -0.3486  0.5567 -0.6119
16700SOL    HW252543   9.005   8.355   7.988 -0.5614  1.3722 -0.5193
16701SOL     OW52544   8.699   1.875   6.659  0.0967  0.3312 -0.1549
16701SOL    HW152545   8.722   1.800   6.604  2.1494  0.1833  0.8078
16701SOL    HW252546   8.635   1.925   6.607 -1.0024 -1.8230 -0.9911
16702SOL     OW52547   6.839   0.157   4.381  0.2042 -0.2647  0.8256
16702SOL    HW152548   6.795   0.175   4.464  2.0480 -0.2370  1.8609
16702SOL    HW252549   6.855   0.243   4.343  1.1724 -0.1313  1.4801
16703SOL     OW52550   8.685   8.501   0.015 -0.2368 -0.0457 -0.1174
16703SOL    HW152551   8.733   8.432   0.060  0.0323  0.3038  0.1391
16703SOL    HW252552   8.627   8.537   0.082  0.2167  0.5244 -0.0204
16704SOL     OW52553  10.352   0.866   9.218  0.2008 -0.3846 -0.1636
16704SOL    HW152554  10.425   0.886   9.277  2.1646 -1.3020 -2.1362
16704SOL    HW252555  10.338   0.772   9.229  0.2767 -0.4755 -0.8153
16705SOL     OW52556   9.663   3.060   7.573 -0.4750  0.1190 -0.2652
16705SOL    HW152557   9.744   3.010   7.586  0.0331  1.2571  1.2610
16705SOL    HW252558   9.614   3.009   7.509  0.8203 -1.3537 -0.1617
16706SOL     OW52559   6.534   7.231   7.539  0.3412 -0.0134 -0.0778
16706SOL    HW152560   6.576   7.280   7.469  1.4274  1.0367  1.2748
16706SOL    HW252561   6.474   7.171   7.493  0.5473  1.0733 -1.8558
16707SOL     OW52562   7.636   3.237   6.041 -0.0368 -0.4723  0.2583
16707SOL    HW152563   7.555   3.240   6.091 -0.0141  2.2712  0.2770
16707SOL    HW252564   7.706   3.231   6.106 -0.1654 -1.6264  0.2986
16708SOL     OW52565   3.787   0.634   6.051  0.0888  0.4395 -0.1916
16708SOL    HW152566   3.739   0.671   6.124 -2.1214 -0.2242 -1.2308
16708SOL    HW252567   3.721   0.592   5.997  1.8958 -0.8340 -1.5509
16709SOL     OW52568   3.354   2.957   6.932  0.0839 -0.4522 -0.1187
16709SOL    HW152569   3.341   2.885   6.993 -1.5648 -0.4825 -0.4734
16709SOL    HW252570   3.289   2.943   6.863 -1.5876  2.3521  0.7382
16710SOL     OW52571   6.875  10.353   5.895 -0.6206 -0.0305  0.0709
16710SOL    HW152572   6.944  10.391   5.842  0.3175 -0.7440  0.7556
16710SOL    HW252573   6.921  10.306   5.964 -1.7013 -2.8586 -1.0103
16711SOL     OW52574   5.014   1.889   0.104 -0.1488 -0.2264  0.0497
16711SOL    HW152575   5.065   1.862   0.180  0.5291  0.3581 -0.1880
16711SOL    HW252576   5.065   1.858   0.029 -1.8910 -2.7648 -0.1850
16712SOL     OW52577   8.204   4.829   0.387  0.0630 -0.6210  0.0372
16712SOL    HW152578   8.117   4.801   0.415 -0.4788 -0.1152 -1.0369
16712SOL    HW252579   8.196   4.841   0.292  1.1937 -0.1745 -0.0262
16713SOL     OW52580   1.687   8.407   9.911  0.2401  0.6255  0.5911
16713SOL    HW152581   1.658   8.316   9.905  1.4183  0.1759  1.2092
16713SOL    HW252582   1.718   8.416  10.001  2.9892  0.7050 -0.2681
16714SOL     OW52583   3.895   5.036   9.824 -0.4193  0.0497  0.2225
16714SOL    HW152584   3.926   4.990   9.902  1.2399 -1.1821 -1.0707
16714SOL    HW252585   3.970   5.088   9.795 -0.3840 -0.8657 -1.4856
16715SOL     OW52586   4.293   4.067   7.434 -0.6964  0.2350 -0.8068
16715SOL    HW152587   4.304   4.154   7.396  0.5370  0.6993  0.5289
16715SOL    HW252588   4.382   4.034   7.445 -0.8637  0.6661  2.7899
16716SOL     OW52589   4.504   7.714   6.046 -0.1365 -0.1898  0.3512
16716SOL    HW152590   4.509   7.651   6.118 -3.2820 -1.4393 -0.3570
16716SOL    HW252591   4.539   7.667   5.970  0.8823  0.2558  0.5276
16717SOL     OW52592   3.716   0.449   2.999 -0.1487  0.1612  0.6004
16717SOL    HW152593   3.774   0.514   3.038 -0.2664  0.0789  0.9229
16717SOL    HW252594   3.652   0.431   3.068 -1.0028  0.7964  0.0039
16718SOL     OW52595   2.013  10.427   1.763 -0.1160  0.3310 -0.0156
16718SOL    HW152596   2.097  10.418   1.808 -1.1619  1.3250  2.3157
16718SOL    HW252597   1.967  10.345   1.782  0.3061 -0.2427 -1.3501
16719SOL     OW52598  10.046   0.742   0.787  0.0374  0.4515 -0.2740
16719SOL    HW152599  10.033   0.654   0.752  0.3369  0.0839  0.5088
16719SOL    HW252600  10.120   0.733   0.848 -1.1593  0.7996  1.3130
16720SOL     OW52601   4.695   6.612   6.518 -0.3763  0.1638 -0.0745
16720SOL    HW152602   4.735   6.586   6.600 -2.3885 -0.1861  0.8507
16720SOL    HW252603   4.610   6.569   6.518 -1.2939  1.8509 -1.3500
16721SOL     OW52604   0.658   8.571   1.478 -0.3761 -0.8151  0.3608
16721SOL    HW152605   0.588   8.574   1.544  0.4139 -0.9321  1.2351
16721SOL    HW252606   0.739   8.574   1.529  0.2932  1.3900 -0.7242
16722SOL     OW52607   4.663   4.307   9.374 -0.2890  0.3265  0.3166
16722SOL    HW152608   4.648   4.213   9.369 -0.9840  0.4832 -0.8754
16722SOL    HW252609   4.652   4.329   9.467 -3.6382 -0.2187  0.1774
16723SOL     OW52610   1.772   8.436   4.523 -0.2315  0.0910 -0.5014
16723SOL    HW152611   1.707   8.390   4.575  1.8215  0.6742  2.8990
16723SOL    HW252612   1.732   8.520   4.503 -1.2897 -0.3602 -0.3128
16724SOL     OW52613   9.537   5.515   2.080  0.2683 -0.0006  0.0456
16724SOL    HW152614   9.601   5.552   2.140  0.1490 -1.8189  1.3820
16724SOL    HW252615   9.452   5.531   2.122  0.0349  0.2455 -0.5102
16725SOL     OW52616   6.202   7.106   6.007  0.1493 -0.6871  0.0335
16725SOL    HW152617   6.233   7.142   5.924 -1.3637  2.4836  0.7014
16725SOL    HW252618   6.108   7.123   6.008  0.2737  0.4205  2.7992
16726SOL     OW52619   5.515   9.758   6.886  0.0046  0.2053 -0.2893
16726SOL    HW152620   5.466   9.740   6.966  1.4087 -0.4156  0.4782
16726SOL    HW252621   5.549   9.847   6.899  1.3514 -0.3899  0.4478
16727SOL     OW52622   0.249   7.561   2.159  0.4681 -0.4397  0.0412
16727SOL    HW152623   0.291   7.572   2.073  0.0114  0.3787 -0.0910
16727SOL    HW252624   0.264   7.645   2.203 -2.6115  0.6525 -0.7252
16728SOL     OW52625   2.089   9.517   5.464 -0.8507 -0.2309  0.3302
16728SOL    HW152626   2.103   9.530   5.370  2.3017  1.8843  0.9302
16728SOL    HW252627   2.135   9.436   5.484  1.8487  1.2497  0.5459
16729SOL     OW52628   2.504   2.816   8.871  0.5014 -0.1585 -0.2064
16729SOL    HW152629   2.555   2.808   8.790  1.0987 -2.4487  0.3260
16729SOL    HW252630   2.456   2.734   8.877 -0.4250  0.4444  1.2089
16730SOL     OW52631   6.888   6.934   6.362  0.0431  0.1451 -0.2342
16730SOL    HW152632   6.803   6.891   6.369  1.2937 -2.5464 -0.4811
16730SOL    HW252633   6.898   6.981   6.445 -1.4841  0.1728 -0.0414
16731SOL     OW52634   2.358   6.772   1.771  0.4567 -0.5220  0.0999
16731SOL    HW152635   2.289   6.739   1.713  0.8783 -1.3854  0.0724
16731SOL    HW252636   2.433   6.714   1.756  1.5174  0.9374 -0.5448
16732SOL     OW52637   3.713   5.183   0.223  0.0207  0.3014  0.0977
16732SOL    HW152638   3.741   5.092   0.217 -1.1926 -0.0873 -0.0403
16732SOL    HW252639   3.729   5.219   0.136 -0.1738  0.0106 -0.0594
16733SOL     OW52640   8.559   7.348   6.904  0.3734  0.0562  0.0573
16733SOL    HW152641   8.639   7.300   6.925  1.1106  0.6830 -1.1856
16733SOL    HW252642   8.589   7.431   6.866 -0.7699 -0.5152 -2.3392
16734SOL     OW52643   8.159   9.198   0.498 -0.0577 -0.3173  0.0629
16734SOL    HW152644   8.142   9.135   0.427 -0.6552 -0.3999  0.2696
16734SOL    HW252645   8.227   9.255   0.463  0.4907 -1.0698 -0.1331
16735SOL     OW52646   7.542   4.351   5.595  0.2750  0.6505  0.2563
16735SOL    HW152647   7.613   4.320   5.650  0.4632 -3.6362 -1.9569
16735SOL    HW252648   7.579   4.352   5.506 -1.9749 -0.5739 -0.7958
16736SOL     OW52649   6.011   8.638   9.383 -0.4208 -0.2898  0.0831
16736SOL    HW152650   6.018   8.634   9.288  0.2972 -0.4129  0.1363
16736SOL    HW252651   6.064   8.714   9.408  0.8263 -1.2719  0.5131
16737SOL     OW52652   5.201   6.018   0.118 -0.0937 -0.0729  0.2182
16737SOL    HW152653   5.262   6.090   0.132 -0.4275  0.4114 -0.8092
16737SOL    HW252654   5.119   6.047   0.158  0.1125 -0.4055  0.9044
16738SOL     OW52655   9.953   6.825   2.154 -0.0891 -0.7763  0.4622
16738SOL    HW152656  10.035   6.783   2.180  1.1927  0.7901 -0.8121
16738SOL    HW252657   9.965   6.846   2.062 -2.1259 -0.8672  0.1358
16739SOL     OW52658   4.456   6.872   0.038  0.6605  0.7336  0.2488
16739SOL    HW152659   4.500   6.954   0.018 -0.1371  0.9210 -0.8437
16739SOL    HW252660   4.371   6.879  -0.006 -0.9244  0.8138  3.0889
16740SOL     OW52661   1.979   7.032   1.684 -0.0866 -0.7262 -0.0093
16740SOL    HW152662   2.056   7.086   1.664 -0.0846  0.1025  2.0109
16740SOL    HW252663   1.905   7.089   1.663 -0.1028 -0.4478  0.7900
16741SOL     OW52664   1.330   2.671   5.827  0.3842  0.2339  0.2502
16741SOL    HW152665   1.306   2.754   5.786 -0.0851 -0.7295 -1.5316
16741SOL    HW252666   1.413   2.690   5.872 -0.0281  1.7999  0.4043
16742SOL     OW52667   7.737  10.285   0.526  0.1580 -0.0559 -0.7917
16742SOL    HW152668   7.832  10.293   0.534  0.0421  0.8912 -0.2433
16742SOL    HW252669   7.719  10.193   0.546  0.9900 -0.3318 -1.2794
16743SOL     OW52670   0.239   7.945   2.747 -0.3600 -0.2886  0.1887
16743SOL    HW152671   0.187   7.958   2.826 -1.0803  0.5389 -0.3886
16743SOL    HW252672   0.289   8.026   2.738 -1.3233  0.2354 -0.9126
16744SOL     OW52673   1.303   6.035   7.756  0.3817  0.0745 -0.7937
16744SOL    HW152674   1.308   6.127   7.731  1.5722  0.1892 -0.2102
16744SOL    HW252675   1.213   6.023   7.786  0.8185  1.6995  1.4625
16745SOL     OW52676   3.840   1.187   9.908  0.4923  0.4208 -0.1636
16745SOL    HW152677   3.765   1.176   9.851 -0.2533 -1.3469  1.0615
16745SOL    HW252678   3.828   1.273   9.949 -1.1885 -0.0740  0.4374
16746SOL     OW52679   4.252   3.493   2.794  0.1331  0.0880 -0.8749
16746SOL    HW152680   4.336   3.519   2.832  0.4942 -0.6062 -1.1773
16746SOL    HW252681   4.244   3.545   2.714 -0.7509  1.7474  0.2416
16747SOL     OW52682   5.441   3.649   8.843  0.2623  0.5063  0.1912
16747SOL    HW152683   5.498   3.616   8.773 -1.5587 -0.8704 -0.7441
16747SOL    HW252684   5.410   3.570   8.887 -1.6010  1.1187  0.0762
16748SOL     OW52685  10.274   1.358   3.207  0.7543 -0.3700 -0.1449
16748SOL    HW152686  10.260   1.447   3.237  1.1541 -0.3765  0.0673
16748SOL    HW252687  10.203   1.307   3.246  0.3472 -0.0948 -0.5131
16749SOL     OW52688   3.082   6.825   9.095 -0.3406  0.0319 -0.0514
16749SOL    HW152689   3.123   6.776   9.166 -0.6048 -0.1198 -0.0008
16749SOL    HW252690   3.074   6.914   9.129  1.6666  0.5322 -0.7571
16750SOL     OW52691   1.366   6.724   5.527  0.1884  0.4607 -0.2020
16750SOL    HW152692   1.354   6.796   5.589  0.8433  0.5485 -0.1612
16750SOL    HW252693   1.394   6.767   5.446 -0.1897  0.3104 -0.4128
16751SOL     OW52694   2.156   0.472   8.216  0.4632  0.4287 -0.2966
16751SOL    HW152695   2.169   0.383   8.183 -1.0928  0.5461 -1.3139
16751SOL    HW252696   2.230   0.521   8.181 -0.0619  0.0902 -1.9699
16752SOL     OW52697   9.028   2.663   7.399 -0.3973 -0.2267  0.1378
16752SOL    HW152698   8.991   2.715   7.471  1.9517  1.1051  0.5054
16752SOL    HW252699   9.030   2.724   7.325  0.2437 -0.5320 -0.1014
16753SOL     OW52700   8.747   6.247   4.549  0.8836  0.2130 -0.1730
16753SOL    HW152701   8.803   6.238   4.626  1.2498  0.1202 -0.4410
16753SOL    HW252702   8.791   6.313   4.496  0.6809  0.2139 -0.3405
16754SOL     OW52703   3.665   3.720   3.008 -0.0163 -0.0166 -0.2537
16754SOL    HW152704   3.738   3.730   3.069  0.3902  1.5249 -0.9365
16754SOL    HW252705   3.702   3.741   2.922 -1.1523  0.3782 -0.6673
16755SOL     OW52706   8.109   6.224   9.109  0.1622  0.0963 -0.1300
16755SOL    HW152707   8.093   6.317   9.125 -0.4580  0.2761 -1.6071
16755SOL    HW252708   8.058   6.178   9.176 -1.4407  0.7964 -0.8299
16756SOL     OW52709   5.357   5.762   0.181  0.5492 -0.2240 -0.4842
16756SOL    HW152710   5.342   5.848   0.142 -0.8553 -0.0339  0.4267
16756SOL    HW252711   5.437   5.773   0.233 -0.1465  0.8264  0.4085
16757SOL     OW52712   0.894   1.131   4.602 -0.7239  0.4136  0.0036
16757SOL    HW152713   0.976   1.177   4.584 -0.4994 -0.0552 -0.1894
16757SOL    HW252714   0.921   1.050   4.646 -1.1624  0.8125  1.0558
16758SOL     OW52715   5.604   7.788   4.078 -0.1127 -0.0009  0.3437
16758SOL    HW152716   5.611   7.741   4.161  0.6940 -0.9178 -0.2156
16758SOL    HW252717   5.515   7.770   4.047  0.8577 -3.2424 -1.0020
16759SOL     OW52718   7.573   0.331   4.758 -0.1754  0.0871  0.1098
16759SOL    HW152719   7.608   0.246   4.784  1.3693  0.4666 -0.5531
16759SOL    HW252720   7.583   0.333   4.663  0.0458  1.0875  0.1377
16760SOL     OW52721   9.795   3.012   0.537 -0.4254  0.2137 -0.2818
16760SOL    HW152722   9.797   2.919   0.562 -0.6208  0.9651  2.9732
16760SOL    HW252723   9.730   3.051   0.596  0.6690  2.6571 -0.5842
16761SOL     OW52724   3.942   6.375   1.839  0.0869  0.2572  0.1879
16761SOL    HW152725   3.899   6.416   1.915 -2.2936 -2.1872  0.3017
16761SOL    HW252726   4.023   6.339   1.875 -0.1927  0.5630  1.1778
16762SOL     OW52727   0.171   8.300   1.069 -0.0943 -0.2136 -0.2464
16762SOL    HW152728   0.098   8.250   1.104 -1.2459 -0.1256 -2.3285
16762SOL    HW252729   0.214   8.241   1.007  1.0020  0.0800  0.1987
16763SOL     OW52730  10.479   4.852   2.608  0.2206 -0.1088  0.6477
16763SOL    HW152731  10.524   4.932   2.584  1.4126 -1.1749 -0.8633
16763SOL    HW252732  10.387   4.878   2.618  0.6066  1.4529  0.3238
16764SOL     OW52733   7.419   6.863   1.198 -0.2946  0.9314 -0.3523
16764SOL    HW152734   7.449   6.944   1.157 -1.6019  1.5373 -0.1749
16764SOL    HW252735   7.325   6.877   1.212 -0.3611 -0.2512  0.5383
16765SOL     OW52736   5.081   5.346   8.496  0.0442  0.2207 -0.3723
16765SOL    HW152737   5.048   5.423   8.543  1.4384  0.2251  0.6918
16765SOL    HW252738   5.074   5.275   8.560  0.7901 -0.0525 -0.5845
16766SOL     OW52739   8.156   8.604   0.893 -0.6939  0.1521  0.0917
16766SOL    HW152740   8.235   8.617   0.841 -0.8072  0.3225 -0.0421
16766SOL    HW252741   8.097   8.675   0.865 -0.7026  0.3306  0.5553
16767SOL     OW52742   9.975   1.472   9.651  0.4573  0.8793 -0.0185
16767SOL    HW152743   9.885   1.502   9.643  0.6377  1.7578  1.0649
16767SOL    HW252744   9.981   1.398   9.590 -1.1551  0.4246  0.3402
16768SOL     OW52745   1.304   0.461   4.513  0.0568  0.4128 -0.7565
16768SOL    HW152746   1.318   0.370   4.488 -1.1887 -2.0234  5.5600
16768SOL    HW252747   1.392   0.494   4.532  0.2942 -1.3619  1.6637
16769SOL     OW52748   7.864   9.731   9.044  0.2583  0.5611 -0.4317
16769SOL    HW152749   7.860   9.734   9.139  0.7516  1.2410 -0.4261
16769SOL    HW252750   7.941   9.784   9.021 -0.2237  0.9370 -1.2332
16770SOL     OW52751   1.698   3.864   4.151  0.5643 -0.1152 -0.2228
16770SOL    HW152752   1.624   3.922   4.136 -1.7832 -3.4536 -3.4520
16770SOL    HW252753   1.708   3.862   4.246 -0.3634  3.9370  0.1253
16771SOL     OW52754   9.087   6.634   0.068 -0.1664  0.2357 -0.5332
16771SOL    HW152755   9.163   6.652   0.124 -0.3452 -0.3835 -0.0809
16771SOL    HW252756   9.125   6.600  -0.013  0.0545  0.2775 -0.4490
16772SOL     OW52757   9.982   4.825   1.691 -0.0312 -0.3191 -0.0091
16772SOL    HW152758  10.063   4.864   1.724 -1.6830  1.2896  2.4787
16772SOL    HW252759   9.923   4.899   1.677 -1.5918 -1.5315 -0.2055
16773SOL     OW52760   1.687   0.226   7.769  0.1240  0.0334 -0.1177
16773SOL    HW152761   1.595   0.252   7.769  0.1601  0.2079  0.8270
16773SOL    HW252762   1.735   0.306   7.746  0.2570  1.0373  3.0908
16774SOL     OW52763   4.638   5.953  10.148 -0.8306 -0.6261 -0.0179
16774SOL    HW152764   4.710   6.006  10.181 -0.5661 -0.5664 -0.6657
16774SOL    HW252765   4.664   5.932  10.058 -1.2990 -1.1881 -0.0264
16775SOL     OW52766   9.016   1.122   2.619  0.2254  0.0195  0.2236
16775SOL    HW152767   9.050   1.162   2.699 -2.2589  0.5744  1.0790
16775SOL    HW252768   8.945   1.180   2.592 -0.3543 -1.2976 -1.1988
16776SOL     OW52769   7.810   7.775   5.298  0.5680 -0.1345 -0.3104
16776SOL    HW152770   7.761   7.693   5.294  0.3376  0.0363 -1.2910
16776SOL    HW252771   7.798   7.806   5.388 -0.3622 -0.5633 -0.2732
16777SOL     OW52772   8.659   1.461   6.899 -0.0072  0.0410 -0.2735
16777SOL    HW152773   8.578   1.412   6.886 -1.0335  0.9537  2.1038
16777SOL    HW252774   8.728   1.394   6.895 -0.9675 -0.9448 -1.1334
16778SOL     OW52775  10.244   5.533   8.394 -0.3473 -0.2550  0.3528
16778SOL    HW152776  10.209   5.596   8.457 -1.3434 -1.9093  1.5371
16778SOL    HW252777  10.187   5.541   8.318 -0.1622  0.6061  0.2981
16779SOL     OW52778   0.088   2.819   4.029 -0.5962  1.0420  0.0118
16779SOL    HW152779   0.111   2.853   4.116  2.6021  1.3335 -0.8078
16779SOL    HW252780   0.125   2.883   3.968 -2.7678  0.8316 -1.6059
16780SOL     OW52781   4.334   8.978   5.563  0.3616  0.3512  0.1133
16780SOL    HW152782   4.425   9.007   5.555  0.6802 -0.0642  1.7572
16780SOL    HW252783   4.283   9.049   5.524  1.3437  1.0750  0.1073
16781SOL     OW52784   6.937   3.313   6.746  0.4602 -0.3567  0.3626
16781SOL    HW152785   6.925   3.247   6.678 -0.8555 -0.1004  0.3117
16781SOL    HW252786   7.032   3.320   6.757  0.8243  0.8613 -2.6863
16782SOL     OW52787   5.583   9.624   3.984  0.0025 -0.4442 -0.4813
16782SOL    HW152788   5.659   9.594   4.035 -0.9523 -0.9405  0.7011
16782SOL    HW252789   5.550   9.699   4.034 -1.4274 -1.4292  0.1021
16783SOL     OW52790   7.781   3.680   6.208  0.0672 -0.2028  0.0298
16783SOL    HW152791   7.787   3.769   6.172  1.5134  0.2387  1.2447
16783SOL    HW252792   7.806   3.623   6.136  0.0360  0.4500 -0.5114
16784SOL     OW52793   8.740   2.415   1.259 -0.3936  0.4670  0.1216
16784SOL    HW152794   8.749   2.434   1.166 -3.2944 -1.8352 -0.7952
16784SOL    HW252795   8.815   2.359   1.279  0.6673  1.5778 -0.5984
16785SOL     OW52796   9.085  10.130   3.880  0.3140  0.1742 -0.4834
16785SOL    HW152797   9.113  10.221   3.885  2.4524 -0.4974  1.4266
16785SOL    HW252798   9.083  10.100   3.971 -0.4254 -1.6606 -1.0497
16786SOL     OW52799   8.249   5.691   8.414 -0.4355  0.3362 -1.1294
16786SOL    HW152800   8.247   5.645   8.498 -0.7571 -1.9063 -2.2944
16786SOL    HW252801   8.205   5.774   8.432 -1.5522 -0.5738  0.6643
16787SOL     OW52802  10.266   6.589   5.307  0.1719 -0.2994  0.1906
16787SOL    HW152803  10.176   6.621   5.316  0.3955  0.0515  1.3483
16787SOL    HW252804  10.298   6.582   5.397  0.5996 -2.4912 -0.0682
16788SOL     OW52805   2.273   2.761   1.343  0.3508 -0.2034  0.3230
16788SOL    HW152806   2.195   2.775   1.397  0.8942 -0.1908  1.1266
16788SOL    HW252807   2.345   2.757   1.406  0.8656 -1.3583 -0.3093
16789SOL     OW52808   0.610   9.800   3.705  0.2127 -0.1263  0.2180
16789SOL    HW152809   0.560   9.851   3.769  1.3648  1.7361 -0.2729
16789SOL    HW252810   0.698   9.794   3.742  0.6357  0.0916 -0.7051
16790SOL     OW52811   9.306   7.280   2.564 -0.0488 -0.0882  0.3466
16790SOL    HW152812   9.273   7.350   2.508 -0.2256  0.4004  1.0456
16790SOL    HW252813   9.367   7.324   2.624  0.5348 -0.6901  0.2045
16791SOL     OW52814   7.818   7.287   5.287  0.3334  0.3931  0.3097
16791SOL    HW152815   7.883   7.244   5.231  1.7194  1.1097  1.2881
16791SOL    HW252816   7.871   7.332   5.354 -1.2139  0.4793  1.5198
16792SOL     OW52817   8.984   6.643   2.791 -0.3490  0.1864 -0.3502
16792SOL    HW152818   9.015   6.727   2.758 -2.0202 -0.1220 -2.9695
16792SOL    HW252819   8.907   6.664   2.843 -0.4201  0.3221 -0.5107
16793SOL     OW52820   4.151   0.152   9.138  0.1403 -0.3731 -0.1915
16793SOL    HW152821   4.165   0.164   9.232 -0.0334  0.6792 -0.2950
16793SOL    HW252822   4.070   0.200   9.119  0.0295 -0.7964 -0.8373
16794SOL     OW52823   6.534   0.761   7.727 -0.6548 -0.4928 -0.6423
16794SOL    HW152824   6.628   0.779   7.717 -0.7277  0.3667  0.1241
16794SOL    HW252825   6.512   0.795   7.814 -1.8574  0.0990 -1.1551
16795SOL     OW52826   3.982   8.226   8.181  0.1575  0.1647 -0.5798
16795SOL    HW152827   4.036   8.290   8.225 -1.0614  0.9835 -0.2208
16795SOL    HW252828   3.992   8.245   8.088 -0.0736  0.7902 -0.4821
16796SOL     OW52829   9.989   6.317   1.538  0.4383 -0.0900  0.0706
16796SOL    HW152830  10.021   6.249   1.596 -1.3315 -0.2497  0.9295
16796SOL    HW252831   9.997   6.398   1.589 -0.6586 -0.1618  0.3801
16797SOL     OW52832   9.156   1.573   5.723 -0.0120 -0.3129  0.2645
16797SOL    HW152833   9.115   1.512   5.662 -0.4149  0.6950 -0.5094
16797SOL    HW252834   9.098   1.649   5.724  0.6198  0.1789  0.9854
16798SOL     OW52835   9.161   3.726   1.705 -0.2752  0.0718 -0.2273
16798SOL    HW152836   9.118   3.667   1.642  1.5169 -0.5193 -0.9414
16798SOL    HW252837   9.192   3.799   1.653 -1.1890  0.9628  0.4390
16799SOL     OW52838   8.215   1.994   0.648 -0.1898 -0.7374 -0.4912
16799SOL    HW152839   8.258   2.078   0.654 -1.7026  0.1120 -0.9355
16799SOL    HW252840   8.253   1.941   0.718  0.5324  0.4281  0.0048
16800SOL     OW52841   9.110   5.781   1.651 -0.1327 -0.0215 -0.3410
16800SOL    HW152842   9.072   5.852   1.600 -2.6524 -1.5880 -0.8237
16800SOL    HW252843   9.185   5.751   1.599 -0.3882  0.8259 -1.2237
16801SOL     OW52844   5.802   4.997   6.311  0.3066  0.1737  0.0638
16801SOL    HW152845   5.887   4.985   6.353  0.3184 -0.9700 -0.2280
16801SOL    HW252846   5.768   4.907   6.301  0.2458  0.3919 -2.2020
16802SOL     OW52847   7.535   0.400   1.593  0.4253  0.0293  0.4002
16802SOL    HW152848   7.443   0.426   1.589  0.4704  0.4862  1.8198
16802SOL    HW252849   7.578   0.472   1.639  1.0168 -1.3687  2.1613
16803SOL     OW52850   7.996   2.030   3.261 -0.5086  0.0675  0.0925
16803SOL    HW152851   8.049   1.992   3.191  0.0081 -0.5846  0.8205
16803SOL    HW252852   7.908   2.037   3.224 -0.7519 -2.3121  0.0751
16804SOL     OW52853   8.905   2.008   6.774 -0.6403 -0.0682 -0.2673
16804SOL    HW152854   8.834   1.954   6.739 -1.4303 -1.4904  3.1403
16804SOL    HW252855   8.861   2.080   6.818  0.1874  0.4573 -0.2777
16805SOL     OW52856   1.613   8.069   9.977 -0.6979 -0.3564 -0.5008
16805SOL    HW152857   1.625   8.077   9.882  0.0897  3.7623 -0.2524
16805SOL    HW252858   1.529   8.113   9.994 -1.0138 -1.3769  0.7165
16806SOL     OW52859   6.627   5.945   4.873  0.4626 -0.1146  0.2981
16806SOL    HW152860   6.665   6.028   4.900 -0.3885 -0.0107  1.2685
16806SOL    HW252861   6.538   5.948   4.908  0.5976 -1.6588  0.8466
16807SOL     OW52862   6.356  10.039   8.552  0.0212 -0.0522  0.8401
16807SOL    HW152863   6.310  10.060   8.634  0.6554  0.3408  1.0970
16807SOL    HW252864   6.355   9.943   8.549 -2.6115 -0.0916 -0.1811
16808SOL     OW52865   5.997   4.033   5.908  0.1533 -0.2258  0.2818
16808SOL    HW152866   6.057   4.042   5.835 -1.6162  0.7403 -1.1408
16808SOL    HW252867   6.004   3.941   5.935 -0.0315 -0.9447 -1.9315
16809SOL     OW52868   9.598   0.522  10.450 -0.4154  0.0011 -0.7013
16809SOL    HW152869   9.561   0.458  10.388  0.7320 -0.8489 -0.5328
16809SOL    HW252870   9.692   0.505  10.450 -0.4030 -0.2570  1.5330
16810SOL     OW52871   5.751   0.186   2.235 -0.9076 -0.2437  0.0749
16810SOL    HW152872   5.742   0.238   2.314  0.1181  1.2165 -0.7221
16810SOL    HW252873   5.832   0.136   2.248 -0.0688  0.9218 -0.5259
16811SOL     OW52874   3.569  10.356  10.029 -0.4143 -0.0170 -0.0592
16811SOL    HW152875   3.577  10.291  10.099  0.4556  1.6003  1.4456
16811SOL    HW252876   3.577  10.306   9.948  0.0715 -1.7885  1.0323
16812SOL     OW52877   5.203   2.932   6.494  0.1519  0.1591 -0.5059
16812SOL    HW152878   5.181   2.859   6.552 -0.2170  0.0390 -0.7920
16812SOL    HW252879   5.235   2.890   6.414  1.1811  0.3285 -0.1962
16813SOL     OW52880   3.115   4.207   9.162  0.1090 -0.3831 -0.4684
16813SOL    HW152881   3.067   4.167   9.089 -3.7908  0.5464  1.2857
16813SOL    HW252882   3.117   4.300   9.142 -0.3615 -0.2090  0.2389
16814SOL     OW52883   8.267   4.676   2.164 -0.1419  0.2263  0.4874
16814SOL    HW152884   8.216   4.756   2.174  0.2236  0.4895  0.2597
16814SOL    HW252885   8.327   4.694   2.091  0.1866 -0.1233  0.6660
16815SOL     OW52886   0.461   4.808   4.243  0.2450 -0.5833 -0.1613
16815SOL    HW152887   0.528   4.742   4.224 -0.8039 -1.5634 -0.5578
16815SOL    HW252888   0.505   4.892   4.227  1.4433 -1.1978 -0.1618
16816SOL     OW52889   1.669   9.636   6.330  0.5110 -0.4960 -0.8854
16816SOL    HW152890   1.755   9.637   6.374 -0.0059 -2.1018  0.2691
16816SOL    HW252891   1.632   9.551   6.355 -1.8724  0.6087 -0.4673
16817SOL     OW52892   2.924   7.761   5.772  0.1336 -0.0503  0.3424
16817SOL    HW152893   2.938   7.770   5.866 -0.9017  1.2224  0.3978
16817SOL    HW252894   2.839   7.803   5.756  0.4781  0.1136 -1.2069
16818SOL     OW52895   9.835   7.609  10.056 -0.0843 -0.0053  0.6490
16818SOL    HW152896   9.803   7.634  10.142 -0.6584 -0.7706  0.6702
16818SOL    HW252897   9.915   7.559  10.074  0.1335  0.3566  0.6990
16819SOL     OW52898   1.405   0.541   2.161 -0.4052  0.1739  0.2286
16819SOL    HW152899   1.341   0.612   2.166 -0.6359 -0.0988  1.2584
16819SOL    HW252900   1.381   0.493   2.081 -0.0392  1.4229 -0.6712
16820SOL     OW52901   2.000   4.973   1.780 -0.2787  0.5932 -0.2594
16820SOL    HW152902   1.927   5.011   1.830 -1.3261 -1.7438  0.1215
16820SOL    HW252903   2.032   4.901   1.835 -0.1970 -0.8221 -2.0667
16821SOL     OW52904   7.400   6.936   1.815 -0.1773 -0.5944  0.2217
16821SOL    HW152905   7.459   7.011   1.806 -0.6289 -0.3318 -0.6355
16821SOL    HW252906   7.351   6.955   1.896 -0.0335 -0.1436  0.2085
16822SOL     OW52907   2.558   3.542   6.205  0.6759  0.5726 -0.5623
16822SOL    HW152908   2.511   3.622   6.230 -0.6406 -0.5749  0.7799
16822SOL    HW252909   2.531   3.477   6.269  1.6206 -1.0119 -1.7040
16823SOL     OW52910   9.189   1.479   9.515  0.0808 -0.6682  0.2551
16823SOL    HW152911   9.119   1.542   9.497 -0.2192 -0.8471  0.7524
16823SOL    HW252912   9.145   1.394   9.513  0.1908 -0.7470  1.0089
16824SOL     OW52913   9.087   6.248   0.186 -0.0815  0.0671 -0.1942
16824SOL    HW152914   9.116   6.163   0.220 -1.3327 -1.2065 -2.0912
16824SOL    HW252915   8.991   6.242   0.188 -0.1811  1.1568 -1.0281
16825SOL     OW52916   6.363   7.808   0.107  0.2326 -0.9168  0.3443
16825SOL    HW152917   6.451   7.790   0.142  1.0986  0.3168 -1.0671
16825SOL    HW252918   6.347   7.900   0.129 -0.6079 -1.0706  0.3834
16826SOL     OW52919   6.391   5.804  10.018  0.5520 -0.4608  0.5590
16826SOL    HW152920   6.476   5.775   9.986 -0.2548  0.2875 -2.7077
16826SOL    HW252921   6.392   5.899  10.005 -1.5131 -0.6639 -1.8564
16827SOL     OW52922   7.721   1.799   5.004  0.1479  1.3393  0.0473
16827SOL    HW152923   7.706   1.861   4.932  0.8912  0.3571 -0.9879
16827SOL    HW252924   7.811   1.816   5.031  1.1410 -0.6610 -1.6953
16828SOL     OW52925   8.437   0.556   3.736 -0.1277 -0.1644 -0.1288
16828SOL    HW152926   8.475   0.483   3.688  1.0003  0.1654  0.2465
16828SOL    HW252927   8.356   0.521   3.773  0.3295 -1.1834 -0.0701
16829SOL     OW52928   3.091   9.449   6.175 -0.0162 -0.7271  0.3209
16829SOL    HW152929   3.078   9.444   6.080 -1.1534 -1.6658  0.5060
16829SOL    HW252930   3.055   9.535   6.199  0.6721 -0.3028 -0.1489
16830SOL     OW52931   0.228   5.489   2.831  0.0962 -0.1600  0.6173
16830SOL    HW152932   0.152   5.537   2.798  0.7040  0.3628 -0.0434
16830SOL    HW252933   0.238   5.519   2.921  0.1279  0.5251  0.3894
16831SOL     OW52934   8.062   6.760   1.810 -0.1081 -0.2587  0.1703
16831SOL    HW152935   8.101   6.675   1.791 -0.1068 -0.0915 -0.6012
16831SOL    HW252936   8.088   6.815   1.737 -0.4916  0.2821  0.4347
16832SOL     OW52937   3.392   9.693   6.473 -0.0398 -0.0467  0.0234
16832SOL    HW152938   3.333   9.641   6.527  0.4780 -1.5005 -0.7652
16832SOL    HW252939   3.394   9.648   6.388  3.4007 -1.0360  0.4602
16833SOL     OW52940   6.520   6.390   9.990 -0.5150  0.2414  0.0325
16833SOL    HW152941   6.559   6.307  10.016 -1.4895 -0.6670 -1.2547
16833SOL    HW252942   6.426   6.379  10.004 -0.4786  2.1769  2.5033
16834SOL     OW52943  10.253   5.768   0.430  0.4013  0.8776  0.3071
16834SOL    HW152944  10.348   5.759   0.419  0.3655  0.0423  0.6300
16834SOL    HW252945  10.223   5.804   0.346  0.8177 -0.2922 -0.3633
16835SOL     OW52946  10.057   1.103   4.418  0.1394  0.2190  0.1272
16835SOL    HW152947  10.053   1.009   4.400 -1.8979 -0.1431  1.9575
16835SOL    HW252948  10.128   1.136   4.363  0.2207 -2.2008 -1.3398
16836SOL     OW52949   0.394   3.738   0.982  0.1905 -0.5253 -0.5259
16836SOL    HW152950   0.306   3.773   0.972 -0.2884 -0.9129  1.8355
16836SOL    HW252951   0.441   3.769   0.904 -1.2956  1.8701 -0.5601
16837SOL     OW52952   0.623   9.592   8.445 -0.5204 -0.2363 -0.0090
16837SOL    HW152953   0.596   9.540   8.369  1.1517 -1.6082  0.2778
16837SOL    HW252954   0.697   9.544   8.481 -0.1692  1.3425  1.4611
16838SOL     OW52955   7.232   6.731   4.386 -0.2282 -0.1941  0.3065
16838SOL    HW152956   7.156   6.740   4.445 -0.5817 -0.8320 -0.0433
16838SOL    HW252957   7.219   6.647   4.343 -0.2492  0.5009 -1.0905
16839SOL     OW52958   6.375   4.547   2.158  0.3607  0.2881 -0.4483
16839SOL    HW152959   6.442   4.615   2.170  0.9609 -0.5275  1.2100
16839SOL    HW252960   6.297   4.584   2.198  0.7848 -0.1003  0.7910
16840SOL     OW52961   7.758   6.284   2.514 -0.0926 -0.6713  0.1060
16840SOL    HW152962   7.832   6.225   2.532  0.5728  0.4273  1.1381
16840SOL    HW252963   7.707   6.283   2.595  0.6592  1.1641  0.6524
16841SOL     OW52964   6.427   5.405   8.061 -0.2212  0.3164  0.4178
16841SOL    HW152965   6.406   5.451   7.980  1.8608  1.4026  0.4472
16841SOL    HW252966   6.433   5.474   8.127 -0.2738 -0.3849  1.1729
16842SOL     OW52967   6.970   9.671   3.508  0.6819  0.2887  0.3415
16842SOL    HW152968   7.042   9.616   3.539  1.0157  0.6356  0.1998
16842SOL    HW252969   6.912   9.680   3.583  0.8515  0.1045  0.4944
16843SOL     OW52970   1.743   5.467   7.570 -0.2470  0.2060  0.2021
16843SOL    HW152971   1.714   5.558   7.574 -0.3576  0.1801  0.0090
16843SOL    HW252972   1.731   5.443   7.478 -0.0735  0.0449  0.2219
16844SOL     OW52973   9.362   1.434  10.031 -0.6790 -0.2820 -0.1903
16844SOL    HW152974   9.422   1.436   9.957 -1.4762  1.6035 -0.8445
16844SOL    HW252975   9.406   1.379  10.096  1.9584  1.3541 -0.4692
16845SOL     OW52976   6.023   7.410   7.676  0.3603  0.0643  0.3818
16845SOL    HW152977   6.095   7.350   7.691 -0.3574 -0.5188  1.5725
16845SOL    HW252978   6.042   7.448   7.590  1.6878 -0.6155  0.3470
16846SOL     OW52979   4.831   5.366   0.670  0.6549 -0.1529 -0.1520
16846SOL    HW152980   4.764   5.394   0.732  1.1159 -0.5582  0.5417
16846SOL    HW252981   4.905   5.338   0.725  0.9670 -0.7807 -0.8693
16847SOL     OW52982   8.575   8.509   9.391  0.2874 -0.4098  0.2093
16847SOL    HW152983   8.620   8.562   9.325 -2.1820  0.3868 -0.9714
16847SOL    HW252984   8.642   8.451   9.426  1.9892  0.0582 -2.0823
16848SOL     OW52985   9.312   0.945   9.129 -0.5957 -0.0167 -0.3838
16848SOL    HW152986   9.270   1.031   9.132 -1.0397 -0.2439  0.0236
16848SOL    HW252987   9.243   0.883   9.153  0.4979 -0.2273  2.6593
16849SOL     OW52988   6.842   5.003   4.449 -0.6747 -0.8695  0.3215
16849SOL    HW152989   6.765   5.048   4.415 -0.3431 -0.3457  0.2603
16849SOL    HW252990   6.846   5.028   4.542  0.0412 -0.0203  0.0677
16850SOL     OW52991   7.849   7.690   5.036 -0.0812 -0.4797 -0.4833
16850SOL    HW152992   7.763   7.679   4.995 -0.4664 -0.3090  0.2529
16850SOL    HW252993   7.836   7.760   5.101  1.1007  0.9747 -1.7124
16851SOL     OW52994   4.442  10.359   9.083 -0.1393 -0.4507  0.2831
16851SOL    HW152995   4.517  10.308   9.051  1.0770  1.1480  0.4403
16851SOL    HW252996   4.422  10.420   9.013 -0.7965 -0.3390  0.5614
16852SOL     OW52997   1.319   4.921   7.641 -0.9336  0.2963 -0.2534
16852SOL    HW152998   1.259   4.868   7.693 -2.2047  3.3495  1.6780
16852SOL    HW252999   1.272   4.938   7.559 -1.2421 -0.1145 -0.1608
16853SOL     OW53000   0.204   7.302   7.362 -0.3747  0.5482  0.0118
16853SOL    HW153001   0.178   7.260   7.444 -1.9807  0.9405 -0.2639
16853SOL    HW253002   0.152   7.382   7.359 -0.1319  0.6710 -1.2676
16854SOL     OW53003   0.409   4.704   5.233 -0.4994  0.0046 -0.1916
16854SOL    HW153004   0.465   4.761   5.180 -0.2587 -1.5500 -1.7071
16854SOL    HW253005   0.466   4.633   5.262 -1.2355 -0.5665 -0.1056
16855SOL     OW53006  10.126   8.169   1.984 -0.0582  0.1768 -0.6801
16855SOL    HW153007  10.057   8.200   2.042 -0.0436 -1.0833  0.0508
16855SOL    HW253008  10.184   8.117   2.041 -0.1303 -1.2408 -1.8273
16856SOL     OW53009   5.963   9.364   8.433 -0.3174 -0.5460  0.0055
16856SOL    HW153010   5.913   9.431   8.481  0.8618  0.6263 -0.3422
16856SOL    HW253011   6.023   9.328   8.498  2.3964  2.1464 -0.7733
16857SOL     OW53012  10.292   0.152   3.370  0.2607 -0.5867  0.3214
16857SOL    HW153013  10.357   0.093   3.407  0.7523 -0.8216 -0.8709
16857SOL    HW253014  10.219   0.150   3.432  0.2604 -2.4386  0.2954
16858SOL     OW53015   1.991   5.312   1.965 -0.2315 -0.4935  0.4934
16858SOL    HW153016   2.060   5.271   1.913  1.6388  1.9527  0.8738
16858SOL    HW253017   1.942   5.365   1.903 -1.5255 -1.8115  0.3251
16859SOL     OW53018   5.782   1.930   9.220 -0.2208  0.7570  0.3088
16859SOL    HW153019   5.877   1.932   9.208 -0.0856 -1.6890  0.3630
16859SOL    HW253020   5.769   1.954   9.312  0.1502  2.8620 -0.1434
16860SOL     OW53021   9.154   0.874   8.353  0.2855  0.1068  0.1920
16860SOL    HW153022   9.115   0.810   8.413  0.6765  1.4801  1.9958
16860SOL    HW253023   9.094   0.949   8.356  1.9794  1.4813  1.5017
16861SOL     OW53024  10.063   6.865   1.304 -0.2961  0.5832  0.3747
16861SOL    HW153025   9.999   6.931   1.278 -1.7699 -0.0310  2.2076
16861SOL    HW253026  10.085   6.888   1.394  0.8559 -0.1711  0.3100
16862SOL     OW53027   7.588   6.098   1.978  0.5466 -0.0496 -0.0845
16862SOL    HW153028   7.666   6.043   1.966  0.3264 -0.1564 -1.0875
16862SOL    HW253029   7.554   6.072   2.064  0.2835 -1.7048 -0.6543
16863SOL     OW53030   5.079   2.380   9.416 -0.0322  0.8567  0.3581
16863SOL    HW153031   5.121   2.369   9.501 -0.1388  0.6762  0.3894
16863SOL    HW253032   4.990   2.409   9.437 -0.7806 -1.2964  0.4179
16864SOL     OW53033   2.793   3.727   4.415 -0.1269  0.3376 -0.3287
16864SOL    HW153034   2.788   3.819   4.444 -0.6944  0.8190 -1.8476
16864SOL    HW253035   2.720   3.684   4.459 -0.2653  0.7749 -0.1276
16865SOL     OW53036   1.757   0.522   0.893  0.5168 -0.0439 -0.1009
16865SOL    HW153037   1.800   0.475   0.964  0.1089 -0.6833 -0.2697
16865SOL    HW253038   1.826   0.540   0.830  0.4162 -1.8164 -0.7717
16866SOL     OW53039   5.468   6.509   5.034  0.0324  0.1585 -0.1543
16866SOL    HW153040   5.524   6.439   4.999  1.3943  0.0595  2.0412
16866SOL    HW253041   5.402   6.522   4.967  0.3317 -2.5309 -1.0937
16867SOL     OW53042   0.916   8.194   9.165  0.2121 -0.0475  0.0340
16867SOL    HW153043   0.910   8.282   9.203  0.7264 -0.1488  0.3649
16867SOL    HW253044   1.009   8.184   9.145 -0.0490  0.0360 -1.3382
16868SOL     OW53045  10.226   1.198   5.510  0.2579 -0.1187  0.3860
16868SOL    HW153046  10.202   1.119   5.559 -1.2097  0.8663  1.3407
16868SOL    HW253047  10.322   1.194   5.504  0.3133 -1.3410  1.5098
16869SOL     OW53048   7.634   5.927   5.486 -0.3740  0.1279 -0.1699
16869SOL    HW153049   7.681   5.932   5.403 -0.5565 -0.0493 -0.2835
16869SOL    HW253050   7.623   5.833   5.502  0.8744  0.1000  0.7334
16870SOL     OW53051   7.726   1.295   8.125  0.0490 -0.2577 -0.1436
16870SOL    HW153052   7.699   1.387   8.121 -0.3666 -0.4079 -0.8751
16870SOL    HW253053   7.791   1.286   8.056  0.9059 -0.2639  0.6358
16871SOL     OW53054   0.316  10.231   8.231  0.0168  0.6048 -0.4718
16871SOL    HW153055   0.228  10.205   8.258  0.5481  1.4220  2.4901
16871SOL    HW253056   0.374  10.164   8.267  0.7502  1.3401 -0.2296
16872SOL     OW53057   2.798   3.127   0.949 -0.1654  0.3535  0.3425
16872SOL    HW153058   2.889   3.113   0.924 -0.0330  1.1557  0.3501
16872SOL    HW253059   2.803   3.163   1.038 -0.5732 -1.2358  1.0375
16873SOL     OW53060   0.285   2.990   7.707 -0.1390  0.3194  0.2833
16873SOL    HW153061   0.191   2.983   7.689 -0.0482  0.1155 -0.1444
16873SOL    HW253062   0.310   3.074   7.668  0.0308 -0.0558 -0.4312
16874SOL     OW53063   0.575   9.661   6.273  0.0464  0.2705 -0.4983
16874SOL    HW153064   0.547   9.727   6.209 -0.8252 -0.5706 -1.0081
16874SOL    HW253065   0.663   9.688   6.297 -0.3751  1.7745 -0.4907
16875SOL     OW53066   5.457   6.590   4.122 -0.2326  0.4917 -0.0624
16875SOL    HW153067   5.421   6.501   4.130  0.4806  0.2275  0.3276
16875SOL    HW253068   5.552   6.577   4.118 -0.1884  1.1063 -2.0223
16876SOL     OW53069   1.985   2.067   2.265  0.1481 -0.3935  0.1634
16876SOL    HW153070   2.015   2.144   2.217 -0.9628 -1.1140 -1.7977
16876SOL    HW253071   1.899   2.093   2.300 -1.1347 -1.2734 -2.1344
16877SOL     OW53072   1.342   5.808   0.448 -0.2551  0.5886  0.4503
16877SOL    HW153073   1.313   5.814   0.357 -0.8789 -0.7399  0.5345
16877SOL    HW253074   1.314   5.891   0.487 -2.2372  0.1836  0.0246
16878SOL     OW53075   9.042   1.033   1.773  0.1099  0.0947 -0.2588
16878SOL    HW153076   9.064   0.945   1.801  1.2031  1.8878  6.2207
16878SOL    HW253077   9.127   1.076   1.761  0.0122  1.7106  3.5369
16879SOL     OW53078   3.864   8.725   5.152  0.0720 -0.5874 -0.2899
16879SOL    HW153079   3.784   8.763   5.187 -0.1148 -0.9039 -0.3695
16879SOL    HW253080   3.906   8.682   5.227  0.6433  0.3777 -0.0452
16880SOL     OW53081   4.217   1.837   8.086  0.0130 -0.2444 -0.1876
16880SOL    HW153082   4.185   1.766   8.141  0.2259 -0.7013 -0.6441
16880SOL    HW253083   4.144   1.856   8.026  0.6597 -1.4868 -1.4238
16881SOL     OW53084   3.059   6.672   5.679 -0.1589  0.5297  0.2821
16881SOL    HW153085   3.023   6.730   5.613 -0.7486 -0.3926 -0.2217
16881SOL    HW253086   2.993   6.604   5.691  1.4743 -1.4075 -0.9079
16882SOL     OW53087   9.747   7.899   2.733  0.3358 -0.5745 -0.3940
16882SOL    HW153088   9.804   7.919   2.807 -0.2767 -2.8988  0.8149
16882SOL    HW253089   9.697   7.979   2.718  0.9056  0.1361  1.3197
16883SOL     OW53090   4.234   2.684   3.321  0.3002 -0.7438  0.5887
16883SOL    HW153091   4.329   2.680   3.335  0.1880 -1.2093  1.2972
16883SOL    HW253092   4.198   2.692   3.409 -0.3330 -0.8115  0.3389
16884SOL     OW53093   8.677   0.697   0.375 -0.1399  0.5680 -0.0439
16884SOL    HW153094   8.676   0.742   0.459  1.5612  2.5192 -0.9907
16884SOL    HW253095   8.593   0.720   0.335 -1.0876 -0.6016  1.1439
16885SOL     OW53096   8.342   8.175   2.759 -0.5915  0.0528 -0.1576
16885SOL    HW153097   8.384   8.230   2.825  0.2164 -1.8520  1.0039
16885SOL    HW253098   8.412   8.152   2.698 -0.9834  0.4776 -0.7888
16886SOL     OW53099   4.537   2.518   7.522  0.1456  0.6141  0.2313
16886SOL    HW153100   4.579   2.434   7.540  0.6756  1.0208  0.9431
16886SOL    HW253101   4.545   2.530   7.428  0.3403  0.0147  0.1677
16887SOL     OW53102   5.726   0.257   4.445  0.6701  0.3344  0.3918
16887SOL    HW153103   5.804   0.207   4.421  0.7328  0.6785 -0.1269
16887SOL    HW253104   5.693   0.212   4.523  0.8380 -0.3952  0.0533
16888SOL     OW53105   6.538   9.754   9.858 -0.0977 -0.1994 -0.8290
16888SOL    HW153106   6.579   9.747   9.944 -1.0592 -1.3614 -0.4282
16888SOL    HW253107   6.600   9.804   9.805  0.3624  0.8468  0.6283
16889SOL     OW53108   0.279  10.107   7.893  0.1761 -0.1288 -0.4393
16889SOL    HW153109   0.186  10.113   7.873  0.3179 -0.8266 -1.3589
16889SOL    HW253110   0.321  10.163   7.828  0.5184 -1.1263 -1.0950
16890SOL     OW53111   6.311   3.742   0.792  0.2346  0.0137 -0.2463
16890SOL    HW153112   6.329   3.836   0.783 -0.3238  0.0664 -0.8651
16890SOL    HW253113   6.216   3.735   0.782  0.3217 -0.6673 -0.5931
16891SOL     OW53114   5.923   2.810   4.378  0.2311 -0.0736  0.2363
16891SOL    HW153115   5.960   2.897   4.366 -1.6481  0.4551 -2.9252
16891SOL    HW253116   5.977   2.753   4.323 -1.4414  0.1218 -1.7524
16892SOL     OW53117   2.636   0.429   4.907  0.1162  0.2391 -0.1771
16892SOL    HW153118   2.677   0.436   4.821  0.4196  0.9575  0.0118
16892SOL    HW253119   2.648   0.516   4.946 -0.9871  0.2550  0.1620
16893SOL     OW53120   8.593   9.232   1.184  0.3612 -0.6429  0.3170
16893SOL    HW153121   8.576   9.210   1.092  0.2365 -1.2402  0.4812
16893SOL    HW253122   8.520   9.290   1.208  1.0499  0.5267 -0.3053
16894SOL     OW53123   9.841   3.367   4.947 -0.6409  0.1259  0.7697
16894SOL    HW153124   9.845   3.369   4.852 -0.6111  0.0536  0.7692
16894SOL    HW253125   9.858   3.457   4.974 -1.0165  0.2214  0.6935
16895SOL     OW53126   7.356   1.259   4.414  0.0263  0.2963 -0.3403
16895SOL    HW153127   7.412   1.336   4.402  0.4485  0.0928  0.2691
16895SOL    HW253128   7.344   1.253   4.509 -1.4722  0.6379 -0.4675
16896SOL     OW53129   5.064   8.502   1.687 -0.0460 -0.1547 -0.3992
16896SOL    HW153130   5.028   8.588   1.667  0.5787  1.3624  3.9914
16896SOL    HW253131   5.159   8.514   1.681  0.0599 -0.3959  0.7003
16897SOL     OW53132   2.972   6.171   8.223 -0.5300 -0.8562  0.6655
16897SOL    HW153133   2.878   6.188   8.224 -0.5988 -0.8204 -1.3290
16897SOL    HW253134   3.000   6.183   8.314 -2.2692  0.1190  1.1228
16898SOL     OW53135   4.712   0.886   2.978 -0.1846 -0.0797  0.1551
16898SOL    HW153136   4.645   0.937   3.023 -1.3634  0.4079 -2.0143
16898SOL    HW253137   4.719   0.806   3.029  2.3744  2.3566  4.2425
16899SOL     OW53138   9.708   4.704   0.684 -0.0457 -0.0251  0.2742
16899SOL    HW153139   9.632   4.665   0.726 -0.2694 -0.6978 -0.7313
16899SOL    HW253140   9.674   4.744   0.604  0.1956  2.1813  1.2005
16900SOL     OW53141   5.254   2.737   4.630 -0.3452 -0.2842 -0.1181
16900SOL    HW153142   5.224   2.659   4.678 -0.0316  0.2942  1.0720
16900SOL    HW253143   5.200   2.808   4.664  0.5068  0.2999  0.0650
16901SOL     OW53144   7.055   9.234   6.452  0.5085 -1.1357 -0.3574
16901SOL    HW153145   6.960   9.220   6.452  0.5088 -1.3510  1.3373
16901SOL    HW253146   7.092   9.149   6.429  0.3016 -1.1423 -0.6688
16902SOL     OW53147   3.051   4.639   9.449 -0.1035 -0.8092 -0.5703
16902SOL    HW153148   3.011   4.723   9.468  1.5054 -0.6620  3.1654
16902SOL    HW253149   2.981   4.575   9.461 -0.4274 -0.2293  0.8373
16903SOL     OW53150   0.425   2.064   0.417 -0.0499  0.2988 -0.0462
16903SOL    HW153151   0.370   2.080   0.341 -0.9052 -0.5171  0.3850
16903SOL    HW253152   0.393   1.982   0.454  0.7925  0.3306  0.8101
16904SOL     OW53153   1.796   4.088   6.098 -0.4803  0.1055 -0.2731
16904SOL    HW153154   1.800   4.173   6.054  0.1370  0.1435 -0.1477
16904SOL    HW253155   1.737   4.036   6.043  0.3236  0.1312 -1.1946
16905SOL     OW53156   3.105   4.107   7.296  0.6575 -0.4013 -0.1960
16905SOL    HW153157   3.149   4.180   7.252  0.1769  0.6748  1.0259
16905SOL    HW253158   3.016   4.107   7.262  0.9918 -1.2319 -1.1096
16906SOL     OW53159   8.653   5.504   0.837 -0.5361 -0.2714 -0.0446
16906SOL    HW153160   8.648   5.570   0.906  0.4681 -0.3717  0.1415
16906SOL    HW253161   8.562   5.477   0.823 -0.6504 -1.6861  2.6455
16907SOL     OW53162   7.853   0.449   0.046  0.3843  0.7297 -0.3095
16907SOL    HW153163   7.805   0.454   0.129 -0.1717  2.2958 -0.6768
16907SOL    HW253164   7.847   0.538   0.010  1.1797  0.2479 -1.7127
16908SOL     OW53165   8.017   9.738   2.674  0.1231  0.0301  0.9959
16908SOL    HW153166   8.105   9.704   2.687  1.0855  1.4679 -1.2340
16908SOL    HW253167   7.979   9.681   2.606  0.1728  0.7190  0.3704
16909SOL     OW53168   6.848   9.876   2.711  0.2591  0.1434 -0.1497
16909SOL    HW153169   6.791   9.823   2.656  1.0539 -0.1842 -0.6728
16909SOL    HW253170   6.878   9.815   2.779 -1.5092  0.7815  1.3026
16910SOL     OW53171   2.968   4.552   5.024 -0.8272  0.5512  0.0047
16910SOL    HW153172   3.002   4.596   5.101 -0.0164 -2.0729  1.2839
16910SOL    HW253173   3.043   4.548   4.964 -0.8054  0.6718  0.0252
16911SOL     OW53174   7.194   0.033   9.254  0.6113  0.0226 -0.1497
16911SOL    HW153175   7.205   0.041   9.349 -2.7452 -0.2598  0.3747
16911SOL    HW253176   7.281   0.008   9.222  2.3294  1.9876  2.5483
16912SOL     OW53177   2.391   6.836   6.670  0.3872  0.3425  0.2048
16912SOL    HW153178   2.333   6.901   6.709  1.0432  1.7941 -1.1161
16912SOL    HW253179   2.397   6.863   6.578  3.5922  0.6104  0.4006
16913SOL     OW53180  10.350   7.449   1.735 -0.0393 -0.1888 -0.5129
16913SOL    HW153181  10.310   7.367   1.706 -0.4712  0.8585 -3.2633
16913SOL    HW253182  10.289   7.485   1.799  0.2763 -2.0558  0.9116
16914SOL     OW53183   0.450  10.149   3.155 -0.7082 -0.0252  0.0959
16914SOL    HW153184   0.529  10.186   3.115 -1.0402 -0.3159 -0.8423
16914SOL    HW253185   0.478  10.121   3.242  0.7037 -1.8305 -0.8695
16915SOL     OW53186   3.064   4.419   0.012  0.1847 -0.2207  0.4680
16915SOL    HW153187   3.003   4.345   0.006 -1.3177  0.8191  1.8167
16915SOL    HW253188   3.025   4.487  -0.043  0.4446  0.2367  0.8350
16916SOL     OW53189   6.934   7.442   0.290 -0.1680 -0.3903  0.3725
16916SOL    HW153190   6.967   7.368   0.239 -0.5809 -1.2135  1.2786
16916SOL    HW253191   6.849   7.413   0.322  0.0344  0.1578  1.4333
16917SOL     OW53192   1.464   6.822   5.289 -0.1251 -0.1870  0.0960
16917SOL    HW153193   1.546   6.858   5.323  0.0130 -0.5085  0.1095
16917SOL    HW253194   1.424   6.895   5.242  0.6283 -0.2816 -0.7360
16918SOL     OW53195   0.372  10.021  10.371 -0.0284  0.0005  0.4614
16918SOL    HW153196   0.330  10.107  10.368 -0.3112 -0.0744  1.6429
16918SOL    HW253197   0.325   9.968  10.307  0.2434  0.7549 -0.3793
16919SOL     OW53198   3.598   5.312   5.039 -0.3642 -0.4179  0.0330
16919SOL    HW153199   3.526   5.304   5.101  0.4436 -0.0018  1.0723
16919SOL    HW253200   3.625   5.222   5.021  0.9820 -0.5524  2.2730
16920SOL     OW53201   7.823   0.508   4.833  0.5846  0.4232 -0.0806
16920SOL    HW153202   7.741   0.481   4.792 -0.4939  3.6537 -0.3613
16920SOL    HW253203   7.859   0.428   4.869 -1.1519 -1.6684 -2.5670
16921SOL     OW53204   7.713   7.704   2.482 -0.2280  0.1367 -0.1195
16921SOL    HW153205   7.621   7.687   2.504 -0.3940  0.4432 -0.5554
16921SOL    HW253206   7.711   7.724   2.388  0.4718 -1.3203 -0.4696
16922SOL     OW53207   3.925   8.636  10.070 -0.0412  0.0467  0.2861
16922SOL    HW153208   3.869   8.714  10.067 -0.6332 -0.3291  1.0811
16922SOL    HW253209   3.953   8.629  10.161  0.2369 -0.5046  0.1660
16923SOL     OW53210  10.259   6.183   6.427 -0.0212 -0.7936 -0.6103
16923SOL    HW153211  10.292   6.159   6.341  0.1239 -1.7219 -0.3099
16923SOL    HW253212  10.171   6.147   6.431 -0.6262  0.5884 -0.9337
16924SOL     OW53213  10.099   7.495  10.104  0.3644 -0.3701 -0.3728
16924SOL    HW153214  10.111   7.402  10.087  2.7145 -0.7626  2.5483
16924SOL    HW253215  10.187   7.532  10.100 -0.0213  0.9993  1.8395
16925SOL     OW53216  10.255   8.464   0.964  0.5544 -0.0399 -0.9793
16925SOL    HW153217  10.311   8.397   0.925  1.3919  0.1649 -0.1651
16925SOL    HW253218  10.304   8.545   0.953  0.9159  0.0042  0.6226
16926SOL     OW53219   0.193   7.519   5.903  0.8037  0.7384 -0.1690
16926SOL    HW153220   0.116   7.576   5.905  0.6970  0.6910 -1.7083
16926SOL    HW253221   0.158   7.432   5.885  1.0328  0.2797  1.4499
16927SOL     OW53222   9.600   6.629   6.427  0.1336  0.0229  0.6638
16927SOL    HW153223   9.537   6.563   6.456  1.0532 -0.0279  2.7424
16927SOL    HW253224   9.584   6.639   6.333 -2.4879 -0.4734  0.9847
16928SOL     OW53225   5.717   1.202   6.498  0.7157 -0.2216  0.1442
16928SOL    HW153226   5.783   1.270   6.484 -0.5321  0.7747 -1.1488
16928SOL    HW253227   5.767   1.121   6.501  2.1228  0.6208  0.5109
16929SOL     OW53228   0.742   1.506   1.173 -0.3992 -0.2985  0.0429
16929SOL    HW153229   0.805   1.548   1.116 -0.4223 -0.9110 -0.4485
16929SOL    HW253230   0.697   1.578   1.217 -0.7759  0.2058 -1.1407
16930SOL     OW53231   7.308   1.073   0.660 -0.6118 -0.1726  0.4425
16930SOL    HW153232   7.267   1.113   0.583 -1.1802 -0.6041  0.5076
16930SOL    HW253233   7.287   1.132   0.732 -0.4097  0.0365  0.3272
16931SOL     OW53234  10.235   5.570   0.056 -0.0758  0.1755  0.5167
16931SOL    HW153235  10.265   5.530   0.138 -0.4712  1.4346  1.2961
16931SOL    HW253236  10.248   5.664   0.069 -2.5940  0.6218  0.1655
16932SOL     OW53237   2.851   1.441   8.964 -0.9465 -0.4186 -0.4443
16932SOL    HW153238   2.806   1.456   9.047 -3.4494 -1.3889 -1.5361
16932SOL    HW253239   2.862   1.346   8.960 -0.1762 -0.3186 -0.9321
16933SOL     OW53240   4.196   5.660   0.372  0.1369  0.3163  0.2888
16933SOL    HW153241   4.208   5.569   0.399  0.3310 -0.2623 -1.5723
16933SOL    HW253242   4.150   5.654   0.288  2.4240  1.7955 -1.1629
16934SOL     OW53243   5.960   6.867   7.138 -0.1506  0.0886  0.3620
16934SOL    HW153244   6.038   6.871   7.081  0.5265  0.5104  1.2918
16934SOL    HW253245   5.904   6.938   7.106  0.0579  0.0920 -0.0077
16935SOL     OW53246   7.009   5.954   8.773 -0.0338  0.5588 -0.0029
16935SOL    HW153247   6.946   6.022   8.796 -0.6416 -0.1185  0.3708
16935SOL    HW253248   7.039   5.977   8.685 -0.6881  0.9666 -0.1187
16936SOL     OW53249   1.190   0.198   4.022  0.4524 -0.0067  0.1030
16936SOL    HW153250   1.128   0.201   3.949 -0.0380  0.2876  0.5256
16936SOL    HW253251   1.152   0.254   4.089  0.2561 -1.2634  1.0907
16937SOL     OW53252   9.025   2.814   4.559  0.3019 -0.5485 -0.0933
16937SOL    HW153253   9.040   2.845   4.648  1.5831 -0.8986 -0.1688
16937SOL    HW253254   8.972   2.735   4.570 -1.9490  0.9174  0.1669
16938SOL     OW53255   8.793   2.030   8.288 -0.4980  0.0661 -0.6454
16938SOL    HW153256   8.786   1.978   8.208 -1.3848 -1.9578  0.6477
16938SOL    HW253257   8.841   1.973   8.349 -0.4288  1.2802  0.4799
16939SOL     OW53258   5.033   7.930   6.461  0.0528  0.0826  0.1515
16939SOL    HW153259   5.027   7.999   6.528  0.5549  0.1743  0.1089
16939SOL    HW253260   5.083   7.860   6.504  0.9015  0.3893 -0.3210
16940SOL     OW53261   6.970   7.755   6.609 -0.4958 -0.4318 -0.7862
16940SOL    HW153262   6.886   7.766   6.564 -1.1262 -1.7501  0.0097
16940SOL    HW253263   6.974   7.827   6.672 -0.9618 -0.2912 -0.9176
16941SOL     OW53264   2.813   3.379   0.308  0.0057  0.3211  0.1648
16941SOL    HW153265   2.824   3.464   0.351 -0.0507  1.7392 -2.4284
16941SOL    HW253266   2.726   3.384   0.267  0.0497 -0.9639 -0.1379
16942SOL     OW53267   8.643   8.065   8.948  0.1913  0.3373 -0.4970
16942SOL    HW153268   8.578   8.016   8.999 -0.4373  1.6215  0.0004
16942SOL    HW253269   8.667   8.138   9.005  0.6840  0.9152 -1.4228
16943SOL     OW53270   0.836   1.297  10.025  0.0015 -0.4511  0.5422
16943SOL    HW153271   0.831   1.294  10.120  0.0017  1.7626  0.6781
16943SOL    HW253272   0.771   1.363  10.000 -0.6052 -1.6095 -1.0699
16944SOL     OW53273   5.602   8.683   5.909 -0.2438  0.2170  0.5534
16944SOL    HW153274   5.690   8.654   5.935  0.0604 -0.6804 -1.3052
16944SOL    HW253275   5.615   8.724   5.823 -1.5882  0.4193  0.4312
16945SOL     OW53276   4.674  10.363   8.706  0.5760  0.6084 -0.0216
16945SOL    HW153277   4.727  10.370   8.627 -2.2182 -2.1676 -2.3534
16945SOL    HW253278   4.599  10.419   8.690 -1.2731 -1.8799 -0.5835
16946SOL     OW53279   0.741   0.187   1.959 -0.1291 -0.3143  0.4924
16946SOL    HW153280   0.692   0.119   2.006  2.4516 -1.6778  1.3752
16946SOL    HW253281   0.796   0.227   2.026 -0.7439  1.9244 -0.2605
16947SOL     OW53282   9.516   0.704   7.607  0.0578  0.0636 -0.3848
16947SOL    HW153283   9.449   0.772   7.598 -0.4866 -0.4492 -0.2959
16947SOL    HW253284   9.473   0.624   7.576  0.7095 -0.2314 -0.5497
16948SOL     OW53285   6.083   8.793   7.983  0.0856  0.5988 -0.6744
16948SOL    HW153286   6.068   8.702   7.957  0.0421  0.2913  0.3870
16948SOL    HW253287   6.079   8.792   8.079 -1.6228  1.9948 -0.6708
16949SOL     OW53288   9.676   4.804   4.795 -0.3987 -0.5448  0.7124
16949SOL    HW153289   9.661   4.870   4.728  0.9234 -1.2714 -0.3322
16949SOL    HW253290   9.756   4.831   4.839  0.1358 -1.4176  0.2983
16950SOL     OW53291   2.653   1.634   1.903 -0.5958 -0.4684  0.1574
16950SOL    HW153292   2.740   1.604   1.928  0.7302  1.3086 -1.9827
16950SOL    HW253293   2.618   1.564   1.848 -0.5828 -1.2292  1.0988
16951SOL     OW53294   1.524   6.014   3.311 -0.0061 -0.2454  0.5466
16951SOL    HW153295   1.521   6.093   3.365 -0.3873 -0.5200  0.9297
16951SOL    HW253296   1.524   6.048   3.221  0.5899  0.2062  0.7125
16952SOL     OW53297   1.526   2.857   8.825 -0.5065  0.5046  0.7725
16952SOL    HW153298   1.508   2.763   8.813 -0.3453  0.3439  1.6762
16952SOL    HW253299   1.607   2.872   8.777 -0.3837  0.1142  0.8526
16953SOL     OW53300   0.214   1.787   9.724 -0.0210 -0.7942  0.8390
16953SOL    HW153301   0.240   1.879   9.715  2.2566 -1.2390  2.2057
16953SOL    HW253302   0.274   1.751   9.789 -0.3658 -3.4481 -0.1812
16954SOL     OW53303   1.732   8.221   1.975  0.1485  0.4824 -0.2368
16954SOL    HW153304   1.682   8.140   1.966 -0.5621  1.0219 -1.4437
16954SOL    HW253305   1.754   8.246   1.885  3.0372  0.0315  0.2595
16955SOL     OW53306   6.173   4.414   5.459 -0.7835  0.0606 -0.2215
16955SOL    HW153307   6.080   4.436   5.474 -1.0340 -1.1829  0.1427
16955SOL    HW253308   6.218   4.498   5.465 -1.7754  0.5660  0.5605
16956SOL     OW53309   9.298   3.124   0.014  0.4811 -0.6565  0.0633
16956SOL    HW153310   9.228   3.125  -0.051  0.1418 -1.2811  0.4124
16956SOL    HW253311   9.257   3.089   0.094  1.1178 -0.7770  0.3464
16957SOL     OW53312   1.432   9.168   0.129  0.5406 -0.5398 -0.1879
16957SOL    HW153313   1.376   9.148   0.204  0.0602  1.0554 -0.0861
16957SOL    HW253314   1.470   9.084   0.105 -1.5665 -1.6185 -0.0077
16958SOL     OW53315   0.812   1.853  10.090  0.0012 -0.7177 -0.1898
16958SOL    HW153316   0.805   1.923  10.025 -1.2176  0.1382  0.8102
16958SOL    HW253317   0.898   1.865  10.130 -0.0794  0.0372 -0.2344
16959SOL     OW53318  10.484   3.983   0.438  0.2439 -0.5067  0.7313
16959SOL    HW153319  10.563   4.030   0.413 -0.6903  1.1721  0.7690
16959SOL    HW253320  10.515   3.901   0.476  1.8945 -0.4740 -0.4620
16960SOL     OW53321   2.665  10.405   6.879 -0.3165 -0.5524  0.0336
16960SOL    HW153322   2.585  10.353   6.886 -0.0811 -0.7540  1.5096
16960SOL    HW253323   2.727  10.361   6.937  0.6724 -0.0201 -0.5922
16961SOL     OW53324   5.199   8.194   6.852 -0.2643  0.0936 -0.3096
16961SOL    HW153325   5.157   8.196   6.938 -0.9050  0.9588 -0.6255
16961SOL    HW253326   5.272   8.132   6.862 -1.4937 -1.3341  0.3149
16962SOL     OW53327   8.782   1.329   8.240  0.1645 -0.0876 -0.4063
16962SOL    HW153328   8.833   1.269   8.185  0.6760 -1.1720  1.1845
16962SOL    HW253329   8.847   1.390   8.275  0.6973 -2.1557  2.5262
16963SOL     OW53330   0.387   1.451   7.482  0.1704 -0.2779 -1.1453
16963SOL    HW153331   0.313   1.395   7.459 -0.1636 -0.5473  0.4340
16963SOL    HW253332   0.358   1.539   7.459 -0.1608 -0.5050 -1.6324
16964SOL     OW53333   7.911   7.186   4.419  0.2994 -0.0584  0.0630
16964SOL    HW153334   7.894   7.168   4.327  0.1969  0.5831 -0.0473
16964SOL    HW253335   7.934   7.279   4.422 -0.0956  0.0262  0.7369
16965SOL     OW53336   4.093   0.534   5.134  0.2498  0.7038  0.2792
16965SOL    HW153337   4.147   0.580   5.069  0.6241 -1.1300 -0.7932
16965SOL    HW253338   4.129   0.445   5.135 -2.9221 -0.7175 -0.7129
16966SOL     OW53339   6.154   5.719   9.902  0.4476 -0.5256 -0.0250
16966SOL    HW153340   6.223   5.770   9.944  1.7783 -1.7771 -0.6243
16966SOL    HW253341   6.188   5.699   9.815 -1.2539 -0.0369 -0.8560
16967SOL     OW53342   9.976   7.003  10.249  0.3498 -0.1372 -0.3107
16967SOL    HW153343   9.970   6.926  10.193  1.5390  0.1123 -0.7966
16967SOL    HW253344   9.898   7.054  10.228  0.6253 -0.1945 -1.5232
16968SOL     OW53345   2.258   5.874   4.640  0.1838 -0.1346 -0.0682
16968SOL    HW153346   2.172   5.838   4.619  0.0432 -0.5461  1.1219
16968SOL    HW253347   2.300   5.807   4.694 -0.3996  1.7255  2.9196
16969SOL     OW53348   7.115   8.329   2.091 -0.4036 -0.3311  0.0929
16969SOL    HW153349   7.184   8.341   2.156  0.0633  0.9871 -0.6199
16969SOL    HW253350   7.082   8.240   2.108  1.4923 -1.0277  0.3962
16970SOL     OW53351   3.470   4.331   6.774 -0.2439  0.0471 -0.0956
16970SOL    HW153352   3.454   4.413   6.820  0.7341 -1.2421  2.7596
16970SOL    HW253353   3.557   4.343   6.734 -0.3690  0.6019 -0.2055
16971SOL     OW53354   9.564   3.493   1.726 -0.0193 -0.4394 -0.0991
16971SOL    HW153355   9.622   3.566   1.705  1.6593 -1.8214 -0.4477
16971SOL    HW253356   9.517   3.477   1.645 -0.5556  0.3564  0.0366
16972SOL     OW53357   6.953   2.751   4.301 -0.6624  0.6925 -0.3536
16972SOL    HW153358   6.939   2.771   4.393 -1.4788  0.3189 -0.3857
16972SOL    HW253359   6.958   2.655   4.298  0.5512  0.7418 -0.5485
16973SOL     OW53360   3.645   7.558   3.729 -0.6164 -0.3012 -0.3043
16973SOL    HW153361   3.672   7.646   3.701 -0.6911 -0.7105 -1.7013
16973SOL    HW253362   3.566   7.573   3.782 -0.3689  0.5065 -0.1490
16974SOL     OW53363   9.195   8.186   6.708 -0.1618  0.1047  0.4485
16974SOL    HW153364   9.109   8.172   6.747  0.3860 -0.6480  1.4378
16974SOL    HW253365   9.177   8.216   6.619 -1.4492 -1.2920  0.2004
16975SOL     OW53366   5.775   0.358  10.192  0.2662 -0.6154 -0.1052
16975SOL    HW153367   5.760   0.265  10.208  2.3668 -0.8006  1.2265
16975SOL    HW253368   5.824   0.361  10.110 -0.7981 -0.5679 -0.7522
16976SOL     OW53369   1.862   8.764   0.812 -0.3964 -0.0724 -0.3082
16976SOL    HW153370   1.824   8.676   0.807  0.4117 -0.4546  0.1448
16976SOL    HW253371   1.831   8.808   0.732 -1.1744 -0.6082 -0.3155
16977SOL     OW53372   3.696   9.584   8.352 -1.1205  0.1097 -0.3246
16977SOL    HW153373   3.765   9.537   8.306 -0.5899 -0.0907  0.6439
16977SOL    HW253374   3.711   9.676   8.330 -3.4782 -0.1717 -4.0294
16978SOL     OW53375   7.305   1.871   2.747 -0.5155 -0.0532 -0.1324
16978SOL    HW153376   7.231   1.831   2.702 -0.9791 -1.6404  1.8821
16978SOL    HW253377   7.327   1.809   2.817  2.0868  0.8286 -0.0345
16979SOL     OW53378   8.535   6.715   7.154 -0.6502  0.1065 -1.1953
16979SOL    HW153379   8.490   6.664   7.222  0.3502  0.5506 -0.1586
16979SOL    HW253380   8.616   6.668   7.138 -0.7453  0.1687 -1.8773
16980SOL     OW53381   3.183   4.063   1.619  0.0971  0.2860 -0.2372
16980SOL    HW153382   3.188   4.047   1.524 -0.2640 -0.9038 -0.0648
16980SOL    HW253383   3.139   4.148   1.626  1.8742  1.3475 -1.1813
16981SOL     OW53384   8.746   0.036   6.692 -0.7705 -0.1824 -0.0549
16981SOL    HW153385   8.747   0.119   6.645 -0.4052 -0.1121  0.0719
16981SOL    HW253386   8.664  -0.005   6.667 -0.8559  0.1244 -0.2802
16982SOL     OW53387   8.443   5.613   2.262 -0.8140  0.0763  0.2572
16982SOL    HW153388   8.403   5.558   2.195  0.3337 -0.4865  0.0143
16982SOL    HW253389   8.406   5.700   2.248 -0.7611 -0.0850 -0.9524
16983SOL     OW53390   9.092   2.278   4.241  0.8262  0.1097  0.3761
16983SOL    HW153391   9.079   2.372   4.252  1.6195  0.2613  0.0685
16983SOL    HW253392   9.023   2.251   4.181  1.8996  0.9089 -1.2977
16984SOL     OW53393   1.067   4.424   1.662 -0.3760 -0.0136  0.4634
16984SOL    HW153394   1.148   4.475   1.652 -0.4816 -0.0510 -0.7114
16984SOL    HW253395   1.024   4.462   1.738 -0.1867  1.3059 -0.0707
16985SOL     OW53396   8.753   1.741   8.288  0.6766  0.0868 -0.6494
16985SOL    HW153397   8.677   1.746   8.230  2.5298  0.7613 -3.2025
16985SOL    HW253398   8.817   1.689   8.240  2.1472  0.2278  1.0495
16986SOL     OW53399  10.438   4.432   6.807  0.3570 -0.1734  0.4193
16986SOL    HW153400  10.453   4.525   6.794  2.6123 -0.3494  1.1838
16986SOL    HW253401  10.524   4.392   6.793 -0.6457 -2.2059 -0.3427
16987SOL     OW53402   5.531   6.864   7.728 -0.2349  0.8015 -0.0658
16987SOL    HW153403   5.537   6.930   7.797 -0.6030  0.1444  0.6147
16987SOL    HW253404   5.621   6.850   7.700  0.0054  0.5742  0.7834
16988SOL     OW53405   1.578   3.578   4.523 -0.1178  0.0806  0.2290
16988SOL    HW153406   1.612   3.512   4.462  0.1025  0.8722 -0.5291
16988SOL    HW253407   1.498   3.539   4.558 -0.2971 -0.3766 -0.6441
16989SOL     OW53408   0.044   5.434   0.583  0.1705  0.4249  0.4274
16989SOL    HW153409   0.063   5.519   0.621 -0.3289  0.8804 -0.3219
16989SOL    HW253410  -0.011   5.391   0.649  0.4031  0.6839  0.7971
16990SOL     OW53411   3.517   1.700   6.315  0.0853  0.0887 -0.0368
16990SOL    HW153412   3.527   1.659   6.229  0.3024 -0.4506  0.2404
16990SOL    HW253413   3.565   1.643   6.375 -0.5014  0.1789  0.5277
16991SOL     OW53414  10.160   9.001   3.940  0.1336  0.0557  0.6284
16991SOL    HW153415  10.108   9.060   3.886 -0.7131  1.2582  2.6531
16991SOL    HW253416  10.108   8.922   3.947 -0.0506  0.1398  0.2274
16992SOL     OW53417   9.536   5.464   8.166  0.3063 -0.2178 -0.0042
16992SOL    HW153418   9.466   5.436   8.107  0.3987  0.1934 -0.3121
16992SOL    HW253419   9.493   5.523   8.228  0.4721  0.3958 -0.4747
16993SOL     OW53420   8.943   7.005   6.022 -0.0839 -0.1565  0.3627
16993SOL    HW153421   8.876   6.958   5.972 -0.9977  0.0912  1.3077
16993SOL    HW253422   8.927   6.980   6.113  1.6044 -0.6659  0.5543
16994SOL     OW53423   7.568   2.625   6.511  0.3208  0.0812 -0.1426
16994SOL    HW153424   7.636   2.625   6.444 -0.2748 -0.2192 -0.7595
16994SOL    HW253425   7.515   2.702   6.490  0.2760  0.1241  0.1314
16995SOL     OW53426   6.253   9.370  10.297  0.9024 -0.4027 -0.0081
16995SOL    HW153427   6.185   9.375  10.364  1.0363  1.0652  0.0667
16995SOL    HW253428   6.332   9.346  10.345  0.8401 -0.1297  0.2319
16996SOL     OW53429   4.366   4.979   0.182  0.8965 -0.2806 -0.0761
16996SOL    HW153430   4.360   4.990   0.277  1.9781 -1.2626  0.1266
16996SOL    HW253431   4.448   4.932   0.168  0.1012 -1.3472 -1.4113
16997SOL     OW53432   0.085   8.520  10.340  0.3608 -0.2926 -0.4299
16997SOL    HW153433   0.085   8.557  10.251 -0.8270  1.0547  0.0972
16997SOL    HW253434   0.099   8.426  10.327  2.5292  0.1420 -1.8887
16998SOL     OW53435   0.360   0.380   8.596  0.2096  0.2584 -0.3203
16998SOL    HW153436   0.389   0.447   8.658  1.4888 -0.7354  0.2274
16998SOL    HW253437   0.283   0.341   8.637 -1.4266  2.2859 -1.3161
16999SOL     OW53438   2.837   5.540   2.011 -0.0406  0.0323  0.5525
16999SOL    HW153439   2.756   5.492   1.998 -0.5461  1.0758 -0.3270
16999SOL    HW253440   2.822   5.592   2.091 -0.0151 -0.2023  0.7112
17000SOL     OW53441   6.451   0.842   5.599  0.6538 -0.1905 -0.5134
17000SOL    HW153442   6.444   0.759   5.646 -0.7922  1.0922  1.7368
17000SOL    HW253443   6.362   0.863   5.572  1.1818  0.0697 -2.1713
17001SOL     OW53444   7.463   7.386   4.167  0.0879 -0.4952  0.0965
17001SOL    HW153445   7.455   7.332   4.088 -1.7920 -1.5065  0.9125
17001SOL    HW253446   7.504   7.328   4.231 -0.8225 -0.5884  0.6178
17002SOL     OW53447   4.413   6.933   4.764  0.4119  0.0645  0.1678
17002SOL    HW153448   4.454   6.977   4.839  2.4989  0.2201 -0.9970
17002SOL    HW253449   4.421   6.996   4.692 -1.3435 -0.1784 -0.2791
17003SOL     OW53450   4.849   1.551   6.032 -0.8249 -0.0883  0.5749
17003SOL    HW153451   4.766   1.506   6.022 -0.1884 -1.0111 -1.0018
17003SOL    HW253452   4.903   1.491   6.083 -1.1750  0.6115  1.8002
17004SOL     OW53453   2.623  10.045   6.800 -0.3244 -0.3009  0.4104
17004SOL    HW153454   2.703  10.006   6.834 -1.1919 -1.0441  1.6880
17004SOL    HW253455   2.582  10.085   6.876 -0.3160  1.6456 -0.5529
17005SOL     OW53456   0.958   3.472   2.413 -0.3070 -0.0801  0.1352
17005SOL    HW153457   0.887   3.474   2.477  0.1245  0.8068  0.6052
17005SOL    HW253458   0.936   3.541   2.350  1.1582  1.7081  1.4579
17006SOL     OW53459   3.884   6.058   3.843  0.4819 -0.0310  0.3498
17006SOL    HW153460   3.808   6.098   3.885 -0.8785  0.0671 -1.9888
17006SOL    HW253461   3.915   6.125   3.782  1.2646 -0.7566 -0.0649
17007SOL     OW53462   8.597   0.206   8.562  0.1128  0.1150  0.0084
17007SOL    HW153463   8.639   0.174   8.641  1.2215 -0.8891 -0.9604
17007SOL    HW253464   8.593   0.130   8.504 -1.9103  0.4853 -0.4255
17008SOL     OW53465   0.045   2.159   8.372 -0.0288 -0.6454 -0.4335
17008SOL    HW153466   0.066   2.244   8.334  2.5008 -1.3929 -0.9558
17008SOL    HW253467   0.041   2.175   8.467 -0.1145  0.1421 -0.5628
17009SOL     OW53468   5.151   7.247   1.629 -0.3340 -0.5463 -0.2072
17009SOL    HW153469   5.087   7.292   1.683 -0.2362  0.0818 -0.6095
17009SOL    HW253470   5.200   7.192   1.690 -1.3778 -1.2008  0.0805
17010SOL     OW53471   7.442   2.173   0.873  0.7656  0.1185 -0.2518
17010SOL    HW153472   7.526   2.218   0.876  0.8429 -0.0353 -0.0915
17010SOL    HW253473   7.380   2.234   0.914  1.1837 -0.5928  1.5369
17011SOL     OW53474   8.501   7.656   7.323 -0.1823 -0.7007  0.5740
17011SOL    HW153475   8.508   7.658   7.418  2.2631 -0.2765  0.4474
17011SOL    HW253476   8.557   7.728   7.293  0.6235 -1.9902 -1.2176
17012SOL     OW53477   3.982   6.848   5.562 -0.3856  0.2367 -0.5730
17012SOL    HW153478   3.898   6.804   5.545 -0.7220  0.5061  0.3332
17012SOL    HW253479   3.958   6.936   5.590  0.0983 -0.2243  1.4258
17013SOL     OW53480  10.306   8.330   9.787  0.1945 -0.0153 -0.0205
17013SOL    HW153481  10.376   8.268   9.766  0.5831 -0.0604  1.3185
17013SOL    HW253482  10.350   8.414   9.793  0.7199 -0.4207  3.5323
17014SOL     OW53483   3.035   6.017   5.986  0.1519  0.0276 -0.0916
17014SOL    HW153484   2.975   6.025   6.060 -0.9768 -1.5005 -0.7992
17014SOL    HW253485   3.001   5.944   5.935  1.3326  0.5641 -1.7335
17015SOL     OW53486   1.277   1.169   1.635  0.2403 -0.1635 -0.1254
17015SOL    HW153487   1.254   1.150   1.726 -0.1463  0.1416 -0.1565
17015SOL    HW253488   1.194   1.191   1.593  0.4516 -0.0458 -0.4872
17016SOL     OW53489   2.748   0.799   4.338  0.2730 -0.4458 -0.1276
17016SOL    HW153490   2.719   0.816   4.428  2.9102  0.5102  0.6203
17016SOL    HW253491   2.787   0.712   4.342  1.8055  0.2239  0.0781
17017SOL     OW53492   9.895   1.868   8.632  0.3393  0.1377  0.4556
17017SOL    HW153493   9.879   1.802   8.700  0.8172 -1.1851 -0.6710
17017SOL    HW253494   9.815   1.870   8.581  0.9530 -0.9870 -0.6303
17018SOL     OW53495   9.815   6.196   8.619  0.0025  0.0757  0.1330
17018SOL    HW153496   9.823   6.288   8.594  0.6979 -0.4770 -1.8703
17018SOL    HW253497   9.904   6.162   8.613 -0.2943 -0.8005  0.5852
17019SOL     OW53498   7.043   7.994  10.325  0.2195  0.1727  0.0431
17019SOL    HW153499   7.120   8.051  10.332 -0.1246  0.5109  1.3436
17019SOL    HW253500   6.969   8.055  10.329 -0.1509 -0.0696 -1.9313
17020SOL     OW53501   0.961   6.921   0.778 -0.2860 -0.2512 -0.2001
17020SOL    HW153502   1.050   6.922   0.742 -1.0073 -1.0773 -2.2039
17020SOL    HW253503   0.906   6.943   0.703 -1.8709 -1.3832  0.5777
17021SOL     OW53504   0.723   4.029   6.115 -0.3598  0.5089 -0.2937
17021SOL    HW153505   0.736   3.935   6.126  0.0046  0.6749  0.9127
17021SOL    HW253506   0.770   4.051   6.034  0.2298 -0.2214 -0.1593
17022SOL     OW53507   1.468   6.116   0.570  0.1019 -0.3139  0.0801
17022SOL    HW153508   1.421   6.138   0.651  2.2837 -1.0919  1.6422
17022SOL    HW253509   1.545   6.067   0.599  1.8354  0.7623 -2.3348
17023SOL     OW53510   4.466   0.226   6.070  0.0761 -0.2659 -0.0961
17023SOL    HW153511   4.554   0.263   6.065  0.6479 -0.7505  3.7080
17023SOL    HW253512   4.414   0.280   6.010  2.2543  2.3014  0.1402
17024SOL     OW53513   0.144   6.669   8.706  1.0658 -0.2729 -0.3903
17024SOL    HW153514   0.130   6.581   8.741  0.7485 -0.6276 -1.3757
17024SOL    HW253515   0.056   6.704   8.695  1.2068  0.7368  1.3305
17025SOL     OW53516   6.857   5.807   4.032 -0.4777  0.4016 -0.4157
17025SOL    HW153517   6.852   5.902   4.046 -2.3444  0.0008  2.6163
17025SOL    HW253518   6.950   5.787   4.037 -0.0103  2.0810 -1.5214
17026SOL     OW53519   7.643   8.972   0.807  0.7013 -0.7476  0.3037
17026SOL    HW153520   7.628   8.923   0.888  2.8538 -1.7769  0.1431
17026SOL    HW253521   7.614   8.912   0.737 -0.8978  0.0334  0.2551
17027SOL     OW53522   3.537   1.863   4.482  0.5449 -0.1035 -0.1533
17027SOL    HW153523   3.528   1.905   4.567 -0.0702  1.0514 -0.7735
17027SOL    HW253524   3.519   1.932   4.418  0.3678 -1.0952 -1.2161
17028SOL     OW53525   3.724   5.955   9.927  0.8533 -0.5130 -0.4300
17028SOL    HW153526   3.747   5.862   9.920  0.4173 -0.7200  0.7697
17028SOL    HW253527   3.695   5.966  10.017 -1.5096  0.2505 -1.2248
17029SOL     OW53528   9.997   0.780   5.437  0.1794 -0.2502  0.0774
17029SOL    HW153529   9.987   0.701   5.383  0.5037 -0.2477  0.0138
17029SOL    HW253530   9.910   0.819   5.439  0.0533 -0.5258 -0.0233
17030SOL     OW53531   2.118   1.016   7.142 -0.4389  0.4273 -0.3563
17030SOL    HW153532   2.102   0.966   7.221 -0.5650  0.1459 -0.5587
17030SOL    HW253533   2.139   0.950   7.075 -0.6554  0.6351 -0.6346
17031SOL     OW53534   1.941   3.282   1.131 -0.4987  0.0345 -0.0504
17031SOL    HW153535   1.993   3.215   1.175  0.2115  0.2066 -0.5959
17031SOL    HW253536   1.857   3.241   1.114  0.0188 -0.8254 -0.6146
17032SOL     OW53537   5.773   4.913  10.028 -0.3173  0.2029  0.1897
17032SOL    HW153538   5.704   4.972  10.058  0.6217  0.7015  1.4553
17032SOL    HW253539   5.851   4.940  10.077  1.1819  0.6471 -2.3024
17033SOL     OW53540   4.274   1.831   8.540  0.3114 -0.0132  0.4356
17033SOL    HW153541   4.200   1.890   8.553  0.0459 -0.1910 -0.2330
17033SOL    HW253542   4.239   1.744   8.561  0.2859 -0.1148 -0.0144
17034SOL     OW53543   8.033   3.650   1.894 -0.5013  0.4335 -1.0446
17034SOL    HW153544   8.026   3.645   1.989  1.7128  0.9754 -0.8061
17034SOL    HW253545   7.961   3.595   1.862  1.0064 -3.0207  0.9835
17035SOL     OW53546   7.171   8.539   9.124  0.0950 -0.1115 -0.3088
17035SOL    HW153547   7.228   8.523   9.049 -1.0873  1.6190 -1.6499
17035SOL    HW253548   7.231   8.539   9.200  2.1636  2.7273 -1.7419
17036SOL     OW53549   0.743   9.414   5.006  1.3781  0.0550 -0.0873
17036SOL    HW153550   0.777   9.391   4.920  0.6103 -0.3885 -0.2783
17036SOL    HW253551   0.815   9.394   5.066  1.8963  0.3064 -0.6114
17037SOL     OW53552   2.231   7.934   6.855 -0.3396 -0.1931 -0.3345
17037SOL    HW153553   2.215   8.014   6.805  0.2232  0.2772  0.2317
17037SOL    HW253554   2.151   7.922   6.907  0.1114  0.7655  0.6051
17038SOL     OW53555   5.425   7.921   6.553 -0.1393 -0.3600 -0.2913
17038SOL    HW153556   5.366   7.906   6.479 -0.2107  1.0095 -0.5470
17038SOL    HW253557   5.473   8.000   6.529 -0.4288  0.3355  1.2902
17039SOL     OW53558   8.398   7.393   5.088 -0.4256 -0.5490 -0.3947
17039SOL    HW153559   8.434   7.459   5.029  2.7237 -1.8624 -0.1482
17039SOL    HW253560   8.368   7.322   5.031 -4.3320  1.1046 -0.6985
17040SOL     OW53561   6.273   4.226   1.282  0.1044 -0.1852 -0.3109
17040SOL    HW153562   6.204   4.238   1.216 -0.3809  1.5632  0.4421
17040SOL    HW253563   6.226   4.215   1.364  0.7103 -2.2640 -0.1885
17041SOL     OW53564   8.778   4.614   9.807 -0.4574 -0.4043  0.2327
17041SOL    HW153565   8.693   4.622   9.762  0.5305  0.4596 -1.6216
17041SOL    HW253566   8.829   4.687   9.773  1.0396 -0.8922  1.3425
17042SOL     OW53567   2.981   0.928   5.069  0.1506 -0.2587  0.2391
17042SOL    HW153568   2.893   0.892   5.055 -0.4525  1.3841 -0.4873
17042SOL    HW253569   2.991   0.994   5.001  1.6472  0.1562  0.8164
17043SOL     OW53570   6.708   5.767   1.593 -0.0519  0.2983  0.0954
17043SOL    HW153571   6.707   5.723   1.508 -0.8161  0.2914  0.1022
17043SOL    HW253572   6.774   5.836   1.583 -1.3863  1.4925 -1.1462
17044SOL     OW53573   0.269  10.256   6.648  0.5426 -0.1032 -0.1799
17044SOL    HW153574   0.306  10.262   6.560  1.5876  0.4179  0.2794
17044SOL    HW253575   0.339  10.287   6.705 -1.2067  2.8094  0.5936
17045SOL     OW53576   6.130   7.525   9.829  0.6737  0.6835 -0.4054
17045SOL    HW153577   6.209   7.538   9.882  1.7459  1.5287 -2.1336
17045SOL    HW253578   6.145   7.441   9.784  0.7095  0.9600 -0.9155
17046SOL     OW53579   2.385   4.657   7.350 -0.3775  0.0727  0.7382
17046SOL    HW153580   2.438   4.607   7.288 -0.6668 -0.0198  0.5646
17046SOL    HW253581   2.412   4.624   7.436  0.4460  0.6100  0.7014
17047SOL     OW53582   2.931  10.120   5.330 -0.9816  0.4761  0.1699
17047SOL    HW153583   2.841  10.137   5.302 -0.9581  0.5806  0.1572
17047SOL    HW253584   2.932  10.027   5.352 -0.9273  0.3193 -0.4668
17048SOL     OW53585   9.110   3.306   4.017 -0.6067  0.3897 -0.1762
17048SOL    HW153586   9.054   3.379   4.043  0.4244  0.9096  0.6932
17048SOL    HW253587   9.147   3.274   4.100 -0.2199 -0.4295 -0.6531
17049SOL     OW53588   8.332   8.447   1.048  0.1290 -0.3856  0.5178
17049SOL    HW153589   8.411   8.501   1.051  1.0964 -1.5029 -1.8969
17049SOL    HW253590   8.274   8.493   0.988  0.2045 -1.0353 -0.0723
17050SOL     OW53591   4.792  10.120   1.311 -0.4249  0.3890 -0.1867
17050SOL    HW153592   4.878  10.147   1.280 -0.0995  0.0032  0.3619
17050SOL    HW253593   4.736  10.197   1.300  0.1456  0.8385  0.0424
17051SOL     OW53594   5.269   2.723   1.741  0.5700  0.2978 -0.3502
17051SOL    HW153595   5.181   2.758   1.730  0.4781  0.0991 -0.2277
17051SOL    HW253596   5.323   2.779   1.684  0.1151 -0.6572 -1.7732
17052SOL     OW53597   0.959   9.931   3.387  0.2787 -0.1454  0.0061
17052SOL    HW153598   0.982   9.984   3.463  0.3136  1.9926 -1.4278
17052SOL    HW253599   1.023   9.860   3.387  0.8320  0.3262  1.4538
17053SOL     OW53600  10.109   4.806   3.489  0.2044 -0.0978 -0.2575
17053SOL    HW153601  10.015   4.800   3.504  0.1347 -1.2950 -1.1079
17053SOL    HW253602  10.135   4.885   3.537 -1.0476 -0.3077  0.8345
17054SOL     OW53603   5.646   3.739   8.447 -0.0812 -0.1516  0.4356
17054SOL    HW153604   5.564   3.690   8.440  0.7319 -1.6220  0.8245
17054SOL    HW253605   5.683   3.711   8.530  0.6286  0.8167  0.4589
17055SOL     OW53606   0.702   1.258   4.442 -0.1040 -0.1021 -0.1279
17055SOL    HW153607   0.755   1.197   4.494 -0.1022  0.4279  0.4956
17055SOL    HW253608   0.729   1.241   4.352  0.7430 -0.2106  0.1341
17056SOL     OW53609   4.061   9.636   3.644  0.8200 -0.2357  0.4616
17056SOL    HW153610   4.080   9.720   3.685  0.7967 -0.0219  0.0513
17056SOL    HW253611   4.043   9.658   3.552 -0.5808 -0.5111  0.6406
17057SOL     OW53612   3.810   8.040  10.278 -0.3955 -0.4388 -0.0611
17057SOL    HW153613   3.732   8.094  10.294 -0.4925 -0.4662 -0.4217
17057SOL    HW253614   3.851   8.081  10.202  1.7803  1.6297  2.0564
17058SOL     OW53615   7.251   7.122   2.761  0.4810 -0.0442  0.0479
17058SOL    HW153616   7.176   7.071   2.794  0.6474 -1.4191 -1.5180
17058SOL    HW253617   7.283   7.170   2.837 -0.3895 -1.4402  1.3696
17059SOL     OW53618   7.486   7.086   9.425  0.5762  0.5795  0.0573
17059SOL    HW153619   7.499   7.153   9.492 -0.3982  0.5111  0.3321
17059SOL    HW253620   7.426   7.126   9.363  1.6736  0.7332 -0.9279
17060SOL     OW53621   2.674   2.290   4.173 -0.0484 -0.0834  0.1738
17060SOL    HW153622   2.614   2.221   4.146  0.8735 -0.5229 -0.8536
17060SOL    HW253623   2.758   2.246   4.184  0.1723  0.5689  1.2875
17061SOL     OW53624   6.906  10.026   9.075 -0.0674 -0.0952  0.1396
17061SOL    HW153625   6.895   9.974   9.155  2.4777 -0.1618  0.5338
17061SOL    HW253626   6.885   9.966   9.004 -1.3227 -0.3479  0.6980
17062SOL     OW53627  10.174  10.312   8.884  0.0462 -0.1116  0.1080
17062SOL    HW153628  10.130  10.285   8.803 -1.2015 -0.4806  0.8835
17062SOL    HW253629  10.182  10.231   8.935  0.0436  0.2648  0.7142
17063SOL     OW53630   8.021   6.981   9.040 -0.3095  0.1099 -0.0431
17063SOL    HW153631   8.052   7.038   9.111 -0.6284 -0.3977  0.5086
17063SOL    HW253632   8.091   6.986   8.974  0.4753 -0.2074  0.7405
17064SOL     OW53633   0.372   2.899   5.803  0.3497  0.2646  0.5837
17064SOL    HW153634   0.418   2.892   5.720 -1.0355 -1.3733 -0.1009
17064SOL    HW253635   0.358   2.993   5.815 -0.2307  0.4991 -1.5205
17065SOL     OW53636   0.230   1.025   2.466  0.0163  0.1245 -0.6164
17065SOL    HW153637   0.179   1.103   2.487 -1.7113 -0.6989 -1.5449
17065SOL    HW253638   0.165   0.961   2.437  1.3939 -1.6364  0.0039
17066SOL     OW53639   0.903   6.076   2.609 -0.0288  0.2736  0.6681
17066SOL    HW153640   0.983   6.033   2.578  0.8708  1.0620  1.7862
17066SOL    HW253641   0.878   6.134   2.537  0.1782 -0.2632  0.1525
17067SOL     OW53642   8.614   4.634   7.404  0.6814  0.1635  0.0011
17067SOL    HW153643   8.682   4.621   7.471 -0.5207  0.7387  1.3913
17067SOL    HW253644   8.537   4.662   7.454 -0.2129  0.7686 -1.6626
17068SOL     OW53645   2.025   0.581   6.858 -0.1823  0.1538  0.8888
17068SOL    HW153646   2.117   0.600   6.841  0.0579 -1.6170 -0.0530
17068SOL    HW253647   1.993   0.542   6.777 -1.1167 -1.4212  1.9453
17069SOL     OW53648   0.197   3.099   5.443  0.1249 -0.4713 -0.2153
17069SOL    HW153649   0.291   3.113   5.454  0.2455 -0.5459 -1.0668
17069SOL    HW253650   0.161   3.106   5.531  0.9005 -0.2256  0.0898
17070SOL     OW53651   0.869   1.305   8.198 -0.1910 -0.7780 -0.0796
17070SOL    HW153652   0.873   1.281   8.291  0.1991 -0.6906 -0.0723
17070SOL    HW253653   0.959   1.293   8.167 -0.1405  0.0175 -0.2383
17071SOL     OW53654   2.230   2.869   1.813  0.0692  0.0258 -0.8349
17071SOL    HW153655   2.233   2.914   1.728 -1.3395 -0.8200 -1.3720
17071SOL    HW253656   2.232   2.776   1.790  0.4382 -0.2106  0.1194
17072SOL     OW53657   9.915   3.298   9.097 -0.5679  0.1348 -0.0442
17072SOL    HW153658   9.918   3.269   9.005  2.4143 -0.6412  0.1717
17072SOL    HW253659   9.964   3.380   9.097  1.3941 -0.9551  1.0893
17073SOL     OW53660   9.106   1.951   0.745  0.1098  0.2401  0.2594
17073SOL    HW153661   9.011   1.958   0.735  0.0233  3.3136  1.9635
17073SOL    HW253662   9.141   1.983   0.661 -0.2956 -1.1379 -0.4685
17074SOL     OW53663   1.281   8.043   2.602  0.2838 -0.0494 -0.0757
17074SOL    HW153664   1.235   8.001   2.530 -1.1931 -0.0140  0.8032
17074SOL    HW253665   1.341   8.104   2.561  1.0692 -1.5933 -1.3292
17075SOL     OW53666   5.316   9.942   2.245  0.3903 -0.6055  0.2240
17075SOL    HW153667   5.323   9.878   2.316 -0.1652  2.9055  3.8010
17075SOL    HW253668   5.384  10.006   2.263 -1.6366  1.9704 -0.5526
17076SOL     OW53669   3.613   0.837   2.450 -0.3634  0.2215 -0.1068
17076SOL    HW153670   3.621   0.910   2.389  0.7797  0.3625  0.1707
17076SOL    HW253671   3.646   0.873   2.533  1.1970 -0.8663 -0.2079
17077SOL     OW53672   4.820   9.525   4.067 -0.7027  0.4659  0.2635
17077SOL    HW153673   4.896   9.575   4.097 -0.3608  0.0576  0.0856
17077SOL    HW253674   4.756   9.592   4.041  0.5183  0.8630 -1.9995
17078SOL     OW53675   7.039   3.262   3.287 -0.2184  0.7291 -0.0242
17078SOL    HW153676   7.059   3.187   3.343 -1.3008  1.7682  1.8497
17078SOL    HW253677   7.118   3.316   3.290  0.9614 -0.7295 -2.2042
17079SOL     OW53678   4.121   3.956   4.760 -0.0814 -0.1633 -0.3051
17079SOL    HW153679   4.028   3.972   4.742  0.1752  1.2458 -0.4879
17079SOL    HW253680   4.125   3.863   4.784 -1.0925 -1.0323 -3.1532
17080SOL     OW53681   5.276   3.399   2.801  0.0111 -0.0301  0.2964
17080SOL    HW153682   5.255   3.421   2.711 -2.5109 -4.5815 -0.5352
17080SOL    HW253683   5.320   3.313   2.795 -0.5298 -0.6468  3.3746
17081SOL     OW53684   1.724   7.484   2.579 -0.2746 -0.2516 -0.6918
17081SOL    HW153685   1.668   7.561   2.566  1.0656  0.8199 -0.4804
17081SOL    HW253686   1.805   7.520   2.616  0.1320 -1.8716  0.0894
17082SOL     OW53687   4.296   4.305   5.920  0.2851  0.3888  0.2804
17082SOL    HW153688   4.349   4.361   5.863  0.1537 -1.4022 -1.7591
17082SOL    HW253689   4.302   4.218   5.879 -2.6343 -0.2776  1.0637
17083SOL     OW53690   1.813   5.760   1.694  0.1118 -0.8028 -0.2971
17083SOL    HW153691   1.853   5.847   1.688 -2.2965  0.3732 -0.6623
17083SOL    HW253692   1.811   5.741   1.788 -2.0598  1.0076  0.1312
17084SOL     OW53693   0.200   4.718   9.101  0.1208 -0.1517  0.0772
17084SOL    HW153694   0.225   4.730   9.009 -2.2077 -0.8559 -0.7219
17084SOL    HW253695   0.104   4.716   9.100 -0.1937  3.2473  2.9968
17085SOL     OW53696   6.832   5.717   5.663 -0.1918 -0.0582 -0.1955
17085SOL    HW153697   6.890   5.651   5.625 -0.5825  1.1016 -3.0750
17085SOL    HW253698   6.847   5.711   5.757  0.9913 -3.0812 -0.4556
17086SOL     OW53699   6.803   6.851   4.531  0.3719 -0.1158  0.5707
17086SOL    HW153700   6.711   6.864   4.551  0.4878 -0.1070  1.1106
17086SOL    HW253701   6.810   6.758   4.512 -0.0342  0.1519 -1.0449
17087SOL     OW53702   7.212   9.571   0.247 -0.4094 -0.0838  0.0918
17087SOL    HW153703   7.187   9.663   0.256  1.7280  0.5160  0.5251
17087SOL    HW253704   7.143   9.523   0.293 -2.4987  1.1089 -1.5981
17088SOL     OW53705   7.161   5.113   8.920 -0.0696 -0.5100 -0.2175
17088SOL    HW153706   7.151   5.018   8.926  0.8288 -0.5400  1.2219
17088SOL    HW253707   7.098   5.140   8.853  0.3644 -2.2276 -1.3879
17089SOL     OW53708   3.369   5.962   2.527  0.2957 -0.0678  0.4022
17089SOL    HW153709   3.388   5.994   2.438  1.4880  1.0009  1.0110
17089SOL    HW253710   3.451   5.926   2.558 -0.4906 -1.8290  0.5597
17090SOL     OW53711   2.460   1.474   3.317 -0.7717  0.0649 -0.0779
17090SOL    HW153712   2.491   1.392   3.356  0.4838  0.5137 -0.0922
17090SOL    HW253713   2.447   1.453   3.225  1.0341  0.2337 -0.4149
17091SOL     OW53714   0.918   4.426   5.218 -0.3183 -0.3221 -0.4265
17091SOL    HW153715   0.987   4.477   5.176 -0.1396 -1.0688 -1.0535
17091SOL    HW253716   0.856   4.492   5.251  0.5227  0.3391 -0.1332
17092SOL     OW53717   8.022  10.177   8.676 -0.0932 -0.7741 -0.2509
17092SOL    HW153718   7.942  10.129   8.698 -0.8408  0.4050 -0.3288
17092SOL    HW253719   7.992  10.259   8.637  1.1656 -0.7919 -1.3585
17093SOL     OW53720   2.059   6.581   1.303 -0.2515  0.2687  0.7474
17093SOL    HW153721   2.149   6.578   1.335 -0.3702  0.6637  1.1201
17093SOL    HW253722   2.063   6.636   1.224 -0.5022  2.0832  1.9291
17094SOL     OW53723   1.237   2.197   1.575 -0.0681 -0.7006  0.5086
17094SOL    HW153724   1.276   2.261   1.516  1.8677 -3.3500 -1.3513
17094SOL    HW253725   1.146   2.190   1.546 -0.1469  0.7326  0.3571
17095SOL     OW53726   8.445   8.082   2.053  0.0545 -0.5364 -0.1209
17095SOL    HW153727   8.444   8.102   2.147 -0.3670  0.4494 -0.3198
17095SOL    HW253728   8.508   8.011   2.044  0.0869 -0.6558  0.9124
17096SOL     OW53729   2.116   7.567   2.685 -0.1549 -0.7831 -0.1456
17096SOL    HW153730   2.186   7.600   2.742 -1.1660  0.0279  0.6831
17096SOL    HW253731   2.076   7.496   2.735 -0.8667 -0.2529  0.0604
17097SOL     OW53732   7.451   9.987   5.288  0.1223  0.0516  0.6565
17097SOL    HW153733   7.395   9.918   5.324 -2.1665  0.7799 -1.2384
17097SOL    HW253734   7.530   9.941   5.260 -1.2446 -1.8379 -0.3461
17098SOL     OW53735   5.268   1.001   3.995 -0.1843 -0.0673 -0.8216
17098SOL    HW153736   5.178   0.975   4.014 -0.2448  0.7863  0.1358
17098SOL    HW253737   5.301   1.036   4.078  0.5689  0.9380 -1.5237
17099SOL     OW53738   8.337   0.962   3.764 -0.5651  0.4552 -0.0619
17099SOL    HW153739   8.302   0.894   3.821 -0.5350 -0.0557 -0.6403
17099SOL    HW253740   8.261   1.014   3.739 -0.5985  0.5940  0.3350
17100SOL     OW53741   7.463   6.505   4.751  0.4824 -0.1148  0.0162
17100SOL    HW153742   7.396   6.509   4.820 -0.0111  2.0497 -0.5077
17100SOL    HW253743   7.511   6.587   4.760  2.3695 -1.1270 -0.3507
17101SOL     OW53744  10.244   3.606   9.548  0.2187  0.1417  0.0807
17101SOL    HW153745  10.334   3.573   9.547  0.2973  0.3576 -0.9343
17101SOL    HW253746  10.193   3.535   9.587  0.6133 -0.6126 -0.7289
17102SOL     OW53747   9.424   8.764   4.416 -0.6245  0.3746 -0.2275
17102SOL    HW153748   9.465   8.814   4.487 -1.9109  1.9672 -0.5475
17102SOL    HW253749   9.368   8.701   4.461 -0.6117  0.6486  0.1770
17103SOL     OW53750   1.372   0.660   8.550  0.2925  0.0745 -0.2632
17103SOL    HW153751   1.306   0.605   8.509 -0.8345 -0.6366  2.3275
17103SOL    HW253752   1.328   0.745   8.562 -0.4529 -0.5723  2.0024
17104SOL     OW53753   6.808   4.392   1.162 -0.2200 -0.6234  0.4110
17104SOL    HW153754   6.827   4.339   1.084 -1.9953 -1.7667  0.7052
17104SOL    HW253755   6.722   4.430   1.145  0.6609  1.6444  0.5446
17105SOL     OW53756   9.685   7.414   7.806 -0.4453 -0.7110  0.6052
17105SOL    HW153757   9.601   7.458   7.790  0.5189  0.5760 -1.3438
17105SOL    HW253758   9.679   7.332   7.756 -0.2553 -0.2225 -0.2418
17106SOL     OW53759   7.279   0.061   7.732 -0.3607  0.4820  0.0649
17106SOL    HW153760   7.320   0.131   7.783  0.2779  0.8002 -0.8478
17106SOL    HW253761   7.190   0.093   7.715 -0.5379  0.4258  0.8588
17107SOL     OW53762   8.863   8.855   7.599 -0.3292  0.3513  0.0383
17107SOL    HW153763   8.845   8.927   7.539  2.3680  0.5633 -0.6493
17107SOL    HW253764   8.947   8.877   7.639  1.4913 -3.0869 -1.4241
17108SOL     OW53765   0.545   4.034   7.611 -0.2011  0.4420 -0.3132
17108SOL    HW153766   0.600   4.006   7.537 -0.2140  0.3476 -0.2873
17108SOL    HW253767   0.583   3.989   7.687 -0.8252 -0.2972 -0.4219
17109SOL     OW53768   7.178   9.844   1.407 -0.4244  0.5525  0.2006
17109SOL    HW153769   7.127   9.881   1.335 -0.8777  0.1701  0.3168
17109SOL    HW253770   7.157   9.899   1.482  1.3923  2.0282 -0.3197
17110SOL     OW53771   1.696   0.807   1.605  0.5803  0.0494 -0.3308
17110SOL    HW153772   1.674   0.721   1.571  0.3381  0.3926 -1.0583
17110SOL    HW253773   1.659   0.808   1.693 -0.7257 -0.0627 -0.8528
17111SOL     OW53774   1.396   4.309   0.845  0.2052  0.2357 -0.3958
17111SOL    HW153775   1.420   4.376   0.781  0.3732  0.4342 -0.1246
17111SOL    HW253776   1.307   4.284   0.822 -0.0266  0.8829 -0.2101
17112SOL     OW53777   0.630   6.847   0.206 -0.0389  0.4331 -0.5597
17112SOL    HW153778   0.618   6.817   0.296  0.3113  0.1284 -0.6098
17112SOL    HW253779   0.719   6.882   0.204 -0.0760  0.5186 -0.7659
17113SOL     OW53780   3.487  10.109   4.150  0.0476  0.0327  0.3314
17113SOL    HW153781   3.415  10.075   4.097 -0.3028  1.2685 -0.0289
17113SOL    HW253782   3.547  10.146   4.086  1.7927 -2.3041  0.4999
17114SOL     OW53783   8.570   0.798   1.748 -0.6325 -0.0898 -0.1509
17114SOL    HW153784   8.484   0.768   1.775 -0.2191  0.1676  1.5566
17114SOL    HW253785   8.625   0.720   1.750 -0.6878 -0.1502 -0.7140
17115SOL     OW53786   9.036   3.644   6.820  0.4434  0.0886 -0.2184
17115SOL    HW153787   9.026   3.590   6.741 -0.1318  1.4887 -1.1546
17115SOL    HW253788   8.983   3.600   6.886 -0.4291 -0.2228 -1.1034
17116SOL     OW53789   4.531   4.723   3.270  0.3384  0.6340 -0.1711
17116SOL    HW153790   4.482   4.642   3.257  0.2294  0.6039  0.3982
17116SOL    HW253791   4.622   4.700   3.249  0.0940  0.7430 -1.4308
17117SOL     OW53792   4.057   7.241   0.757  0.0323  0.6828  0.3265
17117SOL    HW153793   4.070   7.332   0.730  0.0572  0.2909 -1.0506
17117SOL    HW253794   4.113   7.231   0.833 -0.6199  2.0495  1.0256
17118SOL     OW53795   7.548   5.345   6.228  0.2490 -0.4144  0.1910
17118SOL    HW153796   7.615   5.327   6.294  0.5965 -2.0406 -0.5499
17118SOL    HW253797   7.473   5.377   6.278  1.1876  0.3531  1.1461
17119SOL     OW53798  10.157   4.214  10.161 -0.0469  0.2499  0.8514
17119SOL    HW153799  10.083   4.156  10.180 -0.8253  0.9564  0.0888
17119SOL    HW253800  10.211   4.210  10.240 -0.6842 -0.6001  1.2671
17120SOL     OW53801   2.654   0.302  10.435  0.0838 -0.1151  0.0301
17120SOL    HW153802   2.682   0.217  10.401  1.1124 -0.1344  0.8863
17120SOL    HW253803   2.727   0.331  10.489 -0.5277  1.0246  0.2634
17121SOL     OW53804   2.330   5.923   6.341 -0.2273  0.6486  0.1916
17121SOL    HW153805   2.402   5.869   6.308  1.4272  1.7653  1.7871
17121SOL    HW253806   2.352   6.011   6.312  0.2424  1.3409  2.4940
17122SOL     OW53807   4.716   4.692   5.191  0.4425  0.1100 -0.0497
17122SOL    HW153808   4.668   4.661   5.114  0.1004 -0.0254  0.2169
17122SOL    HW253809   4.802   4.716   5.157  0.9835 -1.7884 -0.1672
17123SOL     OW53810   1.122   7.986   4.734  0.6845 -0.1149 -0.0018
17123SOL    HW153811   1.185   7.914   4.737  0.9447  0.1485  1.3521
17123SOL    HW253812   1.086   7.983   4.645  1.4031 -1.2988 -0.2677
17124SOL     OW53813  10.036   5.281   6.461  0.4408 -0.2898 -0.1890
17124SOL    HW153814  10.057   5.189   6.477 -0.9620 -0.1798  3.0697
17124SOL    HW253815  10.061   5.326   6.541 -2.0011  1.5633 -0.3495
17125SOL     OW53816   2.720   6.762   5.234  0.3915 -0.0527  0.0374
17125SOL    HW153817   2.647   6.782   5.292 -0.0368 -2.0040  0.2432
17125SOL    HW253818   2.787   6.827   5.256 -0.6233  0.6713  1.0825
17126SOL     OW53819   8.694   1.214   3.445  0.4142  0.2980 -0.1675
17126SOL    HW153820   8.652   1.156   3.508 -0.6471 -0.9568 -1.9413
17126SOL    HW253821   8.622   1.263   3.406  1.0163  0.8116 -0.6449
17127SOL     OW53822   0.619   2.180   0.020  0.2704 -0.1187  0.6785
17127SOL    HW153823   0.523   2.179   0.018  0.2371  1.6392  0.4162
17127SOL    HW253824   0.644   2.106  -0.036 -0.9538  1.5122 -2.2281
17128SOL     OW53825   7.252   8.080   2.305 -0.6298 -0.0832  0.1772
17128SOL    HW153826   7.293   8.163   2.333 -1.1475 -0.3132  1.6853
17128SOL    HW253827   7.183   8.065   2.368 -0.7448 -1.5319 -0.2670
17129SOL     OW53828   5.998   3.985   8.387 -0.0196  0.2183  0.1953
17129SOL    HW153829   5.997   3.889   8.397  1.2791  0.1965  0.2206
17129SOL    HW253830   6.082   4.004   8.346 -0.0344  1.4047  0.6941
17130SOL     OW53831   1.574   1.165   1.170  0.6122  0.6143 -0.0355
17130SOL    HW153832   1.597   1.167   1.263  1.1549 -0.1245 -0.1503
17130SOL    HW253833   1.620   1.089   1.135  1.4141  1.5721 -1.1674
17131SOL     OW53834   3.375   0.702  10.231  0.4011 -0.5318 -1.1273
17131SOL    HW153835   3.434   0.770  10.263  0.5869 -1.5606  0.9053
17131SOL    HW253836   3.431   0.643  10.180  0.4878  0.1495 -1.8294
17132SOL     OW53837   4.317   8.260   1.051 -0.2583  0.8117  0.1348
17132SOL    HW153838   4.309   8.311   1.132 -0.6043 -0.3911  0.8916
17132SOL    HW253839   4.409   8.234   1.048 -0.2952  0.6662  0.2634
17133SOL     OW53840   7.449   1.380   8.774  0.4526  0.1887 -0.1070
17133SOL    HW153841   7.430   1.288   8.754  0.0897  0.0977  0.6147
17133SOL    HW253842   7.385   1.403   8.841 -0.8673  1.6083 -1.7779
17134SOL     OW53843  10.240   9.747   0.839  0.0366  0.6824  0.5649
17134SOL    HW153844  10.293   9.679   0.796  1.4292  2.0642  0.0270
17134SOL    HW253845  10.158   9.702   0.861  1.1985 -1.3884  0.9538
17135SOL     OW53846   4.694   7.516   1.691  0.0490 -0.1056 -0.3794
17135SOL    HW153847   4.766   7.510   1.628  0.7127  0.2656  0.3199
17135SOL    HW253848   4.632   7.577   1.651  0.2727 -0.1890 -0.8554
17136SOL     OW53849   8.384   6.239   9.414 -0.0465 -0.0313 -0.0495
17136SOL    HW153850   8.329   6.253   9.490 -0.2343  1.4633 -0.4317
17136SOL    HW253851   8.366   6.148   9.388 -0.3340 -0.4057  1.3765
17137SOL     OW53852   3.617  10.116   3.113  0.5605  0.2790 -0.3427
17137SOL    HW153853   3.655  10.165   3.040  1.2926 -2.0202 -1.6205
17137SOL    HW253854   3.661  10.030   3.110  1.3562  0.3528  3.4030
17138SOL     OW53855   2.172   6.962   0.026  0.3284  0.3608  1.0339
17138SOL    HW153856   2.166   7.044  -0.024  0.7201 -0.1322  0.1504
17138SOL    HW253857   2.193   6.896  -0.040  2.9609 -0.0014  2.0865
17139SOL     OW53858   7.940   7.411   5.052 -0.0805  0.4725  0.3780
17139SOL    HW153859   7.897   7.497   5.049 -0.1363  0.4619  0.8760
17139SOL    HW253860   7.983   7.409   5.138 -0.4305 -0.1745  0.5375
17140SOL     OW53861   2.406   4.609   0.334  0.1537 -0.2263  0.2858
17140SOL    HW153862   2.447   4.696   0.344  0.0886 -0.0471 -0.9038
17140SOL    HW253863   2.452   4.554   0.398 -0.4759  0.8918  1.7680
17141SOL     OW53864   1.803   2.109   4.448 -0.3581 -0.2399 -0.2682
17141SOL    HW153865   1.711   2.134   4.434 -0.1003 -0.4182 -2.5783
17141SOL    HW253866   1.798   2.029   4.500 -1.5641 -0.8363 -1.2694
17142SOL     OW53867   9.225   2.050   9.795 -0.3649  0.1949  0.0317
17142SOL    HW153868   9.252   1.959   9.809 -0.2139  0.0048 -1.3647
17142SOL    HW253869   9.131   2.050   9.812 -0.5547 -0.4554 -0.9348
17143SOL     OW53870   0.837   3.764   7.023 -0.1906 -0.0735  0.2288
17143SOL    HW153871   0.894   3.808   7.086 -1.3440  0.8938  0.6562
17143SOL    HW253872   0.750   3.798   7.043 -0.8186 -0.9874 -0.8423
17144SOL     OW53873   9.689   1.017   7.116  0.1932  0.3570 -0.6156
17144SOL    HW153874   9.677   0.926   7.141 -0.7733  0.7277  0.3493
17144SOL    HW253875   9.782   1.023   7.092  0.9531 -0.3167  1.8383
17145SOL     OW53876  10.036   7.092   6.278  0.8367 -0.3703 -0.2204
17145SOL    HW153877  10.100   7.109   6.347 -0.0591  0.9882  0.3367
17145SOL    HW253878   9.960   7.057   6.325 -0.3015  1.8634 -0.2545
17146SOL     OW53879   7.294   5.116   6.852 -0.7009 -0.2356 -0.6981
17146SOL    HW153880   7.220   5.177   6.847 -0.6446  0.7741  4.4931
17146SOL    HW253881   7.368   5.171   6.880  1.7118 -1.5176 -3.9319
17147SOL     OW53882   0.123   6.710   0.842  0.1140 -0.1381  0.2718
17147SOL    HW153883   0.048   6.727   0.899 -0.2891 -1.9684  0.3565
17147SOL    HW253884   0.199   6.736   0.895 -0.2526 -1.7082  1.6799
17148SOL     OW53885  10.237   9.254  10.003 -0.1180  0.4957 -0.3072
17148SOL    HW153886  10.146   9.268  10.029 -0.1889  1.0300 -0.8086
17148SOL    HW253887  10.239   9.164   9.970 -0.0079 -0.2085  1.5515
17149SOL     OW53888   9.356   5.672   1.119 -0.5832  0.0513 -0.1549
17149SOL    HW153889   9.425   5.614   1.087 -0.8284 -0.1938 -0.2505
17149SOL    HW253890   9.355   5.659   1.214  1.6758  2.4591  0.2938
17150SOL     OW53891   9.777   8.727   5.459  0.6825 -0.1389 -0.2603
17150SOL    HW153892   9.734   8.788   5.519  1.4235  1.0191 -0.8744
17150SOL    HW253893   9.852   8.693   5.509 -1.2690 -2.7759  1.1057
17151SOL     OW53894   7.791   4.854   0.468  0.1933 -0.2840 -0.6562
17151SOL    HW153895   7.879   4.831   0.439  0.5801 -0.9453  0.9420
17151SOL    HW253896   7.740   4.774   0.457  0.5252 -0.7670  1.0891
17152SOL     OW53897   9.893   8.253   6.097  0.2435  0.0705  0.2435
17152SOL    HW153898   9.836   8.260   6.173  0.7349 -2.0714  0.8636
17152SOL    HW253899   9.840   8.289   6.025 -1.6789 -1.2340  0.9087
17153SOL     OW53900   2.338   0.295   1.010 -0.0743  0.0170 -0.7074
17153SOL    HW153901   2.358   0.341   1.092  1.4765 -0.8328 -0.5686
17153SOL    HW253902   2.260   0.339   0.977 -0.0679  1.1377  0.6442
17154SOL     OW53903   1.832   0.127   0.853 -0.3597 -0.3651  0.3549
17154SOL    HW153904   1.855   0.035   0.843  1.2804  0.1906 -1.7447
17154SOL    HW253905   1.738   0.127   0.869 -0.3096 -2.4012  0.8925
17155SOL     OW53906   0.904   2.998   3.609  0.2232  0.2774 -0.1770
17155SOL    HW153907   0.988   3.042   3.622  0.3627 -0.0780  0.1173
17155SOL    HW253908   0.918   2.908   3.637 -0.8603  0.7388  2.0642
17156SOL     OW53909   7.857   9.662   6.238 -0.4826  0.3707 -0.0417
17156SOL    HW153910   7.821   9.654   6.327 -0.9318  0.8448 -0.1714
17156SOL    HW253911   7.896   9.577   6.220 -2.2603 -0.4549 -0.1923
17157SOL     OW53912   3.692   8.969   4.533 -0.0181  0.2292 -0.5054
17157SOL    HW153913   3.617   8.910   4.536  0.2885 -0.1771  2.3070
17157SOL    HW253914   3.759   8.921   4.485 -0.3487 -1.0290  0.2362
17158SOL     OW53915   5.126   9.784   8.715  0.5940  0.5696 -0.5752
17158SOL    HW153916   5.185   9.810   8.644  0.9500 -3.3055 -1.9478
17158SOL    HW253917   5.043   9.827   8.693  1.6865  2.5420 -1.1111
17159SOL     OW53918   5.950   9.571   1.948 -0.1287 -0.3833  0.3320
17159SOL    HW153919   5.893   9.645   1.930 -1.7266 -2.1727 -2.7505
17159SOL    HW253920   5.922   9.539   2.034  1.7250  3.3708  2.5458
17160SOL     OW53921   6.188   1.239   0.495 -0.2751 -1.0549  0.3207
17160SOL    HW153922   6.200   1.266   0.403  0.8425  0.3006  0.8250
17160SOL    HW253923   6.273   1.203   0.521 -0.7310 -1.8880  0.6992
17161SOL     OW53924   4.115   7.084   0.544  0.3731  0.4980 -0.2884
17161SOL    HW153925   4.096   7.124   0.629 -1.1444 -3.1208  1.2744
17161SOL    HW253926   4.210   7.096   0.533  0.4351  2.0055  1.3452
17162SOL     OW53927   6.915   9.938   4.417  0.0084 -0.1574 -0.1028
17162SOL    HW153928   6.880   9.854   4.445 -1.0209 -0.3039 -1.7040
17162SOL    HW253929   6.912   9.993   4.496  0.7226 -1.5867  0.9685
17163SOL     OW53930   4.982   3.558   4.377 -0.0549 -0.3707 -0.5326
17163SOL    HW153931   4.962   3.644   4.339 -1.1283 -0.6402 -0.6227
17163SOL    HW253932   5.074   3.542   4.354  0.1837  0.7852 -0.4442
17164SOL     OW53933   2.377   7.486   7.948 -0.2842  0.1002 -0.1325
17164SOL    HW153934   2.462   7.461   7.912 -1.0696 -0.6166 -1.5744
17164SOL    HW253935   2.324   7.406   7.942 -0.7603  0.2176  1.7775
17165SOL     OW53936   5.569   3.795   1.970  0.3545  0.1821 -0.1762
17165SOL    HW153937   5.621   3.845   1.907  0.8071  1.4764  1.1614
17165SOL    HW253938   5.559   3.854   2.045 -0.0463 -1.3446  1.0298
17166SOL     OW53939   8.467   7.919   7.081 -0.6743  0.2947 -0.4131
17166SOL    HW153940   8.476   7.955   7.169  1.4752 -0.6072 -0.2056
17166SOL    HW253941   8.429   7.832   7.094  1.5436 -0.6872 -0.1163
17167SOL     OW53942   2.139   6.200   0.284  0.2751 -0.7402 -0.2380
17167SOL    HW153943   2.124   6.246   0.367  1.7407  2.6459 -1.6538
17167SOL    HW253944   2.072   6.235   0.225 -0.1121 -2.3425 -0.8034
17168SOL     OW53945   5.852   5.598   5.578 -0.6199 -0.2216  0.2987
17168SOL    HW153946   5.860   5.669   5.514  0.4783 -0.6016 -0.0117
17168SOL    HW253947   5.767   5.559   5.560 -0.8576  0.4743 -0.1025
17169SOL     OW53948   0.748   9.607   3.464  0.1990 -0.1467  0.2898
17169SOL    HW153949   0.659   9.640   3.478 -0.0844 -0.3779 -0.8672
17169SOL    HW253950   0.745   9.517   3.496 -0.5665 -0.8181 -1.5464
17170SOL     OW53951   0.576   2.481   0.665 -0.3124 -0.4593 -0.2041
17170SOL    HW153952   0.606   2.555   0.717 -2.5579 -0.2152  0.8247
17170SOL    HW253953   0.627   2.407   0.698  1.0106  0.3571 -0.3408
17171SOL     OW53954   8.987   1.696   0.901 -0.4662 -0.4891  0.6969
17171SOL    HW153955   9.028   1.723   0.983  0.6751 -1.7275  0.5592
17171SOL    HW253956   8.919   1.634   0.927 -1.8771  1.0667  0.8730
17172SOL     OW53957   8.288   5.559   9.171  0.3879  0.1957  0.3143
17172SOL    HW153958   8.258   5.474   9.203  0.0229 -0.1320 -0.8453
17172SOL    HW253959   8.241   5.623   9.224 -0.9922 -0.3239 -0.2528
17173SOL     OW53960   4.479   6.213   9.619  0.0736 -0.6522  0.8066
17173SOL    HW153961   4.540   6.286   9.630  0.2717 -0.8432  0.9861
17173SOL    HW253962   4.394   6.248   9.645 -0.4185  0.4036 -1.8963
17174SOL     OW53963   5.212  10.438   1.255 -0.1142 -0.8255  0.1857
17174SOL    HW153964   5.117  10.432   1.244 -0.3114  0.3222  1.1577
17174SOL    HW253965   5.232  10.369   1.318 -0.0847 -1.9817 -1.0346
17175SOL     OW53966   2.443   2.284   5.180 -0.0426 -0.0812  0.5140
17175SOL    HW153967   2.457   2.190   5.170  0.7448 -0.4530  3.9050
17175SOL    HW253968   2.348   2.292   5.193 -0.2088 -0.2843 -0.4827
17176SOL     OW53969   3.196   7.815   6.697  0.3176  0.2912 -0.2963
17176SOL    HW153970   3.141   7.878   6.649  1.0402 -0.0246 -1.5945
17176SOL    HW253971   3.170   7.825   6.788 -2.0496  0.0069 -0.8773
17177SOL     OW53972   1.905   7.924   2.806  0.0569 -0.0560 -0.2201
17177SOL    HW153973   1.824   7.975   2.809  0.0529 -0.0602 -0.2593
17177SOL    HW253974   1.975   7.990   2.809  0.0514 -0.0143 -0.8852
17178SOL     OW53975   5.667   2.422   4.110  0.4345  0.5343  0.0879
17178SOL    HW153976   5.613   2.422   4.031  1.0063 -0.8416 -0.3354
17178SOL    HW253977   5.659   2.333   4.145  0.8059  0.8997  1.1603
17179SOL     OW53978   1.895   7.716   2.627 -0.0081 -0.2896  0.2496
17179SOL    HW153979   1.978   7.684   2.664  0.5219  1.6832  0.8898
17179SOL    HW253980   1.874   7.794   2.679 -0.7441  0.9387 -1.7759
17180SOL     OW53981   5.705   1.180   3.288 -0.3267  0.0859 -0.0447
17180SOL    HW153982   5.755   1.258   3.264 -0.7607  0.1584 -0.7302
17180SOL    HW253983   5.750   1.146   3.365 -0.5868  1.4399  0.7323
17181SOL     OW53984   7.597   7.252   4.378 -0.1953 -0.3317 -0.6858
17181SOL    HW153985   7.656   7.176   4.381  0.7005  0.3543 -0.5738
17181SOL    HW253986   7.540   7.240   4.453  0.4967 -0.4650 -0.1657
17182SOL     OW53987   4.842   1.768   1.063  0.0692  0.2193  0.2379
17182SOL    HW153988   4.896   1.843   1.037 -0.1340  0.3357  0.1573
17182SOL    HW253989   4.755   1.789   1.032  0.5276 -1.3018 -2.2948
17183SOL     OW53990   0.191   6.687   1.975 -0.1171  0.3695  0.2859
17183SOL    HW153991   0.248   6.762   1.962  0.3670  0.4255  2.3065
17183SOL    HW253992   0.103   6.720   1.956  0.0986  1.4470  1.0702
17184SOL     OW53993   0.457   2.977   1.637 -0.3509  0.1420 -0.1196
17184SOL    HW153994   0.460   2.953   1.544 -0.8739  0.5276 -0.2397
17184SOL    HW253995   0.542   3.019   1.654  0.2554 -1.0481 -0.1039
17185SOL     OW53996   7.422   6.939   4.262  0.5112  0.2106 -0.1597
17185SOL    HW153997   7.405   6.917   4.171  0.7234  1.4355 -0.5091
17185SOL    HW253998   7.363   6.883   4.312  0.1790 -0.2555 -1.0551
17186SOL     OW53999   9.360   6.138  10.143 -0.2916 -0.1754  0.2766
17186SOL    HW154000   9.296   6.156  10.212  0.0848  1.4620  0.2352
17186SOL    HW254001   9.359   6.043  10.133 -0.7584 -0.3915  2.1423
17187SOL     OW54002   5.830   8.691   8.916 -0.3457 -0.1119 -0.0904
17187SOL    HW154003   5.822   8.598   8.933  0.1742 -0.5179 -1.8359
17187SOL    HW254004   5.783   8.733   8.987 -0.4361 -1.6930  0.8229
17188SOL     OW54005   8.200   8.331   5.758 -0.0175  0.1435  0.1673
17188SOL    HW154006   8.189   8.417   5.716  1.1903 -0.0633 -0.6213
17188SOL    HW254007   8.112   8.307   5.787 -0.2978  1.8863  0.8937
17189SOL     OW54008   1.826   8.357   1.087 -0.2087 -0.1942  0.3954
17189SOL    HW154009   1.791   8.269   1.075 -0.3134  0.0773 -1.7905
17189SOL    HW254010   1.847   8.363   1.180 -1.1435 -2.1596  0.7777
17190SOL     OW54011   3.979   8.435   3.725 -0.1040 -0.5527  0.4747
17190SOL    HW154012   3.987   8.352   3.678  1.7921 -1.3006  1.9790
17190SOL    HW254013   4.051   8.489   3.692 -0.9896  0.3258 -0.0861
17191SOL     OW54014   1.800   8.961   1.968  0.2286  0.1793 -0.8558
17191SOL    HW154015   1.774   8.958   1.876  2.7559  1.0678 -1.6829
17191SOL    HW254016   1.884   8.915   1.970  0.8485  1.3011  0.7411
17192SOL     OW54017   2.779   5.448   2.759  0.3666 -0.2139  0.7234
17192SOL    HW154018   2.715   5.466   2.828  0.7394  0.2933  0.9485
17192SOL    HW254019   2.839   5.385   2.797  0.9630  0.5686  1.1208
17193SOL     OW54020   3.472   7.307   3.446 -0.3619 -0.2524 -0.1847
17193SOL    HW154021   3.530   7.260   3.387  1.2688  1.4012  0.0342
17193SOL    HW254022   3.524   7.321   3.525 -1.2105  0.8581  0.2068
17194SOL     OW54023   2.451   1.216   3.425 -0.0729  0.0388 -0.0857
17194SOL    HW154024   2.521   1.226   3.490  0.1026  1.1923 -0.4268
17194SOL    HW254025   2.484   1.149   3.366 -0.8320 -2.0665  1.7464
17195SOL     OW54026   8.472   1.437   3.603 -0.5989  0.6245 -0.2906
17195SOL    HW154027   8.460   1.393   3.518 -1.6210  0.0889  0.1099
17195SOL    HW254028   8.397   1.497   3.609 -1.4033 -0.4617  0.9011
17196SOL     OW54029  10.441  10.207   6.354 -0.3966  0.1867  0.4240
17196SOL    HW154030  10.392  10.180   6.432 -2.4659  1.5513 -0.3206
17196SOL    HW254031  10.442  10.303   6.358  1.1444  0.2342 -0.2843
17197SOL     OW54032   9.106   3.886   9.349 -0.0272  0.0525  0.1908
17197SOL    HW154033   9.199   3.892   9.329 -0.1940  0.5854 -0.4628
17197SOL    HW254034   9.070   3.829   9.281  0.0424 -1.3425  1.2616
17198SOL     OW54035   8.318   2.168   2.224 -0.5316 -0.0217 -0.1530
17198SOL    HW154036   8.258   2.141   2.293  0.8219 -1.0065  0.7036
17198SOL    HW254037   8.375   2.092   2.210  0.2658  0.7278 -1.2083
17199SOL     OW54038   5.098   8.433   2.621  0.0480 -0.3718  0.0632
17199SOL    HW154039   5.058   8.460   2.704 -0.6569  2.9894 -1.2240
17199SOL    HW254040   5.192   8.440   2.637 -0.0858  1.3790  0.3243
17200SOL     OW54041   1.253   2.744   2.332 -0.3238 -0.0075  0.0728
17200SOL    HW154042   1.345   2.736   2.305 -0.3089 -0.2669  0.2026
17200SOL    HW254043   1.222   2.654   2.341  0.1494 -0.0115  2.5533
17201SOL     OW54044   4.802   0.752   9.040  0.7125 -0.0870 -0.1040
17201SOL    HW154045   4.847   0.808   8.976  0.3699  1.5606  1.0414
17201SOL    HW254046   4.867   0.738   9.108  0.2890  0.2561  0.3764
17202SOL     OW54047   5.482   2.624   3.289 -0.2262  0.2294 -0.1090
17202SOL    HW154048   5.471   2.635   3.194  0.4426 -1.7315 -0.4595
17202SOL    HW254049   5.558   2.680   3.310 -1.1219  1.6319 -0.4692
17203SOL     OW54050   4.434   6.742   2.266 -0.0202  0.3722 -0.2641
17203SOL    HW154051   4.364   6.753   2.201  0.1433  1.9097 -0.2157
17203SOL    HW254052   4.478   6.827   2.267  0.5047  0.0961  1.2697
17204SOL     OW54053   0.643   2.727   3.288 -0.2035  0.5504  0.6590
17204SOL    HW154054   0.550   2.708   3.296 -0.5282  1.2003 -1.0419
17204SOL    HW254055   0.655   2.748   3.195  1.8474 -0.6361  0.5802
17205SOL     OW54056   6.962   4.240   6.768 -0.5335 -0.7019  0.5322
17205SOL    HW154057   6.964   4.189   6.687 -0.9938 -2.4149  1.5281
17205SOL    HW254058   7.011   4.320   6.749 -0.3862 -1.2039 -1.3261
17206SOL     OW54059   6.976   1.180   6.684 -0.1859 -0.3034 -0.6245
17206SOL    HW154060   6.926   1.108   6.723  0.9637 -0.4856  0.6233
17206SOL    HW254061   6.943   1.259   6.727  0.9765 -0.4894  0.7088
17207SOL     OW54062   3.556   6.981   7.293  0.2494  0.3352 -0.5325
17207SOL    HW154063   3.602   6.897   7.297 -0.5401 -0.0814  0.7542
17207SOL    HW254064   3.598   7.034   7.360 -0.7100  0.1573  0.2332
17208SOL     OW54065   0.804  10.343   9.937 -0.8357  0.4605 -0.2051
17208SOL    HW154066   0.818  10.285  10.012  0.4244  1.0424  0.0477
17208SOL    HW254067   0.880  10.328   9.881 -0.3333  2.0513  0.0118
17209SOL     OW54068   1.721   3.165   1.084  0.2662  0.0652 -0.3434
17209SOL    HW154069   1.756   3.081   1.053 -1.1571 -0.8919  0.5325
17209SOL    HW254070   1.643   3.179   1.031  0.5185  0.8842 -0.5121
17210SOL     OW54071   7.105   6.101   8.574  0.0005 -0.7929  0.1983
17210SOL    HW154072   7.145   6.186   8.589  1.4165 -1.4535  0.2555
17210SOL    HW254073   7.109   6.089   8.479  0.1180 -0.9568  0.2252
17211SOL     OW54074   9.802   1.562   5.748 -0.0219  0.0097  0.0661
17211SOL    HW154075   9.779   1.606   5.830  0.0314  0.0049  0.0835
17211SOL    HW254076   9.873   1.615   5.712 -0.5683  0.4535 -0.3615
17212SOL     OW54077   9.903   9.598   5.618  0.1682 -0.7341  0.3177
17212SOL    HW154078   9.933   9.516   5.579  2.7163 -0.1551  0.8437
17212SOL    HW254079   9.983   9.637   5.655 -0.9052  2.0794 -0.0802
17213SOL     OW54080   0.590   0.892   5.568  0.0043  0.0130  0.0390
17213SOL    HW154081   0.499   0.868   5.581 -0.2239  1.7081  2.0611
17213SOL    HW254082   0.615   0.938   5.648  2.0353  1.3489 -1.2500
17214SOL     OW54083   2.458   6.238   3.375  0.1592  0.0336  0.1742
17214SOL    HW154084   2.477   6.298   3.446 -0.7952 -2.3438  2.6088
17214SOL    HW254085   2.520   6.166   3.387 -1.1377 -1.2208 -0.3360
17215SOL     OW54086   7.432   7.308   5.772  0.1782  0.1391  0.5405
17215SOL    HW154087   7.483   7.238   5.731 -0.5633  0.6968 -1.4676
17215SOL    HW254088   7.448   7.385   5.717 -1.2095  0.8280  1.0357
17216SOL     OW54089   5.542   9.223   6.473 -0.5908 -0.4694  0.0256
17216SOL    HW154090   5.557   9.269   6.555  1.0546 -1.4751  0.3466
17216SOL    HW254091   5.597   9.145   6.480 -0.5473 -0.6556 -1.9663
17217SOL     OW54092   8.309   0.623   7.455 -0.3118 -0.2253 -0.0202
17217SOL    HW154093   8.274   0.662   7.375  1.1092 -0.1913 -0.6493
17217SOL    HW254094   8.324   0.531   7.432  1.4559  0.0944 -0.2890
17218SOL     OW54095   2.021   2.527   5.768 -0.0974  0.1848  0.0104
17218SOL    HW154096   2.016   2.432   5.779  1.3434  0.1168  0.3670
17218SOL    HW254097   1.930   2.557   5.773 -0.4803 -1.0502  1.1220
17219SOL     OW54098   9.800   1.548   7.689  0.2416 -0.0537  0.3638
17219SOL    HW154099   9.873   1.610   7.702 -0.6293  1.0821 -0.0167
17219SOL    HW254100   9.727   1.588   7.735 -0.2043 -1.1090  0.6020
17220SOL     OW54101   0.538   7.556   6.484  0.4588  0.0664  0.5670
17220SOL    HW154102   0.549   7.466   6.515 -1.1722 -0.0619  0.8322
17220SOL    HW254103   0.524   7.608   6.563  0.7546  0.4578  0.3683
17221SOL     OW54104   9.464   0.091   6.229  0.3584  0.0448 -0.2506
17221SOL    HW154105   9.473   0.179   6.192 -0.5927  0.1254 -0.3176
17221SOL    HW254106   9.542   0.081   6.285  0.2085  1.1462  0.1934
17222SOL     OW54107   4.399   9.828   6.770 -0.1277 -0.1065  0.0799
17222SOL    HW154108   4.419   9.920   6.786 -1.5158  0.2151  0.0755
17222SOL    HW254109   4.305   9.821   6.787 -0.0507 -1.5085  0.0062
17223SOL     OW54110   8.759   2.983   3.089  0.0776  0.6410  0.6485
17223SOL    HW154111   8.721   3.066   3.062  1.4023  1.3561  0.8984
17223SOL    HW254112   8.794   2.999   3.176 -1.2100 -0.7060  1.4630
17224SOL     OW54113   4.631   8.341   3.806 -0.5098 -0.3631  0.9214
17224SOL    HW154114   4.572   8.329   3.880 -2.1229  1.5302  0.0363
17224SOL    HW254115   4.574   8.337   3.729  0.9455 -1.1415 -0.1626
17225SOL     OW54116   3.543   6.845   2.220 -0.6137 -0.0714  1.0406
17225SOL    HW154117   3.457   6.842   2.177 -0.5612 -1.6725  1.0088
17225SOL    HW254118   3.603   6.806   2.156  0.1946  1.1891  0.9928
17226SOL     OW54119   1.057   4.003   7.987 -0.1180  0.6335  0.0677
17226SOL    HW154120   1.141   3.958   7.994  0.1566  1.0322 -0.5716
17226SOL    HW254121   1.061   4.072   8.054  0.2550  0.9382 -0.2603
17227SOL     OW54122   1.162   0.589   9.891  0.2614 -0.4115  0.3122
17227SOL    HW154123   1.133   0.500   9.914 -0.3182 -0.7314 -1.4979
17227SOL    HW254124   1.085   0.644   9.903 -0.4878 -0.8259 -2.0361
17228SOL     OW54125   4.072   1.958   9.608 -0.2000  0.1010  0.1541
17228SOL    HW154126   4.158   1.951   9.567 -0.4365 -2.1157 -0.0872
17228SOL    HW254127   4.014   1.905   9.553 -1.5862  0.9690  0.7076
17229SOL     OW54128   3.667   2.951   6.605  0.1217  0.4753 -0.6853
17229SOL    HW154129   3.698   2.955   6.695 -0.5687  0.0276 -0.4186
17229SOL    HW254130   3.586   2.900   6.610  1.3692 -1.7368 -1.9291
17230SOL     OW54131   0.042   5.821   3.120 -0.2654  0.6539 -0.1925
17230SOL    HW154132   0.054   5.898   3.176  1.1877 -1.1157  2.0892
17230SOL    HW254133  -0.043   5.835   3.079 -0.8649  2.6184  1.5265
17231SOL     OW54134  10.412   4.985   1.721  0.4610  0.3943 -0.3452
17231SOL    HW154135  10.497   5.028   1.708  1.2497 -0.9872  0.0159
17231SOL    HW254136  10.433   4.908   1.773 -1.0203 -0.0259 -0.3488
17232SOL     OW54137   5.527   2.858   7.796 -0.1616 -0.0117 -0.0557
17232SOL    HW154138   5.573   2.908   7.863  0.2026  0.6979 -0.8229
17232SOL    HW254139   5.544   2.766   7.818  1.4056  0.2310 -0.1748
17233SOL     OW54140   5.618   6.568   9.819 -0.3068  0.0958 -0.1984
17233SOL    HW154141   5.703   6.610   9.832  0.0822 -0.9083  0.6327
17233SOL    HW254142   5.604   6.517   9.899 -0.6849 -1.4797 -1.2347
17234SOL     OW54143   4.162   8.676   1.313 -0.1883 -0.1199  0.1574
17234SOL    HW154144   4.166   8.615   1.386  2.1919 -0.2051  0.0301
17234SOL    HW254145   4.237   8.652   1.258 -0.8166  1.1564 -1.3230
17235SOL     OW54146   7.725  10.072   9.604 -0.4602  0.2941  0.2605
17235SOL    HW154147   7.639  10.074   9.561 -0.4331  0.2484  0.2038
17235SOL    HW254148   7.785  10.106   9.539 -0.5347  0.9390  0.5284
17236SOL     OW54149  10.031   9.241   3.822  0.5568  0.3109  0.5587
17236SOL    HW154150   9.939   9.224   3.801  0.8514  0.3558 -0.8951
17236SOL    HW254151  10.027   9.309   3.890 -0.4921  1.6795 -0.7862
17237SOL     OW54152   3.522   1.805   3.616  0.1300  0.5510  0.1818
17237SOL    HW154153   3.446   1.863   3.625 -0.2145  0.0451  0.5597
17237SOL    HW254154   3.497   1.745   3.545  0.3320  0.6205  0.0519
17238SOL     OW54155   4.521   5.245   8.978 -0.3550  0.2951 -1.2392
17238SOL    HW154156   4.467   5.256   8.900  1.5054 -1.2007 -2.8454
17238SOL    HW254157   4.604   5.209   8.946  0.3490 -0.8091  1.4796
17239SOL     OW54158   0.321   0.933   5.707 -0.0899 -0.0226  0.6188
17239SOL    HW154159   0.259   0.901   5.772 -1.0451 -0.0316 -0.2815
17239SOL    HW254160   0.300   0.885   5.627 -0.2083  1.3751 -0.2145
17240SOL     OW54161   8.054   2.406   6.197  0.2393 -0.2650  0.5710
17240SOL    HW154162   8.060   2.375   6.107  3.9168 -0.7929  0.8653
17240SOL    HW254163   8.022   2.330   6.247  2.0247 -1.3087  0.2122
17241SOL     OW54164   7.775   5.926   6.371 -0.0603 -0.0633  0.2477
17241SOL    HW154165   7.787   5.944   6.464  1.4804  1.3352 -0.1729
17241SOL    HW254166   7.680   5.921   6.360 -0.2515 -1.7618  2.1097
17242SOL     OW54167   7.863   8.362   3.231 -0.2148 -0.3163 -0.2567
17242SOL    HW154168   7.949   8.391   3.200 -0.2847 -0.7198 -0.8498
17242SOL    HW254169   7.880   8.325   3.318  0.5848 -2.1959 -1.1384
17243SOL     OW54170   8.932   9.687   3.581 -0.5669  0.2905  0.5274
17243SOL    HW154171   8.897   9.605   3.618  0.1340  0.7529  2.3122
17243SOL    HW254172   9.027   9.677   3.585 -0.4381  1.7388  2.1545
17244SOL     OW54173   6.012   3.641  10.194  0.7896  0.5143 -0.0059
17244SOL    HW154174   5.935   3.695  10.175  1.2401  2.1305  2.3007
17244SOL    HW254175   5.975   3.556  10.217 -0.0652  0.3245 -1.8995
17245SOL     OW54176   9.215   3.879   7.475 -0.0600 -0.0472  0.2873
17245SOL    HW154177   9.276   3.910   7.542 -0.0534 -1.5306  1.0118
17245SOL    HW254178   9.239   3.787   7.460 -1.9392 -0.6193  0.4225
17246SOL     OW54179   4.801   2.024   0.463  0.2815 -0.2192 -0.4426
17246SOL    HW154180   4.855   1.948   0.487  0.5269  0.1782  0.2828
17246SOL    HW254181   4.847   2.065   0.390 -0.5175 -1.4939 -1.7343
17247SOL     OW54182   0.832   1.012  10.062  0.0313  0.1269  0.6328
17247SOL    HW154183   0.747   1.004  10.106 -0.3968  0.1427 -0.1738
17247SOL    HW254184   0.841   1.105  10.044 -0.1604  0.0233 -0.0144
17248SOL     OW54185   5.987   8.731   4.866  0.6063 -0.1542  0.1449
17248SOL    HW154186   6.007   8.818   4.900 -1.5837 -0.5931  2.9949
17248SOL    HW254187   6.040   8.671   4.919  0.4489 -0.6597 -0.2530
17249SOL     OW54188  10.390   5.059   3.023  0.4127  0.3073 -0.9594
17249SOL    HW154189  10.471   5.081   2.976  0.6227  1.1554 -0.2204
17249SOL    HW254190  10.338   5.139   3.019  0.5605  0.4910  0.4907
17250SOL     OW54191   0.325   2.781   9.626 -0.2925 -0.1343  0.7602
17250SOL    HW154192   0.233   2.798   9.607  0.3432 -0.3141 -3.2711
17250SOL    HW254193   0.368   2.865   9.613  0.3283 -0.4355  0.8373
17251SOL     OW54194   5.848   5.890   2.418 -0.4346 -0.2314  0.2378
17251SOL    HW154195   5.758   5.900   2.388 -0.7658 -0.8725  0.9850
17251SOL    HW254196   5.846   5.813   2.474  1.0075 -1.5574 -1.4274
17252SOL     OW54197   7.952   7.139   1.326  0.1847  0.1818 -0.0752
17252SOL    HW154198   7.894   7.067   1.300 -1.9297  0.2752  3.6805
17252SOL    HW254199   7.932   7.210   1.265 -1.0737 -0.9466 -1.0241
17253SOL     OW54200   5.045   0.620   6.828  0.6536 -0.0602  0.1947
17253SOL    HW154201   5.035   0.529   6.856 -3.6453 -0.0334 -0.5313
17253SOL    HW254202   5.046   0.670   6.910  1.8034 -0.6506  0.5608
17254SOL     OW54203   6.857   2.969   7.594 -0.2268  0.3599  0.2868
17254SOL    HW154204   6.857   3.050   7.542 -0.1771 -0.4086 -0.9452
17254SOL    HW254205   6.924   2.915   7.553 -0.5406 -0.4667  0.8465
17255SOL     OW54206  10.118   0.270   7.020  0.6754 -0.1365 -0.2052
17255SOL    HW154207  10.043   0.309   6.974  0.4644  1.3124  1.2777
17255SOL    HW254208  10.170   0.345   7.048  1.8401 -1.0637  0.1861
17256SOL     OW54209   8.647   9.640   8.135  0.1174 -0.4261  0.5857
17256SOL    HW154210   8.619   9.721   8.178 -0.2991 -0.5338  0.5283
17256SOL    HW254211   8.734   9.659   8.100 -0.7638  0.6392 -1.1225
17257SOL     OW54212   4.452   6.529   0.934 -0.3550 -0.2486  0.1863
17257SOL    HW154213   4.430   6.617   0.905  1.8799  0.0893 -0.6725
17257SOL    HW254214   4.483   6.485   0.855 -1.5254 -1.8792  0.5754
17258SOL     OW54215   8.411   4.988  10.178  0.5292  0.5593 -0.2394
17258SOL    HW154216   8.415   4.892  10.186  0.6527  0.4661 -1.2850
17258SOL    HW254217   8.458   5.007  10.097 -1.4097  1.3082 -1.2355
17259SOL     OW54218   7.215   3.918   9.161  0.2530  0.4894 -0.4228
17259SOL    HW154219   7.166   3.999   9.144 -0.3653  0.3679  0.7234
17259SOL    HW254220   7.150   3.848   9.153  0.2011  0.3329  1.1472
17260SOL     OW54221   6.450   6.546   0.730  0.0907 -0.6935  0.0538
17260SOL    HW154222   6.413   6.577   0.812  1.2391  0.9064  0.0122
17260SOL    HW254223   6.544   6.559   0.739  0.3204 -1.3494 -1.1635
17261SOL     OW54224   9.205   9.657   3.577 -0.4012  0.0764 -0.0714
17261SOL    HW154225   9.269   9.645   3.506 -0.2300  1.8846 -0.2674
17261SOL    HW254226   9.194   9.569   3.614  1.0012 -0.5561 -1.0482
17262SOL     OW54227   8.472   5.445   2.498 -0.4512  0.1110  0.3589
17262SOL    HW154228   8.487   5.496   2.419 -1.0515  0.2434  0.3279
17262SOL    HW254229   8.560   5.415   2.524 -0.3715 -1.0939 -1.1282
17263SOL     OW54230   4.989  10.169   1.118 -0.6884 -0.0834 -0.3126
17263SOL    HW154231   4.972  10.232   1.047 -0.6898 -1.2249 -1.3703
17263SOL    HW254232   5.079  10.187   1.145 -1.4008  1.8586  0.9970
17264SOL     OW54233   8.825   7.036   4.712  0.6044 -0.0492 -0.0512
17264SOL    HW154234   8.892   7.051   4.646  0.6048  2.0764  0.3521
17264SOL    HW254235   8.742   7.045   4.665  0.5885 -0.8016 -0.1809
17265SOL     OW54236   1.116   1.767   1.944  0.4448  0.9029  0.2009
17265SOL    HW154237   1.146   1.825   1.875 -0.5076  1.6261  0.3722
17265SOL    HW254238   1.100   1.824   2.019  1.8487  0.0873  1.1724
17266SOL     OW54239   1.661   1.805   2.917 -0.2456 -0.2029  0.5799
17266SOL    HW154240   1.746   1.815   2.959 -0.1839  2.2153  0.0416
17266SOL    HW254241   1.611   1.748   2.975  1.6261 -1.4637  1.0273
17267SOL     OW54242   6.450   8.977  10.281  0.5165  0.0307  0.0456
17267SOL    HW154243   6.517   8.913  10.304  0.0022 -0.8871 -0.9073
17267SOL    HW254244   6.377   8.925  10.248  0.7012  1.1642 -2.3596
17268SOL     OW54245   4.857   6.810   4.775 -0.1630  0.3258  0.2370
17268SOL    HW154246   4.829   6.739   4.717 -1.8149  0.7161  0.5080
17268SOL    HW254247   4.950   6.823   4.754 -0.4710 -0.1815 -1.6255
17269SOL     OW54248   7.149   6.732   1.241 -0.4301 -0.1262  0.1127
17269SOL    HW154249   7.220   6.696   1.295  0.6422 -1.0505 -1.7871
17269SOL    HW254250   7.080   6.666   1.247 -0.1744 -0.4046  0.0727
17270SOL     OW54251   6.078   8.784   2.816  0.4032  0.0094  0.4495
17270SOL    HW154252   6.010   8.731   2.774  0.0199  0.1911  0.8259
17270SOL    HW254253   6.141   8.802   2.746  0.4577 -0.8029  0.2782
17271SOL     OW54254   5.342   3.597   9.333  0.1319  0.5955  0.1421
17271SOL    HW154255   5.368   3.507   9.312 -0.7564  0.1759  0.7716
17271SOL    HW254256   5.416   3.632   9.384  0.0192 -0.1501  0.8283
17272SOL     OW54257   4.796   9.694   7.978 -0.1642 -0.1646 -0.4130
17272SOL    HW154258   4.890   9.692   7.996  0.2291  0.9390 -2.1122
17272SOL    HW254259   4.787   9.651   7.893 -1.1250  0.2443 -0.5315
17273SOL     OW54260   6.336   6.586   4.922  0.0473  0.2665 -0.1274
17273SOL    HW154261   6.407   6.609   4.981  0.8981  1.7804 -1.6613
17273SOL    HW254262   6.331   6.659   4.860 -2.8425  0.2168 -0.1045
17274SOL     OW54263   0.784  10.473   5.274  0.8227 -0.3773 -0.0831
17274SOL    HW154264   0.867  10.520   5.283  0.0488  0.7247  2.1353
17274SOL    HW254265   0.718  10.535   5.305 -0.7460 -1.5798 -0.8277
17275SOL     OW54266   4.168   9.593   2.284 -0.5719  0.2017  0.6696
17275SOL    HW154267   4.211   9.664   2.331 -0.7665  1.2758 -0.6847
17275SOL    HW254268   4.098   9.564   2.342 -0.7749  1.4411  1.0834
17276SOL     OW54269   9.951   1.877   1.639 -0.4500 -0.2956 -0.0099
17276SOL    HW154270   9.950   1.824   1.720 -1.2468  0.6162  0.5950
17276SOL    HW254271  10.023   1.939   1.652  0.1978 -0.9177 -0.5311
17277SOL     OW54272   8.752   9.997   3.997 -0.0375 -0.2041 -0.6508
17277SOL    HW154273   8.788  10.083   4.018 -0.3200 -0.2227 -0.0738
17277SOL    HW254274   8.659  10.014   3.981 -0.3068 -0.5419  0.4636
17278SOL     OW54275   7.487   0.810   8.410  0.2787 -0.2181  0.3600
17278SOL    HW154276   7.488   0.843   8.321  0.2563  0.9960  0.7965
17278SOL    HW254277   7.520   0.882   8.464  1.3160 -1.2964  1.2225
17279SOL     OW54278   8.296   4.273   9.123 -0.7147  0.3509 -0.7373
17279SOL    HW154279   8.261   4.326   9.195 -0.6167 -0.3570 -0.1662
17279SOL    HW254280   8.336   4.198   9.165  3.1432  1.9211 -1.1899
17280SOL     OW54281   2.477   5.006   7.754 -0.2560  0.0345 -0.2270
17280SOL    HW154282   2.494   4.967   7.668  0.0879 -0.3350  0.0086
17280SOL    HW254283   2.563   5.034   7.784 -0.2402 -0.7124  0.4272
17281SOL     OW54284   5.947   9.414   2.510  0.0946  0.8016 -0.1316
17281SOL    HW154285   6.036   9.390   2.486  0.5231  2.8414 -0.7944
17281SOL    HW254286   5.956   9.460   2.593 -0.6424 -0.8417  0.9050
17282SOL     OW54287   9.114   7.491   5.767  0.0449 -0.1581 -0.1766
17282SOL    HW154288   9.083   7.523   5.682 -0.4539  0.4037  0.2061
17282SOL    HW254289   9.071   7.548   5.831  1.3459  0.1901  0.4075
17283SOL     OW54290   8.138   5.234   8.707  0.3770  0.4795 -0.6536
17283SOL    HW154291   8.146   5.158   8.765  0.5213  1.2072  0.3135
17283SOL    HW254292   8.054   5.273   8.732  0.1975  0.5160 -1.3028
17284SOL     OW54293   9.056   2.790   8.879 -0.4038 -0.3497 -0.1573
17284SOL    HW154294   8.964   2.763   8.884 -0.5686  0.0058 -0.9876
17284SOL    HW254295   9.099   2.721   8.828  0.0412 -1.0892  1.1748
17285SOL     OW54296   0.934   0.162   1.293 -0.0388 -0.1069  0.3789
17285SOL    HW154297   0.871   0.092   1.310 -0.0290 -0.3621 -0.5364
17285SOL    HW254298   0.978   0.177   1.376 -0.6129 -0.6247  0.7804
17286SOL     OW54299   7.575   6.248   8.727  0.1730 -0.3571 -0.0768
17286SOL    HW154300   7.537   6.161   8.730 -0.6809  0.0162  0.1173
17286SOL    HW254301   7.600   6.267   8.817  1.1167 -0.7232 -0.2530
17287SOL     OW54302   1.140   9.245  10.135 -0.5041 -0.2111 -0.0443
17287SOL    HW154303   1.090   9.280  10.208  0.3784  1.1448 -0.0533
17287SOL    HW254304   1.119   9.151  10.134 -1.7197  0.0235  0.9664
17288SOL     OW54305   7.116   0.087   9.965  0.4306 -0.2733  0.3315
17288SOL    HW154306   7.145   0.177   9.978  0.6529 -0.1598 -0.8337
17288SOL    HW254307   7.056   0.092   9.891 -0.0465 -0.9999  0.6581
17289SOL     OW54308   3.781   8.589   3.450 -0.6524 -0.6952  0.4150
17289SOL    HW154309   3.865   8.631   3.432 -0.3911 -0.9508  1.0026
17289SOL    HW254310   3.730   8.656   3.495 -0.4122 -0.8375  0.9125
17290SOL     OW54311   4.929   7.842   8.986  0.4503  0.6315  0.0948
17290SOL    HW154312   5.001   7.827   9.048  0.5729  1.7735  0.2507
17290SOL    HW254313   4.961   7.911   8.928 -0.0230  0.2172 -0.6690
17291SOL     OW54314   2.435   2.901   4.249 -0.1673  0.2378  0.0968
17291SOL    HW154315   2.412   2.929   4.160  1.0260  0.3747 -0.1897
17291SOL    HW254316   2.351   2.882   4.291 -0.6896 -0.9961 -1.4351
17292SOL     OW54317   2.731   2.767   3.299 -0.1981 -0.1381  0.3792
17292SOL    HW154318   2.645   2.807   3.288  0.2964  0.9490  0.2634
17292SOL    HW254319   2.720   2.677   3.268 -1.1006  0.2052 -0.3648
17293SOL     OW54320   2.973   1.002   3.380  0.2721 -0.1872 -0.0159
17293SOL    HW154321   2.896   1.042   3.338 -0.1135  0.9534  1.7066
17293SOL    HW254322   3.048   1.045   3.338 -0.1085  1.0942  0.5723
17294SOL     OW54323   1.416   6.347   6.009 -0.3602  0.3364  0.0016
17294SOL    HW154324   1.437   6.260   5.976  0.0805  0.5863 -0.4050
17294SOL    HW254325   1.373   6.332   6.092  0.4875 -0.2480  0.3509
17295SOL     OW54326   4.202   9.747   4.859  0.0641  0.2843  0.2060
17295SOL    HW154327   4.272   9.703   4.812 -2.2392 -0.0305 -3.2397
17295SOL    HW254328   4.170   9.681   4.921  1.9404  0.0656  1.0343
17296SOL     OW54329   4.229   3.052   2.674  0.3570 -0.3985 -0.4120
17296SOL    HW154330   4.314   3.074   2.636  0.2669 -1.9181 -1.5831
17296SOL    HW254331   4.231   3.089   2.762  1.4758  1.2332 -1.0870
17297SOL     OW54332   5.856  10.172   1.595 -0.0554 -0.2321 -0.5891
17297SOL    HW154333   5.916  10.220   1.651  0.5947 -1.3790 -0.2727
17297SOL    HW254334   5.900  10.089   1.577 -1.3336 -0.9148 -0.7318
17298SOL     OW54335   7.355   5.585   1.981  0.2834 -0.0409  0.3612
17298SOL    HW154336   7.280   5.641   1.998  1.3122  1.1470  1.1641
17298SOL    HW254337   7.424   5.619   2.038  2.5149  1.1098 -2.7952
17299SOL     OW54338   9.339   2.940  10.117  0.8253  0.6182 -0.0815
17299SOL    HW154339   9.329   2.932  10.022  1.4155 -0.3581 -0.0705
17299SOL    HW254340   9.382   2.859  10.144  0.1594  0.6410  1.1066
17300SOL     OW54341   8.809   2.708   6.554  0.5437  0.3060  0.2922
17300SOL    HW154342   8.892   2.671   6.525  0.4741  1.1699 -1.1058
17300SOL    HW254343   8.781   2.765   6.482 -2.3175 -1.5860 -0.2461
17301SOL     OW54344   6.786   8.485   4.070 -0.0585 -0.2186  0.3773
17301SOL    HW154345   6.763   8.571   4.034 -0.7383  0.6835  2.7911
17301SOL    HW254346   6.702   8.442   4.084  0.1971 -0.6117  0.7234
17302SOL     OW54347   1.900   4.609   2.445  0.1883  0.5621 -0.3899
17302SOL    HW154348   1.906   4.696   2.407  0.2886  0.2951 -0.9938
17302SOL    HW254349   1.843   4.560   2.385  2.1737 -0.5222 -1.4788
17303SOL     OW54350   0.391   8.349   6.795  0.3592 -0.2826  0.1689
17303SOL    HW154351   0.310   8.356   6.846  1.0372  0.2852  1.2103
17303SOL    HW254352   0.451   8.302   6.853  0.8228 -0.5748 -0.5397
17304SOL     OW54353   4.464   4.165   1.308  0.0969 -0.4909  0.0910
17304SOL    HW154354   4.512   4.124   1.237 -1.1201 -1.4309 -0.2148
17304SOL    HW254355   4.526   4.228   1.345  1.2675 -1.0717 -0.8070
17305SOL     OW54356   6.866   4.628   9.630 -0.1008 -0.2121 -0.5912
17305SOL    HW154357   6.799   4.696   9.625 -0.4651 -0.5796 -0.7313
17305SOL    HW254358   6.948   4.674   9.612 -0.2698  0.3044 -0.0834
17306SOL     OW54359   7.073  10.263   9.043  0.3515  0.0405 -0.2769
17306SOL    HW154360   7.163  10.232   9.032  0.8160  1.3234 -0.3182
17306SOL    HW254361   7.025  10.187   9.076  1.0246 -1.2092 -1.9954
17307SOL     OW54362   7.677   4.827   0.109 -0.6330  0.1836 -0.0940
17307SOL    HW154363   7.669   4.920   0.129  0.6452  0.1413  0.6909
17307SOL    HW254364   7.592   4.790   0.134 -0.8924  1.0113  0.2903
17308SOL     OW54365   0.655   0.319   7.290 -0.0657  0.0729  0.2953
17308SOL    HW154366   0.704   0.327   7.372 -0.3284 -0.6550  0.5276
17308SOL    HW254367   0.565   0.342   7.314 -0.0072  0.5624  0.0537
17309SOL     OW54368   5.975   0.397   5.356 -0.0835  0.0730  0.3136
17309SOL    HW154369   5.945   0.476   5.401  0.5165  0.1539  0.5801
17309SOL    HW254370   6.050   0.425   5.304 -0.3673 -0.1582 -0.2343
17310SOL     OW54371   4.919   1.408   1.313 -0.1876  0.4248 -0.1102
17310SOL    HW154372   4.859   1.386   1.384 -1.5173  0.8574 -1.0710
17310SOL    HW254373   4.899   1.344   1.244  0.5826  0.4700 -0.3819
17311SOL     OW54374   6.057   2.534   1.140 -0.8486 -0.4072  0.1439
17311SOL    HW154375   6.092   2.580   1.064  1.6516  0.6223  1.7587
17311SOL    HW254376   5.962   2.541   1.131 -0.6012  1.7990 -1.6366
17312SOL     OW54377   2.437   1.705   4.033 -0.2960  0.5363 -0.2899
17312SOL    HW154378   2.351   1.674   4.063  1.1340 -4.0376 -0.1108
17312SOL    HW254379   2.496   1.684   4.106  1.3958  0.8036 -1.5340
17313SOL     OW54380   4.481   5.801  10.456  0.0841 -0.4656 -0.6900
17313SOL    HW154381   4.417   5.760  10.398 -0.4832 -0.0635 -0.3611
17313SOL    HW254382   4.559   5.813  10.402 -0.3348 -0.3665 -1.2831
17314SOL     OW54383   3.751   6.003   6.231 -0.7558 -0.0221 -0.5372
17314SOL    HW154384   3.680   6.063   6.207 -0.3398  0.8995  0.4597
17314SOL    HW254385   3.805   5.998   6.152 -0.3383  1.6023 -0.3995
17315SOL     OW54386  10.041   0.583   9.924 -0.6326 -0.0083  0.3736
17315SOL    HW154387  10.018   0.532   9.846  0.5381  0.6127 -0.4171
17315SOL    HW254388  10.089   0.658   9.890 -2.0911  1.5243  1.5350
17316SOL     OW54389   3.186   4.548   1.471 -0.2196 -0.7727 -0.6223
17316SOL    HW154390   3.119   4.540   1.539  0.3958  0.6153  0.1930
17316SOL    HW254391   3.160   4.485   1.404 -1.9087 -0.8145  0.0248
17317SOL     OW54392   2.699   9.970   1.019  0.5889 -0.4552  0.4768
17317SOL    HW154393   2.718   9.883   1.056  0.0202 -0.5507  0.5555
17317SOL    HW254394   2.706   9.958   0.924  0.4610 -0.6049  0.4847
17318SOL     OW54395   1.473   0.991   7.359 -0.2873  0.3213  0.3568
17318SOL    HW154396   1.456   1.082   7.382 -1.4979  0.3788 -0.6074
17318SOL    HW254397   1.467   0.990   7.263  0.5543 -0.6204  0.3049
17319SOL     OW54398   1.089   4.186   8.805  0.5962 -0.0718  0.1033
17319SOL    HW154399   1.163   4.167   8.862  1.7362 -0.2523 -1.3814
17319SOL    HW254400   1.093   4.280   8.791  0.6430 -0.1073 -0.1212
17320SOL     OW54401   5.735   0.839   6.306  0.0245  0.2509 -0.2854
17320SOL    HW154402   5.671   0.785   6.260 -0.8940  1.1021 -0.0406
17320SOL    HW254403   5.758   0.907   6.243  1.8796 -0.9111 -0.9292
17321SOL     OW54404   8.468  10.150   4.441 -0.5306 -0.0015 -0.7377
17321SOL    HW154405   8.395  10.209   4.425  0.7864  2.6217  2.0414
17321SOL    HW254406   8.529  10.167   4.369 -1.6947 -0.7483 -1.9560
17322SOL     OW54407   5.982   4.010   3.492  0.0857  0.1862  0.4024
17322SOL    HW154408   5.893   4.044   3.486  0.0472  0.1857  0.9251
17322SOL    HW254409   5.983   3.934   3.433  0.4918  1.7054 -1.6282
17323SOL     OW54410   5.989   9.109   5.292 -0.2182 -0.6188  0.1358
17323SOL    HW154411   5.906   9.079   5.329 -0.2132  0.1402  0.8003
17323SOL    HW254412   6.035   9.148   5.366 -0.4944  1.5983 -0.7812
17324SOL     OW54413   8.498   8.883   4.619 -0.4551  0.1864  0.3348
17324SOL    HW154414   8.520   8.976   4.620  1.2455 -0.1672 -0.7530
17324SOL    HW254415   8.497   8.859   4.527  0.6869 -1.2069  0.6482
17325SOL     OW54416   6.754   8.468   9.004 -0.2253  0.5738  0.4987
17325SOL    HW154417   6.670   8.473   8.960  0.5007  1.3528 -0.8700
17325SOL    HW254418   6.763   8.376   9.029 -1.0503  0.2860 -0.2272
17326SOL     OW54419   0.586   3.620   0.424  0.4505  0.0873  0.2232
17326SOL    HW154420   0.625   3.666   0.350  0.6760 -1.8896 -0.9761
17326SOL    HW254421   0.641   3.542   0.435 -0.0657 -0.0768  1.9598
17327SOL     OW54422   7.096   0.217   2.152  0.2057 -0.0186 -0.2051
17327SOL    HW154423   7.126   0.230   2.242  1.3979 -1.4725 -0.3433
17327SOL    HW254424   7.158   0.154   2.115 -0.8917 -0.2759 -1.7175
17328SOL     OW54425   1.757   9.989   9.164  0.4321  0.4961 -0.3936
17328SOL    HW154426   1.847  10.005   9.136  0.8880 -0.3438  0.5416
17328SOL    HW254427   1.765   9.940   9.245 -0.8766  1.2612  0.2323
17329SOL     OW54428   8.621   6.711   1.185  0.3203  0.5875 -0.1978
17329SOL    HW154429   8.642   6.795   1.227 -1.6755  1.4814 -0.8243
17329SOL    HW254430   8.529   6.720   1.161  0.4834 -1.2111 -1.6744
17330SOL     OW54431  10.473   0.636   5.946  0.3258  0.0548 -0.2215
17330SOL    HW154432  10.416   0.559   5.949  2.8453 -1.9449  0.0376
17330SOL    HW254433  10.508   0.644   6.034 -0.6892  2.2489  0.0526
17331SOL     OW54434   1.963   5.727   8.771  0.3136 -0.5138  0.9666
17331SOL    HW154435   1.927   5.642   8.747  0.5459  0.0122 -1.4915
17331SOL    HW254436   2.057   5.711   8.783  0.4902 -0.4732 -0.3017
17332SOL     OW54437   6.731   7.783   7.951  0.2326  0.1882  0.6289
17332SOL    HW154438   6.669   7.711   7.953  1.1724 -0.6128  2.2336
17332SOL    HW254439   6.697   7.842   7.884 -0.5673 -1.7136 -0.7204
17333SOL     OW54440   0.024   5.599   8.112  0.1132 -0.0127  0.5975
17333SOL    HW154441   0.046   5.533   8.046 -0.3188  0.0182  0.4193
17333SOL    HW254442  -0.012   5.672   8.062 -0.8115 -0.2446  0.9142
17334SOL     OW54443   6.693   9.585   3.230 -0.0760 -0.1690 -0.0703
17334SOL    HW154444   6.774   9.578   3.179  1.5014  0.9628  2.1405
17334SOL    HW254445   6.714   9.646   3.300 -2.5496 -0.6806  1.2238
17335SOL     OW54446   8.027   1.322   4.288  0.2916  0.3727  0.3787
17335SOL    HW154447   8.083   1.280   4.222  0.7051  0.4623  0.6649
17335SOL    HW254448   8.088   1.346   4.358 -0.2083 -0.0887  0.9772
17336SOL     OW54449   0.636   1.288   1.648  0.0732 -0.2735  0.1467
17336SOL    HW154450   0.648   1.211   1.592 -0.3479 -0.6636  0.5902
17336SOL    HW254451   0.552   1.274   1.691  1.5896 -1.3581  3.0272
17337SOL     OW54452   8.840   0.712   9.890 -0.4285 -0.0305 -0.3387
17337SOL    HW154453   8.778   0.759   9.946 -1.2161  0.2205 -1.3849
17337SOL    HW254454   8.923   0.757   9.903 -0.9474  1.0088 -0.5286
17338SOL     OW54455   4.013   9.399   7.239 -0.3961 -0.0971 -0.3583
17338SOL    HW154456   3.959   9.400   7.318 -1.3404  0.7885 -1.0056
17338SOL    HW254457   4.013   9.307   7.211  0.8343 -0.6472  1.2341
17339SOL     OW54458   9.495   0.033   6.914  0.3107  0.4630 -0.3681
17339SOL    HW154459   9.584   0.001   6.897  0.8899  0.0443  2.8085
17339SOL    HW254460   9.439  -0.044   6.904  0.9268 -0.3020  1.5559
17340SOL     OW54461   9.505   7.430   6.884  0.0763 -0.6656  0.1209
17340SOL    HW154462   9.543   7.442   6.797 -0.9031  0.0088 -0.2173
17340SOL    HW254463   9.501   7.335   6.895  1.1144 -0.7551 -0.1581
17341SOL     OW54464   1.132   0.957   3.321  0.5036 -0.1000  0.1234
17341SOL    HW154465   1.191   1.033   3.320  0.9602 -0.4221  1.1590
17341SOL    HW254466   1.082   0.967   3.402 -1.6192  0.6966 -1.1991
17342SOL     OW54467   6.312   1.435   0.975 -0.0878  0.1159  0.6013
17342SOL    HW154468   6.312   1.495   0.900  0.5714  1.3965  1.5812
17342SOL    HW254469   6.350   1.354   0.941 -0.0887  0.5693 -0.5277
17343SOL     OW54470  10.005   0.066   8.720  0.0895  0.0276 -0.8838
17343SOL    HW154471  10.050   0.071   8.805 -1.3781 -1.2506  0.0224
17343SOL    HW254472   9.951   0.145   8.718 -0.8657 -0.5783  0.0019
17344SOL     OW54473   9.320   0.058   1.021 -0.2388 -0.0361 -0.6087
17344SOL    HW154474   9.380   0.092   1.088 -0.1526 -0.1099 -0.6480
17344SOL    HW254475   9.240   0.108   1.033 -1.3263 -2.1462  1.6140
17345SOL     OW54476   1.580   9.793   8.535  0.2149 -0.6874 -0.3558
17345SOL    HW154477   1.565   9.800   8.629  1.2135 -1.2728 -0.1431
17345SOL    HW254478   1.674   9.777   8.526  0.2812  0.1628 -1.4965
17346SOL     OW54479   9.151   2.001   4.536 -0.5001 -0.0267 -0.4619
17346SOL    HW154480   9.132   1.912   4.566  0.0642 -0.7464 -2.1614
17346SOL    HW254481   9.119   2.004   4.446  1.7402  0.6735 -1.2991
17347SOL     OW54482   9.251   3.264   0.467 -0.0992 -0.1975 -0.3970
17347SOL    HW154483   9.269   3.222   0.551 -0.9117 -1.7217 -0.9431
17347SOL    HW254484   9.156   3.256   0.456 -0.1988  1.3060 -0.7987
17348SOL     OW54485   7.606  10.475   9.747 -0.1496 -0.4188  0.3807
17348SOL    HW154486   7.690  10.517   9.730  0.0722 -0.5689  1.0612
17348SOL    HW254487   7.558  10.484   9.665  0.1113  0.6400  0.3178
17349SOL     OW54488   5.569   0.490   1.921  0.1378 -0.3328  0.3630
17349SOL    HW154489   5.534   0.579   1.913 -0.0662 -0.2750  1.6700
17349SOL    HW254490   5.491   0.434   1.919  0.2333 -0.4536 -0.0190
17350SOL     OW54491   7.837   7.817   9.381 -0.1100 -0.1444  0.0273
17350SOL    HW154492   7.835   7.722   9.387 -0.3316 -0.0945  0.9010
17350SOL    HW254493   7.928   7.841   9.399 -0.3440 -0.1217  1.2930
17351SOL     OW54494   5.278   1.164   0.606  0.0787  0.1492  0.0396
17351SOL    HW154495   5.299   1.074   0.632  0.4803  0.8021  2.2002
17351SOL    HW254496   5.260   1.158   0.512  0.3095 -2.1365  0.0722
17352SOL     OW54497   9.397   1.787   5.270  0.2588 -0.2223  0.1725
17352SOL    HW154498   9.364   1.823   5.188 -0.7493 -0.6953  0.3594
17352SOL    HW254499   9.321   1.786   5.328  0.3172 -2.2986  0.2897
17353SOL     OW54500   1.172   0.796   9.685  0.1681 -0.3576  0.1537
17353SOL    HW154501   1.240   0.820   9.623  1.3704 -0.5398  1.3687
17353SOL    HW254502   1.206   0.718   9.729 -0.3535  0.1403  1.4946
17354SOL     OW54503   5.668   7.043   7.458  0.5514  0.6761  0.5290
17354SOL    HW154504   5.649   6.989   7.380 -1.0978  1.0902  0.5996
17354SOL    HW254505   5.690   6.979   7.526  1.7910  0.2962 -0.1980
17355SOL     OW54506   3.166   5.077   4.873 -0.0901 -0.3152 -0.1008
17355SOL    HW154507   3.205   5.163   4.858 -0.3223 -0.4041 -1.2638
17355SOL    HW254508   3.159   5.071   4.969  1.1175  0.4188  0.0528
17356SOL     OW54509   3.772   9.122   4.745  0.0779  0.0717  0.4300
17356SOL    HW154510   3.687   9.158   4.769 -0.3873 -1.9676  2.1720
17356SOL    HW254511   3.755   9.069   4.667 -0.6151 -1.4280  1.5421
17357SOL     OW54512   4.640   3.419   7.547 -0.1132  0.0372 -0.2851
17357SOL    HW154513   4.649   3.325   7.564  0.7142  0.3877  1.4030
17357SOL    HW254514   4.723   3.444   7.507  0.4891  0.3874  1.1115
17358SOL     OW54515   9.495   9.770   4.123 -0.1968 -0.3541 -0.1920
17358SOL    HW154516   9.525   9.790   4.034  0.3476  1.2206  0.2972
17358SOL    HW254517   9.403   9.797   4.124  0.4175  1.9940  0.3352
17359SOL     OW54518   2.167   1.557   7.136 -0.0905  0.0319 -0.3057
17359SOL    HW154519   2.145   1.470   7.103  3.4580 -0.4808 -1.7608
17359SOL    HW254520   2.217   1.541   7.216  1.7909  0.5199 -1.3071
17360SOL     OW54521   1.103   9.467   6.867 -0.0892  0.8086  0.3050
17360SOL    HW154522   1.054   9.526   6.810  0.3268  1.6785  0.8277
17360SOL    HW254523   1.067   9.380   6.848 -1.0793  1.2872 -0.1032
17361SOL     OW54524   5.587   3.546   5.007 -0.0058  0.6973 -0.2082
17361SOL    HW154525   5.642   3.606   4.956  2.8157 -1.0929  0.5080
17361SOL    HW254526   5.642   3.518   5.080 -1.9604 -1.0965  0.7024
17362SOL     OW54527   1.987   4.876   8.961  0.5123 -0.2503 -0.0618
17362SOL    HW154528   1.907   4.926   8.946  0.4607 -0.5498 -0.8402
17362SOL    HW254529   2.017   4.852   8.873  1.9049  0.5411  0.1681
17363SOL     OW54530   6.217   5.311   0.508  0.0032 -0.0477 -0.7461
17363SOL    HW154531   6.274   5.256   0.561  0.2584 -0.1374 -1.1143
17363SOL    HW254532   6.145   5.335   0.567  0.1461 -0.3694 -0.4419
17364SOL     OW54533   6.672   5.908   8.145  0.2986  0.9372 -0.0229
17364SOL    HW154534   6.718   5.913   8.061  0.6549 -0.2116  0.0833
17364SOL    HW254535   6.724   5.962   8.204  0.1969  1.5319 -0.4635
17365SOL     OW54536   6.701   7.630   7.157 -0.0298  0.1959 -0.8241
17365SOL    HW154537   6.777   7.595   7.109 -1.0091  0.3019 -2.5204
17365SOL    HW254538   6.655   7.552   7.189  0.0943  0.0915 -0.8987
17366SOL     OW54539   0.394   7.042   5.472  0.5500 -0.4604 -0.2378
17366SOL    HW154540   0.304   7.008   5.476 -0.3085  1.6778 -0.1333
17366SOL    HW254541   0.419   7.032   5.380 -1.0568  1.8205 -1.0119
17367SOL     OW54542   2.297   1.706   9.099 -0.5401 -0.0683 -0.4051
17367SOL    HW154543   2.354   1.662   9.162 -0.7990  0.1785  0.0084
17367SOL    HW254544   2.251   1.773   9.151  1.5012  2.2850 -1.4013
17368SOL     OW54545   5.951   6.247   1.557 -0.9082  0.0792 -0.3664
17368SOL    HW154546   5.884   6.242   1.489 -1.0762 -2.4154 -0.1047
17368SOL    HW254547   6.032   6.223   1.513 -0.7431  0.0141 -0.0306
17369SOL     OW54548   1.780   9.818   9.389 -0.8069  0.0940  0.2372
17369SOL    HW154549   1.776   9.765   9.468 -2.4873 -0.1964  0.0093
17369SOL    HW254550   1.802   9.906   9.419  0.2018 -0.3542  0.8292
17370SOL     OW54551   3.148   0.640   6.872 -0.9095  1.2161  0.2476
17370SOL    HW154552   3.217   0.706   6.872  0.8728 -0.5579  0.1203
17370SOL    HW254553   3.109   0.646   6.959  2.2102 -0.4367  1.9227
17371SOL     OW54554   2.568   9.920   3.665 -0.1600  0.1566 -0.3110
17371SOL    HW154555   2.477   9.920   3.635 -0.4529 -2.5852  0.2758
17371SOL    HW254556   2.613   9.861   3.604  0.4255 -1.2529  1.4073
17372SOL     OW54557   9.966   6.533   4.941  0.0094  0.9606 -0.0117
17372SOL    HW154558   9.883   6.526   4.894  0.5032  1.8515 -1.0600
17372SOL    HW254559   9.956   6.611   4.996 -0.7176 -0.3071  1.7362
17373SOL     OW54560   1.659  10.184   9.003 -0.2802  0.2413 -0.1801
17373SOL    HW154561   1.588  10.238   9.038 -2.2299 -2.0640 -0.2966
17373SOL    HW254562   1.683  10.126   9.075  1.1885  0.6198 -0.3175
17374SOL     OW54563   8.457   0.745   4.993 -0.7886  0.1928 -0.3928
17374SOL    HW154564   8.387   0.722   5.055 -0.8470  1.2928 -0.0279
17374SOL    HW254565   8.466   0.668   4.937 -0.3637 -1.0690  1.3237
17375SOL     OW54566   5.415   8.797   2.739  0.4709  0.5525  0.3370
17375SOL    HW154567   5.425   8.818   2.646  2.2548  0.4987  0.4801
17375SOL    HW254568   5.390   8.880   2.780  0.7478  0.8201 -0.0363
17376SOL     OW54569   0.469   7.090   4.400 -0.2845  0.2535 -0.2880
17376SOL    HW154570   0.443   7.151   4.469 -2.9881 -0.7200 -0.3069
17376SOL    HW254571   0.562   7.107   4.387 -0.7869  4.1184 -0.0930
17377SOL     OW54572   1.903   9.691   2.875  0.7020 -0.3043  0.4353
17377SOL    HW154573   1.887   9.616   2.818 -1.0198  1.0100 -0.9004
17377SOL    HW254574   1.837   9.683   2.944 -0.2378  0.5985 -0.3561
17378SOL     OW54575   6.068   9.653   7.874 -0.1008 -0.3036  0.2313
17378SOL    HW154576   6.057   9.688   7.963 -0.7305  0.4204 -0.1285
17378SOL    HW254577   6.104   9.565   7.888 -0.2387 -0.2185  1.2070
17379SOL     OW54578   7.726   0.293   2.432  0.2540  0.2771 -0.5505
17379SOL    HW154579   7.689   0.355   2.495  0.1755 -0.0294 -0.2948
17379SOL    HW254580   7.741   0.213   2.482 -2.4337 -0.9277 -1.5003
17380SOL     OW54581   8.609   0.981   1.323  0.4257 -0.6236  0.8099
17380SOL    HW154582   8.522   0.952   1.296  1.0718 -2.1956  0.3295
17380SOL    HW254583   8.639   0.915   1.385  0.8619  0.4757  1.8145
17381SOL     OW54584   5.217   3.309   0.776  0.3673 -0.3156  0.1714
17381SOL    HW154585   5.295   3.354   0.807  0.2938 -0.2394  0.2442
17381SOL    HW254586   5.155   3.314   0.848  0.1774 -0.0905 -0.0037
17382SOL     OW54587   9.892   4.746   2.202  0.3849 -0.0665 -0.0061
17382SOL    HW154588   9.911   4.671   2.259  1.2028  0.1680  0.0358
17382SOL    HW254589   9.841   4.805   2.258 -0.6467 -0.7635 -0.1655
17383SOL     OW54590   4.228   6.759   2.448  0.2979 -0.5448  0.4962
17383SOL    HW154591   4.275   6.743   2.529 -1.3707 -0.7600  1.4737
17383SOL    HW254592   4.294   6.752   2.379  1.9137  0.4664  1.8804
17384SOL     OW54593   0.214   5.429   4.133  0.3091  0.1354  0.0776
17384SOL    HW154594   0.184   5.377   4.059  0.4187 -1.3946  1.0793
17384SOL    HW254595   0.134   5.455   4.179  0.2952  0.3022 -0.0357
17385SOL     OW54596   2.870   4.826   0.820  0.7393  0.5996  0.2794
17385SOL    HW154597   2.798   4.762   0.818  1.4325 -0.1875 -0.9911
17385SOL    HW254598   2.926   4.797   0.892  1.6591 -0.9739 -1.0086
17386SOL     OW54599   4.786   1.735   5.822 -0.9177  0.1034 -0.0918
17386SOL    HW154600   4.746   1.665   5.770  2.0239 -0.7664 -1.3981
17386SOL    HW254601   4.838   1.688   5.888 -0.3593  1.1056  0.2002
17387SOL     OW54602   7.809   1.949   2.010  0.2026  0.0015  0.1022
17387SOL    HW154603   7.800   2.027   1.955  0.2289 -1.2278 -1.7287
17387SOL    HW254604   7.898   1.918   1.992  0.2354 -0.3765  0.9185
17388SOL     OW54605   0.665   6.496   1.465 -0.2401  0.2640 -0.4140
17388SOL    HW154606   0.734   6.539   1.414  0.0503  0.6225  0.2744
17388SOL    HW254607   0.660   6.408   1.428  0.0120  0.4928 -1.0169
17389SOL     OW54608   6.147   2.354   1.338  0.5165 -0.0836  0.1245
17389SOL    HW154609   6.088   2.378   1.410 -0.9308 -0.6300 -0.8372
17389SOL    HW254610   6.122   2.413   1.266  1.4339 -0.0517 -0.1767
17390SOL     OW54611   1.730   0.917   9.083  0.2986  0.4195 -0.1054
17390SOL    HW154612   1.801   0.960   9.130  0.7947 -0.3841 -0.1013
17390SOL    HW254613   1.759   0.917   8.991 -0.2669  1.1916 -0.3021
17391SOL     OW54614   2.848   8.024   0.854 -0.3071  0.3419  0.4573
17391SOL    HW154615   2.787   8.093   0.827 -1.3187 -0.5037  0.4965
17391SOL    HW254616   2.907   8.013   0.780  0.5682  1.9836  0.8620
17392SOL     OW54617   6.243   4.272   4.666  0.3326 -0.0690  0.0181
17392SOL    HW154618   6.282   4.304   4.585 -0.0126 -0.0510 -0.1407
17392SOL    HW254619   6.150   4.290   4.657  0.2705 -0.2181  0.3484
17393SOL     OW54620   2.064   3.546   3.698 -0.2334 -0.5641  0.2004
17393SOL    HW154621   2.059   3.630   3.742  0.1832  0.7095 -2.0131
17393SOL    HW254622   2.157   3.528   3.689 -0.3085 -1.6693  1.2859
17394SOL     OW54623   4.670   1.104   4.761 -0.2162 -0.8945  0.2129
17394SOL    HW154624   4.599   1.167   4.772 -1.5335 -2.5045  1.5590
17394SOL    HW254625   4.745   1.143   4.808 -0.8902 -0.1858  0.7214
17395SOL     OW54626   6.617   2.887   3.254  0.2226  0.4953  0.5104
17395SOL    HW154627   6.560   2.961   3.232 -0.5684 -0.6483 -1.5520
17395SOL    HW254628   6.560   2.827   3.303  0.4169  0.5275  0.7782
17396SOL     OW54629   6.449   0.629   8.810 -0.0991  0.3440 -0.5466
17396SOL    HW154630   6.502   0.559   8.849 -1.0785  0.2722  0.7063
17396SOL    HW254631   6.376   0.640   8.870 -2.0631 -0.1901 -2.6898
17397SOL     OW54632   7.935   1.272   6.803  0.5421 -0.6790  0.0093
17397SOL    HW154633   7.851   1.237   6.831  0.4621  0.7286  1.6821
17397SOL    HW254634   7.944   1.355   6.850  3.6858 -1.6144  1.3473
17398SOL     OW54635   2.381   9.009   5.783  0.3349  0.2429 -0.0456
17398SOL    HW154636   2.440   9.008   5.858 -0.0089  1.4473  0.2609
17398SOL    HW254637   2.439   9.025   5.708  0.4704  0.9078  0.1934
17399SOL     OW54638   9.143   5.039   6.093 -0.0334 -0.7565 -0.2182
17399SOL    HW154639   9.197   5.109   6.130  1.2871 -1.4204 -0.8116
17399SOL    HW254640   9.072   5.085   6.047  1.4894  0.2852 -1.6398
17400SOL     OW54641   2.415  10.478   5.594 -1.0839  0.0085 -0.7020
17400SOL    HW154642   2.415  10.387   5.566 -0.1121 -0.0121 -0.6631
17400SOL    HW254643   2.381  10.476   5.684 -0.3271 -0.4169 -0.4160
17401SOL     OW54644   2.864   0.043   0.402  0.2378  0.4142 -0.4605
17401SOL    HW154645   2.833  -0.047   0.411  0.6320  0.5252  3.1384
17401SOL    HW254646   2.784   0.094   0.385 -0.5863 -0.1858  1.4032
17402SOL     OW54647   3.113   9.369   5.566  0.0362  0.0069  0.2452
17402SOL    HW154648   3.149   9.288   5.530  0.3066  0.2419 -0.0167
17402SOL    HW254649   3.063   9.341   5.643  0.9688 -0.3105  0.7565
17403SOL     OW54650   5.389   3.616   1.117  1.0725 -0.0738  0.1621
17403SOL    HW154651   5.309   3.615   1.170  0.6635 -0.1912 -0.4516
17403SOL    HW254652   5.455   3.655   1.174 -0.1930  3.1781 -0.4043
17404SOL     OW54653   0.538  10.345   3.872 -0.0811 -0.5094  0.4441
17404SOL    HW154654   0.623  10.306   3.852 -0.6840 -2.0536  0.7143
17404SOL    HW254655   0.558  10.433   3.903  1.3137 -0.3396 -0.8078
17405SOL     OW54656   6.500   1.872   8.890 -0.2160  0.1855 -0.0067
17405SOL    HW154657   6.544   1.844   8.810  1.8770 -0.4347  1.2863
17405SOL    HW254658   6.467   1.960   8.869  1.6065  0.6732 -1.1018
17406SOL     OW54659   9.989   8.586   2.153  0.4563 -0.6462 -0.0678
17406SOL    HW154660   9.926   8.543   2.095  0.3953 -1.7047  0.7497
17406SOL    HW254661  10.049   8.631   2.094 -0.3667 -0.6217 -0.9031
17407SOL     OW54662   2.325   8.512   6.699  0.5583 -0.2067  0.0426
17407SOL    HW154663   2.309   8.599   6.663  2.6548 -0.2128 -1.0623
17407SOL    HW254664   2.276   8.453   6.641  2.9719 -0.1109 -2.2895
17408SOL     OW54665   9.493   0.304   3.208  0.0752  0.4081  0.2217
17408SOL    HW154666   9.429   0.292   3.138 -0.3728  2.3964  0.2279
17408SOL    HW254667   9.477   0.232   3.268 -1.0732 -0.0404 -0.5899
17409SOL     OW54668   4.561   5.082   6.296 -0.0655 -0.2048  0.9414
17409SOL    HW154669   4.522   4.994   6.300  1.6738 -0.9830  2.3902
17409SOL    HW254670   4.523   5.129   6.370 -1.5275  0.5609 -0.2389
17410SOL     OW54671   0.689   2.647   3.848 -0.2012 -0.2344  0.3612
17410SOL    HW154672   0.657   2.737   3.849  1.0634  0.2251  1.0850
17410SOL    HW254673   0.751   2.644   3.776  0.1062 -0.4052  0.6326
17411SOL     OW54674   2.290   4.802   4.561 -0.4799  0.2750  0.6015
17411SOL    HW154675   2.208   4.831   4.601 -0.9015  0.3872 -0.3107
17411SOL    HW254676   2.330   4.746   4.627 -1.6081 -0.3073  0.8217
17412SOL     OW54677   7.490   5.774   9.864 -0.0501  0.1915 -0.1783
17412SOL    HW154678   7.462   5.688   9.896  1.0870 -0.1525 -0.0761
17412SOL    HW254679   7.581   5.782   9.892  0.1616  1.0099 -1.0418
17413SOL     OW54680   0.924   9.111   7.737  0.0490  0.1039 -0.2485
17413SOL    HW154681   0.830   9.130   7.742  0.3660  1.6925  0.2909
17413SOL    HW254682   0.953   9.110   7.828  0.5768 -0.2146 -0.4177
17414SOL     OW54683   5.242   0.673   1.601 -0.0434  0.3081 -0.0472
17414SOL    HW154684   5.309   0.635   1.544 -2.7863 -0.7618 -2.8591
17414SOL    HW254685   5.254   0.627   1.685  1.9559 -0.6907 -0.8049
17415SOL     OW54686   8.853   6.284   2.544  0.0485 -0.0244 -0.6926
17415SOL    HW154687   8.910   6.331   2.605 -0.1389  0.0437 -0.5688
17415SOL    HW254688   8.793   6.235   2.600  1.1505 -1.5634 -0.7862
17416SOL     OW54689   6.756  10.357   7.139  0.1053 -0.1800  0.0294
17416SOL    HW154690   6.812  10.291   7.097 -1.3192 -0.1627 -2.0361
17416SOL    HW254691   6.817  10.414   7.185  1.7125 -0.7820 -1.2523
17417SOL     OW54692   1.384   2.657   0.696 -0.6280  0.2123  0.1535
17417SOL    HW154693   1.461   2.601   0.688 -0.4901  0.1738  1.4804
17417SOL    HW254694   1.381   2.706   0.614 -0.7249 -1.6605 -1.0201
17418SOL     OW54695   2.055   3.927  10.146 -0.0193 -0.6502 -0.0498
17418SOL    HW154696   2.139   3.972  10.134 -1.3117  1.7705 -0.5812
17418SOL    HW254697   2.040   3.881  10.063  2.3264 -4.1464  1.2174
17419SOL     OW54698   4.225   8.356   2.911  0.2703  0.3282 -0.0382
17419SOL    HW154699   4.142   8.326   2.948 -0.8115  2.3877 -0.6532
17419SOL    HW254700   4.254   8.282   2.857 -0.4682 -0.9284  1.2050
17420SOL     OW54701   1.396   6.810   3.208  0.1378 -0.2238  0.5238
17420SOL    HW154702   1.335   6.757   3.259  0.6721 -0.8738  0.5009
17420SOL    HW254703   1.359   6.809   3.119  1.0379 -2.0496  0.1113
17421SOL     OW54704   7.001   9.891   1.185  0.2597 -0.1594  0.5748
17421SOL    HW154705   6.933   9.873   1.120  1.4844 -0.6013 -0.6272
17421SOL    HW254706   7.076   9.839   1.157  1.1736  0.4630  1.7572
17422SOL     OW54707   9.537   5.000   8.542  0.5978  0.4207 -0.1452
17422SOL    HW154708   9.580   5.044   8.469  1.1897  1.5545  0.8538
17422SOL    HW254709   9.444   5.023   8.533  0.5339 -0.0926 -0.9598
17423SOL     OW54710   3.052   9.039   4.407 -0.0463 -0.1360 -0.5847
17423SOL    HW154711   3.117   9.011   4.472 -2.0981 -1.2904  1.1178
17423SOL    HW254712   3.020   9.123   4.439 -0.7718 -0.5108 -0.3047
17424SOL     OW54713   7.381   4.753   2.097 -0.3068 -0.2045 -0.3162
17424SOL    HW154714   7.459   4.804   2.077 -0.9278  0.3982 -1.3323
17424SOL    HW254715   7.309   4.806   2.063 -1.1652 -0.7196  0.6454
17425SOL     OW54716   1.353   8.016   7.599 -0.3404 -1.2045 -0.5990
17425SOL    HW154717   1.378   7.950   7.663 -0.2154 -0.6688 -0.0779
17425SOL    HW254718   1.300   8.078   7.650 -0.6882 -1.0591 -1.1394
17426SOL     OW54719   6.207   5.770   2.990 -0.1016 -0.3960 -0.1177
17426SOL    HW154720   6.204   5.830   2.916 -0.0304  0.0957  0.2696
17426SOL    HW254721   6.226   5.826   3.065  0.3698 -0.9625  0.1887
17427SOL     OW54722   8.450   0.443   6.833 -0.2535 -0.1895  0.0764
17427SOL    HW154723   8.494   0.524   6.857 -1.3988  0.4571  0.0579
17427SOL    HW254724   8.419   0.407   6.916 -0.0243 -0.4516  0.0510
17428SOL     OW54725  10.137   7.778   4.346 -0.1832  0.1557  0.1514
17428SOL    HW154726  10.061   7.787   4.403 -0.8995  0.3109 -0.7967
17428SOL    HW254727  10.116   7.704   4.290  0.8219 -0.4465  0.5521
17429SOL     OW54728   2.502   0.465   1.971  0.3735 -0.1824 -0.2708
17429SOL    HW154729   2.465   0.494   1.888  2.2547 -1.4350 -1.6294
17429SOL    HW254730   2.587   0.426   1.948  1.5554  0.5719  2.3895
17430SOL     OW54731   6.705   6.563   0.722 -0.2196  0.0562  0.0781
17430SOL    HW154732   6.742   6.482   0.758 -0.0408  0.3434  0.5485
17430SOL    HW254733   6.729   6.631   0.786 -2.4182  0.0967  0.9303
17431SOL     OW54734   8.500   7.770   7.580  0.6577 -0.0400 -0.1983
17431SOL    HW154735   8.494   7.853   7.626 -0.6251  0.1991 -0.7462
17431SOL    HW254736   8.503   7.704   7.649 -2.0907  0.2514  0.3315
17432SOL     OW54737   3.288   9.597   5.590  0.2090  0.3894 -0.1025
17432SOL    HW154738   3.260   9.641   5.670 -2.8433  1.9705 -1.8393
17432SOL    HW254739   3.224   9.527   5.577  0.9125 -0.1275 -0.9470
17433SOL     OW54740   9.879   4.740   8.371  0.1594 -0.0564 -0.8653
17433SOL    HW154741   9.866   4.752   8.465  1.7706  3.7004 -0.9758
17433SOL    HW254742   9.971   4.716   8.362  0.2175  0.3949 -1.5353
17434SOL     OW54743   5.417   6.935   3.414 -0.2228 -0.3839 -0.2881
17434SOL    HW154744   5.340   6.945   3.470  1.0787  0.4757  1.4680
17434SOL    HW254745   5.417   6.843   3.388 -0.8376 -0.8351  1.2233
17435SOL     OW54746   2.186   1.418   1.063  0.0702  0.4370  0.2460
17435SOL    HW154747   2.243   1.461   0.999  0.1367 -1.1028 -0.7981
17435SOL    HW254748   2.098   1.427   1.026  0.1034 -0.4059 -0.0654
17436SOL     OW54749   9.377   0.248   7.347  0.0314 -0.3121 -0.0571
17436SOL    HW154750   9.419   0.334   7.357  0.0374 -0.1457 -1.3145
17436SOL    HW254751   9.442   0.186   7.379  1.5406 -0.1030 -2.4603
17437SOL     OW54752   6.239   4.198   1.914  0.5344 -0.3645  0.0629
17437SOL    HW154753   6.282   4.224   1.996 -1.5188 -0.6142  1.2917
17437SOL    HW254754   6.286   4.119   1.887 -0.4177 -1.8902  2.5162
17438SOL     OW54755   0.757   1.752   2.876  0.2746  0.5840  0.1092
17438SOL    HW154756   0.720   1.706   2.951  0.7069 -1.1918 -0.7194
17438SOL    HW254757   0.849   1.765   2.898  0.2603  0.6376  0.1387
17439SOL     OW54758   5.273   8.439   3.879  0.0356  0.2871  0.6182
17439SOL    HW154759   5.211   8.476   3.817  0.2387  0.8585  0.7494
17439SOL    HW254760   5.354   8.489   3.866  0.7967 -1.0916 -0.2399
17440SOL     OW54761   5.867   4.503   4.395 -0.1497  0.7212  0.2118
17440SOL    HW154762   5.827   4.416   4.394  1.2927 -0.0549  2.4723
17440SOL    HW254763   5.845   4.541   4.310 -0.6406 -1.9387 -0.9319
17441SOL     OW54764   2.328   3.074   2.453 -0.0468  0.3753  0.4799
17441SOL    HW154765   2.356   3.160   2.486  3.0729 -0.9105  1.6042
17441SOL    HW254766   2.284   3.033   2.527 -1.2755  0.8321  0.0325
17442SOL     OW54767  10.319   1.037   5.108  0.8980 -0.4157  0.0771
17442SOL    HW154768  10.398   1.090   5.097  0.8472 -0.4610 -0.5649
17442SOL    HW254769  10.299   1.005   5.020 -0.2385  0.1714  0.0956
17443SOL     OW54770   9.906   9.129   7.073  0.1085 -0.2956 -0.6354
17443SOL    HW154771   9.869   9.041   7.070  0.9200 -0.6486 -0.4421
17443SOL    HW254772   9.830   9.187   7.059 -0.3585 -1.0289 -1.2504
17444SOL     OW54773   6.632   9.802   9.563  0.5409 -0.3334 -0.4690
17444SOL    HW154774   6.577   9.783   9.487  0.1916 -2.2793  0.2123
17444SOL    HW254775   6.680   9.720   9.579  0.1555 -0.1851  1.7553
17445SOL     OW54776   1.502   8.229   7.117  0.1255  0.7444  0.0502
17445SOL    HW154777   1.484   8.217   7.023  0.5051 -1.4163  0.2098
17445SOL    HW254778   1.432   8.180   7.161 -0.1186  1.8414  0.9249
17446SOL     OW54779   5.254   5.181   4.851 -0.3088  0.0857 -0.6510
17446SOL    HW154780   5.221   5.202   4.938 -0.2932 -0.0716 -0.6064
17446SOL    HW254781   5.339   5.141   4.865 -0.7055 -0.8021 -0.6709
17447SOL     OW54782   5.268   8.605   8.146  0.1590 -0.2494  0.3821
17447SOL    HW154783   5.355   8.645   8.146  0.6832 -1.1031 -3.0995
17447SOL    HW254784   5.209   8.676   8.173  1.6894  1.0076  0.5524
17448SOL     OW54785   2.335   3.706   9.665  0.6352 -0.0392  0.0921
17448SOL    HW154786   2.325   3.649   9.742  1.1923  0.7835  0.8040
17448SOL    HW254787   2.384   3.653   9.602 -0.6870 -1.0747 -0.1014
17449SOL     OW54788   4.601   4.897   3.493 -0.1618 -0.5812  0.3519
17449SOL    HW154789   4.587   4.819   3.439 -0.6216  0.5555 -1.2568
17449SOL    HW254790   4.576   4.870   3.581 -0.4245 -2.2100 -0.1837
17450SOL     OW54791   4.496   2.931   7.260  0.1198 -0.0034  0.2096
17450SOL    HW154792   4.550   3.005   7.289  1.0383 -1.2399  1.8045
17450SOL    HW254793   4.425   2.926   7.324 -1.2206  0.8104 -1.1467
17451SOL     OW54794   0.159   4.180   2.127  0.0499  0.1194  0.1914
17451SOL    HW154795   0.211   4.100   2.130 -0.9017 -0.4821  1.4178
17451SOL    HW254796   0.086   4.164   2.186 -2.0512  0.5831 -2.0936
17452SOL     OW54797   7.109   8.609   3.472  0.0324 -0.3118  0.5710
17452SOL    HW154798   7.056   8.567   3.540  0.0591 -1.1797  0.0667
17452SOL    HW254799   7.145   8.537   3.421  0.9201  0.2977  0.3062
17453SOL     OW54800   7.441   3.863   3.724 -0.8102  0.2042  0.3278
17453SOL    HW154801   7.403   3.861   3.812 -0.0244  1.2283  0.7101
17453SOL    HW254802   7.526   3.821   3.733 -0.3833  1.0238  0.2524
17454SOL     OW54803   7.447   3.131   5.751 -0.1154 -0.5741 -0.3720
17454SOL    HW154804   7.438   3.101   5.660 -1.0580  0.0480 -0.5021
17454SOL    HW254805   7.362   3.110   5.791  0.1102 -0.3697  0.2207
17455SOL     OW54806   8.314   1.238   0.082  0.8518  0.0152 -0.1414
17455SOL    HW154807   8.373   1.175   0.123  0.1974  0.9211  2.3776
17455SOL    HW254808   8.372   1.296   0.032  1.5840 -1.7242 -1.4134
17456SOL     OW54809   6.694   2.434   3.941 -0.2189 -0.3060  0.2320
17456SOL    HW154810   6.706   2.342   3.917 -0.1806  0.0552 -1.2072
17456SOL    HW254811   6.688   2.433   4.037 -0.4743 -1.8279  0.2258
17457SOL     OW54812   4.469   5.722   1.182 -0.6119 -0.0934 -0.1973
17457SOL    HW154813   4.519   5.665   1.124 -1.1299 -2.2303  1.3312
17457SOL    HW254814   4.387   5.675   1.198 -0.9101  0.8897  1.4563
17458SOL     OW54815   2.754   4.657   5.614 -0.5834 -0.0027  1.1213
17458SOL    HW154816   2.732   4.605   5.691  2.6564 -1.5046  1.1979
17458SOL    HW254817   2.778   4.592   5.547  0.3323  1.3266  0.1021
17459SOL     OW54818   6.504   7.441   2.499 -0.2953 -0.2447 -0.1029
17459SOL    HW154819   6.511   7.512   2.563  0.1001 -0.5016  0.1443
17459SOL    HW254820   6.476   7.484   2.418 -0.0820  0.1904  0.0512
17460SOL     OW54821   4.551   1.048   5.037  0.0163 -0.0957 -0.2674
17460SOL    HW154822   4.541   0.982   4.968  0.8210  1.4215 -1.9220
17460SOL    HW254823   4.644   1.071   5.034 -0.2840  1.2287  0.1231
17461SOL     OW54824   1.139   0.386   2.083  0.0070  0.2120 -0.4562
17461SOL    HW154825   1.091   0.443   2.023 -2.4363 -1.4570 -0.2222
17461SOL    HW254826   1.231   0.397   2.057 -0.7618  1.0844 -3.1538
17462SOL     OW54827   5.917   5.753  10.027 -0.1581 -0.4251 -0.0687
17462SOL    HW154828   5.887   5.837   9.994 -0.2461  0.0886  1.2656
17462SOL    HW254829   5.994   5.732   9.973 -0.3977  0.2918 -0.6997
17463SOL     OW54830   3.542   1.414   6.394 -0.5230 -0.6801 -0.1679
17463SOL    HW154831   3.626   1.372   6.414  0.3840  2.2559  3.4937
17463SOL    HW254832   3.485   1.389   6.467 -1.6594  0.2078 -0.7129
17464SOL     OW54833   1.875   6.933   2.134  0.2029 -0.0944  0.5728
17464SOL    HW154834   1.895   6.923   2.041  0.6086 -0.4073  0.6892
17464SOL    HW254835   1.908   6.852   2.174 -1.5955 -0.7949  0.7349
17465SOL     OW54836   9.540   2.106   0.738 -0.1434 -0.1840  0.1132
17465SOL    HW154837   9.619   2.074   0.694  0.1100  1.8170 -0.9817
17465SOL    HW254838   9.472   2.103   0.670  0.0245  2.0319 -0.2077
17466SOL     OW54839   7.717   0.910   9.908 -0.1898  0.1571  0.5570
17466SOL    HW154840   7.711   0.974   9.979 -0.1566  0.1217  0.5913
17466SOL    HW254841   7.688   0.958   9.830  1.4774  0.7284  0.2562
17467SOL     OW54842   2.919   2.861   6.949  0.2627  0.3633  0.2500
17467SOL    HW154843   2.884   2.911   7.023 -0.6286  0.7703 -0.4309
17467SOL    HW254844   2.894   2.770   6.968 -2.2681  0.7504 -0.7505
17468SOL     OW54845   6.002   8.519   7.958  0.2223 -0.1713 -0.3614
17468SOL    HW154846   5.931   8.524   7.894  0.7053  0.6160 -0.8619
17468SOL    HW254847   6.036   8.430   7.949 -1.0596 -0.7526  0.2975
17469SOL     OW54848   9.246   4.881   7.208  0.2326  0.3807 -0.4750
17469SOL    HW154849   9.291   4.863   7.291  1.2610  0.3158 -1.0377
17469SOL    HW254850   9.164   4.831   7.214  0.9574 -0.8026 -0.0978
17470SOL     OW54851   4.617   1.742   0.618  0.3646  0.1665  0.2562
17470SOL    HW154852   4.629   1.777   0.530 -0.4720  0.0535  0.0974
17470SOL    HW254853   4.670   1.663   0.620 -0.5912 -0.5074 -0.5530
17471SOL     OW54854   4.982   4.445   5.151  0.3547 -0.3086  0.5191
17471SOL    HW154855   5.060   4.395   5.130 -0.4804 -1.4795  0.0553
17471SOL    HW254856   4.998   4.532   5.116  0.9964 -0.8576 -0.5986
17472SOL     OW54857   4.790   7.011  10.462  0.1044  0.1350  0.4534
17472SOL    HW154858   4.805   6.922  10.429 -1.9238 -0.2777  0.5646
17472SOL    HW254859   4.718   7.044  10.410  0.9465  1.8173  0.3056
17473SOL     OW54860   8.937   4.793   8.253  0.1854 -0.0979  0.3265
17473SOL    HW154861   8.900   4.873   8.217 -0.3971  0.2332  1.5954
17473SOL    HW254862   8.880   4.770   8.326 -0.7348 -2.7090 -1.0817
17474SOL     OW54863   6.783   8.581   6.821 -0.0025 -0.0134 -0.4090
17474SOL    HW154864   6.791   8.676   6.814 -2.0729  0.2265 -0.3525
17474SOL    HW254865   6.781   8.564   6.915 -1.3291  0.1237 -0.3861
17475SOL     OW54866   8.512   1.727   6.803 -0.0659  0.1480  0.2661
17475SOL    HW154867   8.521   1.644   6.849 -0.3474 -0.3154 -0.5000
17475SOL    HW254868   8.593   1.736   6.753 -1.1437 -1.0532 -1.8389
17476SOL     OW54869   9.422   8.143   3.413  0.0797  0.2540  0.1131
17476SOL    HW154870   9.376   8.065   3.443  0.3232 -0.1028 -0.4315
17476SOL    HW254871   9.420   8.137   3.318  2.2104 -0.3501  0.0587
17477SOL     OW54872   4.878  10.392   9.313 -0.0017 -0.2041 -0.4322
17477SOL    HW154873   4.897  10.474   9.267  0.3703 -0.0827 -0.0632
17477SOL    HW254874   4.789  10.404   9.346 -0.9319 -0.9302 -2.5051
17478SOL     OW54875   9.937   8.660   0.920 -0.4011 -0.6238 -0.4924
17478SOL    HW154876   9.962   8.574   0.886  0.7004 -0.3181 -0.5112
17478SOL    HW254877   9.955   8.720   0.847 -2.5075 -0.5311 -0.9818
17479SOL     OW54878   9.420   1.276   0.839  0.1041 -0.0840  0.3655
17479SOL    HW154879   9.332   1.238   0.840  0.6480 -1.4135  1.0952
17479SOL    HW254880   9.406   1.370   0.846 -1.2911 -0.1720 -0.7647
17480SOL     OW54881   5.465   6.215   3.306  0.0914  0.2657 -0.0534
17480SOL    HW154882   5.401   6.270   3.261 -0.1343 -0.5826 -0.8184
17480SOL    HW254883   5.548   6.260   3.295  0.2545 -0.4588 -2.3935
17481SOL     OW54884   7.541   7.967   9.410 -0.3513 -0.2666 -0.2836
17481SOL    HW154885   7.549   8.062   9.418 -1.6897 -0.2480  1.2341
17481SOL    HW254886   7.631   7.937   9.401  0.2363  1.0174  0.9056
17482SOL     OW54887   8.340   6.334   8.368 -0.3418 -0.0686 -0.0631
17482SOL    HW154888   8.270   6.396   8.347 -1.6324 -1.2412  0.5748
17482SOL    HW254889   8.418   6.370   8.326 -1.0522  1.9249  0.2214
17483SOL     OW54890   3.190   9.326   7.082  0.0041  0.4729  0.1677
17483SOL    HW154891   3.155   9.238   7.089 -1.7256  0.9513 -1.6735
17483SOL    HW254892   3.162   9.370   7.163 -0.9369 -0.0619  0.1382
17484SOL     OW54893   3.340   3.353   2.160 -0.2262  0.0520 -0.0324
17484SOL    HW154894   3.385   3.421   2.211  0.0827 -0.5276  0.4907
17484SOL    HW254895   3.289   3.304   2.225 -1.6491  0.7012 -0.6202
17485SOL     OW54896   1.175   9.554   2.205 -0.8354 -0.1557 -0.4676
17485SOL    HW154897   1.240   9.483   2.200 -0.1168  0.1513  2.5792
17485SOL    HW254898   1.212   9.624   2.152 -0.0668 -0.9954 -1.0701
17486SOL     OW54899   4.991   1.681   7.639 -0.1744 -0.0621  0.5610
17486SOL    HW154900   5.086   1.682   7.638 -0.1630  0.9785 -0.4409
17486SOL    HW254901   4.966   1.619   7.570 -0.2096  0.2645  0.2769
17487SOL     OW54902  10.082   2.328   9.802  0.0002 -0.8108  0.5359
17487SOL    HW154903  10.019   2.282   9.746 -0.5922  0.2975  0.2558
17487SOL    HW254904  10.028   2.370   9.869  0.3787  0.4965  0.0580
17488SOL     OW54905   7.341   3.719   7.964  0.5709 -0.4907 -0.0708
17488SOL    HW154906   7.414   3.695   8.020  1.8939 -0.2721 -1.6318
17488SOL    HW254907   7.361   3.808   7.934 -0.1713 -0.5357 -0.7447
17489SOL     OW54908   3.231   2.611   0.241  0.0352 -0.0492 -0.1635
17489SOL    HW154909   3.289   2.651   0.176  0.5915  0.3173  0.5341
17489SOL    HW254910   3.202   2.684   0.295 -0.8186 -0.2836 -0.3007
17490SOL     OW54911   2.252   7.457   7.500 -0.2546 -0.1191  0.2917
17490SOL    HW154912   2.217   7.488   7.416 -0.3682  1.0641  0.7591
17490SOL    HW254913   2.330   7.510   7.514 -0.7371  0.3473  1.3580
17491SOL     OW54914   7.672   2.807   8.935  0.2379 -0.2168 -0.3877
17491SOL    HW154915   7.639   2.896   8.932  0.3394 -0.1717 -0.2115
17491SOL    HW254916   7.594   2.753   8.945  0.2717 -0.0391  1.1024
17492SOL     OW54917   6.604   3.406   8.463 -0.1284 -0.1948 -0.0942
17492SOL    HW154918   6.641   3.330   8.509  1.9329  1.0569  0.4420
17492SOL    HW254919   6.517   3.416   8.502  0.9775 -0.0519  2.6323
17493SOL     OW54920   3.049   1.649   2.593 -0.4008 -0.0745 -0.3788
17493SOL    HW154921   3.140   1.669   2.614  0.0338 -0.6953 -1.5496
17493SOL    HW254922   3.018   1.724   2.542 -0.7108  0.3546  0.4221
17494SOL     OW54923  10.212   7.185  10.276  0.0537 -0.4324 -0.6863
17494SOL    HW154924  10.244   7.095  10.285  0.7326 -0.2087 -0.8034
17494SOL    HW254925  10.184   7.192  10.185 -3.7032 -1.6866  0.1661
17495SOL     OW54926   0.263   8.175   2.075 -0.1515 -0.4217 -0.3946
17495SOL    HW154927   0.301   8.257   2.044 -0.0047 -0.4806 -0.3687
17495SOL    HW254928   0.338   8.118   2.091 -0.3161 -1.3895 -2.6761
17496SOL     OW54929   9.811   0.143   9.878 -0.4949 -0.0569 -0.4866
17496SOL    HW154930   9.890   0.146   9.823  0.8551 -0.2260  1.3677
17496SOL    HW254931   9.743   0.110   9.819  0.6289  0.7351 -2.3299
17497SOL     OW54932   1.466   1.149   4.688 -0.3690  0.5271  0.4945
17497SOL    HW154933   1.514   1.070   4.716  0.2473  0.4935 -0.6187
17497SOL    HW254934   1.532   1.203   4.645 -1.6380 -0.3996 -2.8852
17498SOL     OW54935   0.336   8.006   0.012  0.3067 -0.0089 -0.0283
17498SOL    HW154936   0.351   7.987   0.105 -0.8803  0.6877  0.3288
17498SOL    HW254937   0.270   8.075   0.013 -0.3830 -0.6255 -1.4238
17499SOL     OW54938   0.652   5.665   8.902  0.5289  0.0886 -0.2442
17499SOL    HW154939   0.653   5.683   8.996  0.2161 -0.5600 -0.1126
17499SOL    HW254940   0.737   5.696   8.870  0.5883  0.4179  0.2272
17500SOL     OW54941   3.927   4.906   1.850 -0.2631 -0.5971  0.1638
17500SOL    HW154942   4.012   4.951   1.852 -0.6707  0.1706  1.7389
17500SOL    HW254943   3.903   4.905   1.757  1.4934 -0.9272 -0.3307
17501SOL     OW54944   0.863   4.032   4.753 -0.4875  0.2804  0.2322
17501SOL    HW154945   0.793   4.022   4.817  1.0565  1.4491  2.2195
17501SOL    HW254946   0.850   4.119   4.716 -0.2333  0.4087  0.4401
17502SOL     OW54947   0.189   7.310   3.089 -0.1766  0.0181  0.2747
17502SOL    HW154948   0.208   7.384   3.032  0.9984 -0.6142 -0.1882
17502SOL    HW254949   0.271   7.293   3.136 -0.8127 -0.1492  1.3751
17503SOL     OW54950   9.911   2.530   8.024 -0.2662 -0.1644  0.2526
17503SOL    HW154951   9.931   2.438   8.007  2.2148  0.5341 -1.0028
17503SOL    HW254952   9.965   2.552   8.100 -0.1015  0.5240 -0.0662
17504SOL     OW54953   6.736   5.905   5.460  0.0529  0.3320  0.3026
17504SOL    HW154954   6.641   5.890   5.470  0.0198 -0.1532 -0.5947
17504SOL    HW254955   6.776   5.846   5.524 -0.2827  2.5538  2.7180
17505SOL     OW54956   1.083   5.042   9.328 -0.2191  0.4267  0.4833
17505SOL    HW154957   1.084   5.024   9.421 -0.8404 -0.1773  0.3750
17505SOL    HW254958   0.999   5.008   9.297  1.4243 -2.6948 -0.9366
17506SOL     OW54959   0.069   9.733   4.808  0.6435  0.4512 -0.6288
17506SOL    HW154960   0.136   9.787   4.849  0.2315 -1.1660  2.4307
17506SOL    HW254961   0.117   9.683   4.741  2.1445  0.6199  0.2708
17507SOL     OW54962   0.057   7.246   9.908 -0.0963  0.0989 -0.0489
17507SOL    HW154963   0.146   7.220   9.885 -0.4706 -2.5369  1.1629
17507SOL    HW254964   0.016   7.267   9.823  1.4948  0.8898 -0.6600
17508SOL     OW54965   7.182   2.840   4.713  0.4491 -0.0889  0.5501
17508SOL    HW154966   7.099   2.819   4.671  0.0623  0.2347  1.1395
17508SOL    HW254967   7.249   2.816   4.648 -0.1247  0.2306 -0.1673
17509SOL     OW54968   8.087   1.958   8.960 -0.2974 -0.6942 -0.1761
17509SOL    HW154969   8.001   1.969   9.000  0.1004  0.8097  0.3180
17509SOL    HW254970   8.111   2.045   8.931  1.1034 -1.0825 -0.2341
17510SOL     OW54971   4.866  10.002   4.810  0.1555 -0.1585  0.7712
17510SOL    HW154972   4.848  10.052   4.730 -0.7565  1.4210  1.8887
17510SOL    HW254973   4.935   9.941   4.786  0.6032  0.9641 -0.9589
17511SOL     OW54974   9.210   9.445   4.509 -0.2112  0.4519 -0.4653
17511SOL    HW154975   9.140   9.510   4.511 -0.4345  0.2368 -1.1543
17511SOL    HW254976   9.166   9.361   4.524  0.2794  0.5842  2.2599
17512SOL     OW54977  10.181   3.890  10.166 -0.3816  0.1164 -0.1269
17512SOL    HW154978  10.203   3.818  10.226  0.3999  0.3901 -0.0774
17512SOL    HW254979  10.239   3.877  10.091  1.2181  1.8479  0.7609
17513SOL     OW54980   8.580   4.553   3.555  0.3515 -0.1012 -0.1646
17513SOL    HW154981   8.654   4.577   3.500  1.3728  0.6477  1.4462
17513SOL    HW254982   8.620   4.513   3.633 -1.0040 -0.7543  0.2366
17514SOL     OW54983   7.372   4.151  10.010  0.3909 -0.4868 -0.0933
17514SOL    HW154984   7.339   4.236   9.981  1.8448 -0.7887 -2.9990
17514SOL    HW254985   7.297   4.092  10.003 -0.3085  0.2774  0.7657
17515SOL     OW54986   4.624   2.789   7.662 -0.2462  0.6239  0.2007
17515SOL    HW154987   4.546   2.743   7.631 -0.4810  0.2167  1.3740
17515SOL    HW254988   4.589   2.865   7.709  0.1029  1.0565 -0.2255
17516SOL     OW54989   8.602   2.405   5.169  0.0945  0.5496  0.3332
17516SOL    HW154990   8.535   2.439   5.228 -0.1437 -0.6854  0.7952
17516SOL    HW254991   8.673   2.376   5.226 -0.6111 -1.7224  0.1678
17517SOL     OW54992   1.187   0.160   0.303  0.1492  0.1649  0.1480
17517SOL    HW154993   1.150   0.230   0.358 -0.0210 -0.5728  1.0025
17517SOL    HW254994   1.230   0.101   0.366  0.4889 -0.3759 -0.5821
17518SOL     OW54995   7.199   0.284   9.117  0.4034  0.2016 -0.1312
17518SOL    HW154996   7.195   0.203   9.168 -0.1782  0.1278 -0.2860
17518SOL    HW254997   7.239   0.258   9.034  1.2109  0.2919  0.2149
17519SOL     OW54998   9.116  10.334   2.912  0.1406 -0.0075  1.2584
17519SOL    HW154999   9.202  10.364   2.944  0.3071  2.7592 -1.2974
17519SOL    HW255000   9.053  10.386   2.962  0.2922  2.1353 -0.6067
17520SOL     OW55001  10.133   5.595   8.797  0.4446  0.2188 -0.3037
17520SOL    HW155002  10.102   5.512   8.832  1.2423 -0.1516 -0.4512
17520SOL    HW255003  10.227   5.594   8.811  0.5670  0.7581 -1.0120
17521SOL     OW55004   5.054   5.280   4.698  0.4435 -0.5391  0.4016
17521SOL    HW155005   5.125   5.240   4.748 -0.4555 -0.8076  1.4984
17521SOL    HW255006   5.085   5.368   4.679  1.1888 -0.7477  0.6093
17522SOL     OW55007   5.670   1.453  10.191 -0.0352  0.3669  0.4038
17522SOL    HW155008   5.652   1.546  10.202  0.4529  0.3400  1.6234
17522SOL    HW255009   5.764   1.445  10.205 -0.0786 -0.3112  0.3547
17523SOL     OW55010   5.909   2.120  10.109  0.3872 -0.0765  0.4549
17523SOL    HW155011   5.921   2.148  10.199 -1.3141 -1.4487  1.1616
17523SOL    HW255012   5.830   2.165  10.079  0.9708  0.4195 -0.3916
17524SOL     OW55013   9.576   4.379   8.874  0.1457 -0.4554  0.0016
17524SOL    HW155014   9.506   4.408   8.932  1.3712  1.0910  0.7844
17524SOL    HW255015   9.611   4.300   8.916  0.2180 -0.0458  0.7334
17525SOL     OW55016   8.558   0.207   3.165  0.2012  0.3568 -0.1942
17525SOL    HW155017   8.602   0.142   3.110 -0.7689  1.0564 -1.8779
17525SOL    HW255018   8.510   0.156   3.230 -0.3148 -0.6245 -1.3159
17526SOL     OW55019   8.115   7.432   4.276  0.2051 -1.0644 -0.6377
17526SOL    HW155020   8.070   7.441   4.360  0.5874  0.3758 -0.5515
17526SOL    HW255021   8.087   7.509   4.225 -0.0757 -1.9534 -1.8663
17527SOL     OW55022   2.043  10.181   3.074  0.1479 -0.1343 -0.0321
17527SOL    HW155023   1.962  10.197   3.027 -1.1234 -0.1376  2.0472
17527SOL    HW255024   2.056  10.086   3.069 -0.7297 -0.3132  0.7353
17528SOL     OW55025   1.599   4.384   9.181  0.1681  0.2520  0.2040
17528SOL    HW155026   1.616   4.447   9.111 -0.5952  2.4656  1.8663
17528SOL    HW255027   1.637   4.425   9.259  0.8853 -2.0630  1.1521
17529SOL     OW55028   7.879   3.083   1.308  0.3892 -0.0291 -0.1563
17529SOL    HW155029   7.899   3.017   1.242 -3.7974  0.2853 -2.0291
17529SOL    HW255030   7.836   3.035   1.379  2.0253  0.0937  0.9933
17530SOL     OW55031   5.156   0.941   5.994 -0.0778 -0.0261 -0.7142
17530SOL    HW155032   5.235   0.911   5.949  1.0337  0.8427  0.5684
17530SOL    HW255033   5.188   0.982   6.075 -1.8495  0.2972 -0.1193
17531SOL     OW55034   5.145   0.909   5.598  0.2289 -0.3925  0.0669
17531SOL    HW155035   5.151   0.934   5.505  2.0652 -0.0124  0.2538
17531SOL    HW255036   5.156   0.814   5.598  0.3295 -0.3812 -0.1003
17532SOL     OW55037   4.646  10.185   0.579 -0.1266  0.2770  0.2441
17532SOL    HW155038   4.619  10.177   0.670  1.5687  1.6704  0.9275
17532SOL    HW255039   4.699  10.107   0.563 -0.7973 -0.1984  0.2866
17533SOL     OW55040  10.323   3.807   0.838  0.4062 -0.3230 -0.3276
17533SOL    HW155041  10.262   3.757   0.891  0.8918 -0.8085 -0.2152
17533SOL    HW255042  10.281   3.814   0.752  0.0779 -0.4153 -0.1751
17534SOL     OW55043  10.076   7.743   7.870  0.2520  0.4064 -0.1206
17534SOL    HW155044  10.003   7.681   7.861  0.8378 -0.6695  1.9896
17534SOL    HW255045  10.148   7.702   7.821 -0.0693  0.6735 -0.8331
17535SOL     OW55046   2.345   3.160   4.427  0.0447 -0.5565  0.3822
17535SOL    HW155047   2.408   3.232   4.436  1.4398 -1.9282  2.3117
17535SOL    HW255048   2.395   3.090   4.386 -0.9328 -0.8884 -0.2680
17536SOL     OW55049   6.411   2.755   1.323 -0.8290  0.0387 -0.2776
17536SOL    HW155050   6.424   2.682   1.263  0.1784  0.3486 -0.4562
17536SOL    HW255051   6.467   2.825   1.289 -2.3384  1.1869 -0.5563
17537SOL     OW55052   6.559   8.870   9.628 -0.0283 -0.4328 -0.2763
17537SOL    HW155053   6.630   8.898   9.686 -1.5108 -0.2563  1.5410
17537SOL    HW255054   6.591   8.890   9.540  1.3068  1.6590  0.6074
17538SOL     OW55055  10.295   4.265   4.634  0.4436  0.2724  0.1425
17538SOL    HW155056  10.377   4.268   4.586  0.3700 -3.0315 -0.4342
17538SOL    HW255057  10.229   4.243   4.569  0.0144 -2.3485  1.3431
17539SOL     OW55058   1.326   9.582   0.942 -0.6390 -0.1666 -0.7213
17539SOL    HW155059   1.238   9.615   0.922 -0.3649  1.8913  1.0937
17539SOL    HW255060   1.362   9.645   1.004  1.0741 -2.4551  0.7956
17540SOL     OW55061   0.350   9.401   0.267  0.1495  0.2261  0.1423
17540SOL    HW155062   0.294   9.467   0.227  0.6728  2.0997  2.3228
17540SOL    HW255063   0.289   9.335   0.300 -0.5864  0.8479  0.0602
17541SOL     OW55064   4.388   2.025   7.707 -0.4057 -0.1932  0.0015
17541SOL    HW155065   4.356   2.114   7.690  0.3836  0.4674  1.7849
17541SOL    HW255066   4.386   2.016   7.802  0.2987 -1.7926 -0.1051
17542SOL     OW55067   8.631   8.427   0.900  0.3345  0.2573 -0.4164
17542SOL    HW155068   8.576   8.349   0.902 -0.0730  0.4976  2.9354
17542SOL    HW255069   8.718   8.394   0.878  0.5310 -1.5354  2.5451
17543SOL     OW55070   8.457   8.619   3.771 -0.3656 -0.1257  0.0298
17543SOL    HW155071   8.481   8.635   3.863  0.8071  1.1501 -0.4619
17543SOL    HW255072   8.363   8.632   3.769 -0.4301 -0.3126  1.0800
17544SOL     OW55073   0.047   8.093   1.961  0.0095 -0.3554 -0.1879
17544SOL    HW155074   0.137   8.120   1.979  0.9534 -1.3487 -2.9741
17544SOL    HW255075   0.010   8.165   1.910 -0.3855 -0.5027 -0.1120
17545SOL     OW55076   6.011   9.832   9.636  0.3559 -0.1248 -0.1386
17545SOL    HW155077   5.947   9.847   9.566  1.5416 -0.0956 -1.2494
17545SOL    HW255078   5.994   9.742   9.664  0.2555 -0.3432 -0.8744
17546SOL     OW55079   6.980   2.688   3.109  0.0933 -0.1922 -0.2974
17546SOL    HW155080   6.983   2.593   3.119 -1.3628 -0.2485 -0.1527
17546SOL    HW255081   6.913   2.702   3.042  0.0984  0.7458 -0.1159
17547SOL     OW55082   9.334   2.923   9.841  0.3332  0.0201 -0.3373
17547SOL    HW155083   9.331   2.899   9.748  0.9757 -0.6257 -0.2071
17547SOL    HW255084   9.425   2.951   9.855  0.3016 -0.1055  0.1400
17548SOL     OW55085   9.442   2.974   5.253  0.8696  0.1566  0.0543
17548SOL    HW155086   9.511   2.943   5.313  0.4289 -1.6156 -0.3174
17548SOL    HW255087   9.361   2.941   5.291  0.6057 -1.3165 -1.6642
17549SOL     OW55088   9.013   6.993   0.607  0.0939  0.4920 -0.2271
17549SOL    HW155089   9.011   6.987   0.702 -1.1657  0.4115 -0.2426
17549SOL    HW255090   8.991   6.904   0.577  0.4399  0.5250 -0.5986
17550SOL     OW55091   1.187   8.751   4.661 -0.6247 -0.3374 -0.1171
17550SOL    HW155092   1.250   8.685   4.693  0.5037  1.2834  1.1714
17550SOL    HW255093   1.237   8.802   4.598 -1.1451 -0.0068 -0.2636
17551SOL     OW55094   7.875   1.506   7.195 -0.4145  0.0267  0.0903
17551SOL    HW155095   7.834   1.485   7.279  0.9887  0.2095  0.8575
17551SOL    HW255096   7.902   1.421   7.161  1.2485  0.1144  1.0584
17552SOL     OW55097   6.688   6.589   0.422  0.0752  0.1872 -0.0799
17552SOL    HW155098   6.676   6.612   0.514  0.6963 -0.1738  0.0989
17552SOL    HW255099   6.774   6.624   0.399 -0.4197  0.9870 -0.7576
17553SOL     OW55100   2.229   1.080   1.878  0.8467 -0.2788  0.4021
17553SOL    HW155101   2.321   1.097   1.861  0.4272  2.6183  0.5076
17553SOL    HW255102   2.218   1.099   1.971  0.3355 -1.7629  0.6693
17554SOL     OW55103   2.933   6.481   1.352  0.0734  0.0334  0.7605
17554SOL    HW155104   2.973   6.469   1.265 -1.2941 -2.4566  0.3732
17554SOL    HW255105   3.006   6.470   1.413  0.9928  1.4671 -0.0205
17555SOL     OW55106   2.675   1.794   1.658  0.4388 -0.3740 -0.0451
17555SOL    HW155107   2.694   1.746   1.738  0.1816 -1.0374 -0.3737
17555SOL    HW255108   2.585   1.771   1.636  0.0111  0.9486  0.2585
17556SOL     OW55109   7.552   9.178   2.063  0.1689  0.6904 -0.3105
17556SOL    HW155110   7.497   9.235   2.009 -1.5524 -1.1563 -0.6462
17556SOL    HW255111   7.498   9.158   2.140 -0.1340 -1.9090 -1.0749
17557SOL     OW55112   8.812   3.824   1.295  0.2735  0.0380 -0.3477
17557SOL    HW155113   8.827   3.896   1.234  0.0713  0.3056 -0.0817
17557SOL    HW255114   8.724   3.840   1.330  0.1142 -0.4880 -0.4919
17558SOL     OW55115   0.940   0.256   8.202  0.0591  0.3961  0.5381
17558SOL    HW155116   1.021   0.259   8.253  0.0499  0.5769  0.5451
17558SOL    HW255117   0.872   0.234   8.266 -0.2720  2.6004  1.0378
17559SOL     OW55118   7.347   1.827   9.100  0.0038  0.1020  0.7563
17559SOL    HW155119   7.432   1.852   9.065 -0.3503 -0.2603 -0.3973
17559SOL    HW255120   7.325   1.898   9.162  0.7790  0.5925  0.4873
17560SOL     OW55121   3.440   7.267   7.661 -0.2791 -0.2515  0.2479
17560SOL    HW155122   3.510   7.214   7.623 -0.4575 -0.3470  0.0501
17560SOL    HW255123   3.364   7.248   7.606 -0.8972 -1.4341  1.4687
17561SOL     OW55124   0.904   2.638   9.576 -0.2357  0.0939 -0.2054
17561SOL    HW155125   0.855   2.719   9.563  2.5169  2.1564  1.1778
17561SOL    HW255126   0.931   2.612   9.488 -0.3677  1.2432 -0.6066
17562SOL     OW55127   9.041   5.488   1.492 -0.2636 -0.1308 -0.0937
17562SOL    HW155128   9.060   5.573   1.531 -1.8009 -0.4455  1.4793
17562SOL    HW255129   9.076   5.425   1.555  2.8144 -0.7839 -2.2410
17563SOL     OW55130   0.804   5.374   1.953  0.1793 -0.0469  0.0100
17563SOL    HW155131   0.750   5.450   1.976 -2.0305 -1.0029 -1.6367
17563SOL    HW255132   0.772   5.348   1.866  1.4013 -2.3894  0.1990
17564SOL     OW55133   0.875   7.776   2.977 -0.0532 -0.2452  0.4466
17564SOL    HW155134   0.833   7.855   3.011 -0.3745 -0.3509  0.3027
17564SOL    HW255135   0.968   7.787   2.999  0.0685  0.6160 -0.3833
17565SOL     OW55136   1.903   3.998   5.826  0.4239 -0.4644 -0.1832
17565SOL    HW155137   1.818   3.974   5.862  0.4907 -1.0779 -0.4275
17565SOL    HW255138   1.964   3.938   5.868  0.7317 -0.0815 -0.0719
17566SOL     OW55139   1.842   2.723   1.667  0.2352  0.6710 -0.7163
17566SOL    HW155140   1.859   2.689   1.755 -1.6637  0.4177 -0.4020
17566SOL    HW255141   1.851   2.818   1.675 -1.3994  0.7781  0.1414
17567SOL     OW55142   6.670   6.778   3.898  0.3323 -0.4681  0.4560
17567SOL    HW155143   6.577   6.757   3.892  0.6118 -1.9517  0.7745
17567SOL    HW255144   6.683   6.848   3.834 -0.9606 -0.3808  0.2616
17568SOL     OW55145   4.273   6.635   6.904  0.0880  0.2865  0.5079
17568SOL    HW155146   4.197   6.666   6.854  0.4480 -0.3826 -0.4779
17568SOL    HW255147   4.235   6.601   6.985 -0.5752  0.8117  0.4294
17569SOL     OW55148   0.199   9.321   2.595  0.3114  0.4883 -0.2791
17569SOL    HW155149   0.212   9.313   2.689 -0.8299  1.6221  0.0056
17569SOL    HW255150   0.147   9.243   2.572  0.0237  0.5498  0.1511
17570SOL     OW55151  10.079   9.054   3.615 -0.4261  0.4750 -0.0708
17570SOL    HW155152  10.074   9.108   3.693 -0.2205 -0.1480  0.3861
17570SOL    HW255153  10.157   9.084   3.569  1.1002 -1.0337  1.4291
17571SOL     OW55154   3.693   0.864   7.660 -0.1701  0.2391  0.6721
17571SOL    HW155155   3.615   0.827   7.620 -0.6212  1.0482  0.7757
17571SOL    HW255156   3.716   0.804   7.731  0.8319 -1.4008 -0.9682
17572SOL     OW55157   4.374   5.952   1.294 -0.5388 -0.1786 -0.1692
17572SOL    HW155158   4.413   5.869   1.268 -1.8154 -0.7360 -0.3428
17572SOL    HW255159   4.449   6.011   1.306  0.4295 -1.5369  0.6502
17573SOL     OW55160   4.513   4.935   9.795  0.2786 -0.0222 -0.1799
17573SOL    HW155161   4.542   4.846   9.814  1.7988  0.4079 -0.3583
17573SOL    HW255162   4.594   4.984   9.782 -0.5368  1.3824 -0.1280
17574SOL     OW55163   7.064   0.610   3.048  0.5979  0.0409 -0.2813
17574SOL    HW155164   7.115   0.667   2.990  0.9193 -1.3831 -1.4362
17574SOL    HW255165   7.129   0.551   3.087  0.2907  0.5262  1.0398
17575SOL     OW55166   7.316   3.122   9.625  0.1183  0.6646 -0.4845
17575SOL    HW155167   7.255   3.193   9.646 -0.9710 -0.7820  1.6523
17575SOL    HW255168   7.362   3.152   9.547  0.7365  4.3135  1.0848
17576SOL     OW55169   9.257   9.930   0.986 -0.1676  0.2864  0.7988
17576SOL    HW155170   9.242   9.920   1.079 -0.4357 -1.7139  0.5808
17576SOL    HW255171   9.191   9.993   0.957 -0.6817  0.2171  1.7891
17577SOL     OW55172   4.454   0.014   8.587  0.7640  0.2658  0.2378
17577SOL    HW155173   4.465  -0.053   8.520  0.4531 -0.6386  1.0605
17577SOL    HW255174   4.473   0.097   8.542 -0.0729 -0.2444 -1.1142
17578SOL     OW55175   3.576   0.673   3.346  0.3988  0.2181  0.1811
17578SOL    HW155176   3.512   0.744   3.352 -1.0017 -1.0919  2.5012
17578SOL    HW255177   3.577   0.650   3.253  0.1946  2.5758 -0.4815
17579SOL     OW55178   4.828   6.530   3.396 -0.1254 -0.6012 -0.3172
17579SOL    HW155179   4.849   6.441   3.365 -1.8087 -1.9735  2.2018
17579SOL    HW255180   4.745   6.551   3.354  0.1124 -0.3129 -0.6559
17580SOL     OW55181   1.747   8.266  10.257 -0.4941  0.2457  0.0123
17580SOL    HW155182   1.716   8.303  10.339  0.9959 -2.8443  2.1766
17580SOL    HW255183   1.840   8.288  10.253  0.2057 -2.2349  0.8925
17581SOL     OW55184   7.872   6.808   5.369 -0.1359 -0.0985  0.0276
17581SOL    HW155185   7.908   6.817   5.281 -0.3177 -0.0829 -0.0463
17581SOL    HW255186   7.939   6.761   5.418  0.0992  0.1623 -0.0378
17582SOL     OW55187   9.006   8.990   8.404 -0.3312 -0.4251 -0.1422
17582SOL    HW155188   9.006   9.050   8.478 -0.9564  2.0423 -2.0034
17582SOL    HW255189   8.918   8.952   8.404  0.1608 -1.6483  1.2172
17583SOL     OW55190   3.374   6.678   4.801 -0.0181 -0.5077  0.0738
17583SOL    HW155191   3.462   6.695   4.836  0.3892 -1.0474 -0.6755
17583SOL    HW255192   3.387   6.610   4.736 -1.2964 -2.0480  1.3576
17584SOL     OW55193   6.472   8.123   6.166  0.4191  0.3953 -0.1623
17584SOL    HW155194   6.382   8.132   6.136  0.3223 -0.3594 -0.1207
17584SOL    HW255195   6.472   8.159   6.254  0.2109  0.6052 -0.2482
17585SOL     OW55196   4.773   1.180   2.634 -0.2176  0.1495  0.3238
17585SOL    HW155197   4.775   1.096   2.679  1.2366 -0.2563 -0.4180
17585SOL    HW255198   4.773   1.158   2.541 -2.1318  0.9775  0.0854
17586SOL     OW55199   0.286   8.109   7.148  0.2779 -0.0661 -0.4005
17586SOL    HW155200   0.271   8.127   7.055  1.7169  0.7278 -0.5129
17586SOL    HW255201   0.362   8.050   7.148 -0.8088 -1.5402  0.2315
17587SOL     OW55202   9.395   2.409   6.056 -0.5489  0.6995 -0.4862
17587SOL    HW155203   9.413   2.359   6.136 -1.9202  0.1888 -0.4727
17587SOL    HW255204   9.462   2.381   5.994  0.4882  1.0458  0.4457
17588SOL     OW55205   8.359   9.879   7.342  0.7127  0.1509 -0.0391
17588SOL    HW155206   8.351   9.784   7.354  0.3130  0.1437 -0.3375
17588SOL    HW255207   8.397   9.911   7.424  2.5136 -0.4882 -0.5737
17589SOL     OW55208   6.522  10.397   3.414 -0.0481 -0.4633  0.4599
17589SOL    HW155209   6.435  10.437   3.417  0.5121  0.7577  2.6921
17589SOL    HW255210   6.506  10.304   3.396 -1.5952  0.1412 -1.7414
17590SOL     OW55211   2.827   6.357   7.503 -0.2978 -0.0229 -0.0045
17590SOL    HW155212   2.763   6.333   7.570 -0.2288  1.5337  0.6568
17590SOL    HW255213   2.833   6.452   7.509  0.9408 -0.0122 -1.1104
17591SOL     OW55214   8.109   6.903   1.574 -0.3845  0.0530 -0.3681
17591SOL    HW155215   8.031   6.958   1.581 -0.3052  0.0321  0.8325
17591SOL    HW255216   8.167   6.951   1.515 -0.5811  0.9416  0.1462
17592SOL     OW55217   5.948   0.786   8.504 -0.2824  0.3204  0.8727
17592SOL    HW155218   6.008   0.812   8.574 -3.2479  2.3784  2.8922
17592SOL    HW255219   5.968   0.844   8.431  1.8178 -0.8144  0.4647
17593SOL     OW55220   0.050   7.062   8.748 -0.1458 -0.1376  0.0469
17593SOL    HW155221  -0.020   7.125   8.765  0.2862 -0.3424  3.0967
17593SOL    HW255222   0.011   6.999   8.687 -0.9738  2.3191 -2.1099
17594SOL     OW55223   8.000   6.341   5.595 -0.3972  0.3311  0.3769
17594SOL    HW155224   8.065   6.298   5.651 -0.0704  0.5884  0.1957
17594SOL    HW255225   7.952   6.268   5.554 -0.1670  0.1421  0.4428
17595SOL     OW55226   1.106   4.099  10.018  0.3320  0.1828  0.5233
17595SOL    HW155227   1.094   4.092   9.923  0.4146  1.7335  0.3777
17595SOL    HW255228   1.085   4.012  10.051 -0.1242 -0.2654 -0.8767
17596SOL     OW55229  10.135   9.398   3.374  0.4951  0.0935 -0.4764
17596SOL    HW155230  10.101   9.480   3.338 -2.8952 -0.0983  1.8424
17596SOL    HW255231  10.222   9.421   3.408  0.8188  1.9542 -2.3868
17597SOL     OW55232   6.779   4.483   5.375 -0.5409 -0.2720 -0.4926
17597SOL    HW155233   6.697   4.441   5.401 -2.1170  1.9972 -1.4359
17597SOL    HW255234   6.759   4.524   5.290  1.9315 -0.5556 -1.2946
17598SOL     OW55235   6.850   6.261   7.780  0.0974  0.1875 -0.2353
17598SOL    HW155236   6.892   6.346   7.767 -3.1088  2.0627  0.4873
17598SOL    HW255237   6.848   6.221   7.693  2.4129  0.3854 -0.4389
17599SOL     OW55238   4.006   5.256   3.818  0.2709 -0.1195 -0.0504
17599SOL    HW155239   3.941   5.314   3.857 -0.3366 -0.2820 -0.8203
17599SOL    HW255240   4.086   5.309   3.815  0.5660 -0.3384  2.1170
17600SOL     OW55241   6.646   3.517  10.278  0.6974 -0.6872  0.6851
17600SOL    HW155242   6.721   3.577  10.277  0.3131 -0.2007 -0.2401
17600SOL    HW255243   6.653   3.471  10.362  0.1174  1.7945  2.2057
17601SOL     OW55244   0.016   3.748   4.365  0.0752  0.3252 -0.4742
17601SOL    HW155245   0.100   3.751   4.318  0.8418 -1.9781  0.5742
17601SOL    HW255246   0.036   3.703   4.447 -1.5567  2.7985  1.4241
17602SOL     OW55247   0.203   7.797   4.636 -0.4005 -0.1325 -0.3355
17602SOL    HW155248   0.148   7.720   4.619  2.1862 -1.7870 -1.7844
17602SOL    HW255249   0.259   7.772   4.709 -1.9707  1.8476  1.6956
17603SOL     OW55250   7.884   6.351   7.854 -0.2297 -0.1088  0.0943
17603SOL    HW155251   7.803   6.383   7.894  1.3693  1.1798  2.5358
17603SOL    HW255252   7.927   6.431   7.822  1.2535 -0.4269  1.2137
17604SOL     OW55253   7.760   7.493   2.181 -0.0761 -0.0968 -0.5000
17604SOL    HW155254   7.805   7.470   2.262  0.6594 -2.2232 -1.4306
17604SOL    HW255255   7.719   7.577   2.199 -0.5562 -0.8427  2.3061
17605SOL     OW55256   5.374   9.952   6.449 -0.4388  0.1008 -0.1375
17605SOL    HW155257   5.418   9.897   6.514 -0.1056  1.6091  0.9442
17605SOL    HW255258   5.416   9.929   6.366  0.9103 -0.0343  0.5561
17606SOL     OW55259   8.040   3.680   8.629 -0.0384  0.2471 -0.4183
17606SOL    HW155260   8.040   3.707   8.721  0.7775  1.6816 -0.8114
17606SOL    HW255261   8.132   3.683   8.602 -0.3319  0.5090 -1.4595
17607SOL     OW55262   8.551   0.045   5.978  0.0741  0.0371  0.1624
17607SOL    HW155263   8.459   0.063   5.959 -0.1634 -1.0956  0.1416
17607SOL    HW255264   8.599   0.107   5.924 -0.6547 -0.4142 -1.0633
17608SOL     OW55265   0.597   9.065   7.345  0.7556  0.9836  0.0919
17608SOL    HW155266   0.551   9.076   7.428  1.4727  0.6203  0.5430
17608SOL    HW255267   0.619   9.154   7.318 -0.2546  1.1754 -0.1707
17609SOL     OW55268   8.027   5.067   9.681 -0.1592 -0.2438 -0.2681
17609SOL    HW155269   8.005   5.007   9.609 -0.3494  0.1008 -0.5047
17609SOL    HW255270   8.070   5.141   9.637 -3.0144  1.4628 -0.4915
17610SOL     OW55271   4.660   2.377   8.992  0.2218  0.2546  0.0664
17610SOL    HW155272   4.591   2.331   9.039  0.0104  0.8282  0.3204
17610SOL    HW255273   4.624   2.392   8.905  0.2915 -0.0586 -0.0182
17611SOL     OW55274   3.152   6.305   0.330 -0.2906  0.0267  0.0521
17611SOL    HW155275   3.247   6.309   0.320 -0.0817  1.7197  1.9372
17611SOL    HW255276   3.118   6.309   0.241  1.3647 -3.2836 -0.8870
17612SOL     OW55277   8.010   0.055   2.373 -0.1121  0.0431  0.2484
17612SOL    HW155278   7.970  -0.021   2.415  0.5080 -1.0135 -1.0127
17612SOL    HW255279   8.088   0.021   2.329  0.6800  1.5726  0.3914
17613SOL     OW55280   9.931   9.239   6.080 -0.3250 -0.1989 -0.2900
17613SOL    HW155281   9.985   9.221   6.157 -0.2309  1.0678 -0.0305
17613SOL    HW255282   9.918   9.154   6.039  1.0658 -0.6763  0.1840
17614SOL     OW55283   3.403   1.866   1.358 -0.4327  0.0646  0.4174
17614SOL    HW155284   3.496   1.859   1.339 -0.1294  0.0970  1.7752
17614SOL    HW255285   3.360   1.821   1.285  0.6918 -0.8993  0.3187
17615SOL     OW55286   1.390  10.224   8.164  0.2652  0.4712  0.0886
17615SOL    HW155287   1.464  10.286   8.163  1.4008 -0.8305 -1.0231
17615SOL    HW255288   1.397  10.180   8.249 -0.0152  1.2364  0.5165
17616SOL     OW55289   4.106   2.730   6.268  0.4290 -0.2051  0.2035
17616SOL    HW155290   4.115   2.813   6.314 -1.7371 -0.3850  1.0734
17616SOL    HW255291   4.014   2.707   6.278  1.0468 -2.9576  0.4166
17617SOL     OW55292  10.104   5.472   7.123  0.4501 -0.0766 -0.5796
17617SOL    HW155293  10.035   5.520   7.077 -0.1964 -0.7092 -0.2909
17617SOL    HW255294  10.062   5.391   7.151  1.3956 -0.5948 -0.6322
17618SOL     OW55295   0.517   7.489   0.575  0.1938 -0.2959 -0.1389
17618SOL    HW155296   0.500   7.443   0.492 -1.9364  0.3814 -0.1446
17618SOL    HW255297   0.549   7.421   0.634 -0.3959 -1.2647 -0.8979
17619SOL     OW55298   4.877   9.792   4.138 -0.1283 -0.2731  0.0230
17619SOL    HW155299   4.909   9.877   4.108  0.7110 -0.5626  0.0676
17619SOL    HW255300   4.798   9.776   4.085 -0.8711  0.9679  0.7120
17620SOL     OW55301   6.421   2.772   7.648 -0.6305 -0.0019 -0.4537
17620SOL    HW155302   6.437   2.693   7.698 -0.7547  0.3274  0.1179
17620SOL    HW255303   6.387   2.835   7.712 -0.0003  0.6928 -0.7789
17621SOL     OW55304   8.167   1.122   8.545  0.2421  0.0943  0.0318
17621SOL    HW155305   8.235   1.074   8.593 -0.2102  0.0383  0.6307
17621SOL    HW255306   8.189   1.214   8.557  0.0280  0.0850  0.5034
17622SOL     OW55307   2.445   5.135   5.009  0.2146 -0.1648  0.1404
17622SOL    HW155308   2.370   5.080   5.032 -0.5791  0.8652  0.0836
17622SOL    HW255309   2.434   5.214   5.062  1.2076  0.0405  0.0550
17623SOL     OW55310   4.045   3.128   1.116 -1.1737  0.3544  0.4729
17623SOL    HW155311   4.076   3.038   1.131 -0.5472  0.3817 -0.5202
17623SOL    HW255312   3.960   3.117   1.074  0.2997  0.0714 -2.7651
17624SOL     OW55313  10.380   2.270   2.941 -0.4331  0.4514 -0.1632
17624SOL    HW155314  10.455   2.328   2.951 -0.2631  0.0058  1.4423
17624SOL    HW255315  10.417   2.182   2.942 -0.7689  0.2567 -1.7817
17625SOL     OW55316   6.245   3.414  10.245  0.3167  0.1909  0.3205
17625SOL    HW155317   6.308   3.355  10.204  0.2509 -0.5554  1.2434
17625SOL    HW255318   6.279   3.501  10.229 -0.0713 -0.0182 -1.8781
17626SOL     OW55319   4.823   1.687   3.461 -0.1301 -0.3214 -0.1099
17626SOL    HW155320   4.818   1.673   3.556  0.0645  2.0723  0.3166
17626SOL    HW255321   4.915   1.670   3.440  0.0269 -0.0124  0.3033
17627SOL     OW55322   9.854   5.981   1.941  0.7309 -0.6994 -0.1366
17627SOL    HW155323   9.926   6.045   1.945  1.7171 -1.7918  0.1047
17627SOL    HW255324   9.788   6.017   2.001  1.0036  0.3898 -0.4568
17628SOL     OW55325   3.519   5.177   6.056 -0.1613 -0.3498  0.0457
17628SOL    HW155326   3.530   5.084   6.077  1.8978  0.0388  0.9180
17628SOL    HW255327   3.573   5.222   6.121  1.8491  1.2609 -2.5409
17629SOL     OW55328   4.901   3.789  10.323 -0.1100 -0.3686 -0.3658
17629SOL    HW155329   4.867   3.705  10.356  1.1279 -0.1481  1.6292
17629SOL    HW255330   4.984   3.767  10.281  1.2417  0.0072  1.9324
17630SOL     OW55331   7.957   3.208   2.968 -0.2360 -0.1453  0.6471
17630SOL    HW155332   7.891   3.274   2.987  1.4731  2.0242 -0.4149
17630SOL    HW255333   7.909   3.137   2.926 -1.8262  1.6694 -0.8087
17631SOL     OW55334  10.470   0.838   1.228 -0.3740 -0.2199 -0.3746
17631SOL    HW155335  10.377   0.831   1.247 -0.6483  2.8334 -0.0294
17631SOL    HW255336  10.473   0.861   1.135  0.0766 -0.7424 -0.4929
17632SOL     OW55337   4.189  10.034   1.622  0.2045 -0.1813  0.5853
17632SOL    HW155338   4.227   9.950   1.645  0.3233 -0.4295 -0.4539
17632SOL    HW255339   4.258  10.080   1.574 -0.3058 -0.0434 -0.0351
17633SOL     OW55340   2.093   6.803   0.248 -0.2162  0.3010  0.4779
17633SOL    HW155341   2.183   6.787   0.277 -0.1956 -1.1661 -0.2822
17633SOL    HW255342   2.101   6.875   0.185  0.7943 -1.1456 -1.1539
17634SOL     OW55343   9.425   8.743   3.027  0.7140 -0.5069 -0.3350
17634SOL    HW155344   9.386   8.771   2.944 -0.3342 -2.4311 -0.5244
17634SOL    HW255345   9.433   8.825   3.077 -0.1547  0.4597 -1.6855
17635SOL     OW55346   6.024   2.363   6.257 -0.1751 -0.0151 -0.0683
17635SOL    HW155347   5.981   2.285   6.220 -0.8952  0.4093 -0.1413
17635SOL    HW255348   5.960   2.433   6.245  0.5324  0.6217 -0.1312
17636SOL     OW55349   7.171   9.708   4.354  0.2643 -1.0768  0.5923
17636SOL    HW155350   7.077   9.724   4.354  0.3492 -0.1161 -1.8541
17636SOL    HW255351   7.206   9.764   4.423 -0.6945  0.8613 -0.4087
17637SOL     OW55352   9.904   7.120   3.398  0.0259 -0.2590  0.2046
17637SOL    HW155353   9.853   7.069   3.462 -0.6985 -1.4465 -1.2632
17637SOL    HW255354   9.992   7.084   3.405  0.0078 -0.2282  0.6769
17638SOL     OW55355   8.830   4.588   6.264 -0.1289 -0.1339  0.5640
17638SOL    HW155356   8.868   4.645   6.331  0.4918 -0.0426  0.1410
17638SOL    HW255357   8.741   4.621   6.252  0.1989  0.6936  0.3744
17639SOL     OW55358   4.420   5.228   4.901 -0.0176 -0.2106  0.8833
17639SOL    HW155359   4.388   5.317   4.909 -0.7658 -0.5689  2.1529
17639SOL    HW255360   4.347   5.179   4.864  0.8382 -0.0832 -1.1386
17640SOL     OW55361   1.426   4.025   5.058  0.3095  0.1499 -0.3787
17640SOL    HW155362   1.434   4.102   5.001  1.1719  0.3249 -0.0377
17640SOL    HW255363   1.414   3.952   4.997 -0.6354  0.5537 -0.7040
17641SOL     OW55364  10.019   6.108   2.343  0.4595 -0.5432  0.5152
17641SOL    HW155365  10.029   6.169   2.270 -2.4665 -0.8556 -0.2668
17641SOL    HW255366   9.997   6.163   2.418 -1.5084 -0.5203 -0.0364
17642SOL     OW55367   3.385   8.317   1.453  0.0438  0.2052 -0.3566
17642SOL    HW155368   3.340   8.358   1.526  1.3602 -0.2634  0.7532
17642SOL    HW255369   3.465   8.368   1.443 -0.6551  1.0321 -2.2999
17643SOL     OW55370   5.179   1.101   0.896  0.0659  0.3101  0.2002
17643SOL    HW155371   5.231   1.180   0.885 -0.7216  0.6965 -0.9466
17643SOL    HW255372   5.090   1.134   0.909 -0.1167 -0.3664  0.6813
17644SOL     OW55373   7.604   5.544   2.623 -0.3358  0.1407  0.3613
17644SOL    HW155374   7.668   5.512   2.686  0.7049  0.1763 -0.6486
17644SOL    HW255375   7.608   5.483   2.550 -1.1112  0.4205  0.0672
17645SOL     OW55376   4.233   0.499   3.576  0.8856  0.1419 -0.6402
17645SOL    HW155377   4.326   0.489   3.557  1.1262 -1.4694  1.1239
17645SOL    HW255378   4.226   0.490   3.671 -0.7922  2.9252 -0.4035
17646SOL     OW55379   5.613   6.594   2.510 -0.2877 -0.2685  0.4786
17646SOL    HW155380   5.656   6.601   2.425 -0.8359  1.0942  0.2855
17646SOL    HW255381   5.663   6.653   2.567 -1.7330  1.2041  0.2913
17647SOL     OW55382   9.249   9.758  10.471  0.6129  0.6195 -0.5317
17647SOL    HW155383   9.159   9.725  10.471  1.1659 -1.0702  0.6027
17647SOL    HW255384   9.252   9.818  10.546  0.1942  1.4380 -1.1635
17648SOL     OW55385   9.960   8.748   8.458  0.1683 -0.3492  0.2247
17648SOL    HW155386   9.911   8.702   8.390 -0.6184 -0.7512  1.0329
17648SOL    HW255387   9.896   8.762   8.528  0.6498  1.1058  0.4084
17649SOL     OW55388   2.995   9.650  10.295 -0.2724  0.0168  0.2480
17649SOL    HW155389   3.010   9.706  10.371 -2.0830  1.8194 -0.6182
17649SOL    HW255390   2.902   9.626  10.302 -0.1692 -0.7268 -0.7829
17650SOL     OW55391   2.511   7.631   3.955 -0.2527  0.0908 -0.3161
17650SOL    HW155392   2.416   7.640   3.965 -0.5774 -2.1758 -0.8454
17650SOL    HW255393   2.530   7.667   3.868 -0.6492  0.4095 -0.2727
17651SOL     OW55394   3.231   1.672  10.029 -0.5334  0.4999 -0.1807
17651SOL    HW155395   3.211   1.720   9.949  0.3347  0.7914 -0.2354
17651SOL    HW255396   3.153   1.618  10.045  0.3548 -1.8205 -2.8554
17652SOL     OW55397   9.265   4.090   1.963 -0.1429  0.2712  0.1069
17652SOL    HW155398   9.304   4.030   2.026  0.7663  0.9581  0.2233
17652SOL    HW255399   9.320   4.168   1.967  0.7407 -0.1092 -2.4169
17653SOL     OW55400   7.648   6.128  10.235  0.3015  0.3011 -0.1678
17653SOL    HW155401   7.574   6.107  10.178  0.2472 -0.5630  0.1963
17653SOL    HW255402   7.721   6.077  10.200  0.1884 -0.4848  0.6956
17654SOL     OW55403   8.780   6.140   9.796 -0.0232  0.0635  0.0055
17654SOL    HW155404   8.846   6.144   9.865 -0.8364 -0.0433  0.8121
17654SOL    HW255405   8.697   6.158   9.841 -0.5553  0.1164 -0.9678
17655SOL     OW55406   3.654   8.746   1.474  0.4943  0.6059  0.0562
17655SOL    HW155407   3.608   8.667   1.447 -0.0740  1.1269 -0.5371
17655SOL    HW255408   3.667   8.735   1.568 -0.1210  0.0709  0.0872
17656SOL     OW55409   3.680   8.056   7.942 -0.8136  0.2169 -0.2230
17656SOL    HW155410   3.656   7.965   7.956 -0.9456  0.4308  1.0229
17656SOL    HW255411   3.610   8.091   7.886  0.6812 -1.1254 -3.1338
17657SOL     OW55412   9.275   1.210   5.743  0.8615 -0.1249 -0.5686
17657SOL    HW155413   9.315   1.254   5.818 -0.2003 -2.5074  1.5439
17657SOL    HW255414   9.348   1.185   5.688  1.9360 -0.5992  1.0061
17658SOL     OW55415   6.882   8.409  10.284  0.3026  0.0511 -0.0311
17658SOL    HW155416   6.816   8.471  10.254 -0.1486  0.6687  2.0182
17658SOL    HW255417   6.957   8.464  10.308  0.9995 -0.4970 -0.8878
17659SOL     OW55418   9.900   6.672   7.712  0.7865  0.0108 -0.0737
17659SOL    HW155419   9.981   6.678   7.662  1.0105 -0.7686  0.1811
17659SOL    HW255420   9.834   6.716   7.657  0.8871 -1.3476 -1.3413
17660SOL     OW55421   8.821   9.192   0.176 -0.3462 -0.0738  0.4160
17660SOL    HW155422   8.784   9.275   0.207  0.8115  0.7816 -0.4296
17660SOL    HW255423   8.874   9.161   0.250  1.0698  1.1244 -0.0621
17661SOL     OW55424   5.071   6.807   1.085  0.3583 -0.2829 -0.3726
17661SOL    HW155425   5.041   6.886   1.040 -0.7430 -1.7099 -2.3220
17661SOL    HW255426   5.087   6.835   1.175 -2.5365  1.6284 -0.3063
17662SOL     OW55427   8.628   3.323   8.171  0.3172  0.4255  0.3835
17662SOL    HW155428   8.589   3.330   8.259  2.0304  0.1198  1.1957
17662SOL    HW255429   8.702   3.264   8.182 -0.2718 -0.7934 -1.5961
17663SOL     OW55430   9.102  10.363   2.040  0.3590  0.1310 -0.3692
17663SOL    HW155431   9.100  10.281   1.991 -0.0727  0.0009 -0.1385
17663SOL    HW255432   9.195  10.384   2.047  0.5137 -0.7039  0.1711
17664SOL     OW55433   5.256   9.115   5.362  0.0740 -0.1842 -0.3415
17664SOL    HW155434   5.320   9.104   5.433  1.3941 -0.7421 -1.5792
17664SOL    HW255435   5.309   9.118   5.282 -1.4551 -0.6692 -1.4105
17665SOL     OW55436   1.892   4.048   5.295  0.1136  0.1303  0.1647
17665SOL    HW155437   1.900   4.049   5.390 -0.9281 -2.3460  0.3383
17665SOL    HW255438   1.799   4.037   5.278  0.4138 -0.6327 -1.1170
17666SOL     OW55439   2.446   9.364   2.519  0.3757 -0.6689  0.1283
17666SOL    HW155440   2.525   9.399   2.560  0.0474  0.3317 -0.0443
17666SOL    HW255441   2.478   9.313   2.444  0.8739 -0.6580  0.3326
17667SOL     OW55442   5.134   0.389   9.433 -0.4034  0.3321 -0.4565
17667SOL    HW155443   5.078   0.367   9.359 -1.6838  1.9588 -0.0311
17667SOL    HW255444   5.200   0.320   9.435 -1.5826 -0.8944 -1.8221
17668SOL     OW55445   8.294   2.545   8.642 -0.2705 -0.3335 -0.3488
17668SOL    HW155446   8.327   2.555   8.732 -0.0140  0.1602 -0.4899
17668SOL    HW255447   8.199   2.550   8.650 -0.2248  0.3388 -0.1714
17669SOL     OW55448   6.602   8.659   8.438  0.2546  0.0964 -0.3623
17669SOL    HW155449   6.559   8.707   8.368  0.0858 -2.1253 -1.8872
17669SOL    HW255450   6.589   8.567   8.415  0.4632 -0.7244  2.4436
17670SOL     OW55451   6.854   5.040   8.398  0.1131  0.1167 -0.3534
17670SOL    HW155452   6.826   5.073   8.313  1.3514 -0.8242 -1.1724
17670SOL    HW255453   6.932   4.988   8.379 -0.4869 -1.4282  1.1599
17671SOL     OW55454   6.202   6.625   7.010 -0.1317 -0.3540 -0.0490
17671SOL    HW155455   6.165   6.543   6.977  0.0494 -0.6243  0.4054
17671SOL    HW255456   6.185   6.689   6.941  2.0940 -1.3399 -1.6256
17672SOL     OW55457   9.217   5.431   7.774 -0.1042 -0.0713  0.0904
17672SOL    HW155458   9.144   5.466   7.824 -0.9780 -0.4484 -0.9003
17672SOL    HW255459   9.179   5.361   7.721  1.1347 -0.8368  0.1816
17673SOL     OW55460   0.741   5.977   1.166  0.6288 -0.3446 -0.1869
17673SOL    HW155461   0.799   5.976   1.243 -0.4628  2.0171  0.7842
17673SOL    HW255462   0.653   5.967   1.203  0.1560 -0.2508 -1.2636
17674SOL     OW55463   2.791   8.052   1.705  0.5179  0.0306 -0.0301
17674SOL    HW155464   2.805   7.984   1.640 -0.0945 -0.0460 -0.0815
17674SOL    HW255465   2.866   8.044   1.765  1.1514  0.1885 -0.7880
17675SOL     OW55466   8.788   4.964   6.611  0.1660  0.6668  0.3458
17675SOL    HW155467   8.771   5.030   6.544 -0.0186  0.7082  0.4322
17675SOL    HW255468   8.802   5.014   6.691  0.1998  0.6098  0.3750
17676SOL     OW55469   5.276   8.951   4.859 -0.5566 -0.2101 -1.4002
17676SOL    HW155470   5.265   8.954   4.764 -1.7630  0.5046 -1.2546
17676SOL    HW255471   5.194   8.985   4.894  0.3099  0.6366 -0.1128
17677SOL     OW55472   2.909   5.157   9.000 -0.3455  0.2139 -0.8055
17677SOL    HW155473   2.826   5.115   8.977 -1.8041  1.5042  1.6600
17677SOL    HW255474   2.889   5.250   9.006  1.6423  0.7358 -1.4514
17678SOL     OW55475   3.061   6.284   5.245 -0.1578  0.0341 -0.0305
17678SOL    HW155476   3.093   6.367   5.210 -0.7256  0.1588 -0.2545
17678SOL    HW255477   3.101   6.277   5.332  0.2656  0.3129 -0.2033
17679SOL     OW55478   8.989   1.663   1.924  0.0852 -0.0017  0.0355
17679SOL    HW155479   8.947   1.746   1.947  0.5160 -0.1821  1.6335
17679SOL    HW255480   8.958   1.602   1.991  2.3103 -0.3145  0.8517
17680SOL     OW55481   4.522   0.526   4.434  0.0113 -0.5138  0.1794
17680SOL    HW155482   4.605   0.570   4.451  0.7277 -0.8655 -2.1493
17680SOL    HW255483   4.458   0.573   4.489  1.2321  1.6196 -0.1307
17681SOL     OW55484   0.571   9.895   9.134  0.0763  0.9497 -0.4874
17681SOL    HW155485   0.611   9.890   9.221  1.0154 -1.3127 -0.9713
17681SOL    HW255486   0.556   9.989   9.120 -1.3574  1.3186  2.6089
17682SOL     OW55487   9.422   5.203   9.717 -0.3328 -0.4415 -0.0209
17682SOL    HW155488   9.362   5.150   9.665  0.4714 -1.9025  0.4823
17682SOL    HW255489   9.372   5.281   9.740 -1.2424 -0.5376 -1.5718
17683SOL     OW55490   3.472   0.880   8.116  0.1483 -0.2011 -0.1851
17683SOL    HW155491   3.491   0.964   8.159  0.2042 -0.7750  0.9531
17683SOL    HW255492   3.415   0.834   8.177 -0.1108 -0.8855 -0.9249
17684SOL     OW55493   1.088   6.513   6.014 -0.0470  0.3642 -0.2732
17684SOL    HW155494   1.077   6.556   6.099 -1.6188  0.0771 -0.3069
17684SOL    HW255495   1.017   6.449   6.010  0.5076 -0.2053 -1.4633
17685SOL     OW55496   9.793   1.900   1.030  0.2298  0.2541  0.2776
17685SOL    HW155497   9.710   1.890   1.077  0.7204 -0.1627  1.0853
17685SOL    HW255498   9.797   1.993   1.009 -1.0425  0.0767 -0.9323
17686SOL     OW55499   5.476  10.016   6.909  0.2439  0.1195 -0.6069
17686SOL    HW155500   5.394  10.055   6.939 -0.0224  0.3605 -1.6050
17686SOL    HW255501   5.492  10.056   6.824  0.1221 -1.6879 -1.5489
17687SOL     OW55502   2.911   6.940   6.583 -0.4462  0.1810  0.6088
17687SOL    HW155503   2.820   6.914   6.597 -0.5819  0.3795  0.1284
17687SOL    HW255504   2.907   7.003   6.511  0.4290 -2.7456 -2.2730
17688SOL     OW55505   1.323   6.107   0.312 -0.5889  0.0491 -0.4047
17688SOL    HW155506   1.367   6.132   0.394 -0.5851  0.6262 -0.5772
17688SOL    HW255507   1.393   6.069   0.259 -0.5393 -0.0955 -0.2382
17689SOL     OW55508   2.432   8.387   4.596  0.3084  0.3622  0.1073
17689SOL    HW155509   2.403   8.323   4.532 -0.4678 -0.4951  1.2822
17689SOL    HW255510   2.524   8.404   4.574 -0.2870  1.0823 -2.0012
17690SOL     OW55511   3.644   4.974   9.703  0.1236 -0.1830  0.3736
17690SOL    HW155512   3.718   4.931   9.746  1.4929  2.0071  0.3750
17690SOL    HW255513   3.665   5.067   9.707 -1.5565  0.3628 -1.6553
17691SOL     OW55514   5.880   8.071   0.861  0.6660  0.0504  0.3713
17691SOL    HW155515   5.840   8.006   0.919  1.5226 -1.8745 -1.0915
17691SOL    HW255516   5.851   8.046   0.774  0.4967  2.0811 -0.2198
17692SOL     OW55517   6.501   3.086   7.853 -0.5480  0.2421 -0.1397
17692SOL    HW155518   6.437   3.015   7.853  0.2203 -0.4733  0.8310
17692SOL    HW255519   6.506   3.115   7.944  2.0400 -1.1741  0.2688
17693SOL     OW55520   8.112   7.061   7.488 -0.3889 -0.2940  0.0749
17693SOL    HW155521   8.082   6.975   7.517  0.2438 -0.3164  0.6636
17693SOL    HW255522   8.050   7.085   7.419  0.4056 -1.9638 -1.2941
17694SOL     OW55523   3.577   8.512   6.853  0.2064 -0.3564 -0.5001
17694SOL    HW155524   3.578   8.433   6.798  1.6541  0.0911 -1.1810
17694SOL    HW255525   3.543   8.581   6.795  1.5669  0.0773 -0.8416
17695SOL     OW55526   3.308   0.144   2.541 -0.1632 -0.6582  0.2421
17695SOL    HW155527   3.342   0.084   2.475  2.2397  0.3920  0.4173
17695SOL    HW255528   3.217   0.158   2.516 -0.0950 -2.4498 -1.1914
17696SOL     OW55529   9.420  10.052   8.701 -0.2331  0.2482  0.3396
17696SOL    HW155530   9.398  10.087   8.787  1.7483 -1.7069  1.7629
17696SOL    HW255531   9.363   9.976   8.690 -0.4472  0.4645 -0.0423
17697SOL     OW55532   5.212   1.284   5.211  0.6520  0.1193  0.2830
17697SOL    HW155533   5.179   1.272   5.300  0.2062 -1.2728 -0.0440
17697SOL    HW255534   5.291   1.230   5.207  0.6138  0.0905 -0.2038
17698SOL     OW55535   9.157   2.633   1.726 -0.3985 -0.0500  0.0230
17698SOL    HW155536   9.160   2.716   1.775 -0.3752  0.2961 -0.5526
17698SOL    HW255537   9.204   2.571   1.781  1.2001  0.7693 -0.3661
17699SOL     OW55538   2.030   0.248   2.038 -0.4049  0.2039  0.3846
17699SOL    HW155539   2.057   0.339   2.024 -1.0965  0.2876 -0.4846
17699SOL    HW255540   1.983   0.250   2.121 -0.2648  0.6026  0.4600
17700SOL     OW55541   0.379   9.799   9.350 -0.1855 -0.5435  0.2695
17700SOL    HW155542   0.447   9.752   9.301  1.3518  1.4482  0.3486
17700SOL    HW255543   0.419   9.883   9.371 -2.3935  0.3601  1.1353
17701SOL     OW55544   0.619   1.055  10.223  0.1061 -0.1798 -0.2770
17701SOL    HW155545   0.649   1.078  10.311 -0.1890  0.1728 -0.2662
17701SOL    HW255546   0.547   0.994  10.238 -0.4348  0.4579 -0.2511
17702SOL     OW55547   2.706   8.894   6.791 -0.0778 -0.8664 -0.0538
17702SOL    HW155548   2.635   8.957   6.804  1.0194  0.2998  0.4548
17702SOL    HW255549   2.684   8.821   6.849  0.0565  0.2914  1.5229
17703SOL     OW55550   3.909  10.343   4.626 -0.3267 -0.3302 -0.3862
17703SOL    HW155551   3.910  10.263   4.678  0.4275 -0.3239 -0.3754
17703SOL    HW255552   4.002  10.361   4.609 -0.4155  1.2286  0.6648
17704SOL     OW55553   5.409   3.108   2.877  0.1172  0.4842  0.3617
17704SOL    HW155554   5.480   3.061   2.920 -1.0741 -1.1032  0.6954
17704SOL    HW255555   5.435   3.115   2.785  0.4385 -0.6191  0.3639
17705SOL     OW55556   7.081   6.283   2.255  0.5877  0.3543  0.8211
17705SOL    HW155557   7.112   6.304   2.343 -0.9404 -1.1949  1.7591
17705SOL    HW255558   7.034   6.200   2.264 -1.2500  1.0981 -1.0824
17706SOL     OW55559   2.202   2.688   2.845  0.3099 -0.2403 -0.7366
17706SOL    HW155560   2.157   2.762   2.884 -1.1145 -0.8549 -1.1570
17706SOL    HW255561   2.289   2.721   2.823  0.4287  0.7079  0.9733
17707SOL     OW55562   7.506   2.153   2.161 -0.3262 -0.5898 -1.1320
17707SOL    HW155563   7.446   2.217   2.199 -1.3432 -1.5470 -1.0805
17707SOL    HW255564   7.588   2.201   2.150 -0.3546  0.0773  1.0700
17708SOL     OW55565  10.361   0.524   4.284 -0.1330 -0.4657 -0.0086
17708SOL    HW155566  10.338   0.547   4.194  1.0545 -0.3910 -0.3162
17708SOL    HW255567  10.375   0.429   4.281 -1.5987 -0.7166  0.4627
17709SOL     OW55568   0.823   6.675   6.986  0.1098  0.1416  0.4034
17709SOL    HW155569   0.786   6.729   7.056 -0.4656  0.1900  0.0648
17709SOL    HW255570   0.795   6.717   6.905  1.4116  0.5247  0.1285
17710SOL     OW55571   8.979   4.182   0.799  0.3624 -0.1539  0.1457
17710SOL    HW155572   9.015   4.214   0.717  0.2175  0.3441  0.2709
17710SOL    HW255573   8.944   4.261   0.842  1.0684 -0.2919  1.0075
17711SOL     OW55574   9.055   4.109   2.958  0.5217 -0.1897  0.0462
17711SOL    HW155575   9.054   4.099   2.863  1.3397  0.8818 -0.0811
17711SOL    HW255576   8.971   4.149   2.978  0.2406 -0.6495 -0.1922
17712SOL     OW55577   5.506   0.092   5.388 -0.2106 -0.8707  0.4197
17712SOL    HW155578   5.433   0.078   5.329 -0.5709  1.0275  0.3547
17712SOL    HW255579   5.466   0.097   5.475 -0.5244  2.2566  0.1905
17713SOL     OW55580   4.450  10.425   0.128  0.5965  0.1759 -0.0634
17713SOL    HW155581   4.479  10.467   0.047 -0.6427 -0.2647 -0.7643
17713SOL    HW255582   4.450  10.331   0.107  0.6360  0.0248  0.5828
17714SOL     OW55583   9.873   7.036   1.241  0.1866  0.3918 -0.1365
17714SOL    HW155584   9.815   6.961   1.231  0.7222 -0.1189  0.5167
17714SOL    HW255585   9.822   7.110   1.210 -0.8424 -0.0330  0.4926
17715SOL     OW55586   5.128   6.405   6.823  0.2546 -0.2964  0.4906
17715SOL    HW155587   5.199   6.467   6.840  0.4457  0.5327 -2.7586
17715SOL    HW255588   5.081   6.401   6.906  2.3788  1.3547  1.9090
17716SOL     OW55589   7.223   6.974   2.444 -0.1341  0.4182 -0.6516
17716SOL    HW155590   7.177   6.956   2.526 -0.7379 -0.8197 -1.2271
17716SOL    HW255591   7.198   6.901   2.386  0.9829  0.7885 -1.6397
17717SOL     OW55592   9.166   9.609   7.565 -0.4756 -0.1290 -0.0841
17717SOL    HW155593   9.073   9.588   7.572 -0.6105  0.2316 -0.7598
17717SOL    HW255594   9.202   9.587   7.651 -1.5505  1.5453  0.8616
17718SOL     OW55595   8.178   8.022   2.057 -0.2034 -0.4105  0.2253
17718SOL    HW155596   8.164   8.107   2.099 -0.8862 -0.2079 -0.3810
17718SOL    HW255597   8.266   8.028   2.020 -0.5755  0.3911 -0.5850
17719SOL     OW55598   1.117   3.883   9.139 -0.0876  0.7380 -0.1214
17719SOL    HW155599   1.197   3.843   9.172 -0.3502  0.1938 -0.1386
17719SOL    HW255600   1.093   3.831   9.062 -0.8104  0.4790  0.2655
17720SOL     OW55601   6.186  10.080   8.752  0.0793  0.0568 -0.0461
17720SOL    HW155602   6.223  10.115   8.834  0.7150  0.5289 -0.5252
17720SOL    HW255603   6.129  10.150   8.720  0.9127  0.4406 -0.7162
17721SOL     OW55604   1.527   0.329   2.353  0.3471 -0.2775  0.3866
17721SOL    HW155605   1.589   0.383   2.403 -0.6189  0.5678  0.7157
17721SOL    HW255606   1.451   0.386   2.339  0.4539 -0.6058 -1.7922
17722SOL     OW55607   0.146   5.634   6.248 -0.0148  0.6760 -0.2486
17722SOL    HW155608   0.183   5.592   6.326 -0.3875  3.5407  1.6257
17722SOL    HW255609   0.052   5.622   6.257 -0.1650  2.3276  0.6213
17723SOL     OW55610   4.827   0.672   2.593 -0.5921 -0.0100  0.0528
17723SOL    HW155611   4.751   0.620   2.621 -0.3583  0.2939  1.2733
17723SOL    HW255612   4.902   0.614   2.606 -0.4699  0.1629  0.1097
17724SOL     OW55613   5.747   2.049   4.846  0.3890  0.0411 -0.2309
17724SOL    HW155614   5.690   2.101   4.790 -1.7006  0.9758  2.5010
17724SOL    HW255615   5.767   2.107   4.920  1.5822 -1.6345  0.8254
17725SOL     OW55616   6.294   2.459   5.337 -0.0789  0.4409 -0.1073
17725SOL    HW155617   6.307   2.536   5.283  0.6666  0.1046 -0.4258
17725SOL    HW255618   6.382   2.429   5.358 -0.3285 -0.9605 -0.9071
17726SOL     OW55619   8.815   9.649   8.408 -0.0909 -0.2352  0.2171
17726SOL    HW155620   8.738   9.603   8.375 -1.9521  1.4812  1.8995
17726SOL    HW255621   8.864   9.581   8.455 -0.0754 -1.5314 -1.5674
17727SOL     OW55622   8.690   3.605   1.947  0.1250  0.0789  0.0478
17727SOL    HW155623   8.716   3.520   1.980 -0.5075  0.1018  0.6259
17727SOL    HW255624   8.771   3.657   1.945  0.7670 -0.9161 -1.5543
17728SOL     OW55625   2.069   1.273  10.040 -0.6212  0.1820 -0.0581
17728SOL    HW155626   2.086   1.364  10.015  1.9133  0.6693  2.7581
17728SOL    HW255627   2.114   1.221   9.974  0.6720  1.1256  0.0399
17729SOL     OW55628   7.605   2.195   9.981  0.2546 -0.4113 -0.3419
17729SOL    HW155629   7.693   2.206  10.016 -0.6589  0.8650  1.8105
17729SOL    HW255630   7.607   2.113   9.933  1.9925 -1.7264  1.8118
17730SOL     OW55631   0.290   6.123   5.359  0.1322 -0.1819 -0.0327
17730SOL    HW155632   0.328   6.074   5.286 -3.3149 -0.5821 -1.7761
17730SOL    HW255633   0.299   6.064   5.434  0.3357 -1.4697 -1.0265
17731SOL     OW55634   6.676   4.559   7.788  0.3968  0.4318 -0.7002
17731SOL    HW155635   6.615   4.590   7.856  1.0472 -1.6878  0.9700
17731SOL    HW255636   6.740   4.506   7.836  0.9830 -1.0603 -2.9652
17732SOL     OW55637   1.888   6.789   7.602  0.5504  0.3306  0.0691
17732SOL    HW155638   1.803   6.763   7.637  1.2751 -0.3922  1.3726
17732SOL    HW255639   1.911   6.719   7.542  0.3161  0.4409 -0.1538
17733SOL     OW55640   9.544   2.734   7.120 -0.5233  0.0456 -0.0973
17733SOL    HW155641   9.480   2.677   7.163  0.4498 -0.2903  0.9609
17733SOL    HW255642   9.493   2.784   7.056 -1.7125 -0.6990  0.2425
17734SOL     OW55643   4.490   5.517   8.704 -0.0554 -0.0604  0.3178
17734SOL    HW155644   4.533   5.586   8.755  0.7254 -1.0244  1.0126
17734SOL    HW255645   4.500   5.545   8.613 -2.0783  2.0354  0.6600
17735SOL     OW55646  10.236   0.521   4.953  0.0897  0.8124 -0.3654
17735SOL    HW155647  10.224   0.534   5.047  0.2193 -2.3401  0.1787
17735SOL    HW255648  10.180   0.447   4.931  0.5090  1.1046 -2.6838
17736SOL     OW55649   2.065   0.439   4.409  0.2492 -0.1277 -0.3191
17736SOL    HW155650   2.087   0.371   4.473 -0.6571 -0.7533 -0.6437
17736SOL    HW255651   2.146   0.489   4.399  0.4588 -0.0914  1.2035
17737SOL     OW55652   5.303   2.461   9.963  0.3820  0.1330  0.0956
17737SOL    HW155653   5.289   2.507  10.045  2.5699 -1.5615  1.5486
17737SOL    HW255654   5.371   2.511   9.918 -1.7812  1.8474 -1.4431
17738SOL     OW55655   7.928   1.664   2.189  0.5647 -0.3038  0.1481
17738SOL    HW155656   7.871   1.734   2.222 -1.6970 -1.6407 -0.6891
17738SOL    HW255657   7.930   1.678   2.095  0.0070 -1.3670 -0.0421
17739SOL     OW55658   5.202   9.294   0.635  0.5643  0.3925  0.0006
17739SOL    HW155659   5.184   9.358   0.703 -1.7052  0.7435 -0.8221
17739SOL    HW255660   5.285   9.254   0.660  0.8727  2.0207  1.7693
17740SOL     OW55661   9.171   1.292   1.999 -0.5899  0.3410  0.3014
17740SOL    HW155662   9.191   1.278   1.906  0.8260 -1.1489  0.7868
17740SOL    HW255663   9.223   1.369   2.023 -0.5069  0.3839 -0.0081
17741SOL     OW55664   2.068  10.449   0.243  0.6659  0.2543  0.0306
17741SOL    HW155665   2.161  10.452   0.222  0.6835  0.7980  0.1701
17741SOL    HW255666   2.064  10.443   0.338  0.5704  3.7778  0.3692
17742SOL     OW55667   6.833  10.409   7.939 -0.2872  0.3202 -0.3451
17742SOL    HW155668   6.813  10.463   7.862  1.4999  0.8796 -0.4473
17742SOL    HW255669   6.867  10.471   8.004 -1.2235 -0.2389  0.7178
17743SOL     OW55670   4.691  10.156   9.107 -1.2453 -0.0716  0.0258
17743SOL    HW155671   4.732  10.240   9.087 -2.6809  0.5282 -0.5534
17743SOL    HW255672   4.721  10.097   9.038  0.8071 -0.4422  1.1589
17744SOL     OW55673   8.778   4.235   9.097  0.3901 -0.3113 -0.0129
17744SOL    HW155674   8.715   4.302   9.124 -0.7555 -0.9633 -0.9956
17744SOL    HW255675   8.794   4.254   9.005  1.0278 -0.6511  0.0237
17745SOL     OW55676   5.222   0.757   3.401  0.5350 -0.2720 -0.3900
17745SOL    HW155677   5.232   0.664   3.424  1.5603 -0.7549 -2.5271
17745SOL    HW255678   5.311   0.789   3.390  0.1994  1.0756  0.5439
17746SOL     OW55679   1.586   7.924   4.203  0.0454  0.1585  0.0361
17746SOL    HW155680   1.675   7.960   4.207 -0.0343  0.3627 -0.0126
17746SOL    HW255681   1.582   7.862   4.275 -0.3593  1.4987  1.2114
17747SOL     OW55682   4.291   6.671   4.719  0.0075 -0.0555  0.1767
17747SOL    HW155683   4.300   6.759   4.755 -0.4273  1.3748 -2.8825
17747SOL    HW255684   4.197   6.657   4.709  0.1172 -0.1216 -0.9241
17748SOL     OW55685   3.308   4.915   5.496 -0.5935 -0.3122  0.2621
17748SOL    HW155686   3.338   4.858   5.426  0.8261  0.1631  0.4487
17748SOL    HW255687   3.313   5.003   5.459 -0.5359 -0.1184  0.7270
17749SOL     OW55688   9.319   8.396   7.738 -0.3284  0.7722  0.6273
17749SOL    HW155689   9.303   8.305   7.712  3.2967 -0.5768  2.5061
17749SOL    HW255690   9.289   8.401   7.829 -0.6831  1.5368  0.4750
17750SOL     OW55691   1.625   9.050   1.724 -0.0101 -0.1771  0.2802
17750SOL    HW155692   1.656   9.077   1.637 -1.5072 -0.7076 -0.4463
17750SOL    HW255693   1.592   9.130   1.764 -0.3238 -0.1185 -0.0892
17751SOL     OW55694   0.012   7.613   9.108  0.1278 -0.5546  0.0817
17751SOL    HW155695   0.066   7.602   9.186  1.0938 -2.3084 -0.7688
17751SOL    HW255696   0.006   7.707   9.096  0.2263 -0.2474  2.0757
17752SOL     OW55697   1.503   0.958   0.725  0.3455  0.1669  0.0886
17752SOL    HW155698   1.418   0.924   0.697 -0.7481  2.0882  0.8462
17752SOL    HW255699   1.563   0.884   0.717 -0.8835 -0.6657 -2.6554
17753SOL     OW55700   9.731   4.964   8.755  0.0376  0.0563  0.1431
17753SOL    HW155701   9.653   4.969   8.700 -0.5815 -1.8253  0.7872
17753SOL    HW255702   9.697   4.952   8.843  1.0550  1.6609  0.8044
17754SOL     OW55703   0.458   0.583   9.225  0.3719  0.2866 -0.0219
17754SOL    HW155704   0.413   0.517   9.172 -0.0383 -0.6114  1.4152
17754SOL    HW255705   0.443   0.557   9.315 -0.2668  2.6441  0.6402
17755SOL     OW55706   4.644   3.932   5.948  0.0698  0.4482 -0.3436
17755SOL    HW155707   4.593   3.864   5.904  1.0883 -0.9284  0.5323
17755SOL    HW255708   4.578   3.983   5.996 -0.5832 -0.8822  0.2279
17756SOL     OW55709   1.968   6.566   7.120 -0.2737  0.1314  0.1175
17756SOL    HW155710   1.944   6.477   7.147 -0.7869  0.4454  0.7387
17756SOL    HW255711   1.948   6.620   7.197  0.5685  0.7039 -0.0598
17757SOL     OW55712   8.798   6.632   6.435  0.3297  0.7098  0.1290
17757SOL    HW155713   8.703   6.633   6.422  0.1163  1.7756  1.5045
17757SOL    HW255714   8.811   6.579   6.513  1.0117 -0.5349 -0.7955
17758SOL     OW55715   0.474   1.773   3.160  0.0557  0.2859  0.6191
17758SOL    HW155716   0.557   1.727   3.169 -1.0795 -2.4155 -1.1923
17758SOL    HW255717   0.410   1.715   3.202 -1.2005  1.2071  0.0585
17759SOL     OW55718   3.358   1.852   1.068 -0.0487  0.0316  0.7084
17759SOL    HW155719   3.278   1.887   1.029 -0.6094 -0.6185  1.2333
17759SOL    HW255720   3.395   1.925   1.117  0.3065  0.6664 -0.4597
17760SOL     OW55721   3.280   3.184   9.033 -0.5988 -0.5761  0.0873
17760SOL    HW155722   3.220   3.189   8.958 -1.8916  0.5500  1.1489
17760SOL    HW255723   3.261   3.263   9.084  2.1929  0.1324  0.2076
17761SOL     OW55724   3.829   4.220   8.775  0.0119 -0.0613  0.3747
17761SOL    HW155725   3.765   4.173   8.722 -0.0736 -1.7407  1.8693
17761SOL    HW255726   3.777   4.276   8.832  0.0240  0.4742 -0.1287
17762SOL     OW55727   5.336   4.326   6.757 -0.1223 -0.3338 -0.1478
17762SOL    HW155728   5.429   4.308   6.741 -0.3804 -1.3611 -0.5568
17762SOL    HW255729   5.335   4.368   6.843  0.6332 -1.3425  0.3804
17763SOL     OW55730   9.852   6.055   5.307  0.5464 -0.3709 -0.3222
17763SOL    HW155731   9.941   6.061   5.273  1.3518 -1.0316  1.5406
17763SOL    HW255732   9.852   5.975   5.360 -0.7772  0.2868  0.7375
17764SOL     OW55733   7.119   9.856  10.150 -0.0965  0.4995 -0.2240
17764SOL    HW155734   7.139   9.777  10.200 -0.0361  0.1526 -0.7816
17764SOL    HW255735   7.205   9.895  10.131 -0.0689  0.2173 -0.7037
17765SOL     OW55736   8.047   0.024  10.166 -0.1452 -0.0502 -0.2110
17765SOL    HW155737   8.076   0.113  10.190 -0.2505  0.0691 -0.5156
17765SOL    HW255738   8.009  -0.011  10.246 -0.6649  0.4085 -0.2493
17766SOL     OW55739   4.293   6.033   5.306 -0.1674  0.0638 -0.5097
17766SOL    HW155740   4.200   6.016   5.290 -0.1847 -0.6202  0.2432
17766SOL    HW255741   4.338   5.959   5.264  0.0014  0.0891 -0.3742
17767SOL     OW55742   8.361   7.760   0.946 -0.1596  0.2126 -0.2633
17767SOL    HW155743   8.390   7.782   0.858 -0.1438  0.9716 -0.0796
17767SOL    HW255744   8.284   7.814   0.960 -1.2089 -1.1968 -0.4474
17768SOL     OW55745   8.692   6.438   1.013  0.1492 -0.6690  0.4339
17768SOL    HW155746   8.626   6.371   1.029 -0.8129  0.0598 -0.3480
17768SOL    HW255747   8.661   6.514   1.061 -0.4776  0.1773 -1.2181
17769SOL     OW55748   4.271   7.804   2.402 -0.2321 -0.0598  0.0442
17769SOL    HW155749   4.295   7.837   2.316  0.1311 -0.1597  0.1023
17769SOL    HW255750   4.313   7.865   2.463  1.9051 -1.5530  0.1762
17770SOL     OW55751   4.717   0.162   3.581 -0.1048  0.1947  0.2136
17770SOL    HW155752   4.681   0.188   3.496  0.5767  1.7361  0.3692
17770SOL    HW255753   4.807   0.137   3.562  0.1674  0.9172  0.5229
17771SOL     OW55754   4.963   0.057   4.880  0.3804 -0.2659  0.5299
17771SOL    HW155755   4.946  -0.024   4.832 -1.2474 -0.1143  0.7956
17771SOL    HW255756   5.057   0.072   4.870  0.7458 -2.2677  0.6245
17772SOL     OW55757   5.339   6.730   9.852  0.1858 -0.0573 -0.4234
17772SOL    HW155758   5.351   6.646   9.806 -0.4106 -0.2719 -0.1966
17772SOL    HW255759   5.244   6.740   9.858  0.1693 -1.0251  2.5451
17773SOL     OW55760   3.469  10.394   0.886  0.1942 -0.0163  0.2092
17773SOL    HW155761   3.470  10.386   0.981  3.3097  2.2323  0.4923
17773SOL    HW255762   3.417  10.472   0.869 -2.4999 -1.7514 -0.2639
17774SOL     OW55763   1.472   9.840   7.730 -0.3150 -0.6987  0.3600
17774SOL    HW155764   1.491   9.793   7.648 -0.3036  1.3306 -0.8584
17774SOL    HW255765   1.557   9.874   7.758 -0.9372  2.9800 -1.6577
17775SOL     OW55766   7.391   2.276   0.085  0.4912 -0.2022  0.0119
17775SOL    HW155767   7.410   2.224   0.163 -1.0458 -1.4430 -0.3806
17775SOL    HW255768   7.474   2.319   0.063  1.1233 -0.3991  1.8909
17776SOL     OW55769   6.961   5.374   6.293  0.1179  0.4598 -0.5071
17776SOL    HW155770   6.887   5.313   6.290  0.2643  0.3092 -1.3682
17776SOL    HW255771   7.036   5.320   6.268  0.6970  0.3846  1.2542
17777SOL     OW55772   5.700   7.542   3.380  0.2817  0.1701  0.2438
17777SOL    HW155773   5.628   7.559   3.319  1.3725  0.5209 -1.0110
17777SOL    HW255774   5.672   7.580   3.463 -0.7786  0.7123 -0.3507
17778SOL     OW55775   8.229   3.289   1.995 -0.0637 -0.2028  0.0848
17778SOL    HW155776   8.173   3.327   1.928  1.3964  1.2887 -0.3727
17778SOL    HW255777   8.200   3.198   2.003 -0.0657 -0.5460 -2.8343
17779SOL     OW55778   5.397   7.243  10.376 -0.2763  0.4976 -0.6926
17779SOL    HW155779   5.320   7.221  10.430 -0.6341  1.0322 -0.9789
17779SOL    HW255780   5.470   7.201  10.421 -0.5190  1.2167  0.3924
17780SOL     OW55781   1.081   6.521   3.574 -0.0454  0.1739  0.6263
17780SOL    HW155782   1.083   6.426   3.570  1.3538  0.1530  1.3357
17780SOL    HW255783   0.988   6.543   3.584 -0.5291 -1.0244 -0.9649
17781SOL     OW55784   8.492   6.284   4.514 -0.0302 -0.4077 -0.2796
17781SOL    HW155785   8.587   6.286   4.527  0.1600  0.8015 -1.6136
17781SOL    HW255786   8.461   6.213   4.571  1.4116  0.5299  1.8077
17782SOL     OW55787   9.729   5.978   7.980 -0.2478 -0.2827  0.3408
17782SOL    HW155788   9.773   6.036   7.917  0.5429  1.2700  2.2299
17782SOL    HW255789   9.636   5.999   7.969 -0.5090 -2.3312 -2.4441
17783SOL     OW55790   1.770   0.817   8.147  0.3653  0.1922  0.5462
17783SOL    HW155791   1.675   0.818   8.153  0.3750  0.6268  0.6416
17783SOL    HW255792   1.795   0.729   8.176 -0.0754 -0.3729 -0.7069
17784SOL     OW55793   8.571   0.517   7.798 -0.2506 -0.0557  0.2011
17784SOL    HW155794   8.602   0.508   7.708  0.0745 -1.3652  0.4184
17784SOL    HW255795   8.610   0.599   7.829 -0.9084  0.7623 -1.0454
17785SOL     OW55796   7.908   0.535   4.528  0.0081  0.0106 -0.0647
17785SOL    HW155797   7.919   0.533   4.623 -1.3861  2.1051  0.2231
17785SOL    HW255798   7.813   0.533   4.515  0.1967 -1.0673 -1.4666
17786SOL     OW55799   1.060   3.833   6.028  0.3935 -0.3045 -0.4887
17786SOL    HW155800   0.964   3.825   6.027  0.3377 -0.7865 -3.8654
17786SOL    HW255801   1.077   3.921   6.060 -1.1471 -0.3869  0.6424
17787SOL     OW55802   3.886   0.519   6.306  0.1625  0.7688  0.0927
17787SOL    HW155803   3.844   0.553   6.227 -1.7782  2.1387  1.6375
17787SOL    HW255804   3.966   0.570   6.315  1.2258 -0.4626 -1.7766
17788SOL     OW55805   2.718   4.665   9.592 -0.3832 -0.4569 -0.4796
17788SOL    HW155806   2.747   4.756   9.598  0.3082 -0.7553  2.3363
17788SOL    HW255807   2.622   4.670   9.593 -0.3994  0.2720 -2.4799
17789SOL     OW55808   1.287   3.790   3.902 -0.2901  0.5709 -0.1209
17789SOL    HW155809   1.202   3.808   3.863 -0.2494  0.1734 -0.3958
17789SOL    HW255810   1.317   3.710   3.859 -1.0109 -0.8766  1.8914
17790SOL     OW55811   2.777   5.816   5.177  0.3950  0.0091 -0.6384
17790SOL    HW155812   2.854   5.852   5.221  0.3009 -0.2927 -0.2194
17790SOL    HW255813   2.761   5.876   5.105  0.6214  0.4562 -0.3241
17791SOL     OW55814   9.222   5.412   8.503  0.5856  0.3780  0.5429
17791SOL    HW155815   9.227   5.392   8.410  0.2313 -0.1616  0.6360
17791SOL    HW255816   9.292   5.476   8.518  1.6748 -0.7025  0.2152
17792SOL     OW55817   3.841   8.140   5.269  0.1038 -0.0894 -0.0731
17792SOL    HW155818   3.860   8.223   5.314  0.7609  0.5848 -1.5086
17792SOL    HW255819   3.747   8.129   5.278 -0.0239  0.9225  0.0210
17793SOL     OW55820   7.842   7.686   0.442  0.5075  0.7269  0.2637
17793SOL    HW155821   7.763   7.730   0.410  0.7353  0.5190 -0.6042
17793SOL    HW255822   7.846   7.710   0.534 -0.4520  0.9171  0.2715
17794SOL     OW55823  10.334   3.868   7.046  0.2096 -0.4104  0.1387
17794SOL    HW155824  10.256   3.869   6.989  0.5755  0.4930 -0.3805
17794SOL    HW255825  10.407   3.855   6.986  0.4269 -1.8421  0.6950
17795SOL     OW55826   9.570   3.933   1.742  0.7005 -0.2847  0.2482
17795SOL    HW155827   9.583   3.987   1.820  1.1207  1.0087 -0.6719
17795SOL    HW255828   9.517   3.987   1.684  0.3669 -1.2364 -0.3537
17796SOL     OW55829   8.258   5.223   3.893 -0.0306 -0.0253  0.4370
17796SOL    HW155830   8.333   5.217   3.952 -1.4390  0.0067  2.3026
17796SOL    HW255831   8.296   5.210   3.805  1.9446 -1.4035  1.4173
17797SOL     OW55832   5.555   7.859   3.393 -0.5205 -0.4312 -0.2396
17797SOL    HW155833   5.632   7.821   3.435 -0.0727 -1.1530 -1.6552
17797SOL    HW255834   5.485   7.850   3.459  0.4793 -0.1655  0.8898
17798SOL     OW55835   7.546   5.569   5.143  0.0078  0.3735  0.4108
17798SOL    HW155836   7.509   5.495   5.192 -1.5574  0.5661 -0.4199
17798SOL    HW255837   7.471   5.608   5.098  1.2162  0.9439 -1.1821
17799SOL     OW55838   4.602   5.880   1.479  0.1092 -0.5967  0.3164
17799SOL    HW155839   4.545   5.956   1.483  1.4343  0.4388  0.1197
17799SOL    HW255840   4.682   5.911   1.436  0.8110 -2.0078  0.5243
17800SOL     OW55841   5.417   6.140   9.436 -0.5855 -0.2618  0.0191
17800SOL    HW155842   5.489   6.114   9.378 -0.5423  0.9739 -0.5216
17800SOL    HW255843   5.460   6.191   9.505 -0.8327 -0.3316  0.2246
17801SOL     OW55844   7.130   1.508   1.738 -0.1889  0.6240 -0.5822
17801SOL    HW155845   7.041   1.544   1.729 -1.2283 -1.2845  1.1085
17801SOL    HW255846   7.168   1.517   1.651 -1.9465  1.6881 -1.3169
17802SOL     OW55847   0.666   9.235   6.331 -0.1133 -0.5702  0.2956
17802SOL    HW155848   0.619   9.293   6.272  0.5833 -0.0262  0.2568
17802SOL    HW255849   0.691   9.160   6.278 -1.1235 -0.9696  0.3747
17803SOL     OW55850   5.632   5.551   2.793 -0.1113  0.0215 -0.2002
17803SOL    HW155851   5.560   5.533   2.853  0.1879 -0.4629  0.0237
17803SOL    HW255852   5.667   5.635   2.822 -1.2353  0.7806 -0.9636
17804SOL     OW55853   0.949   5.719   2.477  0.1027 -0.3775 -0.1785
17804SOL    HW155854   0.994   5.800   2.454 -0.8656  0.0851 -0.4777
17804SOL    HW255855   0.981   5.698   2.565  0.1860  0.4531 -0.0007
17805SOL     OW55856   8.798   0.260   8.210  0.5542  0.0834  0.0095
17805SOL    HW155857   8.774   0.300   8.294  1.5223  0.3364  0.1730
17805SOL    HW255858   8.757   0.173   8.213 -2.5080  1.3950 -0.8141
17806SOL     OW55859   6.404   8.676   7.611  0.6171  0.4280 -0.1037
17806SOL    HW155860   6.452   8.703   7.533 -2.3090  1.4446 -1.7171
17806SOL    HW255861   6.404   8.753   7.668  0.9548  0.3871 -0.0472
17807SOL     OW55862   5.941   0.021   5.002 -0.0940  0.4535 -0.2352
17807SOL    HW155863   5.919  -0.056   4.949  0.0062  0.7456 -0.7125
17807SOL    HW255864   6.014  -0.007   5.056  0.7503  0.5615 -1.2819
17808SOL     OW55865   3.918   1.188   2.421 -0.5112 -0.1626 -0.0651
17808SOL    HW155866   3.914   1.108   2.474 -2.5183  0.6105  1.0683
17808SOL    HW255867   3.990   1.239   2.459  0.2501 -1.0459 -0.2789
17809SOL     OW55868   6.128  10.280   0.065 -0.4743  0.0149 -0.1115
17809SOL    HW155869   6.071  10.236   0.128  0.3943  0.1300  0.7751
17809SOL    HW255870   6.123  10.225  -0.013  1.5891 -2.5065  1.3605
17810SOL     OW55871   5.561   6.969   6.936  0.0852 -0.1898  0.2481
17810SOL    HW155872   5.517   6.940   7.016 -1.1887  2.3070  0.5443
17810SOL    HW255873   5.634   7.023   6.966 -0.9741  1.5643 -0.2017
17811SOL     OW55874   4.331   9.939   3.406  0.1841 -0.0680 -0.0063
17811SOL    HW155875   4.379  10.020   3.391 -0.3580  0.4934  1.1300
17811SOL    HW255876   4.390   9.885   3.458  0.0620  0.1286  0.3425
17812SOL     OW55877   7.535   7.640   8.335 -0.2655 -0.3529  0.2632
17812SOL    HW155878   7.548   7.712   8.396 -2.3224  1.7040 -1.5680
17812SOL    HW255879   7.441   7.626   8.333 -0.1636 -1.0998 -1.6095
17813SOL     OW55880   5.590   4.509   5.002 -0.0674  0.6631 -0.4680
17813SOL    HW155881   5.509   4.478   5.042  0.6459  0.6676  1.0308
17813SOL    HW255882   5.606   4.448   4.930 -1.3485  0.6289 -0.7498
17814SOL     OW55883   7.950   3.122   5.151 -0.1989  0.3813  0.4163
17814SOL    HW155884   7.974   3.070   5.228 -1.9157  0.0988  0.7911
17814SOL    HW255885   7.856   3.105   5.139  0.0774  0.1861 -1.9124
17815SOL     OW55886   2.237   0.435   5.508 -0.2201 -0.5298 -0.0175
17815SOL    HW155887   2.328   0.454   5.486 -0.2780  0.5169  0.6095
17815SOL    HW255888   2.235   0.340   5.522  1.0354 -0.4082  1.1419
17816SOL     OW55889   3.400   8.040   4.351  0.2353  0.0000 -0.7268
17816SOL    HW155890   3.381   7.948   4.366  0.8128 -0.0080  0.0090
17816SOL    HW255891   3.352   8.061   4.271 -0.4912 -0.7413 -0.5054
17817SOL     OW55892   2.631   7.298   3.921 -0.1786  0.3987  0.3136
17817SOL    HW155893   2.555   7.275   3.868  0.4686 -0.1958 -0.3921
17817SOL    HW255894   2.643   7.392   3.907 -0.8138  0.5070  0.4805
17818SOL     OW55895   1.181   0.717   0.392 -0.1458  0.3086  0.3737
17818SOL    HW155896   1.192   0.689   0.301 -0.3697 -0.6869  0.6308
17818SOL    HW255897   1.147   0.806   0.386 -2.0221 -0.3998 -0.5734
17819SOL     OW55898   5.477  10.281   0.033  1.1126 -0.5118 -0.5778
17819SOL    HW155899   5.543  10.350   0.027  1.4053 -0.5722  1.2901
17819SOL    HW255900   5.484  10.249   0.123 -0.3781 -1.6191 -0.8155
17820SOL     OW55901   7.345   9.453   9.520 -0.2459  0.0230  0.1921
17820SOL    HW155902   7.302   9.470   9.436 -2.9295 -1.1799  1.2294
17820SOL    HW255903   7.390   9.369   9.508 -0.0821  0.1658 -0.2082
17821SOL     OW55904   1.179   3.673   8.410 -0.0614  0.6251  0.1613
17821SOL    HW155905   1.264   3.646   8.446  0.3365  0.0480 -1.1620
17821SOL    HW255906   1.153   3.748   8.465  1.7481  1.4254  0.0144
17822SOL     OW55907   3.761   4.791   4.725 -1.1592 -0.1851 -0.1064
17822SOL    HW155908   3.803   4.713   4.691  0.0002 -0.2932  1.4662
17822SOL    HW255909   3.669   4.766   4.736 -0.8935 -1.1744 -0.0476
17823SOL     OW55910   1.327   2.900   6.313 -0.3795 -0.7185 -0.0882
17823SOL    HW155911   1.415   2.932   6.291 -1.2512 -0.0006 -3.0390
17823SOL    HW255912   1.328   2.889   6.408  1.6256  3.1725  0.5427
17824SOL     OW55913   4.731  10.457   5.750 -0.3234  0.5322  0.0623
17824SOL    HW155914   4.637  10.468   5.732 -0.7203  2.2810  2.6109
17824SOL    HW255915   4.740  10.365   5.775 -1.0816  0.0155 -1.4606
17825SOL     OW55916   4.571   0.077  10.413  0.9450 -0.3998 -0.2620
17825SOL    HW155917   4.614   0.109  10.334  3.0970 -1.4604  0.4002
17825SOL    HW255918   4.619  -0.003  10.436  0.2677 -0.2351  1.9986
17826SOL     OW55919   5.991   2.813   6.074 -0.1692  0.0998  0.3230
17826SOL    HW155920   5.969   2.749   6.142  0.0846 -0.7934 -0.4119
17826SOL    HW255921   5.908   2.833   6.032 -0.3277  0.6617  0.9015
17827SOL     OW55922   0.957   4.096   8.585  0.8053  0.1415  0.0550
17827SOL    HW155923   1.007   4.140   8.654 -0.8130  2.7329 -0.3074
17827SOL    HW255924   0.899   4.163   8.551 -2.0561 -2.3569 -0.4128
17828SOL     OW55925   0.530   1.229   5.916 -0.7636  0.2631  0.2991
17828SOL    HW155926   0.544   1.321   5.940  0.7050  0.8876 -2.5274
17828SOL    HW255927   0.439   1.226   5.886  0.0066  1.6579 -2.5278
17829SOL     OW55928   0.559   4.298   2.336  0.6212 -0.0613  0.2561
17829SOL    HW155929   0.493   4.336   2.394  0.5099 -0.5480  0.4523
17829SOL    HW255930   0.631   4.361   2.338 -0.5008  1.3711 -1.3258
17830SOL     OW55931   9.855   6.188   3.696  0.2593  0.7597  0.6028
17830SOL    HW155932   9.825   6.156   3.611 -1.3589  0.3579  1.2972
17830SOL    HW255933   9.944   6.219   3.679  0.8962 -1.5320 -0.7187
17831SOL     OW55934   5.753   1.715   3.348 -0.4041 -0.2022 -0.0180
17831SOL    HW155935   5.700   1.794   3.362 -1.4369 -0.5669 -1.6040
17831SOL    HW255936   5.800   1.732   3.266  2.9739  0.5934  1.9058
17832SOL     OW55937   7.236   9.909   4.557  0.0150 -0.4493 -0.3567
17832SOL    HW155938   7.226   9.886   4.649 -0.0775 -1.4866 -0.6076
17832SOL    HW255939   7.317   9.960   4.553 -1.0173  1.3634  0.5763
17833SOL     OW55940   7.691   2.770   7.954  0.4238 -0.1555 -0.0458
17833SOL    HW155941   7.696   2.702   7.887  0.2449  0.0365 -0.2545
17833SOL    HW255942   7.661   2.848   7.907 -1.2277 -0.4098  0.5418
17834SOL     OW55943   1.201   4.765   4.508 -0.3717  0.3579 -0.4534
17834SOL    HW155944   1.291   4.739   4.488 -0.3563  0.6721 -0.8044
17834SOL    HW255945   1.186   4.734   4.598 -0.0645 -0.0826 -0.5506
17835SOL     OW55946   6.204   5.638   5.657  0.0610 -0.2120  0.5674
17835SOL    HW155947   6.206   5.729   5.684 -0.6899 -0.5829  1.9791
17835SOL    HW255948   6.126   5.631   5.601  1.6933  0.5852 -2.0007
17836SOL     OW55949   0.814   4.122   6.367 -0.2831 -0.1297  0.1841
17836SOL    HW155950   0.902   4.148   6.337  0.9330 -3.1394  0.8057
17836SOL    HW255951   0.763   4.116   6.286 -0.4816  3.1636 -0.0659
17837SOL     OW55952   3.266   3.581   6.713  0.2149  0.1190  0.1971
17837SOL    HW155953   3.288   3.572   6.805  0.2672  0.5138  0.2219
17837SOL    HW255954   3.179   3.621   6.712 -0.3272 -1.0086  0.0911
17838SOL     OW55955   7.163   2.776   0.214 -0.7971 -0.3094 -0.4710
17838SOL    HW155956   7.231   2.747   0.153 -0.9157  0.1538 -0.8300
17838SOL    HW255957   7.191   2.743   0.299 -1.0294 -1.6521 -0.8922
17839SOL     OW55958   3.649   9.330   9.400  0.2836  0.2313 -0.0191
17839SOL    HW155959   3.616   9.362   9.484  0.4878 -0.5956  0.3838
17839SOL    HW255960   3.670   9.410   9.351  2.4554  0.7806  1.6337
17840SOL     OW55961   5.972   2.606   2.146 -0.6949 -0.3513  0.1018
17840SOL    HW155962   5.970   2.609   2.242 -0.9759  0.8892  0.0762
17840SOL    HW255963   5.926   2.525   2.124  1.9940 -2.2705  1.0545
17841SOL     OW55964   7.070   6.562   7.150 -0.0738 -0.6630 -0.4041
17841SOL    HW155965   7.006   6.586   7.217  0.0251  2.4723 -1.3023
17841SOL    HW255966   7.133   6.634   7.150  2.1083 -2.4302 -1.2903
17842SOL     OW55967   9.996   5.024   5.578  0.3072 -0.0151  0.2402
17842SOL    HW155968  10.040   4.994   5.657  0.5490  1.4517  0.6888
17842SOL    HW255969  10.062   5.073   5.530 -0.2102  0.2964 -0.1715
17843SOL     OW55970   5.700   0.688   0.169 -0.1643 -0.7952 -0.2904
17843SOL    HW155971   5.615   0.659   0.203 -0.7821 -0.0557 -1.1621
17843SOL    HW255972   5.702   0.782   0.190  1.1130 -1.0871  1.0733
17844SOL     OW55973   7.104   7.767   4.256 -0.0571  0.4405  0.0171
17844SOL    HW155974   7.188   7.807   4.232 -0.6227  1.8852  0.3820
17844SOL    HW255975   7.038   7.831   4.229 -1.0104 -0.2943  0.5378
17845SOL     OW55976   3.092   2.556  10.408  0.4258 -0.3094  0.1840
17845SOL    HW155977   3.153   2.582  10.477  0.6190 -0.7680  0.1916
17845SOL    HW255978   3.007   2.587  10.439  0.7225  0.8179 -0.0836
17846SOL     OW55979   3.124   3.041   0.858  0.1254 -0.4010 -0.2712
17846SOL    HW155980   3.110   2.995   0.775  0.1386 -0.2123 -0.3797
17846SOL    HW255981   3.214   3.021   0.882  0.2220 -0.2042 -0.4628
17847SOL     OW55982   3.375   8.961   4.410 -0.3395  0.0493  0.0780
17847SOL    HW155983   3.430   8.948   4.334  1.8757 -0.4764  1.6661
17847SOL    HW255984   3.376   9.056   4.425 -1.7039  0.2905 -1.1215
17848SOL     OW55985   9.530   8.628  10.137  0.5593  0.1324 -0.4189
17848SOL    HW155986   9.496   8.538  10.140 -0.3705  0.4612 -0.7238
17848SOL    HW255987   9.624   8.617  10.123  0.7004 -0.8148  0.9819
17849SOL     OW55988   0.697   1.821   4.557  0.0463  0.0397 -0.3824
17849SOL    HW155989   0.759   1.749   4.572 -0.9003 -0.7121  0.0675
17849SOL    HW255990   0.722   1.888   4.621 -0.2287 -0.6823  0.4999
17850SOL     OW55991   4.611   1.585   7.490  0.1919  0.6396 -0.1764
17850SOL    HW155992   4.593   1.505   7.440  0.6013  0.9115 -0.7748
17850SOL    HW255993   4.654   1.643   7.427 -0.9460  1.6941 -0.0080
17851SOL     OW55994   2.978   5.419   3.389  0.3257  0.0441 -0.1127
17851SOL    HW155995   2.885   5.406   3.408  0.2750 -1.2698 -1.1439
17851SOL    HW255996   3.021   5.344   3.430  0.7766 -0.0536 -0.7572
17852SOL     OW55997   5.972   3.132   9.151 -0.3193 -0.7095 -0.5328
17852SOL    HW155998   6.021   3.050   9.158  0.4531 -0.2085  0.0744
17852SOL    HW255999   6.004   3.185   9.223 -2.3300 -0.6415  0.3620
17853SOL     OW56000   9.943   6.797   4.998 -0.6888  0.2297 -0.0545
17853SOL    HW156001   9.872   6.846   4.957  0.2556  0.4163 -1.5418
17853SOL    HW256002  10.023   6.833   4.959  0.0862 -1.8533 -0.5256
17854SOL     OW56003   2.314   0.607  10.292  0.0850  0.0862  0.1570
17854SOL    HW156004   2.365   0.526  10.297 -1.8316 -1.3598 -2.1060
17854SOL    HW256005   2.223   0.579  10.294 -0.6400  2.1101 -1.4082
17855SOL     OW56006   3.930   2.715   2.332 -1.0212 -0.2359  0.2740
17855SOL    HW156007   3.906   2.698   2.423  0.4446 -0.3746  0.6684
17855SOL    HW256008   3.864   2.776   2.301 -1.7733 -0.4889  1.3139
17856SOL     OW56009   2.824   0.140   6.811 -0.2629  0.2052  0.4836
17856SOL    HW156010   2.777   0.221   6.828 -1.9492 -0.6845  0.2167
17856SOL    HW256011   2.765   0.071   6.840 -0.0587 -1.0436 -1.8323
17857SOL     OW56012   9.503   6.655   9.892 -0.5243 -0.0841 -0.5967
17857SOL    HW156013   9.427   6.706   9.864  0.2905  1.7339  0.3231
17857SOL    HW256014   9.492   6.645   9.986  1.0186  1.4440 -0.1969
17858SOL     OW56015   7.593   7.411   6.182  0.2625  0.3121 -0.0272
17858SOL    HW156016   7.571   7.416   6.275 -1.1024 -0.6354 -0.2696
17858SOL    HW256017   7.537   7.476   6.140  0.9868  0.8487 -0.1949
17859SOL     OW56018   1.362   6.254   2.455 -0.4593 -0.6512 -0.2361
17859SOL    HW156019   1.449   6.294   2.459 -0.0880 -1.5377  1.6893
17859SOL    HW256020   1.367   6.194   2.380 -0.1176  0.7881 -1.4132
17860SOL     OW56021   5.148   4.940   4.150  0.4106 -0.3264 -0.6664
17860SOL    HW156022   5.184   5.004   4.212  0.2414  0.1351 -1.0354
17860SOL    HW256023   5.166   4.855   4.190 -0.3069 -0.0246  0.3577
17861SOL     OW56024   7.956   5.516   6.437  0.6428  0.3848  0.1714
17861SOL    HW156025   7.915   5.458   6.373 -0.5126  0.6808  0.6054
17861SOL    HW256026   7.986   5.458   6.507  2.7282 -0.0402 -0.9994
17862SOL     OW56027   3.240   7.420   1.215  0.2461 -0.2618 -0.1366
17862SOL    HW156028   3.213   7.370   1.138 -0.0087 -1.7333  0.8624
17862SOL    HW256029   3.184   7.498   1.214 -0.9135 -1.0648 -0.5466
17863SOL     OW56030   6.614   6.252   4.727  0.5428  0.3953  0.0924
17863SOL    HW156031   6.590   6.248   4.820  0.1746 -1.0753 -0.0434
17863SOL    HW256032   6.532   6.234   4.681  1.4117 -2.7107 -0.4159
17864SOL     OW56033   1.068   8.185   0.659  0.2838 -0.1450 -0.0437
17864SOL    HW156034   1.050   8.210   0.749  1.7092  1.9087 -0.2713
17864SOL    HW256035   1.003   8.117   0.640  0.1359 -0.8463  2.5862
17865SOL     OW56036   5.410   9.571   3.154  0.4102  0.2864  0.5058
17865SOL    HW156037   5.359   9.633   3.205 -1.1679 -0.1626 -0.4806
17865SOL    HW256038   5.463   9.525   3.219  1.4777  2.4778  1.2791
17866SOL     OW56039   2.040   9.109   2.460  0.1412 -0.0464  0.6450
17866SOL    HW156040   2.057   9.121   2.367  1.3527  1.1215  0.9912
17866SOL    HW256041   1.955   9.065   2.463 -0.3037  0.6233 -0.9766
17867SOL     OW56042   6.498   9.274   3.644  0.1492  0.0972 -0.3262
17867SOL    HW156043   6.556   9.284   3.568 -0.5554 -0.6102 -0.9859
17867SOL    HW256044   6.458   9.187   3.632  0.1857 -0.1230  0.9789
17868SOL     OW56045   4.221   2.067   5.243 -0.2310 -0.5148  0.0685
17868SOL    HW156046   4.261   1.990   5.202  0.4543  0.2343 -0.7166
17868SOL    HW256047   4.281   2.091   5.313 -0.4618 -0.7161  0.3350
17869SOL     OW56048   7.612   8.671   3.107 -0.2429  0.0595 -0.5696
17869SOL    HW156049   7.579   8.582   3.125  0.5184  0.1971  1.9362
17869SOL    HW256050   7.687   8.657   3.049  1.6759 -1.3352  2.0161
17870SOL     OW56051   3.033   3.740   1.566 -0.0509 -0.5289 -0.6017
17870SOL    HW156052   2.948   3.781   1.576 -0.0211 -0.5774 -0.1024
17870SOL    HW256053   3.077   3.790   1.498  0.2927  0.7937  0.5562
17871SOL     OW56054   0.680   1.789   8.609 -0.5846  0.2251  0.4960
17871SOL    HW156055   0.694   1.700   8.577 -0.3369  0.1612  0.7776
17871SOL    HW256056   0.611   1.825   8.552 -1.4484 -0.5078  1.0554
17872SOL     OW56057   0.522   8.194   0.868  0.1064 -0.4142  0.4421
17872SOL    HW156058   0.430   8.172   0.858  0.2597 -0.8464 -0.0689
17872SOL    HW256059   0.525   8.252   0.945 -0.5739 -0.4544  0.5038
17873SOL     OW56060   7.308   2.095   4.741  0.1110  0.2583 -0.6604
17873SOL    HW156061   7.335   2.148   4.665 -1.6633 -0.7419 -2.0814
17873SOL    HW256062   7.300   2.006   4.706 -1.2633 -0.1419  0.5723
17874SOL     OW56063   5.967   5.100   4.030  0.1054  0.2109 -0.3859
17874SOL    HW156064   6.004   5.182   4.061  1.4100 -0.9615  1.4232
17874SOL    HW256065   6.029   5.033   4.062 -0.2882 -1.3958 -2.7707
17875SOL     OW56066   0.323   3.554   8.714  0.4327 -0.4120 -0.5187
17875SOL    HW156067   0.301   3.577   8.804  0.4991 -1.2393 -0.2857
17875SOL    HW256068   0.416   3.575   8.706 -0.2326  2.7633 -1.4048
17876SOL     OW56069   4.564   3.815   5.354 -0.0547  0.6025 -0.1109
17876SOL    HW156070   4.612   3.819   5.437  2.4387 -1.0180 -1.3226
17876SOL    HW256071   4.514   3.896   5.351  1.2093  1.5623  2.1572
17877SOL     OW56072   8.197  10.175   1.209 -0.0884  0.3033 -0.5670
17877SOL    HW156073   8.123  10.127   1.170 -0.5265  1.5881 -1.3740
17877SOL    HW256074   8.176  10.179   1.302 -0.4755 -0.3157 -0.6219
17878SOL     OW56075   3.387   5.293   8.118 -0.6834  0.0072 -0.4879
17878SOL    HW156076   3.312   5.240   8.143 -0.3322 -1.3996 -2.1847
17878SOL    HW256077   3.411   5.340   8.197 -2.3087 -0.7801  0.5286
17879SOL     OW56078   5.654   2.197   7.746 -0.1043 -0.6511  0.0951
17879SOL    HW156079   5.618   2.122   7.793 -0.5177 -0.5026  0.0199
17879SOL    HW256080   5.582   2.228   7.691 -0.9995  1.7111  2.4007
17880SOL     OW56081   3.772   7.142   3.953 -0.6811  0.0228  0.4024
17880SOL    HW156082   3.679   7.131   3.972 -0.5042 -0.0131  1.2569
17880SOL    HW256083   3.800   7.215   4.009 -0.2986  0.3442 -0.1976
17881SOL     OW56084   5.455   3.349   3.410  0.4100  0.2481 -0.1472
17881SOL    HW156085   5.513   3.344   3.334  0.5840  1.3343 -0.0992
17881SOL    HW256086   5.445   3.442   3.426 -0.5431  0.0511  0.4722
17882SOL     OW56087   1.554   9.696   9.239 -0.1793 -0.1293 -0.2948
17882SOL    HW156088   1.612   9.760   9.280 -0.6094 -0.2628  0.5237
17882SOL    HW256089   1.605   9.615   9.236 -0.3950 -0.3037  0.6241
17883SOL     OW56090   9.787  10.468   5.826  0.0300 -0.1686 -0.7893
17883SOL    HW156091   9.704  10.422   5.808 -0.0444  0.5597 -2.5188
17883SOL    HW256092   9.762  10.541   5.882 -0.0526 -1.4132  0.8929
17884SOL     OW56093   1.902   7.272   0.030 -0.5138  0.1519 -0.2228
17884SOL    HW156094   1.860   7.206  -0.026  0.1361  0.2745 -0.8660
17884SOL    HW256095   1.895   7.236   0.118 -0.1054 -0.8156 -0.5694
17885SOL     OW56096   7.021   7.074   4.779  0.5908  0.3597 -0.2709
17885SOL    HW156097   6.986   7.064   4.690  1.3768  1.1312 -0.6879
17885SOL    HW256098   6.990   6.997   4.826 -1.1298  0.6932 -0.7832
17886SOL     OW56099   8.692   1.389   6.575 -0.3722  0.2537 -0.6218
17886SOL    HW156100   8.706   1.300   6.607 -0.6504  0.5193  0.2908
17886SOL    HW256101   8.616   1.383   6.518 -0.3655 -0.1030 -0.5920
17887SOL     OW56102   3.214   3.820   7.712  0.4912  0.1826 -0.0442
17887SOL    HW156103   3.180   3.867   7.789 -0.1981  1.8501 -1.3109
17887SOL    HW256104   3.308   3.833   7.716  0.4658  0.2040  0.5592
17888SOL     OW56105   5.506   7.301  10.110  0.2532 -0.5654  0.0102
17888SOL    HW156106   5.528   7.394  10.121 -0.6482 -0.4373  0.8795
17888SOL    HW256107   5.512   7.264  10.198 -1.9773 -0.7223  0.1408
17889SOL     OW56108   2.317   2.417   7.723 -0.1838  0.6039  0.2526
17889SOL    HW156109   2.226   2.397   7.702  0.0864 -0.2821 -0.1204
17889SOL    HW256110   2.316   2.440   7.816 -0.4945 -1.4407  0.7952
17890SOL     OW56111   9.298   8.488   5.271 -0.3164  0.1316  0.3707
17890SOL    HW156112   9.224   8.542   5.242  0.2364  0.3016 -0.7608
17890SOL    HW256113   9.256   8.415   5.317 -1.0921  1.2437  1.5154
17891SOL     OW56114   8.041   0.460   6.189  0.5072 -0.0233  0.0241
17891SOL    HW156115   7.955   0.501   6.199  1.0419  1.4422 -0.9990
17891SOL    HW256116   8.022   0.370   6.165 -0.7959  0.6091 -1.5075
17892SOL     OW56117   1.240   9.065   1.833  0.1575  0.0144  0.5042
17892SOL    HW156118   1.156   9.047   1.876  0.7902 -0.8740  1.4261
17892SOL    HW256119   1.237   9.158   1.812 -0.5671  0.2754  1.6501
17893SOL     OW56120   6.360   5.402   9.534 -0.2333 -0.3114  1.2852
17893SOL    HW156121   6.287   5.398   9.473  0.1549  0.2446  0.7715
17893SOL    HW256122   6.346   5.329   9.594 -0.6680 -0.8082  0.5876
17894SOL     OW56123   3.154   6.779   2.241  0.0700  0.0636  0.0004
17894SOL    HW156124   3.149   6.866   2.281 -2.0515 -0.2528  0.5305
17894SOL    HW256125   3.210   6.791   2.164 -2.9281  2.7891 -2.0299
17895SOL     OW56126   4.044   5.664   1.759 -0.1513 -0.8549  0.6935
17895SOL    HW156127   4.111   5.674   1.827 -0.4944 -1.0852  1.0674
17895SOL    HW256128   4.002   5.750   1.754 -0.9525 -1.1766  1.6483
17896SOL     OW56129   4.584   3.967   4.079  0.1791 -0.2369  0.0472
17896SOL    HW156130   4.529   3.919   4.140 -0.4377  0.9420  0.4468
17896SOL    HW256131   4.543   3.954   3.994  0.6301 -1.2762 -0.0357
17897SOL     OW56132   5.605   6.340   0.794  0.1071 -0.3797 -0.0449
17897SOL    HW156133   5.619   6.275   0.725  2.2899 -0.3751  0.3274
17897SOL    HW256134   5.510   6.349   0.799 -0.1462 -1.0617 -2.3919
17898SOL     OW56135   6.289   9.291   6.014 -0.1281  0.1683 -0.3713
17898SOL    HW156136   6.345   9.358   5.974 -2.2634  2.6274  0.5028
17898SOL    HW256137   6.228   9.267   5.945 -0.0755 -0.0116 -0.3540
17899SOL     OW56138  10.003   8.814   5.315  0.0037  0.2958  0.0112
17899SOL    HW156139  10.029   8.789   5.404  0.5985 -0.9357 -0.4932
17899SOL    HW256140   9.909   8.797   5.312 -0.1248  0.8591  0.5624
17900SOL     OW56141   8.342   5.454   3.569 -0.0186 -0.3095  0.1165
17900SOL    HW156142   8.336   5.483   3.660 -0.5842 -0.8474  0.2613
17900SOL    HW256143   8.390   5.372   3.573  1.2762  0.3970 -0.2525
17901SOL     OW56144   1.507   4.666   9.534  0.3489  0.0238  0.1829
17901SOL    HW156145   1.508   4.701   9.445 -0.9927  0.8800  0.4799
17901SOL    HW256146   1.454   4.728   9.584  1.7735  0.0213  1.7900
17902SOL     OW56147   5.212   6.746   0.727  0.3519  0.3340  0.1154
17902SOL    HW156148   5.158   6.680   0.684 -0.2026  0.4093  0.6953
17902SOL    HW256149   5.154   6.821   0.739  0.4955  0.3038  1.0198
17903SOL     OW56150   1.113   4.881   3.821  0.1029  0.6404 -0.1979
17903SOL    HW156151   1.040   4.835   3.778  0.2322  0.3019 -0.0547
17903SOL    HW256152   1.191   4.849   3.776  0.3555 -0.7244  1.1696
17904SOL     OW56153   6.737   4.165   3.782  0.2289 -0.4759  0.1538
17904SOL    HW156154   6.769   4.250   3.750 -0.5933  0.8018  2.4662
17904SOL    HW256155   6.800   4.140   3.849  0.3466 -1.6097 -0.3724
17905SOL     OW56156   0.821   5.872   5.197 -0.2335 -0.0388 -0.4751
17905SOL    HW156157   0.821   5.909   5.108 -1.1385 -0.5872 -0.7145
17905SOL    HW256158   0.758   5.801   5.193  1.0434 -1.2521  0.1438
17906SOL     OW56159   7.356   4.855   8.229 -0.6700  0.0996 -0.4289
17906SOL    HW156160   7.345   4.760   8.222 -0.6418  0.1028 -0.5220
17906SOL    HW256161   7.447   4.870   8.203 -0.5834  0.1206 -0.1164
17907SOL     OW56162   3.742   4.708   3.424  0.4914 -0.0921  0.0733
17907SOL    HW156163   3.770   4.707   3.516  0.1170 -0.4456  0.1848
17907SOL    HW256164   3.726   4.617   3.402 -0.1411  0.0570 -0.1166
17908SOL     OW56165   1.917  10.290   8.956  0.0981  0.9599  0.0905
17908SOL    HW156166   1.831  10.266   8.989 -0.3769  0.8328 -1.1755
17908SOL    HW256167   1.957  10.342   9.026 -0.5975  0.1576  1.0957
17909SOL     OW56168   4.463   7.573   3.303 -0.0623  0.3963 -0.0941
17909SOL    HW156169   4.532   7.631   3.269  1.1325 -0.1386  1.3055
17909SOL    HW256170   4.502   7.533   3.381 -2.2657  0.7207  1.2592
17910SOL     OW56171   5.383   5.667   6.771  0.1969  0.0564 -0.2199
17910SOL    HW156172   5.367   5.590   6.716  1.3947 -1.1904  1.0985
17910SOL    HW256173   5.470   5.653   6.807  1.2356  2.9240 -1.2897
17911SOL     OW56174   3.951   1.993   0.686 -0.4135  0.0541  0.5216
17911SOL    HW156175   3.942   2.012   0.779  2.2319  1.2090  0.6367
17911SOL    HW256176   3.939   2.077   0.643  0.8149  0.0244  0.0713
17912SOL     OW56177  10.079   5.076   3.698 -0.0187  0.2709  0.1468
17912SOL    HW156178  10.078   5.139   3.626 -0.8370 -1.7711 -1.7346
17912SOL    HW256179   9.995   5.032   3.692  0.1848 -0.4449  1.9603
17913SOL     OW56180   1.040   7.873   0.421 -0.4576 -0.3724  0.4345
17913SOL    HW156181   1.064   7.936   0.353 -1.5270  0.0934  0.4708
17913SOL    HW256182   0.948   7.890   0.438 -0.0469  0.0246  2.5347
17914SOL     OW56183   6.354   1.372   5.070 -0.9320  0.5211  0.2791
17914SOL    HW156184   6.324   1.462   5.060 -4.1137 -0.3308  1.0311
17914SOL    HW256185   6.388   1.367   5.159 -1.8408  0.7319  0.6469
17915SOL     OW56186   4.883   5.510   1.983 -0.0083 -0.3028 -0.0140
17915SOL    HW156187   4.864   5.603   1.987  0.2441 -0.1217 -1.9975
17915SOL    HW256188   4.860   5.476   2.070  0.0545  1.6129  0.7816
17916SOL     OW56189   3.094   9.261   3.991 -0.6683 -0.0056 -0.0304
17916SOL    HW156190   3.179   9.226   4.018 -1.2655 -1.9398 -0.5032
17916SOL    HW256191   3.114   9.318   3.917  0.0870 -1.6906 -1.1724
17917SOL     OW56192   5.815   4.353   8.013  0.7237 -0.0071  0.6257
17917SOL    HW156193   5.880   4.340   7.944 -0.9305  0.0432 -1.0365
17917SOL    HW256194   5.747   4.288   7.995 -1.1677  1.9011  0.3473
17918SOL     OW56195   0.191   8.796   2.654  0.0330 -0.1904 -0.4387
17918SOL    HW156196   0.203   8.711   2.696 -0.0208  0.0460  0.0536
17918SOL    HW256197   0.096   8.810   2.653 -0.0689 -0.8095 -1.8674
17919SOL     OW56198   5.157   7.320   9.846  0.7655 -0.8357 -0.5559
17919SOL    HW156199   5.062   7.313   9.851  0.6430 -1.1149 -2.4575
17919SOL    HW256200   5.187   7.307   9.936 -0.9914 -0.6207  0.0951
17920SOL     OW56201   1.813   4.389   1.774 -0.3661 -0.0084 -0.6282
17920SOL    HW156202   1.845   4.455   1.713 -0.3474 -0.3316 -0.9671
17920SOL    HW256203   1.883   4.324   1.778 -0.8480 -0.5673 -1.1427
17921SOL     OW56204   1.510   0.643   1.259 -0.2889 -0.1752 -0.5270
17921SOL    HW156205   1.418   0.633   1.285 -0.1849  0.0089 -0.0770
17921SOL    HW256206   1.517   0.596   1.176 -0.6654 -0.6317 -0.3036
17922SOL     OW56207   7.627   7.501  10.336  0.0223 -0.1597  0.2759
17922SOL    HW156208   7.557   7.563  10.316  1.0281  0.6994 -0.6898
17922SOL    HW256209   7.583   7.431  10.385 -1.3452  0.7574  0.4214
17923SOL     OW56210   6.084   5.542   3.117 -0.0936 -0.0104  0.4330
17923SOL    HW156211   6.112   5.624   3.077  2.7149 -0.6567  0.8509
17923SOL    HW256212   6.163   5.507   3.158 -1.3463 -2.5946  0.8723
17924SOL     OW56213  10.307   1.403   4.642  0.3858 -0.1386 -0.4741
17924SOL    HW156214  10.291   1.482   4.590  2.0528  1.4890  1.3273
17924SOL    HW256215  10.271   1.424   4.728  0.5892 -1.4843 -0.0396
17925SOL     OW56216   1.758  10.246   0.702  0.1343 -0.1769  0.0089
17925SOL    HW156217   1.767  10.310   0.632  0.7218 -1.5786 -1.2458
17925SOL    HW256218   1.679  10.198   0.682  0.0581 -0.3013  0.5767
17926SOL     OW56219   2.538   2.468   3.731 -0.5342  0.2342 -0.4821
17926SOL    HW156220   2.508   2.520   3.806 -0.3382  1.2757 -1.1062
17926SOL    HW256221   2.466   2.408   3.713 -0.2684 -0.5688  1.0290
17927SOL     OW56222   8.369   4.075   7.171  0.7421  0.1267  0.1500
17927SOL    HW156223   8.421   4.013   7.120 -0.9376 -0.7579 -0.5627
17927SOL    HW256224   8.431   4.113   7.233  2.2365 -0.8233 -0.7019
17928SOL     OW56225   9.151   5.189   8.285  0.1551 -0.4002 -0.3659
17928SOL    HW156226   9.127   5.138   8.208  3.0604 -2.5262 -0.0314
17928SOL    HW256227   9.172   5.276   8.250 -0.5122 -0.7378 -1.6678
17929SOL     OW56228   5.753   4.705   7.338 -0.3779 -0.6020  0.0347
17929SOL    HW156229   5.840   4.738   7.315 -0.6451  0.9743  1.1732
17929SOL    HW256230   5.767   4.611   7.352  0.6878 -0.7938 -1.9061
17930SOL     OW56231   9.202   7.472   9.663 -0.1541 -0.3035 -0.4085
17930SOL    HW156232   9.284   7.441   9.626 -0.5062 -0.2652 -1.2251
17930SOL    HW256233   9.202   7.436   9.752  0.9617  0.0930 -0.2292
17931SOL     OW56234   7.180   1.353   2.003 -0.1556 -0.0943 -0.0272
17931SOL    HW156235   7.200   1.416   2.072 -3.1101 -1.5259  2.3743
17931SOL    HW256236   7.139   1.405   1.934  2.1597  1.2584 -0.4868
17932SOL     OW56237   9.703   0.511   5.350  0.3734 -0.7034  0.2814
17932SOL    HW156238   9.617   0.501   5.391  0.1844  1.3758  0.5031
17932SOL    HW256239   9.765   0.489   5.420  0.0128 -0.3286  0.7301
17933SOL     OW56240   3.605   3.505   3.244 -0.1343 -0.4503 -0.8673
17933SOL    HW156241   3.639   3.416   3.246  0.0882 -0.4691 -2.8659
17933SOL    HW256242   3.570   3.515   3.156 -0.5803  1.2865 -0.5318
17934SOL     OW56243   5.475   4.969   2.253  0.7759 -0.3970  0.2268
17934SOL    HW156244   5.469   4.874   2.251  1.8979 -0.5004  0.8140
17934SOL    HW256245   5.464   4.996   2.162 -0.2018 -1.0228  0.1416
17935SOL     OW56246   4.930   0.059   7.771  0.3882  0.1192 -0.1801
17935SOL    HW156247   4.962   0.132   7.825  0.5023 -0.2156  0.2128
17935SOL    HW256248   4.916  -0.012   7.834 -0.8027  0.1442 -0.3861
17936SOL     OW56249   9.205   5.403   3.856 -0.1420  0.2828 -0.4197
17936SOL    HW156250   9.298   5.382   3.852 -0.0623  0.2902  0.9433
17936SOL    HW256251   9.167   5.338   3.915 -1.0342  0.1765 -1.0906
17937SOL     OW56252   0.561   4.969   2.640  0.3475 -0.3580  0.0892
17937SOL    HW156253   0.612   5.049   2.630 -0.9703  0.5671  0.5441
17937SOL    HW256254   0.542   4.940   2.550  0.4292  0.0988 -0.0746
17938SOL     OW56255   0.558   9.975   0.274  0.1863 -0.0662  0.9408
17938SOL    HW156256   0.598  10.031   0.208 -0.2284  1.4791  1.9415
17938SOL    HW256257   0.496   9.920   0.225  0.7791  0.1782 -0.0985
17939SOL     OW56258   0.107   7.638   4.231 -0.5371  0.4592 -0.0247
17939SOL    HW156259   0.123   7.673   4.318 -0.4847 -1.2277  0.6705
17939SOL    HW256260   0.082   7.547   4.245 -0.4990  0.1354 -1.7737
17940SOL     OW56261   3.873   1.759   9.156 -0.2056  0.3246 -0.4495
17940SOL    HW156262   3.830   1.795   9.079  0.2997  1.4162 -0.2372
17940SOL    HW256263   3.944   1.705   9.121 -1.0072 -0.5418 -0.7700
17941SOL     OW56264   3.273   7.564   5.210 -0.6043  0.4015  0.5537
17941SOL    HW156265   3.229   7.540   5.129 -1.0791  1.1901  0.5730
17941SOL    HW256266   3.366   7.546   5.193 -0.7025  0.5447 -0.1524
17942SOL     OW56267   9.077   5.797   4.338 -0.4434  0.1738 -0.1182
17942SOL    HW156268   9.009   5.842   4.288 -1.2477 -0.6938  0.1626
17942SOL    HW256269   9.069   5.832   4.427  0.0091  0.6441 -0.2588
17943SOL     OW56270   6.526   8.790   4.418 -0.5051 -0.3240 -0.2896
17943SOL    HW156271   6.599   8.754   4.367 -1.7356 -2.0202 -0.9517
17943SOL    HW256272   6.556   8.787   4.509  0.7575  0.3542 -0.6637
17944SOL     OW56273   2.789   6.535   8.852 -0.1639  0.2416 -0.3008
17944SOL    HW156274   2.880   6.558   8.873 -0.0031 -0.3073 -0.3753
17944SOL    HW256275   2.744   6.535   8.937  0.0101  0.0638 -0.2087
17945SOL     OW56276   3.633   0.705   4.679  0.7307 -0.8389 -0.0300
17945SOL    HW156277   3.632   0.652   4.758 -0.0874 -0.7046  0.0585
17945SOL    HW256278   3.668   0.790   4.708  1.5693 -1.1650 -0.0705
17946SOL     OW56279   7.924   0.026   5.341  0.3693  0.4818  0.2754
17946SOL    HW156280   7.892   0.113   5.364 -2.2344 -0.3859  0.2465
17946SOL    HW256281   7.873  -0.034   5.395 -0.5365 -1.2019 -2.2775
17947SOL     OW56282   8.677   4.289   3.443  0.6760  0.2967  0.3753
17947SOL    HW156283   8.663   4.302   3.349  1.9676  0.9511  0.2571
17947SOL    HW256284   8.601   4.331   3.484 -0.6709 -1.2575 -0.3872
17948SOL     OW56285   4.796   0.922   3.632 -0.6555 -0.3834 -0.1699
17948SOL    HW156286   4.891   0.920   3.615 -0.6880  0.0189 -0.4062
17948SOL    HW256287   4.767   1.006   3.596 -1.0745 -0.4312  0.0536
17949SOL     OW56288   1.424   9.729   8.030  0.4466 -0.1381  0.1890
17949SOL    HW156289   1.385   9.808   8.066 -0.3737 -0.6918  0.5584
17949SOL    HW256290   1.511   9.755   8.002  1.3612  0.2498  3.0416
17950SOL     OW56291   5.525   8.734   8.187  0.0676 -0.5289  0.4526
17950SOL    HW156292   5.547   8.691   8.270  1.2582  0.1634  0.5113
17950SOL    HW256293   5.577   8.689   8.121  1.1563  0.6161  0.4818
17951SOL     OW56294   1.635   7.465   2.020  0.1507 -0.2079 -0.1165
17951SOL    HW156295   1.634   7.478   2.115 -2.3841  2.3436 -0.3592
17951SOL    HW256296   1.582   7.386   2.006 -2.7425  1.4537  0.5394
17952SOL     OW56297   4.578  10.379   7.628  0.1206 -0.2495  0.5673
17952SOL    HW156298   4.599  10.471   7.610 -1.3481  0.3299  1.6236
17952SOL    HW256299   4.492  10.366   7.589 -0.5966 -0.5636  2.1690
17953SOL     OW56300   9.776   3.205  10.134 -0.0594  0.1303  0.7688
17953SOL    HW156301   9.684   3.206  10.159 -0.4758 -0.4836 -0.6571
17953SOL    HW256302   9.807   3.118  10.160 -0.7879 -0.9556 -1.6630
17954SOL     OW56303   4.947  10.373   2.098 -0.3674  0.6048 -0.0166
17954SOL    HW156304   4.944  10.465   2.071  1.0269  0.0129 -2.4974
17954SOL    HW256305   4.996  10.329   2.028 -1.6729 -2.1826  0.6936
17955SOL     OW56306   7.644   9.531   1.408  0.3879  0.6356  0.1938
17955SOL    HW156307   7.624   9.622   1.386 -0.8329  0.1913 -0.6370
17955SOL    HW256308   7.561   9.495   1.439  0.2478 -0.7828 -1.6446
17956SOL     OW56309   8.025   3.414   9.824  0.2202 -0.1553 -0.0206
17956SOL    HW156310   7.967   3.399   9.750  0.2887  1.3568 -0.4261
17956SOL    HW256311   8.113   3.401   9.789  0.2682  0.8530 -0.3123
17957SOL     OW56312   0.428   5.122   3.306  0.5822 -0.1985  1.1457
17957SOL    HW156313   0.460   5.181   3.374 -0.5423 -0.9292  2.3633
17957SOL    HW256314   0.341   5.157   3.284  0.8346 -0.1178  0.2608
17958SOL     OW56315   8.355   1.930   4.294  0.1597 -0.3048 -0.1894
17958SOL    HW156316   8.357   2.002   4.231  2.3873  0.5094  0.7212
17958SOL    HW256317   8.286   1.954   4.355  0.1522  0.5186 -0.5095
17959SOL     OW56318   5.884   3.142   1.194 -0.3945 -0.2450 -0.4041
17959SOL    HW156319   5.923   3.074   1.139 -0.2924  0.4014 -1.1637
17959SOL    HW256320   5.859   3.097   1.274  3.0882 -0.5122  0.7343
17960SOL     OW56321   7.282   8.278   9.299  0.3008  0.1905  0.5624
17960SOL    HW156322   7.227   8.316   9.368  0.6734 -0.0435  0.9968
17960SOL    HW256323   7.235   8.296   9.218  0.2563  1.1905  0.7978
17961SOL     OW56324   2.532   7.956   2.518  0.0695  0.6815  0.3404
17961SOL    HW156325   2.438   7.947   2.538 -0.2228  2.8992  0.1844
17961SOL    HW256326   2.553   7.875   2.471 -2.3311  1.0405 -1.5767
17962SOL     OW56327   8.535   6.931   6.569  0.2246 -0.3579  0.0087
17962SOL    HW156328   8.502   6.994   6.632 -2.4771 -2.0200  0.4082
17962SOL    HW256329   8.484   6.946   6.490  0.7693 -0.9046 -0.4618
17963SOL     OW56330   7.814   5.363   5.621 -0.0465 -0.5626 -0.5131
17963SOL    HW156331   7.806   5.281   5.669  0.1525 -0.0820  0.3703
17963SOL    HW256332   7.908   5.383   5.623 -0.1121 -0.2336 -0.5693
17964SOL     OW56333   3.941   4.617   0.063 -0.0219  0.3861  0.3051
17964SOL    HW156334   3.902   4.616  -0.025  1.2713 -0.2951 -0.2996
17964SOL    HW256335   4.009   4.549   0.059  1.4020  1.6965  1.1829
17965SOL     OW56336   1.834   2.998   4.220 -0.8659  0.3868 -0.1451
17965SOL    HW156337   1.850   3.091   4.208  1.6620  0.1321  0.7063
17965SOL    HW256338   1.839   2.961   4.131 -0.4242  0.8779 -0.3272
17966SOL     OW56339   3.326   7.532   3.091 -0.5814 -0.1949  0.2677
17966SOL    HW156340   3.346   7.594   3.022 -1.6811  1.1984  1.1481
17966SOL    HW256341   3.319   7.585   3.170  0.5183 -1.7275  1.4553
17967SOL     OW56342   2.412   5.746   2.769  0.1006  0.0585 -0.4213
17967SOL    HW156343   2.471   5.670   2.771  0.4787  0.3684  1.2308
17967SOL    HW256344   2.416   5.782   2.857 -0.5710  1.6381 -1.0045
17968SOL     OW56345   4.999   8.651   7.659  0.5877  0.1252 -0.4815
17968SOL    HW156346   4.976   8.595   7.733  2.1560 -1.7257 -1.3240
17968SOL    HW256347   4.938   8.725   7.665 -0.5053 -0.8718  1.5864
17969SOL     OW56348   4.241   4.040   8.927  0.1104  0.5514 -0.1488
17969SOL    HW156349   4.313   4.002   8.877 -0.2513  1.2197 -1.2033
17969SOL    HW256350   4.280   4.062   9.012  0.8767 -0.0767 -0.3310
17970SOL     OW56351   3.171   8.204   8.594 -0.4146  0.5891  0.6529
17970SOL    HW156352   3.195   8.218   8.502  2.1043 -2.7123  0.6069
17970SOL    HW256353   3.075   8.196   8.593 -0.3327 -1.7437 -2.2169
17971SOL     OW56354   8.947   5.504   4.069 -0.4061 -0.1396 -0.4827
17971SOL    HW156355   8.872   5.508   4.009 -0.0228  1.5239 -0.8837
17971SOL    HW256356   8.969   5.411   4.072 -1.6060 -0.4937 -1.4477
17972SOL     OW56357   3.990   9.267  10.320  0.0254  0.5573  0.6551
17972SOL    HW156358   3.989   9.217  10.239  0.4229 -0.0749  1.0282
17972SOL    HW256359   3.925   9.224  10.376  2.1490 -1.2043  1.9191
17973SOL     OW56360   1.505   5.754   5.174 -0.2410  0.1669  0.3172
17973SOL    HW156361   1.468   5.666   5.175  1.4244 -0.5776  0.7002
17973SOL    HW256362   1.493   5.785   5.084 -0.8065 -0.4638  0.1735
17974SOL     OW56363   5.148   4.130   6.806 -0.3222  0.0225  0.5017
17974SOL    HW156364   5.186   4.093   6.885  0.2798 -0.3019  0.0640
17974SOL    HW256365   5.209   4.198   6.779  1.2042 -1.9418 -1.4310
17975SOL     OW56366  10.334   1.565   0.114 -0.6425  0.2364  0.2521
17975SOL    HW156367  10.371   1.647   0.081 -0.0209  0.2773  1.0236
17975SOL    HW256368  10.308   1.517   0.036 -0.3185  0.8486 -0.2370
17976SOL     OW56369   6.641   9.232   9.909  0.1959  0.8137 -0.1186
17976SOL    HW156370   6.713   9.238   9.847  1.1477  2.0945  1.0555
17976SOL    HW256371   6.596   9.317   9.902  0.3655  1.0152  0.9601
17977SOL     OW56372   4.982   7.245   7.550  0.3363  0.2239 -0.5475
17977SOL    HW156373   4.940   7.167   7.515  1.2993 -0.1809 -0.8256
17977SOL    HW256374   4.923   7.275   7.619  0.4981 -1.4225  0.3556
17978SOL     OW56375   1.519   8.559   1.878  0.6204  0.2351  0.0869
17978SOL    HW156376   1.604   8.537   1.840  1.3245 -0.5970  1.9960
17978SOL    HW256377   1.486   8.631   1.824  0.5970 -2.0857 -3.2583
17979SOL     OW56378   1.302   1.371   3.877  0.0792 -0.2255  0.4457
17979SOL    HW156379   1.213   1.336   3.874  1.1012 -3.0681 -0.6509
17979SOL    HW256380   1.291   1.465   3.890 -3.0971 -0.2800 -0.9295
17980SOL     OW56381   4.905   9.526   2.324 -0.3513 -0.3792  0.0580
17980SOL    HW156382   4.840   9.459   2.304 -0.6940 -0.3561  1.0229
17980SOL    HW256383   4.868   9.607   2.291  0.6114 -0.8012 -2.2384
17981SOL     OW56384   0.915  10.001   3.920  0.4568  0.0526  0.4919
17981SOL    HW156385   0.905  10.003   4.015  1.8552 -1.2990  0.7089
17981SOL    HW256386   0.952   9.915   3.901  0.5816  0.4402 -1.2447
17982SOL     OW56387   1.485   4.378   6.828  0.2105  0.0213 -0.8197
17982SOL    HW156388   1.424   4.439   6.870 -0.9864 -2.0710  0.6841
17982SOL    HW256389   1.428   4.320   6.777  0.9778 -1.4282 -0.0967
17983SOL     OW56390  10.338   7.557   0.662  0.1642 -0.1250  0.3083
17983SOL    HW156391  10.373   7.635   0.704  0.5685  0.4462 -1.0525
17983SOL    HW256392  10.301   7.588   0.580  0.3532 -1.3689 -0.2645
17984SOL     OW56393   1.490   1.737   0.507  0.6679 -0.0097 -0.3914
17984SOL    HW156394   1.450   1.824   0.507 -0.2622 -0.4209 -1.0087
17984SOL    HW256395   1.558   1.743   0.439 -0.6539 -0.2984 -1.7789
17985SOL     OW56396   7.336   1.536   8.090  0.0700  0.0588 -0.1577
17985SOL    HW156397   7.368   1.481   8.018  1.5855  0.4008  0.2220
17985SOL    HW256398   7.255   1.493   8.118 -1.1665  0.5086 -2.7395
17986SOL     OW56399   4.844   6.978   3.582  0.6611  0.3269 -0.0547
17986SOL    HW156400   4.783   7.041   3.545  0.2054  0.6126  1.1110
17986SOL    HW256401   4.863   6.917   3.511 -0.5819  0.5349 -0.5847
17987SOL     OW56402   1.718   3.925   8.726 -0.1266 -0.1001  0.4601
17987SOL    HW156403   1.701   3.836   8.758  1.6228  0.0878  2.0687
17987SOL    HW256404   1.722   3.916   8.630  0.1527 -1.7680  0.6030
17988SOL     OW56405   3.189   9.787   9.641  0.0212 -0.0030  0.3750
17988SOL    HW156406   3.212   9.707   9.688  0.1910  1.0920  2.2759
17988SOL    HW256407   3.111   9.763   9.590  1.0552 -1.8014 -0.4777
17989SOL     OW56408   7.004   2.236   5.302  0.3722 -0.2692 -0.6911
17989SOL    HW156409   7.037   2.319   5.334 -1.6953  1.0355 -1.7334
17989SOL    HW256410   7.029   2.234   5.210 -1.3658  0.2373 -1.2148
17990SOL     OW56411   6.331   4.232   7.109 -0.0428  0.3118  0.5176
17990SOL    HW156412   6.256   4.175   7.123  2.7527 -3.7182  0.7578
17990SOL    HW256413   6.315   4.272   7.024 -1.5718 -2.0963 -0.4359
17991SOL     OW56414   5.396   3.729   2.947  0.0047 -0.2989 -0.1138
17991SOL    HW156415   5.317   3.782   2.961  0.5305  0.2673  0.7749
17991SOL    HW256416   5.371   3.641   2.975 -0.4692 -0.2411 -0.3416
17992SOL     OW56417   1.320   1.741   5.880 -0.2084  0.7424  0.8568
17992SOL    HW156418   1.264   1.763   5.955 -0.7139  3.0790 -0.1139
17992SOL    HW256419   1.261   1.739   5.806  0.5608  0.2499  0.2462
17993SOL     OW56420   9.009   5.497   9.538 -0.1890  0.5155  0.3826
17993SOL    HW156421   8.961   5.508   9.456  0.1340  0.8431  0.2347
17993SOL    HW256422   8.968   5.421   9.580 -1.2619  1.1647  0.5621
17994SOL     OW56423   7.501   1.102   8.842 -0.4175 -0.4694  0.4919
17994SOL    HW156424   7.505   1.116   8.936 -0.9046  2.2864  0.1877
17994SOL    HW256425   7.424   1.046   8.829 -0.4115 -0.7715  1.6982
17995SOL     OW56426   0.730   9.587   2.612  0.3643 -0.2540 -0.5772
17995SOL    HW156427   0.786   9.511   2.598 -0.8619 -0.8523 -2.9242
17995SOL    HW256428   0.654   9.552   2.659  1.0624  0.1758  0.9376
17996SOL     OW56429   7.741   1.464   1.100 -0.5454 -0.3130 -0.1202
17996SOL    HW156430   7.659   1.493   1.139  0.0017  1.2117 -0.0218
17996SOL    HW256431   7.719   1.445   1.009 -1.4428 -2.0856  0.4266
17997SOL     OW56432   0.847   0.381   7.479  0.1514 -0.0413  0.7841
17997SOL    HW156433   0.842   0.384   7.575  3.1184  2.3918  1.0176
17997SOL    HW256434   0.924   0.328   7.461 -0.5659 -0.7448 -0.3393
17998SOL     OW56435   9.694   0.987   6.192 -0.3777 -0.2651  0.7338
17998SOL    HW156436   9.640   1.022   6.121 -0.0217 -0.9862  0.0879
17998SOL    HW256437   9.637   0.991   6.269 -0.4997  1.2519  0.5924
17999SOL     OW56438   3.613   7.494   5.474 -0.3302  0.4132 -0.0873
17999SOL    HW156439   3.568   7.412   5.495 -0.1352  0.4189  0.3665
17999SOL    HW256440   3.573   7.559   5.532  1.1895  0.1471  1.3444
18000SOL     OW56441   2.927  10.040   7.593  0.1380 -0.3462  0.0193
18000SOL    HW156442   3.002  10.000   7.549  0.5949  0.0675  0.4060
18000SOL    HW256443   2.893  10.103   7.530 -0.2687 -0.9740 -0.3936
18001SOL     OW56444   1.745   7.133   4.918 -0.2383 -0.1723  0.2939
18001SOL    HW156445   1.747   7.068   4.988 -0.2365 -0.7588 -0.2471
18001SOL    HW256446   1.740   7.082   4.837 -0.5705  0.5021 -0.1231
18002SOL     OW56447   7.672   3.266   5.553 -0.1988 -0.3535 -0.5718
18002SOL    HW156448   7.698   3.357   5.570 -0.3209 -0.2079 -1.1395
18002SOL    HW256449   7.681   3.222   5.638  1.2363 -0.1511 -0.6082
18003SOL     OW56450   5.857   6.175   4.318 -0.1865 -0.9992  0.1214
18003SOL    HW156451   5.795   6.196   4.247  0.5405 -0.9880 -0.5253
18003SOL    HW256452   5.887   6.261   4.349 -1.1253 -0.9737  1.0312
18004SOL     OW56453   3.801   4.025   4.148 -0.0979 -0.1176 -0.6026
18004SOL    HW156454   3.828   3.971   4.074 -1.6729 -1.8992  0.0298
18004SOL    HW256455   3.804   3.966   4.223 -1.5799  0.7480  0.1905
18005SOL     OW56456   4.711   4.346   6.960  0.3460  0.6712  0.0603
18005SOL    HW156457   4.787   4.295   6.987 -0.9175 -1.1954  0.2418
18005SOL    HW256458   4.660   4.287   6.905 -0.8662  1.9678 -0.2746
18006SOL     OW56459   3.262  10.247   7.278  0.3833  0.3715  0.4448
18006SOL    HW156460   3.306  10.265   7.195 -0.5658 -1.4125 -0.5092
18006SOL    HW256461   3.297  10.162   7.305 -1.9616 -0.8107 -0.0349
18007SOL     OW56462   9.355   5.250   7.268  0.0764 -0.3732 -0.7268
18007SOL    HW156463   9.384   5.328   7.316  0.1385 -1.0942  0.4434
18007SOL    HW256464   9.434   5.219   7.223 -0.2593  1.0373 -2.4144
18008SOL     OW56465   0.008   1.955   3.732 -0.2235  0.1515  0.1642
18008SOL    HW156466   0.056   1.888   3.682 -0.1387  1.1737 -1.2136
18008SOL    HW256467   0.077   2.003   3.778  0.0046  0.8416 -0.8440
18009SOL     OW56468   7.273   8.945   0.358  0.3255 -0.4511 -0.6006
18009SOL    HW156469   7.250   9.037   0.350  1.2815 -0.2848 -1.6193
18009SOL    HW256470   7.266   8.927   0.452 -2.0743  0.0458 -0.6154
18010SOL     OW56471   5.519   4.829   0.076  0.4642  0.6083 -0.0821
18010SOL    HW156472   5.595   4.882   0.100  1.0990 -1.0333  1.7887
18010SOL    HW256473   5.554   4.757   0.025 -0.1030  0.7921 -0.7502
18011SOL     OW56474   4.804   0.249   0.271  0.0511  0.4605  0.3350
18011SOL    HW156475   4.733   0.199   0.311  2.3456 -2.7806  0.8791
18011SOL    HW256476   4.791   0.239   0.177 -1.6897  2.3446  0.3343
18012SOL     OW56477   3.607   9.272  10.471 -0.3948 -0.4242  0.2226
18012SOL    HW156478   3.515   9.249  10.458 -0.2332 -0.7648 -0.3880
18012SOL    HW256479   3.606   9.365  10.493 -0.9866 -0.7515  1.6575
18013SOL     OW56480   2.113   5.299   0.614 -0.2214 -0.4426 -0.5595
18013SOL    HW156481   2.067   5.286   0.532  0.3344 -0.5230 -0.8641
18013SOL    HW256482   2.146   5.388   0.610  0.5225 -0.7202 -0.7965
18014SOL     OW56483   1.026   1.235   8.852 -0.4801 -0.2686  0.1592
18014SOL    HW156484   1.008   1.329   8.856 -0.0487 -0.2160  1.0419
18014SOL    HW256485   1.119   1.227   8.872 -0.7550 -0.9688  1.2161
18015SOL     OW56486   5.366   3.017   9.650 -0.0283 -0.1817  0.6268
18015SOL    HW156487   5.452   3.050   9.680  0.2227 -0.9706  0.7896
18015SOL    HW256488   5.378   3.001   9.557 -0.2138  0.3663  0.5031
18016SOL     OW56489   2.736   5.821   2.566 -0.1381 -0.5072 -0.8369
18016SOL    HW156490   2.798   5.890   2.541  0.9119 -1.8241 -2.0235
18016SOL    HW256491   2.654   5.846   2.524 -0.4499  1.2039  0.6581
18017SOL     OW56492   4.049   2.580   0.079  0.0336 -0.6204  0.2269
18017SOL    HW156493   4.064   2.651   0.142  0.7335 -0.4378 -0.1328
18017SOL    HW256494   3.998   2.621   0.009  2.3116  0.1629 -1.0734
18018SOL     OW56495   9.489   5.159   6.368  0.2196 -0.0544 -0.3041
18018SOL    HW156496   9.534   5.244   6.376 -0.5582  0.3516 -0.1819
18018SOL    HW256497   9.446   5.163   6.283 -1.5333  0.5400  0.5514
18019SOL     OW56498   2.349   4.077   1.404 -0.1928  0.4419 -0.4294
18019SOL    HW156499   2.289   4.144   1.436  0.7056  1.3350 -0.5457
18019SOL    HW256500   2.423   4.127   1.369  0.6400 -0.6156 -0.2215
18020SOL     OW56501   7.329   5.136   3.390  0.0672 -0.1499  0.4180
18020SOL    HW156502   7.323   5.132   3.294 -0.0111  1.2692  0.3384
18020SOL    HW256503   7.269   5.206   3.415  0.3968 -0.2250  1.4714
18021SOL     OW56504   7.992   5.268   6.602 -0.2687 -0.3040  0.2507
18021SOL    HW156505   8.054   5.264   6.675 -1.2110 -0.5434  1.0558
18021SOL    HW256506   7.997   5.181   6.562 -0.5531 -0.5288  0.7046
18022SOL     OW56507   5.155   7.132   1.262  0.2400  0.1872  0.3061
18022SOL    HW156508   5.105   7.058   1.295 -0.8646  0.6571 -0.2598
18022SOL    HW256509   5.246   7.106   1.273 -0.0406 -2.3053 -2.0683
18023SOL     OW56510   2.471   1.020   9.310 -0.4601 -0.0415  0.2412
18023SOL    HW156511   2.497   1.070   9.233 -1.0188 -0.4250 -0.2029
18023SOL    HW256512   2.501   0.931   9.293 -0.3458 -0.0750  0.5923
18024SOL     OW56513   5.082   9.559   0.515  0.2092  0.3002  0.1375
18024SOL    HW156514   5.047   9.472   0.494  0.8592  0.5160 -2.0607
18024SOL    HW256515   5.177   9.549   0.506  0.3465  1.0709  0.6379
18025SOL     OW56516   3.099   6.125   6.609 -0.2476 -0.5760 -0.1199
18025SOL    HW156517   3.100   6.029   6.604 -0.7445 -0.6641  1.1505
18025SOL    HW256518   3.019   6.151   6.564 -0.4161 -0.8078  0.0416
18026SOL     OW56519   6.129   6.718   7.371 -0.1382  0.0587 -0.0342
18026SOL    HW156520   6.117   6.724   7.466 -0.7299  0.9301 -0.1557
18026SOL    HW256521   6.092   6.799   7.337  0.1114 -0.2276 -1.0139
18027SOL     OW56522   5.178   8.858   6.397 -0.4275  0.3189  0.0062
18027SOL    HW156523   5.193   8.787   6.459  0.0237 -0.8157 -1.3418
18027SOL    HW256524   5.189   8.938   6.448 -2.5971 -0.5397  1.9705
18028SOL     OW56525   3.298   1.909   8.193  0.0217  0.5711 -0.2020
18028SOL    HW156526   3.300   1.893   8.098 -1.7520 -0.0141 -0.1831
18028SOL    HW256527   3.295   1.821   8.232  2.1619  0.7603  0.4959
18029SOL     OW56528   3.478   6.242  10.074 -0.0583  0.5885  0.6606
18029SOL    HW156529   3.565   6.243  10.034 -0.2016  0.4254  0.3425
18029SOL    HW256530   3.467   6.330  10.109  0.6768  0.3034  1.6587
18030SOL     OW56531   3.334   7.733   0.855 -0.5030 -0.0674  0.3243
18030SOL    HW156532   3.419   7.769   0.827 -0.9261  0.4132 -0.3685
18030SOL    HW256533   3.354   7.684   0.935  0.7733 -1.6329 -0.9070
18031SOL     OW56534   0.526   6.937   7.839  0.0186  0.1457 -0.0536
18031SOL    HW156535   0.494   6.895   7.919 -0.1757  1.3778  0.5401
18031SOL    HW256536   0.562   7.020   7.869  2.2498 -0.4331 -0.9246
18032SOL     OW56537   1.512   0.554   5.539 -0.7338  0.7218 -0.1554
18032SOL    HW156538   1.560   0.569   5.620  0.2925 -0.3851 -0.5260
18032SOL    HW256539   1.555   0.611   5.475 -0.4554  0.3642 -0.2910
18033SOL     OW56540   9.606   9.046   2.237  0.4930  0.5209  0.2974
18033SOL    HW156541   9.687   9.005   2.268 -0.4810  0.1202  2.4761
18033SOL    HW256542   9.604   9.131   2.280  1.0814  1.7636 -1.9668
18034SOL     OW56543   6.651   0.333  10.062 -0.3099  0.0090  0.3777
18034SOL    HW156544   6.591   0.401  10.029  0.7406  0.6941 -0.1620
18034SOL    HW256545   6.713   0.381  10.118 -0.8420 -0.8416  1.7590
18035SOL     OW56546   1.365   0.139   6.024  0.1978  0.1901  0.2145
18035SOL    HW156547   1.318   0.136   5.940  1.3226 -0.3395 -0.4180
18035SOL    HW256548   1.330   0.065   6.073 -0.0032  0.1030 -0.0552
18036SOL     OW56549   9.074   5.058   1.702  0.3312 -0.2923  0.4108
18036SOL    HW156550   9.155   5.008   1.712  0.7310  0.4641  1.1129
18036SOL    HW256551   9.015   5.023   1.769 -0.2631 -1.4529 -0.6819
18037SOL     OW56552   0.172   1.610   2.837 -0.5859  0.5943 -0.0994
18037SOL    HW156553   0.086   1.573   2.821 -0.4284  0.8203 -1.5991
18037SOL    HW256554   0.233   1.539   2.819 -0.4254  0.6325  0.2859
18038SOL     OW56555   3.196   2.724   3.671  0.0756 -0.0781  0.4288
18038SOL    HW156556   3.224   2.797   3.726  0.3432 -0.5651  0.9461
18038SOL    HW256557   3.277   2.682   3.643 -0.0851 -0.6250  0.7532
18039SOL     OW56558   2.392   0.245   9.488  0.0557 -0.1632 -0.7147
18039SOL    HW156559   2.338   0.193   9.548  1.4389  1.0188  1.6787
18039SOL    HW256560   2.329   0.300   9.442 -0.9793 -0.3175  0.4587
18040SOL     OW56561   5.733   6.447   3.888  0.3703 -0.1224 -0.3852
18040SOL    HW156562   5.643   6.417   3.872  0.5594 -0.7408 -0.3104
18040SOL    HW256563   5.786   6.368   3.882  0.8868  0.2063 -0.2111
18041SOL     OW56564   9.189   6.415   3.158  0.2046 -0.5551  0.1423
18041SOL    HW156565   9.249   6.468   3.211 -0.8453  1.0639 -0.2051
18041SOL    HW256566   9.224   6.327   3.163  2.1364  0.1923  0.6213
18042SOL     OW56567   5.699   1.191   7.631  0.5640 -0.6541  0.4295
18042SOL    HW156568   5.730   1.101   7.641  1.1501 -0.6318 -0.8908
18042SOL    HW256569   5.688   1.201   7.536 -0.0958  0.4759  0.6131
18043SOL     OW56570   6.490   2.531   4.692  0.1924 -0.1033  0.1792
18043SOL    HW156571   6.412   2.496   4.649  0.5778 -0.7078 -0.0390
18043SOL    HW256572   6.479   2.626   4.687 -0.6372 -0.1822  0.3561
18044SOL     OW56573   5.444   0.900   7.795 -0.8740  0.3739  0.0512
18044SOL    HW156574   5.403   0.879   7.879  0.8661  0.0368  0.8460
18044SOL    HW256575   5.445   0.996   7.793  0.5109  0.4116  1.1759
18045SOL     OW56576   9.180   1.995   5.603  0.2043  0.5253  0.3342
18045SOL    HW156577   9.213   2.007   5.514  0.6602  0.8289  0.5438
18045SOL    HW256578   9.194   2.079   5.645 -2.3474  1.2480 -0.0583
18046SOL     OW56579   0.766   6.190   6.562 -0.8429 -0.2259 -0.0991
18046SOL    HW156580   0.677   6.201   6.593 -0.6991  2.0845 -0.3810
18046SOL    HW256581   0.793   6.277   6.532  0.8148 -1.2737 -1.8928
18047SOL     OW56582   6.463   8.878   3.951 -0.4307  0.2706 -0.1029
18047SOL    HW156583   6.408   8.907   4.024 -1.1058  0.1479 -0.5625
18047SOL    HW256584   6.411   8.895   3.873  0.2100  0.2119 -0.5498
18048SOL     OW56585   7.868   0.842   1.880  0.1428 -0.0396  0.1044
18048SOL    HW156586   7.844   0.754   1.910  0.1576 -0.2677 -0.5182
18048SOL    HW256587   7.842   0.900   1.951 -0.9476 -0.4323  0.0491
18049SOL     OW56588   3.111   4.668   0.638 -0.2740 -0.1685  0.1012
18049SOL    HW156589   3.146   4.732   0.576 -0.7274  1.3048  1.3047
18049SOL    HW256590   3.038   4.713   0.680 -0.1951 -1.2493  1.4561
18050SOL     OW56591   4.764   6.357   7.806  0.1845 -0.2537 -0.0660
18050SOL    HW156592   4.760   6.452   7.789 -0.1904 -0.0257  1.2042
18050SOL    HW256593   4.683   6.337   7.853  1.2277 -0.7743  1.6013
18051SOL     OW56594   0.561   2.536   5.759  0.1651 -0.0922  0.0609
18051SOL    HW156595   0.564   2.445   5.787 -0.7444 -0.2212 -0.2333
18051SOL    HW256596   0.582   2.533   5.665  2.5741  0.2750  0.5075
18052SOL     OW56597   9.086   1.425   3.549 -0.3925  0.1411  0.4554
18052SOL    HW156598   9.138   1.503   3.569 -2.3197  1.3878  0.9492
18052SOL    HW256599   9.024   1.419   3.623 -0.8691 -1.3221 -0.0385
18053SOL     OW56600   1.162   7.510   6.294  0.1724 -0.1254  0.2326
18053SOL    HW156601   1.254   7.512   6.320  1.3628  0.2151 -3.4834
18053SOL    HW256602   1.139   7.601   6.280 -1.1356 -0.1149  2.1505
18054SOL     OW56603   5.271   0.008   4.730  0.3359  0.5000 -0.4637
18054SOL    HW156604   5.263   0.039   4.640 -2.9657 -0.1029 -0.4905
18054SOL    HW256605   5.267  -0.087   4.723  0.2613  0.4425  0.3106
18055SOL     OW56606   6.391   3.074   3.962 -0.5180 -0.1233  0.3717
18055SOL    HW156607   6.325   3.129   3.921 -0.3277 -0.9823 -1.1388
18055SOL    HW256608   6.472   3.094   3.915 -0.6051 -2.2584 -0.8088
18056SOL     OW56609   5.001   4.662   4.827  0.3049 -0.3557  0.1510
18056SOL    HW156610   5.088   4.639   4.795 -0.3412 -2.7167 -0.0903
18056SOL    HW256611   5.015   4.742   4.878  2.2055  0.6064 -1.7009
18057SOL     OW56612   1.824   1.668   4.894 -0.0599 -0.1445  0.3277
18057SOL    HW156613   1.879   1.731   4.846  0.1330 -0.2990  0.3471
18057SOL    HW256614   1.867   1.584   4.880 -0.4923 -0.3224  0.0362
18058SOL     OW56615   7.757   0.767   2.925  0.4209 -0.1542  0.3269
18058SOL    HW156616   7.749   0.671   2.927  2.8375 -0.4125  1.2656
18058SOL    HW256617   7.754   0.793   3.017 -0.1202  0.6841  0.0833
18059SOL     OW56618  10.230   1.633   4.466 -0.1343 -0.2894  0.0936
18059SOL    HW156619  10.189   1.693   4.530  1.5366 -0.0646  1.0214
18059SOL    HW256620  10.215   1.675   4.382 -1.0652  0.2127  0.4911
18060SOL     OW56621   9.575   6.911   0.750 -0.5093  0.0264  0.3369
18060SOL    HW156622   9.493   6.917   0.799 -0.2487 -0.2832  0.8206
18060SOL    HW256623   9.629   6.981   0.786 -0.6073  0.3202 -0.0778
18061SOL     OW56624   3.057   4.059   5.567 -0.1599  0.3946 -0.5397
18061SOL    HW156625   3.118   4.017   5.627  0.1000  0.1076 -1.0002
18061SOL    HW256626   2.982   4.083   5.622 -0.4588 -0.9574 -0.3346
18062SOL     OW56627   7.913   6.168   2.977 -0.3532 -0.0800  0.9008
18062SOL    HW156628   7.892   6.226   3.050  0.9970  1.7053 -0.0411
18062SOL    HW256629   7.996   6.201   2.943  0.2479 -2.3248  0.0039
18063SOL     OW56630   1.978   9.523   0.956  0.1502 -0.3169  0.1483
18063SOL    HW156631   1.915   9.509   1.026 -0.9414 -0.3365 -0.8044
18063SOL    HW256632   1.989   9.618   0.952  1.2943 -0.3772  1.2405
18064SOL     OW56633   4.644   5.484   4.788 -0.1924  0.0808 -0.2122
18064SOL    HW156634   4.723   5.537   4.778 -0.4782  0.3789 -0.9311
18064SOL    HW256635   4.674   5.394   4.773  0.0981  0.1402 -0.0070
18065SOL     OW56636   4.910   2.750   8.952  0.0181  0.4149 -0.5927
18065SOL    HW156637   4.904   2.664   8.995  0.1726  0.3273 -0.7472
18065SOL    HW256638   4.819   2.777   8.941 -0.1170 -0.5154 -2.1255
18066SOL     OW56639   4.966   4.965   0.296 -0.4434 -0.3478 -0.3280
18066SOL    HW156640   5.014   5.014   0.229  0.4490 -2.6978 -1.5019
18066SOL    HW256641   5.029   4.953   0.367 -0.5372 -0.1941 -0.2158
18067SOL     OW56642   4.753   8.591   3.100 -0.3845  0.0266  0.2022
18067SOL    HW156643   4.750   8.502   3.137 -0.7025  0.1092  0.3706
18067SOL    HW256644   4.811   8.582   3.025 -0.2864 -0.2927  0.3109
18068SOL     OW56645   8.166  10.334   0.291  0.0711 -0.1935  0.4887
18068SOL    HW156646   8.251  10.293   0.276 -0.1376 -0.4578 -0.0127
18068SOL    HW256647   8.165  10.410   0.233 -0.4390 -0.7831 -0.2997
18069SOL     OW56648   3.303   5.346   7.584  0.5124 -0.8673 -0.3490
18069SOL    HW156649   3.395   5.362   7.607  0.0843 -0.5557  1.2743
18069SOL    HW256650   3.274   5.427   7.541  0.7811 -0.6632 -0.1473
18070SOL     OW56651   9.835   9.104   5.214 -0.3864  0.2638  0.3658
18070SOL    HW156652   9.765   9.154   5.172 -0.1230  0.9410  0.7275
18070SOL    HW256653   9.803   9.089   5.303 -0.2649  0.1770  0.3951
18071SOL     OW56654   9.601   1.555   4.640 -0.2558 -0.0715 -0.1051
18071SOL    HW156655   9.530   1.547   4.704 -1.4015 -0.5503 -1.3729
18071SOL    HW256656   9.610   1.468   4.603  2.1304 -0.4080  1.1192
18072SOL     OW56657   4.076   2.040   6.369 -0.2046  0.3622  0.2149
18072SOL    HW156658   4.137   2.016   6.298 -0.3717 -0.4736  0.3442
18072SOL    HW256659   4.018   2.105   6.329  0.9330  1.3820  0.1666
18073SOL     OW56660   0.626   0.394   9.453  0.4871  0.3355 -0.3306
18073SOL    HW156661   0.572   0.422   9.527  0.5731  3.5883 -1.3150
18073SOL    HW256662   0.715   0.393   9.488  0.3150 -0.0868  0.0955
18074SOL     OW56663   6.797   8.848   1.632  0.1525 -0.2508 -0.0889
18074SOL    HW156664   6.769   8.938   1.652  0.9510  0.4172 -1.7957
18074SOL    HW256665   6.889   8.857   1.606  0.0891 -1.5007 -0.8036
18075SOL     OW56666  10.309   1.476   7.218  0.4197 -0.2915  0.5742
18075SOL    HW156667  10.255   1.503   7.293  0.1157 -0.9731  0.6156
18075SOL    HW256668  10.276   1.389   7.196  0.8557 -0.3079 -0.0299
18076SOL     OW56669   0.966   3.764  10.427 -0.0786  0.0001  0.1994
18076SOL    HW156670   0.938   3.673  10.437  1.2152 -0.4715 -0.1655
18076SOL    HW256671   1.061   3.761  10.442 -0.2812  1.6269  2.1445
18077SOL     OW56672   4.098   5.194   9.725 -0.0234  0.4834 -0.1498
18077SOL    HW156673   4.138   5.276   9.695  0.0120  0.1664 -0.9877
18077SOL    HW256674   4.172   5.134   9.736 -0.0575  0.5325  0.3900
18078SOL     OW56675  10.006   6.820   4.357 -0.1587 -0.4552 -0.0005
18078SOL    HW156676  10.014   6.757   4.429 -1.0663 -0.1476  0.3911
18078SOL    HW256677   9.933   6.877   4.384  0.2083  0.3444 -0.6574
18079SOL     OW56678   9.915   9.595   1.559  0.1760 -0.2147  0.0699
18079SOL    HW156679   9.823   9.601   1.583  0.1827 -1.7168  0.5472
18079SOL    HW256680   9.949   9.683   1.574 -0.7439 -0.1033  1.7107
18080SOL     OW56681   1.630   5.038   8.232  1.0529  0.1874 -0.0032
18080SOL    HW156682   1.607   5.105   8.167 -0.3666 -1.6585 -1.5407
18080SOL    HW256683   1.710   4.999   8.198 -0.2902 -1.5374 -1.3763
18081SOL     OW56684   8.508   5.524   0.505 -0.4157  0.1111  0.2760
18081SOL    HW156685   8.558   5.544   0.584  2.1038  0.5377 -1.3055
18081SOL    HW256686   8.525   5.431   0.488  0.8374  0.5170 -0.8666
18082SOL     OW56687   8.200  10.136   0.527 -0.5769 -0.5763 -0.2402
18082SOL    HW156688   8.148  10.117   0.605 -2.1809  0.0572 -1.1202
18082SOL    HW256689   8.137  10.140   0.456  0.6115  0.6878 -1.2798
18083SOL     OW56690   3.724   4.486   2.285 -0.0431  0.2008  0.4709
18083SOL    HW156691   3.650   4.530   2.327  0.9483 -0.5734  3.2606
18083SOL    HW256692   3.689   4.455   2.201 -2.5652  0.7869  1.2153
18084SOL     OW56693   4.623   9.253   7.415  0.4328  0.4055  0.2243
18084SOL    HW156694   4.555   9.231   7.351  0.4806  0.4717  0.1511
18084SOL    HW256695   4.704   9.258   7.365  0.8411 -1.5730  0.6123
18085SOL     OW56696   7.246   0.947   5.969  0.3426 -0.1200  0.5953
18085SOL    HW156697   7.168   0.919   5.921  1.0711  0.9410 -1.2906
18085SOL    HW256698   7.272   0.870   6.019 -1.4680 -0.7185  0.6791
18086SOL     OW56699   8.602   1.018   8.345  0.1511  0.2202  0.2028
18086SOL    HW156700   8.519   0.979   8.373 -1.0177  2.2869 -0.1923
18086SOL    HW256701   8.596   1.022   8.250  0.5083  0.7593  0.1953
18087SOL     OW56702   6.416   5.377   4.660 -0.4586 -0.2442 -0.4750
18087SOL    HW156703   6.483   5.445   4.665  0.0209 -0.6432 -1.4052
18087SOL    HW256704   6.339   5.417   4.700 -0.1663  0.8169 -0.9513
18088SOL     OW56705   0.171   7.721   5.242  0.0945  0.1057 -0.4149
18088SOL    HW156706   0.235   7.784   5.276 -0.0614  0.5716 -0.9705
18088SOL    HW256707   0.124   7.690   5.319  2.8604 -2.4280  0.4586
18089SOL     OW56708   5.110   1.783   2.796 -0.6731 -0.3396  0.1970
18089SOL    HW156709   5.102   1.865   2.747  0.6146 -0.3714 -0.1158
18089SOL    HW256710   5.106   1.714   2.729 -0.2328 -0.4453  0.2736
18090SOL     OW56711   5.657   5.135   2.373 -0.1972  0.1747 -0.5415
18090SOL    HW156712   5.698   5.155   2.289  0.0130 -0.3938 -0.5786
18090SOL    HW256713   5.596   5.064   2.353  0.3843 -0.4693 -0.0896
18091SOL     OW56714   1.329   3.753   9.288 -0.6004 -0.1361 -0.1740
18091SOL    HW156715   1.402   3.747   9.350 -0.2224  3.5708 -0.0327
18091SOL    HW256716   1.368   3.727   9.204  0.8083  1.2334  0.0051
18092SOL     OW56717   0.866   5.507   9.436 -0.5233 -0.0215  0.2245
18092SOL    HW156718   0.951   5.510   9.392 -0.9007  0.0346 -0.5175
18092SOL    HW256719   0.854   5.596   9.471 -0.2221 -0.0675  0.4505
18093SOL     OW56720   4.020   9.590   5.353  0.0498 -0.1682  0.4489
18093SOL    HW156721   3.954   9.545   5.406  2.2680  0.3781  4.0213
18093SOL    HW256722   4.103   9.549   5.379  1.3031 -1.3906 -4.4032
18094SOL     OW56723   1.752   5.741   3.172  0.3920  0.0566 -0.0382
18094SOL    HW156724   1.743   5.657   3.126  3.9390 -0.2316 -0.4614
18094SOL    HW256725   1.726   5.806   3.107 -1.5708 -0.6080  0.0103
18095SOL     OW56726   7.091   8.336   6.550 -1.1588  0.1844  0.7279
18095SOL    HW156727   7.112   8.342   6.457  0.8939  0.6872  1.1872
18095SOL    HW256728   7.010   8.387   6.560 -1.6226 -0.2055 -0.8153
18096SOL     OW56729   8.633   4.667   1.868  0.8339 -0.1122 -0.5093
18096SOL    HW156730   8.715   4.642   1.911 -0.4361 -2.4054  0.7900
18096SOL    HW256731   8.588   4.721   1.933 -0.0718 -1.6318  0.1770
18097SOL     OW56732   2.734  10.271   8.734  0.1019  0.0761 -0.2535
18097SOL    HW156733   2.759  10.362   8.750  0.6938 -0.4215  2.1064
18097SOL    HW256734   2.680  10.248   8.810  1.5073 -2.0628  0.1948
18098SOL     OW56735  10.238   6.641   6.962  0.0800  0.8039 -0.2386
18098SOL    HW156736  10.242   6.715   6.900  0.9733  0.9798  0.0219
18098SOL    HW256737  10.310   6.657   7.023  0.2230 -0.2420 -0.1258
18099SOL     OW56738   9.641   9.052   6.256 -0.1566  0.8463 -0.0491
18099SOL    HW156739   9.559   9.093   6.284 -0.4863  0.7171 -0.7967
18099SOL    HW256740   9.613   8.977   6.202  0.4469  0.0928  0.6751
18100SOL     OW56741  10.069   0.685   7.977  0.0972  0.2484  0.5386
18100SOL    HW156742  10.109   0.761   8.019 -0.2814  0.5693  0.3223
18100SOL    HW256743  10.108   0.609   8.022  1.1980  0.5397  0.0996
18101SOL     OW56744   0.701   1.922   3.378 -0.0150  0.5033  0.3527
18101SOL    HW156745   0.663   1.947   3.294  0.7484 -1.2433 -0.5602
18101SOL    HW256746   0.633   1.868   3.419  1.3944 -2.9263 -1.4369
18102SOL     OW56747   8.416   5.745  10.011  0.0294 -0.5665 -0.1113
18102SOL    HW156748   8.488   5.742  10.075 -0.2371  0.8028  0.2873
18102SOL    HW256749   8.342   5.704  10.057 -0.3781  1.1003  0.7939
18103SOL     OW56750   4.940   6.356   8.331 -0.3821 -0.2420 -0.6498
18103SOL    HW156751   4.998   6.334   8.404 -0.4454 -2.2536 -1.1442
18103SOL    HW256752   4.992   6.414   8.275 -0.2682  1.1793  0.8515
18104SOL     OW56753   3.578  10.291   9.371  0.0644  0.4624 -0.0607
18104SOL    HW156754   3.619  10.355   9.313  0.6841 -1.1983 -1.5543
18104SOL    HW256755   3.627  10.297   9.453  0.0622  1.9032 -0.1445
18105SOL     OW56756   1.902   9.253   3.918 -0.6007  0.0306  0.5079
18105SOL    HW156757   1.826   9.245   3.861  0.5612 -0.8537 -0.9924
18105SOL    HW256758   1.913   9.348   3.930 -1.8990  0.1716  0.7422
18106SOL     OW56759   8.581   2.985   3.853  0.3879  0.0059 -0.1874
18106SOL    HW156760   8.541   2.940   3.927  0.3820 -0.8045 -0.6589
18106SOL    HW256761   8.645   2.921   3.819 -0.1186  0.0626 -1.3125
18107SOL     OW56762   6.793   6.919   6.905 -0.2410  0.1515 -0.4378
18107SOL    HW156763   6.792   6.930   7.000 -1.9621  1.0362 -0.5327
18107SOL    HW256764   6.743   6.839   6.889  0.2465 -0.1290 -0.6167
18108SOL     OW56765   7.160   2.371   5.533  0.1084  0.4511  0.2050
18108SOL    HW156766   7.157   2.446   5.593  2.2888 -1.8734  3.5848
18108SOL    HW256767   7.121   2.299   5.582 -3.6137 -0.5223 -3.5634
18109SOL     OW56768   6.604   9.843   9.084 -0.3551  0.0442 -0.5648
18109SOL    HW156769   6.568   9.899   9.016  2.5787  0.1802 -2.1842
18109SOL    HW256770   6.641   9.904   9.148 -3.2358 -0.0772  1.4058
18110SOL     OW56771   5.317   0.367   2.086 -0.3625 -0.3984  0.0244
18110SOL    HW156772   5.384   0.380   2.153  1.2664  0.0763 -1.6116
18110SOL    HW256773   5.291   0.275   2.097  0.5639 -0.6006  0.7119
18111SOL     OW56774   7.727   1.428   0.836 -0.3310  0.0358 -0.0339
18111SOL    HW156775   7.798   1.439   0.772 -1.5240  1.6362 -1.1401
18111SOL    HW256776   7.647   1.445   0.787 -1.2687  1.8731  1.9839
18112SOL     OW56777   3.986  10.015   6.407 -0.2890 -0.1606 -0.0054
18112SOL    HW156778   4.066  10.019   6.355  0.3360 -2.7321  0.6241
18112SOL    HW256779   3.948   9.929   6.386 -0.9047 -0.5598  2.4537
18113SOL     OW56780   1.786   0.489   1.301 -0.0760  0.2122  0.3428
18113SOL    HW156781   1.804   0.399   1.327 -0.8164  0.3159  1.3155
18113SOL    HW256782   1.692   0.489   1.281 -0.1553  0.8209  0.6772
18114SOL     OW56783   3.240   3.516   4.914  0.5024  0.5055  0.0767
18114SOL    HW156784   3.174   3.566   4.865  0.5439  0.1435 -0.3644
18114SOL    HW256785   3.267   3.448   4.853 -0.0817 -0.5057  0.9259
18115SOL     OW56786   8.707   4.013   4.815 -1.0476  0.0252  0.0544
18115SOL    HW156787   8.794   4.054   4.822 -0.9382 -0.5488  3.1506
18115SOL    HW256788   8.678   4.036   4.727  2.9489 -1.2395 -1.8466
18116SOL     OW56789   7.773   3.659   2.821  0.7225 -0.0554 -0.3859
18116SOL    HW156790   7.751   3.752   2.812  1.4264  0.0287 -1.5073
18116SOL    HW256791   7.864   3.659   2.851  0.7138 -0.3873 -0.3531
18117SOL     OW56792   2.210   5.584   8.779 -0.3503  0.0002  0.0697
18117SOL    HW156793   2.277   5.646   8.750 -1.0117  1.4303  1.4788
18117SOL    HW256794   2.246   5.545   8.859  0.0358 -1.4531 -0.7713
18118SOL     OW56795   8.794   9.530   1.311  0.3869  0.2537  0.0925
18118SOL    HW156796   8.890   9.532   1.310  0.4354 -0.9170  0.2048
18118SOL    HW256797   8.772   9.522   1.404  0.1509  1.1246  0.1157
18119SOL     OW56798   7.538   5.875   5.923  0.6922 -0.0400 -0.2075
18119SOL    HW156799   7.511   5.954   5.970  0.8317 -1.7148  2.9836
18119SOL    HW256800   7.603   5.906   5.860  0.6586  2.4115  0.8287
18120SOL     OW56801   5.820   9.105   5.528  0.5330  0.3661  0.0729
18120SOL    HW156802   5.752   9.104   5.461  0.7449  0.3078 -0.1427
18120SOL    HW256803   5.772   9.099   5.611  0.3684 -1.3749 -0.1270
18121SOL     OW56804   1.841   3.146   1.900 -0.0602  0.2108 -0.2402
18121SOL    HW156805   1.868   3.186   1.983 -0.2479  0.2475 -0.1970
18121SOL    HW256806   1.795   3.067   1.926  1.2647 -0.6231 -0.3527
18122SOL     OW56807   3.676   7.830   4.010 -0.5883 -0.9907  0.3409
18122SOL    HW156808   3.704   7.838   4.101  0.0692 -0.1626  0.0782
18122SOL    HW256809   3.582   7.848   4.012 -0.5628 -0.8939  0.8412
18123SOL     OW56810   1.470   4.809   3.049  0.0058  0.0587  0.2631
18123SOL    HW156811   1.473   4.818   2.954  1.0301  2.0026  0.4289
18123SOL    HW256812   1.377   4.821   3.071 -0.1304  0.3317 -0.4301
18124SOL     OW56813   7.542   5.814   2.691  0.4488 -0.4039  0.1977
18124SOL    HW156814   7.588   5.826   2.775  0.0886  0.9067  0.2177
18124SOL    HW256815   7.576   5.731   2.658  0.6874 -0.8969  1.5870
18125SOL     OW56816   7.382   9.973   6.101 -0.2019 -0.2779 -0.1740
18125SOL    HW156817   7.342   9.898   6.145  1.0777 -0.2210  1.1471
18125SOL    HW256818   7.459   9.936   6.056  1.2170  0.4121  1.6011
18126SOL     OW56819   2.913   4.067   9.394 -0.1422 -0.2681  0.4777
18126SOL    HW156820   2.909   4.006   9.320 -2.2867 -0.5197  0.7270
18126SOL    HW256821   2.903   4.153   9.354 -1.6077 -0.4234  0.4488
18127SOL     OW56822   0.425   4.788   0.681  0.4401  0.2309 -0.1789
18127SOL    HW156823   0.418   4.884   0.688  1.0252  0.2426  0.3167
18127SOL    HW256824   0.461   4.773   0.594 -1.0587  0.3871 -0.8475
18128SOL     OW56825   0.540   7.299   5.100 -0.2278  0.0236 -0.1675
18128SOL    HW156826   0.552   7.283   5.007 -1.2473  2.4647 -0.8059
18128SOL    HW256827   0.463   7.247   5.124  2.4779 -4.2014  0.5478
18129SOL     OW56828   6.007   4.057   4.305  0.4362  0.3581 -0.2126
18129SOL    HW156829   5.946   3.998   4.348  0.9573 -0.6257 -0.7859
18129SOL    HW256830   6.020   4.128   4.367 -0.2723 -0.0843  0.4560
18130SOL     OW56831   3.867   3.484   7.137 -0.5669  0.0727  0.2731
18130SOL    HW156832   3.949   3.470   7.185 -1.0341 -1.2948  0.7277
18130SOL    HW256833   3.804   3.427   7.180 -1.0535 -1.0996 -1.8247
18131SOL     OW56834   0.898   9.618   6.348  0.4394  0.3631 -0.7515
18131SOL    HW156835   0.928   9.592   6.261  0.0841  1.5293 -1.2466
18131SOL    HW256836   0.891   9.536   6.397  0.1961 -0.3659 -1.9695
18132SOL     OW56837   7.380   4.406   4.561  0.1236 -0.4122 -0.3004
18132SOL    HW156838   7.449   4.362   4.511  0.1225  0.7036 -1.3348
18132SOL    HW256839   7.424   4.483   4.598 -0.1370 -0.6706  0.5648
18133SOL     OW56840   5.061   2.877   5.937  0.5858 -0.5434 -0.1261
18133SOL    HW156841   5.095   2.965   5.920  0.1713 -0.4762 -0.6121
18133SOL    HW256842   5.131   2.834   5.987  0.6177  0.1961  0.4898
18134SOL     OW56843   8.543   6.237   1.144 -0.7303  0.1428 -0.1642
18134SOL    HW156844   8.461   6.234   1.193 -0.1503  1.2953  0.9346
18134SOL    HW256845   8.593   6.162   1.176  0.0832  1.4840  1.8985
18135SOL     OW56846   8.378   8.082   6.863 -0.1239  0.2940  0.0317
18135SOL    HW156847   8.387   8.025   6.939  0.7165  1.9587  1.2437
18135SOL    HW256848   8.442   8.049   6.800 -0.6733 -0.9599  0.0873
18136SOL     OW56849   1.965   2.036   2.627 -0.3993 -0.6180 -0.0435
18136SOL    HW156850   2.049   2.005   2.594 -0.6907 -1.2463 -0.2325
18136SOL    HW256851   1.986   2.093   2.700  0.1826 -0.9629  0.0588
18137SOL     OW56852   8.037   9.104   5.206 -0.2153  0.9608 -0.2115
18137SOL    HW156853   8.108   9.067   5.259 -0.8266 -0.5398 -0.3750
18137SOL    HW256854   7.995   9.168   5.263  0.6457  1.1431  0.2351
18138SOL     OW56855   1.191   9.020   7.616  0.1712  0.8730  0.0848
18138SOL    HW156856   1.167   8.939   7.572  0.0159 -0.0630  1.7827
18138SOL    HW256857   1.107   9.059   7.641  0.2623  1.2131 -0.1335
18139SOL     OW56858   1.680   4.260   3.027 -0.0445  0.0049 -0.8034
18139SOL    HW156859   1.622   4.250   3.102  2.2458 -0.5846  1.0095
18139SOL    HW256860   1.706   4.170   3.006 -0.7287  0.1509 -2.4263
18140SOL     OW56861   7.591   2.248   8.992 -0.2205 -0.2763  0.7971
18140SOL    HW156862   7.649   2.316   8.958 -3.7816  0.5932 -4.7765
18140SOL    HW256863   7.620   2.168   8.949 -0.2595 -0.9108  1.8989
18141SOL     OW56864   5.648   6.161   1.924 -0.3864 -0.0861  0.3581
18141SOL    HW156865   5.662   6.241   1.974 -2.2189  1.0513 -0.8488
18141SOL    HW256866   5.622   6.191   1.836  0.7034 -2.0073 -0.7012
18142SOL     OW56867   6.259   6.900   5.737 -0.2201  0.4040  0.1046
18142SOL    HW156868   6.305   6.885   5.820 -1.0236 -0.1976  0.4671
18142SOL    HW256869   6.166   6.898   5.761 -0.4864  3.5198 -0.2600
18143SOL     OW56870   3.532   2.043   7.913  0.0574 -0.1679  0.1371
18143SOL    HW156871   3.536   1.965   7.857  0.5097  0.1287 -0.2505
18143SOL    HW256872   3.549   2.116   7.853 -0.1311  0.2112  0.5404
18144SOL     OW56873   7.902   7.424   3.889  0.2017  0.2131 -0.7235
18144SOL    HW156874   7.871   7.453   3.803  1.8865  1.3058 -0.9923
18144SOL    HW256875   7.988   7.387   3.873  1.1194  1.6210  0.6435
18145SOL     OW56876   4.839   3.044   2.228 -0.3881  0.5846  0.0759
18145SOL    HW156877   4.750   3.042   2.261  0.3845 -0.6244  2.2915
18145SOL    HW256878   4.855   2.955   2.197  0.6007  0.2933  1.3619
18146SOL     OW56879   0.319   4.064   5.093 -0.1673  0.1357  0.7380
18146SOL    HW156880   0.255   4.129   5.122  0.0637  1.3438 -1.2278
18146SOL    HW256881   0.321   3.998   5.162 -1.7774  1.2899  1.9395
18147SOL     OW56882   1.095   4.743   5.630  0.0595 -0.2619  0.0731
18147SOL    HW156883   1.164   4.798   5.593 -0.2560  0.7722  0.9580
18147SOL    HW256884   1.014   4.791   5.612 -0.2030 -0.3101  1.0578
18148SOL     OW56885   7.025   8.506   4.333  0.1290 -0.1384 -0.5272
18148SOL    HW156886   6.990   8.591   4.307 -3.0302 -0.8382  0.9068
18148SOL    HW256887   7.079   8.478   4.259 -2.1851  1.2568 -2.9070
18149SOL     OW56888   7.872   7.276   1.118 -0.0267  0.1289  0.5285
18149SOL    HW156889   7.848   7.186   1.099  1.0417  0.0601 -0.6434
18149SOL    HW256890   7.907   7.309   1.036 -0.5611  1.6770  0.8912
18150SOL     OW56891   7.656   8.189   3.275  0.3042  0.5808  0.0300
18150SOL    HW156892   7.694   8.267   3.234  0.9036 -0.7491 -2.0989
18150SOL    HW256893   7.707   8.117   3.240 -1.0140 -0.8798  1.0090
18151SOL     OW56894   6.399   7.454   1.220  0.6435 -0.3097 -0.4470
18151SOL    HW156895   6.457   7.378   1.208 -0.1044 -0.7804 -1.1679
18151SOL    HW256896   6.387   7.489   1.132  0.3517  0.1689 -0.2169
18152SOL     OW56897   3.917   9.617   5.856 -0.8348 -0.1793  0.7798
18152SOL    HW156898   3.929   9.699   5.905  0.1708 -0.9244  1.8171
18152SOL    HW256899   3.892   9.646   5.768  0.4274  1.2929  0.8561
18153SOL     OW56900   0.325   2.759   0.251 -0.3345  0.4922  0.1112
18153SOL    HW156901   0.247   2.708   0.230 -2.1050  3.2011 -0.3926
18153SOL    HW256902   0.368   2.710   0.321 -2.6679 -0.9251  0.6483
18154SOL     OW56903   4.107   9.046   3.453  0.2846  0.1363 -0.3051
18154SOL    HW156904   4.100   9.076   3.362 -0.7967  2.4348  0.4605
18154SOL    HW256905   4.201   9.041   3.469  0.5016 -0.6819 -1.6354
18155SOL     OW56906   4.401   3.148   1.871  0.3897 -0.3627 -0.4477
18155SOL    HW156907   4.365   3.207   1.937  0.7076 -0.3902 -0.2440
18155SOL    HW256908   4.332   3.139   1.806  0.2726  0.1005 -0.3935
18156SOL     OW56909   7.573   0.939   4.019 -0.4734 -0.5546  0.2704
18156SOL    HW156910   7.506   1.000   3.987  0.9204  1.2305  0.6004
18156SOL    HW256911   7.537   0.852   4.000 -2.5251  0.3450 -0.2524
18157SOL     OW56912   5.843   3.564   5.155 -0.3459  0.1114 -0.4078
18157SOL    HW156913   5.820   3.648   5.194  1.6261  0.2355  0.5859
18157SOL    HW256914   5.796   3.499   5.208  0.4035  0.4235  0.6566
18158SOL     OW56915   1.893   2.973   1.675  0.1127 -0.2417  0.0060
18158SOL    HW156916   1.886   3.043   1.739  0.6585  0.0072 -0.2087
18158SOL    HW256917   1.986   2.954   1.668  0.2784  1.0280 -2.1032
18159SOL     OW56918   9.192   6.622   6.222 -0.1293  0.5384  0.2466
18159SOL    HW156919   9.228   6.703   6.185 -0.1266  0.2027 -0.4967
18159SOL    HW256920   9.134   6.652   6.293 -1.1579  1.2709 -0.8661
18160SOL     OW56921  10.000   3.941   7.949  0.1785  0.0561  0.0188
18160SOL    HW156922   9.910   3.961   7.926 -0.1469 -1.3601 -0.0626
18160SOL    HW256923  10.020   3.861   7.900  1.5796  0.5027 -0.1893
18161SOL     OW56924   1.534   1.363   0.286 -0.9080  0.4292  0.0497
18161SOL    HW156925   1.577   1.313   0.217 -1.6307  0.7011 -0.6173
18161SOL    HW256926   1.605   1.389   0.345 -0.7260 -3.2497  1.7152
18162SOL     OW56927   5.272   4.414   7.377  0.0975 -0.2719 -0.2606
18162SOL    HW156928   5.301   4.473   7.307 -0.1357 -0.1727 -0.2754
18162SOL    HW256929   5.345   4.413   7.439  0.1127  0.0144 -0.2716
18163SOL     OW56930   1.574  10.022   0.948  0.1946  0.2763  0.0270
18163SOL    HW156931   1.577  10.047   0.856  0.2043 -1.1463 -0.3786
18163SOL    HW256932   1.665  10.007   0.972  0.1796  0.5147  0.2447
18164SOL     OW56933   6.613  10.095   7.424  0.0165  0.3577 -0.3661
18164SOL    HW156934   6.531  10.081   7.377  0.1975 -0.6318 -0.3972
18164SOL    HW256935   6.623  10.018   7.480 -0.0775  1.3990  1.1456
18165SOL     OW56936   3.116   8.581   1.944  0.2766  1.0870  0.1424
18165SOL    HW156937   3.082   8.641   1.878  0.0046  1.0725  0.2709
18165SOL    HW256938   3.211   8.586   1.933  0.2147  0.4766 -0.7947
18166SOL     OW56939   5.281  10.138   1.211  0.1460 -0.5707  0.1033
18166SOL    HW156940   5.374  10.149   1.231  0.2577 -0.1293 -0.6339
18166SOL    HW256941   5.249  10.078   1.278  0.8054 -0.1685  0.7881
18167SOL     OW56942   7.691   1.703   3.589  0.0727 -0.0440 -0.4586
18167SOL    HW156943   7.679   1.798   3.597 -1.1318 -0.2185 -0.0303
18167SOL    HW256944   7.678   1.685   3.496 -2.5700 -0.1257 -0.1324
18168SOL     OW56945   3.394   3.304   3.715 -0.1104  0.0589  0.0723
18168SOL    HW156946   3.398   3.280   3.622 -0.3851 -0.0458  0.0858
18168SOL    HW256947   3.307   3.274   3.743 -0.0760  0.2050  0.3313
18169SOL     OW56948   0.255   6.423   5.496 -0.3171  0.1532  0.0683
18169SOL    HW156949   0.240   6.497   5.556 -0.4080  0.2707 -0.1001
18169SOL    HW256950   0.221   6.347   5.544  0.2381  0.1403  0.4529
18170SOL     OW56951   8.282   3.889   3.794 -0.0283  0.3652  0.1430
18170SOL    HW156952   8.340   3.951   3.752 -0.9002  1.6396  0.7508
18170SOL    HW256953   8.332   3.856   3.869  0.0087  1.2861  0.5383
18171SOL     OW56954   5.877   2.946   5.628 -0.5042 -0.1808 -0.5010
18171SOL    HW156955   5.916   2.867   5.592  1.0108  0.9327 -1.4212
18171SOL    HW256956   5.922   2.959   5.712 -0.6757 -0.2476 -0.3997
18172SOL     OW56957   0.877   9.137   1.331 -0.2365  0.3725 -0.2422
18172SOL    HW156958   0.968   9.155   1.353 -0.3589 -1.1027  1.6434
18172SOL    HW256959   0.836   9.224   1.329  0.8698  0.9347  0.4904
18173SOL     OW56960   1.486   0.718   5.903  0.4469  0.0935  0.3782
18173SOL    HW156961   1.493   0.733   5.997 -1.4571  3.4106  0.1748
18173SOL    HW256962   1.395   0.692   5.890  0.6434 -0.1590 -0.5555
18174SOL     OW56963   9.685   5.414   1.874  0.9847  0.1141  0.5631
18174SOL    HW156964   9.744   5.486   1.855 -1.3702  1.8740 -0.6401
18174SOL    HW256965   9.633   5.443   1.948  0.1730 -0.4463  0.2344
18175SOL     OW56966   6.771   6.286   6.563 -0.9038 -0.6206  0.7544
18175SOL    HW156967   6.832   6.226   6.607  0.6891 -0.0046 -0.5111
18175SOL    HW256968   6.753   6.244   6.479 -1.1956 -0.1813  0.5952
18176SOL     OW56969   0.519   7.730   3.926  0.0310  0.1331 -0.0305
18176SOL    HW156970   0.566   7.737   4.009  2.3354 -1.2363 -1.1419
18176SOL    HW256971   0.543   7.645   3.891  0.8924  1.4910 -3.1002
18177SOL     OW56972  10.337   3.625   5.446 -0.2703  0.3746 -0.1960
18177SOL    HW156973  10.360   3.647   5.355 -2.1657  0.3005 -0.7435
18177SOL    HW256974  10.283   3.546   5.439  0.8511 -0.5579  1.1672
18178SOL     OW56975   8.543   6.516   5.967  0.4046  0.0742 -0.0596
18178SOL    HW156976   8.448   6.525   5.968  0.3984  0.1602 -0.7248
18178SOL    HW256977   8.576   6.602   5.993  0.3046  0.0389  0.1891
18179SOL     OW56978   8.112   2.262   6.951 -0.3783  0.1699 -0.1667
18179SOL    HW156979   8.151   2.273   7.037 -0.9558  2.0144 -0.0836
18179SOL    HW256980   8.172   2.309   6.892 -0.3649 -0.4527 -0.6535
18180SOL     OW56981   4.631   4.710   6.186 -0.1875 -0.2292  0.0969
18180SOL    HW156982   4.704   4.771   6.192 -1.2113  1.0760 -0.0458
18180SOL    HW256983   4.564   4.747   6.244 -1.2991 -0.5094 -0.9518
18181SOL     OW56984   8.539   3.327   3.467  0.4087  0.4352 -0.9835
18181SOL    HW156985   8.622   3.284   3.442 -0.4033 -0.9705 -1.3814
18181SOL    HW256986   8.474   3.289   3.408 -0.5702  1.3783 -0.5431
18182SOL     OW56987   8.642   0.966   7.772 -0.1157 -0.5203 -0.1426
18182SOL    HW156988   8.675   0.878   7.754 -1.4770 -1.0094 -0.3076
18182SOL    HW256989   8.721   1.019   7.781  0.7189 -1.6552 -0.5295
18183SOL     OW56990   0.178   5.035   5.517  0.6563  0.5063 -0.5030
18183SOL    HW156991   0.216   4.949   5.501 -0.9372 -0.4645  0.6771
18183SOL    HW256992   0.121   5.051   5.441  0.8563  0.4853 -0.6596
18184SOL     OW56993   0.268   2.530   4.878  0.6824  0.6797  0.5279
18184SOL    HW156994   0.229   2.548   4.792  1.6823  0.1658 -0.0544
18184SOL    HW256995   0.215   2.581   4.939  0.8232  2.2314 -0.5612
18185SOL     OW56996   1.852   4.817   0.592  0.1849  0.5806  0.3485
18185SOL    HW156997   1.922   4.751   0.594 -0.4855 -0.1360  2.1081
18185SOL    HW256998   1.784   4.778   0.536 -0.5990 -0.7022  2.1165
18186SOL     OW56999   9.490   5.136   1.605 -0.4161 -0.0182  0.5661
18186SOL    HW157000   9.582   5.161   1.598 -0.3866 -0.3710 -0.4878
18186SOL    HW257001   9.458   5.182   1.683  0.8250 -0.4589  1.3711
18187SOL     OW57002   7.268   9.298   8.414  0.3276  0.1953  0.2108
18187SOL    HW157003   7.273   9.263   8.503  2.7080 -0.8044 -0.2374
18187SOL    HW257004   7.282   9.392   8.424 -3.3638  0.8255  1.1610
18188SOL     OW57005   6.338  10.315   2.715  0.0071  0.2382 -0.3176
18188SOL    HW157006   6.378  10.357   2.639  2.1882 -2.2248 -0.6682
18188SOL    HW257007   6.381  10.356   2.790 -0.2131  0.8257 -0.5083
18189SOL     OW57008  10.470   8.128   8.837  0.0534  0.6113  0.0715
18189SOL    HW157009  10.517   8.204   8.801  1.0639 -0.0258  0.0167
18189SOL    HW257010  10.478   8.137   8.932  3.3316 -1.2549  0.1206
18190SOL     OW57011   3.628   7.727   5.917  0.3021  0.3581 -0.1710
18190SOL    HW157012   3.674   7.759   5.840  0.6657 -1.0366 -0.5511
18190SOL    HW257013   3.663   7.639   5.932 -0.7633  0.0655  0.7538
18191SOL     OW57014   9.377   7.033   2.450  0.2709 -0.2997 -0.3607
18191SOL    HW157015   9.314   6.974   2.492 -0.4869  0.3062 -0.6044
18191SOL    HW257016   9.341   7.121   2.465  1.9153  0.2048  0.8863
18192SOL     OW57017   0.196   7.123   9.362 -0.3433 -0.0876 -0.4459
18192SOL    HW157018   0.217   7.046   9.414 -0.8889 -0.1042 -0.2413
18192SOL    HW257019   0.229   7.103   9.275 -1.1479 -0.8793 -0.5869
18193SOL     OW57020   8.468   8.069  10.477  0.0200  0.2034 -0.3272
18193SOL    HW157021   8.548   8.018  10.461 -0.1197 -0.3874  0.7455
18193SOL    HW257022   8.397   8.011  10.450 -0.0903  0.2523 -0.1475
18194SOL     OW57023   6.952  10.184   7.797 -0.5767 -0.1308 -0.1802
18194SOL    HW157024   6.925  10.239   7.871 -0.3033 -0.1771 -0.0448
18194SOL    HW257025   6.980  10.246   7.730  1.8738 -0.1019  0.7697
18195SOL     OW57026   3.395   5.031   2.569  0.3602  0.3434 -0.7046
18195SOL    HW157027   3.437   5.004   2.488 -1.6024  0.4990 -1.8299
18195SOL    HW257028   3.379   4.949   2.617 -0.5748  0.0136 -1.5607
18196SOL     OW57029   9.247   2.637   6.143  0.0142 -0.2878 -0.0507
18196SOL    HW157030   9.220   2.619   6.233 -1.4279 -0.4481 -0.4907
18196SOL    HW257031   9.316   2.574   6.125  0.1301 -0.4247  0.8597
18197SOL     OW57032   3.831   8.876   2.271 -0.2308 -0.3976 -0.3388
18197SOL    HW157033   3.812   8.820   2.347 -1.7661 -0.1231 -0.5012
18197SOL    HW257034   3.926   8.867   2.258 -0.0101 -0.8025  1.3285
18198SOL     OW57035   9.609   0.067   8.808  0.3831 -0.6401  0.2411
18198SOL    HW157036   9.674   0.031   8.868  0.0375 -1.4931  0.1279
18198SOL    HW257037   9.569  -0.010   8.768  1.0339 -0.0989 -1.5600
18199SOL     OW57038  10.386   1.046   3.244  0.5565  0.1755  0.0882
18199SOL    HW157039  10.316   0.996   3.200  1.3429 -1.4785  0.6221
18199SOL    HW257040  10.344   1.128   3.270 -0.7391 -0.0867 -1.0411
18200SOL     OW57041  10.468   3.724   2.034 -0.2251 -0.3537  0.2241
18200SOL    HW157042  10.502   3.790   2.095  0.0450 -0.6371  0.3849
18200SOL    HW257043  10.499   3.753   1.948 -1.7002  0.7603  0.0343
18201SOL     OW57044   4.282   1.289   6.751  0.2038  0.5549  0.2572
18201SOL    HW157045   4.201   1.337   6.733  0.7666  1.9373  1.1669
18201SOL    HW257046   4.282   1.279   6.847  0.3212 -0.9125  0.1201
18202SOL     OW57047   1.559  10.105   3.138  0.1216  0.5489  0.3237
18202SOL    HW157048   1.475  10.088   3.096  0.3893  1.0367 -0.4259
18202SOL    HW257049   1.536  10.150   3.220 -0.4134 -0.6299  0.8483
18203SOL     OW57050   2.458   1.273   1.209 -0.3928 -0.1832  0.0305
18203SOL    HW157051   2.394   1.341   1.190 -1.1516 -0.9716 -0.3071
18203SOL    HW257052   2.528   1.287   1.146 -0.6346  0.1641 -0.1596
18204SOL     OW57053   0.758   3.302   2.199  0.1470  0.3683 -0.1364
18204SOL    HW157054   0.778   3.302   2.106 -1.1271  1.4993 -0.4409
18204SOL    HW257055   0.753   3.395   2.223 -1.9194  0.1447  0.4805
18205SOL     OW57056   4.625   7.871   2.979 -0.4152  0.1547 -0.2797
18205SOL    HW157057   4.635   7.873   3.074 -1.0888 -1.0909 -0.1618
18205SOL    HW257058   4.704   7.826   2.948 -1.2915 -1.5632 -0.0956
18206SOL     OW57059   6.501   7.896   5.835  0.6056  0.6004 -0.1930
18206SOL    HW157060   6.532   7.806   5.829 -0.0728  0.3056  0.5425
18206SOL    HW257061   6.555   7.936   5.903  0.4383  0.5420 -0.0246
18207SOL     OW57062   8.683   8.263   9.202 -0.0073 -0.5685 -0.1565
18207SOL    HW157063   8.752   8.197   9.197 -0.7703 -1.4745  0.6745
18207SOL    HW257064   8.640   8.246   9.286 -0.0573  1.1741  0.2162
18208SOL     OW57065   8.329   0.349   3.123  0.3515  0.1419 -0.4339
18208SOL    HW157066   8.377   0.431   3.119 -0.0450  0.4704  1.0728
18208SOL    HW257067   8.395   0.284   3.146  0.0992  0.6197  1.8056
18209SOL     OW57068  10.152   5.979   8.095 -0.2590  0.0070 -0.5389
18209SOL    HW157069  10.155   6.071   8.122  1.1133 -0.0838 -0.3476
18209SOL    HW257070  10.232   5.965   8.046  0.4365 -1.5344  0.9299
18210SOL     OW57071   8.969   2.943   4.912  0.9109 -0.2193 -0.2671
18210SOL    HW157072   8.912   2.866   4.910 -0.5808  0.8253 -1.5151
18210SOL    HW257073   8.962   2.976   5.001 -0.7538  0.0334 -0.4440
18211SOL     OW57074   2.237   5.077   5.740 -0.1838  0.1285 -0.0628
18211SOL    HW157075   2.189   4.995   5.728  1.0758 -0.8272  1.1474
18211SOL    HW257076   2.244   5.114   5.652  0.0821 -1.5641 -0.7848
18212SOL     OW57077   2.133   2.815   8.321 -0.5001 -0.1781  0.0871
18212SOL    HW157078   2.211   2.841   8.371 -1.1118 -0.7045  1.3614
18212SOL    HW257079   2.130   2.720   8.329 -1.3319 -0.1533  0.1424
18213SOL     OW57080   9.050   6.078   0.404  0.2359  0.1214  0.0123
18213SOL    HW157081   9.003   6.094   0.486 -0.4918 -0.6440 -0.2439
18213SOL    HW257082   8.984   6.045   0.344  1.2635 -2.1606  0.0017
18214SOL     OW57083   8.525   5.965   0.582 -0.3754 -0.0723  0.3028
18214SOL    HW157084   8.512   5.992   0.491 -1.1155 -0.5277  0.2642
18214SOL    HW257085   8.619   5.948   0.588 -0.5297 -1.5360 -0.8181
18215SOL     OW57086   7.942   5.886   3.031  0.0191 -0.1854  0.3207
18215SOL    HW157087   8.035   5.864   3.036 -0.2788 -1.2539  2.4041
18215SOL    HW257088   7.940   5.981   3.024  1.2649 -0.2844 -2.3367
18216SOL     OW57089   7.089  10.460   6.163 -0.1770 -0.2583 -0.3816
18216SOL    HW157090   7.101  10.462   6.258  1.4632  1.1695 -0.5802
18216SOL    HW257091   7.173  10.431   6.128  0.3476  2.2976 -1.4942
18217SOL     OW57092   2.472   3.522   9.054  0.3466 -0.4936 -0.0479
18217SOL    HW157093   2.504   3.611   9.039 -0.1897 -0.1565  0.7288
18217SOL    HW257094   2.531   3.467   9.004  0.7849  0.2890 -0.4180
18218SOL     OW57095   4.763   3.220   4.181  0.2573  0.1077  0.4265
18218SOL    HW157096   4.682   3.215   4.232  1.1739  0.6684  1.9795
18218SOL    HW257097   4.827   3.172   4.232  1.0275  0.0189 -0.5903
18219SOL     OW57098   6.140   3.501   5.230 -0.1548 -0.2153  0.3780
18219SOL    HW157099   6.128   3.460   5.315  1.2489 -2.8386 -0.5695
18219SOL    HW257100   6.051   3.524   5.201 -0.7983 -0.8155  1.8084
18220SOL     OW57101   1.665   9.330   5.136  0.3501 -0.3839 -0.0904
18220SOL    HW157102   1.708   9.256   5.093  1.0067  0.0851 -0.2548
18220SOL    HW257103   1.713   9.340   5.218 -0.5667 -0.9462  0.5363
18221SOL     OW57104   2.458   4.429   0.531  0.4131  0.4829  0.1354
18221SOL    HW157105   2.547   4.413   0.563  0.7130  2.2781  0.3313
18221SOL    HW257106   2.426   4.344   0.504  1.1220 -0.7216  2.7512
18222SOL     OW57107   6.464   3.506   9.988 -0.0188 -0.1087 -0.3042
18222SOL    HW157108   6.397   3.550  10.041 -0.1557  1.7254 -1.8794
18222SOL    HW257109   6.532   3.572   9.975  1.2298 -1.3435 -0.2936
18223SOL     OW57110   0.316   2.020   8.402 -0.0160  0.4358  0.6124
18223SOL    HW157111   0.246   2.068   8.445 -3.2253 -1.4384 -2.0071
18223SOL    HW257112   0.319   2.056   8.313  1.4524 -0.4206  0.2772
18224SOL     OW57113   0.574   4.925   5.127 -0.4010 -0.1613  0.4379
18224SOL    HW157114   0.622   4.900   5.048 -1.0309  2.7167 -0.9871
18224SOL    HW257115   0.629   4.991   5.169 -0.6255 -0.8096  1.8226
18225SOL     OW57116   3.940   5.271   1.064 -0.2731  0.5741 -0.1124
18225SOL    HW157117   3.944   5.180   1.092 -0.5912  0.2712 -1.0097
18225SOL    HW257118   3.856   5.302   1.095  0.1718  0.8053  0.8844
18226SOL     OW57119   2.801   9.022  10.480 -0.1836 -0.3286  0.0692
18226SOL    HW157120   2.852   9.013  10.560 -0.5242 -0.5744  0.2612
18226SOL    HW257121   2.755   9.105  10.489 -0.2070 -0.3473  0.1202
18227SOL     OW57122   0.762  10.092   0.406 -0.1359 -0.0546 -0.4054
18227SOL    HW157123   0.762  10.161   0.340  0.1768  0.0856 -0.2625
18227SOL    HW257124   0.698  10.028   0.375  0.6969 -0.4530 -1.3297
18228SOL     OW57125   5.660   1.421   4.816  0.5738  0.3370  0.3554
18228SOL    HW157126   5.723   1.353   4.791  0.2480  0.5885 -1.2295
18228SOL    HW257127   5.713   1.489   4.856  1.4624  0.9078 -1.6828
18229SOL     OW57128   9.640   0.261   2.281  0.1339  0.1331  0.2397
18229SOL    HW157129   9.633   0.326   2.351  0.0202 -0.3980  0.7246
18229SOL    HW257130   9.726   0.278   2.242  0.8440 -0.4722  1.4419
18230SOL     OW57131   5.536   1.211   4.289  0.5745  0.4887 -0.3726
18230SOL    HW157132   5.566   1.133   4.337 -0.3485  0.9228  0.9762
18230SOL    HW257133   5.617   1.255   4.263  1.1058 -0.2171  0.0295
18231SOL     OW57134   6.586   3.177   6.567  0.4118 -0.0972 -0.1042
18231SOL    HW157135   6.618   3.158   6.654 -0.4091 -2.4373 -0.2430
18231SOL    HW257136   6.659   3.157   6.509  0.7876  0.9578 -0.0163
18232SOL     OW57137   4.179   0.825   6.456  0.2926  0.6583 -0.2176
18232SOL    HW157138   4.142   0.772   6.384 -2.0724 -0.4266  1.6599
18232SOL    HW257139   4.230   0.763   6.507  0.1680  0.9302  0.2375
18233SOL     OW57140   1.073   6.803   0.099  0.2297 -0.2380  0.0213
18233SOL    HW157141   1.103   6.784   0.187  1.2353 -0.3381 -0.3311
18233SOL    HW257142   1.051   6.717   0.062 -0.0118 -0.2151  0.1127
18234SOL     OW57143   9.864   6.128   9.464 -0.1425  0.4909 -0.0618
18234SOL    HW157144   9.841   6.048   9.511 -1.3354  1.1443  0.5123
18234SOL    HW257145   9.923   6.099   9.394  0.5890 -0.6710  1.0149
18235SOL     OW57146   0.488   2.503   6.813 -0.3499 -0.2570  0.1927
18235SOL    HW157147   0.458   2.593   6.807  0.5596  0.1150  1.0542
18235SOL    HW257148   0.485   2.471   6.722  2.1617  1.6017 -0.6677
18236SOL     OW57149   3.348   6.127   3.817  0.4591  0.3592 -0.2869
18236SOL    HW157150   3.320   6.036   3.827  1.4246  0.0687 -0.1525
18236SOL    HW257151   3.443   6.124   3.824  0.7290  1.0387 -2.7325
18237SOL     OW57152  10.313  10.108   6.618  0.7276 -0.2365 -0.6808
18237SOL    HW157153  10.283  10.075   6.702 -1.0162 -0.4385 -1.3547
18237SOL    HW257154  10.269  10.192   6.608  2.1193  0.5264 -0.7331
18238SOL     OW57155   5.321   5.134   9.752 -0.0738 -0.0586 -0.2989
18238SOL    HW157156   5.350   5.052   9.792  3.2871  1.6798  1.2995
18238SOL    HW257157   5.394   5.161   9.697 -0.1896  2.7524  0.7605
18239SOL     OW57158   4.966   3.616   6.675  0.1349  0.3744  0.1181
18239SOL    HW157159   4.954   3.631   6.581  1.9321  0.2621 -0.1724
18239SOL    HW257160   4.978   3.522   6.683  0.3345  0.4235  0.4138
18240SOL     OW57161   0.202   9.384   4.909 -0.0406 -0.1251 -1.2707
18240SOL    HW157162   0.202   9.319   4.839 -1.2255 -1.4496 -0.1181
18240SOL    HW257163   0.293   9.387   4.939 -0.1711 -2.2338 -0.5278
18241SOL     OW57164   1.510   9.542   7.760  0.0986 -0.4291  0.3710
18241SOL    HW157165   1.429   9.590   7.776  0.1258  0.4312 -1.6836
18241SOL    HW257166   1.533   9.565   7.670  1.3124 -2.5996  0.0668
18242SOL     OW57167   3.329   7.244   5.291  0.5539  0.1255  0.2789
18242SOL    HW157168   3.350   7.336   5.276  0.7483 -0.0253 -0.4059
18242SOL    HW257169   3.393   7.196   5.239 -1.1493 -0.3519 -1.4678
18243SOL     OW57170   7.897   7.830   8.305 -0.2326  0.5088 -0.2499
18243SOL    HW157171   7.897   7.852   8.212 -1.2712 -2.0519 -0.9426
18243SOL    HW257172   7.990   7.817   8.326 -0.0872 -1.3458 -1.6693
18244SOL     OW57173   4.591   4.700   9.389  0.0851  0.1442  0.1949
18244SOL    HW157174   4.639   4.707   9.472  2.0363  0.5266 -0.9211
18244SOL    HW257175   4.588   4.789   9.355 -1.4327  0.1257  0.2046
18245SOL     OW57176   5.685   0.253   3.134 -0.0826 -0.4966  0.0675
18245SOL    HW157177   5.612   0.311   3.153 -1.2041 -1.3552 -1.3974
18245SOL    HW257178   5.692   0.253   3.038  1.4077 -0.9693  0.1371
18246SOL     OW57179   7.536   3.983   9.830 -0.3073  0.3687  0.2169
18246SOL    HW157180   7.484   4.033   9.892 -0.0375  0.5087  0.3332
18246SOL    HW257181   7.617   4.033   9.821 -0.4960  0.5479 -0.5413
18247SOL     OW57182   7.153   5.511   0.447  0.2102  0.3969 -0.5090
18247SOL    HW157183   7.174   5.477   0.534  0.9775 -0.9027 -1.1655
18247SOL    HW257184   7.153   5.433   0.390 -0.8218  1.1338 -1.5797
18248SOL     OW57185   9.968   5.272   9.401 -0.3791 -0.0769 -0.1076
18248SOL    HW157186   9.942   5.348   9.350  0.6666  0.6891  0.4746
18248SOL    HW257187  10.028   5.306   9.467  0.8812 -1.5511 -0.4452
18249SOL     OW57188   7.721   0.275   3.222  1.1750 -0.1977 -0.1105
18249SOL    HW157189   7.699   0.242   3.308  0.6094 -0.6599 -0.4303
18249SOL    HW257190   7.756   0.363   3.238 -1.6586  0.9537  0.3750
18250SOL     OW57191   7.157   4.304   8.739  0.5655  0.0318  0.4587
18250SOL    HW157192   7.139   4.224   8.691  0.5364  1.2681 -1.7401
18250SOL    HW257193   7.079   4.358   8.726  0.1367  0.0553  2.7965
18251SOL     OW57194   8.618   7.232   8.180  0.2714 -0.4189  1.1546
18251SOL    HW157195   8.534   7.245   8.224  0.3401 -0.6027  1.3397
18251SOL    HW257196   8.600   7.163   8.116 -0.3917  1.3107 -0.6271
18252SOL     OW57197   1.429   0.467   8.156 -0.2551 -0.7436  0.2425
18252SOL    HW157198   1.425   0.386   8.206  0.2775 -0.1279  1.3298
18252SOL    HW257199   1.518   0.469   8.121 -0.2123 -0.5514  0.3612
18253SOL     OW57200   7.664   5.805   3.973 -0.3146 -0.0684 -0.6580
18253SOL    HW157201   7.738   5.746   3.972 -0.0338  0.2850 -1.0899
18253SOL    HW257202   7.593   5.756   3.931 -0.1648 -0.1966 -0.7611
18254SOL     OW57203   7.553   5.425   5.621 -0.0032  0.2881 -0.4472
18254SOL    HW157204   7.509   5.347   5.657 -0.4281  1.6266  2.1943
18254SOL    HW257205   7.646   5.401   5.621 -0.2881 -0.9687 -1.7860
18255SOL     OW57206   5.103   9.103   8.639 -0.1829 -0.7185  0.0386
18255SOL    HW157207   5.088   9.169   8.571 -2.0931 -0.1620  0.8963
18255SOL    HW257208   5.103   9.154   8.721  0.4322 -1.5481  0.5646
18256SOL     OW57209   3.592   9.962  10.185 -0.1352 -0.7003 -0.3474
18256SOL    HW157210   3.551  10.048  10.194  2.3987  0.6610 -0.8433
18256SOL    HW257211   3.627   9.943  10.271 -0.4456 -1.1326 -0.3114
18257SOL     OW57212   8.345   3.811   3.173 -0.4888 -0.3048  0.2796
18257SOL    HW157213   8.292   3.778   3.245 -0.0850  0.5305  0.9725
18257SOL    HW257214   8.407   3.871   3.214 -1.2008  1.3314 -0.9206
18258SOL     OW57215   5.845   8.037   8.008 -0.2012  0.0603  0.1027
18258SOL    HW157216   5.815   8.062   8.095  1.5700 -1.1888  1.1369
18258SOL    HW257217   5.899   7.959   8.022  0.2833 -0.0790 -2.0981
18259SOL     OW57218   0.894   4.566   3.391 -0.4228 -0.5006 -0.4907
18259SOL    HW157219   0.881   4.487   3.340 -1.3878 -0.5581 -0.1799
18259SOL    HW257220   0.988   4.578   3.393 -0.1034 -2.7200  1.0898
18260SOL     OW57221   7.110   2.971   3.107 -0.3538 -0.0011 -0.8346
18260SOL    HW157222   7.038   2.964   3.171 -0.0933 -0.2611 -0.5701
18260SOL    HW257223   7.103   2.892   3.054  0.1250 -0.3367 -0.4035
18261SOL     OW57224   3.360   0.794   7.343  0.1207 -0.1747 -0.1850
18261SOL    HW157225   3.380   0.864   7.406  0.8290  0.5716 -1.1943
18261SOL    HW257226   3.378   0.834   7.257 -0.7050 -1.2025 -0.8577
18262SOL     OW57227   0.273   1.698   9.282 -0.6081  0.0889  0.0415
18262SOL    HW157228   0.227   1.670   9.362  0.5562 -0.0370  0.6909
18262SOL    HW257229   0.313   1.617   9.249  1.1808  0.6039  0.8594
18263SOL     OW57230   9.221   1.371   0.308  0.4496 -0.0491 -0.8817
18263SOL    HW157231   9.193   1.381   0.398 -1.0747 -2.0052 -1.0675
18263SOL    HW257232   9.304   1.419   0.303  0.3504  0.4766  1.4102
18264SOL     OW57233   0.937   4.180   5.647  0.7771  0.4580 -0.5345
18264SOL    HW157234   0.930   4.181   5.552 -0.9775  0.4458 -0.4332
18264SOL    HW257235   0.927   4.271   5.673 -1.7553  0.1867 -0.2497
18265SOL     OW57236   6.989   1.148   9.047  0.2733  0.2374  0.0100
18265SOL    HW157237   7.049   1.166   8.974 -1.2664  0.0281 -1.3612
18265SOL    HW257238   7.024   1.199   9.120  0.6152  2.3078 -1.5049
18266SOL     OW57239   0.278   8.525   6.470 -0.0206  0.4146  0.5789
18266SOL    HW157240   0.200   8.489   6.512  0.9392 -0.7732  1.3949
18266SOL    HW257241   0.285   8.613   6.505 -0.4243  0.1745  1.2964
18267SOL     OW57242   4.653   8.402   3.394  0.4407 -0.4186 -0.2962
18267SOL    HW157243   4.565   8.433   3.372 -0.2985 -1.9459  0.3516
18267SOL    HW257244   4.680   8.351   3.317 -0.2482 -1.9267  0.4280
18268SOL     OW57245   3.682   5.017   5.509 -0.4315  0.0117  0.7443
18268SOL    HW157246   3.597   5.043   5.472 -0.7267 -1.1382  0.5841
18268SOL    HW257247   3.661   4.985   5.597 -0.2314 -0.6849  0.5449
18269SOL     OW57248   8.814   7.405   6.571 -0.4945 -0.1228  0.2113
18269SOL    HW157249   8.756   7.443   6.504  0.6715 -1.8627 -1.9328
18269SOL    HW257250   8.878   7.474   6.589 -0.9085  0.4362 -0.3852
18270SOL     OW57251   5.277   5.392   7.851  0.0869  0.0081 -0.7673
18270SOL    HW157252   5.225   5.409   7.930  0.2222  0.4158 -0.7635
18270SOL    HW257253   5.318   5.307   7.867 -1.7970 -1.0754 -1.4120
18271SOL     OW57254   6.970   9.845   0.057 -0.4292  0.2543  0.1354
18271SOL    HW157255   6.964   9.785  -0.017 -0.6112  1.1184 -0.5699
18271SOL    HW257256   6.882   9.881   0.066 -0.0007  1.4835 -0.3808
18272SOL     OW57257   5.131   7.750   3.324  0.2632 -0.1288 -0.4193
18272SOL    HW157258   5.170   7.705   3.249 -0.5938  0.2737 -1.1232
18272SOL    HW257259   5.126   7.683   3.393  2.4702 -0.1189 -0.1663
18273SOL     OW57260   0.674   0.066   2.326 -0.4231 -0.0270  0.2686
18273SOL    HW157261   0.627   0.116   2.393 -0.7667 -0.2039  0.1617
18273SOL    HW257262   0.696  -0.017   2.368 -0.5419 -0.0956  0.1952
18274SOL     OW57263   6.444   7.177   9.034 -0.3435 -0.3162  0.2227
18274SOL    HW157264   6.396   7.209   9.110  1.4436 -0.4850  1.4784
18274SOL    HW257265   6.489   7.254   8.999  1.3097 -0.7802  1.2475
18275SOL     OW57266   4.583   8.232   0.281  0.2274  0.0984  0.4531
18275SOL    HW157267   4.524   8.305   0.261  1.0976  0.4377 -1.0353
18275SOL    HW257268   4.526   8.164   0.317 -0.9304  0.7509 -0.0877
18276SOL     OW57269   4.623   2.583   6.246 -0.3452  0.3741 -0.2948
18276SOL    HW157270   4.583   2.586   6.333  0.6328 -0.4358  0.2063
18276SOL    HW257271   4.644   2.674   6.226 -0.8129  0.5958  0.2027
18277SOL     OW57272   8.518   1.026   5.978 -0.5999  0.5885  0.3318
18277SOL    HW157273   8.492   0.941   6.013 -0.5625  1.5925  3.0509
18277SOL    HW257274   8.603   1.044   6.018  0.5141  0.9679 -2.0029
18278SOL     OW57275   2.696   2.905   0.024 -0.0843  0.5798 -0.0418
18278SOL    HW157276   2.701   2.999   0.041 -0.9116  0.6075  0.1073
18278SOL    HW257277   2.693   2.898  -0.072 -1.0117  0.7751 -0.0357
18279SOL     OW57278   6.813   6.630  10.107 -0.2175 -0.9033  0.0378
18279SOL    HW157279   6.880   6.563  10.092 -1.5522 -1.9303 -1.7726
18279SOL    HW257280   6.754   6.591  10.172  1.4493  0.4627  2.5207
18280SOL     OW57281   1.052   0.573   1.828 -0.3094 -0.2960  0.2635
18280SOL    HW157282   0.956   0.580   1.828 -0.2850  0.6089 -1.3606
18280SOL    HW257283   1.071   0.505   1.764  0.1457 -0.9964  1.1123
18281SOL     OW57284   6.464   4.101   5.576  0.5128 -0.5947 -0.2023
18281SOL    HW157285   6.555   4.129   5.562  0.1276  0.0712 -1.5100
18281SOL    HW257286   6.423   4.107   5.490 -1.0403  0.0749  0.5430
18282SOL     OW57287   5.970   7.207   0.970  0.4450 -0.4225  0.0681
18282SOL    HW157288   6.027   7.249   0.906  2.5708 -1.8704  0.9056
18282SOL    HW257289   5.943   7.125   0.928  1.0313 -0.9033  0.6131
18283SOL     OW57290   9.445   7.054   1.704  0.1310 -0.2226  0.3015
18283SOL    HW157291   9.377   6.987   1.695  2.4160 -2.5421 -0.6912
18283SOL    HW257292   9.514   7.012   1.755  1.9426  1.1228 -0.9157
18284SOL     OW57293   8.571   8.510   7.573 -0.1643  0.4693  0.3147
18284SOL    HW157294   8.538   8.596   7.549 -0.1588  0.7319  1.2172
18284SOL    HW257295   8.613   8.523   7.659  0.2158 -0.3374  0.2628
18285SOL     OW57296   8.749   2.484   1.752 -0.2841  0.6914  0.0899
18285SOL    HW157297   8.708   2.480   1.666  0.2688 -1.1143 -0.1225
18285SOL    HW257298   8.800   2.403   1.759  0.5565  1.3028  1.6800
18286SOL     OW57299   7.262  10.018   7.365  0.2065 -0.2840 -0.3059
18286SOL    HW157300   7.352  10.020   7.334  0.5341 -1.4391  0.5182
18286SOL    HW257301   7.265   9.969   7.446 -0.8896  1.2262  0.7146
18287SOL     OW57302   7.268   7.183   6.908 -0.0993  0.1968  0.0660
18287SOL    HW157303   7.359   7.173   6.879  1.2267  0.8816  3.5186
18287SOL    HW257304   7.254   7.277   6.911 -0.8397  0.1001 -0.1251
18288SOL     OW57305   7.028   3.836  10.162 -0.2961 -0.2959  0.3773
18288SOL    HW157306   7.037   3.906  10.227 -2.3262  0.9475 -0.5655
18288SOL    HW257307   6.973   3.771  10.206 -2.0297  0.7405 -0.1667
18289SOL     OW57308   4.070   3.769   1.166 -0.6108 -0.2388 -0.1721
18289SOL    HW157309   4.092   3.685   1.127  0.6648 -1.3039  2.5399
18289SOL    HW257310   4.151   3.820   1.162 -0.9547  0.3002 -0.4538
18290SOL     OW57311   7.226   4.129   5.943  0.3562  0.2146 -0.1784
18290SOL    HW157312   7.314   4.164   5.925 -0.1048  1.9129  0.6323
18290SOL    HW257313   7.218   4.131   6.038  0.1241 -1.7777 -0.1266
18291SOL     OW57314   9.902   9.027   5.910 -0.2574 -1.0762  0.4995
18291SOL    HW157315   9.901   9.105   5.855  2.4785 -0.3299  1.3942
18291SOL    HW257316   9.927   8.956   5.851  0.0390 -0.7615  0.2470
18292SOL     OW57317   3.643  10.208   4.755  0.2990  0.2149  0.3639
18292SOL    HW157318   3.645  10.284   4.697  1.1904 -0.3495 -0.3782
18292SOL    HW257319   3.688  10.237   4.834  1.3243  0.2534 -0.2088
18293SOL     OW57320   9.363   1.051   4.428  0.2952 -0.1245  0.4658
18293SOL    HW157321   9.443   1.081   4.385 -0.3734  0.1421 -0.6506
18293SOL    HW257322   9.362   1.095   4.512 -0.5479  2.9503 -0.9959
18294SOL     OW57323   1.380   6.048   9.633 -0.0300  0.5179 -0.1805
18294SOL    HW157324   1.353   6.098   9.711  0.5233 -2.9880  2.4891
18294SOL    HW257325   1.298   6.020   9.593 -0.3265  1.1291 -0.0110
18295SOL     OW57326   4.491   3.785   1.015 -0.1743 -0.6559 -0.0053
18295SOL    HW157327   4.442   3.740   1.084  0.8395 -1.3269  0.3120
18295SOL    HW257328   4.512   3.716   0.952 -0.2092 -0.2469 -0.4724
18296SOL     OW57329  10.172   5.011   0.638  0.0869 -0.0112  0.3476
18296SOL    HW157330  10.171   4.932   0.585  1.5407  0.6085 -0.6552
18296SOL    HW257331  10.226   4.988   0.714  1.5307  0.3426 -0.5344
18297SOL     OW57332   3.568   4.011   4.316  0.0845 -0.0934 -0.0643
18297SOL    HW157333   3.636   4.016   4.249  0.7791  0.5772  0.6833
18297SOL    HW257334   3.486   4.018   4.266  0.5540 -0.4724 -0.9226
18298SOL     OW57335   8.905  10.470  10.373  0.3381  0.0725  0.1946
18298SOL    HW157336   8.945  10.479  10.287 -0.7157  1.5273 -0.1859
18298SOL    HW257337   8.814  10.447  10.355 -0.1417  1.3256  0.8439
18299SOL     OW57338   1.666   6.778   0.346  0.6938  0.1720 -0.4745
18299SOL    HW157339   1.575   6.763   0.369  0.8447  0.0510  0.0554
18299SOL    HW257340   1.685   6.713   0.278  0.3480  0.2977 -0.6955
18300SOL     OW57341   4.814   0.657   3.813  0.4223 -0.5946 -0.0387
18300SOL    HW157342   4.769   0.728   3.767  0.4234  0.6822  1.8318
18300SOL    HW257343   4.852   0.604   3.743  0.9879  1.6035 -1.5017
18301SOL     OW57344   1.931   3.535   4.833  0.3575 -0.2588 -0.0379
18301SOL    HW157345   1.888   3.548   4.749  2.1613 -0.8311 -1.0863
18301SOL    HW257346   1.966   3.622   4.856 -0.7487  0.0698  0.5338
18302SOL     OW57347   3.096   1.114   6.943  0.4426  0.3298 -0.3379
18302SOL    HW157348   3.094   1.115   6.847 -0.3366  0.9960 -0.3194
18302SOL    HW257349   3.047   1.035   6.966  1.8089 -0.6082 -0.4922
18303SOL     OW57350   7.548   3.625  10.149 -0.3266  0.7749 -0.3230
18303SOL    HW157351   7.575   3.610  10.239  0.0427  1.4683 -0.3111
18303SOL    HW257352   7.476   3.688  10.156  0.6133  1.9011 -0.5877
18304SOL     OW57353   5.478   8.049   8.348 -0.2575 -0.2107 -0.0807
18304SOL    HW157354   5.450   8.010   8.431  1.1519 -0.9147  0.0849
18304SOL    HW257355   5.429   8.001   8.281 -0.2399 -0.6926  0.2483
18305SOL     OW57356   5.357   6.794   5.320 -0.3600 -0.7689  0.2291
18305SOL    HW157357   5.345   6.889   5.320 -1.2205 -0.8519  1.2264
18305SOL    HW257358   5.310   6.765   5.242  0.8301 -0.2974 -0.6908
18306SOL     OW57359   8.401   8.469   1.633 -0.1114 -0.0314  0.5552
18306SOL    HW157360   8.411   8.475   1.538 -0.5981 -1.6888  0.3705
18306SOL    HW257361   8.349   8.390   1.647 -1.1087  0.8522  2.1500
18307SOL     OW57362   5.173   2.240   8.434  0.0348  0.0625 -0.0226
18307SOL    HW157363   5.186   2.334   8.450  1.1477  0.3129 -2.0300
18307SOL    HW257364   5.231   2.220   8.360 -0.4227 -2.1499  0.1457
18308SOL     OW57365   5.533   1.010   5.487 -0.9780  0.3436  0.3481
18308SOL    HW157366   5.570   1.079   5.542  0.8340 -0.1569 -0.1752
18308SOL    HW257367   5.570   0.929   5.522 -1.4620 -0.1662 -0.2973
18309SOL     OW57368   4.517  10.050   9.548  0.4199  0.6196 -0.8045
18309SOL    HW157369   4.587  10.025   9.487  0.4628 -1.6485  0.0731
18309SOL    HW257370   4.443   9.996   9.523 -0.3080  1.3468 -0.2676
18310SOL     OW57371   9.075   9.149   4.926 -0.1013  0.3566  0.0418
18310SOL    HW157372   9.081   9.190   4.840  1.8470 -1.7881 -0.9320
18310SOL    HW257373   9.109   9.215   4.987 -1.0281  1.7104 -0.8543
18311SOL     OW57374   7.103   3.069   6.889 -0.4623 -0.2967 -0.5613
18311SOL    HW157375   7.170   3.135   6.871 -0.3290 -0.7947 -2.0427
18311SOL    HW257376   7.145   2.986   6.866 -0.9527 -0.8169  0.3565
18312SOL     OW57377   3.115   2.092   9.887  0.3634 -0.0314  0.0181
18312SOL    HW157378   3.110   2.181   9.852 -0.6891 -0.2572 -0.4612
18312SOL    HW257379   3.152   2.041   9.815  1.8277  0.1644  0.6116
18313SOL     OW57380   2.068   5.531  10.218  0.1617  0.2499 -0.1021
18313SOL    HW157381   2.036   5.441  10.213  0.2703  0.2740 -1.2924
18313SOL    HW257382   2.131   5.539  10.147 -1.2391  1.8077 -1.2301
18314SOL     OW57383   8.194   7.263   1.670 -0.1607  0.2148  0.1740
18314SOL    HW157384   8.170   7.355   1.657  0.8273  0.2992 -1.2457
18314SOL    HW257385   8.128   7.230   1.731 -0.6911  1.7931  0.5117
18315SOL     OW57386   3.321   1.726   9.080 -0.1714 -0.7186  0.3458
18315SOL    HW157387   3.350   1.734   9.171 -0.5165 -0.2278  0.4162
18315SOL    HW257388   3.244   1.669   9.085 -0.0518 -0.8832  0.3294
18316SOL     OW57389   7.783   9.426   9.601  0.5224 -0.4525 -0.3702
18316SOL    HW157390   7.768   9.495   9.666  2.6078 -1.9161  1.8613
18316SOL    HW257391   7.873   9.438   9.573  0.3364 -1.1840 -1.3280
18317SOL     OW57392   4.726   9.982   9.311  0.2502 -0.1586 -0.4725
18317SOL    HW157393   4.646   9.930   9.306 -0.2596  0.5204  0.2053
18317SOL    HW257394   4.711  10.055   9.251  0.7636 -0.5183 -1.0556
18318SOL     OW57395   0.123   1.112  10.347 -0.0667  0.5716  0.3954
18318SOL    HW157396   0.071   1.135  10.270 -0.2870  0.8425  0.6265
18318SOL    HW257397   0.113   1.186  10.406 -1.6786 -0.5342  1.6096
18319SOL     OW57398   3.169   5.877   1.923  0.3780 -0.6845  0.4740
18319SOL    HW157399   3.235   5.837   1.867 -0.4453 -0.9846 -0.3153
18319SOL    HW257400   3.133   5.804   1.974 -0.0558 -0.7060  0.1461
18320SOL     OW57401   1.492   9.818   0.367 -0.2866  0.0319  0.1019
18320SOL    HW157402   1.429   9.838   0.437  0.1564 -3.2235  1.6197
18320SOL    HW257403   1.441   9.767   0.304 -0.0432  0.7154 -0.6657
18321SOL     OW57404   8.642   4.348   6.140  0.8520 -0.1405  0.7663
18321SOL    HW157405   8.563   4.383   6.099 -0.6109 -0.2822  3.2650
18321SOL    HW257406   8.695   4.425   6.161  0.2844  0.1549  1.1372
18322SOL     OW57407   5.320   3.632   7.424 -0.0513  0.5489 -0.4642
18322SOL    HW157408   5.378   3.581   7.480  2.4786  3.2341 -0.4166
18322SOL    HW257409   5.247   3.656   7.480 -0.3547 -1.3490  0.0237
18323SOL     OW57410   5.366   0.670   3.771  0.1726  0.2353  0.0444
18323SOL    HW157411   5.354   0.609   3.699  1.8954  0.9020 -0.8639
18323SOL    HW257412   5.280   0.677   3.812 -1.1167  0.6041 -2.5710
18324SOL     OW57413   6.051   9.958   1.526 -1.0951  0.5977  0.3668
18324SOL    HW157414   6.100   9.974   1.445 -1.1929 -1.1917 -0.0851
18324SOL    HW257415   6.119   9.935   1.590 -1.2407 -1.5762 -0.1808
18325SOL     OW57416   1.097   9.400   9.801 -0.5337  0.0592 -0.1784
18325SOL    HW157417   1.070   9.373   9.889  0.6844  0.7323  0.4306
18325SOL    HW257418   1.124   9.318   9.758  1.3663 -0.0119  1.0104
18326SOL     OW57419   9.418   2.372   1.359 -0.2266  0.4339  0.7476
18326SOL    HW157420   9.452   2.334   1.278 -0.1179 -0.8979  1.3962
18326SOL    HW257421   9.480   2.345   1.426 -0.4241  1.3577  1.3221
18327SOL     OW57422   3.568   9.490   5.748 -0.0529 -0.2064  0.6265
18327SOL    HW157423   3.529   9.564   5.701  0.4994 -0.1525  0.2408
18327SOL    HW257424   3.608   9.529   5.825 -1.0986 -0.3156  1.2491
18328SOL     OW57425   7.850   8.058   8.726 -0.0631  0.1444 -0.2748
18328SOL    HW157426   7.922   8.090   8.779 -0.6344  0.0013  0.6198
18328SOL    HW257427   7.835   8.127   8.661 -0.3928  1.0946  0.7675
18329SOL     OW57428   5.993   5.092   0.331  0.5760  0.2784 -0.5015
18329SOL    HW157429   6.067   5.131   0.378  1.7064  0.2459 -2.1658
18329SOL    HW257430   6.015   4.999   0.326  0.5619  0.3077 -1.2164
18330SOL     OW57431   9.148   8.468  10.207 -0.2291 -0.3282  0.5091
18330SOL    HW157432   9.079   8.401  10.207  0.9882 -1.7009  2.7172
18330SOL    HW257433   9.139   8.511  10.291  0.6147  0.5791  0.1500
18331SOL     OW57434   3.717  10.117   0.160 -0.2162  0.4203 -0.6224
18331SOL    HW157435   3.647  10.078   0.212  2.0078 -0.6788  1.7152
18331SOL    HW257436   3.776  10.045   0.139  1.9221  1.7754  0.3495
18332SOL     OW57437   1.682   0.530   2.126 -0.7668  0.5933 -0.5946
18332SOL    HW157438   1.699   0.484   2.043  2.1289  0.3592  0.0279
18332SOL    HW257439   1.587   0.523   2.138 -0.9964 -1.3077 -2.7730
18333SOL     OW57440   8.194   2.688   3.626 -0.1151  0.2546  0.6727
18333SOL    HW157441   8.288   2.694   3.643 -0.2372 -1.3507  2.2995
18333SOL    HW257442   8.187   2.685   3.531  1.5011  0.2408  0.5168
18334SOL     OW57443   0.781  10.490   3.827 -0.0058  0.1324 -0.8447
18334SOL    HW157444   0.792  10.526   3.739  0.8902  0.2301 -0.7020
18334SOL    HW257445   0.785  10.395   3.815  3.8234  0.1008 -0.5430
18335SOL     OW57446   3.370   6.964   0.644 -0.6198  0.6415 -0.4586
18335SOL    HW157447   3.338   6.873   0.639 -0.4829  0.5597  0.0899
18335SOL    HW257448   3.292   7.015   0.664 -0.3397  0.3740  1.4388
18336SOL     OW57449   8.625   2.371   7.593  0.5218  0.4272 -0.0945
18336SOL    HW157450   8.610   2.280   7.571 -0.1531  0.4301  0.3254
18336SOL    HW257451   8.567   2.420   7.534  0.4047  0.5473  0.1178
18337SOL     OW57452   1.573   4.202   9.813 -0.3346 -0.5313  1.2574
18337SOL    HW157453   1.495   4.165   9.772 -0.1358 -0.3257  0.6858
18337SOL    HW257454   1.583   4.288   9.772  1.8278 -1.6584 -0.8262
18338SOL     OW57455   6.365   0.711   1.497 -0.4570 -0.2985 -0.2515
18338SOL    HW157456   6.405   0.726   1.411 -0.9544 -0.8176 -0.5742
18338SOL    HW257457   6.439   0.716   1.558  0.2443 -1.9784 -0.9090
18339SOL     OW57458   8.724   3.252   5.023  0.2035  0.1321  0.1805
18339SOL    HW157459   8.649   3.199   5.049  0.8256 -0.0432  1.7379
18339SOL    HW257460   8.686   3.337   4.998 -0.4609  0.3377  1.7937
18340SOL     OW57461   9.923   5.425   3.809 -0.1211 -0.0522 -0.0671
18340SOL    HW157462   9.881   5.398   3.891  0.4252  0.5158  0.4193
18340SOL    HW257463   9.928   5.345   3.757 -1.3790 -0.2191  0.0404
18341SOL     OW57464   9.766   1.244   5.240 -0.1068  0.2922  0.1011
18341SOL    HW157465   9.861   1.245   5.241 -0.0687 -1.2844  0.6485
18341SOL    HW257466   9.741   1.336   5.228  1.4810  0.5068 -2.3505
18342SOL     OW57467   9.433   3.189   4.795  0.3471  0.2949 -0.0605
18342SOL    HW157468   9.439   3.195   4.890  0.6855  1.1001 -0.1244
18342SOL    HW257469   9.339   3.178   4.778  0.1771  1.0584  0.3298
18343SOL     OW57470   0.931  10.108   6.472  0.0837 -0.3917  0.2088
18343SOL    HW157471   0.890  10.179   6.521 -1.6573 -1.1012 -0.1780
18343SOL    HW257472   0.863  10.075   6.414  1.7784 -0.2184 -2.0668
18344SOL     OW57473   3.654   8.163   1.107 -0.1509 -0.0734  0.3302
18344SOL    HW157474   3.643   8.092   1.170 -1.2522 -0.5722 -0.3894
18344SOL    HW257475   3.627   8.126   1.024  3.7442 -0.2752 -1.0583
18345SOL     OW57476  10.098  10.164   5.122 -0.0683 -0.6645 -0.0812
18345SOL    HW157477  10.026  10.215   5.083 -1.3575 -1.3283  1.3626
18345SOL    HW257478  10.165  10.230   5.142 -0.6859  0.1127 -0.4847
18346SOL     OW57479   2.693   5.038   1.925 -0.2725  1.1974 -0.0951
18346SOL    HW157480   2.726   5.012   2.011  1.6505  1.4458 -0.7116
18346SOL    HW257481   2.692   5.134   1.928 -1.2513  1.1925  0.0057
18347SOL     OW57482  10.003   5.441   4.810  0.0553 -0.0156  0.4238
18347SOL    HW157483  10.074   5.404   4.862 -2.6839 -1.5578  3.4259
18347SOL    HW257484   9.944   5.480   4.874 -1.7475  1.4264 -1.9287
18348SOL     OW57485   4.943   4.420   2.886  0.5484  0.3945  0.4922
18348SOL    HW157486   4.847   4.428   2.890  0.5964  0.5386  1.4885
18348SOL    HW257487   4.971   4.504   2.849  0.2745  0.2337 -0.0952
18349SOL     OW57488   4.999   3.061   4.275  0.0948 -0.9276 -0.0228
18349SOL    HW157489   5.046   2.985   4.310 -0.7013 -1.7486 -0.6880
18349SOL    HW257490   5.058   3.098   4.210 -0.8471 -3.0739 -2.2442
18350SOL     OW57491   9.390   3.244   6.032 -0.2304 -0.7594  0.1449
18350SOL    HW157492   9.415   3.171   6.090  0.2738 -2.1153 -1.6885
18350SOL    HW257493   9.461   3.307   6.042 -0.3929 -0.7345  1.3475
18351SOL     OW57494  10.013   1.503   9.280  0.4549 -0.0475 -0.0595
18351SOL    HW157495  10.021   1.589   9.320 -0.5468  0.1917 -0.3604
18351SOL    HW257496   9.937   1.509   9.223  0.3773 -1.1300 -0.0980
18352SOL     OW57497   4.425   2.881   8.625 -0.5297 -0.0814 -0.1277
18352SOL    HW157498   4.354   2.827   8.659 -1.2528  1.0210  0.1515
18352SOL    HW257499   4.473   2.910   8.702 -0.5742  0.2393 -0.2157
18353SOL     OW57500   6.393   1.977   7.147  0.0806 -0.0714  0.3278
18353SOL    HW157501   6.355   2.065   7.153 -0.1710 -0.2245  1.0242
18353SOL    HW257502   6.396   1.959   7.053 -0.2254  0.5281  0.1975
18354SOL     OW57503   7.373   0.669   0.634 -0.2202  0.0033  0.4930
18354SOL    HW157504   7.438   0.713   0.580 -1.2269 -0.1333 -0.8900
18354SOL    HW257505   7.318   0.621   0.572 -0.2762 -1.7402  1.7963
18355SOL     OW57506   1.091   2.766   5.044 -0.1205  0.5261 -0.1000
18355SOL    HW157507   1.132   2.702   5.102  0.6798 -0.6324 -1.8464
18355SOL    HW257508   1.136   2.848   5.065 -1.1953  0.6071  2.2060
18356SOL     OW57509   2.640   7.489   2.067  0.2518 -0.5982 -0.1370
18356SOL    HW157510   2.582   7.475   2.142 -0.9997 -2.2951 -1.3253
18356SOL    HW257511   2.599   7.561   2.018 -0.4190 -1.2205 -0.5201
18357SOL     OW57512   9.925   1.542  10.126 -0.4737 -0.0284  0.1507
18357SOL    HW157513  10.010   1.539  10.082 -0.4858 -0.1930  0.1361
18357SOL    HW257514   9.876   1.469  10.088  0.1010 -1.2546  1.6367
18358SOL     OW57515   7.948   4.877   5.310 -0.3157  0.1107 -0.7992
18358SOL    HW157516   7.861   4.905   5.337 -0.9880 -3.2207  0.9900
18358SOL    HW257517   7.933   4.822   5.233  0.0737 -1.1476  0.0030
18359SOL     OW57518   4.047   0.035   1.387 -0.5719 -0.2041 -0.0603
18359SOL    HW157519   4.111  -0.027   1.422 -0.6229  0.3389  1.0656
18359SOL    HW257520   4.014  -0.006   1.307 -0.3974 -1.4962  0.5011
18360SOL     OW57521   2.584   3.569   5.782 -0.0125 -0.0085 -0.4191
18360SOL    HW157522   2.635   3.558   5.702  2.5046 -0.6753  1.1450
18360SOL    HW257523   2.607   3.656   5.814 -3.3720  1.5632 -1.8505
18361SOL     OW57524  10.481  10.343   7.717  0.6763 -0.2450  0.5332
18361SOL    HW157525  10.497  10.254   7.749 -0.8765 -1.6609 -2.1770
18361SOL    HW257526  10.395  10.365   7.751 -0.7312 -1.5319 -1.8459
18362SOL     OW57527   6.027   8.469   4.749 -0.2911  0.0369 -0.0529
18362SOL    HW157528   5.992   8.538   4.806 -1.5672 -0.0033 -0.7666
18362SOL    HW257529   6.014   8.502   4.660  1.6863  0.0988 -0.3732
18363SOL     OW57530   0.520  10.112   6.842 -0.6656  0.2327  0.2271
18363SOL    HW157531   0.475  10.156   6.914  0.7605  0.8468  0.7787
18363SOL    HW257532   0.589  10.061   6.885 -0.1175  0.1945 -0.6719
18364SOL     OW57533   2.947   2.114   7.740  0.4158 -0.6880  0.2267
18364SOL    HW157534   2.868   2.166   7.728 -0.6123 -2.1413  0.3833
18364SOL    HW257535   2.960   2.072   7.655  0.3804 -1.2906  0.5129
18365SOL     OW57536   8.109   0.352   7.807 -0.7176  0.0511 -0.5703
18365SOL    HW157537   8.161   0.429   7.780 -1.0134  0.5299  0.1939
18365SOL    HW257538   8.128   0.286   7.740 -0.0757  0.6270 -0.9752
18366SOL     OW57539   1.457  10.411   5.789  0.6691 -0.1121  0.2125
18366SOL    HW157540   1.509  10.487   5.817  0.1774  0.5182 -0.5493
18366SOL    HW257541   1.520  10.339   5.789  1.4107  0.5096 -0.0964
18367SOL     OW57542   5.896   2.406   6.820 -0.5741 -0.9179  0.3747
18367SOL    HW157543   5.971   2.365   6.864  0.0167 -1.3250 -0.9673
18367SOL    HW257544   5.829   2.412   6.888  0.7034 -0.4384  1.6392
18368SOL     OW57545  10.074   8.084   2.806  0.1824 -0.4445  0.1954
18368SOL    HW157546  10.119   8.107   2.887  0.2608  2.7740 -0.6197
18368SOL    HW257547   9.991   8.045   2.834  0.1616  0.7113  1.8438
18369SOL     OW57548   0.902   6.202   3.426  0.4803 -0.3827 -0.0319
18369SOL    HW157549   0.980   6.180   3.479  0.1860  0.1319  0.6320
18369SOL    HW257550   0.836   6.227   3.491 -0.5717 -1.7634 -0.5158
18370SOL     OW57551   4.665  10.275   2.330 -0.4485 -0.5495 -0.5298
18370SOL    HW157552   4.613  10.204   2.368  0.5428  0.8117  3.9947
18370SOL    HW257553   4.755  10.247   2.342 -0.0689  0.7117 -0.3079
18371SOL     OW57554   3.683   3.277   3.615  0.0009  0.3576 -0.6153
18371SOL    HW157555   3.737   3.353   3.638  0.5063  0.3202 -1.6392
18371SOL    HW257556   3.689   3.271   3.520 -0.9274 -0.3166 -0.6407
18372SOL     OW57557   1.344  10.126  10.107  0.5513  0.3734  0.5775
18372SOL    HW157558   1.368  10.202  10.054  0.0733  1.6991  2.1838
18372SOL    HW257559   1.253  10.108  10.084 -0.2116  2.0258  2.1153
18373SOL     OW57560   0.019   1.161   0.687 -0.1056  0.6281  0.0780
18373SOL    HW157561   0.079   1.122   0.623 -0.0859  0.7587  0.0159
18373SOL    HW257562   0.076   1.201   0.752 -0.1131  1.3334 -0.3322
18374SOL     OW57563   4.894   3.456   5.383  0.1867 -0.1171 -0.3048
18374SOL    HW157564   4.926   3.521   5.445 -2.6542  0.3090  0.8960
18374SOL    HW257565   4.885   3.376   5.435  0.0167 -0.3973 -0.7575
18375SOL     OW57566   4.675   5.084   7.878  0.4996  0.1008  0.1260
18375SOL    HW157567   4.609   5.054   7.940 -0.8153  1.1501 -0.7173
18375SOL    HW257568   4.717   5.004   7.847 -1.8920 -0.8497 -0.9539
18376SOL     OW57569   8.927   4.272   1.166  0.4560 -0.8070 -0.0554
18376SOL    HW157570   9.022   4.274   1.178  0.4058  2.9706  0.9047
18376SOL    HW257571   8.912   4.311   1.080 -0.2452 -0.6681  0.1201
18377SOL     OW57572   1.036   6.606   7.723  0.4640  0.0329 -0.1222
18377SOL    HW157573   0.959   6.562   7.760  0.8838  0.9381  2.0153
18377SOL    HW257574   1.008   6.697   7.711  1.0607  0.2771  0.2848
18378SOL     OW57575   2.209   9.344   2.640 -0.0678 -0.5823 -0.5412
18378SOL    HW157576   2.290   9.374   2.599 -0.6969 -0.5214 -1.7838
18378SOL    HW257577   2.141   9.361   2.575 -1.4250  1.2220  1.1880
18379SOL     OW57578   9.857   6.038   4.086  0.1588  0.1946 -0.3013
18379SOL    HW157579   9.882   6.010   4.174 -0.1536 -0.6283 -0.4645
18379SOL    HW257580   9.920   6.106   4.063  0.2668  0.3806  0.5380
18380SOL     OW57581   9.161   5.806   2.489  0.4181  0.2796 -0.1637
18380SOL    HW157582   9.207   5.776   2.567  0.2968 -1.4294 -0.7195
18380SOL    HW257583   9.089   5.860   2.523  0.2419 -0.6046  0.9268
18381SOL     OW57584   2.336   1.466   5.544  0.3685  0.0944 -0.5106
18381SOL    HW157585   2.253   1.513   5.552 -0.0540 -0.4341 -1.5979
18381SOL    HW257586   2.313   1.374   5.552  1.0442 -0.0067  0.4956
18382SOL     OW57587   7.689   3.529   4.649 -0.1887 -0.3695 -0.2904
18382SOL    HW157588   7.687   3.616   4.611 -1.5424  0.2513  1.0706
18382SOL    HW257589   7.604   3.520   4.693  0.4948 -1.7847  0.8504
18383SOL     OW57590   8.623   8.147   5.056 -0.3651 -0.5077  0.3029
18383SOL    HW157591   8.668   8.170   4.974  0.3104 -1.0722  0.5111
18383SOL    HW257592   8.548   8.206   5.058  0.6579  0.8677  0.2241
18384SOL     OW57593   1.907   5.203   5.353 -0.0560  0.0660 -0.0589
18384SOL    HW157594   1.895   5.282   5.406  0.1550  0.1231 -0.0975
18384SOL    HW257595   1.894   5.233   5.263  0.9928  0.2597 -0.1575
18385SOL     OW57596   0.041   8.171   8.426 -0.1531  0.2976  0.0976
18385SOL    HW157597   0.051   8.250   8.479 -1.6783  0.0616  0.7805
18385SOL    HW257598  -0.035   8.188   8.371  0.4211 -0.1151 -0.8565
18386SOL     OW57599   5.998   3.386   2.757 -0.0530  0.2999  0.5546
18386SOL    HW157600   6.031   3.467   2.796 -0.6662  0.0255  1.7060
18386SOL    HW257601   6.034   3.385   2.668  0.5044  1.4970  0.7491
18387SOL     OW57602   6.880   9.580   4.881 -0.6976 -0.0150  0.0070
18387SOL    HW157603   6.818   9.528   4.829  0.4718 -0.5767 -0.8923
18387SOL    HW257604   6.923   9.636   4.816 -0.5124  0.6077  0.6635
18388SOL     OW57605   2.207   7.978   0.554  0.1595 -0.8267  0.7204
18388SOL    HW157606   2.136   7.918   0.531 -0.5956 -0.0698  1.0814
18388SOL    HW257607   2.181   8.062   0.518  1.9228 -0.9881 -1.1251
18389SOL     OW57608   8.924   2.288   3.253 -0.4873  0.4081  0.1710
18389SOL    HW157609   8.933   2.375   3.290 -1.2189 -0.1172  1.6810
18389SOL    HW257610   9.013   2.254   3.248 -0.4061  0.0808  2.6182
18390SOL     OW57611   8.139   2.800   0.445 -0.0205  0.5633  0.5165
18390SOL    HW157612   8.151   2.895   0.446 -0.5311  0.7186 -1.9781
18390SOL    HW257613   8.213   2.768   0.393 -0.5430 -0.2557  0.2685
18391SOL     OW57614  10.393   7.753   4.069  0.5224 -0.0237  0.3956
18391SOL    HW157615  10.469   7.749   4.127 -0.1201 -0.7272  1.2156
18391SOL    HW257616  10.320   7.774   4.127  0.3051  2.2626 -0.6098
18392SOL     OW57617   9.417   6.469   5.572  0.0457 -0.0891 -0.1021
18392SOL    HW157618   9.346   6.406   5.587  0.1286 -0.0774  0.3424
18392SOL    HW257619   9.481   6.450   5.641  0.7090 -0.4237 -0.7867
18393SOL     OW57620   3.078  10.124   4.301  0.5668  0.1051 -0.7040
18393SOL    HW157621   3.004  10.172   4.338  0.8556  0.5491 -0.6929
18393SOL    HW257622   3.051  10.105   4.210 -0.0859 -0.8702 -0.3258
18394SOL     OW57623   1.721   0.191   7.323  0.1953 -0.3831 -0.1686
18394SOL    HW157624   1.765   0.123   7.374  0.1977  0.4031  0.9132
18394SOL    HW257625   1.772   0.197   7.242  2.4100  0.7869  1.2094
18395SOL     OW57626   9.323   5.873   4.234 -0.6852  0.7086 -0.0868
18395SOL    HW157627   9.263   5.853   4.305  1.4705 -1.2099  1.3463
18395SOL    HW257628   9.345   5.788   4.196  0.8244  1.3611 -0.7723
18396SOL     OW57629   3.840   6.204   5.322 -0.8214  0.1964  0.5337
18396SOL    HW157630   3.810   6.276   5.267  1.0902  0.2014 -0.6035
18396SOL    HW257631   3.765   6.145   5.326 -1.5340  0.9401 -0.8014
18397SOL     OW57632   8.907   6.402   5.413 -0.3100 -0.4921 -0.0846
18397SOL    HW157633   8.831   6.457   5.398  0.6670  0.9101 -0.1439
18397SOL    HW257634   8.879   6.339   5.480 -1.5497 -0.1250 -0.2353
18398SOL     OW57635   5.722   0.125   6.060 -0.1015  0.1208 -0.3420
18398SOL    HW157636   5.662   0.186   6.019 -0.0780  0.8590  0.6904
18398SOL    HW257637   5.792   0.180   6.097  0.6831 -0.6403 -0.6579
18399SOL     OW57638  10.358   6.171   0.858  0.1315  0.2395  0.2571
18399SOL    HW157639  10.274   6.169   0.812  1.0017 -0.0524 -1.3803
18399SOL    HW257640  10.356   6.254   0.906 -0.8307  0.5364 -0.2594
18400SOL     OW57641   9.548   3.644   6.844  0.4078 -0.6195  0.0549
18400SOL    HW157642   9.621   3.702   6.866  0.3724  0.0249 -1.4572
18400SOL    HW257643   9.557   3.571   6.906  1.4605  0.1540  0.8606
18401SOL     OW57644   9.125   6.029   7.244  0.1228  0.4884 -0.8029
18401SOL    HW157645   9.051   6.027   7.304  0.8712  0.2315  0.1294
18401SOL    HW257646   9.202   6.041   7.300  0.6968  2.1043 -1.8388
18402SOL     OW57647   6.503  10.003   4.263  0.4774 -0.6384 -0.2993
18402SOL    HW157648   6.501  10.099   4.265 -1.3981 -0.5941 -1.6388
18402SOL    HW257649   6.435   9.976   4.325 -0.0232 -1.0328 -0.9989
18403SOL     OW57650   0.820   5.105   1.535 -0.7149 -0.3405  0.5032
18403SOL    HW157651   0.731   5.105   1.571 -1.1248 -0.8176 -0.4916
18403SOL    HW257652   0.877   5.107   1.613 -1.5461  2.9209  1.1931
18404SOL     OW57653   1.462   8.184   6.855 -0.0844 -0.3412  0.2832
18404SOL    HW157654   1.469   8.215   6.765 -2.5901  0.1183  0.1584
18404SOL    HW257655   1.510   8.101   6.855  0.2597 -0.1908 -1.3898
18405SOL     OW57656   5.271   4.061   6.093  0.1794 -0.5346 -0.2844
18405SOL    HW157657   5.196   4.019   6.049  0.2435 -0.4532 -0.4730
18405SOL    HW257658   5.306   3.993   6.151  0.5301 -0.8752 -0.8874
18406SOL     OW57659   3.861   2.660   0.312  0.0886 -0.2676  0.0425
18406SOL    HW157660   3.865   2.708   0.229  1.1192 -0.8884 -0.2857
18406SOL    HW257661   3.839   2.727   0.377  1.1139  0.5971 -0.4639
18407SOL     OW57662   5.507   9.988   3.399  0.3160 -0.1848 -0.4985
18407SOL    HW157663   5.533   9.898   3.383 -0.4484 -0.4584 -0.2291
18407SOL    HW257664   5.589  10.034   3.420  0.8969 -0.5218 -1.9095
18408SOL     OW57665   7.473   0.516   8.436 -0.2118 -0.2304  0.1309
18408SOL    HW157666   7.462   0.611   8.428 -2.0808 -0.3919  0.3079
18408SOL    HW257667   7.566   0.504   8.455 -0.0411  1.5967  0.6461
18409SOL     OW57668   6.421   4.003   7.505  0.2749  0.2989 -0.2747
18409SOL    HW157669   6.479   3.968   7.438  0.6519  0.7303 -0.1747
18409SOL    HW257670   6.393   3.926   7.555  0.3455  0.0317 -0.6491
18410SOL     OW57671   8.691   9.212   8.569  0.4624 -0.0140 -0.1059
18410SOL    HW157672   8.600   9.226   8.595  1.4028 -0.2261  3.9819
18410SOL    HW257673   8.691   9.127   8.525 -1.3022  0.0557 -0.2973
18411SOL     OW57674   8.455   0.783   2.783  0.0634 -0.1298  0.5404
18411SOL    HW157675   8.483   0.872   2.800 -0.8129 -0.1046  2.0052
18411SOL    HW257676   8.370   0.792   2.738 -0.5474 -0.2084  1.6503
18412SOL     OW57677   7.206   2.347   7.657  0.0539 -0.2053 -0.2032
18412SOL    HW157678   7.273   2.400   7.700 -1.3721  0.7706  0.8870
18412SOL    HW257679   7.141   2.410   7.627 -1.8243 -1.3015  1.3622
18413SOL     OW57680   9.437   8.813   4.155 -0.8081 -0.2388 -0.0375
18413SOL    HW157681   9.344   8.822   4.134 -0.6493  2.7738  0.1209
18413SOL    HW257682   9.442   8.829   4.249 -0.0187  1.0454 -0.2803
18414SOL     OW57683   6.274   8.426   2.465 -0.0601 -0.3624  0.1341
18414SOL    HW157684   6.258   8.433   2.371  1.1603 -1.7618 -0.1974
18414SOL    HW257685   6.366   8.401   2.473 -0.0257  0.1319  1.7230
18415SOL     OW57686   0.795   5.553   4.711  0.2032 -0.6573 -0.1914
18415SOL    HW157687   0.823   5.581   4.624 -0.0636  0.2446 -0.0008
18415SOL    HW257688   0.876   5.540   4.760  0.3458 -0.5797 -0.4091
18416SOL     OW57689   9.923   1.188   5.491  0.3335  0.2017  0.2665
18416SOL    HW157690   9.876   1.144   5.421  1.0907 -0.9434  0.4414
18416SOL    HW257691   9.962   1.116   5.542  1.0301  1.0604  0.9764
18417SOL     OW57692   3.481   6.458  10.231  0.1440 -0.5548 -0.2787
18417SOL    HW157693   3.568   6.496  10.243  0.7091 -1.7791 -0.3086
18417SOL    HW257694   3.426   6.532  10.206  0.6392  0.6587  2.0096
18418SOL     OW57695  10.000   7.531   7.085  0.0562  0.3411  0.9636
18418SOL    HW157696  10.018   7.443   7.053  0.0588  0.6045  0.2055
18418SOL    HW257697   9.908   7.529   7.111  0.1047  0.0640  1.1105
18419SOL     OW57698   9.947   7.550   3.828 -0.4030  0.4119 -0.1510
18419SOL    HW157699  10.004   7.537   3.752  0.7772  0.7224  0.6583
18419SOL    HW257700   9.947   7.645   3.841  1.7753  0.2353  1.9380
18420SOL     OW57701   8.900   3.899   6.439 -0.1075 -0.0617  0.3698
18420SOL    HW157702   8.955   3.931   6.368 -1.4775  1.3761 -0.0757
18420SOL    HW257703   8.837   3.841   6.397  0.4475 -0.9803  0.7568
18421SOL     OW57704   7.752   0.224   0.608 -0.4781 -0.1121  0.0873
18421SOL    HW157705   7.676   0.262   0.652 -1.3568  0.1440 -1.6008
18421SOL    HW257706   7.738   0.241   0.515  0.3535 -2.3498 -0.5163
18422SOL     OW57707   8.724   9.585   9.199 -0.3264 -0.0227  0.3119
18422SOL    HW157708   8.697   9.606   9.288  0.3119  1.1579  0.2468
18422SOL    HW257709   8.649   9.607   9.145 -1.2396 -2.0809  0.6674
18423SOL     OW57710   7.835   8.050   3.754  0.1731 -0.2949  0.2775
18423SOL    HW157711   7.930   8.048   3.763  0.2837  0.0079 -0.7586
18423SOL    HW257712   7.813   7.968   3.709 -0.1783 -0.8620  1.4208
18424SOL     OW57713   6.799   5.153   6.317 -0.0593 -0.3680  0.1204
18424SOL    HW157714   6.847   5.071   6.309 -0.3721 -0.4393 -1.3660
18424SOL    HW257715   6.710   5.131   6.287 -0.2211  0.4376 -0.0048
18425SOL     OW57716  10.417   6.187   6.890  0.0301  0.7812  0.2938
18425SOL    HW157717  10.385   6.233   6.812  1.4112  1.2458 -0.0195
18425SOL    HW257718  10.390   6.243   6.963  0.1918  1.2142  0.0290
18426SOL     OW57719   3.378   3.070   9.906  0.2057 -0.4222  0.2624
18426SOL    HW157720   3.346   3.105   9.823  1.2441  1.2237  0.5201
18426SOL    HW257721   3.444   3.133   9.935 -0.4902 -0.6662  2.5972
18427SOL     OW57722   7.272  10.113   5.433  0.6142 -0.2589 -0.6328
18427SOL    HW157723   7.316  10.099   5.517  1.9225  0.3134 -1.1880
18427SOL    HW257724   7.334  10.080   5.368 -1.0812 -2.2757 -1.3226
18428SOL     OW57725   2.787   5.133   7.589 -0.0887  0.6258  0.6135
18428SOL    HW157726   2.703   5.128   7.544  0.6098 -0.4485 -0.6421
18428SOL    HW257727   2.814   5.224   7.579  0.3940  0.2750 -1.8716
18429SOL     OW57728   3.507   0.491   9.887  0.8505 -0.6895  0.1774
18429SOL    HW157729   3.510   0.526   9.976  0.2188 -0.6804  0.2029
18429SOL    HW257730   3.420   0.514   9.855  1.5701  0.5510 -0.9741
18430SOL     OW57731   6.283  10.006  10.478 -0.0404 -0.1518 -0.7862
18430SOL    HW157732   6.298   9.951  10.401  1.0755  2.0664 -2.2992
18430SOL    HW257733   6.217  10.069  10.449 -0.3094  0.1266  0.4116
18431SOL     OW57734   4.418   3.096   5.763  0.5312  0.0530 -0.0087
18431SOL    HW157735   4.469   3.039   5.706  0.0418 -0.2701 -0.1287
18431SOL    HW257736   4.352   3.038   5.802  0.3365  0.4397  0.2428
18432SOL     OW57737   9.275   5.426   9.782 -0.5539 -0.2894 -0.0227
18432SOL    HW157738   9.201   5.391   9.831 -1.3003  0.4394 -0.6098
18432SOL    HW257739   9.243   5.507   9.744  0.9656  0.7863  0.8451
18433SOL     OW57740   8.943   5.907   6.201 -0.0039 -0.4941  0.2329
18433SOL    HW157741   8.949   5.852   6.123 -1.3462 -1.2689  0.6368
18433SOL    HW257742   8.869   5.965   6.184  0.5169  0.2362  0.4014
18434SOL     OW57743   2.406   4.532   6.437 -0.3179 -0.0605  0.2867
18434SOL    HW157744   2.399   4.444   6.475 -2.2156 -0.4803 -0.9306
18434SOL    HW257745   2.320   4.550   6.401  0.4984  1.6359 -0.9638
18435SOL     OW57746   4.783   2.916   2.504 -0.1383  0.2426 -0.5488
18435SOL    HW157747   4.711   2.895   2.563  0.3755 -1.6332 -0.5282
18435SOL    HW257748   4.764   2.866   2.424  1.9760 -1.7169  0.0698
18436SOL     OW57749   1.754   9.021   6.225  0.5861  0.4460  0.4269
18436SOL    HW157750   1.842   9.012   6.263  0.8157  3.0093  0.6853
18436SOL    HW257751   1.767   9.012   6.131  0.9730 -0.0710  0.5259
18437SOL     OW57752   8.727   2.357   9.341 -0.0238  0.1318  0.3202
18437SOL    HW157753   8.786   2.429   9.322 -0.7103  0.6182 -0.0333
18437SOL    HW257754   8.755   2.287   9.282  0.1822  0.3661  0.1356
18438SOL     OW57755   6.572   6.939   6.001  0.5882  0.3010  0.2922
18438SOL    HW157756   6.570   7.006   5.932 -3.3579  1.1935  1.0665
18438SOL    HW257757   6.630   6.975   6.068  1.2305  1.2930 -0.7577
18439SOL     OW57758   4.490   5.045   3.886  0.2877 -0.2730  0.1211
18439SOL    HW157759   4.429   4.987   3.932 -2.6476  1.5959 -1.1159
18439SOL    HW257760   4.557   5.066   3.951 -2.1664  0.1150  2.7332
18440SOL     OW57761   7.470   6.375   6.144 -0.4365  0.2133 -0.3361
18440SOL    HW157762   7.509   6.365   6.231  0.4886  1.2192 -0.6101
18440SOL    HW257763   7.406   6.446   6.154  2.1776  2.9340 -1.1619
18441SOL     OW57764   5.822   4.201   7.027 -0.2304  0.2723 -0.8416
18441SOL    HW157765   5.727   4.208   7.029 -0.1840  0.9568 -0.6360
18441SOL    HW257766   5.839   4.111   7.001 -0.9325  0.7838 -3.3078
18442SOL     OW57767   2.738   5.899   1.108 -0.3406 -0.0534 -0.7414
18442SOL    HW157768   2.667   5.924   1.167 -0.0574  0.3587 -0.5751
18442SOL    HW257769   2.768   5.814   1.141  1.7989  1.4594  1.5688
18443SOL     OW57770   5.621   0.032   9.517  0.1796  0.4030 -0.6959
18443SOL    HW157771   5.584  -0.052   9.545 -0.1974  0.8332  0.1570
18443SOL    HW257772   5.645   0.018   9.426  0.0803 -0.6172 -0.5848
18444SOL     OW57773   1.770   2.730   3.205 -0.1404 -0.0839 -0.2340
18444SOL    HW157774   1.786   2.815   3.164  0.0546  0.1268  0.2721
18444SOL    HW257775   1.856   2.700   3.233  0.0994 -1.4086 -2.2290
18445SOL     OW57776   9.617   2.538   3.131 -0.2191  0.4814  0.3008
18445SOL    HW157777   9.570   2.603   3.079  1.5616  0.1435 -1.8880
18445SOL    HW257778   9.700   2.580   3.154  1.0402 -0.9821 -1.3042
18446SOL     OW57779   3.552   5.434   0.864  0.1975 -0.3457  0.2715
18446SOL    HW157780   3.619   5.490   0.827 -0.3911  0.3725  0.2622
18446SOL    HW257781   3.577   5.346   0.837  0.1849  0.0741 -1.2418
18447SOL     OW57782   9.538  10.361   5.836  0.0871  0.3239 -0.2170
18447SOL    HW157783   9.475  10.365   5.908 -2.1324  0.8792 -2.0709
18447SOL    HW257784   9.486  10.341   5.759  2.1821  0.9291 -1.9075
18448SOL     OW57785  10.447   6.549   5.930 -0.2963  0.4661 -0.1926
18448SOL    HW157786  10.440   6.639   5.962  0.7863  0.6377 -0.4130
18448SOL    HW257787  10.537   6.524   5.947 -1.1390 -1.4192  2.0101
18449SOL     OW57788   6.969   3.673   8.202 -0.0114  0.4868  0.1973
18449SOL    HW157789   6.899   3.649   8.264 -0.4244 -0.1214 -0.4739
18449SOL    HW257790   6.922   3.694   8.121  0.5014  1.5816  0.1804
18450SOL     OW57791   4.014   3.068   8.795  0.4572 -0.5121  0.8930
18450SOL    HW157792   3.940   3.128   8.787 -0.7845 -2.0625 -0.0011
18450SOL    HW257793   3.994   3.017   8.874 -0.2586 -1.9229 -0.1438
18451SOL     OW57794   9.528   0.521   2.102  0.0630 -0.7250 -0.2847
18451SOL    HW157795   9.547   0.586   2.169  1.2614 -3.9731  2.8735
18451SOL    HW257796   9.596   0.534   2.035  1.8533 -0.2623  1.5260
18452SOL     OW57797   7.814   8.838   4.068  0.1158 -0.4625 -0.2824
18452SOL    HW157798   7.799   8.788   4.149 -0.4326 -1.2162 -0.8303
18452SOL    HW257799   7.887   8.896   4.088  0.8940 -1.6193  0.3301
18453SOL     OW57800   2.124   4.809   1.549 -0.0692 -0.4529 -0.4899
18453SOL    HW157801   2.150   4.901   1.547 -0.1834 -0.4098 -0.0117
18453SOL    HW257802   2.116   4.788   1.642 -0.4476 -0.8332 -0.6056
18454SOL     OW57803   9.589  10.300   0.144  0.4295 -0.1846 -0.0263
18454SOL    HW157804   9.679  10.330   0.159  0.4070  0.7090 -1.4565
18454SOL    HW257805   9.545  10.312   0.228  1.3077  0.6413  0.3350
18455SOL     OW57806   7.146   2.426   0.376 -0.1933  0.0690  0.0295
18455SOL    HW157807   7.167   2.446   0.285 -0.5440 -1.4341 -0.4217
18455SOL    HW257808   7.148   2.330   0.381  0.8969  0.1262  1.8815
18456SOL     OW57809   0.959   3.398   6.758  0.4869  0.4011 -0.0778
18456SOL    HW157810   1.009   3.328   6.715 -0.0540 -0.0263 -0.0194
18456SOL    HW257811   0.937   3.362   6.844 -1.5011 -0.1503 -0.7707
18457SOL     OW57812   1.770   2.161   8.907 -0.7710 -0.0332  0.2181
18457SOL    HW157813   1.730   2.089   8.859 -0.6378 -0.5195  0.8229
18457SOL    HW257814   1.742   2.240   8.860 -0.6569 -0.4918 -0.6394
18458SOL     OW57815   4.478   2.461   6.071 -0.2225 -0.3406  0.0447
18458SOL    HW157816   4.548   2.489   6.130 -0.7536  2.3524 -0.4566
18458SOL    HW257817   4.399   2.502   6.107 -0.9639 -0.6433 -1.1775
18459SOL     OW57818   3.489  10.392   9.091  0.3330  0.0441 -0.4109
18459SOL    HW157819   3.452  10.471   9.129 -0.2998 -0.4634  0.0607
18459SOL    HW257820   3.466  10.397   8.998 -2.3688 -0.9937  0.1079
18460SOL     OW57821   5.222   7.577   7.391 -0.0394 -0.1853  0.0171
18460SOL    HW157822   5.243   7.537   7.306 -0.9736 -0.3863 -0.1278
18460SOL    HW257823   5.128   7.595   7.386 -0.0511  0.0195  0.9278
18461SOL     OW57824   9.434   6.746   3.493  0.2962 -0.1357 -0.2754
18461SOL    HW157825   9.446   6.814   3.558 -0.1771 -0.5454  0.2528
18461SOL    HW257826   9.520   6.736   3.451  0.9397 -0.7192  1.1346
18462SOL     OW57827   4.502   1.662   8.912  0.5211  0.4444 -0.4095
18462SOL    HW157828   4.541   1.576   8.925  3.4731  1.8424  0.7558
18462SOL    HW257829   4.552   1.701   8.840  1.4601  2.3282  1.1738
18463SOL     OW57830   3.955   3.276   4.513 -0.6933  0.1392 -0.3413
18463SOL    HW157831   3.963   3.368   4.487  0.7597 -0.0268 -0.5547
18463SOL    HW257832   3.896   3.238   4.449  0.5012  0.4216 -1.6531
18464SOL     OW57833   5.182   7.309   9.102  0.1608  0.5196 -0.5675
18464SOL    HW157834   5.272   7.283   9.126  0.1666 -0.1817 -1.3078
18464SOL    HW257835   5.194   7.383   9.043  0.2839  0.0746 -1.1100
18465SOL     OW57836   4.195   8.880   5.795  0.1505  0.1707  0.1461
18465SOL    HW157837   4.121   8.937   5.816 -0.0196 -0.2748  0.7943
18465SOL    HW257838   4.222   8.906   5.707 -2.1217 -1.0938 -1.0196
18466SOL     OW57839   4.356   8.507   3.796 -0.2423  0.2017 -0.0888
18466SOL    HW157840   4.275   8.529   3.844  0.2498 -0.4164  1.0617
18466SOL    HW257841   4.424   8.510   3.863  0.6997  0.6957 -1.0485
18467SOL     OW57842   8.697   1.100   6.580 -0.1789  0.1178 -1.0299
18467SOL    HW157843   8.638   1.088   6.654  1.3891 -0.7521  0.1367
18467SOL    HW257844   8.692   1.017   6.532  1.1347 -0.5370 -0.1013
18468SOL     OW57845   0.529   3.699   8.533  0.1954  1.0661  0.1277
18468SOL    HW157846   0.444   3.702   8.489 -0.3276 -1.0938  0.8637
18468SOL    HW257847   0.559   3.609   8.521  1.1920  1.0967  2.0330
18469SOL     OW57848   0.486   7.312   0.134 -0.5295  0.3190  0.2040
18469SOL    HW157849   0.414   7.313   0.197 -0.4638 -0.0881  0.2867
18469SOL    HW257850   0.483   7.225   0.095 -1.3571  0.9855 -1.2873
18470SOL     OW57851   1.229   4.239   2.855 -0.7647  0.5885  0.3036
18470SOL    HW157852   1.286   4.307   2.891  0.7707 -1.3772  1.7877
18470SOL    HW257853   1.272   4.214   2.773  0.3599 -0.6158  1.2263
18471SOL     OW57854   9.371   7.018   0.445 -0.4353 -0.1658 -0.0637
18471SOL    HW157855   9.332   6.938   0.481 -1.3952  0.4788  0.3793
18471SOL    HW257856   9.439   7.042   0.507  0.3310 -1.0000 -0.5554
18472SOL     OW57857   7.478   8.235   5.353  0.1053  0.2655  0.0092
18472SOL    HW157858   7.573   8.231   5.368  0.0018  0.2699  0.6720
18472SOL    HW257859   7.449   8.144   5.353  0.1115  0.2606 -0.2530
18473SOL     OW57860   0.764   8.185   3.433  0.0517  0.2288 -0.3735
18473SOL    HW157861   0.741   8.275   3.412 -1.2621 -0.2514 -1.1208
18473SOL    HW257862   0.769   8.183   3.529 -2.6684  0.5080 -0.1424
18474SOL     OW57863   9.205   7.477   9.131 -0.1154  0.3774 -0.2241
18474SOL    HW157864   9.233   7.399   9.180  0.4161  0.7607  0.1011
18474SOL    HW257865   9.127   7.449   9.084 -2.5229  0.7418  3.1525
18475SOL     OW57866   9.999   7.958   9.768 -0.3148 -0.3454 -0.2004
18475SOL    HW157867  10.008   7.913   9.852  0.1893  0.6226  0.2867
18475SOL    HW257868   9.905   7.974   9.759 -0.5537 -1.8564 -0.5952
18476SOL     OW57869   8.811   3.884   7.944  0.0774  0.1222  0.6333
18476SOL    HW157870   8.881   3.879   7.879 -0.1503 -0.9397  0.4446
18476SOL    HW257871   8.850   3.851   8.025 -0.3376 -0.9933  0.3935
18477SOL     OW57872   5.828   6.689   8.891 -0.2122 -0.0943  0.0329
18477SOL    HW157873   5.745   6.735   8.876 -0.0746  0.9183  2.1624
18477SOL    HW257874   5.804   6.596   8.889 -1.0382  0.1200 -1.2344
18478SOL     OW57875   2.921   6.700   4.098  0.3013 -0.1901  0.2128
18478SOL    HW157876   2.871   6.636   4.047 -0.2280  0.0454  0.4297
18478SOL    HW257877   2.964   6.649   4.166 -0.1484 -0.3153  0.4070
18479SOL     OW57878   6.124   9.739   5.541 -0.0066 -0.0036 -0.3780
18479SOL    HW157879   6.107   9.832   5.556 -1.3656 -0.4021  0.8131
18479SOL    HW257880   6.209   9.723   5.580  0.1245  0.6867 -0.3678
18480SOL     OW57881   3.526   0.486  10.177  0.5323 -0.2731 -0.4599
18480SOL    HW157882   3.459   0.419  10.187  0.5649  0.0222  2.7981
18480SOL    HW257883   3.609   0.439  10.185  0.5865 -0.1071  0.0235
18481SOL     OW57884   8.079   7.627   0.335  0.1022 -0.8765  0.2553
18481SOL    HW157885   8.067   7.609   0.241 -2.5970  1.5990 -0.0276
18481SOL    HW257886   7.995   7.663   0.363  1.6543  0.9400  3.0175
18482SOL     OW57887   2.081   8.659   2.991 -0.2636 -0.0528  0.3132
18482SOL    HW157888   2.094   8.653   2.896 -0.3352 -0.9701  0.3485
18482SOL    HW257889   2.049   8.748   3.006 -2.3585 -0.5584 -0.7885
18483SOL     OW57890   1.078   6.195   0.327 -0.5078  0.8562  0.2767
18483SOL    HW157891   1.170   6.171   0.317  0.0466  1.6501  2.7196
18483SOL    HW257892   1.030   6.115   0.308  0.9111 -0.4447  1.8082
18484SOL     OW57893   2.564   5.362   9.405  0.2760  0.4663  0.0043
18484SOL    HW157894   2.502   5.316   9.347  0.2961  2.4022 -1.6534
18484SOL    HW257895   2.650   5.327   9.381  0.1419  0.1994 -0.0947
18485SOL     OW57896   7.821   0.193  10.377  0.1388 -0.1438 -0.6737
18485SOL    HW157897   7.735   0.231  10.360 -0.1940 -0.5334  0.1004
18485SOL    HW257898   7.880   0.268  10.379 -0.4852  0.3444  0.6705
18486SOL     OW57899   9.381   7.116   9.831  0.4190 -0.0897 -0.3430
18486SOL    HW157900   9.445   7.046   9.843 -0.0039 -0.3417  0.5679
18486SOL    HW257901   9.298   7.071   9.815  0.1619  0.1963  0.1487
18487SOL     OW57902   3.188   6.707   0.905 -0.0721 -0.2995  0.3695
18487SOL    HW157903   3.158   6.739   0.820  2.5156  0.0708 -0.4901
18487SOL    HW257904   3.180   6.611   0.899  1.1063 -0.3548 -0.7589
18488SOL     OW57905   3.579  10.244   7.037 -0.3998 -0.1399 -0.0054
18488SOL    HW157906   3.484  10.257   7.039 -0.3025  0.8587  2.3779
18488SOL    HW257907   3.591  10.151   7.021 -1.7974 -0.3313 -0.0249
18489SOL     OW57908   6.209   9.794   0.732  0.2188 -0.4233  0.2637
18489SOL    HW157909   6.233   9.884   0.709 -1.2887 -0.1324 -0.2934
18489SOL    HW257910   6.182   9.755   0.649 -0.9206 -0.8002  0.7969
18490SOL     OW57911   3.737   7.276   4.710  0.0997 -0.1396  0.4573
18490SOL    HW157912   3.779   7.325   4.640 -0.9375  0.3223  0.1366
18490SOL    HW257913   3.809   7.232   4.756  0.7981 -0.4737 -0.9007
18491SOL     OW57914   6.996   0.388   4.565  0.3959  0.4359  0.8136
18491SOL    HW157915   7.040   0.383   4.481 -0.4498 -0.3208  0.3997
18491SOL    HW257916   7.019   0.474   4.599  1.6169  0.3232  0.3084
18492SOL     OW57917   6.270   0.842   7.206 -0.1249 -0.4897  0.5910
18492SOL    HW157918   6.220   0.780   7.153 -0.8897 -0.7583  1.5902
18492SOL    HW257919   6.303   0.906   7.143  1.4824 -2.3857 -0.6161
18493SOL     OW57920   0.186   0.074   3.666  0.0867 -1.4894 -0.5098
18493SOL    HW157921   0.173   0.158   3.710  0.2467 -0.9311 -1.4852
18493SOL    HW257922   0.211   0.014   3.736 -0.7968 -0.9204  0.3302
18494SOL     OW57923   7.781   1.397   2.892  0.3520 -0.7551  0.0248
18494SOL    HW157924   7.807   1.477   2.846  0.6953 -1.7995 -1.7123
18494SOL    HW257925   7.692   1.379   2.860 -0.9307  0.4298  2.6081
18495SOL     OW57926   1.428   0.601   9.626  0.2437 -0.2072 -0.1373
18495SOL    HW157927   1.471   0.681   9.595  0.2775 -0.0481  0.3121
18495SOL    HW257928   1.411   0.550   9.546  4.2647 -1.8505 -0.1978
18496SOL     OW57929   4.715   2.863   5.166  0.0775  0.0104 -0.7319
18496SOL    HW157930   4.745   2.940   5.214 -1.4394  0.1568  0.0485
18496SOL    HW257931   4.719   2.889   5.074  0.4805  0.6879 -0.5288
18497SOL     OW57932   5.271   5.863   3.705 -0.1536  0.2089  0.4833
18497SOL    HW157933   5.252   5.789   3.763 -1.0591 -0.4079 -0.5552
18497SOL    HW257934   5.275   5.825   3.617  0.3702  1.2461  0.0359
18498SOL     OW57935   4.221   1.230   3.728  0.2127  0.0073 -0.1979
18498SOL    HW157936   4.226   1.226   3.824  0.8616 -0.3758 -0.2369
18498SOL    HW257937   4.177   1.148   3.703 -0.5740  0.4260 -0.1932
18499SOL     OW57938   9.217   4.261   7.263 -0.0761  0.3879  0.9132
18499SOL    HW157939   9.312   4.267   7.278  0.0016 -1.8244  1.6114
18499SOL    HW257940   9.209   4.233   7.172 -0.0977  1.2680  0.6388
18500SOL     OW57941   6.495   0.093   8.272  0.1021  0.1538 -0.2732
18500SOL    HW157942   6.525   0.099   8.181 -1.1356  1.7673 -0.6260
18500SOL    HW257943   6.435   0.019   8.272  0.8502 -0.4770 -0.5117
18501SOL     OW57944   4.747   5.677   6.409  0.1964  0.1282 -0.0357
18501SOL    HW157945   4.695   5.730   6.350  2.0469  2.9298  0.6375
18501SOL    HW257946   4.835   5.715   6.404  1.6078 -2.7059  0.8030
18502SOL     OW57947   4.171   3.938   1.871 -0.0953 -0.5470 -0.5749
18502SOL    HW157948   4.174   3.924   1.965 -0.4479  0.1556 -0.4517
18502SOL    HW257949   4.103   3.879   1.840  0.1965 -0.9627 -0.4259
18503SOL     OW57950   5.166   8.112   2.626  0.1473  0.4630  0.3681
18503SOL    HW157951   5.123   8.196   2.614  1.1533  1.2614  1.9044
18503SOL    HW257952   5.140   8.085   2.714  0.0825 -0.6954  0.0075
18504SOL     OW57953   3.535  10.319   3.518 -0.5058  0.1293  0.5576
18504SOL    HW157954   3.529  10.245   3.457  2.5503 -1.3844  1.8987
18504SOL    HW257955   3.482  10.292   3.593  1.2887 -1.2181  1.4177
18505SOL     OW57956   9.505   9.439   4.501 -0.0006 -0.5235  0.0220
18505SOL    HW157957   9.410   9.433   4.508 -0.1890  2.3185  0.9045
18505SOL    HW257958   9.537   9.402   4.584 -0.5067  0.8199  0.8486
18506SOL     OW57959   4.606   1.326   7.401 -0.2696  0.8785 -0.2711
18506SOL    HW157960   4.684   1.291   7.445 -0.9031  0.7246  0.7617
18506SOL    HW257961   4.545   1.253   7.399 -0.5027  1.0853 -0.8110
18507SOL     OW57962   3.306   9.161   5.091 -0.1928 -0.1505  0.0319
18507SOL    HW157963   3.236   9.129   5.147  0.4791 -0.6310  0.6232
18507SOL    HW257964   3.267   9.232   5.041 -0.3885  1.4477  2.3204
18508SOL     OW57965   7.417   7.143   7.745 -0.5661 -0.2685 -0.3511
18508SOL    HW157966   7.430   7.193   7.825 -2.1555  2.0100 -1.4283
18508SOL    HW257967   7.499   7.154   7.696 -1.5883  3.3231 -1.5421
18509SOL     OW57968   0.747   2.275   9.016 -0.2631 -0.2288  0.3756
18509SOL    HW157969   0.686   2.214   9.057 -0.1043  0.0479  1.0290
18509SOL    HW257970   0.713   2.287   8.927 -0.4778 -1.0091  0.3476
18510SOL     OW57971   9.169   8.078   2.455  0.0322  0.2234 -0.0850
18510SOL    HW157972   9.180   8.158   2.507 -0.6362  0.2090  0.0856
18510SOL    HW257973   9.176   8.108   2.364 -1.1280  0.6384 -0.0520
18511SOL     OW57974   4.050   6.037   5.240 -0.0609  0.5186  1.2228
18511SOL    HW157975   3.985   6.094   5.283 -0.1911  0.7094  0.7776
18511SOL    HW257976   4.001   5.995   5.169  0.1557  0.2099  1.2571
18512SOL     OW57977   9.111   0.967   5.986  0.3691 -0.9606 -0.3458
18512SOL    HW157978   9.049   0.916   6.038 -0.6458 -0.2545 -0.8154
18512SOL    HW257979   9.097   1.057   6.014 -0.8088 -0.4443 -2.3792
18513SOL     OW57980   5.600   2.944   9.268  0.2147  0.2258  0.5364
18513SOL    HW157981   5.652   2.976   9.194  1.0846 -1.5457  0.3307
18513SOL    HW257982   5.588   2.850   9.251 -1.0514  0.1178  1.7837
18514SOL     OW57983   7.747   3.319   1.940  0.1806  0.3254  0.7507
18514SOL    HW157984   7.735   3.258   1.868 -0.3561  0.3447  0.8188
18514SOL    HW257985   7.778   3.400   1.898  0.7432  0.0618  0.6462
18515SOL     OW57986   1.437   7.181   8.659  0.2294  0.4395 -0.4670
18515SOL    HW157987   1.443   7.108   8.721  0.8370 -0.7173 -1.8467
18515SOL    HW257988   1.437   7.259   8.715  0.0186 -0.5818  1.0208
18516SOL     OW57989   2.758   6.781   4.942  0.0948 -0.3999  0.2884
18516SOL    HW157990   2.790   6.692   4.955 -0.4600 -0.7120 -0.4642
18516SOL    HW257991   2.788   6.828   5.020  2.2594 -0.6985 -0.3019
18517SOL     OW57992   9.117  10.317   2.620  0.1882  0.0934  0.1588
18517SOL    HW157993   9.099  10.261   2.695  0.5289  1.5550  1.3881
18517SOL    HW257994   9.071  10.399   2.639  0.2962  0.5085 -1.2217
18518SOL     OW57995   2.384  10.226   2.665 -0.3027 -0.0776 -0.0640
18518SOL    HW157996   2.402  10.228   2.570 -1.5144  1.6684 -0.2877
18518SOL    HW257997   2.429  10.303   2.699 -1.5698  0.4439  0.4523
18519SOL     OW57998   6.922   9.952   6.840  0.2973 -0.1116 -0.2046
18519SOL    HW157999   6.910   9.898   6.918 -0.7168  0.5643  0.1292
18519SOL    HW258000   6.861   9.916   6.776 -1.4403  1.4475  0.4817
18520SOL     OW58001   5.282   2.831   0.723 -0.0665 -0.0234  0.4998
18520SOL    HW158002   5.292   2.851   0.816  0.3317  1.2357  0.2106
18520SOL    HW258003   5.347   2.764   0.706 -0.5404 -0.6900  1.2471
18521SOL     OW58004   4.912   8.484   4.901 -0.2070  0.7860 -0.2408
18521SOL    HW158005   4.912   8.461   4.808  1.9638 -0.0796 -0.0706
18521SOL    HW258006   4.820   8.500   4.921 -0.9719 -0.8553 -2.0881
18522SOL     OW58007   2.241   7.342   5.923  0.4126  0.1076  0.2798
18522SOL    HW158008   2.218   7.266   5.976  4.7000 -0.8473  1.1434
18522SOL    HW258009   2.246   7.308   5.834 -0.2235  0.0724  0.2503
18523SOL     OW58010   6.518   1.493   0.105 -0.0385  0.4502  0.3173
18523SOL    HW158011   6.563   1.564   0.151  0.1162  0.7021 -0.2151
18523SOL    HW258012   6.436   1.533   0.074 -0.0634  0.3255  0.2243
18524SOL     OW58013   2.754   9.098   2.444  0.6771  0.5861  0.6382
18524SOL    HW158014   2.788   9.066   2.361  0.6038  0.8351  0.5112
18524SOL    HW258015   2.674   9.047   2.459  0.9876  0.1462  0.8352
18525SOL     OW58016   1.808   4.181   3.655  0.1453  0.3592  0.2373
18525SOL    HW158017   1.775   4.216   3.738  0.0850  2.0332 -0.4520
18525SOL    HW258018   1.740   4.204   3.592  0.3041 -0.6978 -0.3412
18526SOL     OW58019   0.261   2.986   6.407 -0.3304 -0.3070  0.5295
18526SOL    HW158020   0.203   2.981   6.331 -0.3242 -1.0806  0.5658
18526SOL    HW258021   0.326   3.052   6.384 -2.0169  1.6166  1.0417
18527SOL     OW58022   9.053   3.080   0.216 -0.1590  0.1949  0.2738
18527SOL    HW158023   9.025   3.004   0.166 -0.6852 -0.4079  1.4487
18527SOL    HW258024   9.000   3.078   0.295 -1.5426  2.8363 -0.4493
18528SOL     OW58025   6.637   1.376   2.735 -0.5758  0.1536 -0.4187
18528SOL    HW158026   6.721   1.366   2.779 -0.6928 -2.0875 -0.5894
18528SOL    HW258027   6.654   1.350   2.645 -1.3186  0.3408 -0.6169
18529SOL     OW58028   5.128   6.175   1.092 -0.4844 -0.0316 -0.0282
18529SOL    HW158029   5.140   6.211   1.180 -0.7080  0.5842 -0.2492
18529SOL    HW258030   5.139   6.249   1.033 -2.0427 -0.0875 -0.4285
18530SOL     OW58031   0.851   4.305   0.960 -0.4964  0.1517  0.0573
18530SOL    HW158032   0.813   4.340   0.880 -1.5891 -0.8042  0.1299
18530SOL    HW258033   0.840   4.210   0.952  1.8401 -0.1736  0.1295
18531SOL     OW58034   4.648   9.137   1.695  0.1383 -0.2547  0.2154
18531SOL    HW158035   4.630   9.053   1.652  0.6780 -0.9952  1.3992
18531SOL    HW258036   4.681   9.193   1.624  0.6220 -1.3087 -0.4219
18532SOL     OW58037   0.455   7.567   0.061 -0.0495  0.4598  0.3291
18532SOL    HW158038   0.410   7.606   0.136  0.5447 -1.2734  1.6696
18532SOL    HW258039   0.452   7.473   0.078  2.3819  0.1709 -0.5117
18533SOL     OW58040   8.065   0.381   2.950 -0.3122  0.4300  0.4407
18533SOL    HW158041   8.044   0.289   2.935 -0.8456  0.6177  0.0042
18533SOL    HW258042   8.157   0.381   2.979  0.2971 -0.0798 -1.3923
18534SOL     OW58043   4.591   4.625   1.969 -0.0955  0.2310 -0.4212
18534SOL    HW158044   4.646   4.547   1.959  0.5602  0.8383 -1.7381
18534SOL    HW258045   4.637   4.694   1.921 -1.1277  1.2089 -0.0581
18535SOL     OW58046   7.481   9.499   0.100 -0.2654  0.7159  0.4224
18535SOL    HW158047   7.565   9.463   0.129 -0.8918 -0.0462  1.3215
18535SOL    HW258048   7.417   9.431   0.120 -1.2281  1.6361  0.5388
18536SOL     OW58049   6.799   1.173   7.556 -0.2339 -0.1651 -0.2530
18536SOL    HW158050   6.831   1.179   7.646  3.5087 -1.4163 -1.3193
18536SOL    HW258051   6.784   1.264   7.530 -1.0144  0.2374  1.4414
18537SOL     OW58052   3.617   0.104   3.458 -0.4826 -0.1091  0.5925
18537SOL    HW158053   3.598   0.014   3.483  2.0309 -0.6808  0.7751
18537SOL    HW258054   3.701   0.123   3.501 -0.4825  1.9825 -0.2296
18538SOL     OW58055   4.309   5.998   4.576  0.2052  0.2773 -0.4875
18538SOL    HW158056   4.358   5.990   4.658 -0.2459 -0.7190 -0.3046
18538SOL    HW258057   4.251   6.073   4.590  1.7253  1.5716 -0.7550
18539SOL     OW58058   2.477   6.973   3.816  0.0190  0.1061 -0.1525
18539SOL    HW158059   2.443   7.061   3.828 -1.6612 -0.4341 -0.6679
18539SOL    HW258060   2.463   6.930   3.900  0.1420  0.1072 -0.1311
18540SOL     OW58061   7.103   7.407   1.723 -0.0778  0.4836  0.1328
18540SOL    HW158062   7.024   7.358   1.703 -0.4915  0.5435  1.4827
18540SOL    HW258063   7.163   7.387   1.652 -1.9267  1.9516 -1.9770
18541SOL     OW58064   9.667   7.811   3.295  0.0008 -0.2238  0.3735
18541SOL    HW158065   9.724   7.752   3.345 -0.0194 -1.5954 -1.1354
18541SOL    HW258066   9.706   7.897   3.306  1.6445 -0.9360  0.4272
18542SOL     OW58067   5.457   5.329  10.300 -0.4610 -0.2031 -0.3928
18542SOL    HW158068   5.507   5.308  10.221  0.7875 -0.6250  0.4739
18542SOL    HW258069   5.516   5.383  10.352 -0.4596 -1.5837  1.1278
18543SOL     OW58070   7.494   4.000   7.458  0.0585  0.5467  0.0501
18543SOL    HW158071   7.430   3.981   7.390 -0.5138  0.4014  0.6153
18543SOL    HW258072   7.519   4.091   7.443 -1.6743  1.2183  0.9276
18544SOL     OW58073   6.027   0.672   7.461 -0.8219  0.2861 -0.6226
18544SOL    HW158074   6.083   0.638   7.392 -1.1304  2.4557 -2.0561
18544SOL    HW258075   6.066   0.757   7.483 -1.9879  0.6031  0.3083
18545SOL     OW58076   0.604   3.903   9.228 -0.6232 -0.4440  0.3465
18545SOL    HW158077   0.606   3.935   9.318 -0.1508  1.2631 -0.2369
18545SOL    HW258078   0.516   3.925   9.197 -0.2810  0.3609 -0.0730
18546SOL     OW58079   6.586   0.113   8.021 -0.0003  0.2915  0.6347
18546SOL    HW158080   6.527   0.104   7.946 -0.0681  1.4486  0.5267
18546SOL    HW258081   6.665   0.153   7.985  0.3694 -0.0933  1.0063
18547SOL     OW58082   2.759   7.317   2.789  0.2825  0.0162 -1.1113
18547SOL    HW158083   2.784   7.385   2.851  1.4646 -2.0482  0.8065
18547SOL    HW258084   2.682   7.276   2.828  0.5270 -0.7640 -1.4306
18548SOL     OW58085   4.755   4.828   3.750 -0.1416 -0.2819  0.3881
18548SOL    HW158086   4.694   4.821   3.824  0.7183  0.6430  1.2301
18548SOL    HW258087   4.818   4.758   3.764 -0.3704 -0.5407  0.1367
18549SOL     OW58088   8.352   4.661   0.018  0.3989 -0.3264  0.2633
18549SOL    HW158089   8.390   4.588   0.066  0.1819 -0.4660  0.2227
18549SOL    HW258090   8.276   4.687   0.069  1.1080  0.5983  0.8741
18550SOL     OW58091   5.506   7.441   5.308  0.2843 -0.1523 -0.8221
18550SOL    HW158092   5.490   7.463   5.399  0.2487  0.0988 -0.8884
18550SOL    HW258093   5.428   7.392   5.280 -0.8057  1.7939 -1.3915
18551SOL     OW58094   8.736   5.688   6.560 -0.1057 -0.0257  0.1962
18551SOL    HW158095   8.811   5.744   6.579 -0.1646 -0.4092  1.6508
18551SOL    HW258096   8.761   5.602   6.593 -0.0480 -0.8911 -1.9181
18552SOL     OW58097   9.020   8.076   9.996  0.0301 -0.5481 -0.1695
18552SOL    HW158098   9.009   7.996   9.945 -0.9456 -0.4095 -0.1919
18552SOL    HW258099   9.111   8.101   9.981  0.0570 -1.0914 -0.9923
18553SOL     OW58100  10.266   4.332   1.258  0.5221  0.3151 -0.3244
18553SOL    HW158101  10.296   4.410   1.211  0.5598  1.1229  0.9976
18553SOL    HW258102  10.177   4.318   1.227  0.5701  0.7925 -0.6925
18554SOL     OW58103   8.413   7.781   4.986  0.1284  0.3748  0.1721
18554SOL    HW158104   8.341   7.793   5.047  1.4339  0.2710  1.8224
18554SOL    HW258105   8.404   7.852   4.923 -0.3881  1.4310  1.3951
18555SOL     OW58106   1.830   6.088   7.959  0.2229 -0.5007  0.5404
18555SOL    HW158107   1.765   6.134   8.013  0.3218  0.9914 -0.5607
18555SOL    HW258108   1.785   6.008   7.931 -0.0806 -0.9650  2.2069
18556SOL     OW58109   1.320   2.219   2.964  0.0956  0.0822 -0.4638
18556SOL    HW158110   1.282   2.190   2.881 -0.3463  0.2135 -0.3111
18556SOL    HW258111   1.382   2.150   2.988 -1.8593 -1.4231  0.5489
18557SOL     OW58112   9.209   4.403   3.614  0.4403  1.1231 -0.2195
18557SOL    HW158113   9.229   4.476   3.672  0.2572  1.0345 -0.0435
18557SOL    HW258114   9.137   4.356   3.658  1.9507 -0.3985  0.7574
18558SOL     OW58115   0.466   9.868   6.143  0.1491  0.3018  0.0660
18558SOL    HW158116   0.424   9.954   6.138  0.0849  0.3149  0.7007
18558SOL    HW258117   0.448   9.827   6.058 -3.1506 -0.6221  1.0342
18559SOL     OW58118   2.022   8.136   3.257  0.0558 -0.1991 -0.1067
18559SOL    HW158119   1.961   8.146   3.330 -0.8779 -1.5870 -0.6552
18559SOL    HW258120   2.107   8.122   3.299 -0.4739 -1.0127  0.7424
18560SOL     OW58121   5.705   6.805   5.566  0.2448  0.0743 -0.0015
18560SOL    HW158122   5.796   6.784   5.548  0.8520  0.3097  2.4219
18560SOL    HW258123   5.686   6.881   5.511  0.9675 -0.9239 -1.7164
18561SOL     OW58124   8.022   9.382   1.842  0.0262 -0.2975 -0.2159
18561SOL    HW158125   8.108   9.401   1.880  0.2329  0.8162 -1.1631
18561SOL    HW258126   8.031   9.404   1.749 -1.7578  1.6089 -0.0177
18562SOL     OW58127   6.023   1.943   7.487 -0.5113  0.1465 -0.0397
18562SOL    HW158128   6.072   2.024   7.469 -0.9947  0.4045 -0.2137
18562SOL    HW258129   5.962   1.936   7.413 -2.3015  1.0355  1.2890
18563SOL     OW58130   8.287   3.885   3.493  0.5143 -0.2334 -0.7948
18563SOL    HW158131   8.342   3.808   3.475 -0.9957 -1.4974 -0.3203
18563SOL    HW258132   8.250   3.868   3.580  0.9091  1.5503 -0.2348
18564SOL     OW58133   2.104   6.302   9.784  0.2082 -0.3030 -0.0656
18564SOL    HW158134   2.089   6.269   9.695 -0.6786  1.0031 -0.4324
18564SOL    HW258135   2.143   6.388   9.771  0.1564 -0.1392  0.8224
18565SOL     OW58136   2.365   9.657   1.605  0.2399  0.4047 -0.0548
18565SOL    HW158137   2.382   9.631   1.514 -0.1497  1.5428 -0.4721
18565SOL    HW258138   2.305   9.732   1.598 -0.2122  0.1843  1.1638
18566SOL     OW58139   7.652   0.334   1.925 -0.4075 -0.1980 -0.1347
18566SOL    HW158140   7.637   0.265   1.861 -0.3329 -1.4145  1.1003
18566SOL    HW258141   7.726   0.383   1.891 -0.0969 -1.0851 -0.7645
18567SOL     OW58142   7.753   3.868   2.148 -0.1562 -0.6180 -0.2001
18567SOL    HW158143   7.815   3.796   2.156  0.4761 -0.1256 -0.5480
18567SOL    HW258144   7.669   3.825   2.132  0.1006 -1.2937  0.2037
18568SOL     OW58145   0.014   2.053   9.641 -0.4526  0.2666  0.0188
18568SOL    HW158146   0.097   2.051   9.689  0.2507  0.9600 -1.1106
18568SOL    HW258147  -0.044   2.108   9.694  0.0203  0.3119  0.4908
18569SOL     OW58148   1.920   9.640   8.491  0.3222  0.8744 -0.3671
18569SOL    HW158149   1.860   9.614   8.561 -2.4428  2.9377 -1.8094
18569SOL    HW258150   1.906   9.575   8.422  1.0029  0.4358 -0.1070
18570SOL     OW58151   2.516   6.408   8.342  0.2975 -0.3706  0.1839
18570SOL    HW158152   2.573   6.436   8.414 -0.0445  1.2374 -0.1375
18570SOL    HW258153   2.559   6.331   8.306  2.4972  1.0133 -0.3045
18571SOL     OW58154   2.885   8.189   5.797 -0.2274 -0.3704  0.3570
18571SOL    HW158155   2.953   8.230   5.850 -0.2016 -0.3846  0.3351
18571SOL    HW258156   2.922   8.104   5.772 -0.0447 -0.1673 -0.0776
18572SOL     OW58157   9.270   3.289   9.775 -0.0127 -0.4206  0.0241
18572SOL    HW158158   9.277   3.384   9.785  1.1531 -0.7422  3.4624
18572SOL    HW258159   9.181   3.268   9.804  0.0695 -0.4660  0.2452
18573SOL     OW58160   7.702   4.590   0.807 -0.1183  0.1773  0.2008
18573SOL    HW158161   7.630   4.546   0.761 -1.5324  0.7492  1.7820
18573SOL    HW258162   7.746   4.640   0.738 -0.1982 -1.4581 -1.1065
18574SOL     OW58163   1.536   7.323   1.713  0.1780  0.2930  0.1517
18574SOL    HW158164   1.524   7.411   1.749  0.5261 -0.6790  2.8775
18574SOL    HW258165   1.448   7.287   1.706  0.1026  0.5120 -0.0213
18575SOL     OW58166   8.898   9.308   3.963  0.8526  0.3965 -0.4384
18575SOL    HW158167   8.814   9.272   3.935  1.6492 -1.3931 -0.6844
18575SOL    HW258168   8.877   9.361   4.040 -0.2747 -1.6517  0.7356
18576SOL     OW58169   1.885   2.450   8.133 -0.1427 -0.6527 -0.2707
18576SOL    HW158170   1.905   2.500   8.213 -0.2099  2.2718 -1.9474
18576SOL    HW258171   1.957   2.470   8.074  0.4032 -3.5354 -0.7166
18577SOL     OW58172   9.272   2.808   0.906  0.2031 -0.1820 -0.0946
18577SOL    HW158173   9.180   2.782   0.906 -0.3713  1.6441  1.5477
18577SOL    HW258174   9.290   2.831   0.814 -1.3382  0.5712 -0.2425
18578SOL     OW58175   4.178   1.746   4.241 -0.1055  0.2189 -0.6237
18578SOL    HW158176   4.148   1.821   4.189 -0.4065  0.4703 -0.0935
18578SOL    HW258177   4.102   1.723   4.295  0.1189 -0.2159 -0.4916
18579SOL     OW58178   9.714   5.639   6.566 -0.1088 -0.2154 -0.4306
18579SOL    HW158179   9.664   5.692   6.627  0.8335 -0.9073  1.0127
18579SOL    HW258180   9.703   5.549   6.597  0.6988 -0.5457 -1.0396
18580SOL     OW58181   2.070   9.725   5.639 -0.0516 -0.1507  0.5318
18580SOL    HW158182   2.002   9.692   5.698 -0.6641 -0.5406 -0.3812
18580SOL    HW258183   2.085   9.654   5.578  0.8891  0.0953  0.4687
18581SOL     OW58184   4.161   4.673   1.919 -0.1823 -0.5546  0.9690
18581SOL    HW158185   4.101   4.730   1.968 -0.1698  0.0302  0.3235
18581SOL    HW258186   4.114   4.654   1.838  1.3611  1.7818 -0.5995
18582SOL     OW58187   6.318   6.333   8.823 -0.0109 -0.2744 -0.5002
18582SOL    HW158188   6.262   6.383   8.882 -0.5299 -1.7038  0.2752
18582SOL    HW258189   6.403   6.377   8.828 -0.0630 -0.2766  1.2611
18583SOL     OW58190   1.960   8.945   4.953 -0.1370 -0.7340 -0.0284
18583SOL    HW158191   1.970   8.858   4.993  0.0428 -1.2311 -1.1182
18583SOL    HW258192   2.008   8.939   4.870  2.1019  1.2082  0.9915
18584SOL     OW58193  10.442   5.184   1.113 -0.1878  0.4203  0.7649
18584SOL    HW158194  10.428   5.278   1.115 -0.1427  0.5245 -1.7184
18584SOL    HW258195  10.475   5.163   1.201 -3.1453  2.1671  2.4369
18585SOL     OW58196   0.058   4.892   4.022  0.1911 -0.1681  0.1597
18585SOL    HW158197   0.049   4.930   3.935 -0.3303 -0.7587 -0.0524
18585SOL    HW258198   0.138   4.839   4.016 -0.1996 -0.7312 -0.1646
18586SOL     OW58199   5.358   1.839   0.073 -0.5031 -0.0682 -0.7499
18586SOL    HW158200   5.294   1.777   0.038 -1.9410  1.7382 -1.5442
18586SOL    HW258201   5.313   1.880   0.147  1.0400 -1.0661  0.8029
18587SOL     OW58202   1.029   4.141   3.658  0.3547  0.1610 -0.0497
18587SOL    HW158203   0.990   4.169   3.576  0.3071 -0.5320 -0.2770
18587SOL    HW258204   1.121   4.168   3.652  0.0816  1.1487  0.1763
18588SOL     OW58205   5.383   1.514   3.356  0.2222 -0.2109 -0.6673
18588SOL    HW158206   5.387   1.427   3.317 -0.7287 -0.1621 -0.8919
18588SOL    HW258207   5.462   1.520   3.410  0.2825 -1.2192 -0.6308
18589SOL     OW58208   8.090   3.627   9.428  0.3522  0.6550 -0.0931
18589SOL    HW158209   8.078   3.611   9.335 -1.3691 -0.0316  0.2008
18589SOL    HW258210   8.017   3.684   9.452  1.6515  2.0899  0.5525
18590SOL     OW58211   1.885   1.637   7.065 -0.5162 -0.3779  0.5811
18590SOL    HW158212   1.958   1.584   7.096 -0.1920 -0.7100 -0.6667
18590SOL    HW258213   1.888   1.716   7.118  0.9398 -0.2561  0.3605
18591SOL     OW58214   0.394   0.612   7.521 -0.2047 -0.2427 -0.3316
18591SOL    HW158215   0.392   0.661   7.438 -0.3116  1.5924  0.6917
18591SOL    HW258216   0.481   0.630   7.557 -0.3624 -0.5680  0.2128
18592SOL     OW58217  10.414   2.230   8.630  0.2392  0.4200  0.2458
18592SOL    HW158218  10.404   2.137   8.646  2.3304  0.1196  0.1064
18592SOL    HW258219  10.374   2.272   8.706 -1.8971 -0.4986 -0.3027
18593SOL     OW58220   1.348   4.309   7.241 -0.1829 -0.2330 -0.0317
18593SOL    HW158221   1.355   4.228   7.191 -3.0277 -0.1040 -0.8012
18593SOL    HW258222   1.437   4.344   7.242  0.6077 -1.9787 -2.0548
18594SOL     OW58223   8.158   3.497   5.930 -0.5263 -0.0251 -0.0907
18594SOL    HW158224   8.253   3.497   5.926 -0.5550 -0.7269 -0.9771
18594SOL    HW258225   8.130   3.513   5.840 -1.2567  0.8262  0.2628
18595SOL     OW58226   8.706   0.690   3.824  0.1417  0.0065 -0.1222
18595SOL    HW158227   8.701   0.697   3.919  2.5015  0.4351  0.0403
18595SOL    HW258228   8.615   0.685   3.795 -0.7171  1.7269  2.0151
18596SOL     OW58229   6.291   5.772   7.391 -0.0724  0.7272  0.2153
18596SOL    HW158230   6.250   5.688   7.370  0.5731 -0.1352  2.2130
18596SOL    HW258231   6.257   5.832   7.324 -1.1962 -0.9095 -0.7672
18597SOL     OW58232   3.001   0.554   4.097 -0.1396 -0.3961 -0.4493
18597SOL    HW158233   2.949   0.507   4.031  0.3257 -1.4001 -0.1183
18597SOL    HW258234   3.086   0.566   4.055 -0.5006  0.9781 -0.8731
18598SOL     OW58235   8.963  10.352   7.718 -0.2308  0.4031  0.9841
18598SOL    HW158236   8.999  10.441   7.709  3.6472 -1.1708 -1.4753
18598SOL    HW258237   8.999  10.319   7.800 -0.2502  0.5410  1.0481
18599SOL     OW58238   1.305   1.092   3.569 -0.3968  0.0516  0.4597
18599SOL    HW158239   1.398   1.082   3.548 -0.3472 -0.1130  0.7564
18599SOL    HW258240   1.294   1.186   3.584 -0.4744  0.2008 -0.4876
18600SOL     OW58241   9.430  10.018   5.916 -0.1421 -0.0967  0.5736
18600SOL    HW158242   9.518  10.055   5.914 -0.4749  0.6942 -1.1215
18600SOL    HW258243   9.401  10.029   6.007  1.0309  0.7446  0.8670
18601SOL     OW58244   2.496   6.918   3.539  0.3177  0.0010  0.0984
18601SOL    HW158245   2.401   6.929   3.529  0.3814  0.0337 -0.5004
18601SOL    HW258246   2.515   6.958   3.624 -0.2772 -0.4530  0.4601
18602SOL     OW58247   4.181   2.440   7.973 -0.4063 -0.4344 -0.4288
18602SOL    HW158248   4.235   2.399   8.040 -1.9516 -0.8630  0.6021
18602SOL    HW258249   4.241   2.496   7.924  1.0346 -1.2143  0.3953
18603SOL     OW58250   5.080   3.331   3.755 -0.7716  0.5920  0.3612
18603SOL    HW158251   5.040   3.401   3.703 -2.3544  0.7628  1.7171
18603SOL    HW258252   5.028   3.328   3.835  1.5239  0.3050  1.9394
18604SOL     OW58253   9.625   7.060   2.377  0.2530 -0.2828  0.0323
18604SOL    HW158254   9.664   6.979   2.345  0.8915  0.2073 -0.4911
18604SOL    HW258255   9.531   7.042   2.381  0.4980 -1.4162  1.0820
18605SOL     OW58256   6.468   0.267   6.946 -0.7761  0.4700 -0.4977
18605SOL    HW158257   6.429   0.194   6.897  0.1110  0.0572 -0.6075
18605SOL    HW258258   6.484   0.231   7.033 -2.0611  1.1110  0.0360
18606SOL     OW58259   5.855   2.098   6.269 -0.7145  0.0274 -0.3219
18606SOL    HW158260   5.793   2.152   6.219  0.2074  0.6468 -0.8388
18606SOL    HW258261   5.847   2.130   6.359 -1.0365  0.2041 -0.4103
18607SOL     OW58262   3.757   2.785   9.915 -0.3238 -0.7932  0.1337
18607SOL    HW158263   3.662   2.775   9.920 -0.7862 -0.1512 -3.9961
18607SOL    HW258264   3.770   2.880   9.910  0.4680 -0.9142 -0.1404
18608SOL     OW58265   5.822   7.003   0.789  0.2596  0.0831  0.1938
18608SOL    HW158266   5.774   7.001   0.872  1.5329 -1.1252  0.9281
18608SOL    HW258267   5.758   6.974   0.724 -0.2958 -0.5287  0.9976
18609SOL     OW58268   2.599   0.339   8.153 -0.4806 -0.1053  0.3624
18609SOL    HW158269   2.593   0.266   8.214  0.8997 -0.7325 -0.2136
18609SOL    HW258270   2.691   0.364   8.154 -0.6811  0.7310 -0.4881
18610SOL     OW58271   4.197   3.670   8.729 -0.0560 -0.5498 -0.0837
18610SOL    HW158272   4.282   3.656   8.687 -0.3906 -0.0202 -0.9734
18610SOL    HW258273   4.179   3.588   8.776  0.9788 -0.6286  0.1901
18611SOL     OW58274   5.407   2.367   1.618  0.1138  0.0349  0.4050
18611SOL    HW158275   5.380   2.389   1.707 -0.8400  1.5303 -0.2077
18611SOL    HW258276   5.484   2.311   1.629  0.3800  0.6793  2.1652
18612SOL     OW58277   9.260   3.827   0.029  0.1604  0.1014 -0.5483
18612SOL    HW158278   9.296   3.741   0.005  1.0811 -0.0076  1.0716
18612SOL    HW258279   9.274   3.832   0.124  0.1893  2.0755 -0.6352
18613SOL     OW58280   0.192   2.616   1.521 -0.5341  0.4514  0.6074
18613SOL    HW158281   0.256   2.633   1.590 -0.6262 -0.6218  0.9880
18613SOL    HW258282   0.116   2.581   1.568 -0.7518  0.1045 -0.0013
18614SOL     OW58283  10.074   1.016   7.667  0.1803  0.0446  0.6612
18614SOL    HW158284   9.991   1.052   7.636 -0.9897 -1.1425  2.2423
18614SOL    HW258285  10.096   0.948   7.603  0.6441  1.2237 -0.4703
18615SOL     OW58286   5.274   7.844   6.356  0.1254  0.5738  0.7500
18615SOL    HW158287   5.251   7.762   6.312  0.7466 -0.3142  2.0190
18615SOL    HW258288   5.202   7.904   6.334  0.7307  0.4102 -1.9829
18616SOL     OW58289   8.294   8.544   6.511 -0.1666  0.2305 -0.2480
18616SOL    HW158290   8.211   8.560   6.555  0.2821  1.1138  0.2995
18616SOL    HW258291   8.351   8.509   6.579  0.6365  1.9268 -0.0063
18617SOL     OW58292   5.160   7.649   1.443  0.0163 -0.1623 -0.4023
18617SOL    HW158293   5.172   7.583   1.374  0.4126  1.2566 -1.7323
18617SOL    HW258294   5.117   7.722   1.400  1.1805  1.1753  0.6046
18618SOL     OW58295   0.526   0.732   2.809 -0.4202  0.4554  0.0909
18618SOL    HW158296   0.550   0.764   2.722  0.8537  1.8565  0.9153
18618SOL    HW258297   0.609   0.722   2.855 -0.8703 -2.5197  0.4623
18619SOL     OW58298   2.461   3.407   6.476  0.2366 -0.5134  0.0876
18619SOL    HW158299   2.391   3.395   6.412  0.0807 -0.1823  0.1949
18619SOL    HW258300   2.429   3.365   6.555  0.7709 -1.6474 -0.2802
18620SOL     OW58301   0.500   7.245   1.469  0.3708 -0.3977 -0.1162
18620SOL    HW158302   0.446   7.274   1.396 -0.6543 -0.1303  0.7171
18620SOL    HW258303   0.563   7.184   1.430 -0.8625 -1.1154 -1.0511
18621SOL     OW58304   7.904   3.516   0.959  0.3420  0.3377 -0.2820
18621SOL    HW158305   7.975   3.456   0.935  1.5125  1.6432 -0.2122
18621SOL    HW258306   7.896   3.576   0.885 -0.4479  0.4401 -0.1301
18622SOL     OW58307   3.205   1.150  10.103  0.8715 -0.2336 -0.1626
18622SOL    HW158308   3.226   1.229  10.055  0.5817 -0.8040 -1.2670
18622SOL    HW258309   3.284   1.129  10.152  1.3038  0.1710 -0.6798
18623SOL     OW58310   5.250   9.584   6.127  0.4322 -0.0842  0.2104
18623SOL    HW158311   5.170   9.611   6.081  0.3923  0.3316  0.5237
18623SOL    HW258312   5.321   9.615   6.072  0.4008 -1.3250 -0.5958
18624SOL     OW58313   1.489   0.144   4.929 -0.4604  0.4067  0.1665
18624SOL    HW158314   1.414   0.195   4.959 -1.9671 -0.7195 -1.4729
18624SOL    HW258315   1.527   0.106   5.008 -1.4318  1.2324  1.0495
18625SOL     OW58316   6.075   1.117   7.046 -0.0373  0.0892  0.1558
18625SOL    HW158317   6.008   1.135   6.980 -0.3917 -0.2031  0.4290
18625SOL    HW258318   6.074   1.193   7.103  0.6872  0.6102 -0.5156
18626SOL     OW58319   5.847   8.264   3.301 -0.2513 -0.2938  0.8905
18626SOL    HW158320   5.818   8.263   3.209 -1.7175 -0.7779  1.3228
18626SOL    HW258321   5.898   8.345   3.309 -0.0552 -0.2734 -0.3573
18627SOL     OW58322   9.294   7.331   7.288 -0.3960  0.0300  0.3804
18627SOL    HW158323   9.278   7.247   7.330  0.8075 -0.3303  0.1555
18627SOL    HW258324   9.376   7.363   7.327  0.1863  0.1783 -0.8903
18628SOL     OW58325   4.058   5.472   8.022  0.0458  0.4983 -0.0502
18628SOL    HW158326   4.137   5.417   8.024  0.1839  0.6819  1.8054
18628SOL    HW258327   3.991   5.417   7.982  0.1803 -1.0922  1.7390
18629SOL     OW58328   7.802   2.178   3.970 -0.1949 -0.0479 -0.1916
18629SOL    HW158329   7.816   2.239   4.043 -1.2926 -0.1467  0.1254
18629SOL    HW258330   7.874   2.196   3.910  0.3913  0.4586  0.6306
18630SOL     OW58331   2.597   2.815   5.241 -0.2480 -0.3818  0.7146
18630SOL    HW158332   2.654   2.832   5.166 -1.3550 -0.3770 -0.1554
18630SOL    HW258333   2.576   2.722   5.234  1.0262 -0.7903  2.0344
18631SOL     OW58334   3.927   5.932   4.156  0.2169 -0.2014  0.0707
18631SOL    HW158335   4.003   5.962   4.105 -0.1138 -1.0733 -0.9827
18631SOL    HW258336   3.962   5.863   4.212  0.0967 -1.0724 -0.9022
18632SOL     OW58337   4.965   7.089   8.614  0.3242  0.7075 -0.0499
18632SOL    HW158338   5.034   7.066   8.677 -0.1629 -0.9726 -0.1072
18632SOL    HW258339   5.004   7.159   8.562  2.0773 -0.3074 -0.1847
18633SOL     OW58340   5.772   0.257   8.008  0.0754  0.1177  0.2986
18633SOL    HW158341   5.733   0.180   8.049  1.0713  0.1164  1.3033
18633SOL    HW258342   5.721   0.270   7.928 -2.2241  0.3607  1.7049
18634SOL     OW58343   5.415   6.681   8.990  0.0918  0.2350 -0.1899
18634SOL    HW158344   5.320   6.689   8.979  0.1519 -0.5003 -1.4446
18634SOL    HW258345   5.432   6.587   8.981  1.1783  0.5738 -2.3436
18635SOL     OW58346   3.946   2.567   5.304 -0.2063  0.3279 -0.3152
18635SOL    HW158347   3.886   2.496   5.326 -0.7524  0.4696 -1.2990
18635SOL    HW258348   3.891   2.632   5.260  0.4719  0.9314 -0.2866
18636SOL     OW58349   9.617   3.305   8.673  0.0816 -0.3588  0.1557
18636SOL    HW158350   9.557   3.354   8.617  1.1012  0.3084 -0.4074
18636SOL    HW258351   9.581   3.314   8.761 -0.8723 -0.3621 -0.2264
18637SOL     OW58352   6.371   2.624   9.517 -0.1010  0.0692  0.3131
18637SOL    HW158353   6.314   2.555   9.552 -0.5675  0.1250 -0.3124
18637SOL    HW258354   6.417   2.658   9.593 -1.2270  0.3095  0.9091
18638SOL     OW58355   9.505   2.789   8.204  0.4415 -0.4851  0.2762
18638SOL    HW158356   9.593   2.757   8.222  1.2076  2.2312  1.9339
18638SOL    HW258357   9.467   2.806   8.290 -1.3427 -0.5983 -0.4348
18639SOL     OW58358   6.032   5.496   6.093 -0.0981  0.3595 -0.3798
18639SOL    HW158359   5.971   5.534   6.156 -1.1188 -3.1348  1.0113
18639SOL    HW258360   6.012   5.540   6.011 -2.2564  1.6118  0.7221
18640SOL     OW58361   2.776   7.066   9.075 -0.3402 -0.4023  0.0292
18640SOL    HW158362   2.687   7.033   9.091 -1.0482  0.0724 -2.5140
18640SOL    HW258363   2.764   7.141   9.016  1.7627 -0.4003 -0.4773
18641SOL     OW58364   0.458   1.619   0.964 -0.3286 -0.2808  0.2951
18641SOL    HW158365   0.534   1.609   0.908  0.1335  1.7255  0.5187
18641SOL    HW258366   0.491   1.659   1.045 -1.3133 -1.1962  1.2010
18642SOL     OW58367   5.644   4.011   9.765 -0.0513  0.1098  0.6329
18642SOL    HW158368   5.625   3.943   9.700 -0.9467  0.7279  0.2315
18642SOL    HW258369   5.563   4.021   9.814 -0.1334  1.2890  0.3018
18643SOL     OW58370   6.655   0.487   2.720 -0.0966  0.0338  0.4132
18643SOL    HW158371   6.676   0.578   2.696  0.4870 -0.1370  0.2674
18643SOL    HW258372   6.700   0.473   2.803  2.3161 -1.0405 -0.9735
18644SOL     OW58373   3.220   4.948   1.152  0.4956  1.0223  0.1122
18644SOL    HW158374   3.263   5.020   1.198  2.1723  0.8104 -1.0390
18644SOL    HW258375   3.242   4.870   1.202  2.3699  0.7830 -0.9786
18645SOL     OW58376   2.793   7.215   5.124 -0.1778  0.0886  0.6169
18645SOL    HW158377   2.788   7.290   5.183 -0.3372  0.6207 -0.0563
18645SOL    HW258378   2.722   7.229   5.061  0.3446 -0.1479 -0.0466
18646SOL     OW58379   5.546   4.771   3.228  0.2571 -1.5983 -0.8075
18646SOL    HW158380   5.528   4.865   3.224  1.2598 -1.4088 -1.2334
18646SOL    HW258381   5.581   4.757   3.316  0.7209 -1.4464 -0.9633
18647SOL     OW58382   6.071   2.076   2.246  0.4217 -0.7430 -0.1448
18647SOL    HW158383   6.152   2.128   2.243 -0.2680  0.3561 -0.1608
18647SOL    HW258384   6.050   2.069   2.339 -0.0685 -0.0419 -0.1933
18648SOL     OW58385  10.193   4.051   2.774 -0.9657  0.1292  0.3084
18648SOL    HW158386  10.099   4.060   2.760 -0.9797  1.3080  1.0449
18648SOL    HW258387  10.204   4.053   2.869 -0.4419 -3.0035  0.3914
18649SOL     OW58388   6.512   0.840   6.815 -0.1377 -0.0783  0.3652
18649SOL    HW158389   6.506   0.935   6.814 -1.0699 -0.1215 -0.8368
18649SOL    HW258390   6.606   0.822   6.820  0.0833  0.9177 -0.0020
18650SOL     OW58391   5.760   1.904   6.893 -0.2401 -0.1643  0.2747
18650SOL    HW158392   5.794   1.815   6.888 -1.3265 -0.6336  0.7401
18650SOL    HW258393   5.750   1.920   6.987 -0.5121  0.2581  0.1749
18651SOL     OW58394   4.486  10.326   9.624  0.0649 -0.4214  0.3340
18651SOL    HW158395   4.484  10.233   9.647 -1.6031 -1.1815 -2.3563
18651SOL    HW258396   4.405  10.361   9.661  1.3710  0.3898  2.5882
18652SOL     OW58397   2.549   1.054   4.110  0.2284 -0.2204 -0.5011
18652SOL    HW158398   2.628   1.035   4.059  1.2632 -2.2452  1.6349
18652SOL    HW258399   2.484   0.993   4.076  0.2736 -0.1359 -0.7461
18653SOL     OW58400   1.933   7.556   4.269  0.4378 -0.3066  0.0310
18653SOL    HW158401   2.009   7.574   4.213  0.1403 -3.0809 -1.4261
18653SOL    HW258402   1.875   7.502   4.214 -1.7754  0.2372  1.7054
18654SOL     OW58403   6.768   2.563   9.426  0.2282  0.0330  0.4501
18654SOL    HW158404   6.750   2.474   9.396  1.1327 -0.9218  2.5133
18654SOL    HW258405   6.862   2.573   9.416  0.1178  0.7893  0.1495
18655SOL     OW58406   1.345   6.619   2.157  0.5215 -0.1256  0.5089
18655SOL    HW158407   1.422   6.671   2.181  0.0450  0.7357  0.2209
18655SOL    HW258408   1.362   6.591   2.067  0.1213  0.8243  0.1173
18656SOL     OW58409   0.873   0.301   4.733 -0.6517  0.0286 -0.2926
18656SOL    HW158410   0.906   0.366   4.796 -1.4297  0.1595 -0.0096
18656SOL    HW258411   0.844   0.228   4.787 -0.3166 -0.3212 -0.5787
18657SOL     OW58412   4.812   3.268   6.893  0.1660  0.3648  0.4475
18657SOL    HW158413   4.892   3.296   6.849 -0.4825 -0.4452 -1.3786
18657SOL    HW258414   4.745   3.271   6.824 -0.9826 -0.6524  1.4715
18658SOL     OW58415   4.339   5.450   4.222  0.2851 -0.0126 -0.0744
18658SOL    HW158416   4.383   5.521   4.176 -0.3567  0.2932 -0.2375
18658SOL    HW258417   4.370   5.457   4.313 -2.1202  2.5575  0.7316
18659SOL     OW58418   3.011   0.918   2.767 -0.2725  0.6997 -0.2008
18659SOL    HW158419   3.097   0.894   2.801 -0.7205  0.0786  0.5319
18659SOL    HW258420   2.983   0.843   2.715  0.1730  1.4260 -1.5465
18660SOL     OW58421   8.919   2.837   7.594 -0.0345  0.2132 -0.2468
18660SOL    HW158422   8.942   2.917   7.547 -1.9707  1.9061  1.5228
18660SOL    HW258423   8.827   2.823   7.575 -0.0274 -0.9361  0.4387
18661SOL     OW58424   8.667   5.190   2.015  0.0077 -0.3333  0.5298
18661SOL    HW158425   8.714   5.217   2.094 -1.2214 -0.9792  1.5135
18661SOL    HW258426   8.699   5.249   1.947  0.8281  0.4818  1.5913
18662SOL     OW58427   1.960   6.366   0.089 -0.2110 -0.2503  0.8487
18662SOL    HW158428   1.893   6.324   0.143 -1.5767  0.8003  0.0457
18662SOL    HW258429   1.917   6.378   0.004  1.9341 -2.0564 -0.6012
18663SOL     OW58430   1.657   5.952   9.772 -0.2990  0.0326 -0.1456
18663SOL    HW158431   1.571   5.913   9.757 -1.0935  2.2663 -2.2527
18663SOL    HW258432   1.712   5.918   9.702 -0.5171  1.2396 -0.9448
18664SOL     OW58433   1.425   0.108   9.719  0.1153  0.2813  1.0244
18664SOL    HW158434   1.430   0.202   9.730  1.7413  0.5002 -1.0269
18664SOL    HW258435   1.336   0.085   9.745 -0.7877  2.6037  0.1985
18665SOL     OW58436   0.193   6.531   6.068 -0.4110 -0.2840 -0.4678
18665SOL    HW158437   0.214   6.569   6.153 -0.1111 -0.5047 -0.4410
18665SOL    HW258438   0.216   6.439   6.076 -1.5895 -0.5916 -0.3717
18666SOL     OW58439   2.618  10.264   5.275  1.0433  0.4934 -0.8445
18666SOL    HW158440   2.548  10.260   5.340  1.7108 -2.2725 -0.1672
18666SOL    HW258441   2.669  10.341   5.299  0.3167  0.4762  0.8926
18667SOL     OW58442   7.584   3.684   4.049 -0.4384  0.4016  0.5279
18667SOL    HW158443   7.517   3.657   3.987  0.4211  0.3272 -0.3869
18667SOL    HW258444   7.605   3.605   4.099 -1.0999  0.4530  0.9005
18668SOL     OW58445   3.378  10.221   0.429 -0.2170  0.1621 -0.0353
18668SOL    HW158446   3.396  10.308   0.464  0.9203  0.6912 -1.7942
18668SOL    HW258447   3.287  10.224   0.402 -0.1161  0.9023 -0.3157
18669SOL     OW58448   5.223   4.536   9.118 -0.4349 -0.0225 -1.1079
18669SOL    HW158449   5.145   4.591   9.127  0.7302  1.4718  0.3590
18669SOL    HW258450   5.234   4.526   9.023 -1.3986  1.2397 -1.3795
18670SOL     OW58451   3.099   9.979   2.141  0.0663  0.6047 -0.5706
18670SOL    HW158452   3.137   9.895   2.168  0.1112  0.4336 -1.1390
18670SOL    HW258453   3.118   9.984   2.047 -0.6946  0.8433 -0.7194
18671SOL     OW58454   3.874   8.029   6.807 -0.9267 -0.4577 -0.0030
18671SOL    HW158455   3.780   8.010   6.806 -0.9282 -1.0124  2.7702
18671SOL    HW258456   3.893   8.049   6.899  0.7582  4.8331 -1.1624
18672SOL     OW58457   4.226   5.956   8.516 -0.1259 -0.3658 -0.1223
18672SOL    HW158458   4.205   5.894   8.446 -0.0942 -1.5800  0.8998
18672SOL    HW258459   4.170   5.929   8.589  0.4311  0.3395  0.5837
18673SOL     OW58460   0.644   8.203   2.347 -0.3768 -0.3307 -0.0499
18673SOL    HW158461   0.686   8.288   2.361 -1.4312  0.1901  0.0745
18673SOL    HW258462   0.662   8.153   2.427 -0.0984 -0.0732  0.0473
18674SOL     OW58463   4.562   4.650   9.901  0.4683 -0.1556  0.5404
18674SOL    HW158464   4.570   4.556   9.919  0.5337 -0.2496  0.0409
18674SOL    HW258465   4.528   4.687   9.982 -0.5973 -0.7765  0.4018
18675SOL     OW58466   2.960   9.518   9.892 -0.2603  0.3052 -0.0641
18675SOL    HW158467   2.978   9.598   9.942  1.1709  1.0399 -1.6431
18675SOL    HW258468   2.968   9.447   9.957  1.8299  1.1919  0.7448
18676SOL     OW58469  10.474   1.543   0.367 -0.4064  0.1861  0.4467
18676SOL    HW158470  10.428   1.547   0.283 -1.0251 -0.3078  0.7477
18676SOL    HW258471  10.460   1.453   0.397 -0.3585  0.4138  1.1637
18677SOL     OW58472   1.817   9.525   4.998 -0.0070  0.1430  0.0301
18677SOL    HW158473   1.780   9.452   5.047 -0.4863 -0.0830 -0.6573
18677SOL    HW258474   1.898   9.546   5.044  1.1362 -2.0697 -0.8201
18678SOL     OW58475   2.244   3.458   5.177 -0.1053  0.0410 -0.1525
18678SOL    HW158476   2.167   3.484   5.226 -1.7699 -1.7458 -1.6761
18678SOL    HW258477   2.230   3.366   5.156  2.0305 -0.1063 -1.2652
18679SOL     OW58478   9.634   7.849   1.237 -0.3914  0.4937  0.3007
18679SOL    HW158479   9.680   7.776   1.196 -0.1306  2.1120 -2.5664
18679SOL    HW258480   9.543   7.820   1.241 -0.0545 -0.5766  0.7270
18680SOL     OW58481   6.902   3.775   9.908 -0.2786 -0.0653 -0.9862
18680SOL    HW158482   6.968   3.781   9.839 -1.7793  1.7438 -2.4038
18680SOL    HW258483   6.947   3.801   9.988  1.1229 -0.5703 -1.5936
18681SOL     OW58484   3.695   2.145   8.666 -1.0729 -0.4472  0.0242
18681SOL    HW158485   3.752   2.185   8.600  0.1497 -0.8133  0.8272
18681SOL    HW258486   3.609   2.182   8.648 -0.2383  1.5661 -0.0767
18682SOL     OW58487   6.859   9.313   2.477  0.1061 -0.0093  1.2036
18682SOL    HW158488   6.923   9.242   2.479  0.2113  0.0694  0.7963
18682SOL    HW258489   6.912   9.393   2.470 -0.0389  0.0055 -0.0860
18683SOL     OW58490   7.458   2.589   3.158 -0.0399  0.5207  0.2474
18683SOL    HW158491   7.396   2.642   3.207 -1.2486  0.3397 -1.0066
18683SOL    HW258492   7.456   2.625   3.069  0.3199 -0.6008 -0.2415
18684SOL     OW58493   2.111   8.981   3.073  0.0701 -0.1655  0.0341
18684SOL    HW158494   2.190   8.971   3.021 -0.4608  0.8197 -1.0183
18684SOL    HW258495   2.104   9.075   3.087 -0.5202 -0.3076  0.7527
18685SOL     OW58496  10.452   0.082   0.642 -0.1049 -0.1560 -0.0796
18685SOL    HW158497  10.384   0.149   0.643 -0.7100 -0.7541  0.7494
18685SOL    HW258498  10.534   0.130   0.645 -0.5157  0.5619 -0.2358
18686SOL     OW58499   2.136   9.237   0.295 -0.3428  0.2848  0.1473
18686SOL    HW158500   2.217   9.200   0.259 -0.1214  1.4108 -0.5711
18686SOL    HW258501   2.163   9.285   0.373 -0.5406 -0.5338  0.7303
18687SOL     OW58502   4.587   3.290   2.736  0.6731 -0.7940 -0.2856
18687SOL    HW158503   4.532   3.243   2.674  0.5523 -1.3994  0.2627
18687SOL    HW258504   4.666   3.313   2.687  0.5875 -1.2854 -0.6594
18688SOL     OW58505   2.587   0.370   7.517  0.1299  0.4671  0.7237
18688SOL    HW158506   2.631   0.453   7.499 -1.0673  0.7205 -1.4268
18688SOL    HW258507   2.534   0.387   7.594 -2.1071  2.6341 -1.1252
18689SOL     OW58508   6.339  10.451   9.288  0.0612  0.2561  0.4617
18689SOL    HW158509   6.306  10.458   9.199 -1.4860  1.1286  1.0725
18689SOL    HW258510   6.309  10.530   9.332 -0.6163 -0.8931  2.1888
18690SOL     OW58511   4.063   5.659   5.731 -0.2231  0.3180  0.3847
18690SOL    HW158512   4.008   5.650   5.809 -1.0855 -1.9598 -0.4058
18690SOL    HW258513   4.090   5.570   5.711  0.8780  0.9876 -1.3165
18691SOL     OW58514  10.427   0.147   0.008  0.1065 -0.1431  0.3572
18691SOL    HW158515  10.338   0.179   0.022  0.7052  1.9560 -0.3174
18691SOL    HW258516  10.431   0.125  -0.085  0.1777 -0.6828  0.4827
18692SOL     OW58517   9.308   7.890   7.268 -0.4684  0.0357 -0.0721
18692SOL    HW158518   9.234   7.869   7.325 -1.7317  0.0576 -1.6460
18692SOL    HW258519   9.385   7.872   7.322 -1.6007  0.0331  1.6243
18693SOL     OW58520   8.576  10.298   9.966  0.0623 -0.0893  0.5309
18693SOL    HW158521   8.595  10.380  10.012  1.4563 -0.3687  0.4740
18693SOL    HW258522   8.516  10.252  10.025 -0.1483  0.6369  0.9054
18694SOL     OW58523   6.028   1.842   2.086 -0.8025 -0.1910 -0.3705
18694SOL    HW158524   6.054   1.930   2.114 -1.2508  0.5121 -2.0203
18694SOL    HW258525   6.111   1.796   2.072 -0.4967  0.7113 -1.6627
18695SOL     OW58526   4.901   2.111   0.192 -0.9230  0.6709 -0.3037
18695SOL    HW158527   4.854   2.140   0.114 -1.7592 -0.9360 -0.4210
18695SOL    HW258528   4.946   2.031   0.166 -1.1998  0.1115  0.8633
18696SOL     OW58529   9.685   7.484   0.434  0.2141  0.0984  0.1437
18696SOL    HW158530   9.771   7.452   0.406 -0.6110 -1.5133 -0.6824
18696SOL    HW258531   9.701   7.523   0.520  1.8037  0.0014 -0.0832
18697SOL     OW58532   3.130   9.901   7.435 -0.2271  0.1706 -0.3657
18697SOL    HW158533   3.088   9.853   7.364  0.2992 -0.0171 -0.5537
18697SOL    HW258534   3.205   9.847   7.461  0.7002  1.1251 -0.9545
18698SOL     OW58535   6.170   8.360   8.443 -0.0620  0.3869 -0.0965
18698SOL    HW158536   6.211   8.286   8.488 -0.3758  0.5261  0.4253
18698SOL    HW258537   6.092   8.323   8.403 -1.6705  0.9126  2.3398
18699SOL     OW58538   0.862   2.020  10.368  0.2898 -0.2313  0.1438
18699SOL    HW158539   0.899   2.033  10.281  0.1288 -1.5906 -0.1519
18699SOL    HW258540   0.778   1.978  10.353  0.9010 -1.8680  0.9682
18700SOL     OW58541   0.328   2.142   6.063  0.5597 -0.5621 -0.0883
18700SOL    HW158542   0.311   2.070   6.124 -0.3120  1.2524  1.9548
18700SOL    HW258543   0.241   2.167   6.031  0.8952 -0.7102 -1.1380
18701SOL     OW58544   9.644   0.252   9.168 -0.1540 -0.8803 -0.1400
18701SOL    HW158545   9.601   0.171   9.195 -0.7853 -0.5023  0.0225
18701SOL    HW258546   9.703   0.273   9.239  0.1024 -1.2634 -0.2381
18702SOL     OW58547   1.376   3.493   5.192  0.1674 -0.2410 -0.4767
18702SOL    HW158548   1.387   3.569   5.250  0.4643  0.1914 -1.0914
18702SOL    HW258549   1.462   3.451   5.193  0.3172  0.0484 -0.9890
18703SOL     OW58550   9.402   7.302   2.249 -0.3132 -0.3631 -0.5311
18703SOL    HW158551   9.323   7.333   2.205  0.6425  3.1102 -0.1013
18703SOL    HW258552   9.472   7.319   2.188  0.2828 -2.9363 -0.6989
18704SOL     OW58553   5.518   6.708   6.897 -0.0746 -0.4931 -0.3118
18704SOL    HW158554   5.558   6.662   6.823 -2.7683 -0.5240 -1.8726
18704SOL    HW258555   5.552   6.797   6.891 -0.0685 -0.5521 -1.4681
18705SOL     OW58556  10.008   1.017   7.324 -0.0613  0.1508 -0.1244
18705SOL    HW158557  10.039   0.950   7.385  0.4608 -0.2442 -0.7997
18705SOL    HW258558   9.924   1.046   7.359 -0.7737 -1.5673 -0.3338
18706SOL     OW58559   3.008   4.780   1.034 -0.5637 -0.2320 -0.1758
18706SOL    HW158560   2.941   4.778   1.102  0.5940  0.1246  1.0211
18706SOL    HW258561   3.070   4.847   1.063  0.9679 -1.4122 -0.5632
18707SOL     OW58562   5.239   1.001   6.890  0.0279  0.2402  0.5934
18707SOL    HW158563   5.147   0.983   6.871  0.7068 -2.9755 -0.1805
18707SOL    HW258564   5.248   0.985   6.984 -0.0047 -0.5887  0.4627
18708SOL     OW58565   3.397   2.819   4.159 -0.3952  0.0759 -0.5248
18708SOL    HW158566   3.409   2.836   4.253 -1.2086 -0.1341 -0.3678
18708SOL    HW258567   3.318   2.869   4.136 -1.2758 -1.3135 -0.6571
18709SOL     OW58568   5.764  10.207   7.894  0.3620 -0.5464 -0.2214
18709SOL    HW158569   5.822  10.282   7.883  1.3796 -1.2331  0.3100
18709SOL    HW258570   5.682  10.245   7.926  0.8757  0.3394  0.1011
18710SOL     OW58571   9.811   9.113   7.624 -0.0903  0.3378  0.1581
18710SOL    HW158572   9.769   9.040   7.578  1.0001 -1.1481  1.3672
18710SOL    HW258573   9.867   9.154   7.558 -1.2923  0.5868 -0.7396
18711SOL     OW58574   2.479   2.991   7.439  0.2127 -0.6267 -0.7890
18711SOL    HW158575   2.479   2.969   7.532  0.2728  0.2530 -0.5712
18711SOL    HW258576   2.393   2.963   7.408 -1.2150  2.1221  0.3082
18712SOL     OW58577   8.968  10.028   9.856 -0.5776  0.0075  0.4864
18712SOL    HW158578   8.890  10.080   9.839 -0.9996 -0.6054  0.4902
18712SOL    HW258579   8.946   9.976   9.933 -0.2177 -0.2628  0.4113
18713SOL     OW58580   3.605   6.332   5.922  0.0646 -0.5406 -0.4601
18713SOL    HW158581   3.551   6.410   5.915  0.4292 -0.4115 -2.3729
18713SOL    HW258582   3.695   6.364   5.919  0.2369 -0.9294  0.2959
18714SOL     OW58583   9.659   6.616   4.291 -0.1032  0.6330  0.0250
18714SOL    HW158584   9.712   6.537   4.285 -3.3592 -1.6552 -1.8141
18714SOL    HW258585   9.580   6.589   4.337 -0.7992  3.2138  0.4952
18715SOL     OW58586   2.492   4.617   6.682  0.0770 -0.1741  0.1252
18715SOL    HW158587   2.585   4.602   6.670 -0.1758 -0.8030 -1.2656
18715SOL    HW258588   2.455   4.613   6.594 -1.1239  1.1220  0.5331
18716SOL     OW58589   6.392   9.339   1.826  0.1565  0.0942 -0.2868
18716SOL    HW158590   6.309   9.293   1.835 -1.0048  2.1961  0.2603
18716SOL    HW258591   6.451   9.294   1.886 -1.4990  0.5314  1.7687
18717SOL     OW58592   1.308   2.086   4.881  0.4835  0.3743  0.1419
18717SOL    HW158593   1.380   2.071   4.820  0.6245  2.4917 -0.2871
18717SOL    HW258594   1.238   2.028   4.851  1.5302 -0.7169 -0.2604
18718SOL     OW58595   6.203   1.429   3.822 -0.2709 -0.4424  0.2308
18718SOL    HW158596   6.144   1.499   3.795 -1.3595 -1.9308 -1.4308
18718SOL    HW258597   6.156   1.384   3.893  0.2810  0.2633  1.0654
18719SOL     OW58598   8.354   1.505   7.595 -0.7413 -0.2472  0.5353
18719SOL    HW158599   8.279   1.525   7.650  0.2036 -0.8974  2.1224
18719SOL    HW258600   8.318   1.455   7.522 -2.1382  1.3498  0.0988
18720SOL     OW58601   6.420   1.883   8.502 -0.6849 -0.7968 -0.0546
18720SOL    HW158602   6.374   1.961   8.533 -0.5026 -0.7003 -0.0271
18720SOL    HW258603   6.494   1.873   8.561  2.2174  1.8507 -2.8969
18721SOL     OW58604   5.709   9.343   9.610 -0.3537 -0.4883  0.1581
18721SOL    HW158605   5.711   9.439   9.607  0.1067 -0.5128 -0.6062
18721SOL    HW258606   5.648   9.323   9.681 -1.1918  0.3778 -0.2805
18722SOL     OW58607   0.024  10.265   4.340 -0.6931 -0.1939 -0.4941
18722SOL    HW158608   0.043  10.216   4.260  0.3489 -1.1496  0.2963
18722SOL    HW258609  -0.026  10.205   4.394 -0.5859  0.1016 -0.0566
18723SOL     OW58610   7.129   1.506   8.332  0.1318  0.1618  0.6871
18723SOL    HW158611   7.092   1.580   8.381 -2.0397  0.3856 -1.1457
18723SOL    HW258612   7.054   1.449   8.315  1.2178 -0.9598 -0.5219
18724SOL     OW58613   9.111   4.461   3.306 -0.8008 -0.2300 -0.0779
18724SOL    HW158614   9.097   4.538   3.251  0.2689 -0.0488 -0.1239
18724SOL    HW258615   9.126   4.495   3.394 -1.6709 -0.4751  0.1797
18725SOL     OW58616   4.291  10.041   8.896  0.3015 -0.0921 -0.3750
18725SOL    HW158617   4.326  10.107   8.837 -0.7769 -0.0039 -0.9456
18725SOL    HW258618   4.208  10.015   8.856  0.5979 -1.6265 -0.0391
18726SOL     OW58619   9.795   3.906   6.078 -0.0297  0.3709  0.0274
18726SOL    HW158620   9.782   3.849   6.002  3.6067  1.2913 -1.4870
18726SOL    HW258621   9.722   3.968   6.075 -0.0605  0.2994 -2.6771
18727SOL     OW58622   9.209   3.684   6.502 -0.2748 -0.4243 -0.1143
18727SOL    HW158623   9.297   3.658   6.528  0.2989  0.9110 -0.6366
18727SOL    HW258624   9.161   3.601   6.493  2.0194 -1.5734 -3.7982
18728SOL     OW58625   6.321   5.634   4.508  0.5086 -0.0600 -0.3950
18728SOL    HW158626   6.395   5.662   4.563  1.3819 -1.3429 -0.8722
18728SOL    HW258627   6.302   5.545   4.536 -0.1087 -0.1460 -1.0608
18729SOL     OW58628   7.690   6.429   3.857 -0.1697 -0.3929 -0.1942
18729SOL    HW158629   7.611   6.402   3.811  0.0305  0.9152 -1.3696
18729SOL    HW258630   7.696   6.524   3.841  0.6273 -0.1287  1.4296
18730SOL     OW58631   8.716   0.959   1.584 -0.1821 -0.2360  0.2328
18730SOL    HW158632   8.639   1.012   1.562  0.3629 -0.1388 -1.6230
18730SOL    HW258633   8.684   0.896   1.649 -1.6387  0.2747  0.0555
18731SOL     OW58634   3.103   4.480   1.727 -0.0936 -0.0689 -0.1126
18731SOL    HW158635   3.182   4.525   1.756 -0.0878  0.2065 -0.5634
18731SOL    HW258636   3.035   4.547   1.728  0.1950  0.3170 -2.0957
18732SOL     OW58637   5.673   1.629   1.978  0.1769  0.0046  0.4381
18732SOL    HW158638   5.746   1.601   1.924  1.8826  1.1382  2.0431
18732SOL    HW258639   5.676   1.724   1.976  0.3514  0.1013  2.4826
18733SOL     OW58640   0.828   0.457   4.007 -0.3168 -0.6427 -1.4609
18733SOL    HW158641   0.840   0.525   3.940 -1.1932  0.3032 -0.6906
18733SOL    HW258642   0.770   0.393   3.966 -0.9703  0.0069 -1.5711
18734SOL     OW58643   3.559   2.462   4.660  0.1686 -0.0628  0.2558
18734SOL    HW158644   3.474   2.441   4.621  0.2352 -0.2407  0.2036
18734SOL    HW258645   3.607   2.508   4.592  0.5594 -1.0184 -0.1390
18735SOL     OW58646   5.518   1.314   0.631 -0.2325 -0.1510 -0.0209
18735SOL    HW158647   5.509   1.403   0.664  0.6669  0.0082 -0.1745
18735SOL    HW258648   5.430   1.276   0.637 -0.2426  0.0994  1.8870
18736SOL     OW58649   1.503   7.707   2.558  0.8481 -0.1773  0.4128
18736SOL    HW158650   1.481   7.716   2.465  2.9156  0.0689 -0.1031
18736SOL    HW258651   1.441   7.641   2.591  0.8406 -1.1623 -1.4245
18737SOL     OW58652  10.346   1.969   8.719  0.3361  0.1309 -0.3570
18737SOL    HW158653  10.260   2.006   8.700  0.7023  0.0845 -2.2766
18737SOL    HW258654  10.352   1.892   8.663  1.1664 -0.5908  0.6668
18738SOL     OW58655   6.943   7.811   8.941  0.3835  0.1788 -0.5285
18738SOL    HW158656   7.012   7.753   8.974 -1.3806 -1.8800 -0.1911
18738SOL    HW258657   6.915   7.770   8.859 -1.1029  0.3553 -0.1445
18739SOL     OW58658   7.886   4.593   1.573 -0.3007  0.2095  0.0684
18739SOL    HW158659   7.964   4.542   1.596 -0.7094  0.6287  2.6730
18739SOL    HW258660   7.920   4.675   1.538  0.3843 -0.2691 -0.4199
18740SOL     OW58661   9.355   3.089   7.824  0.4061  0.1811  0.1543
18740SOL    HW158662   9.318   3.176   7.839  1.3924  0.7891 -0.8178
18740SOL    HW258663   9.300   3.030   7.876 -1.8403  1.0557 -1.1036
18741SOL     OW58664   0.654   4.787   2.057 -0.4568 -0.3359 -0.0055
18741SOL    HW158665   0.744   4.812   2.039 -0.2974 -1.2627 -0.5787
18741SOL    HW258666   0.656   4.692   2.064 -1.0443 -0.2533  2.0482
18742SOL     OW58667   2.916   4.842   6.212 -0.3644  0.3539  0.2071
18742SOL    HW158668   2.849   4.886   6.161 -0.1280  1.1137  0.5210
18742SOL    HW258669   2.992   4.901   6.207  0.1673 -0.3329  0.1166
18743SOL     OW58670   6.158   5.016   4.260  0.0137 -0.1401  0.0102
18743SOL    HW158671   6.242   4.973   4.241  0.1453 -0.6164  1.5391
18743SOL    HW258672   6.176   5.109   4.249  0.1536 -0.3393 -1.7763
18744SOL     OW58673  10.257   8.765  10.196 -0.5876  0.3236  0.1965
18744SOL    HW158674  10.278   8.767  10.289  0.8577 -0.4263 -0.0954
18744SOL    HW258675  10.196   8.838  10.185 -1.4152 -0.0635  1.8599
18745SOL     OW58676   1.514   3.449   8.814 -0.7178 -0.4106  0.7653
18745SOL    HW158677   1.519   3.357   8.787 -0.7017 -0.3647  0.6083
18745SOL    HW258678   1.421   3.470   8.807 -0.9131 -0.7808  2.0422
18746SOL     OW58679   9.361   7.211   3.538  0.2223  0.2901  0.2548
18746SOL    HW158680   9.391   7.263   3.463  0.1585  2.2152  1.4774
18746SOL    HW258681   9.268   7.199   3.523  0.1089  1.1070  0.2588
18747SOL     OW58682   2.369   3.856   0.411 -0.1506  0.0999  0.7986
18747SOL    HW158683   2.391   3.777   0.459 -1.7788 -0.1186  1.2476
18747SOL    HW258684   2.283   3.881   0.443 -0.1059  1.5034 -0.0516
18748SOL     OW58685   6.125  10.455   0.565  0.0832 -0.1415 -0.0511
18748SOL    HW158686   6.113  10.487   0.654 -1.5461 -0.4320 -0.1381
18748SOL    HW258687   6.174  10.525   0.521  2.5243 -0.7831  1.4927
18749SOL     OW58688   6.624   6.452   6.732 -0.2242  0.1800 -0.7112
18749SOL    HW158689   6.701   6.410   6.694  0.3549 -0.9967  1.5856
18749SOL    HW258690   6.553   6.391   6.716 -0.3201  0.4161 -1.2224
18750SOL     OW58691   2.414   0.072  10.311  0.3077 -0.5917 -0.2684
18750SOL    HW158692   2.369   0.116  10.240  0.5314 -0.0501 -0.0800
18750SOL    HW258693   2.345   0.048  10.372  0.1310 -0.9354 -0.6030
18751SOL     OW58694   4.199   8.319   9.628 -0.8729 -0.6885 -0.2004
18751SOL    HW158695   4.260   8.375   9.676 -2.5679 -0.3564  1.6985
18751SOL    HW258696   4.123   8.376   9.612 -1.9088 -1.9284  0.1919
18752SOL     OW58697   9.925   0.180  10.121 -0.1184  0.2314 -0.9315
18752SOL    HW158698   9.858   0.239  10.156 -0.3054 -0.4982 -0.0356
18752SOL    HW258699   9.910   0.181  10.026 -1.8124 -0.3755 -0.7067
18753SOL     OW58700   6.113   8.392   3.973  0.3795 -0.2974  0.3946
18753SOL    HW158701   6.037   8.376   3.916  0.9871 -2.4531  0.1130
18753SOL    HW258702   6.095   8.342   4.052  0.7947  0.4856  0.9960
18754SOL     OW58703   5.726   3.956   6.369  0.3865 -0.0446  0.8809
18754SOL    HW158704   5.747   4.049   6.374  2.2697 -0.4212  0.5885
18754SOL    HW258705   5.792   3.919   6.310  0.0640 -1.6779  1.4856
18755SOL     OW58706   5.167   3.074   5.783 -0.6501 -0.5425  0.5200
18755SOL    HW158707   5.190   3.022   5.706 -2.5166 -0.8812  0.1456
18755SOL    HW258708   5.247   3.122   5.805  0.1190 -0.9791 -1.1989
18756SOL     OW58709   9.584   5.959   6.423  0.5322  0.0079 -0.4284
18756SOL    HW158710   9.642   6.035   6.413 -1.1498  1.3963 -0.0447
18756SOL    HW258711   9.497   5.992   6.401 -0.0805 -2.1487 -1.4752
18757SOL     OW58712   4.331   8.659  10.369  0.3060 -0.2624 -0.6121
18757SOL    HW158713   4.402   8.598  10.350  1.3148  1.3446 -2.3577
18757SOL    HW258714   4.366   8.717  10.437 -1.0774 -2.2157  1.9422
18758SOL     OW58715   1.058   1.000   6.927  0.3035  0.1026  0.1311
18758SOL    HW158716   1.066   0.905   6.940 -0.1294  0.1037  0.4053
18758SOL    HW258717   1.148   1.029   6.910  0.1817 -0.7052 -2.2789
18759SOL     OW58718   0.120   3.777   5.471  0.2035 -0.2548  0.1303
18759SOL    HW158719   0.044   3.722   5.488  0.7168 -0.9964  0.0809
18759SOL    HW258720   0.158   3.793   5.557  0.2874 -0.3277  0.1078
18760SOL     OW58721   9.695   7.056   5.866 -0.1182  0.5506 -0.2266
18760SOL    HW158722   9.630   7.068   5.796  1.1302  0.0826 -1.5317
18760SOL    HW258723   9.722   7.145   5.889  1.8185  0.7250 -2.7272
18761SOL     OW58724   4.850   6.785   4.034  0.1686  0.0763 -0.0976
18761SOL    HW158725   4.848   6.866   3.985 -1.9196 -0.9406 -1.8738
18761SOL    HW258726   4.934   6.745   4.012  0.6491  1.1334 -0.2377
18762SOL     OW58727   4.774   8.257   6.081  0.1575  0.8726 -0.4143
18762SOL    HW158728   4.861   8.290   6.102  1.3029 -2.3610  0.6364
18762SOL    HW258729   4.789   8.191   6.013 -1.1587 -0.8784  0.8897
18763SOL     OW58730   4.404   3.511   8.394 -0.5943 -0.7520 -0.0809
18763SOL    HW158731   4.444   3.516   8.307 -0.3528 -0.0039  0.0690
18763SOL    HW258732   4.317   3.475   8.377 -1.0122  0.5164 -0.8070
18764SOL     OW58733   6.570   1.478   8.484  0.0023 -0.6238  0.2482
18764SOL    HW158734   6.618   1.446   8.560  0.7541  0.6308  0.3204
18764SOL    HW258735   6.485   1.504   8.518 -0.8718 -3.0156  0.0937
18765SOL     OW58736   6.656   5.908   6.022 -0.1223  0.2591  0.2110
18765SOL    HW158737   6.589   5.841   6.008 -1.3177  1.2952  0.7646
18765SOL    HW258738   6.678   5.901   6.115 -1.8259  2.0062  0.7885
18766SOL     OW58739   4.331   2.217   7.293  0.2064 -0.2153  0.6425
18766SOL    HW158740   4.267   2.283   7.267 -0.8909 -1.1957  0.7467
18766SOL    HW258741   4.281   2.154   7.346  0.9448 -1.7235 -0.3606
18767SOL     OW58742   2.682   2.065   8.145  0.1522 -0.6211 -0.1635
18767SOL    HW158743   2.696   2.152   8.180  1.2366  0.3505 -2.7302
18767SOL    HW258744   2.770   2.031   8.128 -0.2902 -1.2138 -1.3977
18768SOL     OW58745  10.463   0.576   6.854  0.4429  0.2783 -0.1554
18768SOL    HW158746  10.559   0.578   6.846  0.4979  1.8828  0.5958
18768SOL    HW258747  10.435   0.522   6.780  1.9524 -0.9489  0.0986
18769SOL     OW58748   9.399   9.025   0.725 -0.0451  0.4758 -0.2211
18769SOL    HW158749   9.448   9.100   0.691 -0.5597  0.6733 -0.5248
18769SOL    HW258750   9.452   8.994   0.799  0.9865  0.1582 -1.0640
18770SOL     OW58751   6.568   5.684   5.705  0.4941  0.2437 -0.0015
18770SOL    HW158752   6.526   5.749   5.649  0.7459 -0.9041 -1.5950
18770SOL    HW258753   6.661   5.690   5.681  0.3535 -1.6025 -1.2177
18771SOL     OW58754   5.394   0.797   3.148 -0.2085 -0.2418 -0.0760
18771SOL    HW158755   5.315   0.842   3.118 -0.8893 -1.0878  0.4314
18771SOL    HW258756   5.427   0.752   3.071 -0.2987 -0.0107 -0.2506
18772SOL     OW58757   3.685   3.936   0.571  0.6518 -0.0640 -0.3712
18772SOL    HW158758   3.629   3.858   0.578  1.1261 -0.5789 -1.8658
18772SOL    HW258759   3.720   3.932   0.482 -0.2603  2.5433 -0.9271
18773SOL     OW58760   7.193   4.645   4.336  0.4666 -0.2477 -0.3751
18773SOL    HW158761   7.270   4.687   4.375 -0.2939  0.1498  0.7359
18773SOL    HW258762   7.130   4.716   4.323  0.2059 -0.5967 -1.1146
18774SOL     OW58763   4.477   6.941   5.109 -0.5230 -0.1290  0.1986
18774SOL    HW158764   4.396   6.957   5.061  0.3551  2.3055 -0.6414
18774SOL    HW258765   4.546   6.951   5.044  0.7183  3.2903  1.7860
18775SOL     OW58766   8.858   4.514   4.177 -0.3045 -0.2689  0.3250
18775SOL    HW158767   8.902   4.464   4.108 -0.5945 -0.0883  0.0038
18775SOL    HW258768   8.906   4.597   4.180 -0.3063 -0.2682  0.3271
18776SOL     OW58769   7.944   7.274   9.080  0.7062  0.2449 -0.0555
18776SOL    HW158770   8.005   7.317   9.019 -0.2734  0.5417 -0.8489
18776SOL    HW258771   7.868   7.332   9.082  0.8260  0.3992  1.7030
18777SOL     OW58772   8.579   2.322   8.721 -0.2497  0.2035 -0.4088
18777SOL    HW158773   8.646   2.367   8.669  0.6116 -1.6732 -1.0136
18777SOL    HW258774   8.612   2.327   8.811  1.3863 -1.6558 -0.8186
18778SOL     OW58775   9.619   5.878   5.908  0.5382 -0.1777  0.1009
18778SOL    HW158776   9.613   5.971   5.930  1.4995  0.0457 -0.5170
18778SOL    HW258777   9.614   5.876   5.812 -1.4256 -0.9480  0.1607
18779SOL     OW58778   4.918   2.124   1.578  0.3731 -0.0680 -0.9160
18779SOL    HW158779   4.867   2.094   1.654 -0.3012  1.7838 -0.5880
18779SOL    HW258780   4.935   2.045   1.528 -1.2319 -1.0024 -0.0595
18780SOL     OW58781   9.003   9.164   0.387 -0.0300  0.2482  0.2539
18780SOL    HW158782   9.095   9.142   0.405 -0.1675 -1.3777 -0.8369
18780SOL    HW258783   8.957   9.141   0.467  0.2398 -0.9565  0.0826
18781SOL     OW58784  10.452   8.478   2.589 -0.0076 -0.0355  0.2453
18781SOL    HW158785  10.539   8.439   2.593 -0.2091 -0.3857  2.8142
18781SOL    HW258786  10.396   8.406   2.558  0.5326  0.1275 -1.1919
18782SOL     OW58787   5.435   3.185   2.610 -0.3623  0.1974  0.4256
18782SOL    HW158788   5.464   3.108   2.560 -1.2856 -1.9708  2.9965
18782SOL    HW258789   5.345   3.200   2.580 -0.4125 -0.1532  0.3949
18783SOL     OW58790   1.853  10.096   4.299 -0.2768  0.1173 -0.5052
18783SOL    HW158791   1.791  10.121   4.230 -1.1651  0.5305  0.4250
18783SOL    HW258792   1.843  10.163   4.366 -0.3248 -0.9373  0.5870
18784SOL     OW58793   5.903   8.019   3.424  1.0770  0.1967 -0.4561
18784SOL    HW158794   5.897   8.094   3.365  0.5946  0.1654 -0.4506
18784SOL    HW258795   5.985   7.976   3.399  1.9112  1.3280  0.2678
18785SOL     OW58796   0.171   7.766   6.973  0.3518  0.0984  0.2442
18785SOL    HW158797   0.190   7.681   7.013  0.1461  0.1524  0.4599
18785SOL    HW258798   0.104   7.804   7.030 -0.7888 -0.3113 -0.7630
18786SOL     OW58799   3.549   4.990   8.232 -0.2894 -0.2075  0.1287
18786SOL    HW158800   3.560   4.902   8.268 -0.6499  0.3630  1.6992
18786SOL    HW258801   3.461   4.989   8.195 -1.0698  0.0373  1.8773
18787SOL     OW58802   9.026   7.687   2.143 -0.2286 -0.1128 -0.4822
18787SOL    HW158803   8.996   7.772   2.176 -0.4165  0.2100 -1.4566
18787SOL    HW258804   9.115   7.678   2.177  0.0384  0.7843 -0.9115
18788SOL     OW58805   5.595   5.037   7.683 -0.5245  0.0325 -0.0232
18788SOL    HW158806   5.501   5.021   7.685 -0.5452  0.1230  2.3710
18788SOL    HW258807   5.608   5.112   7.742  1.2374 -1.2689  1.3374
18789SOL     OW58808   2.744   0.871   5.558 -0.5211  0.3288 -0.0190
18789SOL    HW158809   2.801   0.887   5.483 -3.5401  1.3633 -2.3328
18789SOL    HW258810   2.684   0.802   5.527 -0.9274 -0.2947  2.0438
18790SOL     OW58811  10.170   9.151   2.842  0.0336 -0.2963 -0.2529
18790SOL    HW158812  10.198   9.075   2.894  0.3541  0.2561  0.3947
18790SOL    HW258813  10.078   9.164   2.866 -0.3414 -1.1405 -1.1865
18791SOL     OW58814   9.659   1.090   8.806  0.3504 -0.2251 -0.0321
18791SOL    HW158815   9.724   1.090   8.736 -0.4708 -1.1885 -0.8219
18791SOL    HW258816   9.670   1.004   8.848  0.5322  0.1678  0.7399
18792SOL     OW58817   9.477   7.265   8.832  0.6599 -0.1868  0.4912
18792SOL    HW158818   9.459   7.343   8.884  1.1684 -0.5186  1.1810
18792SOL    HW258819   9.529   7.297   8.758  1.3623  0.0638  1.0746
18793SOL     OW58820   1.425   4.137   3.835  0.6720  0.3153  0.1422
18793SOL    HW158821   1.471   4.071   3.783 -1.4428 -1.0088 -0.1717
18793SOL    HW258822   1.379   4.191   3.770 -0.6759 -0.3360  0.5129
18794SOL     OW58823   4.063   1.515   1.160  0.2217 -0.2109 -0.3412
18794SOL    HW158824   4.065   1.456   1.236 -0.7659 -0.6270 -0.6151
18794SOL    HW258825   4.047   1.457   1.086  1.2102  0.1908 -0.8816
18795SOL     OW58826   3.529   3.937   6.070  0.6590 -0.3817  0.5113
18795SOL    HW158827   3.585   3.881   6.018 -0.9796 -1.4158 -0.2389
18795SOL    HW258828   3.486   3.995   6.007  1.9454  1.4489  1.2230
18796SOL     OW58829   9.505   4.597   5.810 -0.0547  0.2842  0.2815
18796SOL    HW158830   9.575   4.557   5.759  0.0033 -0.3984  0.8717
18796SOL    HW258831   9.459   4.522   5.849 -0.5725  0.7602  0.5960
18797SOL     OW58832   3.093   8.567   3.312  0.2786 -0.0173 -0.2216
18797SOL    HW158833   3.187   8.582   3.308  0.3589 -0.6562 -2.1809
18797SOL    HW258834   3.055   8.642   3.265 -0.0555 -0.5347 -0.7921
18798SOL     OW58835   0.969   2.532   4.403  0.2075  0.1453  0.6669
18798SOL    HW158836   0.954   2.512   4.495 -0.5718 -0.7054  0.3737
18798SOL    HW258837   0.887   2.571   4.373  0.9281  1.7428  0.6576
18799SOL     OW58838   6.236   8.346   5.616  0.2678 -0.4196  0.0769
18799SOL    HW158839   6.223   8.375   5.707  1.2567 -0.4809  0.2555
18799SOL    HW258840   6.157   8.298   5.594  0.1908 -0.7583  1.0591
18800SOL     OW58841   1.604   8.341   8.574 -0.3194  0.1264 -0.3122
18800SOL    HW158842   1.623   8.435   8.568  1.6987 -0.1061  1.2978
18800SOL    HW258843   1.621   8.307   8.487  0.4382  1.0207 -0.5214
18801SOL     OW58844   9.351   8.698   0.599  0.6869  0.3731 -0.7726
18801SOL    HW158845   9.382   8.609   0.581  0.2021 -0.0769  0.4896
18801SOL    HW258846   9.286   8.715   0.531 -0.1468 -0.7599 -0.3119
18802SOL     OW58847   2.649   5.440   6.557  0.0003 -0.0562  0.4052
18802SOL    HW158848   2.574   5.487   6.520 -0.0526 -0.2586  0.2532
18802SOL    HW258849   2.629   5.434   6.650 -0.4550 -0.6260  0.2735
18803SOL     OW58850   2.242   8.999   0.003  0.9486 -0.0964 -0.4626
18803SOL    HW158851   2.185   9.003  -0.073  2.0756 -1.3030 -1.3968
18803SOL    HW258852   2.330   8.996  -0.033  1.4566 -1.9736  0.8330
18804SOL     OW58853   9.905   2.472   9.985  0.0023  0.0265  0.3910
18804SOL    HW158854   9.829   2.415   9.974 -1.2882  1.7978 -0.5164
18804SOL    HW258855   9.913   2.484  10.080 -1.3481  0.4049  0.4778
18805SOL     OW58856   3.532   0.889   7.089 -0.3256 -0.9859 -0.6450
18805SOL    HW158857   3.469   0.892   7.017  0.8521 -2.5173 -1.8159
18805SOL    HW258858   3.552   0.796   7.099  0.0443 -0.7555  1.2634
18806SOL     OW58859   8.291   4.663   6.231 -0.0062  0.4016  0.1440
18806SOL    HW158860   8.227   4.667   6.301 -1.1156  2.3526 -0.9076
18806SOL    HW258861   8.270   4.736   6.173  0.9154 -1.0337 -2.2031
18807SOL     OW58862   4.466   7.069   7.362 -0.2942 -0.2203 -0.1708
18807SOL    HW158863   4.536   7.082   7.299  0.4965 -0.3511  0.6514
18807SOL    HW258864   4.510   7.069   7.447 -1.3939  0.5566  0.4329
18808SOL     OW58865   5.208   5.382   3.065 -0.2450  0.2402  0.2330
18808SOL    HW158866   5.169   5.311   3.013 -1.3148  1.4348 -0.6774
18808SOL    HW258867   5.138   5.409   3.125  0.5484 -0.2438  1.4107
18809SOL     OW58868   4.121   3.863   7.121 -0.3182 -0.9136 -0.2188
18809SOL    HW158869   4.051   3.828   7.177 -1.3942 -1.3749 -1.7843
18809SOL    HW258870   4.202   3.832   7.161 -0.9513 -0.1389  1.8080
18810SOL     OW58871   9.101  10.447   9.449 -0.4355  0.3773  0.5378
18810SOL    HW158872   9.117  10.469   9.357  1.7808  1.5546  1.1193
18810SOL    HW258873   9.034  10.508   9.478 -1.3686 -0.2017 -0.3399
18811SOL     OW58874   3.524   6.231   9.550 -0.1662  0.0165  0.1697
18811SOL    HW158875   3.539   6.165   9.618 -2.4294 -0.7983 -0.0524
18811SOL    HW258876   3.564   6.311   9.586  0.1124 -0.7703  1.7251
18812SOL     OW58877   0.391   8.667   5.747 -0.1696 -0.1329  0.2043
18812SOL    HW158878   0.320   8.609   5.722  0.5120 -0.5105 -0.9356
18812SOL    HW258879   0.380   8.745   5.692  0.8149 -0.5876 -0.6857
18813SOL     OW58880   3.790   3.554   0.349  0.3147  0.6655 -0.0460
18813SOL    HW158881   3.828   3.626   0.299  1.5748  0.8134  1.0676
18813SOL    HW258882   3.706   3.588   0.381  0.2309  1.1160 -0.7192
18814SOL     OW58883   3.572   4.151   4.548 -0.2073 -0.3141  0.2487
18814SOL    HW158884   3.587   4.085   4.616 -2.0009 -0.5980  0.4278
18814SOL    HW258885   3.560   4.101   4.468 -3.1191 -0.4025  0.6509
18815SOL     OW58886   7.880   1.689   9.462 -0.3071 -0.2122  0.2943
18815SOL    HW158887   7.823   1.756   9.425 -0.5841 -0.6220 -0.0237
18815SOL    HW258888   7.963   1.701   9.416 -0.6871 -0.7982 -0.5587
18816SOL     OW58889   6.822   4.310   6.974 -0.2122  0.0115 -0.1444
18816SOL    HW158890   6.894   4.347   7.025 -0.7348 -1.2863  1.6534
18816SOL    HW258891   6.862   4.283   6.892  1.7805 -2.1522  1.4062
18817SOL     OW58892   8.276   4.967   0.901 -0.4048 -0.9019 -0.3213
18817SOL    HW158893   8.181   4.979   0.890 -0.1647  1.1040 -0.5345
18817SOL    HW258894   8.299   5.024   0.975  0.9849  0.5073 -1.7742
18818SOL     OW58895   9.922   3.352   1.503  0.4237 -0.6303 -0.3809
18818SOL    HW158896   9.921   3.293   1.427 -1.2561  0.9653 -1.6705
18818SOL    HW258897   9.936   3.439   1.465  0.1323  0.1333  1.2087
18819SOL     OW58898   3.840   3.140   4.210  0.1937 -0.1359 -0.9825
18819SOL    HW158899   3.932   3.141   4.186  0.8178 -0.4443  1.1630
18819SOL    HW258900   3.809   3.053   4.183  1.4824 -1.3895  1.2697
18820SOL     OW58901   6.537   3.259   5.647 -0.0255  0.4518  0.0666
18820SOL    HW158902   6.544   3.248   5.742  0.6047  0.4070  0.0211
18820SOL    HW258903   6.613   3.211   5.612 -1.3554 -1.2767 -0.5804
18821SOL     OW58904   0.253   1.707   4.984 -0.0550  0.4950  0.0570
18821SOL    HW158905   0.248   1.694   4.889  1.8943 -1.7042  0.1532
18821SOL    HW258906   0.185   1.650   5.020  1.3329 -1.2797  0.0291
18822SOL     OW58907   5.320   3.083   0.658 -0.2136  0.5164  0.2703
18822SOL    HW158908   5.251   3.141   0.689 -0.8531  0.0773 -0.3130
18822SOL    HW258909   5.291   2.995   0.683  0.8444  0.4396  1.3363
18823SOL     OW58910   0.069   4.289   4.613  0.0171 -0.3840  0.3539
18823SOL    HW158911   0.122   4.282   4.692  1.8708 -0.2235 -0.8274
18823SOL    HW258912   0.098   4.370   4.571 -0.5812 -0.7192 -0.7497
18824SOL     OW58913   0.982   8.288   7.115 -0.5630 -0.2996  0.0103
18824SOL    HW158914   0.932   8.364   7.085  1.0617  1.3126  1.1200
18824SOL    HW258915   1.037   8.264   7.041 -0.2550  0.3743  0.0130
18825SOL     OW58916  10.088   1.453   1.343 -0.2978  0.2940 -0.9577
18825SOL    HW158917  10.056   1.531   1.296 -0.9344  0.5588 -0.1213
18825SOL    HW258918  10.169   1.482   1.386 -1.2192  0.9198  0.4355
18826SOL     OW58919   4.909   3.854   8.260  0.2731  0.5707  0.2836
18826SOL    HW158920   4.875   3.865   8.171  1.8992  0.2257 -0.4116
18826SOL    HW258921   4.851   3.908   8.314 -1.3400  0.0232 -0.8162
18827SOL     OW58922   1.660   1.334  10.458 -0.0992  0.1886  0.1748
18827SOL    HW158923   1.642   1.242  10.442 -0.6190  0.0211  1.5986
18827SOL    HW258924   1.609   1.380  10.391  0.6897 -0.5422 -0.9772
18828SOL     OW58925  10.288   8.277   5.084  0.5830  0.1230  0.3502
18828SOL    HW158926  10.236   8.212   5.131 -0.6117  0.8829  0.1250
18828SOL    HW258927  10.358   8.226   5.042  0.0330 -0.9180  0.6670
18829SOL     OW58928   5.226   4.445   1.131  0.0226 -0.2309 -0.2292
18829SOL    HW158929   5.144   4.484   1.101 -0.8882 -2.9445 -1.5815
18829SOL    HW258930   5.258   4.396   1.055  0.7782 -2.4765  1.4392
18830SOL     OW58931   6.507   6.754   0.120  0.0131 -0.5642  0.2445
18830SOL    HW158932   6.505   6.823   0.054  0.6575 -1.3388 -0.6245
18830SOL    HW258933   6.418   6.720   0.122  0.0002 -0.5711 -0.2763
18831SOL     OW58934  10.416   0.838   6.821 -0.2256 -0.1435  0.0613
18831SOL    HW158935  10.446   0.754   6.856  1.3081  0.8920  1.3813
18831SOL    HW258936  10.496   0.886   6.801 -1.0608  0.9914 -0.7245
18832SOL     OW58937   4.638   8.115   4.066  0.1346 -0.3862 -0.1011
18832SOL    HW158938   4.550   8.139   4.036  0.2975  1.9829  1.0695
18832SOL    HW258939   4.689   8.104   3.986 -0.9130 -0.5060 -0.7632
18833SOL     OW58940   5.387   1.724   5.883  0.2021  0.3962  0.5588
18833SOL    HW158941   5.342   1.803   5.914 -0.7289 -1.0651  3.2617
18833SOL    HW258942   5.321   1.655   5.890  2.0122 -1.3106  1.9046
18834SOL     OW58943   4.166   7.699   0.173  0.2620 -0.4310  0.3990
18834SOL    HW158944   4.239   7.695   0.235  0.4636  1.0021  0.2767
18834SOL    HW258945   4.091   7.728   0.226  0.5503  1.2930 -0.0949
18835SOL     OW58946   4.362   9.405   0.839  0.5925 -0.0394 -0.1453
18835SOL    HW158947   4.325   9.332   0.789  0.9016 -0.4290  0.1845
18835SOL    HW258948   4.413   9.363   0.908  2.1548  0.4816 -0.9356
18836SOL     OW58949   3.881   8.520   4.989  0.1466 -0.3477  0.4715
18836SOL    HW158950   3.891   8.584   5.060  1.1217 -1.1747  1.1030
18836SOL    HW258951   3.789   8.494   4.994 -0.2873  1.0139  0.1757
18837SOL     OW58952  10.209   0.824   1.286 -0.3000  0.2676 -0.2965
18837SOL    HW158953  10.155   0.880   1.230 -0.1357 -0.4823 -1.2262
18837SOL    HW258954  10.146   0.776   1.340 -0.4450  1.3303  0.5362
18838SOL     OW58955   2.880   3.117   3.644  0.3472 -0.5773  0.0809
18838SOL    HW158956   2.946   3.179   3.613  2.4312 -1.7222  1.9378
18838SOL    HW258957   2.873   3.052   3.574  1.5119 -0.6293 -0.0124
18839SOL     OW58958   0.822   7.152   8.580 -0.1583  0.2904  0.0889
18839SOL    HW158959   0.908   7.189   8.559  0.2823  0.0374  1.3514
18839SOL    HW258960   0.797   7.105   8.501  1.3959 -0.6003  0.0789
18840SOL     OW58961   2.576   2.691   1.062 -0.7694 -0.1035 -0.1141
18840SOL    HW158962   2.647   2.634   1.092 -1.1466  0.3423  1.7622
18840SOL    HW258963   2.621   2.763   1.018 -0.1365 -0.4652 -0.0845
18841SOL     OW58964   6.974   7.971   9.844 -0.4840  0.4420 -0.3284
18841SOL    HW158965   7.000   7.973   9.752 -1.8005 -0.0983 -0.7339
18841SOL    HW258966   6.983   7.879   9.870 -1.0032  0.4293 -0.1849
18842SOL     OW58967   9.462   7.437   5.861  0.0257  0.5995 -0.6278
18842SOL    HW158968   9.395   7.377   5.829 -0.9404  0.9710  0.6336
18842SOL    HW258969   9.500   7.476   5.782  0.3372 -1.2768 -1.4493
18843SOL     OW58970   0.441   9.543   4.261  0.0590  0.6367 -0.1168
18843SOL    HW158971   0.349   9.545   4.288 -0.3872 -1.3499 -1.3080
18843SOL    HW258972   0.439   9.567   4.168  0.7845  0.7131 -0.1182
18844SOL     OW58973   0.921   8.155   2.123  0.3615 -0.4702  0.4162
18844SOL    HW158974   0.961   8.170   2.038  1.6984 -2.3993  0.6531
18844SOL    HW258975   0.835   8.198   2.117  0.5500 -0.3056 -1.7699
18845SOL     OW58976   6.601   2.625   8.780 -0.2756 -0.7360 -0.3698
18845SOL    HW158977   6.655   2.660   8.709  2.1017 -1.5837  0.8952
18845SOL    HW258978   6.565   2.702   8.823  0.2573 -0.0996 -1.0263
18846SOL     OW58979  10.399   8.119   5.470  0.0693  0.4051  0.0832
18846SOL    HW158980  10.431   8.162   5.390  0.2629 -1.9231 -1.1964
18846SOL    HW258981  10.420   8.180   5.540  2.0340  1.5477 -1.3824
18847SOL     OW58982   6.002   6.721   0.970 -0.1036  0.3240 -0.2883
18847SOL    HW158983   5.935   6.750   1.033 -0.1505  0.7185 -0.5198
18847SOL    HW258984   6.069   6.790   0.973  1.4654 -1.1700  1.6807
18848SOL     OW58985   0.272   9.611   5.126 -0.0762  0.5797  0.0885
18848SOL    HW158986   0.359   9.583   5.098  0.4045  1.9718  0.1195
18848SOL    HW258987   0.215   9.592   5.052  0.2754 -0.2357  0.0257
18849SOL     OW58988   4.113   1.115   8.970  0.2772  0.2967 -0.2833
18849SOL    HW158989   4.036   1.105   8.914  0.3037  0.0207 -0.2713
18849SOL    HW258990   4.092   1.188   9.028 -0.0071  0.1657 -0.2239
18850SOL     OW58991   6.302  10.212   9.605 -0.0641  0.0019  0.3539
18850SOL    HW158992   6.271  10.178   9.688  1.8288 -2.2431  0.2473
18850SOL    HW258993   6.304  10.136   9.547  2.8509  0.5260 -0.3934
18851SOL     OW58994   8.554   2.209   1.361  0.6848  0.5168  0.1060
18851SOL    HW158995   8.616   2.264   1.313  0.6803  1.2847  0.9433
18851SOL    HW258996   8.608   2.149   1.411  0.7046  0.0754 -0.4436
18852SOL     OW58997   6.970   6.554   7.910 -0.8015 -0.2311 -0.0144
18852SOL    HW158998   7.016   6.523   7.833 -2.5775 -2.7390 -0.2046
18852SOL    HW258999   6.904   6.614   7.876 -0.7897 -0.3831 -0.3071
18853SOL     OW59000   2.431  10.014   8.654  0.7177 -0.3045  0.0914
18853SOL    HW159001   2.512  10.013   8.706  0.9290 -0.1931 -0.2317
18853SOL    HW259002   2.374  10.075   8.700  1.3984  0.8514 -0.5323
18854SOL     OW59003   9.781   3.341  10.399 -0.8282 -0.7645  0.6630
18854SOL    HW159004   9.732   3.260  10.383 -1.0888 -0.5379  0.3025
18854SOL    HW259005   9.733   3.408  10.352 -0.3909 -0.4647  0.6358
18855SOL     OW59006   9.730   7.546   7.077 -0.3608  0.1300  0.1123
18855SOL    HW159007   9.705   7.482   7.010 -2.2811 -0.0136  0.8990
18855SOL    HW259008   9.672   7.620   7.062  1.3360  1.4236 -0.3164
18856SOL     OW59009   0.373   6.393   8.802  0.0417 -0.0061 -0.0351
18856SOL    HW159010   0.445   6.451   8.778 -1.2916  1.5722 -0.3598
18856SOL    HW259011   0.396   6.362   8.890  0.7450  1.0893  0.1891
18857SOL     OW59012   7.446   9.962   9.556 -0.5294 -0.0452  0.3291
18857SOL    HW159013   7.383   9.931   9.490  0.3758 -1.3873  0.0548
18857SOL    HW259014   7.495   9.884   9.580  0.1218  0.7190  1.5534
18858SOL     OW59015   7.961   2.834  10.373  0.0726 -1.3280 -0.0079
18858SOL    HW159016   7.869   2.862  10.376  0.4801  0.4385 -1.8433
18858SOL    HW259017   7.971   2.795  10.287  1.4099  0.0535 -0.5250
18859SOL     OW59018   5.639   8.942   1.154  0.2653 -0.3777  0.2829
18859SOL    HW159019   5.698   8.956   1.080 -0.8680  0.2878 -0.5002
18859SOL    HW259020   5.577   8.876   1.123 -1.2149  1.0832  0.0261
18860SOL     OW59021   0.259   1.728   4.007  0.4443 -0.2989 -0.2160
18860SOL    HW159022   0.287   1.636   4.002  0.9834 -0.1540  0.0459
18860SOL    HW259023   0.303   1.771   3.934 -0.0465 -0.3092 -0.5167
18861SOL     OW59024   7.574   9.431   5.061  0.3092 -0.7333  0.0793
18861SOL    HW159025   7.657   9.388   5.077 -0.2086 -2.0004 -0.5141
18861SOL    HW259026   7.509   9.377   5.106 -0.0570  1.1588  1.9909
18862SOL     OW59027   7.441   5.430   9.688 -0.2900  0.3479  0.0223
18862SOL    HW159028   7.489   5.479   9.621 -1.5071  1.5510 -0.0053
18862SOL    HW259029   7.378   5.378   9.638  0.2091 -0.3711  0.1268
18863SOL     OW59030   8.010   0.359   0.690  0.1377  0.4198  0.3992
18863SOL    HW159031   8.022   0.390   0.601 -0.4393  0.8282  0.4570
18863SOL    HW259032   7.946   0.288   0.683  0.0045  0.5285  0.4981
18864SOL     OW59033  10.373   0.187   2.416  0.4174  0.7131 -0.8478
18864SOL    HW159034  10.352   0.237   2.496  1.4145  0.2351 -0.2704
18864SOL    HW259035  10.459   0.218   2.390  0.4239  0.3180 -1.3017
18865SOL     OW59036   9.039   7.665   0.914  0.1531 -0.4619  0.5595
18865SOL    HW159037   9.004   7.587   0.957 -0.7869  0.0265  0.6999
18865SOL    HW259038   9.129   7.671   0.946  1.2034 -3.0209 -1.5090
18866SOL     OW59039   3.181   4.950   3.995 -0.0457  0.2126 -0.6416
18866SOL    HW159040   3.206   5.036   4.030  0.6308 -0.0075 -0.5568
18866SOL    HW259041   3.250   4.891   4.027 -1.2382 -0.6351  0.4911
18867SOL     OW59042  10.443   4.883   0.235  0.3387  0.0534 -0.3317
18867SOL    HW159043  10.522   4.832   0.255  0.6195  1.0128  1.2253
18867SOL    HW259044  10.431   4.873   0.141  2.3525 -0.1125 -0.6258
18868SOL     OW59045   1.940   5.405   7.878  0.0074  0.3795 -0.3738
18868SOL    HW159046   1.921   5.433   7.788 -0.3909  0.4363 -0.2736
18868SOL    HW259047   1.977   5.318   7.869  0.6891  0.6890 -0.6471
18869SOL     OW59048   6.322   1.031   7.017 -0.0015  0.1477 -0.0476
18869SOL    HW159049   6.371   1.098   6.969 -1.3888 -0.8357 -3.0967
18869SOL    HW259050   6.230   1.056   7.005 -0.4712 -1.4160  0.1479
18870SOL     OW59051   4.977   4.077   7.924 -0.0145  0.1851  0.5973
18870SOL    HW159052   4.885   4.101   7.923  0.4612  2.2946 -1.1336
18870SOL    HW259053   5.009   4.104   8.010 -1.0361 -0.9608  1.3788
18871SOL     OW59054   1.712   1.971   2.567  0.2241  0.6937  0.3139
18871SOL    HW159055   1.673   2.022   2.638 -0.1322 -0.9584  1.3806
18871SOL    HW259056   1.806   1.973   2.585  0.1517  0.4474  0.7359
18872SOL     OW59057  10.139   4.065   5.566  0.2153 -0.0915 -0.1048
18872SOL    HW159058  10.226   4.104   5.573  0.3410 -0.6260  1.5227
18872SOL    HW259059  10.105   4.065   5.655 -1.1783 -0.5389 -0.6159
18873SOL     OW59060   3.806   9.794   7.176  0.3133  0.0899 -0.4106
18873SOL    HW159061   3.770   9.781   7.264  1.4627 -3.6343 -0.3286
18873SOL    HW259062   3.832   9.886   7.174  1.2670  0.0587  3.5613
18874SOL     OW59063   1.648   5.208   6.708 -0.3963  0.1493  0.0428
18874SOL    HW159064   1.663   5.248   6.794  3.4846 -2.8004  1.0123
18874SOL    HW259065   1.675   5.117   6.719 -0.9932 -0.7021 -4.0089
18875SOL     OW59066   5.331   4.479   3.326 -0.4900  0.6936 -0.3676
18875SOL    HW159067   5.325   4.561   3.376 -0.1217  2.3375 -2.8461
18875SOL    HW259068   5.343   4.507   3.235  1.4915 -2.1348 -1.1090
18876SOL     OW59069   8.802   3.016   9.941  0.2623  0.1414  0.2253
18876SOL    HW159070   8.893   3.030   9.913  0.4079  0.9216  1.0482
18876SOL    HW259071   8.750   3.037   9.863  0.7951 -0.6909 -0.3726
18877SOL     OW59072   7.910   5.842   2.236 -0.0199 -0.0127 -0.1904
18877SOL    HW159073   7.912   5.748   2.216 -0.5190 -0.0041 -0.2785
18877SOL    HW259074   7.859   5.881   2.165  1.3567  0.5226 -0.9206
18878SOL     OW59075   3.046   8.300   4.604  0.1594 -0.4904  0.7433
18878SOL    HW159076   3.116   8.312   4.539 -0.1157 -1.3860  0.2600
18878SOL    HW259077   3.007   8.387   4.614  0.4872 -0.2515  0.0198
18879SOL     OW59078   0.154   5.218   2.970 -0.0218 -0.1286  0.5539
18879SOL    HW159079   0.193   5.267   2.897 -2.0355  1.2283  0.2788
18879SOL    HW259080   0.117   5.285   3.027 -0.5634 -1.2532  1.5789
18880SOL     OW59081   5.647   8.841   5.678  0.9854 -0.2417 -0.1760
18880SOL    HW159082   5.657   8.928   5.716  0.8886 -0.2801 -0.0664
18880SOL    HW259083   5.574   8.849   5.617 -0.1987 -0.6943  1.1382
18881SOL     OW59084   4.755   5.713   0.723 -0.4396  0.1662 -0.3218
18881SOL    HW159085   4.796   5.629   0.744  2.2014  0.9206 -1.9652
18881SOL    HW259086   4.698   5.694   0.648  0.4265 -0.1293 -0.9206
18882SOL     OW59087   8.123   1.751   3.350  0.1793  0.1721  0.1048
18882SOL    HW159088   8.058   1.820   3.361  0.4541  0.1892  2.1387
18882SOL    HW259089   8.207   1.796   3.360  0.5827  0.1868 -2.6957
18883SOL     OW59090   5.993   7.320   8.205 -0.0826  0.1635 -0.2658
18883SOL    HW159091   6.022   7.290   8.291 -2.6498 -0.6471  0.4120
18883SOL    HW259092   6.032   7.257   8.143 -0.6308 -1.0686  0.6011
18884SOL     OW59093   0.473   7.996   1.149 -0.1779 -0.0246 -0.2193
18884SOL    HW159094   0.509   7.907   1.149 -0.3110 -0.1074  1.2925
18884SOL    HW259095   0.550   8.053   1.158 -0.1508 -0.0132 -0.5044
18885SOL     OW59096   3.749  10.028   1.900 -0.3626  0.3734 -0.6143
18885SOL    HW159097   3.800  10.033   1.819  2.0634 -1.2714  0.7132
18885SOL    HW259098   3.770  10.108   1.947  1.5360 -0.5153  0.1492
18886SOL     OW59099   5.752   4.598   3.141  0.3427  0.2563 -0.1273
18886SOL    HW159100   5.672   4.652   3.137  0.9292  1.2419  0.9734
18886SOL    HW259101   5.823   4.661   3.128  0.9391 -0.7892 -2.3913
18887SOL     OW59102  10.110   7.449   0.979 -0.8340  0.3783  0.4492
18887SOL    HW159103  10.076   7.486   0.897  0.2673  1.1296  0.3166
18887SOL    HW259104  10.134   7.525   1.032  2.9228 -0.0231 -0.4335
18888SOL     OW59105   8.593   0.693   6.824 -0.9165  0.3521 -0.6563
18888SOL    HW159106   8.678   0.648   6.826 -1.3830 -0.4971  0.5015
18888SOL    HW259107   8.569   0.704   6.916 -2.4356 -0.1269 -0.9671
18889SOL     OW59108   8.405   6.547   7.315 -0.1068  0.6050  0.1170
18889SOL    HW159109   8.422   6.565   7.408  1.0248  1.5403 -0.2503
18889SOL    HW259110   8.312   6.521   7.313 -1.3134  4.1937  1.0892
18890SOL     OW59111   6.611   0.589   9.629 -0.2437  0.7235  0.5362
18890SOL    HW159112   6.575   0.663   9.679  0.3322  0.8176  0.8196
18890SOL    HW259113   6.633   0.627   9.543 -0.2599  0.8030  0.5666
18891SOL     OW59114   0.843   4.099   7.869  0.1647  0.0470 -0.2365
18891SOL    HW159115   0.783   4.073   7.939  0.3219 -1.6817 -0.6931
18891SOL    HW259116   0.921   4.044   7.882  0.3831  0.0206 -1.4822
18892SOL     OW59117   6.581   0.712   0.525 -0.1801 -0.7487  0.1651
18892SOL    HW159118   6.643   0.655   0.569 -0.3905 -0.4889  0.8198
18892SOL    HW259119   6.544   0.766   0.595  0.2236  0.3909 -0.4681
18893SOL     OW59120   7.170   3.709   6.947  0.2357  0.3727  0.0839
18893SOL    HW159121   7.102   3.776   6.936  0.1341  0.6955  2.2732
18893SOL    HW259122   7.165   3.657   6.866 -1.1988  1.6351 -0.7013
18894SOL     OW59123   0.203   5.511   6.485  0.4424 -0.1716 -0.4967
18894SOL    HW159124   0.224   5.420   6.464  0.6381 -0.0546 -0.8109
18894SOL    HW259125   0.127   5.505   6.543 -1.6961 -0.4311 -3.1761
18895SOL     OW59126   4.843   1.522   9.484  0.5476  0.0977  0.1132
18895SOL    HW159127   4.935   1.550   9.487  0.6465  0.2090 -2.2389
18895SOL    HW259128   4.801   1.586   9.426 -0.8601 -0.3806  0.5898
18896SOL     OW59129   4.540   0.585   7.419 -0.0466 -0.1927  0.1846
18896SOL    HW159130   4.483   0.509   7.411 -1.3544  0.9514 -2.4513
18896SOL    HW259131   4.480   0.659   7.430  1.0782  0.7306  0.3429
18897SOL     OW59132   3.110   5.757   6.196 -0.0906 -0.2172  0.1471
18897SOL    HW159133   3.153   5.780   6.113  0.0029  0.2237  0.3155
18897SOL    HW259134   3.122   5.662   6.204  1.4102 -0.0243  0.5052
18898SOL     OW59135   7.600   4.314   0.327  0.3950 -0.2869  0.2365
18898SOL    HW159136   7.520   4.263   0.342  0.0944  0.2288  0.3861
18898SOL    HW259137   7.671   4.251   0.341  0.0028 -1.0154 -0.8890
18899SOL     OW59138   9.705   6.395   0.907  0.2909 -0.0487  0.4096
18899SOL    HW159139   9.727   6.331   0.975 -2.8502 -1.9212 -0.1396
18899SOL    HW259140   9.662   6.466   0.954  0.8484  0.1111  0.6841
18900SOL     OW59141   4.286   8.639   2.681 -0.4010  0.3238  0.2979
18900SOL    HW159142   4.304   8.711   2.741  1.3811  0.3812 -0.2413
18900SOL    HW259143   4.335   8.565   2.716 -0.7006 -0.1105 -0.1700
18901SOL     OW59144   9.486   5.441   7.714  0.3871 -0.4054  0.7933
18901SOL    HW159145   9.406   5.477   7.752 -0.0825  0.9099 -1.3013
18901SOL    HW259146   9.555   5.500   7.744  0.2408 -0.2479  0.8235
18902SOL     OW59147   8.837   3.511   6.261  0.5337 -0.3755 -0.1550
18902SOL    HW159148   8.912   3.569   6.248 -0.8522  1.3882 -0.7261
18902SOL    HW259149   8.762   3.561   6.229 -0.7626 -2.5187 -0.6806
18903SOL     OW59150   8.469   2.251   7.086 -0.3283  0.0550 -0.5091
18903SOL    HW159151   8.486   2.158   7.104 -0.4366  0.5346  2.6913
18903SOL    HW259152   8.556   2.292   7.090 -0.3102  0.1579 -1.6732
18904SOL     OW59153   5.421   8.917  10.362  0.2548 -0.0013 -0.2104
18904SOL    HW159154   5.354   8.980  10.336 -0.0843 -0.2304  0.0975
18904SOL    HW259155   5.387   8.877  10.442  2.2084  2.2241  1.9070
18905SOL     OW59156   1.194   7.834   4.177  0.2019 -0.1364 -0.1556
18905SOL    HW159157   1.251   7.790   4.114 -0.0277 -1.5254  0.5789
18905SOL    HW259158   1.146   7.763   4.220 -0.6052  0.8724  0.6646
18906SOL     OW59159   3.832   5.214   4.618  0.3929  0.7000 -0.3716
18906SOL    HW159160   3.908   5.170   4.580 -0.1033 -1.4217  0.9415
18906SOL    HW259161   3.844   5.206   4.713 -1.4357  0.3571 -0.1332
18907SOL     OW59162   1.710   6.836   4.404  0.0720 -0.2840 -0.4292
18907SOL    HW159163   1.765   6.758   4.397 -1.5479 -1.4528 -0.7589
18907SOL    HW259164   1.667   6.827   4.490 -0.1947  0.1917 -0.5078
18908SOL     OW59165   1.934   1.117   6.474 -0.0446 -0.5778 -0.3449
18908SOL    HW159166   2.023   1.092   6.453 -0.0281 -2.4782  1.6580
18908SOL    HW259167   1.880   1.073   6.408  0.3991 -0.4842 -0.7767
18909SOL     OW59168   3.903   2.312   4.816 -0.2079 -0.4132  0.5783
18909SOL    HW159169   3.989   2.343   4.843  0.4463 -1.3284 -0.3701
18909SOL    HW259170   3.882   2.363   4.738 -0.3371 -0.4971  0.5574
18910SOL     OW59171   6.035   0.505   4.303  0.0110  0.0529  0.0559
18910SOL    HW159172   5.984   0.585   4.318  1.3292  0.8316  0.6424
18910SOL    HW259173   6.048   0.467   4.390 -0.8066 -0.9518 -0.2441
18911SOL     OW59174  10.166   3.520   5.091 -0.0584 -0.9283 -0.6835
18911SOL    HW159175  10.148   3.479   5.176 -1.0587 -2.6569 -1.6538
18911SOL    HW259176  10.127   3.607   5.097 -1.4374 -1.5723  0.1422
18912SOL     OW59177   7.809   0.656   5.521  1.1334 -0.2174  0.4618
18912SOL    HW159178   7.769   0.709   5.452  1.6912 -0.0137  0.2967
18912SOL    HW259179   7.743   0.589   5.540  0.5491  0.3518  0.4612
18913SOL     OW59180   0.435   4.889   1.413 -0.4408  0.2377  0.1420
18913SOL    HW159181   0.437   4.956   1.344 -1.8291 -1.3914 -1.6117
18913SOL    HW259182   0.520   4.846   1.407 -0.1235  0.8505  0.2267
18914SOL     OW59183   4.772   0.301   7.530 -0.0976 -0.0278 -0.6543
18914SOL    HW159184   4.855   0.272   7.567 -0.4834 -1.9006 -1.1133
18914SOL    HW259185   4.795   0.338   7.445  0.3119 -0.3229 -0.6774
18915SOL     OW59186   4.421  10.232   4.994 -0.0586 -0.5782  0.4094
18915SOL    HW159187   4.421  10.153   4.939  0.5973 -0.4360  0.1934
18915SOL    HW259188   4.437  10.304   4.932 -0.9797 -0.2345  0.5565
18916SOL     OW59189   5.628   0.363   3.959 -0.0554  0.0219  0.3949
18916SOL    HW159190   5.700   0.328   3.906 -1.2667 -0.1001 -1.2438
18916SOL    HW259191   5.641   0.324   4.046  1.6376 -0.2643  0.0479
18917SOL     OW59192   8.686  10.415   2.116  0.1895  0.1338 -0.3285
18917SOL    HW159193   8.663  10.323   2.108 -0.2841  0.1930  0.2995
18917SOL    HW259194   8.603  10.461   2.124  0.4531  0.5176  0.3095
18918SOL     OW59195   4.832   9.830   6.562 -0.1020  0.1167  0.1286
18918SOL    HW159196   4.837   9.745   6.519  2.5781 -0.0052  0.5289
18918SOL    HW259197   4.801   9.811   6.650  1.8891 -0.6834  0.6921
18919SOL     OW59198   7.106   5.918   7.211  0.1936  0.1013 -0.2464
18919SOL    HW159199   7.164   5.994   7.206  0.6622 -0.2466 -0.0150
18919SOL    HW259200   7.019   5.956   7.227  0.4273  0.5878 -0.1201
18920SOL     OW59201   8.308   5.392   2.736  0.0204  0.4116 -0.0705
18920SOL    HW159202   8.357   5.418   2.658  1.4295  0.5988  0.8418
18920SOL    HW259203   8.375   5.362   2.797 -1.2037 -1.2602  0.5031
18921SOL     OW59204   6.919   5.931   6.830  0.2237 -0.0929  0.8125
18921SOL    HW159205   6.963   5.846   6.823 -0.2256 -0.2184 -1.0632
18921SOL    HW259206   6.987   5.990   6.863  0.8701 -0.9366  1.0324
18922SOL     OW59207   5.095   1.369   2.970  0.4511 -0.1813 -0.6068
18922SOL    HW159208   5.157   1.297   2.979  2.4445  1.5660  0.5102
18922SOL    HW259209   5.079   1.376   2.876  1.8645 -0.7554 -0.9086
18923SOL     OW59210   2.102   4.443   9.941  0.3526  0.6887 -0.0442
18923SOL    HW159211   2.151   4.499  10.001  2.5331 -0.9003 -0.1947
18923SOL    HW259212   2.056   4.382   9.997  0.2076  0.8932  0.0614
18924SOL     OW59213   9.496   1.558   1.506  0.6161 -0.3189 -0.2104
18924SOL    HW159214   9.511   1.470   1.541  0.4066 -0.6823 -1.0218
18924SOL    HW259215   9.402   1.564   1.495  0.5671  0.2625  0.4813
18925SOL     OW59216   7.679   9.572   4.396  0.1466  0.1472 -0.4826
18925SOL    HW159217   7.607   9.513   4.372 -0.7812  1.4152 -0.9008
18925SOL    HW259218   7.756   9.515   4.398 -0.6732 -1.0404 -1.0960
18926SOL     OW59219   3.293   1.005   2.291 -0.2062  0.1389  0.1746
18926SOL    HW159220   3.245   0.963   2.362 -2.3449  1.8846 -0.1273
18926SOL    HW259221   3.331   1.084   2.330 -1.3168  1.0611 -0.5235
18927SOL     OW59222   5.493   7.000   4.240 -0.7911 -0.3394 -0.8314
18927SOL    HW159223   5.566   6.945   4.212  1.2608  2.5356 -1.6236
18927SOL    HW259224   5.533   7.069   4.292 -3.4915 -0.6369  1.9638
18928SOL     OW59225   0.590   7.270   0.714 -0.5396 -0.1267 -0.0732
18928SOL    HW159226   0.682   7.248   0.698  0.0162  2.6544 -1.1768
18928SOL    HW259227   0.548   7.185   0.729  1.9436 -1.5982 -0.7936
18929SOL     OW59228   3.429   6.917   3.273  0.1023 -0.3833  0.2448
18929SOL    HW159229   3.470   6.990   3.318  1.1197  1.3648 -3.1585
18929SOL    HW259230   3.383   6.957   3.199  0.4889 -3.1228 -1.6358
18930SOL     OW59231   1.910   3.410   3.971 -0.2548  0.4795 -0.1044
18930SOL    HW159232   1.979   3.418   3.905 -1.0373  0.7642 -0.9208
18930SOL    HW259233   1.898   3.499   4.004 -0.4297  0.4885 -0.1879
18931SOL     OW59234  10.095   7.218   1.458  0.3973  0.3046 -0.5308
18931SOL    HW159235  10.172   7.189   1.508  1.9625 -0.2778 -3.0697
18931SOL    HW259236  10.047   7.138   1.440 -1.1544  0.7311  1.4862
18932SOL     OW59237   2.806   7.614   3.524  0.4158  0.2548 -0.0186
18932SOL    HW159238   2.755   7.691   3.548  1.3593  1.0699 -0.5870
18932SOL    HW259239   2.893   7.648   3.502  0.5353 -0.8366 -1.3654
18933SOL     OW59240  10.015   0.035   7.203 -0.0335 -0.2719 -0.2048
18933SOL    HW159241  10.063  -0.031   7.154  1.8923  0.5613  0.4464
18933SOL    HW259242   9.987   0.098   7.137 -0.0548 -0.6618 -0.5743
18934SOL     OW59243   6.316   0.862   3.011 -0.0191 -0.4477 -0.4419
18934SOL    HW159244   6.281   0.840   3.098 -1.0152 -0.1105 -0.7398
18934SOL    HW259245   6.249   0.918   2.972  0.2137 -0.9575 -1.6114
18935SOL     OW59246   7.045   0.642   1.466  0.3525 -0.4348  0.0752
18935SOL    HW159247   6.996   0.633   1.384  1.3240  0.1596 -0.6001
18935SOL    HW259248   6.979   0.636   1.535 -0.5490 -0.4766 -0.7725
18936SOL     OW59249   9.110   9.134   3.219 -0.4251  0.5418  0.1591
18936SOL    HW159250   9.117   9.080   3.141  0.1768  0.9947 -0.1158
18936SOL    HW259251   9.038   9.194   3.200 -1.8687 -0.8832  0.9356
18937SOL     OW59252   1.487   3.034   8.123  0.1791 -0.3143 -0.2109
18937SOL    HW159253   1.479   3.128   8.109  1.0832 -0.2754 -0.4944
18937SOL    HW259254   1.566   3.009   8.075  0.9708 -0.9022  1.3190
18938SOL     OW59255   2.743   5.686   7.855 -0.0817  0.1865 -0.0640
18938SOL    HW159256   2.736   5.750   7.785  0.9524 -0.5568 -0.8708
18938SOL    HW259257   2.699   5.608   7.821 -0.5966  0.1813  0.5818
18939SOL     OW59258   5.366   0.234   1.086  0.2105  0.4787 -0.3085
18939SOL    HW159259   5.380   0.166   1.020 -0.4253 -0.4521  0.4896
18939SOL    HW259260   5.404   0.199   1.166 -0.7522  0.7435  0.2829
18940SOL     OW59261   2.769   5.680   4.886  0.0315 -0.3163  0.2074
18940SOL    HW159262   2.819   5.609   4.844 -1.5529 -1.5480  0.2862
18940SOL    HW259263   2.811   5.760   4.856  0.5268 -1.2253 -1.7189
18941SOL     OW59264   8.276   6.538   0.549  0.2074 -0.4541 -0.2115
18941SOL    HW159265   8.329   6.494   0.615 -0.3882  1.5108  1.6853
18941SOL    HW259266   8.190   6.497   0.556 -0.5524  1.3235  2.0581
18942SOL     OW59267   2.541   3.078  10.288 -0.3275 -0.3116 -0.0605
18942SOL    HW159268   2.511   3.146  10.348  0.9048  0.1243  0.0939
18942SOL    HW259269   2.507   2.997  10.325 -1.6696  0.1795 -0.1482
18943SOL     OW59270   2.126   5.291   1.274  0.1698  0.0444  0.5925
18943SOL    HW159271   2.176   5.347   1.335 -1.0224  1.9089 -0.0473
18943SOL    HW259272   2.035   5.320   1.284  0.0164  1.1121 -2.6701
18944SOL     OW59273   2.796   8.654   4.938 -0.6112 -0.5349 -0.0457
18944SOL    HW159274   2.863   8.675   5.003 -2.2901  3.1365  0.7593
18944SOL    HW259275   2.815   8.712   4.865 -0.3144 -2.7493 -1.8306
18945SOL     OW59276   3.571   6.112   5.333  0.6842 -0.2299 -0.5459
18945SOL    HW159277   3.553   6.039   5.275  1.5820 -0.7084 -0.2455
18945SOL    HW259278   3.545   6.081   5.420 -0.5797  0.4535 -0.6629
18946SOL     OW59279   1.001   5.244   0.278 -0.0306 -0.1235 -0.4078
18946SOL    HW159280   0.962   5.175   0.224 -1.1221  0.7307 -0.7628
18946SOL    HW259281   0.926   5.298   0.305  0.4412 -0.5457  2.0398
18947SOL     OW59282   8.251   1.537   1.482  0.3668 -0.3213 -0.1580
18947SOL    HW159283   8.255   1.514   1.389  1.9505  0.2902 -0.2705
18947SOL    HW259284   8.158   1.534   1.503  0.0338 -1.1942 -1.5712
18948SOL     OW59285   9.495   5.221  10.152 -0.0866  0.0382  0.0751
18948SOL    HW159286   9.505   5.300  10.100 -0.0380  0.9853  1.4669
18948SOL    HW259287   9.454   5.158  10.092 -2.1697  1.7765 -0.4785
18949SOL     OW59288   5.626   4.549   7.119 -0.4346  0.1537  0.7357
18949SOL    HW159289   5.681   4.531   7.043 -0.5175  1.0501  0.4524
18949SOL    HW259290   5.682   4.528   7.194  0.5849  1.7855  0.4685
18950SOL     OW59291  10.042   1.825  10.081  0.2999  0.1746  0.3713
18950SOL    HW159292  10.027   1.732  10.066  2.0413 -0.1573  0.4555
18950SOL    HW259293  10.083   1.856  10.000  1.1755  0.4789  0.9117
18951SOL     OW59294   8.904   8.517   4.829  0.0917  0.0678 -0.3140
18951SOL    HW159295   8.986   8.482   4.794  0.5229  1.5883 -0.8775
18951SOL    HW259296   8.858   8.551   4.753  0.7290  2.7871  0.4234
18952SOL     OW59297   4.273   3.444   9.356  0.6984  0.0111  0.0098
18952SOL    HW159298   4.236   3.507   9.293  1.3521  0.5421  0.1403
18952SOL    HW259299   4.330   3.498   9.412  0.4646 -0.5305  0.7755
18953SOL     OW59300  10.465   4.759   7.831  0.3002 -0.1005  0.5586
18953SOL    HW159301  10.545   4.708   7.843  0.2026 -0.4433 -0.2200
18953SOL    HW259302  10.495   4.850   7.829  0.7596 -0.2634 -0.4381
18954SOL     OW59303   6.789   2.518   6.879  0.6297  0.1244 -0.3114
18954SOL    HW159304   6.809   2.434   6.838  1.1798  0.1838 -0.1794
18954SOL    HW259305   6.756   2.495   6.966  0.6920  0.0395 -0.3097
18955SOL     OW59306   8.141   2.743   1.285  0.1446 -0.4792  0.3009
18955SOL    HW159307   8.223   2.791   1.275 -0.8152  0.9164 -1.6435
18955SOL    HW259308   8.167   2.653   1.305  2.1608 -0.2004 -0.8313
18956SOL     OW59309   8.738   9.946   4.465 -0.0473  0.0437  0.4619
18956SOL    HW159310   8.776   9.893   4.535  0.9120 -0.6584 -0.5683
18956SOL    HW259311   8.760  10.036   4.488  2.0337 -0.3237  0.0336
18957SOL     OW59312   5.784   4.108   6.058 -0.5625 -0.0039  0.1678
18957SOL    HW159313   5.703   4.062   6.037 -0.2377 -0.9472  0.9226
18957SOL    HW259314   5.846   4.078   5.992  0.1142 -2.0051  1.6341
18958SOL     OW59315   7.153   7.757   9.275 -0.0667  0.2782 -0.2250
18958SOL    HW159316   7.146   7.729   9.184  0.8396 -0.7932  0.0144
18958SOL    HW259317   7.229   7.815   9.276 -0.3507  0.6557 -0.2264
18959SOL     OW59318   2.509   5.714   4.952 -0.1851  0.2014 -0.8033
18959SOL    HW159319   2.599   5.724   4.921  1.1393 -0.6132  2.3742
18959SOL    HW259320   2.515   5.650   5.023 -3.2096  0.5253 -0.1124
18960SOL     OW59321   1.144   2.202   5.546  0.0457  0.1315  0.7407
18960SOL    HW159322   1.220   2.185   5.491 -2.0283 -2.4168 -1.6716
18960SOL    HW259323   1.092   2.264   5.495 -2.6737 -3.4612 -1.3177
18961SOL     OW59324   4.413   3.997   4.899  0.0250 -0.2104 -0.2843
18961SOL    HW159325   4.413   4.082   4.854 -1.6946 -0.5542 -1.0182
18961SOL    HW259326   4.320   3.974   4.906  0.2370 -0.5332  2.8612
18962SOL     OW59327  10.112   4.494   7.409  0.0902 -0.2494  0.0333
18962SOL    HW159328  10.029   4.485   7.457  0.2270 -1.1659  0.1236
18962SOL    HW259329  10.139   4.403   7.393  1.9316  0.0023  1.4413
18963SOL     OW59330   7.177   2.818   1.133  0.2239 -0.3416  0.5877
18963SOL    HW159331   7.104   2.784   1.082  1.6905 -0.8285 -1.2970
18963SOL    HW259332   7.136   2.879   1.195 -1.8414 -1.2246  0.1791
18964SOL     OW59333   4.293   1.282   2.920  0.0795 -0.0138  0.2635
18964SOL    HW159334   4.334   1.353   2.969 -1.2164  1.4901 -0.7392
18964SOL    HW259335   4.346   1.273   2.841  0.2908 -0.2149  0.4281
18965SOL     OW59336  10.276   6.760   4.986  0.1346  0.2442 -0.1519
18965SOL    HW159337  10.227   6.836   5.016 -0.8278 -0.8697  1.1667
18965SOL    HW259338  10.248   6.748   4.895 -0.8244  0.5806  0.0916
18966SOL     OW59339   0.628   1.037   6.457  0.3687  0.3968 -0.4311
18966SOL    HW159340   0.599   1.116   6.411 -0.1582  1.1351  1.0969
18966SOL    HW259341   0.636   1.065   6.549 -0.9916 -1.6003  0.3541
18967SOL     OW59342   3.923   4.048   6.425  0.4865 -0.5442 -0.1048
18967SOL    HW159343   3.875   3.974   6.462  0.4060 -0.1052  0.7111
18967SOL    HW259344   3.921   4.034   6.331 -0.0564 -1.2592  0.0045
18968SOL     OW59345   0.783   4.081   0.278  0.4491  0.3229  0.4986
18968SOL    HW159346   0.844   4.116   0.213  2.5221 -0.9954  1.6255
18968SOL    HW259347   0.772   3.989   0.254 -1.9682  0.7655 -0.2688
18969SOL     OW59348   2.116   7.713   4.597 -0.0472  0.5710  0.3370
18969SOL    HW159349   2.116   7.630   4.549 -0.8738 -0.4229  1.9795
18969SOL    HW259350   2.092   7.689   4.686 -1.0320  2.6711  0.6969
18970SOL     OW59351   5.335   1.160   2.631  0.3001  0.0917 -0.6355
18970SOL    HW159352   5.302   1.200   2.550 -0.7355  0.3942 -0.0840
18970SOL    HW259353   5.256   1.138   2.681  0.8875 -1.5745 -0.3982
18971SOL     OW59354   2.931   6.939   3.747  0.2379  0.0133 -0.1308
18971SOL    HW159355   3.012   6.984   3.771  0.9868 -2.4346  2.4257
18971SOL    HW259356   2.863   6.982   3.800  0.1351  0.9003 -0.9512
18972SOL     OW59357  10.262  10.286   1.388  0.3011  0.3605  0.4001
18972SOL    HW159358  10.195  10.300   1.456  2.3201 -0.3219  2.6798
18972SOL    HW259359  10.293  10.374   1.366 -0.0019  0.5619  0.7608
18973SOL     OW59360   0.869   4.045   7.432  0.4828  0.8072  0.4762
18973SOL    HW159361   0.793   3.990   7.408  0.2212  1.5466 -0.4538
18973SOL    HW259362   0.846   4.132   7.401  2.5851  0.6704 -1.8154
18974SOL     OW59363   2.774   2.044   1.191 -0.4811  0.6270  0.4925
18974SOL    HW159364   2.702   2.087   1.144  0.1253  0.4936 -0.5905
18974SOL    HW259365   2.806   2.111   1.252 -0.3926  1.2847 -0.2551
18975SOL     OW59366   8.582   5.675   6.853  0.1953 -0.8029 -0.6403
18975SOL    HW159367   8.636   5.628   6.790  0.5624  0.8014 -1.5979
18975SOL    HW259368   8.606   5.767   6.840 -0.6517 -0.3276  0.9751
18976SOL     OW59369   4.937   4.416   9.995 -0.2925 -0.2725 -0.1645
18976SOL    HW159370   4.942   4.325  10.025  0.0240 -0.0802  0.3643
18976SOL    HW259371   4.919   4.467  10.074  0.5702  0.2416 -0.2839
18977SOL     OW59372   8.429   3.044   1.890  0.0494  0.5600 -0.5849
18977SOL    HW159373   8.350   3.055   1.838  0.0335  1.0634 -0.4532
18977SOL    HW259374   8.409   2.971   1.950 -0.3840  0.8231 -0.4129
18978SOL     OW59375   7.161   8.259   6.243  0.1894  0.4445  0.5906
18978SOL    HW159376   7.105   8.223   6.174  0.9018  0.5259 -0.0414
18978SOL    HW259377   7.187   8.183   6.294  0.1151  0.3097  0.4282
18979SOL     OW59378  10.094   9.442   9.347  0.5173  0.2965  0.3129
18979SOL    HW159379  10.147   9.485   9.280  0.3805  1.5703  0.9960
18979SOL    HW259380  10.156   9.417   9.415  0.4039  0.8065  0.6121
18980SOL     OW59381   2.614   3.470   3.291 -0.5189 -0.6113 -0.6317
18980SOL    HW159382   2.701   3.502   3.267 -0.9750  0.2021 -1.2518
18980SOL    HW259383   2.619   3.375   3.281  0.6602 -0.7098  0.5625
18981SOL     OW59384   2.953   5.223   0.179 -0.2605 -0.2134 -0.3432
18981SOL    HW159385   3.006   5.294   0.142  0.8715 -0.5555  0.5797
18981SOL    HW259386   3.000   5.143   0.158 -0.1528 -0.4924  0.8921
18982SOL     OW59387   4.260   0.388   5.637  0.5608 -0.5506 -0.0477
18982SOL    HW159388   4.201   0.376   5.563 -0.6073  0.9983  0.5871
18982SOL    HW259389   4.301   0.473   5.622  0.9845 -0.6180  0.6444
18983SOL     OW59390   2.353   9.008   4.624  0.4779 -0.3300 -0.2974
18983SOL    HW159391   2.347   9.100   4.600  0.0657 -0.6613 -1.5321
18983SOL    HW259392   2.411   8.970   4.558 -0.1753 -1.1493 -0.4124
18984SOL     OW59393   0.750   2.646   5.522 -0.0735  0.0208 -0.2454
18984SOL    HW159394   0.796   2.562   5.525  0.1831  0.1781  0.9095
18984SOL    HW259395   0.820   2.711   5.521 -0.2663  0.2419  0.2959
18985SOL     OW59396   0.027   6.226   7.340  0.0222 -0.7043 -0.0768
18985SOL    HW159397   0.096   6.196   7.398 -0.4423  0.3934  1.0901
18985SOL    HW259398  -0.024   6.288   7.393 -0.5708  0.1424 -1.5650
18986SOL     OW59399   5.039   3.380   0.586 -0.0875  0.4627  0.5226
18986SOL    HW159400   4.984   3.303   0.596  1.4602 -0.6898  0.5952
18986SOL    HW259401   5.117   3.361   0.638  0.9736  1.4363 -0.6405
18987SOL     OW59402   7.762   9.433   6.772 -0.1200  0.4832 -0.6589
18987SOL    HW159403   7.668   9.414   6.769 -0.2939  1.4003 -2.1653
18987SOL    HW259404   7.784   9.430   6.865 -1.7805  0.9155 -0.2095
18988SOL     OW59405   4.117   0.432   2.587  0.6076  0.1943 -0.2401
18988SOL    HW159406   4.102   0.495   2.516  0.9114  0.5391 -0.0030
18988SOL    HW259407   4.189   0.470   2.638 -0.5295  0.6743  1.0740
18989SOL     OW59408   0.082   8.835   8.553 -0.6039  0.2180 -0.1911
18989SOL    HW159409   0.091   8.770   8.484 -0.2623  1.1873 -1.0822
18989SOL    HW259410   0.012   8.893   8.522  0.6717  1.6195 -0.5349
18990SOL     OW59411   0.050   4.414   5.252 -0.5568  0.0904 -0.1027
18990SOL    HW159412   0.081   4.478   5.188 -1.3051 -0.3663 -0.9352
18990SOL    HW259413  -0.028   4.376   5.212  0.7471 -2.5324 -0.3819
18991SOL     OW59414   6.972   8.716   9.233  0.1284  0.1339  0.4840
18991SOL    HW159415   7.039   8.653   9.207 -0.0438 -0.9385  2.4133
18991SOL    HW259416   6.916   8.725   9.157  0.4756 -1.6518 -0.0322
18992SOL     OW59417   7.957   2.462   1.838  0.4945  0.2561 -0.0216
18992SOL    HW159418   8.022   2.406   1.881 -0.2249  0.0276  0.7801
18992SOL    HW259419   7.930   2.413   1.760  0.6939  0.0020  0.0692
18993SOL     OW59420   6.819   6.433   2.902 -0.2543 -0.2958  0.3520
18993SOL    HW159421   6.786   6.503   2.958  0.7424  0.7206 -0.2891
18993SOL    HW259422   6.853   6.368   2.963 -3.3279 -1.4265  1.0476
18994SOL     OW59423   4.233   5.411   5.406 -0.4186 -0.0087 -0.2706
18994SOL    HW159424   4.315   5.416   5.357 -0.7396 -2.2661 -1.1402
18994SOL    HW259425   4.164   5.422   5.340 -0.8601  1.2450  0.3618
18995SOL     OW59426   7.711   3.665   8.565  0.1917  0.4189 -0.2132
18995SOL    HW159427   7.742   3.616   8.641 -0.8714  0.9338  0.5774
18995SOL    HW259428   7.679   3.597   8.505  0.8534  0.0198 -0.1292
18996SOL     OW59429   1.540   8.057   3.338 -0.1713 -0.0159  0.4901
18996SOL    HW159430   1.588   7.985   3.297 -1.1365  0.1170 -0.9513
18996SOL    HW259431   1.530   8.122   3.267 -0.7482  0.8091  1.3044
18997SOL     OW59432   3.799   1.062   0.593 -0.7562 -0.3762  0.2886
18997SOL    HW159433   3.865   0.993   0.594 -0.0050  0.2801 -1.3264
18997SOL    HW259434   3.718   1.018   0.619 -0.2371 -1.7858 -0.3845
18998SOL     OW59435   4.152   2.184   7.009  0.3257 -0.0515  0.0028
18998SOL    HW159436   4.078   2.230   6.968  0.6883  0.8597  0.3457
18998SOL    HW259437   4.220   2.184   6.942  1.0014  1.6472  0.6386
18999SOL     OW59438   4.179   2.874   9.136 -0.9381  0.4909 -0.2377
18999SOL    HW159439   4.104   2.874   9.077  0.6433  2.2674 -2.4051
18999SOL    HW259440   4.161   2.945   9.198 -0.2640  2.2076 -1.9341
19000SOL     OW59441   7.535   5.307   6.551  0.0627  0.1962 -0.6643
19000SOL    HW159442   7.449   5.313   6.594  0.7370 -1.0135  0.9571
19000SOL    HW259443   7.597   5.338   6.617  1.0821 -1.1215 -0.9509
19001SOL     OW59444   6.976   3.299   7.178  0.5394 -0.1077  0.2284
19001SOL    HW159445   6.959   3.236   7.108 -1.8498 -0.3977  0.9806
19001SOL    HW259446   7.059   3.272   7.216  0.8255 -1.2182 -1.1378
19002SOL     OW59447   8.614   5.904   5.659 -0.1398 -0.3353  0.4885
19002SOL    HW159448   8.572   5.818   5.656 -0.0586 -0.4155  1.4017
19002SOL    HW259449   8.678   5.902   5.589  0.2390 -1.2272  0.8459
19003SOL     OW59450   7.626   6.721   6.041  0.4191 -0.4081 -0.1070
19003SOL    HW159451   7.594   6.790   5.982  0.1858 -0.2577  0.1894
19003SOL    HW259452   7.719   6.714   6.022  0.4160 -0.1071 -0.2390
19004SOL     OW59453   0.794   4.104   5.868  0.5931  0.1212  0.6883
19004SOL    HW159454   0.859   4.123   5.801  0.9102 -1.7109  0.4347
19004SOL    HW259455   0.725   4.170   5.854  2.3740  2.1701  1.0379
19005SOL     OW59456   9.240   1.555   1.406 -0.2170  0.0683 -0.4570
19005SOL    HW159457   9.176   1.627   1.404 -1.4325 -0.9741 -0.6531
19005SOL    HW259458   9.187   1.476   1.394  1.0058 -0.9232  0.4239
19006SOL     OW59459   2.805   4.400   8.165  0.2500  0.1984  0.1032
19006SOL    HW159460   2.711   4.412   8.152  0.2402 -1.1600 -1.3851
19006SOL    HW259461   2.840   4.489   8.167 -1.0844  0.7320  0.8939
19007SOL     OW59462   7.185   3.293   7.996 -0.4444  0.3451 -0.5402
19007SOL    HW159463   7.090   3.298   7.984 -0.6677 -0.2883  0.7571
19007SOL    HW259464   7.206   3.366   8.053 -0.8147 -1.6960  2.4605
19008SOL     OW59465   7.005   4.229   7.656  0.1127 -0.6698 -0.0074
19008SOL    HW159466   6.931   4.197   7.709  0.5826 -1.4705  0.1738
19008SOL    HW259467   7.012   4.167   7.584  0.5962 -0.5746 -0.0424
19009SOL     OW59468   8.262   9.745   6.737  0.2540  0.1864 -0.1219
19009SOL    HW159469   8.224   9.663   6.705  1.1537 -0.6644  0.9346
19009SOL    HW259470   8.297   9.787   6.659 -2.1814  0.6859 -1.0479
19010SOL     OW59471   2.938   4.401   6.976 -0.1196  0.7658 -0.1562
19010SOL    HW159472   2.867   4.462   6.960 -1.7411 -1.1570 -0.7478
19010SOL    HW259473   2.935   4.341   6.901 -0.3992 -1.6271  1.6532
19011SOL     OW59474   6.978   0.213   7.667  0.0921  0.1397 -0.2382
19011SOL    HW159475   6.914   0.226   7.737 -2.1542  1.9757 -2.4147
19011SOL    HW259476   7.036   0.288   7.672  0.6557 -0.3288  0.3336
19012SOL     OW59477   3.248   8.097   4.711  0.0200 -0.7103  0.5875
19012SOL    HW159478   3.213   8.008   4.701  1.8626 -1.4252 -0.0234
19012SOL    HW259479   3.183   8.153   4.670 -0.1584 -2.0322 -1.0719
19013SOL     OW59480   7.339   8.540   8.869 -0.1901  0.0414  0.5208
19013SOL    HW159481   7.341   8.627   8.828 -1.0301  0.4428  1.2942
19013SOL    HW259482   7.426   8.504   8.853 -0.3513  0.3436 -1.2623
19014SOL     OW59483   4.071   9.865   3.778 -0.3533 -0.1578  0.3583
19014SOL    HW159484   4.068   9.935   3.713 -2.9312 -1.4332 -1.0368
19014SOL    HW259485   4.085   9.911   3.862 -0.4274  1.8419 -0.6660
19015SOL     OW59486   7.325   5.983   2.213 -0.0742 -0.0850 -0.0995
19015SOL    HW159487   7.261   5.925   2.255  0.0393 -0.0435  0.1335
19015SOL    HW259488   7.366   6.030   2.286  0.3492 -0.2426 -0.2341
19016SOL     OW59489   4.409   7.442   1.944  0.7657  0.1522 -0.2716
19016SOL    HW159490   4.413   7.537   1.931 -1.6803  0.2743 -0.5559
19016SOL    HW259491   4.349   7.430   2.017  1.3650 -1.1905  0.0344
19017SOL     OW59492   6.275   2.150   9.084 -0.6826  0.1095 -0.4690
19017SOL    HW159493   6.229   2.099   9.017 -2.8182 -0.7484  1.4812
19017SOL    HW259494   6.237   2.120   9.167  1.3931  1.5285  1.1228
19018SOL     OW59495   2.383   1.116   2.962 -0.3345 -0.4160 -0.4434
19018SOL    HW159496   2.426   1.201   2.969  0.4811 -0.8596  0.1112
19018SOL    HW259497   2.314   1.118   3.029 -0.8540  0.1081 -0.9878
19019SOL     OW59498   7.574   1.328   3.277  0.2370  0.3101 -0.6720
19019SOL    HW159499   7.537   1.413   3.301 -3.6848 -0.9889 -1.4160
19019SOL    HW259500   7.539   1.311   3.189  3.0347 -1.0371 -1.6505
19020SOL     OW59501   8.949   5.954   0.028 -0.5401  0.9542 -0.5934
19020SOL    HW159502   9.029   5.946   0.081 -1.3318 -0.6726  0.4150
19020SOL    HW259503   8.899   6.023   0.071 -1.3232 -0.5674  1.0455
19021SOL     OW59504   0.986   7.227   0.210 -0.3730 -0.4591  0.6940
19021SOL    HW159505   1.017   7.149   0.256 -0.4629  0.5427  2.5529
19021SOL    HW259506   0.894   7.235   0.236 -0.7880 -0.5214 -0.6584
19022SOL     OW59507   6.949   7.527   2.983 -0.0527 -0.2595  0.1676
19022SOL    HW159508   6.940   7.432   2.974  0.5907 -0.2277 -1.0895
19022SOL    HW259509   7.027   7.548   2.932  0.5400  0.8014  1.4664
19023SOL     OW59510   8.690   8.670   3.105 -0.0676  0.3710 -0.4388
19023SOL    HW159511   8.662   8.753   3.065  0.1382  1.6272  1.8712
19023SOL    HW259512   8.750   8.696   3.175  2.0740 -1.9158 -1.2677
19024SOL     OW59513   9.383   5.627   9.458 -0.1841  0.1373  0.3534
19024SOL    HW159514   9.342   5.633   9.545  1.6918  1.8485  1.2044
19024SOL    HW259515   9.339   5.696   9.407 -1.2068 -0.7926 -0.0635
19025SOL     OW59516   2.365   8.581   4.364 -0.5014  0.0093 -0.0376
19025SOL    HW159517   2.395   8.492   4.344 -0.8287 -0.2397  0.5426
19025SOL    HW259518   2.299   8.569   4.433 -0.8042  0.6746 -0.2036
19026SOL     OW59519   2.365   9.090   0.257 -0.7286 -0.2374  0.3328
19026SOL    HW159520   2.338   9.031   0.188 -0.8481 -0.9449  0.9784
19026SOL    HW259521   2.349   9.042   0.339  0.4729  0.1309  0.8132
19027SOL     OW59522   6.621   2.526   6.202 -0.1744 -0.9486 -0.1798
19027SOL    HW159523   6.653   2.571   6.123 -1.8429 -2.9222 -2.1145
19027SOL    HW259524   6.530   2.554   6.211  0.5712  1.0104  2.5116
19028SOL     OW59525   6.493   7.606   2.719  0.4709 -0.2387  0.4220
19028SOL    HW159526   6.446   7.529   2.751  0.6967 -0.7476 -0.4122
19028SOL    HW259527   6.488   7.669   2.790  0.6457 -1.1839  1.2937
19029SOL     OW59528   9.316  10.158   8.360  0.5665  0.0990  0.0521
19029SOL    HW159529   9.285  10.149   8.450  1.2926  2.0836  0.5444
19029SOL    HW259530   9.236  10.157   8.307  0.1895 -2.0253  0.5771
19030SOL     OW59531   0.526   4.673   8.661  0.0848 -0.2864 -0.0980
19030SOL    HW159532   0.523   4.617   8.584 -1.4687  1.5412 -1.4819
19030SOL    HW259533   0.571   4.752   8.631  1.7396 -0.4744  1.6429
19031SOL     OW59534   7.720   0.871   1.540  0.0694 -0.1795 -0.2274
19031SOL    HW159535   7.738   0.825   1.458  1.1410  1.0670 -0.7369
19031SOL    HW259536   7.807   0.888   1.577 -0.2316  1.8320 -0.3263
19032SOL     OW59537   5.633   2.498   0.942  0.3032 -0.1725  0.4046
19032SOL    HW159538   5.701   2.433   0.925  0.7475  0.0823  1.2086
19032SOL    HW259539   5.585   2.464   1.018 -1.5738 -1.2104 -1.1338
19033SOL     OW59540   1.479   1.387   4.078  0.1210  0.0355  0.2993
19033SOL    HW159541   1.433   1.374   3.995  2.2153  1.6944 -1.2387
19033SOL    HW259542   1.514   1.301   4.100 -2.3641 -0.9520  0.7714
19034SOL     OW59543   8.166   3.046   0.609  0.0676  0.5852 -0.0311
19034SOL    HW159544   8.084   3.001   0.633  0.9350 -0.4353  1.1530
19034SOL    HW259545   8.193   3.091   0.689  1.4577 -0.3822  0.0856
19035SOL     OW59546   8.763   7.984   8.705 -0.2013 -0.5175 -0.1808
19035SOL    HW159547   8.708   8.009   8.780 -0.7016 -1.9171 -0.0367
19035SOL    HW259548   8.756   8.057   8.644 -0.8956  0.0507  0.5602
19036SOL     OW59549   5.767   0.729   5.928  0.0048  0.0514 -0.2015
19036SOL    HW159550   5.787   0.666   5.998 -1.3848  0.5219  0.6584
19036SOL    HW259551   5.721   0.800   5.973 -0.4273  0.6286 -1.5256
19037SOL     OW59552   2.997   4.384   4.338 -0.3062 -0.1303  0.1462
19037SOL    HW159553   2.968   4.311   4.392  0.2608 -1.7189 -1.6146
19037SOL    HW259554   2.916   4.422   4.303 -0.5794 -0.1724  0.7238
19038SOL     OW59555   9.539   6.189   4.052  0.2975  0.7338 -0.0830
19038SOL    HW159556   9.557   6.171   4.145 -0.3895 -0.3890 -0.1473
19038SOL    HW259557   9.450   6.155   4.039 -0.9185  3.7463 -0.3872
19039SOL     OW59558   5.586   9.214  10.434  0.1590 -0.2666  1.0631
19039SOL    HW159559   5.597   9.299  10.477 -1.0892  0.3851  0.1571
19039SOL    HW259560   5.573   9.153  10.506  1.9111  0.1303  1.7763
19040SOL     OW59561   3.537   5.240   4.643 -0.1400 -0.2532  0.1278
19040SOL    HW159562   3.621   5.195   4.647  0.6581  1.1734 -0.1009
19040SOL    HW259563   3.509   5.234   4.552  0.1224 -0.0164  0.0312
19041SOL     OW59564   3.895   2.706   1.517  0.2101 -0.5331  0.5107
19041SOL    HW159565   3.882   2.637   1.583  0.6464 -1.5003 -0.3816
19041SOL    HW259566   3.856   2.784   1.556 -2.2068 -1.7411  0.7154
19042SOL     OW59567   8.639   2.766   7.523  0.2507 -0.3306  0.0625
19042SOL    HW159568   8.595   2.692   7.480  0.4235  0.7174 -2.0238
19042SOL    HW259569   8.571   2.804   7.579  0.2617 -2.2297  1.4995
19043SOL     OW59570   3.674   4.709   1.064 -0.1099 -0.2703  0.2048
19043SOL    HW159571   3.678   4.792   1.016 -1.4621 -1.0047 -1.2868
19043SOL    HW259572   3.757   4.665   1.043  1.5729  1.4434  2.6371
19044SOL     OW59573   8.049   1.898   8.093 -0.7901 -0.2167  0.1169
19044SOL    HW159574   8.126   1.950   8.115 -0.8779  0.1276 -0.3663
19044SOL    HW259575   8.064   1.813   8.133  0.2277 -0.4265 -0.6871
19045SOL     OW59576   5.214   3.884   5.297  0.4378 -0.0291  0.0433
19045SOL    HW159577   5.248   3.794   5.299 -0.8416 -0.6312 -2.0858
19045SOL    HW259578   5.121   3.875   5.317 -0.4569  0.2828 -3.3370
19046SOL     OW59579   1.353   1.227   2.158  0.2062 -0.8130  0.5670
19046SOL    HW159580   1.368   1.224   2.253  1.5970  0.3043  0.4017
19046SOL    HW259581   1.323   1.316   2.141 -0.9555 -1.2789  0.0519
19047SOL     OW59582  10.317   6.551   0.710 -0.0862  0.5218  0.2567
19047SOL    HW159583  10.287   6.641   0.701  1.5191  1.1564  0.9477
19047SOL    HW259584  10.289   6.524   0.797  0.6501  0.8553  0.6053
19048SOL     OW59585   4.825   5.036   0.523  0.4581 -0.1836 -0.0048
19048SOL    HW159586   4.870   5.031   0.439  2.5370 -0.1895  1.0333
19048SOL    HW259587   4.817   5.130   0.541  0.1088 -0.1832 -0.1588
19049SOL     OW59588   5.051   8.434   7.994 -0.2492 -0.2329  0.1323
19049SOL    HW159589   4.991   8.404   7.926  0.4797 -0.4595 -0.4293
19049SOL    HW259590   5.049   8.529   7.988  2.0261 -0.2202 -2.2686
19050SOL     OW59591   8.393   5.856   2.863  0.3573 -0.5741 -0.1069
19050SOL    HW159592   8.387   5.854   2.959 -0.5196 -2.6906 -0.1710
19050SOL    HW259593   8.430   5.771   2.839 -0.0995 -0.3493 -1.6918
19051SOL     OW59594   7.766   5.339   6.728 -0.5707 -0.2957 -0.2760
19051SOL    HW159595   7.839   5.310   6.674  0.6567 -0.0420  1.1964
19051SOL    HW259596   7.742   5.262   6.780  0.6722  0.4143  1.4209
19052SOL     OW59597   4.560   0.865   5.920  0.5388  0.3622  0.0667
19052SOL    HW159598   4.504   0.794   5.951  1.8785  0.3922  2.8536
19052SOL    HW259599   4.607   0.895   5.998  3.5097  1.1721 -1.8335
19053SOL     OW59600   9.326   8.693   8.259 -0.5783 -0.9353  0.4954
19053SOL    HW159601   9.360   8.603   8.261 -0.4225 -0.8745  0.5510
19053SOL    HW259602   9.269   8.699   8.335  0.5508 -0.5344  1.3282
19054SOL     OW59603   5.336   4.427   4.749  0.2965 -0.1208  0.2647
19054SOL    HW159604   5.422   4.434   4.709  0.4334  0.3270  0.6301
19054SOL    HW259605   5.284   4.377   4.686  0.1711  1.5568 -1.0290
19055SOL     OW59606   1.680   1.996   8.017  0.1890 -0.4769  0.8352
19055SOL    HW159607   1.642   1.913   7.987 -0.9726  0.4165 -0.2623
19055SOL    HW259608   1.621   2.026   8.085 -1.4552  1.1241 -1.1596
19056SOL     OW59609   3.677   9.774   7.406 -0.2170 -0.0432 -0.0134
19056SOL    HW159610   3.660   9.867   7.423  3.2939  0.8984 -0.9122
19056SOL    HW259611   3.734   9.747   7.478  1.4077 -0.5430 -1.4295
19057SOL     OW59612   6.388   8.542   4.614 -0.1483  0.1586  0.6477
19057SOL    HW159613   6.471   8.523   4.571 -0.1226  0.3295  0.6204
19057SOL    HW259614   6.329   8.473   4.584 -0.1071  0.2279  0.4036
19058SOL     OW59615   5.198  10.187   8.045  0.2439  0.4117 -0.4452
19058SOL    HW159616   5.234  10.213   7.960 -0.3717  1.7372 -0.3307
19058SOL    HW259617   5.146  10.109   8.026  0.6998  0.2652 -1.1481
19059SOL     OW59618   0.869   8.279   0.910  0.7357 -0.9416 -0.3579
19059SOL    HW159619   0.873   8.334   0.988  1.3774 -1.2563 -0.1613
19059SOL    HW259620   0.827   8.334   0.844  1.8908 -0.0022 -0.3350
19060SOL     OW59621   4.078   2.281   7.464  0.3470  0.1697 -0.4971
19060SOL    HW159622   4.078   2.330   7.381 -0.5407 -0.3430 -0.8008
19060SOL    HW259623   4.075   2.189   7.438  1.0401 -0.0294  0.0954
19061SOL     OW59624   6.729   2.551   1.721 -0.2668 -0.0319  1.1354
19061SOL    HW159625   6.641   2.572   1.692 -1.7611  0.1278  5.1647
19061SOL    HW259626   6.782   2.626   1.695 -1.9702  1.2138  1.1505
19062SOL     OW59627   5.956   1.122   8.618 -0.3018  0.1407 -0.2606
19062SOL    HW159628   5.864   1.136   8.598 -0.1150  0.8145 -0.6911
19062SOL    HW259629   5.962   1.130   8.713 -0.4964  1.3149 -0.3334
19063SOL     OW59630   2.817   9.901   4.775 -0.0169  0.4692 -0.1779
19063SOL    HW159631   2.886   9.964   4.793 -0.0068  0.6674 -0.8733
19063SOL    HW259632   2.737   9.954   4.773 -0.1438  0.2987  0.2515
19064SOL     OW59633  10.251   5.251   9.088  0.6875  0.5960  0.2081
19064SOL    HW159634  10.323   5.199   9.052  0.4822  1.2107 -1.1567
19064SOL    HW259635  10.192   5.187   9.127 -0.7279 -0.5631 -3.3927
19065SOL     OW59636   4.952   0.372   6.901  0.0591 -0.4512 -0.2752
19065SOL    HW159637   4.956   0.284   6.863 -0.0717 -1.0061  0.9345
19065SOL    HW259638   4.923   0.357   6.991  0.3556  0.8111  0.0441
19066SOL     OW59639   2.842   4.226   2.605  0.3937 -0.2415 -0.6473
19066SOL    HW159640   2.834   4.319   2.584  1.5601  0.0276  0.0432
19066SOL    HW259641   2.842   4.182   2.520  1.0741  0.4996 -1.0409
19067SOL     OW59642   2.459   9.251   1.101 -0.3544 -0.3237  0.0858
19067SOL    HW159643   2.394   9.312   1.066 -1.4261 -1.8456 -0.6994
19067SOL    HW259644   2.414   9.207   1.172  0.3101 -0.4038  0.4623
19068SOL     OW59645   3.596   4.496   7.812 -0.5902 -0.0583  0.2287
19068SOL    HW159646   3.579   4.575   7.760  1.9568  0.7475  0.4583
19068SOL    HW259647   3.631   4.530   7.895  0.0710 -1.4191  0.5238
19069SOL     OW59648   9.338   9.541   6.487 -0.2575  0.5337 -0.1768
19069SOL    HW159649   9.303   9.460   6.525 -0.4409  0.5620 -0.2834
19069SOL    HW259650   9.399   9.511   6.419 -1.0473  0.4824 -0.8741
19070SOL     OW59651   9.138   2.691   8.421  0.0651  0.6803  0.6399
19070SOL    HW159652   9.129   2.673   8.327  0.4986  0.2686  0.6701
19070SOL    HW259653   9.197   2.766   8.426 -2.1914  2.5519  0.4915
19071SOL     OW59654   3.547   0.321   4.501  0.4361  0.2578 -0.3349
19071SOL    HW159655   3.553   0.287   4.412  2.9528  0.0669 -0.1618
19071SOL    HW259656   3.522   0.245   4.554  0.6967 -0.0654 -0.6674
19072SOL     OW59657   8.798   2.202   3.821 -0.2054  0.4572  0.1192
19072SOL    HW159658   8.730   2.146   3.857  1.0636 -1.3152 -0.1266
19072SOL    HW259659   8.755   2.250   3.751 -1.8776  1.4998  1.7681
19073SOL     OW59660   1.841   5.498   7.135 -0.2333 -0.0793 -0.4674
19073SOL    HW159661   1.925   5.470   7.099  1.0341  2.0144  0.6969
19073SOL    HW259662   1.860   5.579   7.182 -2.9017  0.4290 -0.0851
19074SOL     OW59663   9.640   4.506  10.255  0.0414 -0.0844 -0.6970
19074SOL    HW159664   9.686   4.568  10.199 -0.3433 -0.3051 -1.2639
19074SOL    HW259665   9.695   4.427  10.254  0.1893  0.0158 -0.5140
19075SOL     OW59666   5.950   8.171   6.244 -0.4777 -0.0407 -0.9524
19075SOL    HW159667   5.891   8.245   6.236 -0.9381 -0.1769  0.7000
19075SOL    HW259668   5.976   8.171   6.337 -0.5863 -2.0060 -0.8737
19076SOL     OW59669   4.330   5.265   2.535 -0.2586 -0.4328  0.1655
19076SOL    HW159670   4.396   5.284   2.602  0.0954  1.8380 -0.7588
19076SOL    HW259671   4.331   5.341   2.477  0.2953 -2.7441 -3.1735
19077SOL     OW59672   3.352   8.563   3.335 -0.1115 -0.7335 -0.1008
19077SOL    HW159673   3.425   8.578   3.274 -0.0907 -1.9619 -0.4094
19077SOL    HW259674   3.392   8.518   3.409 -0.1783  0.5735  0.7535
19078SOL     OW59675   0.859   5.547   7.605 -0.1580  0.0636  0.1426
19078SOL    HW159676   0.771   5.516   7.624  0.8878 -3.5174 -0.1483
19078SOL    HW259677   0.851   5.597   7.524 -1.6109 -2.7677 -1.6334
19079SOL     OW59678   6.913   5.940   8.325  0.2387  0.1656  0.1168
19079SOL    HW159679   6.945   5.930   8.235 -0.2414 -1.3837  0.1060
19079SOL    HW259680   6.956   5.870   8.374 -2.2675 -1.3366  0.3248
19080SOL     OW59681   4.955   4.992   1.199  0.2690  0.6568 -0.2131
19080SOL    HW159682   5.016   4.930   1.157 -1.3375 -0.5535 -0.8882
19080SOL    HW259683   4.934   5.055   1.129  1.1541  1.4238  0.1903
19081SOL     OW59684   1.102  10.479   2.984  0.0186  0.2746 -0.3914
19081SOL    HW159685   1.165  10.453   2.917  0.5215 -0.0778  0.2047
19081SOL    HW259686   1.134  10.438   3.064  0.0088  1.5291  0.2843
19082SOL     OW59687   7.176   9.480   5.576  0.1598  0.3633 -0.7466
19082SOL    HW159688   7.087   9.503   5.602  0.7971 -0.1110  2.1443
19082SOL    HW259689   7.211   9.560   5.537 -0.6591  1.4385  0.6298
19083SOL     OW59690   3.196   7.823   0.262 -0.1392  0.3955  0.1103
19083SOL    HW159691   3.272   7.801   0.208  0.2707  0.2437  0.7429
19083SOL    HW259692   3.166   7.738   0.296 -0.5193  0.4686 -0.0348
19084SOL     OW59693   7.685   5.665   6.018 -0.0339 -0.8625 -0.3958
19084SOL    HW159694   7.649   5.738   5.968  2.0450  1.6243  1.4951
19084SOL    HW259695   7.659   5.682   6.108  1.2328 -1.9885  0.2133
19085SOL     OW59696   5.818   0.643   3.905  0.0592  0.3014 -0.1061
19085SOL    HW159697   5.827   0.550   3.923  0.8644 -0.2476 -2.8726
19085SOL    HW259698   5.732   0.666   3.939 -2.8110 -2.8797 -4.1691
19086SOL     OW59699   0.087   6.809   2.984 -0.7441  0.4739 -0.7629
19086SOL    HW159700   0.047   6.868   3.049  1.5563  2.2703 -0.8482
19086SOL    HW259701   0.140   6.867   2.929  1.9806 -1.6945 -0.6273
19087SOL     OW59702   3.412   2.392   0.312 -0.4881  0.3830  0.2470
19087SOL    HW159703   3.355   2.459   0.273 -0.5580 -0.7962 -1.8151
19087SOL    HW259704   3.499   2.411   0.277 -0.0552  0.7253  1.4651
19088SOL     OW59705   7.829   7.426   0.645 -0.2690  0.0915  0.2279
19088SOL    HW159706   7.811   7.518   0.629 -0.0392  0.4356  1.7629
19088SOL    HW259707   7.902   7.405   0.587 -0.9400  0.6037 -0.8264
19089SOL     OW59708   6.656   0.200   4.596 -0.2942  0.0427  0.2208
19089SOL    HW159709   6.561   0.191   4.584 -0.2178 -1.1673  0.4181
19089SOL    HW259710   6.670   0.294   4.604 -1.2763  0.3807 -1.4494
19090SOL     OW59711   7.618   0.062   7.120  0.0389 -0.2548  0.2336
19090SOL    HW159712   7.629   0.146   7.164  0.8779  0.2788 -0.9424
19090SOL    HW259713   7.553   0.079   7.052  1.0361 -0.2428 -0.7419
19091SOL     OW59714   8.578  10.270   8.218  0.6559 -0.9593  0.4869
19091SOL    HW159715   8.651  10.212   8.201  0.2525 -1.6542  1.0877
19091SOL    HW259716   8.522  10.222   8.280 -1.8114 -1.7179 -2.1127
19092SOL     OW59717   0.577   8.278   0.612 -0.0058  0.2744  0.0168
19092SOL    HW159718   0.633   8.353   0.630 -0.7852  0.7823  0.3774
19092SOL    HW259719   0.545   8.251   0.698 -1.9965  1.3291 -0.3430
19093SOL     OW59720   9.683   4.857   9.697 -0.8521 -0.3055 -0.3243
19093SOL    HW159721   9.755   4.839   9.637 -0.2140  2.3329 -0.4666
19093SOL    HW259722   9.610   4.804   9.664  1.0936 -3.6103  0.2295
19094SOL     OW59723   6.333   3.205   6.514  0.5905  0.0922 -0.7265
19094SOL    HW159724   6.333   3.194   6.419  0.6893 -0.2807 -0.6854
19094SOL    HW259725   6.426   3.198   6.539  0.4180 -1.3738 -0.4338
19095SOL     OW59726   9.475   9.811   7.640 -0.0940  0.2042  0.1704
19095SOL    HW159727   9.413   9.761   7.588  0.2360 -0.0452  0.0109
19095SOL    HW259728   9.558   9.802   7.593  0.3565 -0.5519  1.0815
19096SOL     OW59729   5.382   4.634   2.577 -0.3118  0.1140 -0.5074
19096SOL    HW159730   5.475   4.654   2.576  0.3148 -2.3081 -2.8923
19096SOL    HW259731   5.375   4.550   2.622 -1.2299 -0.0775 -0.9664
19097SOL     OW59732   2.129   2.139   7.108 -0.3893  0.3981  0.2247
19097SOL    HW159733   2.169   2.123   7.023 -1.5173  2.0400 -0.6735
19097SOL    HW259734   2.199   2.179   7.160  0.0559  0.1932 -0.2096
19098SOL     OW59735   0.880   6.539   4.842 -0.3499 -0.3427 -0.3616
19098SOL    HW159736   0.922   6.463   4.883 -0.5517 -0.7575 -0.9213
19098SOL    HW259737   0.813   6.566   4.906 -1.2377 -1.5106 -0.7690
19099SOL     OW59738   7.720   4.396   7.072 -0.2299  0.0917 -0.2917
19099SOL    HW159739   7.642   4.345   7.088 -0.3728  0.2066 -0.6097
19099SOL    HW259740   7.793   4.335   7.084 -0.3804 -0.0809 -0.2663
19100SOL     OW59741   2.022   5.147   8.171  0.2123  0.4096  0.1357
19100SOL    HW159742   2.105   5.169   8.130  0.5406 -0.7198  0.1661
19100SOL    HW259743   2.043   5.139   8.264  0.1208 -0.0817  0.1163
19101SOL     OW59744   9.633   5.193   6.978  0.2480 -0.0820 -0.5617
19101SOL    HW159745   9.704   5.132   6.958 -0.2425 -1.7619  2.2492
19101SOL    HW259746   9.553   5.140   6.972 -0.9269  1.7310 -3.5394
19102SOL     OW59747   2.692   9.054   1.980  0.2486 -0.5526  0.3317
19102SOL    HW159748   2.691   9.140   1.937  1.8540  0.2433  1.8037
19102SOL    HW259749   2.767   9.057   2.039  2.3531 -4.0909 -1.7697
19103SOL     OW59750   6.491  10.247   8.155 -0.1562 -0.6506  0.3557
19103SOL    HW159751   6.405  10.268   8.189  0.3786 -0.9109  1.9324
19103SOL    HW259752   6.491  10.283   8.066 -1.4878  0.3128  0.7218
19104SOL     OW59753   2.543   4.207   9.641 -0.5714  0.5473  0.1003
19104SOL    HW159754   2.525   4.234   9.551 -1.9708  2.5906  0.9089
19104SOL    HW259755   2.638   4.205   9.647 -0.4346  1.8956 -1.0413
19105SOL     OW59756   9.492   1.609   3.909  0.0952  0.0434 -0.6932
19105SOL    HW159757   9.566   1.655   3.871  0.5645 -0.1259  0.0011
19105SOL    HW259758   9.502   1.621   4.003 -1.3314  0.9048 -0.6263
19106SOL     OW59759   0.699   6.404   6.831 -0.0243 -0.3457 -0.3947
19106SOL    HW159760   0.713   6.491   6.795  0.6065 -0.9774 -1.7946
19106SOL    HW259761   0.724   6.411   6.923  1.0960  0.6958 -0.7537
19107SOL     OW59762   6.865   5.060   4.778  0.1913 -0.0481  0.1497
19107SOL    HW159763   6.870   5.154   4.795 -2.0590  0.0145  0.8341
19107SOL    HW259764   6.808   5.027   4.848 -0.3225 -1.6472 -0.9792
19108SOL     OW59765   2.575   8.093   4.438  0.1995 -0.2373  0.3341
19108SOL    HW159766   2.625   8.039   4.499 -0.3833  0.0137  1.0447
19108SOL    HW259767   2.486   8.058   4.441  0.5390 -1.4504 -1.8259
19109SOL     OW59768   1.589   3.486   1.934 -0.1283  0.1689  0.7433
19109SOL    HW159769   1.596   3.393   1.912  1.2596  0.2382  0.8041
19109SOL    HW259770   1.582   3.531   1.850 -0.2382  0.0485  0.6885
19110SOL     OW59771  10.283   9.242   5.009 -0.2020  0.5922 -0.3877
19110SOL    HW159772  10.313   9.156   5.041 -0.3141  0.1906 -1.3319
19110SOL    HW259773  10.189   9.241   5.022 -0.6279 -0.5711 -2.8925
19111SOL     OW59774   7.060   9.908   9.343 -0.2582 -0.0296 -0.1712
19111SOL    HW159775   7.082  10.000   9.328  1.9388 -0.5220 -0.3786
19111SOL    HW259776   7.035   9.904   9.435  0.0453  0.7086 -0.0479
19112SOL     OW59777   5.112   0.022   5.356  0.4204 -0.0453 -0.0787
19112SOL    HW159778   5.033   0.046   5.308  0.3574 -0.9774 -0.4595
19112SOL    HW259779   5.165  -0.028   5.293  1.7059  1.2775 -0.0949
19113SOL     OW59780   5.562   2.293   5.725 -0.3539 -0.2622  0.0348
19113SOL    HW159781   5.486   2.349   5.710  0.1248 -0.0660 -1.9463
19113SOL    HW259782   5.561   2.231   5.652 -0.1176 -2.0146  1.4648
19114SOL     OW59783   2.896   1.922   7.931 -0.5169 -0.1127  0.1238
19114SOL    HW159784   2.927   1.939   8.019  2.1854 -1.8165 -0.3851
19114SOL    HW259785   2.934   1.993   7.878  1.7292 -1.5352 -0.3017
19115SOL     OW59786   5.252   1.887   6.920  0.4525 -0.0123 -0.8571
19115SOL    HW159787   5.206   1.959   6.962 -1.6844 -1.5961 -0.3171
19115SOL    HW259788   5.308   1.929   6.855 -0.0978  2.1595 -0.0192
19116SOL     OW59789   5.806   7.580   4.346 -0.0534 -0.4054  0.0123
19116SOL    HW159790   5.877   7.637   4.317  0.5782 -0.2053  1.8194
19116SOL    HW259791   5.732   7.639   4.362 -0.4514 -0.5363 -1.2794
19117SOL     OW59792   4.178   3.256   1.754  0.5371 -0.2951 -0.1452
19117SOL    HW159793   4.120   3.182   1.736 -0.5031  0.4654  0.0095
19117SOL    HW259794   4.119   3.330   1.767  1.4358  0.1064  2.0000
19118SOL     OW59795   7.374   6.554   7.557  1.0284  0.7030 -0.6055
19118SOL    HW159796   7.469   6.564   7.558  1.0148  0.7897 -0.2345
19118SOL    HW259797   7.353   6.542   7.464  1.2976  1.6816 -0.8136
19119SOL     OW59798   5.300   9.229   9.674 -0.2343  0.2887  0.5472
19119SOL    HW159799   5.296   9.307   9.618  0.4253 -0.2642 -0.3078
19119SOL    HW259800   5.244   9.166   9.629 -3.8811  1.3418  3.1409
19120SOL     OW59801   4.156   0.889   2.712  0.4612 -0.3688  0.0464
19120SOL    HW159802   4.153   0.978   2.678 -2.4467 -0.7453 -0.9874
19120SOL    HW259803   4.154   0.899   2.807  0.3642  0.6696 -0.0565
19121SOL     OW59804   1.290   1.646   0.940 -0.1565  0.0173  0.1764
19121SOL    HW159805   1.378   1.643   0.900 -1.1882  0.8515 -2.3838
19121SOL    HW259806   1.278   1.738   0.962 -1.0092  0.2431 -1.1232
19122SOL     OW59807   5.429   8.425   9.940  0.1999 -0.6208 -0.0240
19122SOL    HW159808   5.490   8.382   9.879 -0.4528 -0.1871 -1.0149
19122SOL    HW259809   5.375   8.354   9.974 -0.9467 -0.6169 -1.7341
19123SOL     OW59810   7.325   9.831   5.008  0.5116 -0.0936 -0.5486
19123SOL    HW159811   7.233   9.840   5.032 -0.3229 -2.7140 -2.3507
19123SOL    HW259812   7.342   9.903   4.948 -0.7879 -0.3535 -1.2537
19124SOL     OW59813   9.365   3.988   7.746  0.5370  0.7485  0.6400
19124SOL    HW159814   9.391   3.945   7.827 -0.7213  0.1065  0.7197
19124SOL    HW259815   9.439   4.045   7.725  1.4304 -0.0422  1.5357
19125SOL     OW59816   5.110   1.751   3.809 -0.2870  0.0060 -0.7469
19125SOL    HW159817   5.147   1.833   3.775 -0.4105 -0.1689 -1.3101
19125SOL    HW259818   5.170   1.683   3.779  0.3342 -0.0277  0.5192
19126SOL     OW59819   4.273   7.001   7.827 -0.2083 -0.1801  0.0640
19126SOL    HW159820   4.324   6.986   7.906 -0.4403  1.4734  0.5782
19126SOL    HW259821   4.291   6.926   7.771  2.7244  0.2710  0.2708
19127SOL     OW59822   8.787   1.570   0.071 -0.4146 -0.0540 -0.3269
19127SOL    HW159823   8.824   1.634   0.132 -1.0705 -0.3528  0.4116
19127SOL    HW259824   8.791   1.612  -0.014 -0.9224  1.0108  0.1628
19128SOL     OW59825  10.388   2.353  10.128  0.4839 -0.7148 -0.5153
19128SOL    HW159826  10.310   2.307  10.096 -0.5328 -0.2654  1.1653
19128SOL    HW259827  10.357   2.401  10.205  2.0345  0.9231 -0.8460
19129SOL     OW59828   5.036   7.049   6.856 -0.0947 -0.7747  0.0692
19129SOL    HW159829   5.022   6.960   6.826  0.5513 -0.6275 -0.7102
19129SOL    HW259830   4.951   7.091   6.848 -0.6565 -1.5926  1.4572
19130SOL     OW59831   7.076   9.270   4.049 -0.1148  0.1938  0.2594
19130SOL    HW159832   6.994   9.221   4.060  0.4278 -0.3828  2.0721
19130SOL    HW259833   7.135   9.232   4.114  1.8909  0.0180 -1.5530
19131SOL     OW59834   3.652   5.689   2.286  0.1420 -0.0993  0.1029
19131SOL    HW159835   3.746   5.704   2.298  0.0615  0.2500  0.3206
19131SOL    HW259836   3.638   5.693   2.192  0.4806 -0.9841  0.0047
19132SOL     OW59837   2.492   3.218   5.721  0.6581 -0.1351 -0.0910
19132SOL    HW159838   2.440   3.298   5.729  0.4385 -0.2279 -0.5004
19132SOL    HW259839   2.495   3.181   5.809  0.3713  0.0878  0.0112
19133SOL     OW59840   5.904   2.971   6.693 -0.2440 -0.5598  0.1243
19133SOL    HW159841   5.953   2.904   6.646  1.5987  1.3558 -0.8473
19133SOL    HW259842   5.959   2.992   6.769 -0.4355  0.3317  0.0298
19134SOL     OW59843   9.881   8.905   3.952  0.1231 -0.1707  0.6368
19134SOL    HW159844   9.867   8.812   3.970  1.7262 -0.7131 -0.6524
19134SOL    HW259845   9.824   8.950   4.014 -1.5342 -2.0119  0.5549
19135SOL     OW59846   8.185   4.411  10.357  0.4418 -0.1750 -0.5699
19135SOL    HW159847   8.191   4.315  10.361 -0.9878 -0.2480  1.3685
19135SOL    HW259848   8.148   4.436  10.442 -2.0776  1.8491 -2.1356
19136SOL     OW59849   7.921   3.060   5.809  0.0656 -0.1819  0.2184
19136SOL    HW159850   7.888   3.148   5.827  0.7663 -0.3539  2.7451
19136SOL    HW259851   7.862   3.025   5.743  0.5336  2.5973 -1.8855
19137SOL     OW59852   6.135   8.418   9.486 -0.0616 -0.6139  0.5083
19137SOL    HW159853   6.080   8.492   9.462  0.9397 -0.2107 -0.7040
19137SOL    HW259854   6.205   8.456   9.539  0.2737 -0.7401  0.1589
19138SOL     OW59855   5.564  10.393   7.641  0.0922  0.0362  0.1202
19138SOL    HW159856   5.502  10.326   7.668 -1.6889  1.8098  0.6757
19138SOL    HW259857   5.533  10.420   7.554 -0.0331  1.0308  0.4606
19139SOL     OW59858   3.571   1.840   6.039 -0.3965 -0.1353 -0.2874
19139SOL    HW159859   3.641   1.870   5.982  0.5020 -0.6226  0.5232
19139SOL    HW259860   3.560   1.910   6.104  0.0282 -0.4752  0.1627
19140SOL     OW59861   9.616  10.349   6.719 -0.2709 -0.1610  0.2791
19140SOL    HW159862   9.630  10.267   6.767  0.2399  0.8174  1.8724
19140SOL    HW259863   9.546  10.328   6.656 -0.3677 -1.7235  0.8589
19141SOL     OW59864   6.501   5.111   5.491  0.4842  0.0145  0.0469
19141SOL    HW159865   6.535   5.186   5.443  2.2293 -0.3696  0.5887
19141SOL    HW259866   6.557   5.105   5.569  0.2814 -1.7141  0.1010
19142SOL     OW59867   7.226   0.330   1.868  0.0396  0.4874 -0.9526
19142SOL    HW159868   7.270   0.385   1.933  0.6312 -1.1115  0.0545
19142SOL    HW259869   7.136   0.360   1.868 -0.2472 -0.1921  1.4579
19143SOL     OW59870   1.603   2.640   3.009  0.1129 -0.3305 -0.2235
19143SOL    HW159871   1.644   2.679   3.086 -0.0301  0.7405 -0.6729
19143SOL    HW259872   1.677   2.611   2.955  0.2059 -1.4385  0.4831
19144SOL     OW59873   6.359   5.624  10.228  0.1278  0.1018  0.6531
19144SOL    HW159874   6.275   5.656  10.261 -1.3267 -1.1111 -1.5827
19144SOL    HW259875   6.386   5.690  10.164  0.7418  0.3303  1.1388
19145SOL     OW59876   4.031   9.937   5.515  0.5247  0.3068  0.0275
19145SOL    HW159877   4.056  10.010   5.572  1.3613 -0.6931  0.9920
19145SOL    HW259878   3.978   9.880   5.570 -0.9715  0.6414 -1.0011
19146SOL     OW59879   1.416   8.512   2.137  0.7746  0.3261  0.1749
19146SOL    HW159880   1.436   8.542   2.048 -1.2287  1.9688  0.2240
19146SOL    HW259881   1.358   8.437   2.125 -1.6733  2.1361  0.0056
19147SOL     OW59882   4.744   1.489  10.008 -0.6889  0.1663  0.1776
19147SOL    HW159883   4.762   1.487   9.914 -0.2483 -1.6592  0.2529
19147SOL    HW259884   4.651   1.512  10.015 -1.2849 -1.7204 -0.8561
19148SOL     OW59885  10.375   9.692   8.104  0.2092 -0.0125 -0.5370
19148SOL    HW159886  10.439   9.760   8.122  0.2891 -0.2735  0.2063
19148SOL    HW259887  10.297   9.718   8.153  0.0999 -0.2405 -0.5845
19149SOL     OW59888   4.732  10.182   3.218 -0.3343 -0.5863  0.4157
19149SOL    HW159889   4.810  10.226   3.251 -0.6176 -0.2394  0.6224
19149SOL    HW259890   4.761  10.092   3.202  0.1987 -0.3717  0.1528
19150SOL     OW59891   5.060   4.642   0.893  0.2448  0.3618 -0.0749
19150SOL    HW159892   5.058   4.725   0.845  1.4324  1.4214  1.5794
19150SOL    HW259893   5.066   4.669   0.985 -0.8423 -1.5792  0.5986
19151SOL     OW59894   5.063   9.866   3.454  0.0802  0.3558  0.1243
19151SOL    HW159895   5.139   9.825   3.497  0.6241  1.1985 -0.0045
19151SOL    HW259896   4.993   9.802   3.462  0.4126  0.1289  1.5092
19152SOL     OW59897   3.090   6.718   3.284 -0.3739  0.1737  0.3681
19152SOL    HW159898   3.154   6.709   3.355 -0.2191  1.8464  0.4861
19152SOL    HW259899   3.011   6.677   3.319  0.5657 -1.8627  0.2465
19153SOL     OW59900   3.266   0.858   4.236 -0.3467  0.6132 -0.2788
19153SOL    HW159901   3.211   0.780   4.245  0.1485  0.2748 -0.1121
19153SOL    HW259902   3.352   0.830   4.268  0.0412  1.0020 -0.9733
19154SOL     OW59903   1.262   8.992   7.972  0.1048 -0.4190 -0.3376
19154SOL    HW159904   1.310   9.021   8.050  1.0452  1.5341 -1.5496
19154SOL    HW259905   1.171   9.013   7.990  0.3850  0.4933  0.0577
19155SOL     OW59906   0.919   6.271   2.110  0.3219  0.2286  0.2108
19155SOL    HW159907   0.954   6.337   2.050  0.9629  1.5254  1.9316
19155SOL    HW259908   0.833   6.249   2.074  0.6173  1.0926 -1.0809
19156SOL     OW59909   8.766   4.675   3.313  0.1450 -0.1017 -0.3139
19156SOL    HW159910   8.787   4.728   3.236  1.9134 -0.3918 -0.0606
19156SOL    HW259911   8.750   4.739   3.382  2.2335  0.1673 -0.0206
19157SOL     OW59912   7.924   8.225   9.699  0.6024 -0.2164 -0.2525
19157SOL    HW159913   7.934   8.130   9.689 -0.3010 -0.5537  1.6197
19157SOL    HW259914   8.013   8.257   9.715  1.1242 -0.4986 -2.2147
19158SOL     OW59915  10.105   6.577   4.513  0.3358  0.3203 -0.1195
19158SOL    HW159916  10.058   6.496   4.494 -1.3814  1.4225 -0.8398
19158SOL    HW259917  10.094   6.590   4.607 -1.1416  0.7303 -0.3299
19159SOL     OW59918   5.618   7.079  10.433 -0.5315  0.4666 -1.3991
19159SOL    HW159919   5.648   7.166  10.459  1.1256 -0.0517 -1.4686
19159SOL    HW259920   5.563   7.050  10.505  0.0430  1.0100 -0.7303
19160SOL     OW59921   6.993   5.864   3.760  0.1315  0.1025  0.4018
19160SOL    HW159922   7.006   5.944   3.709 -0.5975  0.2215  0.4041
19160SOL    HW259923   7.008   5.891   3.850 -3.7640  1.1571  0.8785
19161SOL     OW59924   3.690   1.725   3.815  0.1996 -0.3837  0.4770
19161SOL    HW159925   3.639   1.762   3.743  0.9537 -2.1423 -1.0087
19161SOL    HW259926   3.776   1.766   3.807  0.3534 -0.7550  0.2373
19162SOL     OW59927   8.263   1.361   4.430  0.3852 -0.6130  0.2250
19162SOL    HW159928   8.278   1.456   4.430 -0.7697 -0.4104  0.6101
19162SOL    HW259929   8.343   1.324   4.394  2.1475  0.2926  2.8931
19163SOL     OW59930   0.857   7.201   6.684 -0.6775 -0.4048 -0.1579
19163SOL    HW159931   0.917   7.266   6.649  0.5019 -0.5836  1.4214
19163SOL    HW259932   0.872   7.122   6.632  0.9018 -0.6149  0.5605
19164SOL     OW59933   0.619   1.783   6.818  0.1909  0.0674 -0.7378
19164SOL    HW159934   0.703   1.739   6.809 -1.1587 -2.3654 -2.3375
19164SOL    HW259935   0.615   1.808   6.910  2.9310  0.9397 -0.7653
19165SOL     OW59936   9.514   9.697   4.423  0.2519  0.0964  0.1749
19165SOL    HW159937   9.544   9.693   4.332 -1.5345  0.1780 -0.4569
19165SOL    HW259938   9.510   9.606   4.452 -0.6351 -0.0431 -0.3546
19166SOL     OW59939   4.330   7.436   7.275 -0.2719  0.1755 -0.0636
19166SOL    HW159940   4.262   7.370   7.289 -0.5668  0.2630 -1.0104
19166SOL    HW259941   4.398   7.389   7.226 -0.5748  0.6088 -0.9248
19167SOL     OW59942   2.346   7.416   0.975  0.8517 -0.6457 -0.2234
19167SOL    HW159943   2.385   7.357   1.039  3.2571  0.1052 -0.8979
19167SOL    HW259944   2.419   7.444   0.920 -0.6709  0.8365 -1.6254
19168SOL     OW59945   3.190   2.338   1.742 -0.4352 -0.7811 -1.1660
19168SOL    HW159946   3.171   2.350   1.835 -0.8892  0.2384 -1.3778
19168SOL    HW259947   3.231   2.420   1.715  0.1435 -1.2545 -1.7609
19169SOL     OW59948   0.263   8.347   7.313  0.1511  0.1209 -0.4654
19169SOL    HW159949   0.240   8.256   7.298 -0.5887 -0.2841  2.5049
19169SOL    HW259950   0.203   8.396   7.257 -0.6276 -1.1795 -0.8180
19170SOL     OW59951   0.512  10.034   1.171  0.0299 -0.1107 -0.3428
19170SOL    HW159952   0.472  10.107   1.124  0.5797  2.2357  2.5280
19170SOL    HW259953   0.593  10.070   1.207  0.1556 -2.0314  1.4767
19171SOL     OW59954   2.836   5.856   8.897 -0.4527 -0.3984 -0.2033
19171SOL    HW159955   2.916   5.816   8.864 -1.0718 -0.7616 -1.2963
19171SOL    HW259956   2.865   5.940   8.932  0.7181 -1.3622  1.2844
19172SOL     OW59957   5.025   7.086  10.354 -0.1308 -0.3650 -0.0008
19172SOL    HW159958   5.088   7.019  10.380  0.1047  0.2329  1.0693
19172SOL    HW259959   4.945   7.063  10.402 -0.5122 -0.7109 -0.7896
19173SOL     OW59960   0.718   2.010   7.308 -0.0971 -0.4007  0.1853
19173SOL    HW159961   0.748   2.100   7.294 -0.9718 -0.2963 -1.2229
19173SOL    HW259962   0.751   1.987   7.395  1.1823  0.8438  0.0704
19174SOL     OW59963   3.557   8.282   6.647 -0.1681 -0.3787  0.4974
19174SOL    HW159964   3.652   8.293   6.655 -0.1543 -0.0695 -0.0046
19174SOL    HW259965   3.545   8.244   6.560 -0.4968 -0.5422  0.6139
19175SOL     OW59966   2.074   2.717   5.060  0.5899 -0.1197  0.5692
19175SOL    HW159967   2.039   2.632   5.036 -2.7836  0.5409  2.5181
19175SOL    HW259968   2.101   2.757   4.977  0.1867 -2.1912 -0.6177
19176SOL     OW59969   3.317   4.879   1.517  0.1113 -0.2783 -0.2031
19176SOL    HW159970   3.312   4.808   1.453 -1.2317 -0.7484  0.3752
19176SOL    HW259971   3.243   4.864   1.576  1.7675 -0.3591  1.9939
19177SOL     OW59972  10.219   3.109   6.901 -0.2321 -0.5796 -0.2268
19177SOL    HW159973  10.291   3.059   6.939  0.6024  0.5299 -0.2909
19177SOL    HW259974  10.257   3.153   6.825 -0.9405  0.1169 -0.1985
19178SOL     OW59975   1.115   0.042   8.980 -0.4990  0.1615 -0.2972
19178SOL    HW159976   1.163   0.085   9.051 -0.5085 -0.0060 -0.1888
19178SOL    HW259977   1.178   0.036   8.908 -0.3968  0.0552 -0.1977
19179SOL     OW59978   2.595   6.544   9.891  0.1804 -0.4116 -0.2319
19179SOL    HW159979   2.664   6.579   9.834 -0.2857  0.5837 -0.1985
19179SOL    HW259980   2.611   6.585   9.975  0.0540 -0.8466  0.0072
19180SOL     OW59981   2.906   3.967   7.549 -0.5823  0.0754 -0.2336
19180SOL    HW159982   2.889   3.974   7.643 -2.2692  0.7817 -0.5453
19180SOL    HW259983   2.832   4.012   7.508  0.1914 -0.0933 -1.9034
19181SOL     OW59984   5.758   0.154   7.196  0.2592  0.0519 -0.3183
19181SOL    HW159985   5.788   0.238   7.229 -0.9269  0.7740 -1.0059
19181SOL    HW259986   5.813   0.137   7.119  0.8409 -0.0633  0.1152
19182SOL     OW59987   6.946   3.044   0.716  0.4458 -0.0100 -0.1572
19182SOL    HW159988   7.021   3.016   0.663  1.3481  1.2660  0.3885
19182SOL    HW259989   6.986   3.093   0.788 -0.8507 -0.4464  0.8775
19183SOL     OW59990   9.842   2.167   1.048  0.4215  0.3845 -0.5910
19183SOL    HW159991   9.866   2.206   1.132 -0.6450  0.5273 -0.3432
19183SOL    HW259992   9.868   2.232   0.983 -0.8453  1.2828 -0.2158
19184SOL     OW59993   7.961   3.399   8.797 -0.4220 -0.7690  0.5661
19184SOL    HW159994   7.936   3.391   8.705 -0.3410  0.7381  0.3944
19184SOL    HW259995   7.992   3.311   8.821  0.5059 -0.9488 -1.1301
19185SOL     OW59996   1.695   3.395   0.163  0.2070  0.0713 -0.0763
19185SOL    HW159997   1.618   3.450   0.153  0.7729  1.2467  1.6249
19185SOL    HW259998   1.763   3.439   0.111  0.2260  0.0591 -0.0618
19186SOL     OW59999   7.167   4.670   0.799  0.3229 -0.0420  0.2799
19186SOL    HW160000   7.255   4.705   0.814  0.0529  0.6262  0.3572
19186SOL    HW260001   7.141   4.634   0.883  0.7897 -0.8778  0.0801
19187SOL     OW60002   6.464   2.238  10.377  0.0592  0.1624  0.0765
19187SOL    HW160003   6.448   2.317  10.429 -1.3734 -0.0874  0.0385
19187SOL    HW260004   6.535   2.193  10.423  0.6481  1.2825  0.2998
19188SOL     OW60005   0.735   3.402   4.914 -0.2465 -0.1319 -0.1986
19188SOL    HW160006   0.792   3.420   4.840 -1.1342 -0.4977 -1.0005
19188SOL    HW260007   0.712   3.310   4.905 -0.1691 -0.2466  0.6828
19189SOL     OW60008   3.425   8.869   1.357  0.2465 -0.0786 -0.2197
19189SOL    HW160009   3.506   8.846   1.402 -0.9723  0.6198  2.5100
19189SOL    HW260010   3.384   8.784   1.336  1.6875 -0.4446 -1.8329
19190SOL     OW60011   8.174   2.184   6.522  0.0844  0.4534 -0.2118
19190SOL    HW160012   8.185   2.091   6.502 -0.7110  0.4411 -0.6400
19190SOL    HW260013   8.261   2.221   6.511  0.2691 -0.1119 -0.7539
19191SOL     OW60014   3.026   5.859   4.599  0.7860  0.4382  0.3800
19191SOL    HW160015   2.993   5.922   4.664  1.5754  1.0876  0.1761
19191SOL    HW260016   2.972   5.781   4.611  0.2465  0.9120  1.1203
19192SOL     OW60017   8.995   1.975   6.220 -0.1849 -0.3529 -0.0390
19192SOL    HW160018   9.036   1.919   6.286 -0.1067 -0.5432 -0.2461
19192SOL    HW260019   8.980   1.916   6.146  0.2245 -0.0193 -0.3921
19193SOL     OW60020   5.639   6.335   0.411 -0.0273  0.3056 -0.2431
19193SOL    HW160021   5.693   6.395   0.463 -0.4265  1.0965 -0.7107
19193SOL    HW260022   5.633   6.256   0.463 -0.1070  0.9512  0.7493
19194SOL     OW60023   8.311   9.334   4.653 -0.6148 -0.5156  0.7597
19194SOL    HW160024   8.263   9.252   4.645 -1.5709 -0.0562  1.5997
19194SOL    HW260025   8.340   9.336   4.744  0.3768 -0.4358  0.4547
19195SOL     OW60026   6.778   8.764   2.387 -0.0697  0.2952 -0.7399
19195SOL    HW160027   6.754   8.671   2.383 -0.5245  0.4122 -0.7267
19195SOL    HW260028   6.856   8.766   2.443 -0.9011  0.0868  0.4397
19196SOL     OW60029   4.935   5.104   6.026  0.1992  0.4769  0.3542
19196SOL    HW160030   4.925   5.043   6.099  0.7769  1.8570  1.6462
19196SOL    HW260031   4.871   5.173   6.044 -1.5198 -0.4207 -1.8745
19197SOL     OW60032   8.380   1.573   8.750 -0.6732  0.2185  0.5322
19197SOL    HW160033   8.465   1.570   8.795  0.6452  1.9766 -1.6725
19197SOL    HW260034   8.379   1.657   8.705 -3.2577 -0.1327 -0.2285
19198SOL     OW60035   6.738   1.867   3.419  0.3191  0.2634 -0.5965
19198SOL    HW160036   6.768   1.948   3.378 -1.0526  1.1357  0.0209
19198SOL    HW260037   6.663   1.840   3.366 -1.3444  1.2914  1.1082
19199SOL     OW60038  10.481   4.769   9.713  0.2110 -0.8306 -0.4561
19199SOL    HW160039  10.517   4.810   9.634  1.2121 -2.2186 -0.7565
19199SOL    HW260040  10.553   4.715   9.746  0.7368  1.5686  2.8464
19200SOL     OW60041   2.273   1.293   6.387 -0.0395  0.2779  0.1242
19200SOL    HW160042   2.320   1.351   6.327  1.1781  0.0809  0.8699
19200SOL    HW260043   2.224   1.353   6.444  1.0799  0.5802  0.7852
19201SOL     OW60044   9.169   1.316   5.316 -0.0933 -0.4367  0.3068
19201SOL    HW160045   9.233   1.252   5.284  0.3662  0.5913 -0.9346
19201SOL    HW260046   9.118   1.269   5.381  1.0770 -1.6797  0.3669
19202SOL     OW60047   6.813   8.450   6.575 -0.2481  0.0347 -0.7169
19202SOL    HW160048   6.817   8.487   6.663  0.0889 -1.1462 -0.2143
19202SOL    HW260049   6.728   8.406   6.571  0.1273 -0.7046 -0.6458
19203SOL     OW60050   1.294   0.745   7.383 -0.0152  0.0806  0.1889
19203SOL    HW160051   1.200   0.762   7.378  0.2821  2.1399  1.0173
19203SOL    HW260052   1.334   0.814   7.330  1.0688 -0.7156 -0.0785
19204SOL     OW60053   0.057   8.111   0.299 -0.2650  0.2377 -0.0759
19204SOL    HW160054   0.115   8.132   0.226 -0.7170  0.4387 -0.3797
19204SOL    HW260055   0.115   8.101   0.374  0.1467  0.6065 -0.3440
19205SOL     OW60056   7.898   1.931   8.446 -0.0844  0.0462  0.9578
19205SOL    HW160057   7.963   1.861   8.451 -0.1118  0.0653  1.8340
19205SOL    HW260058   7.816   1.889   8.474 -0.4727 -0.0011 -0.2222
19206SOL     OW60059   5.465   8.111   8.913  0.0621 -0.2562 -0.2065
19206SOL    HW160060   5.539   8.167   8.893 -0.5961  0.3126 -1.1421
19206SOL    HW260061   5.389   8.170   8.913 -0.2154 -0.4942  2.4758
19207SOL     OW60062   5.249   6.002   5.867  0.6387 -0.6245  0.3621
19207SOL    HW160063   5.335   5.961   5.879  0.3508 -2.0384 -1.8725
19207SOL    HW260064   5.193   5.932   5.835 -0.4973  0.9810 -1.3952
19208SOL     OW60065   4.519   5.042   4.367 -0.3510 -0.5892 -0.1556
19208SOL    HW160066   4.432   5.055   4.330  0.1599  0.0983 -1.1590
19208SOL    HW260067   4.519   5.094   4.447 -0.7537 -0.3182 -0.3283
19209SOL     OW60068   8.970   9.226   4.296 -0.1057  0.3284  0.0027
19209SOL    HW160069   8.964   9.135   4.327 -0.4187 -0.1960 -1.5151
19209SOL    HW260070   9.049   9.227   4.241  1.5346  1.7020  2.2031
19210SOL     OW60071   3.226   8.363   3.000  0.3070  0.3019  0.6611
19210SOL    HW160072   3.246   8.403   3.084  0.6657  1.2818  0.1164
19210SOL    HW260073   3.312   8.341   2.962  0.2413  1.4617 -0.2082
19211SOL     OW60074   2.516   2.673   9.093 -0.1037 -0.2093 -0.1497
19211SOL    HW160075   2.519   2.754   9.042 -1.0773 -0.8917 -1.3703
19211SOL    HW260076   2.586   2.682   9.157 -2.0662  2.8949  1.8025
19212SOL     OW60077   3.688   3.900   7.321  0.7471  0.1228 -0.8534
19212SOL    HW160078   3.751   3.863   7.259 -1.2652 -1.2395 -2.2021
19212SOL    HW260079   3.605   3.858   7.299 -0.7052  1.9750  0.7244
19213SOL     OW60080   4.999   6.641   2.396 -0.0208  0.2636 -0.2340
19213SOL    HW160081   5.069   6.642   2.331 -2.0020  0.6800 -2.4945
19213SOL    HW260082   4.975   6.549   2.405  0.3840  0.1853  0.1004
19214SOL     OW60083   0.713   8.502   2.340 -0.6432  0.3557 -0.2368
19214SOL    HW160084   0.731   8.594   2.320 -1.1404  0.6218  0.5208
19214SOL    HW260085   0.640   8.504   2.401 -0.9934 -0.5703 -0.6081
19215SOL     OW60086   8.446   9.508   8.018 -0.8321 -0.7153 -0.2351
19215SOL    HW160087   8.509   9.534   8.084 -2.2527 -0.2884  1.0176
19215SOL    HW260088   8.486   9.532   7.934  0.1574  0.6000  0.5903
19216SOL     OW60089   5.371   5.940   6.644  0.0829 -0.4608  0.1744
19216SOL    HW160090   5.372   5.846   6.626 -1.4356 -0.2014 -1.4988
19216SOL    HW260091   5.384   5.981   6.559  0.0856  0.8459  0.7881
19217SOL     OW60092   5.381   2.280   4.099  0.0808 -0.6940  0.0305
19217SOL    HW160093   5.470   2.246   4.110 -0.4672 -1.6206  1.9352
19217SOL    HW260094   5.324   2.212   4.135 -1.1802  1.2756  2.0168
19218SOL     OW60095  10.227   8.307   3.669 -0.6269 -0.1378  0.2457
19218SOL    HW160096  10.222   8.226   3.719  1.2985 -0.0938  0.5882
19218SOL    HW260097  10.315   8.342   3.687 -0.7412  1.0999 -1.2858
19219SOL     OW60098   3.956   4.677   1.074  0.1728 -0.2980 -0.3998
19219SOL    HW160099   3.988   4.709   0.990  1.6475 -0.5474  0.0292
19219SOL    HW260100   4.031   4.687   1.133 -1.1780  0.9922  1.1936
19220SOL     OW60101   0.750   8.974   5.405  0.6072  0.3135 -0.2250
19220SOL    HW160102   0.841   8.988   5.433 -0.1281  3.1336  1.1262
19220SOL    HW260103   0.718   8.904   5.462  1.6977 -0.1481 -0.1520
19221SOL     OW60104   0.058   3.808   6.906  0.1056  0.9084 -0.4481
19221SOL    HW160105   0.109   3.815   6.825 -2.4576  1.5580 -2.1176
19221SOL    HW260106   0.111   3.853   6.972  2.8308 -0.6403 -1.3998
19222SOL     OW60107   9.366   7.299  10.315  0.0807 -0.2050  0.1276
19222SOL    HW160108   9.368   7.270  10.406 -2.7109 -0.7281  0.1123
19222SOL    HW260109   9.376   7.219  10.264 -0.9452 -0.2746  0.0217
19223SOL     OW60110   9.236   8.064   9.637 -0.1159  0.4109  0.2027
19223SOL    HW160111   9.221   7.972   9.613 -0.4521  1.0638 -2.2759
19223SOL    HW260112   9.148   8.102   9.638  0.0531  0.7981  0.9194
19224SOL     OW60113   4.274   8.746   7.540 -0.2237 -0.0161 -0.1529
19224SOL    HW160114   4.228   8.695   7.473 -0.7263  1.4337 -0.9594
19224SOL    HW260115   4.210   8.758   7.610 -0.3902  0.2266 -0.3450
19225SOL     OW60116   7.966   8.040   7.728 -0.0987  0.6306 -0.7054
19225SOL    HW160117   7.963   8.064   7.821 -0.1118  0.8663 -0.7659
19225SOL    HW260118   7.881   8.067   7.694  0.1647  1.1856 -0.9397
19226SOL     OW60119   6.982   9.111   3.283 -0.4544  0.1582  0.3806
19226SOL    HW160120   7.001   9.028   3.240  0.0148  0.7798 -0.6672
19226SOL    HW260121   6.887   9.110   3.296 -0.8241  0.4117 -1.7878
19227SOL     OW60122   8.063   0.705   9.095 -0.3962 -0.0304 -0.1413
19227SOL    HW160123   8.036   0.654   9.018  0.3594 -0.7180  0.0318
19227SOL    HW260124   8.144   0.663   9.123  1.0028  2.1164 -0.7842
19228SOL     OW60125   6.776   8.215   2.931  0.1891 -0.2221  0.0179
19228SOL    HW160126   6.747   8.129   2.965  0.9836 -0.7137 -0.5293
19228SOL    HW260127   6.784   8.269   3.009  0.4120 -0.8684  0.4534
19229SOL     OW60128  10.183   5.803   3.613  0.0263  0.1314  0.3447
19229SOL    HW160129  10.202   5.888   3.652  0.4791 -0.6219  1.8501
19229SOL    HW260130  10.122   5.762   3.674 -0.1266 -0.6559 -0.3232
19230SOL     OW60131   7.492   8.278   7.888 -0.6637  0.1858 -0.0273
19230SOL    HW160132   7.538   8.320   7.816 -0.4302  0.1620  0.1063
19230SOL    HW260133   7.409   8.249   7.850 -0.3446 -0.2450 -0.4042
19231SOL     OW60134   4.078   3.665   0.704 -0.3403  0.2551  0.2482
19231SOL    HW160135   4.101   3.713   0.624 -1.2610  0.3175  0.0041
19231SOL    HW260136   4.045   3.733   0.763 -0.2306  0.1266  0.4549
19232SOL     OW60137   1.076   4.662   9.736 -0.1189  0.4320  0.4779
19232SOL    HW160138   1.053   4.571   9.718 -0.7359  0.5217  0.7564
19232SOL    HW260139   1.072   4.669   9.832 -1.9635  1.1957  0.3946
19233SOL     OW60140   0.191   9.265  10.488  0.0815  0.4087 -0.1763
19233SOL    HW160141   0.194   9.180  10.443  0.0534  1.0895 -1.4890
19233SOL    HW260142   0.136   9.249  10.565  1.5583 -1.2253  0.6226
19234SOL     OW60143   7.650  10.385   4.304 -0.3032  0.1812  0.1404
19234SOL    HW160144   7.664  10.302   4.258  2.4385  0.8274 -0.4089
19234SOL    HW260145   7.642  10.450   4.234 -0.4665  0.6186  0.5608
19235SOL     OW60146   5.381   8.209   9.259 -0.0245 -0.0871  0.6851
19235SOL    HW160147   5.465   8.250   9.279  0.3899 -0.4366 -0.2688
19235SOL    HW260148   5.369   8.223   9.165 -0.6427 -0.7657  0.6542
19236SOL     OW60149   2.731   4.811   1.438 -0.0377  0.6647  0.3549
19236SOL    HW160150   2.652   4.839   1.484 -2.6576 -2.9146 -1.4284
19236SOL    HW260151   2.773   4.750   1.498 -0.4580  0.1292  0.1171
19237SOL     OW60152   8.918   7.784   3.949 -0.1626 -0.5298  0.5578
19237SOL    HW160153   8.880   7.817   3.868 -2.4208  0.6922  2.0209
19237SOL    HW260154   8.965   7.704   3.923 -1.8415 -0.8525 -1.7555
19238SOL     OW60155   9.966   2.100   6.053  0.3367 -0.2086 -0.0498
19238SOL    HW160156   9.972   2.035   6.123 -0.9079  1.2646  1.5130
19238SOL    HW260157   9.876   2.131   6.056  1.3016  2.9413  0.6131
19239SOL     OW60158   0.701   9.303   6.849  0.1062 -0.2752 -0.2172
19239SOL    HW160159   0.645   9.251   6.792  2.1063  0.9044 -3.5715
19239SOL    HW260160   0.642   9.368   6.888 -1.4031 -1.3160 -0.6846
19240SOL     OW60161   1.348   7.609   0.189 -0.2658 -0.0599  0.0272
19240SOL    HW160162   1.386   7.694   0.164  1.5919 -0.5415  1.0129
19240SOL    HW260163   1.288   7.629   0.260  0.4487  0.4023  0.5136
19241SOL     OW60164   6.617   5.195   0.949  0.0134 -0.6245 -0.0095
19241SOL    HW160165   6.669   5.253   1.004 -1.1446  0.3944  0.0407
19241SOL    HW260166   6.601   5.118   1.004  0.6370 -0.5179  0.3196
19242SOL     OW60167   6.284   2.643   6.681 -0.1999 -0.4103 -0.0514
19242SOL    HW160168   6.302   2.617   6.591  0.4496  0.3931 -0.1672
19242SOL    HW260169   6.331   2.726   6.692 -0.8590 -0.1382  0.8082
19243SOL     OW60170   1.046   0.573   0.085 -0.5686  0.2700  0.3184
19243SOL    HW160171   1.060   0.483   0.059  1.2466  0.5836  0.1112
19243SOL    HW260172   1.106   0.624   0.030 -0.7742  1.4859  1.1820
19244SOL     OW60173   4.286   0.163   3.574 -0.3212  0.3444  0.5850
19244SOL    HW160174   4.351   0.097   3.549 -0.3129 -0.4350  2.4775
19244SOL    HW260175   4.244   0.188   3.491 -0.8971 -2.6469 -0.1790
19245SOL     OW60176   3.870   6.347   1.580 -0.1493 -0.0631  0.1073
19245SOL    HW160177   3.914   6.365   1.663  1.1811 -0.3439 -0.4954
19245SOL    HW260178   3.907   6.264   1.550 -0.4647  0.1188 -0.8441
19246SOL     OW60179   9.611   0.226   8.409 -0.1538 -0.1752  0.3925
19246SOL    HW160180   9.550   0.283   8.363 -0.0556 -0.7766 -0.5230
19246SOL    HW260181   9.625   0.268   8.494 -0.3114  0.9889 -0.1424
19247SOL     OW60182   4.651   0.745   8.397 -0.0142 -0.1278 -0.1266
19247SOL    HW160183   4.720   0.800   8.433 -0.4328  0.4139 -0.1423
19247SOL    HW260184   4.571   0.773   8.443 -0.3127 -0.3979 -0.4715
19248SOL     OW60185   4.522   7.589   5.805  0.0572  0.0187 -0.1819
19248SOL    HW160186   4.457   7.565   5.739 -0.7106 -1.0934  0.9263
19248SOL    HW260187   4.578   7.654   5.762 -0.8608 -0.1330 -1.6612
19249SOL     OW60188   4.154   3.893   4.445  0.1863  0.4735  0.6743
19249SOL    HW160189   4.238   3.929   4.417  0.3381 -0.8510 -0.6468
19249SOL    HW260190   4.099   3.970   4.459  0.8985  1.2782 -0.7733
19250SOL     OW60191   0.925   1.527   3.932 -0.9842  0.4204 -0.2492
19250SOL    HW160192   0.830   1.512   3.932 -0.8517 -0.5684 -1.4555
19250SOL    HW260193   0.963   1.439   3.931 -0.0515  0.8108  0.1772
19251SOL     OW60194   8.807   8.650   4.197 -0.2164 -0.5782  0.2483
19251SOL    HW160195   8.803   8.719   4.131  0.6555  0.2072  0.9813
19251SOL    HW260196   8.899   8.621   4.195 -0.5692 -1.7327 -0.0481
19252SOL     OW60197   6.023   9.762   5.909 -0.2946  0.0524  0.0538
19252SOL    HW160198   6.001   9.853   5.888  0.8630  0.3389  0.0374
19252SOL    HW260199   6.112   9.751   5.877 -0.7005 -1.3391 -0.6672
19253SOL     OW60200   9.709  10.323   6.328  0.7169 -0.4364 -0.1424
19253SOL    HW160201   9.763  10.306   6.251  0.3996 -0.4953 -0.3551
19253SOL    HW260202   9.755  10.280   6.400  1.3018  0.0844 -0.1943
19254SOL     OW60203  10.134   9.195   1.313  0.1476  0.2183  0.0450
19254SOL    HW160204  10.200   9.177   1.380 -0.5333  0.8041  0.8829
19254SOL    HW260205  10.096   9.279   1.338  0.4257  0.8589 -1.5147
19255SOL     OW60206   1.689   9.233   0.437  0.0231 -0.5119  0.3153
19255SOL    HW160207   1.610   9.190   0.469 -0.0466 -0.1849  0.5923
19255SOL    HW260208   1.683   9.322   0.472 -1.2392  0.6214 -2.4819
19256SOL     OW60209   7.827   1.906   9.063 -0.3749  0.2245 -0.4032
19256SOL    HW160210   7.840   1.811   9.072 -0.8563  0.0849 -1.0732
19256SOL    HW260211   7.747   1.914   9.010 -0.1398  1.0019 -0.6510
19257SOL     OW60212   7.684   4.710   4.968  0.0409 -0.4433  1.1406
19257SOL    HW160213   7.677   4.648   4.896 -0.5743  0.7759  0.0992
19257SOL    HW260214   7.679   4.796   4.926 -0.4384  0.3074  2.6574
19258SOL     OW60215   5.976   0.023   5.880  0.7265 -0.5791  0.0457
19258SOL    HW160216   5.988   0.054   5.790  3.3018 -0.0549  0.4837
19258SOL    HW260217   5.956   0.102   5.930 -3.0610 -1.1542 -0.3062
19259SOL     OW60218   5.243   8.804   3.610 -1.0157 -0.2122 -0.2945
19259SOL    HW160219   5.295   8.866   3.557  2.0306  0.1549  2.7585
19259SOL    HW260220   5.272   8.718   3.580  0.6311 -0.0070  0.5475
19260SOL     OW60221   0.381   1.134   3.377  0.4227  0.0564 -0.7419
19260SOL    HW160222   0.446   1.164   3.313 -0.8889  0.0594 -2.1432
19260SOL    HW260223   0.411   1.169   3.461  1.1275  1.8001 -1.6756
19261SOL     OW60224   0.477   2.969   2.919 -0.3205  0.1080 -0.2571
19261SOL    HW160225   0.392   2.995   2.956 -0.1102 -0.2636  0.5012
19261SOL    HW260226   0.462   2.883   2.882 -0.4486  0.3409 -0.7494
19262SOL     OW60227   7.454   5.853   8.403  0.0712  0.0363 -0.3346
19262SOL    HW160228   7.374   5.871   8.355 -0.4713  0.0236  0.5462
19262SOL    HW260229   7.491   5.939   8.421  0.5715  0.0247 -1.2399
19263SOL     OW60230   5.241   4.357   3.805 -0.0707  0.2001  0.4558
19263SOL    HW160231   5.168   4.349   3.744  0.7028 -2.0719 -0.2546
19263SOL    HW260232   5.243   4.450   3.827 -1.3666  0.8190 -1.7374
19264SOL     OW60233   8.041   2.821   4.076  0.2789 -0.2253 -0.2808
19264SOL    HW160234   8.099   2.792   4.146 -0.6166 -1.1294  0.1056
19264SOL    HW260235   8.047   2.752   4.010 -1.3710 -1.0415  0.3619
19265SOL     OW60236   7.034   0.335   6.319 -0.1747 -0.2874  0.2496
19265SOL    HW160237   7.100   0.395   6.354  0.3464 -0.8577  0.2566
19265SOL    HW260238   6.984   0.307   6.396 -0.5743  0.3241  0.2128
19266SOL     OW60239   7.367   8.796   8.778 -0.0667 -1.1106  0.2111
19266SOL    HW160240   7.347   8.842   8.860  1.5494 -0.1464  0.1170
19266SOL    HW260241   7.308   8.836   8.714  0.5082  0.0642  0.3805
19267SOL     OW60242   3.399   7.920   7.415 -0.1322  0.2629 -0.1031
19267SOL    HW160243   3.469   7.883   7.469 -1.0454  0.0354  0.9676
19267SOL    HW260244   3.366   7.845   7.364 -0.1710  0.1808  0.0412
19268SOL     OW60245   7.455   8.186   1.594 -1.2216  0.6680 -0.1960
19268SOL    HW160246   7.523   8.119   1.597 -1.7006  0.2091  1.3455
19268SOL    HW260247   7.470   8.232   1.512  0.7292  0.3532 -0.0590
19269SOL     OW60248   8.559   2.596   4.020 -0.2131  0.3550 -0.6613
19269SOL    HW160249   8.538   2.688   4.036 -1.2016  0.0575 -0.1988
19269SOL    HW260250   8.639   2.599   3.968  0.7935  1.4350  0.8691
19270SOL     OW60251   3.323   3.487   6.085 -0.4335 -0.1290  0.4582
19270SOL    HW160252   3.344   3.505   6.176 -0.3200  1.5973  0.1332
19270SOL    HW260253   3.338   3.393   6.074  3.7755  0.2497  1.1846
19271SOL     OW60254   4.587   9.375   3.429  0.2474 -0.9521 -0.0092
19271SOL    HW160255   4.679   9.349   3.427  0.3257 -0.7530  0.6608
19271SOL    HW260256   4.552   9.332   3.507 -0.1408 -0.7491 -0.0701
19272SOL     OW60257   4.822   0.512   1.161 -0.1921  0.1745  0.0605
19272SOL    HW160258   4.904   0.525   1.113 -0.6762 -1.2858 -1.2530
19272SOL    HW260259   4.813   0.417   1.168 -1.0057  0.3376  1.5842
19273SOL     OW60260   5.272   0.043   7.660  0.8753 -0.0419 -0.1664
19273SOL    HW160261   5.280   0.137   7.677  0.3582 -0.3506  2.0100
19273SOL    HW260262   5.263   0.038   7.565  2.4816  1.9702 -0.5009
19274SOL     OW60263   8.704   6.967   1.279  0.2878 -0.0575 -0.1740
19274SOL    HW160264   8.695   7.021   1.201 -1.2610  1.0011  0.6874
19274SOL    HW260265   8.644   7.006   1.343  0.7934 -1.4618  1.2350
19275SOL     OW60266   3.448   6.426   1.005  0.3479  0.5059 -0.0350
19275SOL    HW160267   3.370   6.372   1.020 -0.7987  0.9704 -3.4364
19275SOL    HW260268   3.520   6.363   0.999 -0.4734 -0.3856 -0.9070
19276SOL     OW60269   2.697   0.742   0.120  0.4288  0.1597  0.0546
19276SOL    HW160270   2.606   0.721   0.100  0.8719 -0.4080 -1.5202
19276SOL    HW260271   2.721   0.680   0.189  0.0286 -0.7039 -0.5578
19277SOL     OW60272  10.009   2.400   4.562  0.0412 -0.6227 -0.3406
19277SOL    HW160273  10.033   2.371   4.650 -0.0913  0.9091  0.2302
19277SOL    HW260274  10.092   2.403   4.515  0.3586  0.1108  0.2340
19278SOL     OW60275   1.499   2.456   5.250 -0.1434 -0.2330 -0.2748
19278SOL    HW160276   1.588   2.442   5.218  0.0665 -1.7650  0.8493
19278SOL    HW260277   1.447   2.473   5.171  0.8956 -0.7405 -1.0875
19279SOL     OW60278  10.368   6.202   3.484  0.0484  0.4221 -0.1507
19279SOL    HW160279  10.309   6.126   3.478 -0.5062  0.7045  1.2785
19279SOL    HW260280  10.318   6.274   3.446  0.2230  0.2631 -0.6855
19280SOL     OW60281   7.571   3.703   9.387 -0.1146 -0.0851 -0.2103
19280SOL    HW160282   7.571   3.733   9.478  0.7687  0.0129 -0.2321
19280SOL    HW260283   7.574   3.784   9.335  2.3557 -0.1454 -0.2693
19281SOL     OW60284   4.904   6.395   3.867  0.2373  0.1335 -0.0734
19281SOL    HW160285   4.844   6.411   3.940  1.2971  2.0364  0.4295
19281SOL    HW260286   4.847   6.386   3.791 -0.7226  1.5943  0.4363
19282SOL     OW60287  10.363   4.003  10.372  0.0792 -0.2467 -0.0169
19282SOL    HW160288  10.312   3.987  10.292 -0.5503  0.7435  0.1799
19282SOL    HW260289  10.298   4.003  10.442  0.6119 -0.9502  0.4928
19283SOL     OW60290   4.421   6.240   3.374  0.0077 -0.0910 -0.7871
19283SOL    HW160291   4.482   6.189   3.428  0.8706 -0.2705 -1.9081
19283SOL    HW260292   4.372   6.293   3.438  0.9118 -0.3888  0.1865
19284SOL     OW60293   7.271   3.373   4.201 -0.0927  0.0474 -0.1039
19284SOL    HW160294   7.240   3.449   4.152  1.5897 -0.0742 -1.4681
19284SOL    HW260295   7.246   3.390   4.291 -0.8671  1.5968 -0.5753
19285SOL     OW60296   8.870   8.692   0.049 -0.0542 -0.5271  0.0087
19285SOL    HW160297   8.850   8.765  -0.010 -2.9544 -0.6065  0.7394
19285SOL    HW260298   8.795   8.633   0.041  2.2803 -3.6575 -0.7364
19286SOL     OW60299   1.939   9.257   0.581 -0.1387  0.1834  0.1551
19286SOL    HW160300   2.029   9.233   0.561 -0.7024 -1.2886 -0.8206
19286SOL    HW260301   1.913   9.316   0.510  0.0030  0.4690  0.3407
19287SOL     OW60302   2.388   7.267   1.217 -0.3522 -0.3086 -0.0196
19287SOL    HW160303   2.296   7.282   1.236 -0.3428  0.8246 -0.7746
19287SOL    HW260304   2.435   7.319   1.282 -0.2869  0.8318 -0.9473
19288SOL     OW60305   2.404   0.561   8.937  0.4972  0.1227 -0.4721
19288SOL    HW160306   2.461   0.637   8.922  1.1825 -0.1278  0.7331
19288SOL    HW260307   2.462   0.494   8.974 -0.6118 -0.0505  1.0530
19289SOL     OW60308   8.558   2.925   3.521  0.0062  0.1392 -0.3459
19289SOL    HW160309   8.541   3.019   3.527  1.3622  0.3466  0.7167
19289SOL    HW260310   8.654   2.919   3.517 -0.0699 -1.1982 -0.3440
19290SOL     OW60311  10.231   9.299   8.490  0.3053  0.2824  0.4600
19290SOL    HW160312  10.272   9.286   8.575  0.4442  0.3930  0.4099
19290SOL    HW260313  10.137   9.307   8.509  0.4809  1.8329  0.7782
19291SOL     OW60314   5.382   8.626   9.770  0.3077 -0.1917  0.3763
19291SOL    HW160315   5.382   8.559   9.839 -1.4892 -1.0357 -0.3574
19291SOL    HW260316   5.307   8.681   9.791  0.5252  0.3261 -0.1946
19292SOL     OW60317   6.502   2.904   9.168  0.4234  0.0826 -0.1736
19292SOL    HW160318   6.561   2.871   9.100  1.8510  2.8984 -0.4382
19292SOL    HW260319   6.547   2.886   9.250 -0.3270 -1.4014 -0.0374
19293SOL     OW60320   2.723   3.974   0.085  0.2026 -0.2741  0.0196
19293SOL    HW160321   2.634   3.954   0.114 -0.7445  1.1247 -1.6731
19293SOL    HW260322   2.710   4.022   0.003  2.5772 -1.0408 -0.8678
19294SOL     OW60323   6.799   3.935   5.006  0.3657 -0.3046 -0.0610
19294SOL    HW160324   6.782   3.947   4.913  1.3175 -1.8435 -0.4648
19294SOL    HW260325   6.747   3.859   5.031  0.7965 -0.4465  0.4373
19295SOL     OW60326   5.198   5.067   2.354 -0.6666  0.2806 -0.3409
19295SOL    HW160327   5.166   4.983   2.386  1.2717 -1.8877 -3.5439
19295SOL    HW260328   5.287   5.050   2.323 -0.5380  3.2391 -2.0665
19296SOL     OW60329   4.389   0.528   2.622 -0.1464 -0.0674 -0.2734
19296SOL    HW160330   4.408   0.531   2.528  1.6313 -0.2308  0.0304
19296SOL    HW260331   4.388   0.620   2.649 -2.8329  0.1210 -0.7816
19297SOL     OW60332   6.634   0.438   8.060  0.7539 -0.0875 -0.0571
19297SOL    HW160333   6.671   0.481   8.137 -0.3761 -0.3425  0.6505
19297SOL    HW260334   6.566   0.381   8.095 -0.1870  0.2417 -1.2870
19298SOL     OW60335   3.780   0.483   9.226 -0.2850 -0.0148  0.3216
19298SOL    HW160336   3.828   0.565   9.214 -0.0103 -0.2532 -0.2207
19298SOL    HW260337   3.697   0.496   9.181 -0.0158 -0.2264 -0.2548
19299SOL     OW60338   3.592   2.881   2.243  0.4292 -0.0832 -0.6380
19299SOL    HW160339   3.579   2.800   2.292 -3.9039  0.8474  0.1113
19299SOL    HW260340   3.629   2.852   2.159 -0.3751 -2.7566 -0.1695
19300SOL     OW60341   1.998   4.193   1.744 -0.0874  0.0694 -0.4714
19300SOL    HW160342   2.003   4.227   1.654 -1.6515  0.5584 -0.4078
19300SOL    HW260343   2.021   4.100   1.736  0.0836  0.1791 -1.3362
19301SOL     OW60344   2.693   3.642   0.343  0.0492 -0.5211  0.1104
19301SOL    HW160345   2.718   3.711   0.405  2.6877 -0.9645 -0.3450
19301SOL    HW260346   2.641   3.581   0.395 -2.7624  1.9058  0.4292
19302SOL     OW60347   3.103   0.411   6.140  0.2928 -0.0891  0.0491
19302SOL    HW160348   3.014   0.377   6.152 -0.2411  0.2953 -2.2246
19302SOL    HW260349   3.140   0.355   6.071  1.9202 -0.3772  1.1221
19303SOL     OW60350   1.516   9.040   1.323  0.1539 -0.2484  0.2852
19303SOL    HW160351   1.524   8.996   1.238 -0.4146 -0.2217  0.2149
19303SOL    HW260352   1.591   9.100   1.325 -0.2652  0.3355 -0.5516
19304SOL     OW60353   7.481   6.410   8.475 -0.0125  0.0326  0.0563
19304SOL    HW160354   7.522   6.338   8.521 -0.2184  0.6307  1.2101
19304SOL    HW260355   7.387   6.396   8.486 -0.0895 -0.1725 -0.7609
19305SOL     OW60356   3.650   5.638   1.749  0.0160  0.6479  0.3234
19305SOL    HW160357   3.627   5.729   1.768  0.5223  0.4015  2.2578
19305SOL    HW260358   3.567   5.596   1.728 -0.2122  1.5541 -0.7129
19306SOL     OW60359   4.445   9.383   2.766  0.5064  0.6500 -0.1429
19306SOL    HW160360   4.515   9.325   2.735 -0.1512  0.6202 -1.6574
19306SOL    HW260361   4.486   9.470   2.771  1.0158  0.3863  0.3863
19307SOL     OW60362   1.062   0.555   4.613  0.0901  0.3296 -0.6495
19307SOL    HW160363   1.139   0.501   4.597 -0.4899 -1.5641  2.3109
19307SOL    HW260364   0.993   0.514   4.561  0.5819  0.8830 -1.7872
19308SOL     OW60365   3.428   9.289   9.900  0.5817  0.0230 -0.5597
19308SOL    HW160366   3.519   9.273   9.877  1.0854  0.8857  0.7758
19308SOL    HW260367   3.389   9.322   9.819  1.5793  0.1738 -0.9893
19309SOL     OW60368   2.131   9.521   0.726  0.3643  0.0363  0.5756
19309SOL    HW160369   2.164   9.433   0.708 -0.3682 -0.4434  1.5037
19309SOL    HW260370   2.081   9.512   0.807 -1.1498  0.9467 -0.2132
19310SOL     OW60371   8.483   2.779   9.885 -0.0071 -0.4288 -0.3003
19310SOL    HW160372   8.573   2.767   9.917  0.7031  3.7635 -0.0887
19310SOL    HW260373   8.434   2.705   9.921  3.0998 -2.2534  0.5203
19311SOL     OW60374   9.557  10.325   8.311 -0.2545 -0.0390  0.3448
19311SOL    HW160375   9.608  10.318   8.231  0.8991  1.9640  0.8354
19311SOL    HW260376   9.482  10.267   8.297  1.0704 -1.4733 -1.2323
19312SOL     OW60377   5.181   7.805   5.395 -0.0561  0.1346 -0.5042
19312SOL    HW160378   5.189   7.732   5.335  1.4161  1.3358 -1.8602
19312SOL    HW260379   5.149   7.878   5.341 -1.0754  0.6271  0.7102
19313SOL     OW60380   8.122   0.978   7.456  0.0500  0.5956 -0.2875
19313SOL    HW160381   8.168   0.975   7.372 -0.2828 -1.4131 -0.4374
19313SOL    HW260382   8.191   0.968   7.521  0.0990  0.1736 -0.4040
19314SOL     OW60383   0.590   6.070   8.275  0.2810 -0.1593  0.1040
19314SOL    HW160384   0.555   6.084   8.363  1.3764 -0.0283  0.5341
19314SOL    HW260385   0.638   5.987   8.281  0.3188 -0.1766 -0.3817
19315SOL     OW60386   0.625   5.433   8.733 -0.4489 -0.2292  0.2736
19315SOL    HW160387   0.585   5.444   8.647  0.0410 -0.5678 -0.0035
19315SOL    HW260388   0.665   5.518   8.753  0.9854 -0.6494 -0.6458
19316SOL     OW60389   0.020   9.691   0.696 -0.4049  0.0821 -0.0551
19316SOL    HW160390  -0.010   9.782   0.690  1.4337  0.6341 -2.3728
19316SOL    HW260391   0.108   9.697   0.733 -0.6682 -0.9067  0.7894
19317SOL     OW60392   1.012   0.358   0.734 -0.2887  0.3878 -0.2721
19317SOL    HW160393   0.973   0.300   0.800  0.5910 -1.4105 -1.2689
19317SOL    HW260394   1.053   0.299   0.671 -0.1930  2.0891 -1.8861
19318SOL     OW60395   4.407   0.877   5.229 -0.3069 -0.1398  0.1173
19318SOL    HW160396   4.459   0.937   5.176  0.2491 -0.3521  0.4166
19318SOL    HW260397   4.422   0.905   5.319 -0.4997 -0.3699  0.2231
19319SOL     OW60398   8.581   9.813   8.325 -0.5682 -0.3074 -0.2459
19319SOL    HW160399   8.486   9.798   8.316 -0.5839 -0.0232 -0.5998
19319SOL    HW260400   8.604   9.771   8.407 -1.1275  0.1846  0.1742
19320SOL     OW60401   0.993   6.483   0.874  0.4134  0.7744 -0.6072
19320SOL    HW160402   1.071   6.487   0.819 -0.9701  0.3977 -2.7188
19320SOL    HW260403   1.026   6.462   0.962  2.6041 -0.0340 -1.5556
19321SOL     OW60404   3.604   8.988   5.914  0.0658 -0.2035  0.2107
19321SOL    HW160405   3.522   8.939   5.904  0.7069 -0.8178 -3.1351
19321SOL    HW260406   3.586   9.073   5.874  0.6805  0.1557  0.6829
19322SOL     OW60407   2.346   2.469   9.554 -0.5404  0.5237  0.3324
19322SOL    HW160408   2.426   2.416   9.547 -1.5239 -1.0821  0.5791
19322SOL    HW260409   2.357   2.538   9.489  1.0754  0.3906  0.4161
19323SOL     OW60410   4.278   4.494   7.794 -0.2083 -0.2040 -0.1086
19323SOL    HW160411   4.368   4.463   7.800 -0.4695 -0.8707  0.4715
19323SOL    HW260412   4.266   4.515   7.702  0.5483 -0.0874 -0.1855
19324SOL     OW60413   5.573   9.580   8.197 -0.4520  0.1645 -0.1365
19324SOL    HW160414   5.583   9.548   8.286  0.4323  0.1275 -0.2419
19324SOL    HW260415   5.600   9.672   8.201  0.1424  0.0096 -0.4699
19325SOL     OW60416   0.077   1.918   1.205  0.1897 -0.6426 -0.8595
19325SOL    HW160417   0.160   1.873   1.198  0.7369  0.1646  0.1387
19325SOL    HW260418   0.069   1.967   1.123 -0.1935 -2.1234 -1.7473
19326SOL     OW60419   3.218   2.823   1.817  0.1523 -1.3413  0.2149
19326SOL    HW160420   3.283   2.760   1.850  0.0528 -1.2340  0.6273
19326SOL    HW260421   3.137   2.772   1.808 -0.0581 -1.1638  1.0340
19327SOL     OW60422   0.707   0.806   3.961  0.3504  0.1949 -0.6577
19327SOL    HW160423   0.772   0.783   3.894 -0.8102  3.1015 -3.0138
19327SOL    HW260424   0.624   0.774   3.925  0.1854 -2.7840  1.9507
19328SOL     OW60425   3.879   1.917   1.580 -0.4749  1.1168  0.1051
19328SOL    HW160426   3.972   1.908   1.558 -0.1125  0.1551  1.8439
19328SOL    HW260427   3.836   1.930   1.496  0.9833 -0.6989 -0.9977
19329SOL     OW60428   9.779   8.804   4.750  0.4043  0.4756  0.4631
19329SOL    HW160429   9.750   8.775   4.836 -0.4258 -0.0602  0.0202
19329SOL    HW260430   9.874   8.801   4.754  0.4431 -3.2730  0.1973
19330SOL     OW60431   2.279   7.369   1.974 -0.6361 -0.2291 -0.2919
19330SOL    HW160432   2.195   7.325   1.961 -1.0046  0.9300 -2.0361
19330SOL    HW260433   2.326   7.356   1.892  0.7090 -0.4079  0.4728
19331SOL     OW60434   4.625   2.801   7.073  0.5018  0.2866 -0.0642
19331SOL    HW160435   4.580   2.833   7.151  0.8529 -0.5314  0.4871
19331SOL    HW260436   4.557   2.754   7.025  0.3487  0.5613 -0.1210
19332SOL     OW60437   4.849   1.464   3.065  0.6882  0.6368 -0.1709
19332SOL    HW160438   4.784   1.464   2.995 -0.4105 -0.6263  0.7826
19332SOL    HW260439   4.926   1.422   3.026  0.6101  1.2759 -1.0319
19333SOL     OW60440   2.503   8.109   0.147  0.1468  0.0041  0.2325
19333SOL    HW160441   2.416   8.072   0.163 -0.1695  0.9226  0.7298
19333SOL    HW260442   2.500   8.196   0.187  1.5399 -0.2257  0.8954
19334SOL     OW60443   1.276   8.765   3.248  0.2896 -0.0678  0.2792
19334SOL    HW160444   1.332   8.780   3.172  0.0697 -2.1281 -0.3543
19334SOL    HW260445   1.187   8.774   3.215  0.2008  0.5043  0.6565
19335SOL     OW60446   0.706   3.255   6.554 -0.1065  0.5064  0.1435
19335SOL    HW160447   0.656   3.211   6.622 -0.0249 -0.9745 -0.7070
19335SOL    HW260448   0.695   3.348   6.572  0.1406  0.1607  2.3167
19336SOL     OW60449   1.114   6.436   1.893 -0.5328 -0.2837 -0.4061
19336SOL    HW160450   1.125   6.388   1.811 -0.0043 -0.6910 -0.1066
19336SOL    HW260451   1.199   6.478   1.908 -0.4939 -0.5455  0.1390
19337SOL     OW60452   1.169   2.147   8.860  0.1915  0.5690  0.2615
19337SOL    HW160453   1.092   2.094   8.840 -0.6995  1.9347 -0.0714
19337SOL    HW260454   1.238   2.083   8.878 -0.5658 -0.7079 -1.1243
19338SOL     OW60455   8.082   1.281   0.244 -0.3452 -0.0555  0.3037
19338SOL    HW160456   8.155   1.262   0.186  0.5494  1.8578  0.7255
19338SOL    HW260457   8.015   1.216   0.221  1.1521 -1.3123 -0.6686
19339SOL     OW60458   0.042   8.700   2.950  0.4099 -0.6747  0.0577
19339SOL    HW160459   0.036   8.735   3.039 -4.0600  3.1729 -1.3051
19339SOL    HW260460   0.069   8.775   2.897 -4.0140 -0.4947 -2.4457
19340SOL     OW60461   8.471   5.794   8.023  0.0923 -0.6717 -0.5488
19340SOL    HW160462   8.379   5.816   8.040 -0.0540 -1.3595 -0.4433
19340SOL    HW260463   8.520   5.844   8.089 -0.0397  1.2515 -1.8154
19341SOL     OW60464   5.013   1.176   0.139 -0.6432 -0.0401 -0.2179
19341SOL    HW160465   4.970   1.184   0.054 -0.6454 -0.4823 -0.2624
19341SOL    HW260466   5.049   1.263   0.156 -0.8356  0.1108 -0.5663
19342SOL     OW60467   7.372   5.240   4.158 -0.1477 -0.0810  0.1299
19342SOL    HW160468   7.464   5.239   4.130 -0.0433  0.6236  0.4185
19342SOL    HW260469   7.322   5.229   4.077  0.1831  0.0619 -0.0982
19343SOL     OW60470   8.137   8.323   1.921 -0.0868  0.1256 -0.0391
19343SOL    HW160471   8.131   8.325   2.017  2.5678  0.0158  0.1859
19343SOL    HW260472   8.109   8.410   1.894  0.5529  0.6707  0.9718
19344SOL     OW60473   1.297   2.425   0.884 -0.5261  0.0725 -0.0581
19344SOL    HW160474   1.299   2.481   0.961 -0.0047 -0.5473  0.3903
19344SOL    HW260475   1.323   2.482   0.811 -1.7682  0.8565  0.0811
19345SOL     OW60476   7.002   5.689   5.352 -0.2216  0.1293  0.2969
19345SOL    HW160477   6.959   5.606   5.331  0.7094 -0.5548  1.0340
19345SOL    HW260478   7.055   5.670   5.429 -0.5557  1.6038  0.9173
19346SOL     OW60479   7.217   6.567  10.214 -0.1846 -0.1085  0.1854
19346SOL    HW160480   7.253   6.497  10.269 -0.9144  1.0836  2.2688
19346SOL    HW260481   7.294   6.616  10.184  0.2809 -1.3150 -0.6953
19347SOL     OW60482   4.876   7.263  10.186 -0.3657 -0.0091 -0.8141
19347SOL    HW160483   4.909   7.206  10.256  0.9078 -1.8838 -2.7962
19347SOL    HW260484   4.823   7.329  10.231 -1.1819 -2.2244  1.7275
19348SOL     OW60485   4.023   0.562   7.556 -0.5120  0.2298 -0.6674
19348SOL    HW160486   3.976   0.495   7.605  0.1952  0.2002 -0.0247
19348SOL    HW260487   4.058   0.621   7.622 -1.6561  1.6280 -1.2358
19349SOL     OW60488   1.286   2.461  10.051  0.4841 -0.4600  0.0876
19349SOL    HW160489   1.271   2.554  10.072  0.1605 -0.6423  0.6973
19349SOL    HW260490   1.215   2.439   9.991  1.3313  0.0288 -1.1339
19350SOL     OW60491   3.256   0.151   0.402  0.6129  0.4566 -0.2486
19350SOL    HW160492   3.336   0.185   0.441  1.5759  0.1435 -1.8413
19350SOL    HW260493   3.200   0.128   0.476  2.5043 -0.5436  0.9429
19351SOL     OW60494   3.217   2.178   4.710 -0.4458 -0.0726  0.0010
19351SOL    HW160495   3.161   2.187   4.787 -1.8950  0.5517 -1.1011
19351SOL    HW260496   3.272   2.103   4.730 -2.3268 -1.3237  0.7320
19352SOL     OW60497   8.651   7.266   6.373  0.4896  0.0527 -0.0425
19352SOL    HW160498   8.688   7.191   6.327  1.6687  0.2934  0.4942
19352SOL    HW260499   8.654   7.338   6.309 -1.2072 -0.4560 -0.7686
19353SOL     OW60500   5.906   2.232   1.521 -0.0923  0.1355  0.3695
19353SOL    HW160501   5.889   2.138   1.529  1.6191 -0.1647  0.7669
19353SOL    HW260502   5.972   2.251   1.588 -1.1596  1.8444  1.0172
19354SOL     OW60503   4.966   4.964   6.874 -0.0931 -0.2320 -0.3020
19354SOL    HW160504   4.908   4.979   6.799  1.2431 -0.3782 -1.4094
19354SOL    HW260505   4.936   5.026   6.941 -0.5081  0.8097 -1.4213
19355SOL     OW60506   1.768   6.161   4.726 -0.2047  0.4629 -0.1338
19355SOL    HW160507   1.800   6.153   4.816  1.1927  2.1166 -0.4279
19355SOL    HW260508   1.675   6.182   4.735 -0.1285  0.3834  0.9205
19356SOL     OW60509   6.867  10.127   1.027  0.0037  0.9252  0.5655
19356SOL    HW160510   6.903  10.155   0.943 -0.4232 -0.6866 -0.1914
19356SOL    HW260511   6.847  10.035   1.016  0.2560  0.5693  2.5699
19357SOL     OW60512   9.372   1.705  10.101  0.1466 -0.1275  0.9269
19357SOL    HW160513   9.457   1.688  10.060 -1.1356 -0.4854 -1.7456
19357SOL    HW260514   9.341   1.618  10.128 -0.3589 -0.3139 -0.2102
19358SOL     OW60515   2.894   5.137   4.833  0.4834  0.3103  0.1418
19358SOL    HW160516   2.986   5.113   4.828  0.9526  1.4596  2.2873
19358SOL    HW260517   2.847   5.053   4.837  1.3585 -0.2866 -1.3424
19359SOL     OW60518   7.593   2.236   7.864  0.1403 -0.1913 -0.1183
19359SOL    HW160519   7.547   2.317   7.844  0.1582 -0.0140  0.5179
19359SOL    HW260520   7.615   2.198   7.779  0.4893  0.6708 -0.4202
19360SOL     OW60521   5.015   4.672   2.788 -0.1028  0.1021  0.4891
19360SOL    HW160522   5.071   4.749   2.787 -0.2584  0.2158  0.5754
19360SOL    HW260523   4.956   4.683   2.713  1.3538 -1.0317 -0.9058
19361SOL     OW60524   3.053  10.223   1.432  0.5132  0.8066  0.2967
19361SOL    HW160525   2.997  10.170   1.376  0.1784  2.0948 -0.6402
19361SOL    HW260526   3.083  10.163   1.500  1.3646 -0.9477 -1.5219
19362SOL     OW60527   4.444   2.081   1.826 -0.1419 -0.1657 -0.4759
19362SOL    HW160528   4.460   2.031   1.746  0.2507  1.2381 -1.3083
19362SOL    HW260529   4.521   2.138   1.835  1.2973 -2.3134  2.5472
19363SOL     OW60530   1.258   8.435   6.446 -0.7393  0.8517  0.4496
19363SOL    HW160531   1.336   8.457   6.395 -1.0591  1.5655  0.2647
19363SOL    HW260532   1.222   8.519   6.473 -0.9490  0.5064  1.3007
19364SOL     OW60533   0.818   7.455   3.951  0.3108 -0.2583 -0.0746
19364SOL    HW160534   0.842   7.368   3.981 -0.7421  0.5470  3.5091
19364SOL    HW260535   0.722   7.453   3.945  0.2239  0.7597  0.6055
19365SOL     OW60536   0.097   4.744   6.281  0.3343 -0.1044  0.0787
19365SOL    HW160537   0.028   4.792   6.328 -0.3661 -0.3007 -0.7275
19365SOL    HW260538   0.176   4.796   6.296  0.4645 -0.9160  2.6726
19366SOL     OW60539   1.447   5.052   1.646  0.2814  0.5622  0.7992
19366SOL    HW160540   1.542   5.062   1.644  0.3024  0.2065  0.0154
19366SOL    HW260541   1.416   5.131   1.691  0.8151  1.6655 -0.6982
19367SOL     OW60542   4.018   7.142   8.963  0.7225 -0.4472  0.3928
19367SOL    HW160543   3.950   7.141   8.897  0.5856  1.1612  0.4794
19367SOL    HW260544   3.972   7.134   9.047  0.5088  1.5827  0.5118
19368SOL     OW60545   6.540  10.452   7.657  0.1596  0.2871  0.0696
19368SOL    HW160546   6.512  10.529   7.608  1.4129 -0.3440 -1.7704
19368SOL    HW260547   6.635  10.465   7.668 -0.2278  0.9658  3.4619
19369SOL     OW60548   2.529   9.584   3.576 -0.7478  0.4757 -0.1780
19369SOL    HW160549   2.600   9.608   3.635 -0.2736 -0.9854 -0.1237
19369SOL    HW260550   2.563   9.602   3.489  0.8626 -2.7946 -0.3736
19370SOL     OW60551   0.022   1.599  10.332  0.0227 -0.1202  0.6758
19370SOL    HW160552   0.059   1.559  10.411 -0.5638 -0.1595  0.9378
19370SOL    HW260553   0.072   1.679  10.319 -0.1323  0.0853  1.3191
19371SOL     OW60554   6.938   8.961   9.485  0.3881  0.3522  0.1254
19371SOL    HW160555   6.864   8.928   9.435 -0.6170  0.4143  1.5257
19371SOL    HW260556   6.981   8.883   9.519 -0.2662  0.3567  1.0059
19372SOL     OW60557   5.911   9.562   9.721  0.5176 -0.0650 -0.0042
19372SOL    HW160558   5.962   9.481   9.722 -0.7136 -0.8836 -0.0453
19372SOL    HW260559   5.904   9.587   9.813 -1.1383 -1.4109  0.3040
19373SOL     OW60560   1.274   2.822   9.205  0.3184  0.0975  0.5090
19373SOL    HW160561   1.277   2.798   9.298 -1.0798 -0.0114  0.5520
19373SOL    HW260562   1.271   2.738   9.159 -0.6679  0.1405  0.4676
19374SOL     OW60563   2.846   5.167   6.866  0.1982 -0.1968 -0.3367
19374SOL    HW160564   2.933   5.126   6.869 -0.3033 -1.2497  0.5492
19374SOL    HW260565   2.786   5.098   6.894 -1.1602 -0.0211 -2.5795
19375SOL     OW60566   0.784   5.914   8.068  0.6087  0.7101  0.1280
19375SOL    HW160567   0.879   5.901   8.062  0.5115 -0.9659  1.3827
19375SOL    HW260568   0.761   5.878   8.153 -1.2503  0.4975 -0.4344
19376SOL     OW60569   3.668   0.198   3.190  0.0102  0.0567  0.3173
19376SOL    HW160570   3.642   0.164   3.275 -0.4049 -1.1583 -0.2776
19376SOL    HW260571   3.585   0.212   3.143  0.1971  1.3902  0.3466
19377SOL     OW60572   6.645   4.336   4.135  0.8236 -0.6158  0.3898
19377SOL    HW160573   6.703   4.391   4.187 -0.9241 -0.0559  1.8216
19377SOL    HW260574   6.625   4.389   4.058  0.1039  0.2893  1.1816
19378SOL     OW60575   9.511   8.370  10.041  0.3221  0.5565  0.3368
19378SOL    HW160576   9.600   8.334  10.050 -0.3888 -1.6928 -0.8662
19378SOL    HW260577   9.503   8.390   9.948 -0.5933  0.2111  0.3315
19379SOL     OW60578   2.948   4.298   3.169 -0.7291 -0.7975 -0.1435
19379SOL    HW160579   2.994   4.318   3.087  0.1248 -1.7551  0.0700
19379SOL    HW260580   2.980   4.363   3.231 -1.3992 -0.0530 -0.5686
19380SOL     OW60581   5.301  10.300   7.310 -0.3009 -0.3113  0.1907
19380SOL    HW160582   5.371  10.264   7.256  0.9913  0.4900  1.2569
19380SOL    HW260583   5.276  10.229   7.369 -0.1455 -0.5077  0.0190
19381SOL     OW60584   7.219   5.199   3.949 -0.5568 -0.3836 -0.1555
19381SOL    HW160585   7.254   5.132   3.890 -0.3808 -0.9211  0.5530
19381SOL    HW260586   7.127   5.208   3.922 -0.5831 -0.9066 -0.2618
19382SOL     OW60587   5.833   5.253   6.589  0.7725 -0.1308 -0.0434
19382SOL    HW160588   5.773   5.186   6.622  0.7384  0.0732  0.3179
19382SOL    HW260589   5.796   5.279   6.505  0.0317  0.3959  0.4315
19383SOL     OW60590   5.155   5.736   9.184  0.1555  0.2940 -0.0509
19383SOL    HW160591   5.227   5.753   9.245 -0.8047  0.7768  0.9923
19383SOL    HW260592   5.086   5.797   9.210 -0.1555  0.7756 -1.8900
19384SOL     OW60593   9.877   2.452   2.780  0.4669 -0.2378 -1.1022
19384SOL    HW160594   9.827   2.383   2.735 -0.1348 -1.8384  1.7842
19384SOL    HW260595   9.815   2.523   2.791 -0.0423 -0.7053 -0.8934
19385SOL     OW60596   0.468   6.603   0.966  0.4353 -0.7542  0.1290
19385SOL    HW160597   0.425   6.520   0.945 -0.5691 -0.1901 -0.1375
19385SOL    HW260598   0.481   6.601   1.061 -0.2701 -0.9066  0.2269
19386SOL     OW60599   3.918   3.104   7.318 -0.0380 -0.3402  0.5722
19386SOL    HW160600   3.903   3.028   7.375  0.2235 -2.0196 -1.4409
19386SOL    HW260601   3.831   3.125   7.283  0.0047 -0.2126  0.5420
19387SOL     OW60602   7.373   0.111   5.500  0.0417 -0.0115  0.1915
19387SOL    HW160603   7.468   0.104   5.516  0.2877 -0.0352 -1.1613
19387SOL    HW260604   7.365   0.116   5.405 -1.1604  2.4318  0.3361
19388SOL     OW60605   4.633   9.548  10.308 -0.1309 -0.0090 -0.2913
19388SOL    HW160606   4.663   9.471  10.260  0.6175 -0.3901  0.7699
19388SOL    HW260607   4.698   9.615  10.289 -1.0103  0.5416 -1.5715
19389SOL     OW60608   4.264   9.757   1.612 -0.2268 -0.5388 -0.3099
19389SOL    HW160609   4.315   9.723   1.686 -0.7018  0.7134  0.6151
19389SOL    HW260610   4.271   9.688   1.546  3.1466 -0.2055 -0.4861
19390SOL     OW60611   6.038   2.950   7.700 -0.2689  0.2178 -0.0101
19390SOL    HW160612   6.008   3.041   7.695  0.3106  0.4520  0.6504
19390SOL    HW260613   5.962   2.898   7.672 -0.6508  0.8944 -0.2438
19391SOL     OW60614   3.615   1.757   2.151  0.9759  0.3578 -0.7235
19391SOL    HW160615   3.602   1.814   2.076 -1.2985  1.4532  0.3927
19391SOL    HW260616   3.535   1.705   2.156  0.9243  0.5314  1.0714
19392SOL     OW60617   2.410   1.184   0.523  0.0068  0.1536 -0.1933
19392SOL    HW160618   2.450   1.228   0.597  2.5393  0.4333 -1.6238
19392SOL    HW260619   2.351   1.249   0.485  0.6878  0.9200  0.0400
19393SOL     OW60620   4.919   8.143   5.867  0.3992 -0.2634  0.6088
19393SOL    HW160621   4.965   8.224   5.847  0.1566 -0.1574  0.4767
19393SOL    HW260622   4.983   8.074   5.850 -0.0819 -0.2547 -1.5397
19394SOL     OW60623   2.346   2.304   3.651 -0.7060 -0.6031 -0.3577
19394SOL    HW160624   2.306   2.246   3.716  0.4807 -0.0490  0.9049
19394SOL    HW260625   2.396   2.245   3.594 -1.4635 -1.0533 -0.5687
19395SOL     OW60626   8.728   3.929   3.664 -0.7675  0.3624  0.0136
19395SOL    HW160627   8.770   3.855   3.620  1.3620  0.8314  1.1475
19395SOL    HW260628   8.780   4.005   3.640 -1.7002  1.1875  0.5077
19396SOL     OW60629   9.463   9.995   0.044  0.2901 -0.5680  0.1811
19396SOL    HW160630   9.472   9.910   0.001 -0.1482 -1.3551  1.5991
19396SOL    HW260631   9.386   9.985   0.100  0.2165  0.7788  0.3420
19397SOL     OW60632   9.909   4.784   8.677 -0.1822 -0.0143 -0.7182
19397SOL    HW160633   9.866   4.862   8.710  0.2999 -0.2652  0.5517
19397SOL    HW260634   9.878   4.713   8.733 -0.9793 -0.8513 -2.1374
19398SOL     OW60635   9.995   5.983  10.383  0.0173  0.4359 -0.3038
19398SOL    HW160636  10.049   5.947  10.313  1.3465 -0.8061  1.2761
19398SOL    HW260637   9.906   5.953  10.363  0.4970 -0.5330 -1.0493
19399SOL     OW60638   0.605   4.671   7.409 -0.2287 -0.4908 -0.0196
19399SOL    HW160639   0.643   4.642   7.326 -0.1460 -0.0531 -0.1410
19399SOL    HW260640   0.603   4.592   7.463 -1.9499 -1.1960 -1.0378
19400SOL     OW60641   5.549   2.456   5.098  0.1437 -0.2440  0.3284
19400SOL    HW160642   5.620   2.517   5.076 -0.1105 -0.3543 -0.9004
19400SOL    HW260643   5.471   2.497   5.061 -0.5844  0.2168  2.2704
19401SOL     OW60644   0.721   0.792   6.907  0.3119 -0.2363  0.0645
19401SOL    HW160645   0.757   0.759   6.989  1.6318  0.0194 -0.3933
19401SOL    HW260646   0.701   0.884   6.924 -0.2500 -0.4022  0.3456
19402SOL     OW60647   4.188   9.300   6.840  0.2630  0.1282  0.0648
19402SOL    HW160648   4.166   9.224   6.786  0.3409  0.4958 -0.4895
19402SOL    HW260649   4.195   9.265   6.929  0.7486 -0.6017 -0.2537
19403SOL     OW60650   1.592   1.515   6.041 -0.0715  0.2665 -0.0111
19403SOL    HW160651   1.618   1.583   5.980  0.6056 -0.4644 -0.5577
19403SOL    HW260652   1.610   1.551   6.127  3.4346 -0.3797 -0.3224
19404SOL     OW60653   3.591   6.238   2.088 -0.6271 -0.1503  0.0721
19404SOL    HW160654   3.606   6.143   2.088 -0.2610 -0.0909  0.1476
19404SOL    HW260655   3.669   6.275   2.129 -0.9409  0.1604  0.3913
19405SOL     OW60656  10.373   1.127   3.915  0.8780 -0.5171  0.3624
19405SOL    HW160657  10.378   1.220   3.893 -2.8758 -0.0934  0.5968
19405SOL    HW260658  10.336   1.086   3.836  0.6682 -1.4709  0.9423
19406SOL     OW60659   4.037   6.266   7.273 -0.1811 -0.0234  0.1593
19406SOL    HW160660   4.065   6.199   7.210  1.2478  1.6554 -1.0875
19406SOL    HW260661   3.948   6.289   7.245 -0.1377 -0.3771 -0.2804
19407SOL     OW60662  10.313   6.449   0.968 -0.2053 -0.4302  0.2090
19407SOL    HW160663  10.333   6.480   1.056 -0.5119 -1.9928  0.8628
19407SOL    HW260664  10.219   6.434   0.968  0.0643 -2.5486  0.3886
19408SOL     OW60665   6.388   2.342   2.676  0.2614 -0.4753  0.6533
19408SOL    HW160666   6.322   2.349   2.607  0.7481 -1.3273  0.0736
19408SOL    HW260667   6.348   2.283   2.741  0.9327 -2.0998 -0.3387
19409SOL     OW60668   9.287   5.625   7.562  0.2040 -0.1288  0.3167
19409SOL    HW160669   9.368   5.670   7.585  0.2855 -0.4860  0.7531
19409SOL    HW260670   9.259   5.582   7.644 -0.9029  0.7221  0.4178
19410SOL     OW60671   7.866   8.130   2.308 -0.9074 -0.2602 -0.2591
19410SOL    HW160672   7.771   8.143   2.310 -1.0188 -0.5436 -1.9036
19410SOL    HW260673   7.885   8.112   2.216  0.9507  1.2977 -0.2328
19411SOL     OW60674   5.789   0.446   8.625 -0.2385 -0.0134  0.0966
19411SOL    HW160675   5.696   0.451   8.647 -0.4870 -0.0761 -0.8825
19411SOL    HW260676   5.792   0.458   8.530  0.5413 -2.1958 -0.2190
19412SOL     OW60677   8.733   0.390   3.262  0.4754 -0.3001 -0.0487
19412SOL    HW160678   8.704   0.452   3.329  0.8882 -1.9827  1.7922
19412SOL    HW260679   8.662   0.326   3.256  1.1151 -1.0219 -0.0569
19413SOL     OW60680   3.281   4.733   1.281 -0.1173  0.0284  0.0478
19413SOL    HW160681   3.232   4.666   1.329  1.2508 -2.7009 -2.0835
19413SOL    HW260682   3.368   4.696   1.270  0.3951  1.6786 -2.1694
19414SOL     OW60683   6.296   1.176   8.726 -0.1350  0.7546  0.7762
19414SOL    HW160684   6.337   1.261   8.707 -0.1801  0.9405  1.4800
19414SOL    HW260685   6.206   1.186   8.694  0.0868  0.6851  0.1181
19415SOL     OW60686   2.457   4.960   5.395 -0.1868 -0.0532 -0.0282
19415SOL    HW160687   2.473   4.886   5.454  0.7473  2.2199  2.8014
19415SOL    HW260688   2.402   4.924   5.325  3.7689 -4.4814 -1.3930
19416SOL     OW60689   5.508   7.471   7.755 -0.4232  0.0062  0.2333
19416SOL    HW160690   5.572   7.413   7.797 -0.3464 -0.4158 -0.4580
19416SOL    HW260691   5.439   7.481   7.821  0.4054  0.5696  1.0375
19417SOL     OW60692   3.811   9.525   4.153  0.4712 -0.3338 -0.0798
19417SOL    HW160693   3.824   9.608   4.107  1.4246 -0.4999 -0.1295
19417SOL    HW260694   3.836   9.543   4.243 -2.2269  0.2266  0.6469
19418SOL     OW60695   6.032   5.100   0.032  0.7361  0.2869 -0.1345
19418SOL    HW160696   5.972   5.050  -0.024  2.1300 -2.4867  0.6482
19418SOL    HW260697   5.975   5.164   0.076 -1.0919 -0.2022 -1.6280
19419SOL     OW60698   8.346   5.080   6.778  0.5861 -0.3276  0.1831
19419SOL    HW160699   8.359   5.043   6.691 -1.6850 -0.0592 -0.3235
19419SOL    HW260700   8.432   5.117   6.801  1.2628 -0.4964 -1.8691
19420SOL     OW60701   4.064   8.461   0.025 -0.0554 -0.6232  0.5353
19420SOL    HW160702   4.040   8.474   0.117 -0.9684 -1.0940  0.3782
19420SOL    HW260703   4.157   8.441   0.027  0.2706  0.8645  1.2153
19421SOL     OW60704   2.262   7.017   5.465 -0.4921 -0.4989  0.3608
19421SOL    HW160705   2.274   6.987   5.374 -1.1518 -2.8174  0.9701
19421SOL    HW260706   2.167   7.023   5.475 -0.4127 -0.0607  0.8524
19422SOL     OW60707   3.345   4.173   8.887 -0.0154  0.6493  0.4099
19422SOL    HW160708   3.436   4.172   8.915 -0.4916  1.1935  2.1726
19422SOL    HW260709   3.319   4.081   8.883  0.6580  0.4872 -0.3098
19423SOL     OW60710   5.535   3.596  10.340  0.2093 -0.1449  0.0785
19423SOL    HW160711   5.529   3.686  10.371 -1.1653 -0.5883  1.2452
19423SOL    HW260712   5.499   3.544  10.412 -1.3653 -1.4066 -1.5141
19424SOL     OW60713   7.563   8.542   0.398  0.2021  0.7677 -0.2354
19424SOL    HW160714   7.596   8.505   0.481  1.8530  0.6355 -0.9045
19424SOL    HW260715   7.642   8.568   0.351 -0.6594  0.3381 -2.0081
19425SOL     OW60716  10.137  10.140  10.135 -0.2721 -0.2529 -0.8574
19425SOL    HW160717  10.181  10.176  10.212 -2.2248  1.9791 -0.6752
19425SOL    HW260718  10.047  10.125  10.163 -0.3810 -1.9958 -1.9975
19426SOL     OW60719   1.776   2.795   0.144 -0.0849  0.0572  0.1320
19426SOL    HW160720   1.749   2.771   0.232 -0.3070 -0.7342 -0.1454
19426SOL    HW260721   1.869   2.771   0.140 -0.7049 -2.5426 -0.7117
19427SOL     OW60722   2.966   9.137   7.171 -0.0056 -0.8997  0.2249
19427SOL    HW160723   2.966   9.051   7.130  0.4031 -0.4314 -0.8029
19427SOL    HW260724   2.885   9.178   7.140 -0.1363 -0.8671  0.6078
19428SOL     OW60725   2.770   9.005   4.579 -0.0104  0.0964 -0.1281
19428SOL    HW160726   2.855   9.037   4.552 -0.1386  0.5978  0.0519
19428SOL    HW260727   2.731   8.969   4.499  0.9801 -1.5620  0.0871
19429SOL     OW60728   1.872   8.667   6.299  0.0839  0.4068 -0.2783
19429SOL    HW160729   1.850   8.574   6.301 -1.9106  0.8447  0.3089
19429SOL    HW260730   1.837   8.699   6.217  3.2298  0.1831 -1.8818
19430SOL     OW60731   8.936   6.985   0.953  0.1908  0.4909  0.0698
19430SOL    HW160732   8.848   6.970   0.921  1.3140 -0.3031 -3.0684
19430SOL    HW260733   8.962   6.903   0.994  0.4954 -0.4086 -1.8371
19431SOL     OW60734   9.889   3.646   4.934 -0.2714  0.2541 -1.0041
19431SOL    HW160735   9.813   3.702   4.948 -2.0141 -2.4102  1.2446
19431SOL    HW260736   9.961   3.691   4.978 -0.6531  2.4175 -2.4490
19432SOL     OW60737   0.580   0.161   8.014  0.7286 -0.0293  0.7159
19432SOL    HW160738   0.559   0.238   7.961 -1.3680 -0.9728  0.0734
19432SOL    HW260739   0.566   0.190   8.104 -1.3073  0.0644  0.4251
19433SOL     OW60740   2.333   1.007   0.112  0.1707  0.2927  0.0983
19433SOL    HW160741   2.239   0.989   0.113 -0.1457  1.8322  0.3625
19433SOL    HW260742   2.374   0.921   0.102 -1.2338 -0.4944  0.8981
19434SOL     OW60743   3.843   3.772   7.125 -0.0718 -0.0498  0.3248
19434SOL    HW160744   3.877   3.785   7.036 -2.1915 -0.7145 -0.6472
19434SOL    HW260745   3.851   3.678   7.140 -0.6457 -0.0832  0.4304
19435SOL     OW60746   5.226   9.833   5.352  0.5413 -0.0568  0.2402
19435SOL    HW160747   5.269   9.858   5.433  0.1870  1.2642  0.0424
19435SOL    HW260748   5.286   9.860   5.283  0.5298 -0.5343  0.0382
19436SOL     OW60749   1.083   4.057   6.148 -0.6366  0.0831  0.6285
19436SOL    HW160750   1.047   4.145   6.135 -2.4064 -0.8054 -1.0981
19436SOL    HW260751   1.176   4.067   6.130 -0.8052  1.6074  0.4494
19437SOL     OW60752   2.400   0.540   8.135 -0.0818  0.7203 -0.2565
19437SOL    HW160753   2.397   0.593   8.055  0.8574 -0.1771 -0.9108
19437SOL    HW260754   2.463   0.471   8.115 -2.6549 -1.8203 -0.1103
19438SOL     OW60755   2.077   9.931   5.905  0.5452 -0.0068  0.2241
19438SOL    HW160756   2.037   9.872   5.969 -0.0632  0.8689  0.6527
19438SOL    HW260757   2.004   9.973   5.860  0.9143 -1.4367 -1.8881
19439SOL     OW60758   4.092   2.065   3.391 -0.5268 -0.3797 -0.4311
19439SOL    HW160759   4.126   2.048   3.479 -0.4054 -1.9992 -0.7526
19439SOL    HW260760   4.169   2.091   3.341 -0.3590 -0.7020 -0.3475
19440SOL     OW60761  10.471   9.962   5.161  0.5091 -0.4932 -0.5723
19440SOL    HW160762  10.410  10.026   5.197  0.9987 -0.2053 -0.2474
19440SOL    HW260763  10.536  10.014   5.114  0.8124 -0.7638 -0.4534
19441SOL     OW60764   4.195   1.138   2.576  1.3132 -0.4649 -0.7005
19441SOL    HW160765   4.156   1.200   2.639  1.1375 -2.3578  1.1425
19441SOL    HW260766   4.283   1.172   2.560  1.1857  0.3312  0.1891
19442SOL     OW60767   0.763   6.345   7.481 -0.0132  0.0519  0.1890
19442SOL    HW160768   0.749   6.423   7.428  1.1176  0.5222  0.5458
19442SOL    HW260769   0.678   6.301   7.483 -0.7292  1.3921  0.1620
19443SOL     OW60770   1.718   2.710   2.136 -1.1078 -0.2228  0.5044
19443SOL    HW160771   1.761   2.716   2.051 -1.4238  0.3987  0.3802
19443SOL    HW260772   1.780   2.663   2.192 -0.9091 -0.6559 -0.0733
19444SOL     OW60773   6.557   1.059   8.015 -0.0455 -0.4943  0.2395
19444SOL    HW160774   6.569   0.985   8.075 -1.6295 -0.8909  0.1030
19444SOL    HW260775   6.577   1.136   8.069 -0.4628 -0.9081  1.0115
19445SOL     OW60776   3.074   8.822   0.999 -0.0162 -0.1574 -0.0981
19445SOL    HW160777   3.067   8.745   1.055 -0.3947 -0.1009 -0.0649
19445SOL    HW260778   2.985   8.855   0.992  0.5145  2.2398  2.6141
19446SOL     OW60779   2.685   5.728   8.305  0.0451  0.0586  0.2031
19446SOL    HW160780   2.699   5.633   8.298 -1.4443 -0.0684 -2.4456
19446SOL    HW260781   2.711   5.749   8.395 -1.0816 -3.1236  1.4356
19447SOL     OW60782   1.566   6.732   2.253 -0.2885 -0.2343 -0.4137
19447SOL    HW160783   1.615   6.739   2.171 -0.9326 -0.1269 -0.7956
19447SOL    HW260784   1.633   6.736   2.322  0.2177  0.0858 -0.9206
19448SOL     OW60785   9.365   9.060   9.939 -0.1245  0.3588  0.1944
19448SOL    HW160786   9.281   9.076   9.980 -0.3188  0.2250 -0.1473
19448SOL    HW260787   9.368   9.121   9.866 -1.2171 -1.6065 -1.6186
19449SOL     OW60788  10.254   4.438   9.656 -0.4920  0.3999 -0.6818
19449SOL    HW160789  10.346   4.442   9.629 -0.5531  1.1806 -0.7947
19449SOL    HW260790  10.245   4.352   9.697  0.1964  0.1697 -0.9978
19450SOL     OW60791   4.798   9.567   2.698  0.0294  0.4243  0.2625
19450SOL    HW160792   4.872   9.526   2.743 -0.0494  0.8160  0.7460
19450SOL    HW260793   4.775   9.504   2.629  0.3601 -0.0247  0.5549
19451SOL     OW60794  10.363   0.443   7.161 -0.1609 -0.0962 -0.5671
19451SOL    HW160795  10.310   0.455   7.239  0.0117  1.7982 -0.7051
19451SOL    HW260796  10.434   0.384   7.189  0.0025  0.7004  0.7546
19452SOL     OW60797  10.440   8.406   2.213  0.1929  0.1639 -0.2629
19452SOL    HW160798  10.357   8.399   2.261 -0.2974 -1.0293 -1.2354
19452SOL    HW260799  10.489   8.328   2.239 -1.0740 -1.8744 -3.4268
19453SOL     OW60800   6.344   2.605   7.314  0.3886 -0.4349  0.6827
19453SOL    HW160801   6.320   2.654   7.393 -2.9106 -0.2810 -0.2661
19453SOL    HW260802   6.429   2.567   7.335  0.3962  0.8912  3.6842
19454SOL     OW60803  10.067  10.442   8.135  0.3376 -0.2566  0.2230
19454SOL    HW160804  10.138  10.504   8.119 -1.2276  1.2407 -1.3488
19454SOL    HW260805  10.004  10.491   8.189  0.0099 -1.2104  0.7378
19455SOL     OW60806  10.340   6.516   9.714  0.1022  0.3723 -0.0495
19455SOL    HW160807  10.272   6.450   9.702 -0.2682  0.5823  0.7687
19455SOL    HW260808  10.292   6.594   9.744  0.7000  0.5350  0.5078
19456SOL     OW60809   1.117   4.673   2.416 -0.4726  0.1170  0.3621
19456SOL    HW160810   1.077   4.689   2.331 -0.9487 -1.3781  0.2742
19456SOL    HW260811   1.163   4.754   2.437 -0.8280  0.7058 -1.0468
19457SOL     OW60812   4.675   4.357   9.668  0.1850  0.3080  0.1908
19457SOL    HW160813   4.737   4.286   9.652 -1.9733 -1.5391 -0.6611
19457SOL    HW260814   4.648   4.346   9.759  0.8713  0.9525  0.4840
19458SOL     OW60815   7.062   6.370   1.064  0.3390 -0.5889 -0.1315
19458SOL    HW160816   6.998   6.355   0.994  1.7144  0.7174 -1.7746
19458SOL    HW260817   7.022   6.438   1.118  0.5719  0.7602 -1.5701
19459SOL     OW60818   8.903   0.704  10.216 -0.0067 -0.0523 -0.0275
19459SOL    HW160819   8.871   0.625  10.259  0.7641 -1.4606 -1.9380
19459SOL    HW260820   8.998   0.695  10.216  0.0550  0.4699 -0.9793
19460SOL     OW60821   5.142   0.901   1.471  0.5531  0.7254  0.6030
19460SOL    HW160822   5.092   0.849   1.408  1.5317  0.6969 -0.1554
19460SOL    HW260823   5.159   0.841   1.543 -0.6192  0.7757  0.9565
19461SOL     OW60824   5.031   9.243   9.894 -0.0373  0.0033 -0.0547
19461SOL    HW160825   4.966   9.305   9.861  0.4771  0.5264 -0.1035
19461SOL    HW260826   5.113   9.273   9.855 -0.0558 -1.8114 -1.5914
19462SOL     OW60827   7.306   9.515   2.133 -0.4767 -0.2363 -0.4531
19462SOL    HW160828   7.357   9.476   2.062 -0.3055  1.3280 -1.2472
19462SOL    HW260829   7.350   9.598   2.150 -1.1247 -0.1369  0.7950
19463SOL     OW60830  10.359   7.914   6.341  0.3017  0.0435  0.0798
19463SOL    HW160831  10.391   7.862   6.415 -2.3461  0.0514  1.3677
19463SOL    HW260832  10.268   7.885   6.329 -0.2411  2.0903 -1.2833
19464SOL     OW60833   6.104   2.776   1.974  0.7873 -0.1124 -0.0480
19464SOL    HW160834   6.042   2.840   1.939  1.5095  1.2120  0.9634
19464SOL    HW260835   6.051   2.702   2.001 -0.3656  0.9447  0.6896
19465SOL     OW60836   1.068   7.566   4.012 -0.3619  0.3590 -0.6319
19465SOL    HW160837   0.979   7.533   4.004  0.3103 -1.8549  0.1495
19465SOL    HW260838   1.089   7.557   4.105  0.7511  0.6200 -0.8382
19466SOL     OW60839   9.828   2.955  10.204  0.3000 -0.3672  0.3625
19466SOL    HW160840   9.780   2.876  10.180  2.9891 -2.1812  0.4255
19466SOL    HW260841   9.818   2.962  10.298 -0.5579 -0.1741  0.2624
19467SOL     OW60842   7.268   8.780   1.895  0.2183  0.4055  0.0209
19467SOL    HW160843   7.186   8.763   1.942  0.1561  1.2624  0.2539
19467SOL    HW260844   7.267   8.720   1.821 -0.1265 -0.3207  0.6071
19468SOL     OW60845   8.950   5.902   8.669 -0.1818  0.1293  0.0436
19468SOL    HW160846   8.879   5.904   8.606 -0.7248 -2.5624  0.4380
19468SOL    HW260847   8.920   5.843   8.738  0.7907  2.1466  2.3847
19469SOL     OW60848   5.619   9.958   7.246 -0.6247  0.6961  0.1291
19469SOL    HW160849   5.621  10.051   7.222 -0.3220  1.0673  1.5118
19469SOL    HW260850   5.655   9.956   7.334  0.6037 -0.8980 -0.3651
19470SOL     OW60851   9.969   4.121   6.404 -0.2401  0.2899 -0.5328
19470SOL    HW160852   9.973   4.160   6.492  0.5308  0.1540 -0.5065
19470SOL    HW260853   9.952   4.028   6.420 -0.2517  0.2914 -0.5358
19471SOL     OW60854   6.655   0.609   6.788 -0.1662  0.1209  0.3015
19471SOL    HW160855   6.650   0.620   6.883 -0.3351  0.8743  0.2165
19471SOL    HW260856   6.597   0.535   6.769 -0.3174  0.1190  0.7599
19472SOL     OW60857   0.205   2.757   4.697 -0.6403 -0.0743  0.3878
19472SOL    HW160858   0.195   2.836   4.644  0.3386 -0.9874 -1.2715
19472SOL    HW260859   0.274   2.779   4.759  0.1989  0.1478 -0.5924
19473SOL     OW60860   2.294   0.898   3.298  0.1213  0.4469 -0.3950
19473SOL    HW160861   2.225   0.949   3.340 -0.0862 -0.7283  0.7518
19473SOL    HW260862   2.269   0.806   3.312  2.1808 -0.0352  0.6117
19474SOL     OW60863   6.419   8.997   1.372  0.1802 -0.1798 -0.0979
19474SOL    HW160864   6.415   9.007   1.277  0.2780 -1.0825 -0.2105
19474SOL    HW260865   6.456   8.910   1.384 -1.1467 -0.6478  0.7658
19475SOL     OW60866   5.857  10.121   9.203 -0.1665 -0.2325  0.3949
19475SOL    HW160867   5.858  10.212   9.174  0.6794 -0.0452  0.9871
19475SOL    HW260868   5.766  10.104   9.226 -0.0796  0.9378  1.7377
19476SOL     OW60869   2.809   6.170   4.599  0.0126 -0.2120  0.1002
19476SOL    HW160870   2.810   6.115   4.521  0.7990 -0.0612 -0.0022
19476SOL    HW260871   2.887   6.224   4.592 -0.5405  0.6495  0.3930
19477SOL     OW60872   1.147   8.478   6.083  0.0184 -0.0542 -0.0811
19477SOL    HW160873   1.217   8.500   6.022 -1.6433 -2.8364 -3.3985
19477SOL    HW260874   1.160   8.385   6.101 -1.5053 -0.0847  1.0880
19478SOL     OW60875   4.769   9.519   0.415 -0.0261 -0.2072 -0.0811
19478SOL    HW160876   4.711   9.477   0.479  0.7841 -0.5578  0.4317
19478SOL    HW260877   4.853   9.476   0.427  1.0144  1.9643  0.9111
19479SOL     OW60878   1.199   7.818   5.964 -0.5219  0.0328 -0.6756
19479SOL    HW160879   1.254   7.896   5.969 -2.0119  1.1945 -1.6360
19479SOL    HW260880   1.183   7.806   5.871 -1.1978 -0.7819 -0.4612
19480SOL     OW60881   6.858   1.013   8.681 -0.2151 -0.1975 -0.1443
19480SOL    HW160882   6.787   1.016   8.745  1.1351 -0.5633  1.4441
19480SOL    HW260883   6.826   1.065   8.607 -2.2187 -0.5809  0.3877
19481SOL     OW60884   1.481   4.862   7.881  0.0898 -0.0554 -0.3659
19481SOL    HW160885   1.451   4.836   7.794  0.6914 -2.3444  0.0435
19481SOL    HW260886   1.459   4.955   7.888 -2.1305 -0.3796 -2.0382
19482SOL     OW60887   5.561   9.731   3.398 -0.4091  0.3990  0.7333
19482SOL    HW160888   5.637   9.698   3.445  0.9120  1.3458 -0.6420
19482SOL    HW260889   5.587   9.730   3.306 -2.8382 -1.2580 -0.0346
19483SOL     OW60890   9.682  10.008   2.355 -0.4623  0.0163  0.0325
19483SOL    HW160891   9.726   9.972   2.432 -2.7300 -1.0336  0.9384
19483SOL    HW260892   9.714   9.954   2.282 -2.2477 -2.7141  1.0772
19484SOL     OW60893   3.973   0.004   6.420 -0.1458  0.3088  0.3835
19484SOL    HW160894   3.907  -0.062   6.440  0.1086  0.0290  0.3157
19484SOL    HW260895   4.041  -0.045   6.372  0.6257  0.3569  1.4081
19485SOL     OW60896   2.952   9.085   1.721 -0.3137 -0.0033  0.1385
19485SOL    HW160897   2.887   9.090   1.651  0.6116 -1.2624 -0.8717
19485SOL    HW260898   2.933   9.002   1.766  0.4055 -0.2594 -0.0089
19486SOL     OW60899   7.963   2.894   1.147 -0.0707  0.2375 -0.5488
19486SOL    HW160900   8.017   2.908   1.069 -0.2441  0.6464 -0.5991
19486SOL    HW260901   8.020   2.849   1.208  1.1382  2.7276  0.3042
19487SOL     OW60902   4.234   2.296   9.270 -0.6576  0.0544  0.2136
19487SOL    HW160903   4.182   2.302   9.350  1.6562  2.2853  1.7218
19487SOL    HW260904   4.259   2.387   9.251  0.1498 -0.5955 -2.1658
19488SOL     OW60905   4.937   3.627   9.171  0.7696  0.3488 -0.0665
19488SOL    HW160906   4.990   3.650   9.247 -0.0224  0.9194  0.3306
19488SOL    HW260907   4.855   3.674   9.184 -0.4297 -1.6893  0.0835
19489SOL     OW60908   5.990   2.620   0.837 -0.1075  0.4329 -0.5900
19489SOL    HW160909   6.036   2.695   0.799  0.2258 -0.0738 -1.2103
19489SOL    HW260910   5.920   2.659   0.889 -0.1977  1.1735 -1.2420
19490SOL     OW60911   8.161   9.292   8.349 -0.2026 -0.0468  0.7238
19490SOL    HW160912   8.210   9.213   8.373 -0.4860  0.3025  2.5888
19490SOL    HW260913   8.100   9.306   8.422 -1.5218  0.8026 -0.4920
19491SOL     OW60914   7.196   7.107   3.808  0.0122 -0.4012 -0.2869
19491SOL    HW160915   7.253   7.091   3.883  1.9615  3.3931 -0.7474
19491SOL    HW260916   7.146   7.185   3.832 -2.0191 -1.2391 -1.5706
19492SOL     OW60917   5.513   2.612   8.493  0.2112 -0.1641 -0.1433
19492SOL    HW160918   5.503   2.559   8.572  1.4197 -0.3471 -0.0912
19492SOL    HW260919   5.607   2.621   8.482  0.1136 -0.8987 -2.0590
19493SOL     OW60920   4.656   3.594   4.151  0.2961  0.2587  0.7160
19493SOL    HW160921   4.578   3.615   4.099 -1.4551  1.3747  3.4997
19493SOL    HW260922   4.702   3.678   4.158 -0.3344  0.5247  2.1251
19494SOL     OW60923   2.897   1.815   8.424  0.1589 -0.3542  0.0523
19494SOL    HW160924   2.939   1.787   8.505  1.0523  0.9216  0.0572
19494SOL    HW260925   2.872   1.733   8.381  0.6452 -1.0817  1.1036
19495SOL     OW60926   6.669   5.385   2.717 -0.1454  0.2264 -0.0922
19495SOL    HW160927   6.592   5.380   2.661  0.7140 -2.0452 -1.2065
19495SOL    HW260928   6.716   5.462   2.686 -1.4487  1.0854 -0.0289
19496SOL     OW60929   5.646   2.219   8.255  0.2576 -0.1500 -0.1001
19496SOL    HW160930   5.638   2.180   8.342 -0.2260  0.2893  0.0592
19496SOL    HW260931   5.650   2.313   8.271 -0.3287 -0.0376 -0.5763
19497SOL     OW60932   9.174   8.731   8.727 -0.1413 -0.4330 -0.5084
19497SOL    HW160933   9.166   8.643   8.765 -2.4649 -0.2452 -0.4463
19497SOL    HW260934   9.135   8.789   8.792 -2.1665  0.1549 -2.1427
19498SOL     OW60935   2.041   1.866   6.497  0.0544 -0.1840  0.0470
19498SOL    HW160936   1.960   1.815   6.500 -0.4536  0.6320  0.6848
19498SOL    HW260937   2.056   1.893   6.588 -0.1655  1.5120 -0.3941
19499SOL     OW60938   7.031   0.664   8.275 -0.1151 -0.5853  0.1732
19499SOL    HW160939   7.036   0.739   8.215  0.4460 -2.1826 -1.8977
19499SOL    HW260940   6.991   0.699   8.355 -0.7156  1.7005 -1.0567
19500SOL     OW60941   5.231   0.986   7.158 -0.4329 -1.1774  0.3703
19500SOL    HW160942   5.189   0.943   7.233 -0.2409 -0.2481  1.0244
19500SOL    HW260943   5.323   0.992   7.182 -0.1076 -2.1417 -0.5610
19501SOL     OW60944   7.737   6.554   9.054  0.3668 -0.0674  0.0717
19501SOL    HW160945   7.732   6.587   9.144  0.2272  0.2224 -0.0402
19501SOL    HW260946   7.710   6.629   9.000  0.4250 -0.2483 -0.2080
19502SOL     OW60947   0.352   7.024   4.180  0.4761 -0.6854  0.1001
19502SOL    HW160948   0.393   7.046   4.263 -1.1660  0.8637  0.5556
19502SOL    HW260949   0.326   7.108   4.143 -0.2665 -1.4605 -1.2185
19503SOL     OW60950   4.598   4.602   1.589  0.4018  0.9320 -0.0118
19503SOL    HW160951   4.554   4.583   1.506 -1.2985 -1.0618  1.2401
19503SOL    HW260952   4.589   4.696   1.600  2.5147  1.6225 -3.0065
19504SOL     OW60953   1.618   4.891   9.681 -0.8096 -0.3683 -0.5444
19504SOL    HW160954   1.649   4.847   9.603 -0.7471 -1.3721  0.0312
19504SOL    HW260955   1.592   4.821   9.741 -1.9318  0.3886 -0.0859
19505SOL     OW60956   5.464   1.251   9.937 -0.1933 -0.2031 -0.6107
19505SOL    HW160957   5.433   1.336   9.969  0.3182 -0.6502  1.1948
19505SOL    HW260958   5.401   1.227   9.869 -2.0691  0.3082  0.8486
19506SOL     OW60959   4.024   7.645   2.085  0.2328 -0.2608 -0.0820
19506SOL    HW160960   3.934   7.633   2.056  0.3320  2.3333 -1.6948
19506SOL    HW260961   4.071   7.676   2.008  1.7269  1.7647  1.5405
19507SOL     OW60962   9.946   7.733   0.536  0.1937 -0.1100 -0.0652
19507SOL    HW160963   9.991   7.680   0.470 -0.8890 -1.7780  0.4635
19507SOL    HW260964  10.017   7.766   0.592  0.9545 -0.5404 -0.7435
19508SOL     OW60965   9.160   4.332   7.669  0.3093  0.1540 -0.1082
19508SOL    HW160966   9.245   4.377   7.670 -0.4533  1.6526 -0.4075
19508SOL    HW260967   9.168   4.265   7.737  1.8602 -0.0059 -0.4089
19509SOL     OW60968   2.043  10.173   5.395  0.9004 -0.6364 -0.0846
19509SOL    HW160969   1.968  10.175   5.335  1.5607 -0.7424 -0.9194
19509SOL    HW260970   2.074  10.082   5.391  1.5321 -0.4096 -0.3110
19510SOL     OW60971   8.105   1.572   8.803  0.2620 -0.0210  0.4901
19510SOL    HW160972   8.124   1.574   8.897  0.0200 -1.0483  0.5709
19510SOL    HW260973   8.189   1.548   8.763  0.0295 -1.0316  0.5727
19511SOL     OW60974   9.491   4.712   1.944 -0.0391  0.1234  0.2657
19511SOL    HW160975   9.396   4.714   1.939 -0.1184 -1.3317  0.6672
19511SOL    HW260976   9.512   4.746   2.031 -0.2005  0.2744  0.2457
19512SOL     OW60977  10.386   0.208   6.724 -0.3698 -0.4800  0.4676
19512SOL    HW160978  10.413   0.142   6.788 -0.1839 -0.1076  0.7809
19512SOL    HW260979  10.349   0.158   6.651 -1.3251 -0.8915  1.2039
19513SOL     OW60980   6.948   6.957   9.516  0.1043  0.6688 -0.2870
19513SOL    HW160981   6.923   7.046   9.492 -0.2423  1.1899  1.7945
19513SOL    HW260982   6.867   6.918   9.548  0.7332  0.4357  1.0831
19514SOL     OW60983   0.819   5.907   3.519 -0.1796  0.1162 -0.0253
19514SOL    HW160984   0.879   5.928   3.591 -0.3813 -2.5821  1.0556
19514SOL    HW260985   0.876   5.879   3.448 -0.0093 -2.0187  0.8531
19515SOL     OW60986   8.616   1.063   6.858 -0.0582  0.2977 -0.0171
19515SOL    HW160987   8.709   1.041   6.866 -0.5209 -1.3471  1.6118
19515SOL    HW260988   8.576   0.985   6.820 -0.6287  1.4960 -1.9952
19516SOL     OW60989   7.404   8.580   4.479 -0.1776  0.2179  0.7596
19516SOL    HW160990   7.376   8.490   4.496  0.1233 -0.1846 -0.7564
19516SOL    HW260991   7.492   8.584   4.515 -0.4167  0.0960  1.3769
19517SOL     OW60992   4.573   6.069   7.777  0.3204  0.1820 -0.3838
19517SOL    HW160993   4.663   6.042   7.762 -0.0569 -0.9956 -0.5859
19517SOL    HW260994   4.521   6.017   7.716 -0.6087  0.0192  0.5179
19518SOL     OW60995   4.731   1.730   7.312  0.2389  0.7321  0.0876
19518SOL    HW160996   4.701   1.796   7.375 -0.3628 -0.1658  0.7734
19518SOL    HW260997   4.698   1.760   7.227 -1.6419  0.3936  0.6532
19519SOL     OW60998   4.302   0.913   7.253 -0.1066  0.0313  0.1440
19519SOL    HW160999   4.322   0.839   7.310  2.3800  1.7421  1.6848
19519SOL    HW261000   4.383   0.931   7.206 -0.5743  1.8577 -0.0734
19520SOL     OW61001   8.787   9.474   3.692  0.7557  0.0461 -0.3277
19520SOL    HW161002   8.750   9.410   3.751  0.6932  0.7279  0.3891
19520SOL    HW261003   8.740   9.555   3.711  0.8961  0.3371 -1.1453
19521SOL     OW61004   6.247   1.891   6.459  0.1982  0.1462  0.6651
19521SOL    HW161005   6.234   1.802   6.426  0.7488 -0.3853  1.8193
19521SOL    HW261006   6.214   1.948   6.389  1.8982 -0.8889 -1.0638
19522SOL     OW61007   5.477   2.007  10.054 -0.0074  0.3404 -0.3404
19522SOL    HW161008   5.502   1.918  10.078  4.3231  1.6764  1.0731
19522SOL    HW261009   5.492   2.011   9.959 -2.3521 -0.8998 -0.8274
19523SOL     OW61010   7.975   6.809   5.632  0.1130 -0.3830  0.4217
19523SOL    HW161011   8.001   6.806   5.724  1.2693 -0.6298  0.1001
19523SOL    HW261012   8.047   6.767   5.585  0.8274  2.1056 -0.8882
19524SOL     OW61013   3.259   4.492   3.215 -0.6638  0.6457  0.1113
19524SOL    HW161014   3.305   4.505   3.298  0.5197  0.5783 -0.5117
19524SOL    HW261015   3.288   4.565   3.160 -2.4673  1.4456  0.1649
19525SOL     OW61016   2.492   1.532   7.229  0.0015 -0.0322 -0.1360
19525SOL    HW161017   2.585   1.532   7.253 -0.4283 -1.5595  1.8316
19525SOL    HW261018   2.446   1.528   7.313 -1.7977 -0.9154 -1.1055
19526SOL     OW61019   7.172   4.079   4.265  0.1666  0.5361  0.4256
19526SOL    HW161020   7.266   4.097   4.254  0.4363 -0.9560  0.1011
19526SOL    HW261021   7.168   3.986   4.289 -1.2703  0.3874 -0.2922
19527SOL     OW61022   4.725   7.397   0.729 -0.3504 -0.4529 -0.2700
19527SOL    HW161023   4.751   7.347   0.651 -0.1251  0.3248 -0.7203
19527SOL    HW261024   4.691   7.480   0.693 -1.0321 -0.4194  0.4329
19528SOL     OW61025   8.316   5.984   1.337  0.0225  0.2617  0.2584
19528SOL    HW161026   8.335   6.031   1.418 -0.6986 -1.3645  1.4321
19528SOL    HW261027   8.311   5.892   1.363 -0.6329 -0.2711 -1.5642
19529SOL     OW61028   0.831   5.810  10.400  0.2575  0.3161 -0.2536
19529SOL    HW161029   0.920   5.792  10.370 -0.0971 -0.5008 -0.8638
19529SOL    HW261030   0.829   5.905  10.413  1.0710  0.4090 -0.7121
19530SOL     OW61031   8.320   0.643   2.425 -0.4260  0.0692 -0.1492
19530SOL    HW161032   8.373   0.580   2.474  0.1555  1.7335  1.4942
19530SOL    HW261033   8.381   0.714   2.402 -1.8182  2.1467  1.9907
19531SOL     OW61034   9.590   9.614   0.666  0.3443  0.5586  0.2637
19531SOL    HW161035   9.519   9.656   0.715 -0.4960 -0.2707 -0.2180
19531SOL    HW261036   9.632   9.555   0.729 -0.7215 -0.4943  0.0130
19532SOL     OW61037   0.409   9.239   8.319  0.1450 -0.6892  0.5534
19532SOL    HW161038   0.408   9.256   8.413  4.3655 -0.0656  0.6651
19532SOL    HW261039   0.330   9.282   8.286 -0.2093  1.1902  3.4974
19533SOL     OW61040   2.198   1.128   3.920  0.0751 -0.1526  0.3709
19533SOL    HW161041   2.254   1.051   3.910 -1.1681 -0.8545 -1.6524
19533SOL    HW261042   2.200   1.171   3.834  1.0883  2.3955  1.5494
19534SOL     OW61043   5.931   6.242   8.885 -0.1145  0.2093  0.2432
19534SOL    HW161044   5.990   6.252   8.960  1.5843 -0.5095 -0.9265
19534SOL    HW261045   5.946   6.152   8.855 -1.3094  0.2471 -0.5205
19535SOL     OW61046   4.476  10.009   4.582 -0.1925 -0.0692 -0.3151
19535SOL    HW161047   4.433   9.992   4.666  1.0063 -0.4092  0.2628
19535SOL    HW261048   4.523   9.928   4.562  0.1669  0.2785 -0.9187
19536SOL     OW61049   3.107   3.181   6.671  0.0815  0.1647  0.6785
19536SOL    HW161050   3.105   3.096   6.716  1.7825  0.5122  1.4896
19536SOL    HW261051   3.015   3.200   6.653 -0.3501 -1.7626  0.6304
19537SOL     OW61052   5.242   7.955   3.798 -0.3315 -0.1165 -0.3195
19537SOL    HW161053   5.197   7.881   3.837 -0.5191  0.6089  0.8994
19537SOL    HW261054   5.194   8.032   3.829  0.3947  0.5605 -0.8233
19538SOL     OW61055   1.711   0.863   9.634  0.1496  0.2001  0.4209
19538SOL    HW161056   1.766   0.864   9.556  0.9435 -0.6829  0.9438
19538SOL    HW261057   1.762   0.910   9.700 -0.0811  0.0943  0.6769
19539SOL     OW61058   9.928   3.366   9.956  0.2974 -0.1836 -0.6478
19539SOL    HW161059   9.867   3.325  10.017  0.8663 -1.3351 -0.8140
19539SOL    HW261060   9.875   3.384   9.878 -0.0375 -0.3371 -0.4580
19540SOL     OW61061   8.597   0.073  10.102  0.9400  0.0790  0.0858
19540SOL    HW161062   8.538   0.148  10.101  0.5370 -0.2333  0.0224
19540SOL    HW261063   8.685   0.111  10.106  0.8697  0.6121 -2.0665
19541SOL     OW61064   8.152   9.311   8.059 -0.1696  0.2807 -0.0902
19541SOL    HW161065   8.234   9.264   8.043 -1.0565 -1.2650 -0.3822
19541SOL    HW261066   8.139   9.304   8.154 -0.2745 -0.0390 -0.1262
19542SOL     OW61067   3.350   1.513   4.623  0.0963  0.7988 -0.4117
19542SOL    HW161068   3.284   1.511   4.692  0.5675 -0.6309  0.0227
19542SOL    HW261069   3.301   1.527   4.543 -0.6994  0.1253 -0.0491
19543SOL     OW61070   7.700   9.304   7.265  0.3538  0.1715 -0.3204
19543SOL    HW161071   7.716   9.391   7.302  0.0290 -0.7507  2.1225
19543SOL    HW261072   7.773   9.251   7.295  0.5612 -0.4557 -1.8171
19544SOL     OW61073   5.321   2.076   4.924  0.0640  0.4476 -0.1141
19544SOL    HW161074   5.335   2.143   4.857 -1.4130  2.5748  1.5771
19544SOL    HW261075   5.253   2.020   4.887  0.5427  0.5047 -1.1135
19545SOL     OW61076   8.762   9.190  10.174 -0.6675  0.3842  0.1655
19545SOL    HW161077   8.802   9.212  10.258 -0.4604 -0.4032  0.2823
19545SOL    HW261078   8.796   9.103  10.154 -1.7290  0.0224 -0.1126
19546SOL     OW61079   6.996   2.221   6.541 -0.2969 -0.3121 -0.2909
19546SOL    HW161080   7.074   2.175   6.510 -0.1907 -0.9910  0.9160
19546SOL    HW261081   6.924   2.183   6.491 -0.0472 -0.8715 -0.2365
19547SOL     OW61082   3.397   5.184   5.461 -0.7636 -0.3922  0.4184
19547SOL    HW161083   3.319   5.238   5.476 -1.6989 -1.5104 -0.2143
19547SOL    HW261084   3.471   5.241   5.482 -1.6445  1.4673 -1.2682
19548SOL     OW61085   3.032   5.619   8.766 -0.2387  0.4010  0.0279
19548SOL    HW161086   2.973   5.576   8.704  0.2446 -0.1369 -0.0731
19548SOL    HW261087   3.098   5.661   8.712  1.5542 -2.0404  0.1543
19549SOL     OW61088   7.033   6.558   2.155 -0.2705 -0.3078  0.0407
19549SOL    HW161089   7.047   6.464   2.160 -1.8663 -0.5635  0.2476
19549SOL    HW261090   7.023   6.577   2.062  0.0509 -0.3358 -0.0004
19550SOL     OW61091   2.517   0.099   0.944 -0.1919  0.2371  0.3297
19550SOL    HW161092   2.478   0.039   1.008 -0.5024 -0.8446 -0.8288
19550SOL    HW261093   2.455   0.171   0.939  0.0785  0.5747  1.5948
19551SOL     OW61094   4.243   2.256   1.876 -0.4199 -0.3917 -0.4068
19551SOL    HW161095   4.228   2.260   1.781 -0.2370 -0.3597 -0.4355
19551SOL    HW261096   4.316   2.194   1.886  0.2962  0.4341 -0.3732
19552SOL     OW61097   2.062   1.711   2.476  0.3040  0.2665  0.3969
19552SOL    HW161098   2.143   1.662   2.464  0.5034  0.0798  2.2100
19552SOL    HW261099   2.076   1.794   2.430  1.9935  0.7148  1.6517
19553SOL     OW61100   4.673   3.089   1.843  0.6394  0.1321  0.2271
19553SOL    HW161101   4.586   3.127   1.830 -0.1583 -1.1841  1.4264
19553SOL    HW261102   4.725   3.159   1.882 -0.4507  0.3637  1.3057
19554SOL     OW61103   7.320   6.776   5.706 -0.2320  0.0097 -0.3532
19554SOL    HW161104   7.336   6.798   5.614 -1.3087  1.0557 -0.3040
19554SOL    HW261105   7.400   6.731   5.733 -0.1413 -0.8978 -1.9687
19555SOL     OW61106   6.848   5.414   3.610  0.6438 -0.0986  0.1979
19555SOL    HW161107   6.928   5.371   3.580  1.1590  0.2019  1.0764
19555SOL    HW261108   6.778   5.351   3.592  1.1834 -0.6939  0.1402
19556SOL     OW61109   8.274   1.168   4.624  0.0771  0.4270 -0.4837
19556SOL    HW161110   8.225   1.230   4.570  1.3345  1.0276 -0.9546
19556SOL    HW261111   8.285   1.213   4.708  1.3590  1.0473 -0.9625
19557SOL     OW61112   1.061   3.056   2.621  0.4446 -0.0901  0.1871
19557SOL    HW161113   0.977   3.078   2.581 -0.1843 -3.3417 -0.5781
19557SOL    HW261114   1.124   3.062   2.549  0.6715  1.0656  0.4603
19558SOL     OW61115   9.678  10.459   3.485 -0.2680 -0.4672 -0.1320
19558SOL    HW161116   9.603  10.403   3.464 -1.2400  0.0070  1.7769
19558SOL    HW261117   9.727  10.409   3.550 -0.0893  0.0846  0.1623
19559SOL     OW61118   2.767   3.018   8.623 -0.5400  0.0291 -0.2551
19559SOL    HW161119   2.730   3.079   8.560 -0.9811 -0.5880 -0.6116
19559SOL    HW261120   2.862   3.029   8.615 -0.6145  1.8339  0.8799
19560SOL     OW61121   1.164   0.196   3.227 -0.0035 -0.4558  0.3281
19560SOL    HW161122   1.150   0.217   3.134 -1.0253 -0.9130  0.3550
19560SOL    HW261123   1.198   0.276   3.265  0.0937 -0.1498 -0.3790
19561SOL     OW61124   6.229   4.676   8.590  0.3842 -0.2798  0.0077
19561SOL    HW161125   6.308   4.648   8.543  1.0947  2.6410 -0.7312
19561SOL    HW261126   6.243   4.769   8.608 -2.2367 -0.0327  1.2722
19562SOL     OW61127   5.462   4.970   2.854  0.5341 -0.1624  0.5626
19562SOL    HW161128   5.485   5.021   2.777  2.3809  0.6917  1.6126
19562SOL    HW261129   5.484   4.880   2.831 -1.0330 -0.2665 -0.6591
19563SOL     OW61130   2.452   4.349  10.012  0.2735  0.0957  0.0100
19563SOL    HW161131   2.485   4.352   9.922 -1.0248 -0.8782 -0.5360
19563SOL    HW261132   2.531   4.341  10.066  1.0126 -0.9354 -1.1598
19564SOL     OW61133   9.114   9.122  10.077 -0.1175  0.1460  0.2179
19564SOL    HW161134   9.106   9.218  10.074 -0.3759  0.1778  1.4600
19564SOL    HW261135   9.169   9.105  10.153 -1.6820 -0.7538  1.2187
19565SOL     OW61136   8.940   4.775   8.942  0.1236 -0.1713 -0.3287
19565SOL    HW161137   9.033   4.767   8.959 -0.0212 -2.4183 -0.3500
19565SOL    HW261138   8.898   4.719   9.008 -1.2013  0.4620 -0.5849
19566SOL     OW61139   5.715   8.520   9.736 -0.2050  0.0318  0.0556
19566SOL    HW161140   5.773   8.455   9.695 -2.5243 -1.3750 -1.1657
19566SOL    HW261141   5.740   8.518   9.829  1.5274 -0.6697 -0.3672
19567SOL     OW61142   5.814  10.026   4.724 -0.6039  0.1209 -0.2073
19567SOL    HW161143   5.807  10.079   4.645 -2.0709 -0.3167 -0.3899
19567SOL    HW261144   5.865   9.950   4.697  0.8609  1.0255 -0.1298
19568SOL     OW61145   6.657   3.456   5.421  0.1050 -0.3349 -0.3053
19568SOL    HW161146   6.734   3.440   5.476  1.0639  1.1320 -1.1552
19568SOL    HW261147   6.584   3.424   5.473  0.7946  2.0858  2.4313
19569SOL     OW61148   2.922   6.332   1.690  0.4545 -0.3438  0.0970
19569SOL    HW161149   2.832   6.316   1.662  0.2496 -0.7525  0.9600
19569SOL    HW261150   2.942   6.260   1.749  0.6270  0.8645  1.5754
19570SOL     OW61151   7.571   1.983   4.530  0.1093  0.1792  0.2529
19570SOL    HW161152   7.560   1.916   4.463  0.6034  0.8627 -0.5244
19570SOL    HW261153   7.632   2.046   4.492 -0.6431  1.2814  0.8189
19571SOL     OW61154   8.982   1.092   9.001 -0.0616 -0.2101  0.0120
19571SOL    HW161155   8.943   1.015   9.042 -0.4050  0.2771  0.6233
19571SOL    HW261156   8.918   1.118   8.934 -0.0843 -0.2773  0.0073
19572SOL     OW61157   2.238  10.225   4.798 -0.1317  0.2409  0.6923
19572SOL    HW161158   2.252  10.278   4.719  1.1332 -1.8033 -0.5791
19572SOL    HW261159   2.316  10.240   4.851  0.1989 -0.2383  0.3587
19573SOL     OW61160   1.374   9.371   6.730 -0.2103 -0.3660  0.0796
19573SOL    HW161161   1.315   9.296   6.722 -1.2880  0.6044 -1.9343
19573SOL    HW261162   1.321   9.446   6.703  1.6824  0.6876 -0.9242
19574SOL     OW61163   0.276   8.611   7.414  0.3625  0.0895 -0.0027
19574SOL    HW161164   0.368   8.636   7.411  0.1278  1.0586  0.4447
19574SOL    HW261165   0.273   8.523   7.377  1.3791  0.2974 -0.5943
19575SOL     OW61166   9.232  10.198   8.899  0.2523  0.4281 -0.0663
19575SOL    HW161167   9.250  10.268   8.836  1.1922  0.2796  0.0134
19575SOL    HW261168   9.293  10.215   8.971 -0.6014  0.4187  0.6657
19576SOL     OW61169   8.894   1.713   0.293 -0.1585  0.5547 -0.2229
19576SOL    HW161170   8.979   1.701   0.334  0.4213  0.5171 -1.3969
19576SOL    HW261171   8.886   1.807   0.280 -0.0760  0.5227 -0.5326
19577SOL     OW61172   2.174   1.120   3.141 -0.0171 -0.0431 -0.1285
19577SOL    HW161173   2.080   1.109   3.125  0.0107 -1.1861  0.3935
19577SOL    HW261174   2.185   1.095   3.233  0.9513 -0.9525 -0.4793
19578SOL     OW61175   2.807   2.344  10.366 -0.0438 -0.3373  0.2503
19578SOL    HW161176   2.798   2.355  10.272  0.7426  0.4280  0.2522
19578SOL    HW261177   2.866   2.415  10.393 -1.6881  0.5862  1.5902
19579SOL     OW61178   4.415   5.724   1.663 -0.3243  0.3302  0.5466
19579SOL    HW161179   4.485   5.729   1.597 -0.3050 -1.3513  0.3994
19579SOL    HW261180   4.380   5.813   1.667  0.9413  0.9044 -0.3426
19580SOL     OW61181   7.844   3.877   9.875 -0.1119  0.8790 -0.6133
19580SOL    HW161182   7.929   3.922   9.872 -0.1886  1.0517 -0.1615
19580SOL    HW261183   7.798   3.916   9.949 -0.7662  1.0961 -1.1203
19581SOL     OW61184   9.786  10.100   6.160 -0.2975 -0.0666 -0.1799
19581SOL    HW161185   9.791  10.035   6.229  0.4330 -0.9638 -1.0362
19581SOL    HW261186   9.714  10.071   6.104 -1.2177  0.9320  0.4499
19582SOL     OW61187   6.194   3.597   4.709  0.4984  0.3716  0.2504
19582SOL    HW161188   6.129   3.541   4.665 -0.7657  0.5951  1.7387
19582SOL    HW261189   6.268   3.539   4.727 -0.5867 -0.7447  1.3244
19583SOL     OW61190   6.406   7.414   9.518 -0.0232 -0.1830 -0.6108
19583SOL    HW161191   6.475   7.349   9.529  2.1014  1.9116 -0.6754
19583SOL    HW261192   6.373   7.429   9.606 -0.5047 -1.2850 -0.5914
19584SOL     OW61193   5.078   5.763   6.698 -0.1324  0.4702 -0.6119
19584SOL    HW161194   5.095   5.674   6.726 -0.4532  0.2259 -1.1785
19584SOL    HW261195   5.165   5.801   6.684  0.0046 -0.1802 -1.6660
19585SOL     OW61196   8.341   7.806   2.563  0.1068  0.1322 -0.3378
19585SOL    HW161197   8.400   7.825   2.490  1.9606  0.4797  1.1603
19585SOL    HW261198   8.350   7.712   2.578  1.4266  0.3993  0.7608
19586SOL     OW61199   7.716   8.734   6.905  0.3156  0.1772  0.2650
19586SOL    HW161200   7.628   8.754   6.873 -0.2668  1.4666  2.4874
19586SOL    HW261201   7.754   8.819   6.928  2.3488 -0.3008 -1.0185
19587SOL     OW61202   3.931   1.757   7.877  0.4701  0.1294 -0.3587
19587SOL    HW161203   3.923   1.713   7.961  0.8891 -0.7440 -0.7634
19587SOL    HW261204   3.982   1.696   7.823 -0.8357  0.1161 -1.6314
19588SOL     OW61205  10.379   3.656   0.073 -0.3634 -0.2043  0.7112
19588SOL    HW161206  10.358   3.578   0.125 -1.6765 -0.8793 -0.7325
19588SOL    HW261207  10.442   3.704   0.126 -1.2159 -1.1135  2.6721
19589SOL     OW61208   1.329   5.296   8.545  0.1341  0.8935  0.2940
19589SOL    HW161209   1.375   5.297   8.461  0.1789  1.2253  0.3219
19589SOL    HW261210   1.340   5.206   8.577  1.2864  1.1176  0.5787
19590SOL     OW61211   4.648   4.496   2.662  0.0637  0.4597 -0.6045
19590SOL    HW161212   4.628   4.513   2.570  2.3288  1.5900 -0.9470
19590SOL    HW261213   4.717   4.559   2.684  0.3558 -0.5249  1.5743
19591SOL     OW61214   8.434   4.357   5.296 -0.5383  0.3028 -0.8719
19591SOL    HW161215   8.408   4.266   5.307  0.5706 -0.2381 -2.3883
19591SOL    HW261216   8.528   4.353   5.278 -0.4885  1.7440 -1.0513
19592SOL     OW61217   2.323   8.368   3.632  0.3121  0.2544 -0.3285
19592SOL    HW161218   2.340   8.461   3.643  3.3993 -0.2878  0.7038
19592SOL    HW261219   2.275   8.342   3.711 -0.0131  0.8610 -0.3254
19593SOL     OW61220   1.753   2.646   5.785 -0.0096 -0.1136 -0.4927
19593SOL    HW161221   1.685   2.666   5.849  0.5761  0.9253 -0.1775
19593SOL    HW261222   1.758   2.724   5.730  2.0121  0.5363  0.4836
19594SOL     OW61223   6.209   6.802   2.254  0.2040 -0.4796 -0.2564
19594SOL    HW161224   6.204   6.814   2.159 -0.8454 -0.5061 -0.2121
19594SOL    HW261225   6.283   6.857   2.281  0.1300 -0.0001 -1.0052
19595SOL     OW61226   6.607   5.576   7.661 -0.0917 -0.0893  0.1053
19595SOL    HW161227   6.691   5.535   7.644 -0.1099  0.1377 -0.5695
19595SOL    HW261228   6.543   5.517   7.621 -0.3908 -0.9621  1.7646
19596SOL     OW61229   4.332  10.475   6.085 -0.0670 -0.2238  0.2959
19596SOL    HW161230   4.399  10.543   6.092  0.7416 -0.8777 -0.8100
19596SOL    HW261231   4.380  10.393   6.097 -1.0437 -0.6238  1.6897
19597SOL     OW61232   0.856   0.027   7.112 -0.1248 -0.1752  0.0372
19597SOL    HW161233   0.925   0.091   7.132 -0.3967 -0.0879  0.7157
19597SOL    HW261234   0.805   0.021   7.193 -0.3836 -0.9015 -0.1791
19598SOL     OW61235   4.519   9.115   5.263  0.2782 -0.1656 -0.6662
19598SOL    HW161236   4.549   9.159   5.183 -1.3418  1.7178 -0.3046
19598SOL    HW261237   4.436   9.073   5.237  0.6161 -1.0178 -0.3939
19599SOL     OW61238   5.550   3.105   7.957  0.3845 -0.0268  0.4062
19599SOL    HW161239   5.522   3.192   7.987 -0.1581  0.5183 -1.5125
19599SOL    HW261240   5.604   3.071   8.028 -1.2544  0.9082  2.1973
19600SOL     OW61241   9.084   2.517   4.830  0.6671 -0.1405  0.1753
19600SOL    HW161242   9.102   2.425   4.812  1.2701 -0.0819  0.4755
19600SOL    HW261243   9.034   2.516   4.911 -4.1303 -0.5911 -2.4122
19601SOL     OW61244  10.285   7.680   0.433 -0.3909 -0.1456  0.3593
19601SOL    HW161245  10.350   7.683   0.363  2.4970  0.0348  2.8570
19601SOL    HW261246  10.276   7.770   0.462 -0.1038 -0.4555  1.4441
19602SOL     OW61247   3.430  10.351   4.599 -0.0520 -0.1346 -0.2120
19602SOL    HW161248   3.484  10.378   4.525 -1.3613  0.6430 -0.9390
19602SOL    HW261249   3.433  10.256   4.597 -0.0812 -0.1344 -1.3093
19603SOL     OW61250  10.087   2.481   3.237  0.2477 -0.1801  0.0263
19603SOL    HW161251  10.112   2.536   3.163  2.6668 -1.5466 -0.2814
19603SOL    HW261252  10.127   2.396   3.218 -0.7850 -1.1644  1.9521
19604SOL     OW61253   1.584   6.125   5.326 -0.2986  0.1613 -0.0775
19604SOL    HW161254   1.563   6.038   5.361  1.6051 -0.1300  0.4781
19604SOL    HW261255   1.549   6.186   5.392 -2.2611 -0.1095 -0.8103
19605SOL     OW61256   2.399   6.433   2.176 -0.2294  0.4293  0.2795
19605SOL    HW161257   2.447   6.406   2.254 -0.4993 -0.3946  0.1707
19605SOL    HW261258   2.335   6.496   2.208  0.0032  0.4873  0.6381
19606SOL     OW61259   8.047   5.091   7.688 -0.3937  0.3598  0.0630
19606SOL    HW161260   8.089   5.139   7.760  2.2057  0.1483 -1.2064
19606SOL    HW261261   8.028   5.158   7.622 -0.7204  0.2233  0.0151
19607SOL     OW61262   8.296   6.162   6.054  0.1521 -0.1525 -0.9850
19607SOL    HW161263   8.350   6.185   5.978 -1.7157  1.4834 -1.9315
19607SOL    HW261264   8.213   6.133   6.016 -0.9667  1.0681  0.4024
19608SOL     OW61265   6.096   2.068   1.321 -0.1765  0.0651 -0.3967
19608SOL    HW161266   6.114   2.159   1.345  1.8391 -0.9303  2.4439
19608SOL    HW261267   6.005   2.054   1.345 -0.0187  0.9140  0.7837
19609SOL     OW61268   7.099   6.347   5.980 -0.2133 -0.0635 -0.1199
19609SOL    HW161269   7.026   6.409   5.984  0.6488  0.9418  0.5441
19609SOL    HW261270   7.152   6.367   6.057 -0.2241 -2.0499  0.4538
19610SOL     OW61271   7.460   4.635   2.383 -0.5230  0.0387  0.2600
19610SOL    HW161272   7.531   4.671   2.330 -1.1279  1.8175  0.5780
19610SOL    HW261273   7.381   4.659   2.337 -0.9907 -0.0942  0.9756
19611SOL     OW61274   3.086   7.913   6.097  0.0283  0.2118 -0.6261
19611SOL    HW161275   3.070   8.007   6.098  0.3411  0.2629  0.4387
19611SOL    HW261276   3.158   7.899   6.158  0.3693 -0.6580 -1.2039
19612SOL     OW61277   9.666   8.240   6.286 -0.7501  0.4944 -0.1964
19612SOL    HW161278   9.621   8.317   6.321 -2.3524  0.6047 -2.2593
19612SOL    HW261279   9.603   8.203   6.222  1.5067 -0.2389 -2.1426
19613SOL     OW61280   3.218   0.947   8.753 -0.8695  0.0744 -0.2609
19613SOL    HW161281   3.261   0.894   8.821  1.2340  1.1572 -0.6528
19613SOL    HW261282   3.154   0.999   8.801  0.4267  0.6644  0.9044
19614SOL     OW61283   3.477   3.672   1.394  0.3240  0.3879  0.3251
19614SOL    HW161284   3.409   3.718   1.345  0.3115 -0.8417 -0.8602
19614SOL    HW261285   3.559   3.704   1.357  0.4181  1.5208  1.4366
19615SOL     OW61286   9.633   1.735   1.349 -0.6827  0.6303 -0.0688
19615SOL    HW161287   9.580   1.675   1.402 -0.5965  1.0124  0.4648
19615SOL    HW261288   9.713   1.685   1.331 -1.2322  0.0361 -0.9196
19616SOL     OW61289   8.744   2.042   7.257 -1.0801  0.0294 -0.0901
19616SOL    HW161290   8.746   1.948   7.277 -0.3543  0.0873  0.1511
19616SOL    HW261291   8.737   2.046   7.162 -0.3892 -0.2865 -0.1664
19617SOL     OW61292   8.660   0.269   3.805 -0.0913 -0.2574 -0.0162
19617SOL    HW161293   8.750   0.302   3.810 -0.0024 -0.6222  1.0471
19617SOL    HW261294   8.618   0.304   3.883 -0.7717 -0.4210 -0.3029
19618SOL     OW61295   0.053   5.413   4.576 -0.4792 -0.4955 -0.5540
19618SOL    HW161296   0.030   5.447   4.489  2.5740  0.4879 -1.0984
19618SOL    HW261297   0.051   5.490   4.633  2.9350  0.0860 -1.0315
19619SOL     OW61298   5.492   3.053   3.224  0.6960  0.1074 -0.3399
19619SOL    HW161299   5.408   3.078   3.185 -0.0045 -2.4558 -0.6495
19619SOL    HW261300   5.557   3.077   3.158 -0.1156 -0.7330 -1.4940
19620SOL     OW61301   3.850   3.913   2.381 -0.0348  0.1460  0.7355
19620SOL    HW161302   3.755   3.921   2.378  0.0367  0.8653 -0.8000
19620SOL    HW261303   3.880   3.958   2.302  1.4768 -1.6019  0.2360
19621SOL     OW61304   9.048  10.036   5.584  0.2706  0.2396  0.1208
19621SOL    HW161305   9.030   9.955   5.536  0.9026  0.7555 -1.0257
19621SOL    HW261306   8.962  10.073   5.602  0.0099  0.3509 -1.2076
19622SOL     OW61307  10.435   9.157   8.895 -0.5292 -0.5106 -0.6296
19622SOL    HW161308  10.346   9.191   8.887 -0.4403  0.0656  0.6686
19622SOL    HW261309  10.490   9.234   8.905 -0.2167 -0.9375  1.3424
19623SOL     OW61310   7.764   3.414   1.521  0.0507  0.1719  0.0732
19623SOL    HW161311   7.711   3.471   1.467  0.8585  0.1274 -0.7821
19623SOL    HW261312   7.701   3.368   1.577 -0.5591  2.4766  1.3780
19624SOL     OW61313   0.619   0.786   0.883  0.6881  0.3118  0.0226
19624SOL    HW161314   0.609   0.744   0.969 -0.1869  0.1496 -0.1580
19624SOL    HW261315   0.714   0.790   0.871  0.8129 -0.3940  0.6427
19625SOL     OW61316   4.212   7.178   0.261 -0.5347  0.3420  0.3129
19625SOL    HW161317   4.297   7.219   0.275 -1.3341  1.8900  0.7808
19625SOL    HW261318   4.230   7.084   0.269  0.7972  0.6956  2.2662
19626SOL     OW61319   5.816   9.342   1.682  0.9413  0.4684 -0.2019
19626SOL    HW161320   5.904   9.381   1.683  1.7185 -1.1226 -1.7857
19626SOL    HW261321   5.788   9.351   1.591  0.6966 -1.5993 -0.3695
19627SOL     OW61322   6.205  10.031   0.631  0.7487  0.3591  0.2855
19627SOL    HW161323   6.190  10.114   0.676  1.4194  0.5705  0.1280
19627SOL    HW261324   6.246  10.055   0.548 -0.4037 -0.0336 -0.4216
19628SOL     OW61325  10.186   4.174   6.254 -0.4103 -0.4711  0.2472
19628SOL    HW161326  10.117   4.142   6.312 -1.5367  1.4661  0.0780
19628SOL    HW261327  10.208   4.098   6.199 -0.2038 -1.9903  2.3014
19629SOL     OW61328   2.708   0.345   5.664  0.0494  0.5460  0.2756
19629SOL    HW161329   2.782   0.382   5.713 -0.8898  1.9401  0.6875
19629SOL    HW261330   2.738   0.344   5.573  0.4954  1.3268  0.4008
19630SOL     OW61331   6.940   4.494   1.797  0.5180 -0.2046  0.5327
19630SOL    HW161332   7.007   4.440   1.840  0.2689 -1.1214 -0.2003
19630SOL    HW261333   6.990   4.548   1.735  0.9722  1.6669  2.4241
19631SOL     OW61334   9.203   2.136   4.997 -0.6241 -0.7631 -0.3664
19631SOL    HW161335   9.116   2.116   5.033 -0.4635 -1.1080 -0.1667
19631SOL    HW261336   9.184   2.181   4.914 -1.0076  0.9550  0.6060
19632SOL     OW61337   9.549   0.153   5.609 -0.4171 -0.4273 -0.3046
19632SOL    HW161338   9.578   0.062   5.598  1.9582  0.4955 -2.9728
19632SOL    HW261339   9.623   0.197   5.650  0.0946  0.9854 -2.5648
19633SOL     OW61340  10.446   2.584   3.262 -0.1717  0.0978  0.2567
19633SOL    HW161341  10.432   2.527   3.187  0.7527 -0.6901  0.6639
19633SOL    HW261342  10.501   2.656   3.228  1.6039 -1.0797  0.4925
19634SOL     OW61343   6.314   7.864   9.038  0.8215 -0.2342  0.3761
19634SOL    HW161344   6.252   7.859   8.965  0.7909  1.0093  0.2950
19634SOL    HW261345   6.288   7.793   9.096  0.7361 -1.1394 -0.7262
19635SOL     OW61346   2.880   6.098   4.034 -0.3472 -0.3503  0.4429
19635SOL    HW161347   2.946   6.115   4.102 -0.3277  1.7436 -0.0235
19635SOL    HW261348   2.827   6.178   4.032 -1.6875 -1.2339 -0.5352
19636SOL     OW61349   9.647   1.655   2.739  0.0072 -0.4170 -0.3695
19636SOL    HW161350   9.552   1.654   2.730  0.0721  0.0563 -1.2648
19636SOL    HW261351   9.669   1.572   2.780 -0.8316 -0.3273  0.2762
19637SOL     OW61352   8.633   8.186   9.467  0.0402  0.2749 -0.1641
19637SOL    HW161353   8.546   8.223   9.479  0.1072 -0.1203  1.8179
19637SOL    HW261354   8.684   8.220   9.541  0.6879 -1.9978  0.5106
19638SOL     OW61355   2.179   1.038   0.468  0.1224  0.2169  0.0537
19638SOL    HW161356   2.257   1.079   0.506  1.4283 -0.2250 -1.9953
19638SOL    HW261357   2.134   1.110   0.423  0.7184  0.0317 -0.8672
19639SOL     OW61358   3.963   1.021   4.018  0.0413 -0.3042 -0.0855
19639SOL    HW161359   3.922   1.084   3.958  1.7491  0.2043 -0.7770
19639SOL    HW261360   3.975   0.942   3.965 -0.0584 -0.4561  0.1183
19640SOL     OW61361   7.593   1.003   2.230  0.4934  0.2912 -0.3387
19640SOL    HW161362   7.526   1.062   2.197  0.4347  0.6670  0.4087
19640SOL    HW261363   7.655   1.061   2.276  0.9055 -0.1330 -0.3484
19641SOL     OW61364   7.419   5.757   4.307  0.4395 -0.3864  0.1697
19641SOL    HW161365   7.417   5.793   4.395  0.4936 -2.6635  1.1489
19641SOL    HW261366   7.327   5.748   4.282  0.4246  0.2225 -0.0318
19642SOL     OW61367   0.026   8.653   7.486 -0.3178 -0.0184  0.3686
19642SOL    HW161368   0.002   8.725   7.428 -2.1493 -1.4042 -0.6961
19642SOL    HW261369   0.119   8.637   7.466 -0.3509  0.8814 -0.6491
19643SOL     OW61370   8.680   8.817   1.222 -0.1487 -0.5414 -0.0077
19643SOL    HW161371   8.675   8.890   1.284 -0.4880  0.1218 -0.7973
19643SOL    HW261372   8.751   8.842   1.163  0.8555 -1.6467  0.7002
19644SOL     OW61373   9.120   3.183   6.428  0.2430  0.0031 -0.1802
19644SOL    HW161374   9.142   3.145   6.343  0.7273 -1.2328  0.4656
19644SOL    HW261375   9.053   3.248   6.409  1.2949  0.6945 -1.6623
19645SOL     OW61376   8.256   6.485   6.002  0.3140 -0.3440  0.0953
19645SOL    HW161377   8.249   6.501   6.096 -0.4291 -1.0195  0.1721
19645SOL    HW261378   8.179   6.432   5.981  1.2158 -1.4295 -0.6177
19646SOL     OW61379   2.445   8.713   5.252 -0.2418 -0.0072  0.0074
19646SOL    HW161380   2.516   8.723   5.189 -0.9490 -1.7846 -1.1467
19646SOL    HW261381   2.441   8.797   5.298  2.5020  0.1790  0.0364
19647SOL     OW61382   0.007   6.361   1.533  0.0880 -0.0166 -0.8980
19647SOL    HW161383  -0.081   6.372   1.570 -0.6502 -0.3498 -2.4800
19647SOL    HW261384   0.059   6.325   1.605 -0.8495  0.9993  0.3095
19648SOL     OW61385   7.277   4.070   1.997  0.2094 -0.2314 -0.4866
19648SOL    HW161386   7.224   4.148   2.008  0.3637 -0.0078 -1.2459
19648SOL    HW261387   7.360   4.102   1.962  1.0156 -0.5274  1.0596
19649SOL     OW61388   7.697   9.547   5.978  0.0848  0.3885 -0.2470
19649SOL    HW161389   7.715   9.520   6.068  1.3021  1.0357 -0.2679
19649SOL    HW261390   7.635   9.482   5.945  0.3618 -0.4060  0.7474
19650SOL     OW61391   6.488   3.498   6.113 -1.3429  0.4526  0.7824
19650SOL    HW161392   6.439   3.574   6.082 -0.7796  0.2535 -0.6654
19650SOL    HW261393   6.577   3.512   6.082 -0.6745  0.3271  2.5397
19651SOL     OW61394   9.397   2.360   3.716 -0.0529  0.1880  0.2875
19651SOL    HW161395   9.345   2.440   3.703 -0.9645 -0.4411 -0.0784
19651SOL    HW261396   9.394   2.345   3.811 -0.7449  0.0456  0.2519
19652SOL     OW61397  10.438   3.534   1.650 -0.1560  0.2006  0.1138
19652SOL    HW161398  10.410   3.477   1.578  1.2754  1.8522 -1.8617
19652SOL    HW261399  10.360   3.586   1.670 -1.2997 -1.9416  1.5305
19653SOL     OW61400   4.818   4.754   0.551  0.1019  0.2153  0.4317
19653SOL    HW161401   4.774   4.729   0.632  1.6380 -0.3427  1.1402
19653SOL    HW261402   4.816   4.850   0.551  0.1220  0.2206  1.1535
19654SOL     OW61403   0.296   6.414   3.500 -0.5214 -0.1895  0.1557
19654SOL    HW161404   0.221   6.384   3.550 -1.1458 -0.6758 -1.0352
19654SOL    HW261405   0.324   6.338   3.449  0.8586 -0.0544  0.6597
19655SOL     OW61406   8.319   1.170  10.167 -0.0732 -0.0217 -0.9817
19655SOL    HW161407   8.255   1.225  10.121  0.8496  1.6825 -0.3067
19655SOL    HW261408   8.388   1.231  10.194  0.6032 -1.3815  0.5004
19656SOL     OW61409   7.064   4.449  10.284  0.0596 -0.3792  0.4033
19656SOL    HW161410   6.991   4.427  10.225  0.5452 -1.6399  0.2450
19656SOL    HW261411   7.105   4.525  10.243  0.1556 -1.0034 -0.7195
19657SOL     OW61412  10.399   5.885   3.785  0.4803  0.0627 -0.0930
19657SOL    HW161413  10.448   5.898   3.703  0.9991 -0.6123  0.0957
19657SOL    HW261414  10.445   5.813   3.828  0.9457  1.1963  1.3584
19658SOL     OW61415   0.273   0.745   0.302  0.2073  0.4269  0.1965
19658SOL    HW161416   0.241   0.762   0.213  2.5838 -0.4947 -0.9158
19658SOL    HW261417   0.365   0.771   0.299 -0.0322  1.9586  2.9235
19659SOL     OW61418   4.370   5.300   2.121 -0.4373  0.4414  0.0367
19659SOL    HW161419   4.399   5.298   2.030  0.4429  0.1274  0.3177
19659SOL    HW261420   4.355   5.208   2.144 -1.3333  0.5671  0.0101
19660SOL     OW61421   7.745   0.710   1.067 -0.4483  0.0659  0.3008
19660SOL    HW161422   7.687   0.698   0.992  0.4986  1.8199 -0.7803
19660SOL    HW261423   7.754   0.623   1.105 -0.0720 -1.1076 -2.2963
19661SOL     OW61424   9.633   2.537   5.174  0.3105  0.6762  0.4509
19661SOL    HW161425   9.564   2.588   5.132 -0.5191  1.4269  2.5870
19661SOL    HW261426   9.586   2.483   5.239  1.6572  0.7443  1.5197
19662SOL     OW61427   4.189   8.541   4.603  0.1868  0.1769  0.0411
19662SOL    HW161428   4.095   8.540   4.617  0.0757  2.2599 -0.2392
19662SOL    HW261429   4.206   8.466   4.546 -1.4490  0.3446 -0.7093
19663SOL     OW61430   2.540   1.667   3.756  0.3230 -0.6672 -0.7728
19663SOL    HW161431   2.507   1.644   3.843  2.1492 -0.0563  0.1397
19663SOL    HW261432   2.596   1.594   3.731  1.2075 -0.0672 -0.6152
19664SOL     OW61433   7.178   6.487   6.220 -0.3963 -0.2529  0.2431
19664SOL    HW161434   7.098   6.483   6.272 -1.3230 -1.3455 -1.2070
19664SOL    HW261435   7.244   6.521   6.281 -2.1130  1.5072  1.2411
19665SOL     OW61436   6.409   3.988   1.868  0.1779  0.0995  0.4651
19665SOL    HW161437   6.402   3.893   1.867  0.4272  0.0481  1.8063
19665SOL    HW261438   6.503   4.005   1.880  0.2492  0.5362 -0.6198
19666SOL     OW61439   6.225   8.271   4.833 -1.0926 -0.4957  0.3725
19666SOL    HW161440   6.290   8.316   4.887 -0.6630 -2.0248  1.1952
19666SOL    HW261441   6.158   8.337   4.815  0.8297  1.2135 -0.8085
19667SOL     OW61442  10.159   6.659   3.085  0.0882 -0.4490 -0.5052
19667SOL    HW161443  10.184   6.686   3.174  0.3957  0.5623 -0.8842
19667SOL    HW261444  10.184   6.566   3.080 -0.6120 -0.7202  0.7018
19668SOL     OW61445  10.243   3.786   1.213  0.2470  0.7560  0.0575
19668SOL    HW161446  10.331   3.808   1.184  0.2932  0.1514 -0.2715
19668SOL    HW261447  10.225   3.849   1.283  1.4975 -0.0027  1.1068
19669SOL     OW61448   3.396   2.746   0.076 -0.3596  0.2780 -0.2958
19669SOL    HW161449   3.369   2.837   0.087 -0.0315  0.6543 -2.2343
19669SOL    HW261450   3.472   2.750   0.018 -0.8992 -1.2802 -1.1693
19670SOL     OW61451   5.395   0.396   5.853  0.6140  0.3004  0.1581
19670SOL    HW161452   5.336   0.330   5.890  0.7095  0.4961  0.6773
19670SOL    HW261453   5.469   0.399   5.914 -0.2886  2.2642  1.2519
19671SOL     OW61454   6.774  10.319  10.127 -0.0199 -0.7252 -0.0045
19671SOL    HW161455   6.846  10.262  10.099  0.5384  0.4218 -0.9635
19671SOL    HW261456   6.774  10.391  10.064 -0.4905  0.5282  1.3636
19672SOL     OW61457   4.118   2.741   0.507 -0.2579  0.2772 -0.6189
19672SOL    HW161458   4.133   2.686   0.584 -0.5248 -0.4132 -1.0534
19672SOL    HW261459   4.153   2.826   0.532 -2.0935  0.6395  1.0194
19673SOL     OW61460   7.680   8.691   0.939 -0.1775 -0.3667 -0.2388
19673SOL    HW161461   7.606   8.642   0.903  0.5746 -0.7450 -1.2959
19673SOL    HW261462   7.679   8.671   1.033 -1.0260 -0.8642 -0.3483
19674SOL     OW61463   6.542   2.453   9.697  0.1115  0.7874  0.4021
19674SOL    HW161464   6.574   2.538   9.728  0.7925  0.9784 -0.7394
19674SOL    HW261465   6.612   2.421   9.639  0.2584 -0.9677  1.4808
19675SOL     OW61466   6.388   1.276   9.677  0.1835  0.6647 -0.1563
19675SOL    HW161467   6.431   1.355   9.643  0.6903  0.6758  0.4840
19675SOL    HW261468   6.438   1.254   9.756 -0.9922  0.6548  0.5942
19676SOL     OW61469   0.529   2.526  10.004 -0.9675  0.3349  0.3624
19676SOL    HW161470   0.593   2.593  10.030  1.5442 -2.2324  1.3248
19676SOL    HW261471   0.517   2.540   9.910  1.6015  0.5619 -0.0313
19677SOL     OW61472   7.287   0.237   0.690 -0.6947  0.3864 -0.0358
19677SOL    HW161473   7.193   0.220   0.682 -1.1214  2.5616 -0.2524
19677SOL    HW261474   7.311   0.196   0.774 -1.7172 -0.5594 -0.1747
19678SOL     OW61475   2.260   9.256   4.582 -0.2281 -0.1853 -0.3198
19678SOL    HW161476   2.177   9.224   4.548 -1.0487  0.6698  0.7591
19678SOL    HW261477   2.278   9.336   4.532  0.7410 -1.1688 -1.5824
19679SOL     OW61478   8.297   3.703   0.043 -0.9042  0.0479 -0.0884
19679SOL    HW161479   8.387   3.724   0.016  0.1508 -2.2952  1.2861
19679SOL    HW261480   8.302   3.696   0.138 -2.4989 -0.3586 -0.0090
19680SOL     OW61481   3.729   2.202   8.384  0.3438 -0.2640  0.3432
19680SOL    HW161482   3.636   2.183   8.382  0.2670  0.1057 -1.6977
19680SOL    HW261483   3.737   2.287   8.341  1.7569 -1.0786 -1.1248
19681SOL     OW61484   7.362   3.358   7.764 -0.4155  0.6171  0.0864
19681SOL    HW161485   7.420   3.294   7.803 -0.8139  0.2335  0.0599
19681SOL    HW261486   7.280   3.349   7.813 -1.4023 -0.8636 -1.6946
19682SOL     OW61487   3.505   8.036   4.636  0.0387  0.0155  0.4758
19682SOL    HW161488   3.492   8.015   4.544 -1.4255 -0.0575  0.6725
19682SOL    HW261489   3.421   8.071   4.665  0.2281 -0.6585  1.9609
19683SOL     OW61490   3.682  10.395   1.946 -0.1014 -0.4569 -0.6287
19683SOL    HW161491   3.770  10.370   1.917  0.0623  1.6593 -2.1175
19683SOL    HW261492   3.625  10.373   1.872 -0.5323 -0.0733 -0.4134
19684SOL     OW61493   7.791   0.086   8.418  0.2446 -0.3553  0.2344
19684SOL    HW161494   7.751   0.015   8.367  2.6142 -1.0364 -0.8573
19684SOL    HW261495   7.798   0.159   8.357 -0.4800  0.2030  0.8021
19685SOL     OW61496  10.223   1.282   7.574 -0.3016  0.2932  0.1646
19685SOL    HW161497  10.277   1.350   7.533 -0.9556  0.1822 -0.9462
19685SOL    HW261498  10.154   1.330   7.618 -1.6632  0.3851 -1.9152
19686SOL     OW61499   1.817   5.646   4.764  0.1320  0.0535  0.0359
19686SOL    HW161500   1.838   5.737   4.744 -0.7102  0.3417  0.4290
19686SOL    HW261501   1.722   5.640   4.751  0.3684 -1.1672 -1.5470
19687SOL     OW61502   2.399   7.993   3.869  0.6995 -0.5473  0.4714
19687SOL    HW161503   2.355   8.039   3.798  0.6449 -0.3303  0.6430
19687SOL    HW261504   2.372   8.040   3.949  0.7602 -0.7856  0.6338
19688SOL     OW61505   4.749   3.179   5.888 -0.1153 -0.0573 -0.1602
19688SOL    HW161506   4.766   3.113   5.821  0.5678 -0.7208  0.6554
19688SOL    HW261507   4.697   3.133   5.954 -0.1761  0.3980  0.1146
19689SOL     OW61508   5.968   4.717   3.437  0.5449 -0.0783 -0.3275
19689SOL    HW161509   5.978   4.667   3.518 -2.4338  0.3432  0.4149
19689SOL    HW261510   5.984   4.653   3.367 -2.5566 -2.0988  0.6035
19690SOL     OW61511   4.821   8.746   9.081  0.1252 -0.1691 -0.5744
19690SOL    HW161512   4.764   8.697   9.022 -1.7623 -1.2053  1.8978
19690SOL    HW261513   4.770   8.824   9.103  0.6713  0.0635 -0.1249
19691SOL     OW61514   8.725   6.341   0.485 -0.4602  0.3882 -0.3735
19691SOL    HW161515   8.803   6.342   0.541 -0.3271 -1.1051 -0.5160
19691SOL    HW261516   8.758   6.318   0.398 -0.8578  1.3455 -0.7975
19692SOL     OW61517   9.010   3.554   4.270  0.2383 -0.1423 -0.0872
19692SOL    HW161518   9.070   3.614   4.312  0.1513  1.5969 -2.2439
19692SOL    HW261519   9.019   3.573   4.176 -0.5999 -2.7632 -0.7951
19693SOL     OW61520   0.440   6.052   5.596 -0.1560  0.1446 -0.2503
19693SOL    HW161521   0.455   6.143   5.622 -1.9976  0.3085  0.3938
19693SOL    HW261522   0.468   6.000   5.672  0.9452  0.1453 -0.6378
19694SOL     OW61523   4.148   2.972   8.549  0.6178  0.0134  0.2467
19694SOL    HW161524   4.190   2.900   8.596  0.1475 -0.9016 -0.6960
19694SOL    HW261525   4.093   3.014   8.615 -0.9216 -1.9459  0.3320
19695SOL     OW61526   7.821   4.055   6.694 -0.2218 -0.4325  1.0526
19695SOL    HW161527   7.830   3.979   6.637  0.9450 -0.3013  1.0482
19695SOL    HW261528   7.907   4.067   6.733  0.6142  2.7128 -1.2910
19696SOL     OW61529   3.781   7.989   1.563  0.5457 -0.2144 -1.1253
19696SOL    HW161530   3.863   7.941   1.553 -0.9895 -3.5328  0.5080
19696SOL    HW261531   3.808   8.080   1.572  4.0894 -1.1738 -0.2463
19697SOL     OW61532   9.425   1.878   7.911  0.1790  0.0430  0.2170
19697SOL    HW161533   9.354   1.922   7.958  0.8530  2.8507 -1.1658
19697SOL    HW261534   9.505   1.916   7.948  0.8550 -0.8636 -0.2707
19698SOL     OW61535   0.219   1.422   4.238 -0.9561  0.0341  0.2761
19698SOL    HW161536   0.181   1.462   4.316  0.3416 -1.1300  1.5725
19698SOL    HW261537   0.314   1.422   4.255 -0.5426  0.5617 -1.7183
19699SOL     OW61538   0.797   2.912   1.289  0.2704 -0.2284  0.0321
19699SOL    HW161539   0.805   2.902   1.194  2.0286  1.5758 -0.0790
19699SOL    HW261540   0.888   2.916   1.320 -0.2665  1.2463  1.5337
19700SOL     OW61541   9.101   3.922   7.812 -0.1504  0.1112 -0.5299
19700SOL    HW161542   9.189   3.948   7.783 -0.0049  0.9194  0.5923
19700SOL    HW261543   9.117   3.847   7.869 -0.2798 -0.3257 -1.0609
19701SOL     OW61544   1.794   1.520   8.417 -0.1669  0.1326  0.0899
19701SOL    HW161545   1.791   1.462   8.493  1.9682  1.4438  1.2854
19701SOL    HW261546   1.706   1.558   8.411 -0.0708  0.9404  2.7393
19702SOL     OW61547   3.418   6.864   0.038 -0.1821  0.5170 -0.4049
19702SOL    HW161548   3.342   6.834  -0.012 -0.0043  0.6477 -0.7541
19702SOL    HW261549   3.384   6.881   0.126 -1.1493  3.1035 -1.1913
19703SOL     OW61550   6.141   5.597   5.076  0.3326 -0.0991  0.3913
19703SOL    HW161551   6.046   5.601   5.082  0.3023  1.3551 -0.4644
19703SOL    HW261552   6.168   5.541   5.148 -1.1697 -0.5206  0.6472
19704SOL     OW61553   2.248   3.706   1.421  0.1993  0.2180  0.1321
19704SOL    HW161554   2.203   3.782   1.385 -0.8290 -0.3983  0.0587
19704SOL    HW261555   2.328   3.698   1.369 -0.1972  0.6277 -0.5614
19705SOL     OW61556   4.401   5.197   0.545  0.5604  0.1057  0.2187
19705SOL    HW161557   4.381   5.119   0.495 -1.0326  0.9568 -0.5614
19705SOL    HW261558   4.344   5.192   0.622  1.6692 -0.2918  1.0469
19706SOL     OW61559   3.178   5.619   7.883 -0.2314  0.0471 -0.0098
19706SOL    HW161560   3.170   5.525   7.873 -2.6303 -0.0709  1.9580
19706SOL    HW261561   3.099   5.645   7.931  1.6140  2.6633  1.9308
19707SOL     OW61562   7.374   5.073   4.869 -0.0510  0.2290 -0.4157
19707SOL    HW161563   7.295   5.052   4.820 -0.3265 -2.2843  0.9824
19707SOL    HW261564   7.346   5.079   4.960  1.2205  0.0406  0.0132
19708SOL     OW61565   8.077   7.315   6.022 -0.5980  0.3307 -0.1534
19708SOL    HW161566   8.026   7.281   6.096 -0.7632 -0.4925 -0.6470
19708SOL    HW261567   8.124   7.390   6.059 -0.3723 -0.3097  0.8946
19709SOL     OW61568   2.896   3.896   2.925 -0.0755 -0.5689 -0.1421
19709SOL    HW161569   2.991   3.885   2.920  0.3399  0.8053  2.8973
19709SOL    HW261570   2.863   3.808   2.944  0.5848 -0.9689 -0.7614
19710SOL     OW61571   4.297   7.595   0.396  0.6509 -0.2703 -0.8233
19710SOL    HW161572   4.212   7.558   0.420 -0.2349  1.1007 -1.6588
19710SOL    HW261573   4.316   7.659   0.465  1.8919 -1.7786  0.3036
19711SOL     OW61574   7.330   0.668   2.017  0.2162  0.0316 -0.4218
19711SOL    HW161575   7.409   0.709   2.052 -0.7298 -0.0457  1.9501
19711SOL    HW261576   7.324   0.584   2.063 -1.2642  0.0360 -0.5773
19712SOL     OW61577   7.785   4.606   3.212 -0.1239 -0.2947 -0.3013
19712SOL    HW161578   7.700   4.626   3.252  0.4615  0.1458  0.7730
19712SOL    HW261579   7.764   4.545   3.141 -1.3191 -0.3048  0.0267
19713SOL     OW61580   1.169   1.644   4.011 -0.4354 -0.1472  0.0989
19713SOL    HW161581   1.224   1.676   3.940 -2.3337  3.2447 -0.0419
19713SOL    HW261582   1.091   1.609   3.968 -0.3132 -0.8738  0.4480
19714SOL     OW61583   3.323   2.263   2.774 -0.2558  0.9456  0.4501
19714SOL    HW161584   3.359   2.352   2.772 -1.9093  1.7165 -3.0455
19714SOL    HW261585   3.338   2.229   2.686 -0.5408 -1.9394  1.4030
19715SOL     OW61586   4.283   9.745   7.132 -0.0971  0.4398 -0.2818
19715SOL    HW161587   4.258   9.837   7.123 -0.0473  0.2949 -2.3395
19715SOL    HW261588   4.209   9.696   7.096 -0.3654 -0.4017  1.2818
19716SOL     OW61589   4.779   7.922   8.695 -0.6950 -0.4045  0.0741
19716SOL    HW161590   4.742   7.986   8.634 -1.0360  0.5903  1.2732
19716SOL    HW261591   4.715   7.918   8.767  0.3341 -0.5302  1.0004
19717SOL     OW61592   7.839   4.341   1.733 -0.1234  0.1786 -0.0707
19717SOL    HW161593   7.847   4.252   1.699  0.8282 -0.4375  1.6282
19717SOL    HW261594   7.921   4.384   1.708  0.1076  0.0694  0.4997
19718SOL     OW61595   4.665   0.998   6.770  0.4424  0.2859  1.1906
19718SOL    HW161596   4.600   0.987   6.700  1.3038 -0.6077  0.5038
19718SOL    HW261597   4.642   1.080   6.812 -0.6365  0.3859  0.4259
19719SOL     OW61598   6.935   0.556   3.642  0.6000 -0.4609  0.2700
19719SOL    HW161599   6.854   0.597   3.610  1.4263  0.4250 -0.7895
19719SOL    HW261600   6.980   0.626   3.690  0.7598 -0.9314  0.8077
19720SOL     OW61601   8.027  10.353   2.170 -0.4443 -0.3628 -0.0155
19720SOL    HW161602   7.950  10.314   2.127 -0.9065  0.8754 -0.3443
19720SOL    HW261603   8.074  10.397   2.099  0.4824 -0.9566  0.2180
19721SOL     OW61604   3.410   8.898   1.787  0.3167 -0.0299  0.6404
19721SOL    HW161605   3.388   8.909   1.880 -0.3911  1.4227  0.3323
19721SOL    HW261606   3.365   8.970   1.743 -1.2051 -1.9459 -1.1411
19722SOL     OW61607   9.668   6.400   3.665  0.0242 -0.3225  0.6464
19722SOL    HW161608   9.582   6.365   3.689  0.3287 -1.8130 -0.2958
19722SOL    HW261609   9.731   6.344   3.710  0.5294 -1.2053 -1.0719
19723SOL     OW61610   3.043   5.286   5.791 -0.2858 -0.0447 -0.4106
19723SOL    HW161611   3.110   5.218   5.783  0.0839  0.2519  0.1106
19723SOL    HW261612   2.965   5.240   5.821 -0.0902 -0.2690 -0.2436
19724SOL     OW61613   4.228   6.366   9.753 -0.6934  0.0375  0.1183
19724SOL    HW161614   4.263   6.453   9.775  0.2667 -0.3016  0.0026
19724SOL    HW261615   4.239   6.315   9.833  2.2195 -1.0197 -0.7956
19725SOL     OW61616   5.442  10.305   7.043  0.7364  0.3729  0.0940
19725SOL    HW161617   5.473  10.395   7.031  0.1241  0.5174 -0.4900
19725SOL    HW261618   5.476  10.258   6.967  0.6244  0.2397  0.1261
19726SOL     OW61619   8.202   9.097   4.973 -0.0349  0.0110 -0.4735
19726SOL    HW161620   8.147   9.109   5.051 -1.2414 -1.4249 -1.0531
19726SOL    HW261621   8.288   9.077   5.008 -0.4442 -0.1493  0.4942
19727SOL     OW61622   0.129   5.823   4.920  0.1160 -0.4450  0.3960
19727SOL    HW161623   0.108   5.812   5.013 -1.1654  0.2842  0.2293
19727SOL    HW261624   0.142   5.734   4.887  1.9265 -0.6354  1.5369
19728SOL     OW61625   8.762   9.735   1.768  0.2940 -0.2450  0.0192
19728SOL    HW161626   8.693   9.799   1.785  2.3901  2.5392 -1.1735
19728SOL    HW261627   8.731   9.684   1.694 -0.7185  0.5621 -0.1296
19729SOL     OW61628   7.178   2.708   5.384  0.1262 -0.5447 -0.6856
19729SOL    HW161629   7.233   2.784   5.368 -0.1739  0.1207  1.1786
19729SOL    HW261630   7.093   2.745   5.409  0.7875 -1.3170  3.2285
19730SOL     OW61631   6.349   5.772   7.672 -0.1321  0.7335  0.4858
19730SOL    HW161632   6.337   5.748   7.580  2.8172 -0.3038  0.2648
19730SOL    HW261633   6.263   5.802   7.700 -0.8679  2.2466 -2.9077
19731SOL     OW61634   4.481   0.953   8.501  0.2033 -0.0727  0.2513
19731SOL    HW161635   4.477   1.030   8.558 -0.0023 -0.6128  0.9820
19731SOL    HW261636   4.483   0.988   8.413 -2.6226  0.7492  0.4091
19732SOL     OW61637   6.380   6.896  10.148  0.3068  0.1989  0.3321
19732SOL    HW161638   6.346   6.859  10.066 -0.3714  0.8776  0.2886
19732SOL    HW261639   6.439   6.966  10.119  1.5902 -0.8177  0.4132
19733SOL     OW61640   1.140   8.755   7.828 -0.0087 -0.5620  1.0665
19733SOL    HW161641   1.181   8.834   7.863 -2.0062  0.5233  1.1083
19733SOL    HW261642   1.130   8.773   7.735  0.2242 -1.0869  0.9400
19734SOL     OW61643   2.837  10.252   4.331 -0.3233  0.4519 -0.1788
19734SOL    HW161644   2.840  10.348   4.337  0.3488  0.4632 -0.6932
19734SOL    HW261645   2.806  10.235   4.242 -1.6126  0.1912  0.2960
19735SOL     OW61646   8.601   6.219   1.439  0.2370  0.5866 -0.0088
19735SOL    HW161647   8.520   6.191   1.396  0.5895 -1.2088  0.3768
19735SOL    HW261648   8.608   6.312   1.421 -1.1930  0.4883 -1.2326
19736SOL     OW61649   9.601   2.300   5.910 -0.1954 -0.1765  0.5006
19736SOL    HW161650   9.656   2.375   5.930 -0.1460 -0.1337  0.2079
19736SOL    HW261651   9.577   2.311   5.818  0.6828 -1.0611  0.1378
19737SOL     OW61652   0.707   8.210   2.905  0.0803  0.0859 -0.4558
19737SOL    HW161653   0.758   8.211   2.824 -0.2734  0.1551 -0.6786
19737SOL    HW261654   0.729   8.127   2.946  0.5372  0.2094 -0.4473
19738SOL     OW61655   9.906   4.561   3.749  0.2065  0.6160 -0.0970
19738SOL    HW161656   9.956   4.569   3.831 -1.5696  0.2705  1.0788
19738SOL    HW261657   9.929   4.474   3.716  1.1292  0.8559 -0.1185
19739SOL     OW61658   7.896   1.750   7.078  0.2715 -0.9871  0.2933
19739SOL    HW161659   7.852   1.828   7.113  1.0273 -0.3733 -0.1143
19739SOL    HW261660   7.899   1.690   7.152  0.9337 -0.0949  1.0074
19740SOL     OW61661  10.244   6.387   3.054 -0.5220 -0.0266 -0.8554
19740SOL    HW161662  10.289   6.393   2.970 -0.3136 -1.9677 -0.9190
19740SOL    HW261663  10.271   6.303   3.091 -2.0584 -0.0752  0.2916
19741SOL     OW61664   7.059   1.368   7.226 -0.0405  0.0797 -0.1718
19741SOL    HW161665   7.127   1.339   7.287  0.1051  1.4008  0.3297
19741SOL    HW261666   7.026   1.449   7.264 -0.4737  0.5421 -1.4721
19742SOL     OW61667  10.429   5.753   4.468  0.0488 -0.1275  0.5801
19742SOL    HW161668  10.443   5.841   4.433  1.0285 -0.4156  0.2075
19742SOL    HW261669  10.344   5.727   4.434  0.1834  0.2991 -0.1159
19743SOL     OW61670   7.183   0.635   6.895 -0.3565 -0.4983  0.2282
19743SOL    HW161671   7.117   0.703   6.903  1.8169  2.3084 -3.0502
19743SOL    HW261672   7.244   0.652   6.967  0.2221  1.2247 -0.6182
19744SOL     OW61673   0.658   9.072   1.774  0.8718 -0.5144  0.5776
19744SOL    HW161674   0.610   9.152   1.755  0.6806 -0.4331  1.3803
19744SOL    HW261675   0.625   9.009   1.709  0.0746 -0.3075  0.7712
19745SOL     OW61676   1.523   1.742   4.632  0.2502 -0.2065 -0.4019
19745SOL    HW161677   1.456   1.676   4.611 -0.3685  0.4062 -0.4074
19745SOL    HW261678   1.605   1.694   4.630 -0.2642 -1.1535  0.4100
19746SOL     OW61679   4.498   5.227   4.591 -1.1043 -0.5768 -0.9020
19746SOL    HW161680   4.570   5.237   4.653 -0.6981  1.2937 -1.6170
19746SOL    HW261681   4.422   5.204   4.645 -0.7253  0.8344  0.2855
19747SOL     OW61682   0.310   4.604   7.621  0.4910 -0.0927  0.1701
19747SOL    HW161683   0.229   4.582   7.575 -1.3370  2.5260  1.8536
19747SOL    HW261684   0.343   4.681   7.576  1.6805 -0.7229 -0.0614
19748SOL     OW61685   4.169   6.603   8.245 -0.5425 -0.1018  0.6050
19748SOL    HW161686   4.210   6.531   8.294  0.1620  1.4311  2.4119
19748SOL    HW261687   4.086   6.567   8.214  0.8355 -2.4157 -0.6592
19749SOL     OW61688   2.691   4.502   1.779 -0.3738 -0.6097  0.0576
19749SOL    HW161689   2.616   4.525   1.835 -0.9515 -0.5750 -0.7170
19749SOL    HW261690   2.754   4.463   1.839 -0.8461 -0.2657  0.7952
19750SOL     OW61691   4.497   2.400   9.833 -0.2259  0.0860  0.1644
19750SOL    HW161692   4.450   2.422   9.753 -2.1212  0.3898  1.2972
19750SOL    HW261693   4.482   2.306   9.845  0.1716  0.0127  0.0945
19751SOL     OW61694   4.031   3.456   3.541 -0.2528  0.1516 -0.8380
19751SOL    HW161695   3.940   3.462   3.570 -0.1793  0.0356 -0.5834
19751SOL    HW261696   4.058   3.547   3.529  0.0557  0.2648  0.5237
19752SOL     OW61697   4.261   2.338   0.861 -0.0953  0.0471  0.4668
19752SOL    HW161698   4.346   2.294   0.856 -0.9552 -1.5524 -1.6176
19752SOL    HW261699   4.224   2.306   0.944  1.5461  1.3511  1.7927
19753SOL     OW61700   8.902   7.208   3.299 -0.1359  0.7391 -0.2366
19753SOL    HW161701   8.859   7.251   3.226 -2.3363  0.3369  0.7495
19753SOL    HW261702   8.912   7.117   3.271 -2.8384  0.0833  0.5986
19754SOL     OW61703   0.150   7.096   6.874 -0.0549  0.4746 -0.1341
19754SOL    HW161704   0.182   7.132   6.956  1.6104  0.7268 -0.8630
19754SOL    HW261705   0.153   7.169   6.812  0.6340 -0.1908 -0.9132
19755SOL     OW61706   7.514   3.824   0.861 -0.3551 -0.3793 -0.6022
19755SOL    HW161707   7.419   3.828   0.868 -0.2957 -0.7599  0.5080
19755SOL    HW261708   7.546   3.879   0.932  0.2687  0.9101 -1.8255
19756SOL     OW61709   7.483   2.569   7.185  0.1779 -0.2663 -0.1059
19756SOL    HW161710   7.447   2.518   7.259 -0.5227  0.5912  0.1618
19756SOL    HW261711   7.459   2.518   7.108 -0.4796 -0.3758  0.1632
19757SOL     OW61712  10.467   3.993   9.698 -0.7952  0.1068  0.1214
19757SOL    HW161713  10.440   3.968   9.610  1.7583  0.3531 -0.7974
19757SOL    HW261714  10.556   3.958   9.708 -1.6444 -1.5855  3.3552
19758SOL     OW61715   3.384   0.282   1.674  0.1168  0.1302  0.2007
19758SOL    HW161716   3.324   0.313   1.606 -0.6105  0.6139  1.0417
19758SOL    HW261717   3.463   0.256   1.627 -1.0707 -1.4212 -1.0657
19759SOL     OW61718   8.532   0.290   7.957  0.1479  0.4134  0.2174
19759SOL    HW161719   8.529   0.368   7.903 -2.8697 -0.0545 -0.4874
19759SOL    HW261720   8.621   0.256   7.946  0.4799  1.8436 -2.2363
19760SOL     OW61721   1.051   7.576   2.748 -0.5652 -0.4332 -0.4177
19760SOL    HW161722   1.059   7.653   2.805  1.2517  1.1655 -2.6929
19760SOL    HW261723   1.029   7.505   2.809 -0.2953  1.4342  2.0561
19761SOL     OW61724   8.739   0.492   7.244  0.2626 -0.1405  0.2824
19761SOL    HW161725   8.660   0.544   7.229 -0.1111 -0.9189 -0.5440
19761SOL    HW261726   8.720   0.441   7.322  0.0948 -0.0371  0.3083
19762SOL     OW61727   0.439   2.349   2.563  0.0387 -0.1171 -0.6362
19762SOL    HW161728   0.520   2.336   2.612  1.3262  2.2497 -1.9799
19762SOL    HW261729   0.374   2.369   2.631  1.9636  4.0949  0.3495
19763SOL     OW61730   2.425   3.045   7.128 -0.2312 -0.7098 -0.4847
19763SOL    HW161731   2.329   3.045   7.125 -0.2503 -0.8052  0.0848
19763SOL    HW261732   2.446   3.050   7.221  0.3269  0.6710 -0.6625
19764SOL     OW61733   3.268   6.404   7.565  0.0011  0.1656 -0.2974
19764SOL    HW161734   3.296   6.318   7.596 -0.7567  0.2942  0.8227
19764SOL    HW261735   3.264   6.395   7.470 -1.2541 -1.4317 -0.1414
19765SOL     OW61736   2.749   5.077   3.467 -0.6082 -0.3880 -0.3224
19765SOL    HW161737   2.763   5.126   3.548 -0.0473  0.5907 -0.9910
19765SOL    HW261738   2.804   4.998   3.477  1.1286  0.7328 -0.5935
19766SOL     OW61739   3.743   7.603   8.136 -0.3119 -0.2523  0.5010
19766SOL    HW161740   3.822   7.658   8.132 -0.5404  0.0265 -0.1641
19766SOL    HW261741   3.774   7.520   8.172  0.2837 -0.1448  0.2449
19767SOL     OW61742   6.157   3.749  10.404 -0.1680  0.1011 -0.2180
19767SOL    HW161743   6.109   3.732  10.323 -0.1452  2.0360 -0.6797
19767SOL    HW261744   6.249   3.741  10.379 -0.1769 -0.2763 -0.1375
19768SOL     OW61745   8.808   7.631   9.914  0.0033 -0.1002 -0.0965
19768SOL    HW161746   8.838   7.540   9.917  0.3767  0.0111 -0.3866
19768SOL    HW261747   8.873   7.680   9.963  0.1817  0.1105 -0.5405
19769SOL     OW61748   5.005   0.500   8.330  0.1379  0.0688 -0.3480
19769SOL    HW161749   4.960   0.418   8.352  2.4408 -1.2019 -0.1428
19769SOL    HW261750   4.974   0.520   8.241 -1.3893 -0.3255  0.0644
19770SOL     OW61751   9.458   5.659   4.903  1.0993  0.4538 -1.0093
19770SOL    HW161752   9.520   5.625   4.838  0.8532  0.5776 -1.3146
19770SOL    HW261753   9.436   5.747   4.871  0.0537  0.0630 -1.4168
19771SOL     OW61754   1.175   7.824   6.456 -0.4709  0.4444 -0.0998
19771SOL    HW161755   1.151   7.821   6.363 -1.8178  1.2074  0.1851
19771SOL    HW261756   1.118   7.891   6.493 -1.5650 -1.3730  1.7354
19772SOL     OW61757   1.727   6.104   9.253  0.6909 -0.5325 -0.0308
19772SOL    HW161758   1.673   6.160   9.197  0.5199  0.2712  0.9130
19772SOL    HW261759   1.817   6.134   9.237  0.4859  1.2282  1.7052
19773SOL     OW61760   5.086  10.011   2.944 -0.3963 -0.3220  0.3343
19773SOL    HW161761   5.078   9.922   2.979  0.0307  0.4082  2.4161
19773SOL    HW261762   4.997  10.035   2.919 -1.2192 -0.0642  3.1707
19774SOL     OW61763   2.747   2.350   7.096  0.1057  0.2303  0.3065
19774SOL    HW161764   2.690   2.409   7.047 -1.1315 -0.3611  0.9785
19774SOL    HW261765   2.819   2.331   7.037 -1.0847 -0.0700 -1.1007
19775SOL     OW61766   3.946   4.117   7.639 -0.3882 -0.0534 -0.4591
19775SOL    HW161767   4.018   4.171   7.606 -1.4278  1.2436 -0.6662
19775SOL    HW261768   3.876   4.179   7.657 -0.6912 -0.9910  1.9678
19776SOL     OW61769   4.620   7.852   5.740 -0.0631 -0.4293 -0.2716
19776SOL    HW161770   4.663   7.890   5.663 -0.8565 -0.5944 -0.8169
19776SOL    HW261771   4.580   7.928   5.784 -3.0117 -0.6819 -2.2278
19777SOL     OW61772   8.543   8.838   9.214 -0.0879  0.2373  0.0559
19777SOL    HW161773   8.630   8.801   9.196  0.7303  1.6933  0.8547
19777SOL    HW261774   8.541   8.849   9.309 -0.7982  1.0491 -0.0450
19778SOL     OW61775   4.953   3.184   9.810 -0.0450 -0.0627  0.1690
19778SOL    HW161776   5.047   3.190   9.797 -0.2581 -0.1220 -1.6581
19778SOL    HW261777   4.929   3.267   9.851  0.5257  0.9708 -1.4909
19779SOL     OW61778   4.022   5.285   8.411  0.3860  0.2200  0.4248
19779SOL    HW161779   3.940   5.240   8.430 -0.8013  2.7133  1.6817
19779SOL    HW261780   4.090   5.230   8.450 -0.6178 -1.9520 -0.7524
19780SOL     OW61781   5.945   4.346   6.729  0.5130 -0.0803  0.1212
19780SOL    HW161782   5.898   4.268   6.761  0.5084  0.1779  0.7515
19780SOL    HW261783   5.965   4.325   6.638 -0.6193 -0.3050 -0.1007
19781SOL     OW61784   3.788   6.067   6.959 -0.7326  0.3261 -0.1267
19781SOL    HW161785   3.798   6.115   7.042 -2.2398 -0.1620  0.3803
19781SOL    HW261786   3.859   6.003   6.959  1.9348  3.0684 -1.2702
19782SOL     OW61787   4.507   5.344   1.617  0.6062 -0.2565  0.1569
19782SOL    HW161788   4.477   5.274   1.559  0.6262 -1.1156  1.1426
19782SOL    HW261789   4.582   5.382   1.572 -0.0540 -0.1453 -0.8945
19783SOL     OW61790   3.631   9.631   5.094 -0.1434 -0.3121  0.0157
19783SOL    HW161791   3.629   9.540   5.124  0.8231 -0.5066 -0.4773
19783SOL    HW261792   3.592   9.628   5.007  0.1179 -0.3002 -0.1027
19784SOL     OW61793   2.136   4.550  10.420  0.1236 -0.3395 -0.0291
19784SOL    HW161794   2.153   4.503  10.502  2.9298  1.4316  0.5307
19784SOL    HW261795   2.201   4.515  10.359 -0.9713 -0.5740 -1.1003
19785SOL     OW61796   8.725   0.481   5.656 -0.0712 -0.0316 -0.3043
19785SOL    HW161797   8.643   0.521   5.627  0.1820  0.2376 -0.6646
19785SOL    HW261798   8.769   0.454   5.575  0.3885  0.2075 -0.1387
19786SOL     OW61799   4.201   2.768   0.919 -0.3510  0.1047  0.2993
19786SOL    HW161800   4.268   2.716   0.875 -1.0902 -1.1395  0.6060
19786SOL    HW261801   4.145   2.800   0.848  0.1483  0.5484  0.1030
19787SOL     OW61802   1.961   9.127   5.379  0.1554 -1.3979 -0.1156
19787SOL    HW161803   2.057   9.123   5.377  0.3329 -0.0511  2.0901
19787SOL    HW261804   1.937   9.087   5.462 -0.9650  0.5970  0.5779
19788SOL     OW61805   2.161   2.916   5.215  0.0865 -0.1605 -0.2849
19788SOL    HW161806   2.144   2.825   5.191  0.8423 -0.1696 -0.8337
19788SOL    HW261807   2.074   2.953   5.232 -0.2259 -0.9770 -0.0599
19789SOL     OW61808   0.293   0.814   0.985 -0.5113  0.1913 -0.5117
19789SOL    HW161809   0.300   0.870   1.062  0.8388 -0.6591  0.0285
19789SOL    HW261810   0.297   0.724   1.020 -0.3190 -0.2077 -1.5271
19790SOL     OW61811   0.757   3.723   5.171 -0.5289 -0.9228  0.6391
19790SOL    HW161812   0.754   3.819   5.160  1.5664 -0.8087  0.6790
19790SOL    HW261813   0.706   3.689   5.097 -0.4542  0.1999  0.0438
19791SOL     OW61814   3.733   9.297   6.584 -0.1529 -0.1105  0.2180
19791SOL    HW161815   3.816   9.264   6.549 -0.2125  0.1932 -0.2114
19791SOL    HW261816   3.709   9.234   6.652 -0.8323 -1.6054 -1.3384
19792SOL     OW61817   6.631   3.128   3.851  0.0755  0.1802 -0.2355
19792SOL    HW161818   6.684   3.207   3.857  0.1721  0.0008  1.6660
19792SOL    HW261819   6.693   3.058   3.831  1.1611 -0.4855  4.4163
19793SOL     OW61820   4.428  10.275   5.817 -0.2720 -0.4745 -1.0544
19793SOL    HW161821   4.439  10.243   5.727  0.7699 -0.6050 -0.8901
19793SOL    HW261822   4.453  10.367   5.813 -1.6798 -0.0726 -1.1875
19794SOL     OW61823   1.987   5.590   0.422 -0.6677  0.3807 -0.5547
19794SOL    HW161824   2.017   5.596   0.331 -0.8993  2.1830 -0.5507
19794SOL    HW261825   2.051   5.643   0.471 -0.3721 -0.8177  0.3890
19795SOL     OW61826   6.683   9.666   2.267 -0.6384  0.4925  0.7456
19795SOL    HW161827   6.714   9.673   2.177  0.9173  0.5662  1.2606
19795SOL    HW261828   6.639   9.581   2.271  2.2837 -1.1441  0.7292
19796SOL     OW61829   0.994   0.318   9.790 -0.3553 -0.4587  0.1086
19796SOL    HW161830   0.935   0.362   9.729  0.8069 -0.5458 -1.1285
19796SOL    HW261831   0.962   0.344   9.877 -2.5234 -0.9409 -0.4821
19797SOL     OW61832   7.390   7.700   5.518  0.1450 -0.2765  0.3745
19797SOL    HW161833   7.464   7.654   5.558 -0.5681 -1.7604  0.0408
19797SOL    HW261834   7.318   7.688   5.580 -0.3100 -0.4444 -0.1805
19798SOL     OW61835   8.022   9.356   4.985  0.2419  0.1928  0.2606
19798SOL    HW161836   8.046   9.444   4.957 -1.2837  0.5728  0.0342
19798SOL    HW261837   8.060   9.298   4.920 -1.5318  0.9341 -1.5401
19799SOL     OW61838   4.253   5.552   1.174  0.0081  0.1334 -0.1435
19799SOL    HW161839   4.191   5.537   1.245 -1.3634 -0.5322 -1.4266
19799SOL    HW261840   4.303   5.470   1.168 -0.3065 -0.0405 -0.3649
19800SOL     OW61841   5.338   5.328   3.660  0.0305 -0.2417  0.1807
19800SOL    HW161842   5.296   5.398   3.611 -1.4411  0.4058  2.2266
19800SOL    HW261843   5.418   5.367   3.694  1.0563 -0.6917 -1.5779
19801SOL     OW61844   9.219   8.039   4.785 -0.2838  0.4062 -0.0637
19801SOL    HW161845   9.188   8.093   4.857  2.0673  0.6469  0.8547
19801SOL    HW261846   9.172   7.956   4.795 -1.7396  1.2377  0.2786
19802SOL     OW61847   0.729   2.655   3.528  0.8829  0.4578 -0.1926
19802SOL    HW161848   0.638   2.656   3.559  1.1753  1.1606  0.7113
19802SOL    HW261849   0.723   2.675   3.435  0.2477  3.7985  0.4184
19803SOL     OW61850   3.976   6.589   3.219 -0.2522 -0.4888 -0.4898
19803SOL    HW161851   3.904   6.627   3.169 -1.2765  0.7502  1.7717
19803SOL    HW261852   3.946   6.501   3.242 -1.2996  0.1777  0.8182
19804SOL     OW61853   2.177   2.149   5.718  0.2982  0.0502  0.1693
19804SOL    HW161854   2.263   2.156   5.761  0.7624  1.2478 -0.9068
19804SOL    HW261855   2.117   2.195   5.777  0.7211  0.7081  0.0910
19805SOL     OW61856   8.848   6.839   5.582  0.1424 -0.5691 -0.2111
19805SOL    HW161857   8.850   6.907   5.515  1.2543  0.5427  0.8930
19805SOL    HW261858   8.916   6.778   5.557  0.2823 -0.3711 -0.3130
19806SOL     OW61859   3.351   8.874   5.691 -0.2340 -0.3266  0.2568
19806SOL    HW161860   3.311   8.947   5.739 -0.1122 -0.6617  0.8765
19806SOL    HW261861   3.328   8.796   5.742  1.0889 -0.5426  0.5652
19807SOL     OW61862   1.147   0.511   7.229  0.2918 -0.1578 -0.6180
19807SOL    HW161863   1.113   0.573   7.294 -0.4459  1.7022 -2.6730
19807SOL    HW261864   1.242   0.514   7.241  0.1948  0.4798  0.0906
19808SOL     OW61865   4.627   7.796   0.394  0.3390 -0.1836 -0.0002
19808SOL    HW161866   4.532   7.791   0.382 -0.0248  1.6491  1.4820
19808SOL    HW261867   4.654   7.872   0.342  0.6372  0.4466  1.0206
19809SOL     OW61868   3.542   3.200   6.554 -0.5718 -0.4788 -0.2288
19809SOL    HW161869   3.463   3.234   6.595 -0.1847 -0.3187  0.3930
19809SOL    HW261870   3.562   3.120   6.603 -0.0283 -0.2153 -0.0173
19810SOL     OW61871  10.283   8.301   8.579  0.2562 -0.9887  0.5126
19810SOL    HW161872  10.373   8.317   8.609  0.2202  1.3755 -0.4284
19810SOL    HW261873  10.278   8.345   8.494 -1.3071 -2.5950 -0.2859
19811SOL     OW61874   2.123   9.520   5.146  0.3736 -0.3370  0.0994
19811SOL    HW161875   2.149   9.488   5.060  0.0904 -1.2400  0.3383
19811SOL    HW261876   2.198   9.572   5.176  0.2413  0.4609 -0.9221
19812SOL     OW61877   6.697   9.941   5.553  0.0094  0.0457  0.5688
19812SOL    HW161878   6.700   9.891   5.472  0.8705  1.1062 -0.0660
19812SOL    HW261879   6.709  10.032   5.527  1.6928  0.2775  2.0002
19813SOL     OW61880   7.535   1.188   9.115 -0.0074  0.3734  0.2193
19813SOL    HW161881   7.456   1.140   9.140 -0.1363  0.1663 -0.5620
19813SOL    HW261882   7.573   1.216   9.198  0.0404 -1.0485  0.7128
19814SOL     OW61883   8.385   8.444   2.185 -0.1985 -0.0934 -0.1402
19814SOL    HW161884   8.479   8.435   2.165  0.0236  1.1584  0.3060
19814SOL    HW261885   8.361   8.530   2.151 -1.0749 -0.1964  0.1941
19815SOL     OW61886   6.555   3.918   0.400 -0.0131 -0.1866  0.4984
19815SOL    HW161887   6.618   3.948   0.335 -0.7348 -0.5492 -0.4033
19815SOL    HW261888   6.540   3.826   0.378 -0.3039 -0.3026  1.1521
19816SOL     OW61889   2.922   5.168   5.518 -0.4583 -0.2587 -0.2230
19816SOL    HW161890   2.829   5.189   5.512 -0.2037  1.0575  0.1304
19816SOL    HW261891   2.925   5.072   5.526 -1.8247 -0.2443  0.7338
19817SOL     OW61892   2.257   4.021   6.531 -0.4909 -0.5723 -0.5359
19817SOL    HW161893   2.227   3.984   6.614  0.4376  1.0249  0.5688
19817SOL    HW261894   2.243   3.951   6.467  0.5213 -2.5496  1.2827
19818SOL     OW61895   5.598   1.631   6.053 -0.0815  0.4698 -0.3619
19818SOL    HW161896   5.597   1.680   6.135 -0.7652  1.0509 -0.7092
19818SOL    HW261897   5.534   1.675   5.998 -1.1048 -1.1226 -0.5052
19819SOL     OW61898   2.742   0.394   2.212  0.4190  0.3716  0.1517
19819SOL    HW161899   2.671   0.458   2.200 -1.1857 -1.6270 -1.8822
19819SOL    HW261900   2.798   0.406   2.135 -1.1456 -2.0246 -1.4939
19820SOL     OW61901   9.312   0.775   5.367 -0.2613 -0.1213 -0.2830
19820SOL    HW161902   9.228   0.818   5.353  0.1564  0.7054 -0.3260
19820SOL    HW261903   9.312   0.702   5.305 -1.8042 -1.4263  1.1633
19821SOL     OW61904   8.662   3.581   4.430  0.8862  0.4332 -0.3944
19821SOL    HW161905   8.616   3.531   4.363 -0.4282  0.6203  0.3432
19821SOL    HW261906   8.687   3.517   4.496 -1.7800  0.7818  1.1074
19822SOL     OW61907   3.434   2.590   1.854  0.1579 -0.3883 -0.1247
19822SOL    HW161908   3.524   2.575   1.824  0.0358  0.4912 -0.9774
19822SOL    HW261909   3.379   2.559   1.782 -0.1563  1.1201 -0.5829
19823SOL     OW61910   7.975   6.132   1.418  0.1812  0.6703 -0.0968
19823SOL    HW161911   7.956   6.081   1.339 -0.0249  1.2601 -0.4327
19823SOL    HW261912   7.889   6.148   1.457  0.3445 -0.4428  0.7831
19824SOL     OW61913  10.168   7.412   4.546  0.0991 -0.2772 -0.0446
19824SOL    HW161914  10.114   7.490   4.553  1.7854  1.0866 -1.3886
19824SOL    HW261915  10.242   7.428   4.605  1.3097 -0.0485 -1.5527
19825SOL     OW61916   8.769   1.516   0.829  0.4223  0.0668 -0.2836
19825SOL    HW161917   8.831   1.486   0.896  0.5168  1.4157  0.2587
19825SOL    HW261918   8.746   1.436   0.782  0.3781 -0.9300  1.3273
19826SOL     OW61919   0.070   6.740   9.574  0.4303 -0.0260 -0.1956
19826SOL    HW161920  -0.025   6.733   9.586  0.3051  0.0575 -1.1126
19826SOL    HW261921   0.088   6.696   9.491  1.2491 -0.3803  0.1552
19827SOL     OW61922   9.502   9.760   1.005  0.2311 -0.5465  0.1848
19827SOL    HW161923   9.461   9.695   0.948  0.9386 -1.3147  0.5253
19827SOL    HW261924   9.545   9.820   0.945 -0.6586 -0.2233 -0.1442
19828SOL     OW61925   6.369   9.016   9.825  0.5948  0.3616 -0.0913
19828SOL    HW161926   6.453   8.998   9.868  0.1827 -0.2914  0.4687
19828SOL    HW261927   6.312   8.943   9.852 -0.2145  0.9059 -0.2866
19829SOL     OW61928   2.907   3.924   2.113 -0.3380 -0.3934  0.0925
19829SOL    HW161929   2.994   3.926   2.073  0.2928  0.3624  1.4184
19829SOL    HW261930   2.863   3.849   2.073  0.9207 -0.7771 -0.6102
19830SOL     OW61931   0.177   4.238   7.395 -0.0529 -0.0837  0.1945
19830SOL    HW161932   0.248   4.229   7.459  0.6598  0.6660 -0.4657
19830SOL    HW261933   0.135   4.320   7.416  0.1685  0.1554 -0.2685
19831SOL     OW61934   8.890   3.082  10.335 -0.1521 -0.0286 -0.0034
19831SOL    HW161935   8.850   3.155  10.383 -0.9944  0.4197 -1.3472
19831SOL    HW261936   8.968   3.120  10.294  0.6741 -0.4574  1.1159
19832SOL     OW61937   1.416   9.365   2.177  0.0453  0.1136 -0.0721
19832SOL    HW161938   1.375   9.280   2.192  0.9934 -0.3391  0.0131
19832SOL    HW261939   1.510   9.347   2.172  0.6149  1.4711  2.8409
19833SOL     OW61940   9.262   0.526   0.847  0.1069  0.4178 -0.0902
19833SOL    HW161941   9.355   0.510   0.831  0.5436  2.2465  0.3167
19833SOL    HW261942   9.260   0.574   0.930 -1.0269  1.9205 -0.9254
19834SOL     OW61943   7.072   5.791   6.406  0.1821  0.7191  0.2105
19834SOL    HW161944   7.091   5.801   6.500  1.2915 -0.0528  0.0831
19834SOL    HW261945   7.026   5.872   6.383  2.1742  2.1147  0.8616
19835SOL     OW61946   4.652   1.493   8.049 -0.0759 -0.4783  0.0998
19835SOL    HW161947   4.696   1.433   7.988  0.7014 -0.5465  0.7137
19835SOL    HW261948   4.652   1.577   8.003  1.5587 -0.2529  0.4532
19836SOL     OW61949   5.037   9.946   5.033 -0.3010  0.2464  0.4240
19836SOL    HW161950   5.003  10.019   4.980  1.4190 -0.1023 -1.3023
19836SOL    HW261951   5.001   9.868   4.991  0.5436 -0.0054  0.1469
19837SOL     OW61952   8.386   9.756   5.543 -0.0593 -0.3486  0.0099
19837SOL    HW161953   8.425   9.843   5.553  2.3634 -1.2306 -0.7961
19837SOL    HW261954   8.355   9.755   5.453  1.7433 -0.9044 -0.6577
19838SOL     OW61955   0.519   6.691  10.146  0.0121  0.1562  0.1704
19838SOL    HW161956   0.483   6.778  10.160  0.2151  0.5657 -1.6127
19838SOL    HW261957   0.613   6.702  10.157  0.0277  0.1481  0.0504
19839SOL     OW61958   9.611   2.875   4.497 -0.5247  0.0324 -0.4458
19839SOL    HW161959   9.534   2.875   4.440 -1.2562 -0.2672  0.5261
19839SOL    HW261960   9.613   2.963   4.534 -0.0793  0.2096 -0.8770
19840SOL     OW61961   6.227   7.283   9.670 -0.3089  0.2861 -0.1600
19840SOL    HW161962   6.266   7.258   9.754  0.3145  1.7251  0.0002
19840SOL    HW261963   6.262   7.219   9.608  1.1586  0.6440  0.2560
19841SOL     OW61964   5.079   5.535   9.905  0.5200  0.2316  0.1372
19841SOL    HW161965   5.110   5.445   9.892 -1.3730 -0.1290 -2.7201
19841SOL    HW261966   4.992   5.525   9.944  0.1287  0.7756 -0.5714
19842SOL     OW61967   5.596   7.303   7.155 -0.4913 -0.3345 -0.0958
19842SOL    HW161968   5.617   7.396   7.150  0.8700 -0.6757 -1.8296
19842SOL    HW261969   5.548   7.285   7.074 -1.0049 -1.1005  0.3632
19843SOL     OW61970   3.438   0.789   9.156 -0.0743 -0.0347  0.4778
19843SOL    HW161971   3.453   0.877   9.191 -4.1449  1.4017 -0.8526
19843SOL    HW261972   3.361   0.757   9.203  0.3889 -2.3043 -0.1779
19844SOL     OW61973   3.702   4.983   0.458  0.0142 -0.4493  0.1024
19844SOL    HW161974   3.625   4.987   0.514 -0.2677  0.4127 -0.3202
19844SOL    HW261975   3.685   5.048   0.390  0.8718 -0.6383 -0.3049
19845SOL     OW61976   3.102  10.197   7.761  0.0004  0.3104  0.1227
19845SOL    HW161977   3.060  10.281   7.740  0.9639  0.7107 -0.2894
19845SOL    HW261978   3.055  10.133   7.708 -0.7482  0.5938  0.4446
19846SOL     OW61979   1.412   0.507   7.158  0.0526  0.2720  0.5079
19846SOL    HW161980   1.468   0.456   7.218  0.7886  1.4092  0.8081
19846SOL    HW261981   1.474   0.552   7.100 -0.6443 -0.5615 -0.9283
19847SOL     OW61982   4.297   9.259  10.332  0.1093 -0.0918 -0.9455
19847SOL    HW161983   4.272   9.330  10.392  1.4185  1.9084 -2.6148
19847SOL    HW261984   4.216   9.211  10.316 -0.2889 -0.8356  2.4440
19848SOL     OW61985   4.037   1.525  10.460  0.7680  0.2941 -0.1343
19848SOL    HW161986   4.091   1.456  10.500 -0.1425 -0.3817 -0.0354
19848SOL    HW261987   4.094   1.565  10.394  0.9334 -1.3793 -1.0553
19849SOL     OW61988   8.561   2.014   2.426 -0.0536  0.0622  0.1966
19849SOL    HW161989   8.624   1.943   2.411 -0.6482  0.0645 -3.0826
19849SOL    HW261990   8.476   1.970   2.430 -0.3094  0.4731 -0.6016
19850SOL     OW61991   5.060   4.475   9.769  0.1909 -0.5716 -0.0144
19850SOL    HW161992   5.105   4.552   9.803 -0.9864  0.4588 -0.7132
19850SOL    HW261993   4.993   4.456   9.835 -0.1047 -0.4491 -0.2811
19851SOL     OW61994   9.518   5.376   0.329  0.0890  0.1158 -0.3334
19851SOL    HW161995   9.498   5.328   0.409  1.6157  1.2460  0.7781
19851SOL    HW261996   9.569   5.315   0.276  0.1359 -0.2206  0.0977
19852SOL     OW61997   3.884  10.168   7.660 -0.0448 -0.3280  0.0022
19852SOL    HW161998   3.870  10.260   7.684  2.0342  0.2998 -0.9496
19852SOL    HW261999   3.931  10.131   7.735  1.1242  0.0252 -0.5327
19853SOL     OW62000   5.313   7.819   6.007 -0.1474  0.2447  0.0291
19853SOL    HW162001   5.358   7.809   5.923  1.2543  0.8082  0.6848
19853SOL    HW262002   5.276   7.732   6.025  2.1025 -0.7363  0.2344
19854SOL     OW62003   2.688   5.335   0.053  0.0210 -0.3801  0.4793
19854SOL    HW162004   2.601   5.297   0.070  0.1278 -1.5801 -1.3237
19854SOL    HW262005   2.732   5.332   0.138 -0.5537 -2.9168  0.7834
19855SOL     OW62006   0.474   1.075   7.208  0.4774 -0.2842 -0.0391
19855SOL    HW162007   0.399   1.067   7.268 -0.2999 -1.0468 -1.0726
19855SOL    HW262008   0.530   1.000   7.230 -0.3289 -1.1851 -0.9258
19856SOL     OW62009   2.385   4.580   6.968 -0.3396 -0.4482  0.7972
19856SOL    HW162010   2.436   4.577   6.887  1.6762 -0.2057  1.9806
19856SOL    HW262011   2.373   4.489   6.993 -0.3333 -0.5052  0.5903
19857SOL     OW62012   3.909   0.238   8.430 -0.8034  0.2096  0.0652
19857SOL    HW162013   3.926   0.186   8.509 -0.2699  2.7746  1.7680
19857SOL    HW262014   3.975   0.308   8.434 -2.5322  2.0035 -1.1384
19858SOL     OW62015   1.732   7.958   9.278 -0.5141  0.4142  0.1070
19858SOL    HW162016   1.827   7.965   9.284 -0.5445 -0.2274  2.2909
19858SOL    HW262017   1.717   7.892   9.210  0.4786  1.9433 -1.6902
19859SOL     OW62018   0.328   3.687   9.504 -0.1508 -0.1230  0.4724
19859SOL    HW162019   0.400   3.628   9.484  0.5232  0.7806  0.1618
19859SOL    HW262020   0.281   3.644   9.576 -0.3974 -1.6055 -0.5331
19860SOL     OW62021   9.404   8.455   6.112 -0.1242 -0.2791 -0.1776
19860SOL    HW162022   9.437   8.366   6.107  0.2849 -0.3314  2.3841
19860SOL    HW262023   9.482   8.510   6.100 -0.1906 -0.2615 -0.5624
19861SOL     OW62024  10.124   5.185   1.314  0.3494  0.2707  0.2668
19861SOL    HW162025  10.168   5.125   1.253  1.8269  0.0953  1.4609
19861SOL    HW262026  10.151   5.272   1.284  1.5028  0.1679  0.9464
19862SOL     OW62027   0.553   4.529   3.396  0.1117 -0.0152 -0.1825
19862SOL    HW162028   0.610   4.482   3.336 -1.1314 -1.3030 -0.4021
19862SOL    HW262029   0.491   4.574   3.339 -1.1446 -1.3308  0.0856
19863SOL     OW62030  10.232   0.900   8.059 -0.9655  0.1339 -0.3551
19863SOL    HW162031  10.271   0.863   7.980 -1.8189 -2.2514  0.2663
19863SOL    HW262032  10.295   0.965   8.089  1.3171 -1.7633 -0.7881
19864SOL     OW62033   7.200   6.926   5.891 -0.2633 -0.3492 -0.0220
19864SOL    HW162034   7.154   6.855   5.937 -0.8708  0.1400  0.1284
19864SOL    HW262035   7.233   6.884   5.811 -2.9998 -0.2100 -1.3396
19865SOL     OW62036   9.681   7.200   3.981 -0.7035  0.3223 -0.3271
19865SOL    HW162037   9.669   7.192   4.075 -0.4045  1.0076 -0.2250
19865SOL    HW262038   9.660   7.113   3.947 -2.0841  0.4104  0.2291
19866SOL     OW62039   9.136   1.893   3.217 -0.3078  0.3785  0.0329
19866SOL    HW162040   9.063   1.831   3.214  0.4348 -0.5558  0.6138
19866SOL    HW262041   9.215   1.838   3.207  0.3463  1.2752  0.1568
19867SOL     OW62042   8.257   2.779   8.908 -0.2356 -0.3122  0.0995
19867SOL    HW162043   8.211   2.815   8.832 -0.7110  1.3909  1.1312
19867SOL    HW262044   8.202   2.705   8.936 -0.4584 -0.4789 -0.7361
19868SOL     OW62045   5.812   3.125   0.512  0.4502  0.6610  0.1278
19868SOL    HW162046   5.816   3.100   0.605  0.8675 -0.0559 -0.0758
19868SOL    HW262047   5.903   3.143   0.489  0.5671 -0.6398 -0.5303
19869SOL     OW62048   4.928   9.592   4.574  0.2766  0.0228 -0.2372
19869SOL    HW162049   4.982   9.599   4.653  1.7040 -3.0875 -0.7574
19869SOL    HW262050   4.977   9.638   4.507 -0.1220  1.2716  0.3088
19870SOL     OW62051   8.110   6.444   6.836 -0.1319 -0.5496 -0.0867
19870SOL    HW162052   8.071   6.396   6.909 -0.3029 -0.3384 -0.0370
19870SOL    HW262053   8.133   6.529   6.872 -1.2281 -0.0363 -0.5350
19871SOL     OW62054   4.254   0.318   5.219 -0.7381  0.2269 -0.7938
19871SOL    HW162055   4.250   0.238   5.167  0.1382  1.1885 -2.4460
19871SOL    HW262056   4.346   0.343   5.218 -0.8375  0.7165  0.5627
19872SOL     OW62057   0.136   6.366   9.719 -0.3150  0.3764  0.0830
19872SOL    HW162058   0.179   6.304   9.660  0.8308  1.0250  0.2092
19872SOL    HW262059   0.057   6.392   9.673 -1.4532 -2.0520  0.5135
19873SOL     OW62060   5.287   3.327   6.032  0.0234  0.1191  0.7305
19873SOL    HW162061   5.266   3.412   5.994  0.3772 -0.0338  0.1770
19873SOL    HW262062   5.327   3.278   5.960 -0.1306 -0.4956  1.0596
19874SOL     OW62063   4.641   7.664   0.643  0.1810  0.4117 -0.2198
19874SOL    HW162064   4.557   7.666   0.690 -0.2553 -2.2201 -0.6985
19874SOL    HW262065   4.622   7.705   0.559 -0.2900  0.9260  0.1272
19875SOL     OW62066   0.973   7.546   5.879  0.0038  0.0036  0.3050
19875SOL    HW162067   0.883   7.539   5.909 -0.9141  0.0051 -2.1866
19875SOL    HW262068   0.974   7.624   5.823  1.7754  0.4862  0.9497
19876SOL     OW62069   6.666   7.685   8.737  0.0253  0.7649  0.2554
19876SOL    HW162070   6.707   7.754   8.685  0.0538  0.7336  0.2360
19876SOL    HW262071   6.733   7.617   8.745 -0.6197 -0.1056 -1.3362
19877SOL     OW62072   5.140   2.052   5.468  0.2778  0.3154  0.1615
19877SOL    HW162073   5.188   1.978   5.431 -0.0507  0.1055  0.1465
19877SOL    HW262074   5.099   2.094   5.393 -0.2655 -0.0207  0.2599
19878SOL     OW62075   3.878   5.952   6.595 -0.9085  0.1348  0.5747
19878SOL    HW162076   3.860   5.905   6.513  1.0161 -1.5494  1.0361
19878SOL    HW262077   3.870   5.885   6.663  0.9003  0.6715  1.3765
19879SOL     OW62078  10.449   1.039   2.860  0.1306 -0.0550 -0.1105
19879SOL    HW162079  10.373   1.062   2.913  0.3338 -0.3935  0.3327
19879SOL    HW262080  10.413   0.997   2.782 -0.0767 -2.2053  1.0688
19880SOL     OW62081   1.406   7.803   6.616  0.8188  0.3371  0.0074
19880SOL    HW162082   1.327   7.810   6.563  0.8277 -0.7687 -0.1684
19880SOL    HW262083   1.410   7.712   6.642  1.0316  0.7755  1.6031
19881SOL     OW62084   2.015   3.302   1.749  0.6033  0.1682  0.1840
19881SOL    HW162085   1.956   3.234   1.780 -2.0630  0.5292 -3.5609
19881SOL    HW262086   1.968   3.384   1.764  1.7238  0.8146  0.3338
19882SOL     OW62087  10.412   7.253   0.774  0.2089 -0.8394  0.0673
19882SOL    HW162088  10.386   7.236   0.864 -1.1079  0.3840 -0.0494
19882SOL    HW262089  10.409   7.348   0.765 -1.7023 -0.9907 -1.7855
19883SOL     OW62090   2.077   1.919   0.534  0.1109  0.4927  0.1496
19883SOL    HW162091   2.027   2.001   0.543 -1.3180 -0.3146 -0.1606
19883SOL    HW262092   2.080   1.883   0.622 -0.8328 -0.0003 -0.0110
19884SOL     OW62093   4.914   0.876   5.894  0.2231  0.3135 -0.2124
19884SOL    HW162094   4.897   0.830   5.975  0.6354  1.6488  0.6642
19884SOL    HW262095   5.005   0.906   5.902 -0.3548  2.1882 -0.2525
19885SOL     OW62096   5.148   6.904   0.326  0.1931  0.7799  0.0935
19885SOL    HW162097   5.132   6.845   0.252  1.1311  0.1851  0.3609
19885SOL    HW262098   5.213   6.859   0.379  1.3808  2.3208 -0.0102
19886SOL     OW62099   3.397   0.537   4.637  0.2296 -0.1982 -0.3080
19886SOL    HW162100   3.441   0.465   4.591  0.1255 -1.1876  1.0788
19886SOL    HW262101   3.464   0.606   4.642  1.3281 -1.2842  0.8508
19887SOL     OW62102   4.791   1.159   5.114  0.3437 -0.6804  0.0564
19887SOL    HW162103   4.739   1.202   5.181 -1.8450 -0.9951 -1.3386
19887SOL    HW262104   4.843   1.094   5.162  0.5317  0.5941  1.6583
19888SOL     OW62105   3.882   7.083   5.671 -0.6792  0.8005 -0.0268
19888SOL    HW162106   3.807   7.048   5.718  0.1561 -1.9607 -0.5478
19888SOL    HW262107   3.922   7.145   5.732 -1.7075  0.1050  1.4052
19889SOL     OW62108   6.981   1.606   3.902  0.1272 -0.2823  0.2253
19889SOL    HW162109   6.915   1.557   3.854 -0.4001  0.7647 -0.1358
19889SOL    HW262110   7.050   1.623   3.838 -0.2810  0.5569  0.0039
19890SOL     OW62111   3.104   5.810   6.655 -0.7720 -0.3366 -0.4027
19890SOL    HW162112   3.173   5.770   6.708 -0.5241  1.1642  0.4692
19890SOL    HW262113   3.028   5.813   6.714 -1.3881 -1.2881 -1.1092
19891SOL     OW62114   6.696   3.606   9.310  0.1005 -0.0519 -0.6887
19891SOL    HW162115   6.709   3.556   9.229 -2.0645 -0.0942 -1.0785
19891SOL    HW262116   6.622   3.563   9.353  0.5067  0.6539  0.7734
19892SOL     OW62117   6.423   0.659  10.138  0.5470 -0.6516 -0.2253
19892SOL    HW162118   6.340   0.613  10.131 -0.3240  0.7743  0.4869
19892SOL    HW262119   6.468   0.639  10.055 -0.6618 -1.1228 -0.7880
19893SOL     OW62120   0.976  10.476   0.349 -0.0216  0.3927 -0.1859
19893SOL    HW162121   0.994  10.462   0.442  0.5105  1.4827 -0.1081
19893SOL    HW262122   1.057  10.514   0.315 -0.4167  0.5348 -0.9721
19894SOL     OW62123   4.557   2.766   8.111 -0.1158  0.0115  0.2564
19894SOL    HW162124   4.544   2.694   8.172  1.8766 -1.0189 -0.4245
19894SOL    HW262125   4.652   2.780   8.112 -0.3430  1.8382 -0.5250
19895SOL     OW62126   0.636   8.461   5.734 -0.0228  0.0965  0.3538
19895SOL    HW162127   0.684   8.439   5.815 -1.1610 -0.3377  0.9266
19895SOL    HW262128   0.546   8.473   5.763 -0.1557  1.6086 -0.6003
19896SOL     OW62129   1.589   1.496   3.787  0.3340  0.1327 -0.5578
19896SOL    HW162130   1.678   1.532   3.781  1.0635 -1.6386 -1.0139
19896SOL    HW262131   1.602   1.401   3.789 -1.4550 -0.1382  1.4637
19897SOL     OW62132   1.844  10.250   6.829  0.7598  0.4067 -0.5413
19897SOL    HW162133   1.814  10.174   6.779 -0.2267 -0.9211  1.8876
19897SOL    HW262134   1.937  10.232   6.845  0.2232 -1.1867  1.2872
19898SOL     OW62135   9.880   3.566   4.699  1.0044 -0.6690  0.0725
19898SOL    HW162136   9.904   3.604   4.783  0.7127 -1.5755  0.5860
19898SOL    HW262137   9.872   3.641   4.640 -0.6616  0.2135  1.3084
19899SOL     OW62138   9.908   8.132   1.807 -0.1792  0.1984  0.1363
19899SOL    HW162139   9.928   8.218   1.847  1.0641 -0.9447  2.1744
19899SOL    HW262140   9.907   8.072   1.881  1.1868 -1.9237 -1.4588
19900SOL     OW62141   0.579   8.147   9.102 -0.4385 -0.2141  0.4181
19900SOL    HW162142   0.604   8.146   9.194  2.2902 -0.2413 -0.2305
19900SOL    HW262143   0.546   8.235   9.087  0.9155  0.4433  1.0468
19901SOL     OW62144   6.228   4.739   7.924  0.2292 -0.2369  0.0365
19901SOL    HW162145   6.278   4.694   7.856  0.3335 -1.2166  0.7458
19901SOL    HW262146   6.275   4.822   7.936 -0.0912  0.1758 -1.4311
19902SOL     OW62147   8.895   4.009   5.520  0.8557  0.1444 -0.0947
19902SOL    HW162148   8.801   4.001   5.537  0.6552  1.7650 -0.2579
19902SOL    HW262149   8.934   4.021   5.606  0.4585  2.9276 -0.1910
19903SOL     OW62150   1.933   9.571   6.757 -0.0491  0.2270  0.0007
19903SOL    HW162151   1.852   9.523   6.741  0.4761 -0.0194 -2.3047
19903SOL    HW262152   1.905   9.658   6.785 -1.0935 -0.0643 -0.1123
19904SOL     OW62153   1.436   4.397   8.730 -0.0311 -0.5154  0.3331
19904SOL    HW162154   1.380   4.361   8.662  0.5529 -2.1660  0.6876
19904SOL    HW262155   1.504   4.445   8.682 -0.1981 -0.8109 -0.2033
19905SOL     OW62156   6.531  10.030   0.680 -0.0858 -0.5717  0.0164
19905SOL    HW162157   6.507  10.010   0.589  0.8925 -0.5243 -0.2668
19905SOL    HW262158   6.624  10.010   0.685  0.1352  0.5159  0.6971
19906SOL     OW62159   2.966   5.703   7.996 -0.0961 -0.3408 -0.0678
19906SOL    HW162160   2.886   5.693   7.945 -0.9207  1.1716  0.8743
19906SOL    HW262161   2.947   5.772   8.059  2.8138  2.0992 -1.5579
19907SOL     OW62162   3.147   8.059   2.905  0.2823  0.4731  0.2752
19907SOL    HW162163   3.226   8.027   2.860 -0.0038  0.8450 -0.5060
19907SOL    HW262164   3.167   8.151   2.926 -0.5224  1.0655 -1.3613
19908SOL     OW62165   9.441   1.997   3.245 -0.1602  1.3484  0.4472
19908SOL    HW162166   9.350   2.005   3.217  0.3112 -1.2671 -2.3639
19908SOL    HW262167   9.490   1.987   3.163  2.5713  1.7898  1.9091
19909SOL     OW62168   1.555   2.233   9.915 -0.2858  0.2027 -0.7006
19909SOL    HW162169   1.524   2.197   9.832  0.4018 -0.0898 -0.8400
19909SOL    HW262170   1.532   2.168   9.980 -1.8771  0.9526 -0.4651
19910SOL     OW62171   4.646   3.940   0.251  0.1659 -0.4694  0.1511
19910SOL    HW162172   4.553   3.922   0.234 -0.0088  0.2065  0.3312
19910SOL    HW262173   4.685   3.854   0.266  0.2342 -1.0979 -3.0007
19911SOL     OW62174   7.442   5.480   3.931  0.3195  0.4438 -0.1889
19911SOL    HW162175   7.480   5.525   3.856  0.9860 -1.1948 -0.8822
19911SOL    HW262176   7.460   5.388   3.915  1.2119  0.0890  2.4122
19912SOL     OW62177   4.236   4.800   3.495  0.3928 -0.2099  0.0225
19912SOL    HW162178   4.187   4.793   3.577  0.9813  2.2391  0.6648
19912SOL    HW262179   4.328   4.795   3.521  0.5704 -0.4389 -0.6266
19913SOL     OW62180   8.043   1.463   3.008  0.0187 -0.1608 -0.4613
19913SOL    HW162181   8.080   1.482   2.922  0.5887 -2.4278 -0.7805
19913SOL    HW262182   7.971   1.403   2.990 -0.1731 -0.2701  0.6210
19914SOL     OW62183   1.652   0.137   3.203  0.2138  0.8389  0.9997
19914SOL    HW162184   1.607   0.052   3.209  0.1125  0.7163 -1.0721
19914SOL    HW262185   1.741   0.118   3.234  0.3968 -0.2207 -0.0759
19915SOL     OW62186   3.460   1.347   8.575 -0.0199  0.1642  0.0023
19915SOL    HW162187   3.423   1.259   8.572 -4.0379  1.5816  1.1206
19915SOL    HW262188   3.491   1.358   8.664  1.9359 -0.5243 -0.5420
19916SOL     OW62189   4.812   1.512   5.334  0.3464 -0.5229 -0.2145
19916SOL    HW162190   4.873   1.536   5.264 -0.8019  1.9902 -0.4502
19916SOL    HW262191   4.837   1.422   5.357  2.9237 -0.2459 -1.5255
19917SOL     OW62192   1.903   5.629   5.632  0.0167 -0.1177 -0.1272
19917SOL    HW162193   1.868   5.695   5.692  2.0749  0.7489  0.2088
19917SOL    HW262194   1.920   5.553   5.687  1.5773  0.5568  0.3631
19918SOL     OW62195   4.507   4.015   5.654 -0.1783 -0.2358  0.0832
19918SOL    HW162196   4.475   4.059   5.575 -0.8067  0.3757  0.6699
19918SOL    HW262197   4.439   4.029   5.719  0.8339  0.2540  1.0781
19919SOL     OW62198   6.139   2.177   0.690  0.0101  0.7432 -0.1161
19919SOL    HW162199   6.084   2.151   0.616  0.0198 -0.7897  0.3764
19919SOL    HW262200   6.135   2.272   0.691 -1.5582  0.7117 -0.8944
19920SOL     OW62201   4.397   0.287   9.157 -0.1573 -0.2620  0.3119
19920SOL    HW162202   4.314   0.268   9.114  0.6049 -2.8822 -0.1368
19920SOL    HW262203   4.405   0.219   9.224  1.2061  0.5208  0.9759
19921SOL     OW62204   5.857   4.199   0.170  0.2549  0.2077  0.3062
19921SOL    HW162205   5.847   4.200   0.075  0.7391 -1.4027  0.2134
19921SOL    HW262206   5.774   4.232   0.204 -0.9415 -1.6829 -0.6431
19922SOL     OW62207   1.100   6.691   2.013  0.6542 -0.6447 -0.1677
19922SOL    HW162208   1.181   6.667   2.058  1.7983  0.1242 -1.7598
19922SOL    HW262209   1.074   6.611   1.967  0.6163 -0.8195  0.1501
19923SOL     OW62210  10.142   6.771   5.714  0.0932  0.2328 -0.0534
19923SOL    HW162211  10.060   6.761   5.761  0.4670  1.0551  0.8086
19923SOL    HW262212  10.186   6.845   5.757  0.9195  0.3286 -1.0113
19924SOL     OW62213   3.132  10.485   1.293  0.5202 -0.3499  0.6082
19924SOL    HW162214   3.087  10.406   1.324  1.3527 -1.5524 -1.0684
19924SOL    HW262215   3.216  10.484   1.338 -0.4551  1.0895  2.6077
19925SOL     OW62216   3.888   6.717   6.316  0.3751 -0.2159  0.1507
19925SOL    HW162217   3.837   6.794   6.291 -1.6316 -1.5023  0.0194
19925SOL    HW262218   3.892   6.663   6.237  0.3219 -0.9870  0.6530
19926SOL     OW62219   7.792   7.537   5.993  0.0584  0.1129  0.2480
19926SOL    HW162220   7.806   7.472   5.923  0.5686  0.4741  0.0089
19926SOL    HW262221   7.740   7.490   6.058  1.4478 -0.9493  0.6441
19927SOL     OW62222   2.547   8.059   6.437 -0.1735  0.2989  0.3021
19927SOL    HW162223   2.530   8.129   6.499  0.4795  0.1690  0.6333
19927SOL    HW262224   2.461   8.022   6.418 -0.7290  2.0700 -0.9455
19928SOL     OW62225   7.809   3.564   7.775  0.3515  0.0506  0.0924
19928SOL    HW162226   7.715   3.581   7.778  0.4621  0.5457  1.5351
19928SOL    HW262227   7.817   3.469   7.772 -0.1891  0.0216 -1.3815
19929SOL     OW62228   4.243   7.147   0.975 -0.2016 -0.2066 -0.6237
19929SOL    HW162229   4.280   7.204   1.042  1.3810  0.5868 -2.1012
19929SOL    HW262230   4.316   7.093   0.946 -1.6285 -3.0588  0.6746
19930SOL     OW62231   2.588   8.071   6.987 -0.4678 -0.5217  0.3125
19930SOL    HW162232   2.522   8.138   6.973  0.2875  0.1986  0.1424
19930SOL    HW262233   2.600   8.068   7.082 -0.9805 -0.8951  0.3690
19931SOL     OW62234   3.518   3.528   3.831  1.1746 -0.3849 -0.0138
19931SOL    HW162235   3.461   3.457   3.800  0.2876  0.0958  0.4807
19931SOL    HW262236   3.506   3.598   3.767  1.0618 -0.2113  0.1980
19932SOL     OW62237   0.128   8.784   0.284  0.1619  0.7509 -0.5168
19932SOL    HW162238   0.162   8.732   0.356 -0.8458 -0.6230 -0.9818
19932SOL    HW262239   0.064   8.843   0.325  1.5116  1.8764  0.0498
19933SOL     OW62240   3.543   4.910   6.217  0.1971  0.0491 -0.4251
19933SOL    HW162241   3.597   4.849   6.166  0.9285  0.4828 -0.1836
19933SOL    HW262242   3.469   4.857   6.246  0.5987 -0.6143 -0.5863
19934SOL     OW62243   2.064   3.551   1.584 -0.6137 -0.1386 -0.3732
19934SOL    HW162244   2.096   3.637   1.609  1.3869 -0.7120 -0.7500
19934SOL    HW262245   2.070   3.550   1.489  0.7369 -1.1318 -0.3112
19935SOL     OW62246   0.948   4.401   9.708 -0.2788 -0.1082  0.2688
19935SOL    HW162247   0.901   4.319   9.697  0.9559 -0.7450 -0.4206
19935SOL    HW262248   0.884   4.469   9.688 -1.2908 -0.8936  0.7866
19936SOL     OW62249   8.058   8.644   8.332  0.0314  0.5945  0.1661
19936SOL    HW162250   8.013   8.572   8.288  0.1171 -0.3211  1.5285
19936SOL    HW262251   7.996   8.717   8.328 -0.8581 -0.1339  0.4796
19937SOL     OW62252  10.035   3.312   6.953 -0.6854 -0.2139 -0.4230
19937SOL    HW162253  10.088   3.239   6.923 -0.3998 -0.0648 -0.2862
19937SOL    HW262254  10.007   3.357   6.873 -1.5605 -0.9528 -0.5492
19938SOL     OW62255   0.257   0.637   4.237 -0.2347  0.5366 -0.1788
19938SOL    HW162256   0.237   0.650   4.144 -0.5024  0.6432 -0.1090
19938SOL    HW262257   0.330   0.576   4.237 -0.8849 -0.2573 -0.4350
19939SOL     OW62258   5.899   3.669   2.029 -0.7578  0.3355  0.3744
19939SOL    HW162259   5.935   3.738   1.974 -0.8942  0.2075  0.1234
19939SOL    HW262260   5.971   3.647   2.089  0.0934 -0.8836 -1.0285
19940SOL     OW62261   4.786   3.026   7.625  0.1779  0.3531  0.5910
19940SOL    HW162262   4.862   3.033   7.568 -1.2343  1.7633 -1.2686
19940SOL    HW262263   4.758   2.935   7.617  2.5193 -0.6647  2.6168
19941SOL     OW62264   5.581   4.128   0.001  0.0821 -0.0113  0.0528
19941SOL    HW162265   5.583   4.162   0.090 -1.0510 -0.9876  0.4710
19941SOL    HW262266   5.649   4.060  -0.001  2.1745  1.9670 -0.7125
19942SOL     OW62267   2.282   9.690  10.473 -0.4060  0.0827 -0.2558
19942SOL    HW162268   2.280   9.635  10.395 -1.5190  0.5476 -0.5699
19942SOL    HW262269   2.202   9.667  10.521 -1.0983  1.6822 -0.5836
19943SOL     OW62270   4.683   5.872   8.158 -0.6377  0.0890  0.2670
19943SOL    HW162271   4.646   5.905   8.240  0.9397  0.2248  0.9548
19943SOL    HW262272   4.735   5.945   8.124 -1.0504 -0.0641 -0.7173
19944SOL     OW62273   5.741   3.689   4.583 -0.0748  0.4960 -0.1506
19944SOL    HW162274   5.722   3.708   4.675  0.7366 -0.5182  0.2440
19944SOL    HW262275   5.809   3.623   4.585 -0.2637  0.2158 -1.4922
19945SOL     OW62276   2.928   9.620   5.548  0.1534  0.8270 -0.0129
19945SOL    HW162277   2.999   9.577   5.596  1.3158  0.8764 -1.6282
19945SOL    HW262278   2.961   9.708   5.529  0.5491  0.2171 -2.5013
19946SOL     OW62279   1.306   8.571   9.528  0.2917 -0.0740  0.1876
19946SOL    HW162280   1.358   8.588   9.449 -0.2978 -1.6301 -0.5822
19946SOL    HW262281   1.362   8.514   9.581  0.3072  0.1791  0.4399
19947SOL     OW62282   7.419   9.449   8.825 -0.4600  0.1477  0.6709
19947SOL    HW162283   7.488   9.508   8.854  0.5331 -1.2568  1.3275
19947SOL    HW262284   7.341   9.503   8.820  0.2445  1.3538  1.9404
19948SOL     OW62285   2.041   4.135   8.993  0.2247  0.0256  0.6978
19948SOL    HW162286   1.996   4.057   9.026  0.3751 -0.2259  0.3196
19948SOL    HW262287   1.984   4.168   8.923  0.6955 -0.3882  0.1080
19949SOL     OW62288   9.790   0.200   3.980  1.1910  0.7433 -0.0056
19949SOL    HW162289   9.835   0.158   4.054 -0.1333 -0.4968  0.1517
19949SOL    HW262290   9.703   0.220   4.014  1.4923  2.8618 -0.3774
19950SOL     OW62291   1.041   9.623   0.144 -0.4704  0.8160  0.0034
19950SOL    HW162292   1.045   9.704   0.092 -0.9027  0.1203 -1.1395
19950SOL    HW262293   0.948   9.601   0.147 -0.5280  1.2035  1.6757
19951SOL     OW62294   6.252   7.940   3.193 -0.3662  0.0076 -0.1542
19951SOL    HW162295   6.276   7.877   3.126  1.0817  0.7537 -0.3839
19951SOL    HW262296   6.180   7.899   3.241 -0.6211 -1.0432 -1.3912
19952SOL     OW62297   7.818   6.618  10.052  0.1556 -0.0196  0.4513
19952SOL    HW162298   7.794   6.601  10.142  0.4628 -2.7727  0.1046
19952SOL    HW262299   7.828   6.531  10.013  0.4950  1.0738 -2.1082
19953SOL     OW62300   6.975   8.728   4.168  0.0073  0.6809  0.4863
19953SOL    HW162301   6.921   8.710   4.091  0.1807  1.6351  0.1381
19953SOL    HW262302   7.049   8.780   4.135  1.0008 -0.3484  1.0053
19954SOL     OW62303   5.135   9.570   0.064 -0.0421 -0.2978 -0.1459
19954SOL    HW162304   5.150   9.537  -0.025  0.0514  0.4207 -0.4079
19954SOL    HW262305   5.050   9.613   0.059 -0.6229 -1.3633  0.4488
19955SOL     OW62306   9.271  10.402   7.441 -0.0141 -0.0748  0.0944
19955SOL    HW162307   9.280  10.443   7.355  0.6718  0.2846  0.3313
19955SOL    HW262308   9.240  10.314   7.423  1.1217 -0.3517 -0.5908
19956SOL     OW62309   8.189   1.286   7.518 -0.2324 -0.1239  0.5962
19956SOL    HW162310   8.096   1.272   7.497 -1.1429  1.7632  2.9693
19956SOL    HW262311   8.219   1.202   7.552 -1.4620 -0.3763  1.0980
19957SOL     OW62312   1.618   9.908   2.475 -0.1783 -0.6701 -0.2255
19957SOL    HW162313   1.695   9.964   2.475  0.5280 -1.6099  0.6312
19957SOL    HW262314   1.626   9.855   2.554 -1.6812 -0.8322 -0.1386
19958SOL     OW62315   9.902   8.430   2.918  0.0621  0.0497  0.6190
19958SOL    HW162316   9.808   8.411   2.922  0.1196 -0.8147 -1.0859
19958SOL    HW262317   9.922   8.431   2.825  1.9720 -0.9748  0.9686
19959SOL     OW62318   1.744   5.935   8.579 -1.1445 -0.0455 -0.3613
19959SOL    HW162319   1.826   5.888   8.566  0.0446  1.4456  1.3004
19959SOL    HW262320   1.677   5.866   8.583 -0.2892 -1.2025 -3.2925
19960SOL     OW62321   5.420   9.502   0.934 -0.1080 -0.3593 -0.0376
19960SOL    HW162322   5.346   9.557   0.962  1.2173  1.0390  0.8859
19960SOL    HW262323   5.479   9.563   0.890 -0.5244 -1.8881 -2.9098
19961SOL     OW62324   5.647   5.632   7.976 -0.3089 -0.2883 -0.2728
19961SOL    HW162325   5.656   5.542   8.006  1.9609 -0.4903 -1.3789
19961SOL    HW262326   5.733   5.655   7.942 -0.8454  2.2904 -0.1091
19962SOL     OW62327   4.889   7.854   0.317 -0.5006  0.3766  0.1034
19962SOL    HW162328   4.835   7.916   0.269 -3.7629 -1.6586  0.8378
19962SOL    HW262329   4.847   7.847   0.403 -0.4539 -2.9375 -0.0243
19963SOL     OW62330   4.394   9.707  10.274  0.5942 -0.0108  0.1634
19963SOL    HW162331   4.433   9.740  10.194  0.7963  1.0929  0.6939
19963SOL    HW262332   4.458   9.645  10.309  1.2767  0.7727  0.3287
19964SOL     OW62333   8.633   1.327   4.418 -0.0007 -0.1162 -0.1908
19964SOL    HW162334   8.727   1.344   4.411  0.0944  1.3323  2.8947
19964SOL    HW262335   8.598   1.404   4.464 -2.6291 -0.8269 -0.8315
19965SOL     OW62336  10.026   5.097   0.171 -0.6700 -0.1763  0.7321
19965SOL    HW162337  10.025   5.024   0.109  1.3561  0.7738 -0.5152
19965SOL    HW262338  10.085   5.068   0.241 -0.5083 -0.0512  0.6477
19966SOL     OW62339   8.705   7.361   8.849  0.0339  0.1096 -0.4432
19966SOL    HW162340   8.671   7.351   8.760 -0.2705 -0.5611 -0.2570
19966SOL    HW262341   8.710   7.456   8.862  0.1447  0.2147 -1.1962
19967SOL     OW62342   4.698  10.324   4.436 -0.2007 -0.7406  0.0161
19967SOL    HW162343   4.621  10.355   4.388 -0.3328  0.6832  1.0888
19967SOL    HW262344   4.707  10.385   4.508  1.0950 -1.7565  0.7462
19968SOL     OW62345   2.744   2.159   7.533  0.7193  0.0508  0.7508
19968SOL    HW162346   2.718   2.068   7.518 -0.9303  0.6208 -0.1359
19968SOL    HW262347   2.674   2.195   7.588  1.4969  0.7240  1.3252
19969SOL     OW62348  10.339   8.951   7.079  0.6603 -0.5544  0.0136
19969SOL    HW162349  10.248   8.923   7.087  1.2236 -2.3919  0.5461
19969SOL    HW262350  10.336   9.026   7.020 -1.3216  0.2598  1.0589
19970SOL     OW62351   1.490   3.202   1.641  1.1147  0.0875  0.2272
19970SOL    HW162352   1.510   3.199   1.548 -0.2599  3.1806 -0.3019
19970SOL    HW262353   1.564   3.248   1.680  2.3044 -2.2954  0.9871
19971SOL     OW62354   9.792   5.837   7.306 -0.3485  0.1292 -0.3253
19971SOL    HW162355   9.838   5.762   7.268 -0.0646 -0.6557  1.4395
19971SOL    HW262356   9.846   5.912   7.284  0.9249 -0.5731  0.2927
19972SOL     OW62357   2.513   5.890   8.176 -0.1793 -0.3302  0.3279
19972SOL    HW162358   2.571   5.828   8.220  0.9393  0.1312 -0.4598
19972SOL    HW262359   2.554   5.976   8.189 -0.5735 -0.0194 -0.4039
19973SOL     OW62360   8.766   2.756   4.944  0.4223 -0.2259  0.4931
19973SOL    HW162361   8.796   2.690   4.882 -1.4452 -0.5419 -0.1099
19973SOL    HW262362   8.764   2.711   5.028  1.3979 -0.2464  0.5224
19974SOL     OW62363   0.998  10.143   5.397 -0.6818  0.2727 -0.1939
19974SOL    HW162364   1.093  10.152   5.395 -0.5732 -0.3172  1.0138
19974SOL    HW262365   0.982  10.050   5.408 -1.3543  0.4579  0.5862
19975SOL     OW62366   3.833   7.257   0.615 -0.1829  0.1708  0.0277
19975SOL    HW162367   3.896   7.241   0.685 -1.5624  0.4569  1.4075
19975SOL    HW262368   3.841   7.350   0.597  0.7986 -0.0694 -0.8569
19976SOL     OW62369   4.073   3.132   1.426 -0.1015 -0.3902 -0.0823
19976SOL    HW162370   4.141   3.198   1.437 -1.4260  1.0799 -0.3268
19976SOL    HW262371   4.118   3.057   1.387  1.3388  0.5698 -0.3399
19977SOL     OW62372   7.250   0.324   3.369 -0.0793 -0.9646  0.0854
19977SOL    HW162373   7.202   0.319   3.452 -1.2525  0.0921 -0.5039
19977SOL    HW262374   7.342   0.317   3.395 -0.4782 -1.9828  1.3415
19978SOL     OW62375   9.723   4.905   2.395 -0.4757 -0.2871 -0.2367
19978SOL    HW162376   9.675   4.986   2.408  0.0087 -0.0639  0.2085
19978SOL    HW262377   9.744   4.875   2.484  0.1232 -0.4254 -0.4175
19979SOL     OW62378   8.238   5.205   1.074  0.1252 -0.2822  0.0524
19979SOL    HW162379   8.282   5.288   1.090 -1.6742  0.8260 -0.3718
19979SOL    HW262380   8.194   5.184   1.156 -0.6646  0.0060 -0.2830
19980SOL     OW62381   5.415   2.321   0.691  0.4824  0.1539 -0.3094
19980SOL    HW162382   5.356   2.329   0.617 -0.2934 -0.8047  0.1781
19980SOL    HW262383   5.502   2.313   0.651  0.1850  0.5853 -1.0690
19981SOL     OW62384   1.766   5.564   6.502 -0.4348  0.9391 -0.2338
19981SOL    HW162385   1.671   5.558   6.490 -0.4854 -0.7818  0.5898
19981SOL    HW262386   1.795   5.472   6.503  1.2299  1.4346 -0.4243
19982SOL     OW62387   4.575   7.082   7.612 -0.2457  0.2767 -0.2361
19982SOL    HW162388   4.567   7.084   7.708  1.0192  2.9341 -0.1083
19982SOL    HW262389   4.668   7.071   7.596 -0.2868  1.2086 -1.1506
19983SOL     OW62390   4.167   9.729   0.559 -0.5435  0.5384  0.7968
19983SOL    HW162391   4.076   9.752   0.575 -0.4868  1.4084 -0.0903
19983SOL    HW262392   4.165   9.635   0.540 -1.4580  0.8225 -0.6549
19984SOL     OW62393   9.185   7.508   7.079  0.6306 -0.0363  0.2735
19984SOL    HW162394   9.110   7.533   7.132 -1.0117 -1.4179 -1.2800
19984SOL    HW262395   9.230   7.441   7.129  1.0162  0.9653  1.3173
19985SOL     OW62396   6.005   1.599   9.112  0.5942 -0.6748  0.0825
19985SOL    HW162397   6.038   1.671   9.166 -0.3030  0.9388 -1.3938
19985SOL    HW262398   5.939   1.557   9.167  0.5472  0.1568  0.6988
19986SOL     OW62399  10.407   6.753   4.158 -0.1524  0.7069 -0.6344
19986SOL    HW162400  10.394   6.847   4.147  1.3384  1.0440  0.2006
19986SOL    HW262401  10.499   6.738   4.135 -0.0122 -0.3246  0.4746
19987SOL     OW62402   2.639   5.870   3.642 -0.0725 -0.2303  0.6614
19987SOL    HW162403   2.548   5.840   3.650 -0.3500  0.4423  0.1406
19987SOL    HW262404   2.657   5.912   3.726 -1.6050  3.1570 -0.5275
19988SOL     OW62405   0.100   0.792   3.653 -1.1965 -0.0740  0.1534
19988SOL    HW162406   0.085   0.819   3.562 -0.2606  1.4012  0.4014
19988SOL    HW262407   0.094   0.696   3.651  2.2464 -0.4346 -2.1994
19989SOL     OW62408   7.556   1.288   7.147  0.0626 -0.0347  0.3953
19989SOL    HW162409   7.510   1.214   7.188 -0.5867  0.8140  1.2621
19989SOL    HW262410   7.552   1.357   7.213  2.3423  0.1827  0.3681
19990SOL     OW62411   7.425   4.056   4.155  0.0616 -0.6833 -0.1094
19990SOL    HW162412   7.426   4.135   4.101  0.1843 -0.8364 -0.3345
19990SOL    HW262413   7.507   4.060   4.204  0.8442 -1.4587 -1.2870
19991SOL     OW62414   9.127   9.219   4.049  0.3584 -0.1450  0.8990
19991SOL    HW162415   9.147   9.159   3.977  0.4446  1.5330 -0.5591
19991SOL    HW262416   9.036   9.245   4.033  1.1555  2.2598 -0.2435
19992SOL     OW62417   9.542   8.336   2.001 -1.0171  0.0561  0.3220
19992SOL    HW162418   9.593   8.321   2.080 -0.2952  0.5808 -0.0352
19992SOL    HW262419   9.545   8.253   1.954 -0.9130 -0.0606  0.5355
19993SOL     OW62420   9.806   5.252   2.768  0.4698  0.6230 -0.4530
19993SOL    HW162421   9.712   5.254   2.747  0.0035 -0.0549  1.3747
19993SOL    HW262422   9.834   5.343   2.758 -0.6805  1.0728  0.1092
19994SOL     OW62423   0.531   3.998   1.681  0.5622 -0.1269 -0.8162
19994SOL    HW162424   0.482   4.030   1.605  0.0453  0.8727 -0.0912
19994SOL    HW262425   0.601   4.062   1.692 -0.3149  0.6438  0.4901
19995SOL     OW62426   5.260   9.905   9.801 -0.5213 -0.5712  0.1163
19995SOL    HW162427   5.230   9.816   9.786  1.6497 -1.4465  0.6420
19995SOL    HW262428   5.285   9.907   9.893  1.1286  0.0191 -0.3153
19996SOL     OW62429   9.931   1.322   7.576  0.2946  0.2641  0.3126
19996SOL    HW162430   9.877   1.381   7.629 -1.3871 -1.7267  0.9365
19996SOL    HW262431   9.871   1.291   7.508  1.4745  0.1121 -0.6889
19997SOL     OW62432   4.206   5.152   8.548 -0.3655 -0.1273  0.3613
19997SOL    HW162433   4.204   5.062   8.581  1.0018 -0.7639 -1.1884
19997SOL    HW262434   4.262   5.199   8.609  0.9241 -0.9340 -0.1719
19998SOL     OW62435   1.927   9.567   4.508  0.1248 -0.3590  0.2514
19998SOL    HW162436   1.860   9.633   4.490 -1.8793 -2.4151 -0.2303
19998SOL    HW262437   1.886   9.509   4.573  1.1986 -2.0149 -0.5009
19999SOL     OW62438   2.335   0.657   7.104  0.7662 -0.0212 -0.5574
19999SOL    HW162439   2.335   0.569   7.064 -1.4389 -0.3626  0.0324
19999SOL    HW262440   2.316   0.716   7.030  1.4601 -0.1239 -0.8215
20000SOL     OW62441   5.710   1.907   7.543 -0.5736  0.2721  0.0051
20000SOL    HW162442   5.741   1.838   7.601 -0.5436  0.0160 -0.3125
20000SOL    HW262443   5.639   1.949   7.592  1.2562  1.9064  1.4185
20001SOL     OW62444   6.702   6.628   2.454  0.1882  0.1993 -0.2855
20001SOL    HW162445   6.728   6.717   2.477  0.5990 -0.1218  0.5243
20001SOL    HW262446   6.761   6.572   2.504 -0.9312 -0.5309  0.2480
20002SOL     OW62447   9.022   7.758   0.398 -0.1012  0.1429 -0.5349
20002SOL    HW162448   8.930   7.762   0.424 -0.0278  0.0911 -0.2614
20002SOL    HW262449   9.066   7.715   0.472  0.0912 -0.1233 -0.8008
20003SOL     OW62450   9.009   3.901   4.700  0.6666  0.2394  0.5772
20003SOL    HW162451   9.053   3.940   4.625 -2.4704 -1.8411 -2.6326
20003SOL    HW262452   8.971   3.976   4.747  0.2278  1.4885 -1.6580
20004SOL     OW62453   5.175   4.938   0.482  0.0677 -0.6238  0.5097
20004SOL    HW162454   5.264   4.923   0.515  0.5702  0.5974 -0.2176
20004SOL    HW262455   5.158   5.031   0.501 -0.7293 -0.6311 -0.1086
20005SOL     OW62456   2.382   1.790   1.332  0.1981  0.1696  0.1805
20005SOL    HW162457   2.377   1.875   1.375  0.2329  0.7144 -0.8647
20005SOL    HW262458   2.419   1.808   1.245  1.0774 -1.0320  0.2726
20006SOL     OW62459   1.063   5.992   0.034  0.7347 -0.3170 -0.1478
20006SOL    HW162460   1.102   6.076   0.061 -0.3241 -0.3047  1.4477
20006SOL    HW262461   1.020   6.012  -0.049  1.0638  0.5643 -0.1190
20007SOL     OW62462  10.375   8.664   5.784  0.0578  0.1497  0.0464
20007SOL    HW162463  10.418   8.634   5.864 -0.5292  0.7308  0.5914
20007SOL    HW262464  10.343   8.584   5.742  0.2542 -0.1432  0.4567
20008SOL     OW62465   1.648   9.462   1.922 -0.1688  0.1341 -0.0715
20008SOL    HW162466   1.720   9.404   1.948 -0.1429 -0.0382 -0.5255
20008SOL    HW262467   1.654   9.535   1.983 -0.6707 -0.6927  1.0041
20009SOL     OW62468   6.630   8.150   2.691 -0.1647 -0.2927  0.5380
20009SOL    HW162469   6.547   8.148   2.738 -0.0088 -0.6312  0.7995
20009SOL    HW262470   6.695   8.173   2.758 -0.4840  3.9263 -0.2966
20010SOL     OW62471   4.165   3.255   4.884 -0.5656 -1.0630  0.1734
20010SOL    HW162472   4.199   3.295   4.964 -2.2640  0.9497 -0.0282
20010SOL    HW262473   4.243   3.231   4.834  0.5236  0.2681  1.1726
20011SOL     OW62474   0.660   7.936   7.625 -0.0229  0.2707 -0.8414
20011SOL    HW162475   0.679   8.010   7.566 -0.8378  1.6011  0.4970
20011SOL    HW262476   0.574   7.956   7.661  0.4043 -0.5616  0.7054
20012SOL     OW62477   9.775   1.766   1.970  0.5191  0.2133 -0.2601
20012SOL    HW162478   9.842   1.718   1.921 -0.0351 -0.7839 -0.0552
20012SOL    HW262479   9.720   1.805   1.902 -0.6013 -1.6566 -0.4841
20013SOL     OW62480   4.985   3.314   7.155 -0.0840 -0.0668  0.1730
20013SOL    HW162481   4.924   3.245   7.131 -0.1546  0.0532  0.0070
20013SOL    HW262482   5.050   3.271   7.210  0.1548 -0.3759 -0.3449
20014SOL     OW62483   2.177  10.273   7.138  0.1737 -0.3390  0.0488
20014SOL    HW162484   2.142  10.363   7.137  1.3581  0.1382 -0.9581
20014SOL    HW262485   2.143  10.235   7.219 -0.6398  0.9022  0.3196
20015SOL     OW62486   4.078   7.156   6.267  0.5102  0.6021 -0.0101
20015SOL    HW162487   4.025   7.104   6.207 -1.8776  1.2284  1.3949
20015SOL    HW262488   4.048   7.129   6.354  2.3196  1.2621  0.8677
20016SOL     OW62489   4.470   4.930   7.290  0.3183 -0.0846  0.1734
20016SOL    HW162490   4.469   4.889   7.204  1.1550 -2.2153  1.1080
20016SOL    HW262491   4.385   4.910   7.328  1.1099 -2.0572  1.0507
20017SOL     OW62492   9.553   2.073   4.134  0.4675  0.4815  0.4521
20017SOL    HW162493   9.542   1.987   4.174 -1.8873 -0.0098 -1.0672
20017SOL    HW262494   9.623   2.061   4.069 -1.2569 -0.9206 -1.2399
20018SOL     OW62495   7.472   6.746  10.403 -0.0549 -0.0671 -0.1915
20018SOL    HW162496   7.476   6.752  10.307 -0.3943 -0.8747 -0.2581
20018SOL    HW262497   7.563   6.727  10.429 -0.0027 -0.0613 -0.3662
20019SOL     OW62498   3.579   6.968   0.464  0.5644  0.1508  0.4305
20019SOL    HW162499   3.507   6.979   0.526  0.1444  1.2362 -0.2130
20019SOL    HW262500   3.571   6.878   0.432  0.0560 -0.0266  1.0458
20020SOL     OW62501   0.853   0.404   5.438  0.2105 -1.0063  0.1996
20020SOL    HW162502   0.824   0.473   5.497  1.2960  0.4116 -0.8621
20020SOL    HW262503   0.934   0.371   5.477  1.6961  0.8745 -1.0716
20021SOL     OW62504   3.853   4.067   4.736 -0.4253 -0.2799  0.3520
20021SOL    HW162505   3.799   4.034   4.808 -3.1039  0.5609 -1.1479
20021SOL    HW262506   3.851   3.997   4.671  2.9130 -1.5204  1.3513
20022SOL     OW62507   6.207  10.336   3.869  0.0131  0.1815  0.2910
20022SOL    HW162508   6.302  10.347   3.874 -0.1344  0.7463  2.5525
20022SOL    HW262509   6.179  10.321   3.959 -2.0008 -0.5740 -0.3964
20023SOL     OW62510   4.119   4.640   8.877 -0.1082 -0.1907  0.1648
20023SOL    HW162511   4.039   4.640   8.825 -0.6784  0.1555  1.0260
20023SOL    HW262512   4.117   4.557   8.925 -1.0029  0.6732  1.7233
20024SOL     OW62513   8.935   5.240   9.606  0.3862  0.6804  0.3814
20024SOL    HW162514   8.932   5.183   9.529  2.5649  2.6921 -1.3334
20024SOL    HW262515   8.843   5.259   9.626 -0.2512 -0.7971 -0.9951
20025SOL     OW62516   1.436   8.805   8.211 -0.0752  0.4789 -0.1633
20025SOL    HW162517   1.443   8.771   8.122  1.0668  0.7028 -0.1785
20025SOL    HW262518   1.462   8.731   8.266  1.6242  1.0414 -0.1569
20026SOL     OW62519   7.061   0.308   0.878 -0.0202  0.0050 -0.1232
20026SOL    HW162520   7.139   0.363   0.881 -0.1598  0.1516  1.5957
20026SOL    HW262521   7.064   0.257   0.959  0.1581 -2.6517 -1.6924
20027SOL     OW62522   8.013   0.937   8.114  0.0100 -0.6155  0.2117
20027SOL    HW162523   8.060   0.855   8.096  0.6369 -0.3265  0.5066
20027SOL    HW262524   8.065   0.980   8.182  1.2936  1.3773 -1.8843
20028SOL     OW62525   4.441   4.572   6.578 -0.7198  0.2430 -0.3232
20028SOL    HW162526   4.507   4.503   6.587  0.4368  1.3584 -0.0387
20028SOL    HW262527   4.386   4.563   6.656  0.5797  0.8253  0.6904
20029SOL     OW62528   4.951   9.631   4.955  0.3388  0.2039  0.3964
20029SOL    HW162529   4.866   9.613   4.916  0.8165  1.3882 -1.2900
20029SOL    HW262530   5.009   9.564   4.918  0.4550  0.3000  0.4066
20030SOL     OW62531   6.916   1.204   7.030  0.1400  0.3074  0.2287
20030SOL    HW162532   6.902   1.279   6.972  0.7467 -0.1066 -0.4720
20030SOL    HW262533   6.992   1.230   7.083  0.3334  0.2059  0.0045
20031SOL     OW62534   7.562  10.056   0.040 -0.0095  0.2450  1.1354
20031SOL    HW162535   7.578  10.075  -0.053  0.7313  0.2612  1.2599
20031SOL    HW262536   7.585   9.964   0.050 -0.2129  0.2097  1.2763
20032SOL     OW62537   3.804   9.241   6.975 -0.3130 -0.4036  0.1958
20032SOL    HW162538   3.735   9.208   6.917 -0.3652  0.5682 -0.3223
20032SOL    HW262539   3.761   9.252   7.060 -1.2112  1.4639 -0.4327
20033SOL     OW62540   6.019  10.313   6.114 -0.3522  0.0705  0.5937
20033SOL    HW162541   5.966  10.337   6.038  0.2449 -0.4586 -0.0006
20033SOL    HW262542   6.013  10.389   6.173 -0.2992  0.7554 -0.2641
20034SOL     OW62543   6.926   9.188   1.896  0.3887  0.1060  0.3811
20034SOL    HW162544   6.919   9.258   1.831 -2.1549 -1.3144 -1.0565
20034SOL    HW262545   6.996   9.216   1.955 -0.3903  3.7590 -0.1892
20035SOL     OW62546   1.403   9.791   6.001  0.2799 -0.7486  0.6812
20035SOL    HW162547   1.401   9.867   5.942 -2.6799 -0.6064  0.8586
20035SOL    HW262548   1.496   9.769   6.006  1.0034  1.3496 -1.3000
20036SOL     OW62549   8.117   1.982   0.191 -0.1089 -0.2166 -1.0415
20036SOL    HW162550   8.091   1.963   0.282  0.8073 -1.8218 -1.0972
20036SOL    HW262551   8.040   1.958   0.139 -0.2075 -0.4361 -0.7995
20037SOL     OW62552   4.739   4.156   2.171 -0.4235 -0.6473 -0.1398
20037SOL    HW162553   4.712   4.246   2.153 -0.1528 -0.6232 -0.4442
20037SOL    HW262554   4.675   4.102   2.126 -0.5826 -0.6064  0.0373
20038SOL     OW62555   0.760   8.370   5.967 -0.3473  0.2372  0.3311
20038SOL    HW162556   0.840   8.370   5.914 -0.5085  1.0225  0.0656
20038SOL    HW262557   0.789   8.395   6.055 -0.0102 -1.5425  0.7477
20039SOL     OW62558   9.056   7.648  10.092 -0.5102  0.1346  0.2298
20039SOL    HW162559   9.074   7.563  10.133 -0.9483 -0.6408 -1.1411
20039SOL    HW262560   9.027   7.703  10.165 -0.4201 -0.9421  1.1176
20040SOL     OW62561   7.197  10.397   0.935 -0.2950 -0.0742  0.0472
20040SOL    HW162562   7.180  10.432   1.023  1.6022 -1.0702  0.8723
20040SOL    HW262563   7.238  10.470   0.888  2.7248 -0.7367  1.4431
20041SOL     OW62564   9.046   0.501   6.381  0.1692 -0.2615 -0.0647
20041SOL    HW162565   9.119   0.501   6.444  1.2360  0.3858 -1.2533
20041SOL    HW262566   9.032   0.408   6.361  0.1726 -0.4381  0.7258
20042SOL     OW62567   9.309   6.081   6.162 -0.2426 -0.1598  0.4374
20042SOL    HW162568   9.357   6.147   6.213  2.3423 -1.9069  0.4426
20042SOL    HW262569   9.223   6.077   6.204  0.7347  0.6818  2.7214
20043SOL     OW62570   1.224   0.297   9.667  0.5975 -0.0730  0.2950
20043SOL    HW162571   1.141   0.261   9.699  0.6944 -1.0427 -0.4872
20043SOL    HW262572   1.222   0.389   9.693  0.2147 -0.5631  2.1277
20044SOL     OW62573   8.044   8.149   8.156  0.1830 -0.4756  0.0751
20044SOL    HW162574   8.019   8.189   8.073 -0.5749  0.8158  0.8916
20044SOL    HW262575   8.125   8.193   8.181 -0.8580  0.9191  1.1687
20045SOL     OW62576   3.192   2.048   5.495  0.0731  0.3706  0.5611
20045SOL    HW162577   3.236   1.988   5.435 -0.9812 -2.0964  2.1016
20045SOL    HW262578   3.232   2.030   5.580 -3.0896 -1.3034  1.8506
20046SOL     OW62579   0.460   5.341   6.963 -0.4708 -0.3458  0.0431
20046SOL    HW162580   0.398   5.271   6.984 -0.3629 -0.6352 -0.5787
20046SOL    HW262581   0.409   5.422   6.971  0.3680  0.0239  5.0995
20047SOL     OW62582   2.017   6.595   1.704 -0.1770 -0.4466 -0.4851
20047SOL    HW162583   2.007   6.535   1.778  0.1812  0.8490  0.6525
20047SOL    HW262584   2.092   6.561   1.656  0.8898 -0.1908  0.9095
20048SOL     OW62585   8.707   3.734   6.906  0.2690  0.7154  0.3079
20048SOL    HW162586   8.770   3.687   6.961 -0.4956  1.2540  1.6731
20048SOL    HW262587   8.726   3.826   6.921 -0.5795  0.8775  0.4086
20049SOL     OW62588   9.512   6.633   0.228  0.6556  0.1495 -0.1845
20049SOL    HW162589   9.433   6.586   0.254  0.1758  0.0939 -1.6463
20049SOL    HW262590   9.580   6.600   0.287  0.0685 -1.4794 -0.3514
20050SOL     OW62591   1.889  10.102   8.052  0.8456 -0.3470  0.4431
20050SOL    HW162592   1.918  10.058   7.972 -0.2548 -0.3071  0.0062
20050SOL    HW262593   1.925  10.190   8.046  1.1074 -0.4677  0.1960
20051SOL     OW62594   4.867   5.265   5.292  0.4297  0.3171  0.3866
20051SOL    HW162595   4.913   5.181   5.291  0.8448  0.4828 -2.0553
20051SOL    HW262596   4.813   5.263   5.213 -0.1755  2.0138  0.7241
20052SOL     OW62597   9.990   2.899   1.306  0.2089  0.1997 -0.3617
20052SOL    HW162598   9.984   2.995   1.312  0.7377  0.2013  0.1429
20052SOL    HW262599   9.898   2.870   1.302 -0.0355  0.6040  1.4164
20053SOL     OW62600   3.302   1.622   2.686  0.0669  0.2419  0.6284
20053SOL    HW162601   3.319   1.647   2.777  0.3462 -0.8592  0.8893
20053SOL    HW262602   3.384   1.640   2.640 -0.3444  1.6226  0.3948
20054SOL     OW62603   0.879   9.712   7.323 -0.3307 -0.1797 -0.0544
20054SOL    HW162604   0.937   9.648   7.364  1.3565 -0.0396 -2.0623
20054SOL    HW262605   0.937   9.782   7.293 -1.3155 -0.5120 -3.0430
20055SOL     OW62606   0.239   9.929   7.449  0.4320 -0.2187  0.3862
20055SOL    HW162607   0.226  10.023   7.464  1.4439 -0.1426  0.8828
20055SOL    HW262608   0.305   9.904   7.513  1.5336 -0.8850 -0.9731
20056SOL     OW62609   3.668   1.479  10.436  0.0045 -0.7865 -0.4203
20056SOL    HW162610   3.671   1.412  10.505 -0.7620 -0.5597 -0.1670
20056SOL    HW262611   3.635   1.557  10.479  1.3194 -0.0899 -0.6118
20057SOL     OW62612   8.017   0.890   2.924  0.4971 -0.4327 -0.1637
20057SOL    HW162613   7.932   0.880   2.880  0.1009 -1.0092  0.7134
20057SOL    HW262614   7.996   0.934   3.007  1.1266 -0.1340 -0.1537
20058SOL     OW62615  10.016   0.800   6.486  0.3144 -0.3315 -0.2944
20058SOL    HW162616  10.083   0.833   6.546  0.0951 -0.5581  0.0757
20058SOL    HW262617  10.045   0.829   6.400  0.5044  0.2120 -0.0550
20059SOL     OW62618   2.155   0.936   8.960  0.3487 -0.0447  0.3021
20059SOL    HW162619   2.087   0.936   8.893  0.3576  0.3706  0.2864
20059SOL    HW262620   2.159   0.845   8.990  0.6591 -0.3282 -0.5659
20060SOL     OW62621   9.577   3.328   4.355 -0.2800 -0.2093 -0.3065
20060SOL    HW162622   9.558   3.331   4.261  0.6100 -0.3577 -0.5035
20060SOL    HW262623   9.673   3.329   4.360 -0.3237  0.2455  0.6226
20061SOL     OW62624   7.041   3.010   0.348 -0.1027  0.8557  0.1360
20061SOL    HW162625   7.096   3.013   0.426  0.3555  1.0984 -0.1901
20061SOL    HW262626   7.094   2.961   0.284 -1.2183 -0.9613  0.5510
20062SOL     OW62627   6.251   0.505   4.116  0.4359  0.0311  0.1939
20062SOL    HW162628   6.331   0.508   4.168  0.5399  1.9114 -0.0149
20062SOL    HW262629   6.181   0.511   4.181  0.5224  0.4194  0.2551
20063SOL     OW62630   4.814   3.102   4.959  0.2773 -0.4139 -0.0039
20063SOL    HW162631   4.877   3.164   4.924  1.2749 -1.2535  0.2423
20063SOL    HW262632   4.736   3.154   4.979  1.1106  0.7560  0.2645
20064SOL     OW62633   7.667   7.353   8.536 -0.3398 -0.0432  0.0502
20064SOL    HW162634   7.672   7.385   8.446  0.5703  0.2454  0.1952
20064SOL    HW262635   7.621   7.269   8.529 -0.7174  0.2135 -0.6146
20065SOL     OW62636   1.020   6.864   5.579  0.5463  0.0923 -0.0560
20065SOL    HW162637   0.966   6.829   5.508  0.1682  0.9929 -0.2383
20065SOL    HW262638   1.041   6.788   5.633 -1.1602 -0.2671  0.1770
20066SOL     OW62639   5.959   0.119   1.406 -0.3643 -0.1125  0.0232
20066SOL    HW162640   5.943   0.149   1.495  1.1685  0.7650  0.0305
20066SOL    HW262641   6.026   0.051   1.414 -0.8572 -0.6574 -0.3803
20067SOL     OW62642   9.164   1.970   6.896  0.3206  0.4075 -0.2473
20067SOL    HW162643   9.165   2.004   6.985 -0.5377 -0.5043  0.1248
20067SOL    HW262644   9.074   1.985   6.866  1.0558  2.4438 -1.6723
20068SOL     OW62645   0.198   8.496   5.670 -0.3505 -0.1318  0.0963
20068SOL    HW162646   0.228   8.415   5.629 -1.6011 -0.5740  0.0158
20068SOL    HW262647   0.108   8.505   5.641 -0.2664  1.2390  0.2014
20069SOL     OW62648   3.503   6.104   5.809 -0.4301 -0.2127 -0.5333
20069SOL    HW162649   3.567   6.175   5.814  0.7790 -1.3388  0.6477
20069SOL    HW262650   3.418   6.147   5.819  0.3238  0.9957  1.0784
20070SOL     OW62651   7.744   8.218   2.658 -0.1471  0.4077 -0.2857
20070SOL    HW162652   7.657   8.233   2.620  0.4072 -1.0676 -2.2854
20070SOL    HW262653   7.752   8.123   2.662  0.5286  0.5154  2.0385
20071SOL     OW62654   3.330   6.301   2.553 -0.3148  0.1903 -0.3385
20071SOL    HW162655   3.304   6.210   2.542 -2.1316  0.6384 -0.0449
20071SOL    HW262656   3.277   6.349   2.489 -0.2603  1.1736  0.3337
20072SOL     OW62657   8.842   0.257  10.376  0.1817 -0.0498  0.3873
20072SOL    HW162658   8.861   0.172  10.418  3.1421  0.1000 -0.4572
20072SOL    HW262659   8.835   0.237  10.283  1.8467  0.7392  0.0726
20073SOL     OW62660   7.348   2.339   2.262  0.1661 -0.0581  0.0638
20073SOL    HW162661   7.264   2.332   2.216  0.2889 -0.7060 -0.0634
20073SOL    HW262662   7.367   2.433   2.263  0.1163 -0.0272 -1.1287
20074SOL     OW62663   5.447   3.353   7.100 -0.0449  0.1341  0.4301
20074SOL    HW162664   5.541   3.366   7.085  0.0685  0.7626  1.5795
20074SOL    HW262665   5.439   3.336   7.194 -1.1181  0.5590  0.4403
20075SOL     OW62666   1.310   1.869   0.039  0.3237 -0.0040 -0.2164
20075SOL    HW162667   1.296   1.917  -0.042 -0.2841  2.3519  1.1876
20075SOL    HW262668   1.380   1.917   0.083  1.4076 -1.8898  0.1945
20076SOL     OW62669   9.417   5.686   3.823 -0.0463 -0.3253 -0.3949
20076SOL    HW162670   9.351   5.713   3.760 -0.6841 -1.4854 -0.2562
20076SOL    HW262671   9.366   5.662   3.901  0.5872 -0.6661 -0.0832
20077SOL     OW62672   3.755   0.238   6.117  0.4570  0.2199 -0.3394
20077SOL    HW162673   3.733   0.145   6.121  0.6242  0.2154  0.9712
20077SOL    HW262674   3.688   0.281   6.169 -1.3766  1.2406 -3.3110
20078SOL     OW62675   2.643   3.118  10.009 -0.0629 -0.5385  0.2232
20078SOL    HW162676   2.679   3.079   9.929  2.8076 -2.7232  2.3333
20078SOL    HW262677   2.602   3.044  10.055 -1.3750  0.6025  0.9750
20079SOL     OW62678   7.578   7.028   5.010 -0.3447  0.1065  0.2484
20079SOL    HW162679   7.540   7.071   4.933  1.1189  0.6587 -0.2146
20079SOL    HW262680   7.671   7.049   5.004  0.0219 -1.1068  1.3663
20080SOL     OW62681   2.549   6.102   2.427 -0.2830 -0.2386  0.2623
20080SOL    HW162682   2.534   6.181   2.479 -5.0267 -0.1708 -0.7392
20080SOL    HW262683   2.498   6.034   2.472  1.4377 -2.1184 -0.4330
20081SOL     OW62684   9.385   3.713   2.332  0.3574 -0.0783  0.5013
20081SOL    HW162685   9.420   3.654   2.398 -0.2292  0.5437  1.3896
20081SOL    HW262686   9.327   3.658   2.280  1.0840 -0.6519  0.2704
20082SOL     OW62687   4.920   2.223   7.545  0.0855 -0.5755  0.4074
20082SOL    HW162688   4.929   2.301   7.489  0.6149 -1.0138 -0.1232
20082SOL    HW262689   4.923   2.258   7.634  0.8081 -0.0221  0.1833
20083SOL     OW62690   3.634   0.587   0.002  0.3761 -0.5317  0.1244
20083SOL    HW162691   3.660   0.547  -0.081  1.1607 -0.3139  0.2563
20083SOL    HW262692   3.651   0.681  -0.010 -0.8061 -0.3055  0.0580
20084SOL     OW62693   3.639   8.244  10.372  0.3529 -0.4807  0.1019
20084SOL    HW162694   3.693   8.279  10.302  0.0842 -0.3289 -0.0272
20084SOL    HW262695   3.629   8.317  10.434  1.2551 -0.8418  0.7009
20085SOL     OW62696   9.403   2.637   9.207 -0.2711  0.2285 -0.1262
20085SOL    HW162697   9.485   2.618   9.252  0.0747 -0.3693 -0.9922
20085SOL    HW262698   9.367   2.551   9.185  0.6238  0.4815 -2.8485
20086SOL     OW62699   8.735   3.882   0.319  0.3173  0.4682  0.0998
20086SOL    HW162700   8.707   3.794   0.297  0.9587  0.0012  1.0840
20086SOL    HW262701   8.680   3.939   0.265 -0.5020 -0.5055 -0.1177
20087SOL     OW62702   2.005   0.482   5.340  0.6485 -0.2604  0.2015
20087SOL    HW162703   2.070   0.471   5.408  0.0457  0.6958  0.9674
20087SOL    HW262704   1.927   0.436   5.373 -0.1953  1.6279  1.0047
20088SOL     OW62705   7.034   7.291   4.973 -0.1930 -0.1867  0.3803
20088SOL    HW162706   7.004   7.265   5.060 -0.5166  0.7519  0.5589
20088SOL    HW262707   7.035   7.209   4.923  1.1689 -0.9561  1.5810
20089SOL     OW62708   6.340   8.909   3.235 -0.0467  0.2007 -0.4285
20089SOL    HW162709   6.388   8.828   3.250 -0.8230 -0.5238 -1.6770
20089SOL    HW262710   6.398   8.961   3.179 -0.4713 -0.4669 -1.5253
20090SOL     OW62711   8.766   3.545   9.568 -0.1099 -0.4016 -0.0565
20090SOL    HW162712   8.746   3.631   9.603  0.8670  0.3108 -1.1598
20090SOL    HW262713   8.712   3.539   9.489  1.9425  0.4705 -1.6209
20091SOL     OW62714   7.947   6.453   5.866  0.8662 -0.0526  0.2638
20091SOL    HW162715   7.972   6.421   5.780 -2.1270  1.8960 -1.5352
20091SOL    HW262716   7.877   6.395   5.894 -0.0753  0.9186  0.0162
20092SOL     OW62717   1.042   9.860   6.529 -0.1304 -0.0549  0.0730
20092SOL    HW162718   0.997   9.944   6.519 -1.8186 -0.6701  1.7541
20092SOL    HW262719   0.987   9.798   6.480  0.2475 -0.4157  0.1040
20093SOL     OW62720  10.280   9.999   3.990  0.6571  0.2796 -0.1095
20093SOL    HW162721  10.267   9.925   4.050  1.3383  0.8645  0.7909
20093SOL    HW262722  10.345   9.968   3.927 -0.6531 -0.6217 -1.0835
20094SOL     OW62723   7.104   9.913   3.707  0.5615  0.5702 -0.0166
20094SOL    HW162724   7.113  10.004   3.679 -0.7503  1.1231  1.2434
20094SOL    HW262725   7.121   9.862   3.628  0.5381  1.9302 -0.9344
20095SOL     OW62726   0.023  10.038   3.456 -0.8218  0.1612 -0.6065
20095SOL    HW162727   0.047  10.114   3.509 -0.9804 -0.2099  0.0075
20095SOL    HW262728  -0.070  10.024   3.476 -0.7408 -0.3108 -0.5675
20096SOL     OW62729   6.677   5.040   9.108 -0.0458  0.3462  0.3476
20096SOL    HW162730   6.711   5.060   9.195  0.9472 -0.5288  0.1773
20096SOL    HW262731   6.643   4.951   9.116  3.4196 -1.2664 -1.0312
20097SOL     OW62732   2.395   5.966   1.861 -0.5732 -0.2271 -0.4022
20097SOL    HW162733   2.376   5.990   1.951  0.6235 -0.7289  0.0008
20097SOL    HW262734   2.460   6.029   1.832  3.0809 -3.0698  0.8703
20098SOL     OW62735   5.083   8.574   3.015 -0.4783 -0.1435  0.0217
20098SOL    HW162736   5.110   8.613   2.932  0.2638  0.2577  0.4480
20098SOL    HW262737   5.032   8.497   2.989 -0.1635 -0.0843 -0.8054
20099SOL     OW62738   3.799   6.126   8.700 -0.5407  0.0412  0.0196
20099SOL    HW162739   3.839   6.064   8.638 -1.8388 -0.8709  0.0617
20099SOL    HW262740   3.854   6.122   8.778 -0.2532 -0.5760 -0.2139
20100SOL     OW62741   6.973   1.840   1.011 -0.0475  0.3246 -0.8484
20100SOL    HW162742   6.979   1.759   1.061 -0.2700  0.6888 -0.2130
20100SOL    HW262743   6.925   1.900   1.069  3.7679  2.2999  0.6394
20101SOL     OW62744   9.761   7.181   5.372 -0.1693 -0.1188 -0.0392
20101SOL    HW162745   9.693   7.220   5.427 -0.0163 -0.3510  0.3214
20101SOL    HW262746   9.741   7.087   5.372  0.3422 -0.2316  0.3424
20102SOL     OW62747   5.002   4.951   3.664  0.2963  0.5268 -0.2685
20102SOL    HW162748   4.906   4.952   3.656  0.3723  0.2566 -1.4710
20102SOL    HW262749   5.019   4.900   3.743 -0.5585  0.5057 -0.0880
20103SOL     OW62750   0.807   9.629   8.044  0.1652  0.1712  0.3529
20103SOL    HW162751   0.764   9.553   8.005 -1.1454  1.2910 -0.4580
20103SOL    HW262752   0.845   9.676   7.970 -0.1394  0.9870  0.7118
20104SOL     OW62753   7.223   8.334   5.899 -0.0211 -0.0145  0.6821
20104SOL    HW162754   7.159   8.402   5.878 -0.6101 -1.0148 -1.0079
20104SOL    HW262755   7.178   8.278   5.962 -0.6915 -0.4768 -0.1778
20105SOL     OW62756  10.129   8.547  10.436  0.2206  0.4599 -0.6441
20105SOL    HW162757  10.158   8.606  10.366 -1.0634  2.3150  0.3173
20105SOL    HW262758  10.202   8.545  10.498 -0.5845  3.1060  0.5370
20106SOL     OW62759   9.140   7.100   0.295 -0.6872  0.1821  0.0615
20106SOL    HW162760   9.211   7.051   0.336  0.0433  0.3276 -0.9976
20106SOL    HW262761   9.064   7.081   0.350 -0.1173 -0.9821  0.4914
20107SOL     OW62762   9.657  10.212   0.454  0.4802 -0.4819  0.2850
20107SOL    HW162763   9.667  10.118   0.466  1.1968 -0.2447  1.7638
20107SOL    HW262764   9.720  10.234   0.386  2.3632 -0.6916  1.8571
20108SOL     OW62765   6.294   7.593   5.987 -0.0522 -0.0420  0.0132
20108SOL    HW162766   6.225   7.656   5.968  0.3366  0.3016 -0.2513
20108SOL    HW262767   6.353   7.639   6.046  1.7822  0.8744 -2.4018
20109SOL     OW62768   0.822   9.230   5.888 -0.3266 -0.2512 -0.1832
20109SOL    HW162769   0.883   9.178   5.942  1.5178  0.9296 -1.0314
20109SOL    HW262770   0.854   9.219   5.799 -0.9982  0.8883 -0.5826
20110SOL     OW62771  10.424   4.185   4.199 -0.6018 -0.1258  0.0315
20110SOL    HW162772  10.426   4.096   4.234 -0.5262  0.4150  1.4416
20110SOL    HW262773  10.352   4.184   4.136 -0.5249 -1.2097 -0.0574
20111SOL     OW62774   9.340  10.207   7.693 -0.0254 -0.2515 -0.2292
20111SOL    HW162775   9.269  10.270   7.678  0.3852  0.2933  0.0672
20111SOL    HW262776   9.409  10.235   7.634  0.1524 -0.4415 -0.1111
20112SOL     OW62777   7.235   9.156   3.602 -0.3670  0.4284 -0.3464
20112SOL    HW162778   7.225   9.102   3.524  0.6758  0.7586 -0.7171
20112SOL    HW262779   7.294   9.105   3.658  0.2243  0.9482 -0.4902
20113SOL     OW62780  10.012   1.851   0.677  0.8415  0.0141  0.0446
20113SOL    HW162781  10.066   1.840   0.599  0.7593  1.3779 -0.2269
20113SOL    HW262782   9.964   1.932   0.662 -0.3723 -0.5277  0.8268
20114SOL     OW62783   3.483  10.037   9.450 -0.0577 -0.0864  0.0875
20114SOL    HW162784   3.418  10.000   9.391  0.5208 -1.4442  0.2643
20114SOL    HW262785   3.506  10.121   9.411 -0.7591 -0.3033 -0.8112
20115SOL     OW62786   0.966   1.344   1.301 -0.3107 -0.5510  0.1870
20115SOL    HW162787   1.021   1.380   1.231  0.3771  1.6295  1.7358
20115SOL    HW262788   0.877   1.349   1.266  0.1666 -1.2166 -1.1890
20116SOL     OW62789   9.247   7.753   9.049  0.2671 -0.1320  0.5325
20116SOL    HW162790   9.209   7.665   9.063 -1.7526  0.4967 -0.5724
20116SOL    HW262791   9.191   7.792   8.982  0.4660  2.3899  1.7344
20117SOL     OW62792   9.452   2.983   6.763 -0.0174  0.6027 -0.1067
20117SOL    HW162793   9.474   2.934   6.684  0.1944  1.1764 -0.4105
20117SOL    HW262794   9.536   3.014   6.797 -0.0299 -0.2864  0.7814
20118SOL     OW62795   4.574   3.388   5.806 -0.5793 -0.4676 -0.2705
20118SOL    HW162796   4.499   3.399   5.864  1.0942  1.6908  1.6704
20118SOL    HW262797   4.621   3.313   5.842  1.0700  1.5483  2.0815
20119SOL     OW62798   9.554   6.411   1.614 -0.1890  0.4685  0.0792
20119SOL    HW162799   9.626   6.471   1.594 -1.0267  1.4634 -0.0396
20119SOL    HW262800   9.583   6.361   1.690  0.4438  1.1747  0.3015
20120SOL     OW62801   6.463   2.910   0.499  0.5097 -0.3101  0.1165
20120SOL    HW162802   6.550   2.871   0.506  1.1185  0.9674 -0.1041
20120SOL    HW262803   6.441   2.935   0.589 -0.0601 -1.4903  0.3245
20121SOL     OW62804   8.697   2.797   8.741  0.5064 -0.0401 -0.0362
20121SOL    HW162805   8.716   2.707   8.769  0.4389 -0.2388 -0.6296
20121SOL    HW262806   8.624   2.824   8.798  0.2373 -0.5168 -0.1471
20122SOL     OW62807   4.919   6.440   6.018  0.3569  0.3125  0.3045
20122SOL    HW162808   4.835   6.440   6.064  0.7131 -1.1779  1.0264
20122SOL    HW262809   4.909   6.376   5.948  1.9619 -2.8665  2.6907
20123SOL     OW62810   4.842   2.699   1.382  0.0226 -0.4059  0.1325
20123SOL    HW162811   4.887   2.763   1.326 -0.6543 -0.1590 -0.1414
20123SOL    HW262812   4.804   2.752   1.452 -0.2538 -0.5489  0.0915
20124SOL     OW62813   9.392   8.557   0.113  0.4569 -0.4422 -0.2110
20124SOL    HW162814   9.404   8.465   0.089 -0.6016 -0.9949  1.2447
20124SOL    HW262815   9.481   8.588   0.130  0.8015 -1.3209 -0.3070
20125SOL     OW62816   7.982   8.580   3.977 -0.5913 -1.1169  0.6376
20125SOL    HW162817   7.915   8.649   3.973  1.3358  0.9174  1.1120
20125SOL    HW262818   7.934   8.498   3.968 -2.7936  0.3151 -2.7607
20126SOL     OW62819   1.344   9.316   1.028 -0.3133  0.5467  0.0823
20126SOL    HW162820   1.283   9.246   1.004  1.2441 -0.5885 -0.7236
20126SOL    HW262821   1.339   9.378   0.955 -1.5206  1.2028  0.6883
20127SOL     OW62822   8.704   4.708   0.881 -0.1196  0.1508 -0.0030
20127SOL    HW162823   8.679   4.742   0.967 -1.1546 -0.2932 -0.1086
20127SOL    HW262824   8.735   4.619   0.898  1.1858  0.6070  0.0923
20128SOL     OW62825   4.682   3.762   9.020  0.5381 -0.2681  0.0417
20128SOL    HW162826   4.742   3.806   8.960 -0.8017 -0.1796 -1.3132
20128SOL    HW262827   4.631   3.704   8.963 -0.9583  0.0025  1.0557
20129SOL     OW62828   0.035   2.430   1.925  0.2482  0.7465 -0.2880
20129SOL    HW162829   0.034   2.452   1.832 -0.2778  1.8597 -0.0403
20129SOL    HW262830   0.061   2.511   1.969 -2.4573  1.1919  0.7210
20130SOL     OW62831   9.936  10.291   8.638  0.0420  0.1230  0.2309
20130SOL    HW162832   9.842  10.292   8.654  0.1453  0.3074  0.8466
20130SOL    HW262833   9.970  10.363   8.691  0.5098  0.1576 -0.1105
20131SOL     OW62834   4.366   3.186   2.903 -0.3539  0.3214  0.2673
20131SOL    HW162835   4.424   3.248   2.858 -0.5065 -0.2327 -0.7288
20131SOL    HW262836   4.310   3.241   2.958  0.3489  0.9539  0.3672
20132SOL     OW62837   6.804   2.088   3.266  0.3826 -0.1795 -0.7067
20132SOL    HW162838   6.776   2.020   3.206 -0.2394  0.3050 -0.9815
20132SOL    HW262839   6.764   2.168   3.232 -0.9707 -0.0754  0.9753
20133SOL     OW62840   9.473   3.773   4.851  0.3459 -0.2162 -0.3358
20133SOL    HW162841   9.513   3.776   4.764  2.3755  0.6641  0.5692
20133SOL    HW262842   9.547   3.772   4.911 -1.0162 -0.4582  1.4128
20134SOL     OW62843   7.857   5.737   6.572  0.2630 -0.6570  0.3615
20134SOL    HW162844   7.775   5.710   6.614 -0.8416  0.5959 -0.8744
20134SOL    HW262845   7.859   5.688   6.490 -0.4115  0.9216 -0.6478
20135SOL     OW62846   4.230   1.930   2.005  0.2756 -0.2748 -0.8252
20135SOL    HW162847   4.162   1.994   2.027  0.2735 -0.7164  0.6019
20135SOL    HW262848   4.286   1.974   1.941 -0.7512  0.4802 -1.2098
20136SOL     OW62849   8.481   9.016   7.667  0.3404  0.0484 -0.5123
20136SOL    HW162850   8.400   9.003   7.618  0.2754  1.7253 -0.9012
20136SOL    HW262851   8.473   9.103   7.704  0.9167 -0.7100  1.5321
20137SOL     OW62852  10.358   1.299   9.669 -0.5103  0.6171  0.0928
20137SOL    HW162853  10.327   1.359   9.600 -0.4707  1.9070  1.1574
20137SOL    HW262854  10.370   1.355   9.746  1.8135 -0.3493  0.4966
20138SOL     OW62855   2.773   4.423   5.143 -0.0947  0.2178 -0.3523
20138SOL    HW162856   2.844   4.465   5.094 -0.2382 -0.6384 -1.3089
20138SOL    HW262857   2.785   4.330   5.129 -0.1797 -0.0637  1.2108
20139SOL     OW62858   9.454   3.822   6.258 -0.2451  0.1662 -0.1327
20139SOL    HW162859   9.483   3.829   6.167  2.0575  0.1188  0.5395
20139SOL    HW262860   9.535   3.820   6.309 -1.4927  1.3361  2.0190
20140SOL     OW62861   1.747   5.264   9.602  0.0614 -0.1898  0.1327
20140SOL    HW162862   1.719   5.213   9.526 -0.0593 -2.4116  1.5735
20140SOL    HW262863   1.676   5.251   9.666  1.4661 -0.8127  1.6326
20141SOL     OW62864   5.733   0.476   2.134 -0.7905  0.0528 -0.2536
20141SOL    HW162865   5.670   0.480   2.062 -2.9629 -1.9901  1.3754
20141SOL    HW262866   5.743   0.382   2.152  2.1002  0.3461  0.1689
20142SOL     OW62867   7.370   6.824   4.944 -0.3202  0.6308  0.0768
20142SOL    HW162868   7.335   6.845   4.857 -0.9164  0.8463  0.3640
20142SOL    HW262869   7.464   6.838   4.935 -0.3584  0.5372 -0.5677
20143SOL     OW62870   9.366   4.426   1.619  0.2055  0.0084  0.4202
20143SOL    HW162871   9.455   4.413   1.652  1.1575 -0.7103 -2.1526
20143SOL    HW262872   9.334   4.337   1.601 -0.6243  0.3133  0.3217
20144SOL     OW62873   8.634   2.520   6.910 -0.0746  0.3562  0.2055
20144SOL    HW162874   8.604   2.515   6.819 -2.0718 -1.9722  0.8986
20144SOL    HW262875   8.573   2.580   6.952  0.6351  1.1506  0.1494
20145SOL     OW62876  10.204   1.479   8.667  0.4438  0.5428  0.7314
20145SOL    HW162877  10.218   1.385   8.665 -0.2137  0.4473  0.3891
20145SOL    HW262878  10.216   1.504   8.758 -1.5932 -0.2213  1.2565
20146SOL     OW62879  10.421   3.511   0.527 -0.2603 -0.8846 -0.1213
20146SOL    HW162880  10.398   3.548   0.612 -0.8124 -0.6765 -0.3559
20146SOL    HW262881  10.346   3.531   0.471 -0.2449 -1.6856 -0.4538
20147SOL     OW62882   8.165   9.031   0.272 -0.0650 -0.1195 -0.1860
20147SOL    HW162883   8.188   8.990   0.189  1.2615  0.5699 -0.1998
20147SOL    HW262884   8.205   8.975   0.339 -0.5939 -0.3355 -0.0517
20148SOL     OW62885   3.695   9.632   3.738  0.2337 -0.2344  0.3955
20148SOL    HW162886   3.726   9.558   3.685  2.2125  1.3370 -0.8024
20148SOL    HW262887   3.628   9.674   3.684  1.2174  0.5158 -0.2889
20149SOL     OW62888   2.787   4.260   4.015  0.1882 -0.2589  0.0122
20149SOL    HW162889   2.699   4.222   4.009 -0.0642  0.5060 -1.8510
20149SOL    HW262890   2.845   4.184   4.010 -0.3499 -0.7160  0.5211
20150SOL     OW62891   0.555   2.207  10.018  0.3387  0.3900  0.0066
20150SOL    HW162892   0.559   2.240   9.928 -0.5658  1.8197  0.4620
20150SOL    HW262893   0.618   2.261  10.066  0.2388  0.1627  0.3986
20151SOL     OW62894   7.401   5.501   2.352 -0.1693  0.7855  0.1299
20151SOL    HW162895   7.479   5.555   2.344  0.8614 -0.5008  0.9640
20151SOL    HW262896   7.344   5.550   2.412  0.2815  1.4230  0.0459
20152SOL     OW62897   4.117   5.945   1.334  0.3145  0.0118  0.0466
20152SOL    HW162898   4.099   5.855   1.307  0.7764 -0.2863  0.6929
20152SOL    HW262899   4.212   5.948   1.343  0.1537 -0.3595  3.0181
20153SOL     OW62900   4.518   2.317   8.738  0.5426  0.3450  0.4069
20153SOL    HW162901   4.450   2.254   8.758 -0.3291  1.0410 -0.2635
20153SOL    HW262902   4.579   2.270   8.680 -0.9782  0.5753 -1.4552
20154SOL     OW62903   5.253   1.564   6.868  0.3719 -0.2174  0.0131
20154SOL    HW162904   5.263   1.480   6.912  0.1578 -0.2102  0.0739
20154SOL    HW262905   5.287   1.628   6.930 -0.1540 -0.1821  0.2627
20155SOL     OW62906   4.168   6.139   7.047 -0.4102 -0.5836  0.0784
20155SOL    HW162907   4.168   6.171   6.956 -0.9076 -0.3573  0.1539
20155SOL    HW262908   4.260   6.141   7.073 -0.5218  2.3541  0.6127
20156SOL     OW62909   3.003   5.681   7.647  0.4078  0.2422 -0.1445
20156SOL    HW162910   3.059   5.674   7.724  2.7180  0.0218 -1.7514
20156SOL    HW262911   2.943   5.753   7.668 -0.4474 -1.1209  2.6272
20157SOL     OW62912  10.437   5.813   9.860  0.1609  0.1164 -0.0118
20157SOL    HW162913  10.371   5.839   9.923 -1.0029 -0.9490 -0.7533
20157SOL    HW262914  10.492   5.891   9.848 -1.0775  1.0761  0.4561
20158SOL     OW62915   7.289   5.793   5.899 -0.3758 -0.2571 -0.5875
20158SOL    HW162916   7.307   5.700   5.891 -0.2016 -0.2695 -0.1255
20158SOL    HW262917   7.374   5.835   5.883 -0.6641 -0.1171 -1.7967
20159SOL     OW62918   7.675  10.326   7.765 -0.0931 -0.7098 -0.1610
20159SOL    HW162919   7.769  10.320   7.750 -0.3716 -2.0536 -1.6106
20159SOL    HW262920   7.665  10.398   7.828  1.8073  0.1968 -0.8239
20160SOL     OW62921   7.995   6.543   4.755 -0.3608  0.2909 -0.0579
20160SOL    HW162922   7.932   6.567   4.824 -0.5908 -1.0371  0.2185
20160SOL    HW262923   7.957   6.579   4.675 -0.5907  1.0044  0.3607
20161SOL     OW62924   8.259   9.725   0.237 -0.4353 -0.0250 -0.1871
20161SOL    HW162925   8.278   9.634   0.215 -0.8976 -0.1580 -0.0591
20161SOL    HW262926   8.284   9.734   0.329 -0.3514 -0.0093 -0.2111
20162SOL     OW62927   0.019   4.434   4.246  0.3291  0.1782 -0.5020
20162SOL    HW162928   0.003   4.340   4.244 -1.2181  0.4302 -2.2493
20162SOL    HW262929   0.081   4.449   4.173  0.8942  0.4747  0.0297
20163SOL     OW62930  10.035   5.727   9.901  0.2440 -0.6318  0.1439
20163SOL    HW162931  10.034   5.681   9.817  1.0060 -1.7334  0.7168
20163SOL    HW262932  10.077   5.665   9.962 -0.6344 -0.0172  1.4215
20164SOL     OW62933   3.120   7.808   1.618  0.0386 -0.4960  0.1982
20164SOL    HW162934   3.053   7.826   1.685  0.1103 -1.8780  0.6635
20164SOL    HW262935   3.138   7.715   1.627  1.4868 -0.2947 -0.4456
20165SOL     OW62936   2.613   4.098  10.356 -0.1387  0.4195 -0.7435
20165SOL    HW162937   2.573   4.022  10.315  2.2982  0.0178 -2.5761
20165SOL    HW262938   2.598   4.170  10.295 -0.9199  1.0612  0.1621
20166SOL     OW62939   0.382   5.742   8.780  0.6022  0.8197 -0.1657
20166SOL    HW162940   0.468   5.713   8.812 -0.1204  0.9854  2.1303
20166SOL    HW262941   0.331   5.756   8.860 -1.7950  0.0503 -1.4705
20167SOL     OW62942   9.268   0.052   7.706 -0.3496  0.0084  0.0982
20167SOL    HW162943   9.269   0.015   7.618  0.7067 -2.8097  1.1954
20167SOL    HW262944   9.358   0.043   7.737 -0.5519  1.5632  1.2662
20168SOL     OW62945   5.824   3.668   2.709  0.3529 -0.4891 -0.5620
20168SOL    HW162946   5.900   3.640   2.761  1.6520  1.0689 -1.5143
20168SOL    HW262947   5.792   3.747   2.753  0.6853  0.1232 -1.3814
20169SOL     OW62948   2.163   8.468   0.019 -0.0105 -0.5830 -0.1027
20169SOL    HW162949   2.128   8.464   0.109 -1.1251 -1.5320 -0.5375
20169SOL    HW262950   2.128   8.389  -0.023  2.4696 -1.4544 -0.6971
20170SOL     OW62951  10.272   5.303   8.542 -0.5604  0.1603  0.6136
20170SOL    HW162952  10.197   5.358   8.517 -1.2653 -0.2090  1.8131
20170SOL    HW262953  10.331   5.307   8.467 -1.7147  0.5861 -0.3076
20171SOL     OW62954   4.457   7.491   5.301  0.4849 -0.1068  0.1449
20171SOL    HW162955   4.549   7.518   5.297  0.8621 -1.0571  1.4105
20171SOL    HW262956   4.458   7.399   5.275  0.1390 -0.5265  1.4936
20172SOL     OW62957   5.112   6.197   2.637  0.7949  0.4175 -0.4283
20172SOL    HW162958   5.203   6.221   2.652  0.6935  0.6583 -0.1894
20172SOL    HW262959   5.084   6.156   2.718  0.8499 -0.1629 -0.6977
20173SOL     OW62960   7.987   1.878   0.777 -0.4622 -0.0394  0.0916
20173SOL    HW162961   8.059   1.817   0.763 -0.6438 -0.4367  0.8199
20173SOL    HW262962   7.922   1.855   0.711 -0.1333 -0.0144 -0.2404
20174SOL     OW62963   0.380   1.180   4.416  0.1250  0.5877  0.1681
20174SOL    HW162964   0.343   1.100   4.380  0.6188  0.6215 -0.4243
20174SOL    HW262965   0.471   1.180   4.388 -0.4577  2.6049 -2.0625
20175SOL     OW62966   7.942   3.159   3.340 -0.1698 -0.3002 -0.1072
20175SOL    HW162967   7.997   3.082   3.326  1.2203  0.8701 -1.5636
20175SOL    HW262968   7.964   3.188   3.429 -0.9992 -1.7564  0.6055
20176SOL     OW62969   0.707   7.241   5.645 -0.2422  0.3674 -0.6131
20176SOL    HW162970   0.700   7.270   5.736  0.7647 -1.8919  0.2576
20176SOL    HW262971   0.796   7.266   5.619  1.0898 -2.6450  0.5411
20177SOL     OW62972   7.152   8.771   9.743 -0.1550  0.3527 -0.4901
20177SOL    HW162973   7.119   8.739   9.659  0.1986 -0.2877 -0.3863
20177SOL    HW262974   7.208   8.701   9.776  1.0305  1.2645 -0.4922
20178SOL     OW62975   1.293   1.094   5.865 -0.0324  0.4743 -0.0893
20178SOL    HW162976   1.353   1.032   5.908 -0.5491 -0.1793 -0.2856
20178SOL    HW262977   1.271   1.052   5.782  1.4992  2.0417 -1.3580
20179SOL     OW62978   5.801   9.746   2.540 -0.0496 -0.1344  0.1604
20179SOL    HW162979   5.850   9.775   2.463  0.2367  0.4493  0.5559
20179SOL    HW262980   5.716   9.789   2.532 -0.3798 -0.8526 -0.3321
20180SOL     OW62981   1.144   3.080   4.560  0.2154  0.0548 -0.3335
20180SOL    HW162982   1.106   2.993   4.574  0.2276 -0.0152 -0.7341
20180SOL    HW262983   1.117   3.105   4.472  2.3089 -0.6455 -1.2408
20181SOL     OW62984  10.336   5.911   7.884  0.1032  0.0976 -0.4046
20181SOL    HW162985  10.280   5.984   7.857  1.8076  1.0969 -1.4383
20181SOL    HW262986  10.406   5.909   7.820  1.7523 -0.5368  1.3047
20182SOL     OW62987   3.827   4.903   2.102  0.5748 -0.1677 -0.2030
20182SOL    HW162988   3.867   4.913   2.016  1.3904 -1.9564 -0.0809
20182SOL    HW262989   3.734   4.890   2.084  0.7848 -0.8414 -0.8657
20183SOL     OW62990   2.252   9.969   0.939 -0.4773 -0.2223  0.5039
20183SOL    HW162991   2.301   9.978   1.021  0.5483 -2.3382  0.1805
20183SOL    HW262992   2.320   9.961   0.872 -1.2975 -0.8096 -0.2634
20184SOL     OW62993  10.383   8.209   6.786 -0.0648  0.1706  0.1157
20184SOL    HW162994  10.402   8.301   6.767  0.6949  0.0305  0.1993
20184SOL    HW262995  10.431   8.190   6.866 -0.1035 -0.3403  0.0233
20185SOL     OW62996   4.445   4.411   3.522  0.3380  0.0995 -1.0977
20185SOL    HW162997   4.481   4.339   3.574  0.2191  0.7816 -0.0261
20185SOL    HW262998   4.521   4.459   3.491  0.4188 -0.5127 -1.8674
20186SOL     OW62999   1.351   9.681   8.400 -0.2227 -0.3290  0.1595
20186SOL    HW163000   1.302   9.646   8.474 -0.3713  1.7285  1.1001
20186SOL    HW263001   1.429   9.720   8.438  0.2881 -0.2520 -0.9109
20187SOL     OW63002   7.728   6.928   9.690 -0.9099 -0.4049 -0.6149
20187SOL    HW163003   7.737   6.924   9.785 -2.0355  1.1987 -0.3952
20187SOL    HW263004   7.769   6.848   9.659  1.3779  0.0133  1.0655
20188SOL     OW63005   7.748   2.091   0.938  0.0822 -0.2423  0.1657
20188SOL    HW163006   7.820   2.150   0.960  0.1751 -0.3644  0.1918
20188SOL    HW263007   7.779   2.045   0.859  0.4113 -0.9428  0.6894
20189SOL     OW63008   0.632   4.709   8.909 -0.0024 -0.5350 -0.6758
20189SOL    HW163009   0.595   4.787   8.950 -0.4675 -1.0484 -0.0997
20189SOL    HW263010   0.615   4.721   8.815  1.3192  0.7796 -0.7865
20190SOL     OW63011   6.061   7.892  10.288  0.2044  0.2276  0.4024
20190SOL    HW163012   6.123   7.820  10.301  0.0323 -0.3939 -1.8595
20190SOL    HW263013   6.062   7.908  10.194 -1.5838  1.5720  0.5673
20191SOL     OW63014   8.855  10.111   1.591  0.0928  0.0163  0.1757
20191SOL    HW163015   8.822  10.169   1.659  0.3590  0.4393 -0.0561
20191SOL    HW263016   8.779  10.093   1.536  0.4970  2.1280 -1.1869
20192SOL     OW63017   1.497   3.372   6.206 -0.2744  0.3821 -0.1942
20192SOL    HW163018   1.494   3.444   6.143 -0.3825 -0.1209 -0.7758
20192SOL    HW263019   1.406   3.356   6.228 -0.3020 -0.0175 -0.5844
20193SOL     OW63020   5.678   3.206   5.889  0.1063 -0.0545  0.0341
20193SOL    HW163021   5.727   3.280   5.927 -0.4008 -0.3237  1.2775
20193SOL    HW263022   5.731   3.129   5.912 -0.6645 -0.3093  1.0548
20194SOL     OW63023   5.636  10.111   5.993 -0.3178  0.4507 -0.3611
20194SOL    HW163024   5.554  10.115   6.042 -0.3666  0.7531 -0.4703
20194SOL    HW263025   5.646  10.198   5.955 -1.1662 -0.2349 -2.3115
20195SOL     OW63026   8.667   4.200   2.375  0.4037 -0.2670  0.5912
20195SOL    HW163027   8.653   4.187   2.281 -0.0148 -0.4173  0.6739
20195SOL    HW263028   8.602   4.144   2.417  1.0008 -0.6749  0.9760
20196SOL     OW63029   7.195   5.472   7.018  0.1871  0.1163  0.4189
20196SOL    HW163030   7.159   5.546   7.067 -0.8677 -0.8052  1.0510
20196SOL    HW263031   7.184   5.396   7.075 -0.4865 -0.8736 -0.9650
20197SOL     OW63032   1.303   7.648   3.308 -0.0242  0.0695 -0.2279
20197SOL    HW163033   1.372   7.616   3.366  1.2181  0.6819 -1.3185
20197SOL    HW263034   1.221   7.629   3.355  0.8727 -0.6555  1.1006
20198SOL     OW63035   1.891   5.955   0.444  0.3666  0.3389 -0.2658
20198SOL    HW163036   1.881   5.882   0.383 -0.6999  1.1047 -1.0381
20198SOL    HW263037   1.912   5.913   0.528  1.3077 -0.7546 -1.0081
20199SOL     OW63038   5.806   1.757   4.394  0.0677  0.4992  0.3409
20199SOL    HW163039   5.892   1.798   4.404  0.9321 -0.8654 -0.9852
20199SOL    HW263040   5.788   1.718   4.479  1.0295  0.3446  0.4892
20200SOL     OW63041   0.334   2.630   3.826  0.2013  0.3055 -0.6048
20200SOL    HW163042   0.380   2.610   3.744  0.5764  0.4492 -0.4317
20200SOL    HW263043   0.296   2.716   3.811 -2.3911 -0.9191 -1.7823
20201SOL     OW63044   5.306   9.184   8.100  0.2756  0.3221  0.2766
20201SOL    HW163045   5.374   9.249   8.118  0.3211  0.4257 -0.2471
20201SOL    HW263046   5.354   9.102   8.089  0.2088  0.1672  1.0475
20202SOL     OW63047   4.296   4.124   7.720  0.0306 -0.7642 -0.1906
20202SOL    HW163048   4.268   4.061   7.653  2.4751 -0.8901 -1.1815
20202SOL    HW263049   4.232   4.195   7.712  0.7703 -0.2874 -3.4457
20203SOL     OW63050   8.938   6.047   3.580  0.0481 -0.5258 -0.4181
20203SOL    HW163051   8.879   6.121   3.597  0.6955 -0.0110 -0.3720
20203SOL    HW263052   8.970   6.022   3.667 -1.1461 -1.7085 -0.2824
20204SOL     OW63053   0.598   3.570   7.385  0.5397 -0.1716  0.3022
20204SOL    HW163054   0.646   3.494   7.353  1.0852  0.1325  0.3831
20204SOL    HW263055   0.613   3.571   7.479 -1.1553 -1.1281  0.6193
20205SOL     OW63056   8.352   3.976   7.664 -0.2987  0.2086 -0.0645
20205SOL    HW163057   8.385   3.966   7.754 -0.3724 -1.3719 -0.1849
20205SOL    HW263058   8.261   3.946   7.669 -0.1354 -0.4376 -0.7695
20206SOL     OW63059  10.119   1.580   2.928 -0.0800  0.0078 -0.0098
20206SOL    HW163060  10.064   1.516   2.973  0.0659  0.0799  0.2744
20206SOL    HW263061  10.059   1.628   2.871 -0.1915 -0.3831 -0.2309
20207SOL     OW63062   6.983   5.188   8.697 -0.1166 -0.3040 -0.4158
20207SOL    HW163063   7.005   5.251   8.628  1.4386  0.0416  0.3566
20207SOL    HW263064   6.902   5.223   8.735  0.3196  0.8474 -0.4839
20208SOL     OW63065   6.237   0.003  10.130 -0.4954 -0.2195 -0.0486
20208SOL    HW163066   6.207  -0.080  10.092 -0.3107  0.0478 -0.7756
20208SOL    HW263067   6.290  -0.023  10.205 -0.4950 -0.7602 -0.2340
20209SOL     OW63068   1.340   7.531   3.586 -0.1345 -0.2313  0.1261
20209SOL    HW163069   1.257   7.579   3.592 -0.4508 -0.9026  1.4376
20209SOL    HW263070   1.407   7.599   3.590 -0.5677  0.1622  2.2521
20210SOL     OW63071   7.423   9.048   2.362 -0.0747 -0.5560 -0.1147
20210SOL    HW163072   7.497   8.990   2.345  0.7877  0.6607 -0.5856
20210SOL    HW263073   7.365   9.036   2.287  0.0687 -0.8461 -0.1797
20211SOL     OW63074   0.022   7.102   2.607 -0.0050 -0.5630  0.0155
20211SOL    HW163075   0.112   7.087   2.577 -0.0998  0.4777 -0.8514
20211SOL    HW263076   0.029   7.113   2.701  0.5645 -2.0193  0.1612
20212SOL     OW63077   9.580   6.159   8.924 -0.0181  0.7717  0.0701
20212SOL    HW163078   9.514   6.209   8.971  0.3132 -0.5168  2.0146
20212SOL    HW263079   9.540   6.074   8.909  1.0960  0.0288  1.1224
20213SOL     OW63080   1.193   4.350   9.602 -0.2136 -0.1558  0.3812
20213SOL    HW163081   1.125   4.387   9.659 -1.2375 -0.7272 -0.4395
20213SOL    HW263082   1.151   4.341   9.517  1.3160  0.7425 -0.5136
20214SOL     OW63083   0.637   9.996   4.378 -0.3589 -0.2452  0.0794
20214SOL    HW163084   0.603   9.955   4.458  2.1399 -1.4351  0.6336
20214SOL    HW263085   0.622  10.090   4.391  2.8984  0.0618  3.6445
20215SOL     OW63086   5.087   6.428   2.005  0.3293 -0.2127  0.2955
20215SOL    HW163087   5.159   6.377   1.968 -0.4206 -0.5398 -0.7922
20215SOL    HW263088   5.048   6.371   2.071  1.9923  0.5650  2.0332
20216SOL     OW63089   5.547   0.140   2.016  0.5049 -0.9646 -0.2531
20216SOL    HW163090   5.589   0.061   1.982  1.0013 -0.8584  0.0875
20216SOL    HW263091   5.614   0.180   2.072  0.4641 -0.0030 -0.8641
20217SOL     OW63092   6.864   9.847   0.963 -0.0661 -0.7835  0.5924
20217SOL    HW163093   6.916   9.857   0.884 -0.7305  2.8366  0.4639
20217SOL    HW263094   6.801   9.778   0.942  0.0658 -0.2303 -1.8640
20218SOL     OW63095   3.317   6.825   2.574  0.4565 -0.0607 -0.6119
20218SOL    HW163096   3.354   6.797   2.490  0.3122  1.4989 -1.2393
20218SOL    HW263097   3.383   6.800   2.639  0.2463 -1.9472 -1.0596
20219SOL     OW63098  10.202   1.503   3.582  0.6371 -0.3332 -0.3894
20219SOL    HW163099  10.266   1.557   3.626 -1.2212  2.5894 -0.9809
20219SOL    HW263100  10.117   1.537   3.611 -0.7670 -4.0886  0.4823
20220SOL     OW63101   4.330   1.757   0.655 -0.3692  0.3225 -0.2605
20220SOL    HW163102   4.338   1.845   0.619  1.6414 -0.9976 -3.4557
20220SOL    HW263103   4.420   1.727   0.666 -0.9991 -1.1263  1.4654
20221SOL     OW63104   7.160   7.688   5.678  0.1117 -0.1372 -0.3802
20221SOL    HW163105   7.149   7.780   5.703 -0.3138 -0.2218 -0.2414
20221SOL    HW263106   7.131   7.639   5.754 -0.3313 -0.3906 -0.7013
20222SOL     OW63107  10.263   5.058   9.445  0.3723 -0.4818  0.2609
20222SOL    HW163108  10.215   5.022   9.520  1.0290 -0.2226  0.8188
20222SOL    HW263109  10.196   5.071   9.378 -0.4978  0.5422  1.2652
20223SOL     OW63110   4.835   0.721   2.146 -0.5837 -0.0734 -0.6879
20223SOL    HW163111   4.797   0.758   2.225  0.8317  0.8246 -0.4018
20223SOL    HW263112   4.888   0.791   2.109  3.0612 -1.9872  0.4233
20224SOL     OW63113   1.935   5.537   5.333 -0.1136  0.4674 -0.1126
20224SOL    HW163114   1.893   5.611   5.290 -1.3220 -0.2631 -0.2390
20224SOL    HW263115   1.944   5.564   5.424 -1.5514  0.3936  0.0834
20225SOL     OW63116   6.619   5.617   6.537  0.6388 -0.2191  0.2050
20225SOL    HW163117   6.708   5.589   6.518  1.2642  2.2204 -0.8667
20225SOL    HW263118   6.628   5.676   6.612 -0.2260 -0.7198  0.7179
20226SOL     OW63119   0.407   4.466   1.714  0.3194  0.2511  0.3303
20226SOL    HW163120   0.359   4.534   1.761 -0.6461  0.5386 -1.0097
20226SOL    HW263121   0.361   4.458   1.630  2.2962  0.1493 -0.8059
20227SOL     OW63122   4.041   7.785   1.848  0.4708 -0.0581  0.1334
20227SOL    HW163123   4.062   7.875   1.874  2.1967 -0.6777  1.1120
20227SOL    HW263124   4.044   7.786   1.752  3.3281  0.4008  0.1247
20228SOL     OW63125   7.377  10.028   4.804  0.0590  0.3153 -0.5762
20228SOL    HW163126   7.471  10.008   4.802 -0.3780 -2.0957 -2.8091
20228SOL    HW263127   7.371  10.118   4.772  1.5828  0.2799 -1.0573
20229SOL     OW63128   3.070   1.199   3.835  0.0646  0.1644  0.2795
20229SOL    HW163129   3.074   1.126   3.896 -0.6120 -0.3644 -0.2785
20229SOL    HW263130   3.151   1.194   3.785  0.5474  0.5059  1.0284
20230SOL     OW63131   8.768   6.540   7.091 -0.2566  0.3374 -0.4935
20230SOL    HW163132   8.800   6.496   7.169 -0.6383 -0.0195 -0.5347
20230SOL    HW263133   8.843   6.541   7.031  0.0665  0.7085 -0.0846
20231SOL     OW63134   1.886   5.419   1.342  0.0035  0.4354  0.1505
20231SOL    HW163135   1.945   5.461   1.404  0.0422 -0.7291  0.9399
20231SOL    HW263136   1.851   5.491   1.289  1.2687  1.2572  0.4000
20232SOL     OW63137   5.840   8.341   4.357 -0.5826  0.4274 -0.7986
20232SOL    HW163138   5.765   8.342   4.416  1.1627  0.6780  1.5159
20232SOL    HW263139   5.823   8.412   4.295 -1.7929  1.0831  0.2444
20233SOL     OW63140   6.643  10.482   9.674 -0.1763  0.4830  0.0794
20233SOL    HW163141   6.730  10.466   9.638 -0.2749 -1.2248  0.4944
20233SOL    HW263142   6.603  10.545   9.614  0.4872 -0.5093 -1.4751
20234SOL     OW63143   2.703   1.827   9.903 -0.1169 -0.2380  0.3648
20234SOL    HW163144   2.705   1.900   9.842 -0.9780  0.4350  1.1207
20234SOL    HW263145   2.760   1.854   9.975 -1.1682  0.1167  1.0895
20235SOL     OW63146   4.257   9.766   5.509 -0.1115  0.1928  0.0140
20235SOL    HW163147   4.185   9.827   5.495  0.0058  0.8496  2.0305
20235SOL    HW263148   4.215   9.681   5.522 -0.3362  0.0271 -1.6128
20236SOL     OW63149   0.572   3.997   0.027 -0.1933 -0.1103 -0.5416
20236SOL    HW163150   0.585   4.091   0.021 -2.3822  0.3290  0.6380
20236SOL    HW263151   0.516   3.975  -0.048 -0.6237 -0.2446 -0.1906
20237SOL     OW63152   2.991   0.896   1.943  0.1578  0.2169 -0.4145
20237SOL    HW163153   3.063   0.951   1.913 -0.9308  1.8127 -0.2093
20237SOL    HW263154   2.946   0.869   1.863 -0.2261  0.9402 -0.4489
20238SOL     OW63155   3.618   5.898   6.811  0.4297  0.2325  0.0542
20238SOL    HW163156   3.676   5.824   6.798 -0.3885 -0.5279  0.5839
20238SOL    HW263157   3.654   5.944   6.887  0.3286 -0.2496  0.3984
20239SOL     OW63158   6.074   1.149   3.960 -0.6893 -0.0492 -0.0527
20239SOL    HW163159   6.090   1.169   4.053 -0.7470  1.8756 -0.4296
20239SOL    HW263160   5.980   1.134   3.955 -0.5543 -1.1788  0.3456
20240SOL     OW63161   2.265   8.381   1.599 -0.1254 -0.6027  0.3819
20240SOL    HW163162   2.283   8.314   1.533 -1.0322 -1.0229  0.5511
20240SOL    HW263163   2.202   8.340   1.658 -0.2857  0.2191  0.7875
20241SOL     OW63164   3.781   6.256   0.127 -0.6211  0.1504 -0.2639
20241SOL    HW163165   3.807   6.268   0.218 -1.6733  1.0358 -0.0621
20241SOL    HW263166   3.713   6.322   0.112 -1.6224 -1.0562 -1.2285
20242SOL     OW63167   7.989   0.011   5.088 -0.1656 -0.5714 -0.4518
20242SOL    HW163168   7.952  -0.068   5.051  0.8780 -0.8019 -1.0513
20242SOL    HW263169   7.950   0.018   5.175 -0.3270 -1.6972 -0.4243
20243SOL     OW63170   5.737   6.600   1.358 -0.1306  0.2535  0.0965
20243SOL    HW163171   5.748   6.528   1.296  2.4253  0.5722  0.0578
20243SOL    HW263172   5.767   6.565   1.442  2.4687  1.5602 -0.1907
20244SOL     OW63173   8.247   0.808   9.902  0.3869  0.2829 -0.2173
20244SOL    HW163174   8.327   0.756   9.910  0.2725  0.1759  0.2157
20244SOL    HW263175   8.225   0.835   9.991 -0.2018  0.1013 -0.2999
20245SOL     OW63176   3.723   4.712   0.359 -0.4461  0.2871 -0.0355
20245SOL    HW163177   3.705   4.736   0.268 -1.6956  0.1910  0.1707
20245SOL    HW263178   3.739   4.795   0.403 -0.0910  0.3551 -0.2921
20246SOL     OW63179   5.583   8.785   4.020 -0.1060 -0.6599  0.5231
20246SOL    HW163180   5.629   8.820   4.095  0.1534  1.0307 -0.3695
20246SOL    HW263181   5.618   8.696   4.008  0.4748 -0.6179  1.8417
20247SOL     OW63182   7.699   5.099   0.463 -0.5764  0.0777 -0.0850
20247SOL    HW163183   7.745   5.020   0.490 -0.0424  0.4884  0.2255
20247SOL    HW263184   7.688   5.089   0.368 -1.0257 -0.6245  0.0327
20248SOL     OW63185   4.433   5.892   4.785  0.3988 -0.1189  0.1678
20248SOL    HW163186   4.499   5.867   4.850  1.1135 -0.7681 -0.7815
20248SOL    HW263187   4.349   5.875   4.829  0.8350  0.5823  1.3356
20249SOL     OW63188   6.175   2.731   3.586  0.0176  0.4142  0.2475
20249SOL    HW163189   6.222   2.653   3.558  0.2978  0.8075 -0.3975
20249SOL    HW263190   6.141   2.709   3.673  0.4294 -0.2777  0.2374
20250SOL     OW63191   4.143   4.869  10.060  0.4739 -0.3845  0.6404
20250SOL    HW163192   4.088   4.796  10.033 -2.6200  1.3396  1.8529
20250SOL    HW263193   4.159   4.918   9.979  0.0621 -0.7983  0.3075
20251SOL     OW63194   6.122   6.248   6.524 -0.0502  0.3066  0.2190
20251SOL    HW163195   6.057   6.311   6.556  0.5288  0.5565  0.9065
20251SOL    HW263196   6.133   6.185   6.595 -1.1319 -1.0044 -0.7089
20252SOL     OW63197   0.225   5.473   9.035  0.2096 -0.2188 -0.2677
20252SOL    HW163198   0.316   5.443   9.039  0.5720  0.7083 -1.1188
20252SOL    HW263199   0.231   5.563   9.003 -1.1796 -1.2789 -4.0973
20253SOL     OW63200   3.674   2.003   6.370  0.4033  0.6574  0.5307
20253SOL    HW163201   3.706   1.979   6.457 -0.4073  0.1410  0.7051
20253SOL    HW263202   3.667   1.920   6.323 -1.2959  0.6423  0.7358
20254SOL     OW63203   9.960   8.444   8.009 -0.0801  0.0037  0.1059
20254SOL    HW163204   9.883   8.398   8.042 -0.6583  1.4811  0.8761
20254SOL    HW263205   9.928   8.531   7.987  1.3141  0.5390  0.1341
20255SOL     OW63206   3.831   9.704   7.644  0.3511 -0.1767 -0.4314
20255SOL    HW163207   3.875   9.758   7.710 -0.5352  2.0431 -1.5826
20255SOL    HW263208   3.744   9.688   7.681 -0.1532  1.0850 -1.0201
20256SOL     OW63209   7.378   2.587   5.541  0.1161  0.0457  0.4501
20256SOL    HW163210   7.381   2.493   5.520  0.7046 -0.3128  1.9971
20256SOL    HW263211   7.305   2.621   5.490 -0.7885 -1.4787  0.6816
20257SOL     OW63212   5.441   6.821   4.861 -0.2791  0.5418 -0.2543
20257SOL    HW163213   5.369   6.763   4.834 -1.2971  0.2823  2.7226
20257SOL    HW263214   5.424   6.903   4.814 -1.7329  0.0448 -0.6553
20258SOL     OW63215   3.215   0.715   9.628  0.0274 -0.0436 -0.1309
20258SOL    HW163216   3.179   0.796   9.593 -0.8088 -0.1156  0.5260
20258SOL    HW263217   3.150   0.686   9.693  1.2407 -0.2074  1.0535
20259SOL     OW63218   3.873   3.035   5.358 -0.3800  0.1868  0.4711
20259SOL    HW163219   3.889   3.009   5.267 -2.4500  0.7318 -0.0945
20259SOL    HW263220   3.925   3.115   5.370  0.1281 -0.0490 -0.1330
20260SOL     OW63221   2.377   9.686   2.018  0.5305  0.1624 -0.2036
20260SOL    HW163222   2.473   9.684   2.019  0.5553  0.7048  1.2763
20260SOL    HW263223   2.355   9.755   1.956  1.0690 -0.3337 -0.9715
20261SOL     OW63224   0.331   6.025   0.427  0.5348 -0.0882 -0.2242
20261SOL    HW163225   0.380   6.107   0.419  0.1049  0.0419 -1.8825
20261SOL    HW263226   0.298   6.008   0.339 -1.1616 -0.9469  0.5343
20262SOL     OW63227   7.464   2.100   9.628  0.0976  0.0323 -0.0629
20262SOL    HW163228   7.384   2.125   9.674  0.3030  0.0342  0.2982
20262SOL    HW263229   7.499   2.026   9.679  0.8458  0.6631  0.3656
20263SOL     OW63230   3.926   2.427   4.245 -0.3257  0.3809  0.0331
20263SOL    HW163231   3.846   2.383   4.271 -0.5488  0.8938  0.2342
20263SOL    HW263232   3.995   2.382   4.293 -0.2189 -1.3867 -1.6515
20264SOL     OW63233   9.661   5.659  10.490  0.8466  0.0813  0.2691
20264SOL    HW163234   9.578   5.654  10.537  0.1351 -0.2195 -0.9889
20264SOL    HW263235   9.646   5.611  10.409  2.1161  0.4052 -0.1830
20265SOL     OW63236   9.780   0.144   2.774 -0.3561 -0.2870  0.3173
20265SOL    HW163237   9.838   0.214   2.744 -1.7186  0.6416 -0.2439
20265SOL    HW263238   9.808   0.066   2.725  0.3886  0.1498  0.0388
20266SOL     OW63239   3.896   2.196   2.298  0.0008 -0.0187 -0.2547
20266SOL    HW163240   3.951   2.147   2.237  0.9414  1.7596 -0.9122
20266SOL    HW263241   3.929   2.171   2.385 -0.1335 -1.1755 -0.5135
20267SOL     OW63242   9.750   8.266   9.711 -0.0175  0.5288  0.1292
20267SOL    HW163243   9.717   8.352   9.685  0.7547  0.2951 -1.7346
20267SOL    HW263244   9.823   8.286   9.770 -0.1546  1.1499  0.0960
20268SOL     OW63245   3.034   6.174   7.936  0.4340  0.2951 -0.2270
20268SOL    HW163246   3.087   6.253   7.935 -0.8625  1.1759 -0.8684
20268SOL    HW263247   3.012   6.161   8.028  1.1700  0.3028 -0.0414
20269SOL     OW63248   5.240   6.905   1.697  0.8331 -0.1009 -0.1907
20269SOL    HW163249   5.269   6.988   1.735 -0.2403 -0.0551  0.6044
20269SOL    HW263250   5.281   6.838   1.752  1.3692 -0.1000 -0.5796
20270SOL     OW63251  10.461   5.394   8.362 -0.9683 -0.1930 -0.3459
20270SOL    HW163252  10.491   5.399   8.271 -1.6116 -1.6123 -0.6601
20270SOL    HW263253  10.390   5.459   8.367 -0.6226  0.2257 -0.7154
20271SOL     OW63254   9.528   4.064   4.646  0.0426  0.6759  0.1281
20271SOL    HW163255   9.499   4.069   4.555 -2.7803 -0.4349  0.8714
20271SOL    HW263256   9.575   3.981   4.652 -0.3193  0.4496 -0.1674
20272SOL     OW63257   2.610   0.837   1.286  0.3481 -0.1849 -0.2469
20272SOL    HW163258   2.685   0.890   1.312  0.6103 -0.6944  0.0516
20272SOL    HW263259   2.535   0.894   1.298  0.1150 -1.0859  4.1202
20273SOL     OW63260   8.343   1.762   2.403  0.4074  0.0779 -0.2405
20273SOL    HW163261   8.282   1.708   2.453  1.2049  0.8490  1.6714
20273SOL    HW263262   8.345   1.723   2.315  0.0027 -2.1994  0.7095
20274SOL     OW63263   6.695   7.509   1.902  1.0316 -0.1574 -0.4365
20274SOL    HW163264   6.768   7.527   1.961  0.8794 -3.0841  0.8336
20274SOL    HW263265   6.728   7.441   1.843 -0.3542 -0.8719 -0.4281
20275SOL     OW63266   8.823   8.992   6.067 -0.3497  0.3050  0.3265
20275SOL    HW163267   8.908   8.980   6.026 -0.2471  0.1307  0.5836
20275SOL    HW263268   8.821   8.926   6.137 -1.4597 -0.9904 -0.8698
20276SOL     OW63269   4.791   6.828   7.293  0.1639 -0.0141 -0.7155
20276SOL    HW163270   4.827   6.741   7.275 -0.4320 -1.2090  2.9845
20276SOL    HW263271   4.697   6.817   7.285  0.1462  1.1527 -3.0084
20277SOL     OW63272   7.289   4.803   7.944 -0.4364 -0.1256  0.0513
20277SOL    HW163273   7.341   4.823   8.022  1.1622  1.4402 -1.3322
20277SOL    HW263274   7.290   4.884   7.893  0.7771 -1.7914 -2.8014
20278SOL     OW63275   2.082   8.221   0.533 -0.3747  0.1117  0.0918
20278SOL    HW163276   2.051   8.231   0.623 -0.5779  0.1472  0.0183
20278SOL    HW263277   2.166   8.268   0.532  0.1828 -0.8460  0.5472
20279SOL     OW63278   7.185   2.106   8.014 -0.0552  0.0031 -0.1532
20279SOL    HW163279   7.258   2.167   8.023  0.2845 -0.6408  1.9349
20279SOL    HW263280   7.226   2.019   8.018 -0.8028 -0.3745 -0.5078
20280SOL     OW63281   8.980   9.158   8.621 -0.1604  0.1588  0.4880
20280SOL    HW163282   8.895   9.168   8.577 -0.5686  0.2572  1.2950
20280SOL    HW263283   8.966   9.193   8.709  0.6607 -0.0230  0.6955
20281SOL     OW63284   8.911   5.670   1.080  0.4165  0.3889 -0.6939
20281SOL    HW163285   8.935   5.581   1.107  0.3807 -0.0092 -1.9147
20281SOL    HW263286   8.964   5.686   1.001 -0.3681  1.0380 -1.1034
20282SOL     OW63287   7.449   8.789   6.843 -0.5058  0.5550  0.0864
20282SOL    HW163288   7.442   8.703   6.885 -1.1653 -0.1775 -1.4211
20282SOL    HW263289   7.359   8.813   6.823 -0.2261  0.9535 -0.7322
20283SOL     OW63290   2.262   1.849   0.338  0.2355  0.2493  0.3803
20283SOL    HW163291   2.231   1.897   0.261  0.3303 -1.2594 -0.6317
20283SOL    HW263292   2.190   1.856   0.401 -0.3610  0.4359 -0.3070
20284SOL     OW63293   9.385   3.546   7.131  0.1529 -0.1622 -0.1621
20284SOL    HW163294   9.462   3.602   7.127  0.3528 -0.4446 -0.2885
20284SOL    HW263295   9.413   3.470   7.183  0.6494 -1.3109 -1.9876
20285SOL     OW63296   3.058  10.017   3.795 -0.0602  0.4156  0.1323
20285SOL    HW163297   2.995  10.028   3.866 -0.4963 -0.6644 -0.0656
20285SOL    HW263298   3.093  10.105   3.780  0.0255  0.6762  1.6615
20286SOL     OW63299   7.162   4.979   8.615 -0.6018 -0.0326  0.0555
20286SOL    HW163300   7.104   5.050   8.642 -0.1488  0.3308  0.0849
20286SOL    HW263301   7.122   4.900   8.651 -0.5162  0.3376  0.9794
20287SOL     OW63302   9.510   9.661   6.112 -0.0021  0.2236  0.7114
20287SOL    HW163303   9.429   9.694   6.071  0.1421 -0.4057 -0.1068
20287SOL    HW263304   9.480   9.593   6.173 -0.1826  0.8587  1.3464
20288SOL     OW63305   3.708   7.358   5.082 -0.2835 -0.1636  0.8583
20288SOL    HW163306   3.770   7.426   5.054 -0.5995  0.2700  1.1986
20288SOL    HW263307   3.762   7.279   5.091  0.1438  0.1117  0.7468
20289SOL     OW63308   3.113   0.604   3.725  0.4673 -0.2803  0.7925
20289SOL    HW163309   3.071   0.690   3.714 -1.3789 -0.7084  3.4832
20289SOL    HW263310   3.071   0.548   3.661 -0.5780  0.1414  1.0900
20290SOL     OW63311   8.647   9.690   5.609 -0.0248  0.0772  0.4320
20290SOL    HW163312   8.553   9.695   5.593 -0.0646 -0.6667  0.4094
20290SOL    HW263313   8.659   9.610   5.660  0.4149  1.0073  1.8629
20291SOL     OW63314   3.750   3.777   1.778 -0.5446  0.2306  0.1568
20291SOL    HW163315   3.766   3.831   1.700 -2.1372  1.5368  0.6880
20291SOL    HW263316   3.706   3.699   1.745 -1.2464  0.7945 -0.2673
20292SOL     OW63317   1.060   6.404   6.819 -0.1818 -0.0629 -0.2233
20292SOL    HW163318   1.115   6.480   6.836 -0.0391  0.0853 -1.2873
20292SOL    HW263319   1.047   6.404   6.724 -0.7757 -0.9535 -0.1572
20293SOL     OW63320   6.107   7.154   0.166  0.1651  0.2738 -0.3649
20293SOL    HW163321   6.154   7.158   0.249 -1.5690 -0.5113  0.7102
20293SOL    HW263322   6.108   7.244   0.133  0.3946  0.7061  0.7796
20294SOL     OW63323   5.386   7.118   4.025 -0.1595  0.0826  0.5400
20294SOL    HW163324   5.454   7.170   3.981  1.0483 -1.5410  0.4047
20294SOL    HW263325   5.407   7.126   4.118  0.2667 -0.4606  0.4950
20295SOL     OW63326   1.560   7.955   5.427 -0.3410 -0.2985  0.2312
20295SOL    HW163327   1.509   8.035   5.438  0.5752  0.3644 -0.3283
20295SOL    HW263328   1.601   7.941   5.513  0.1545  0.2853  0.0912
20296SOL     OW63329   9.122   9.531   5.095 -0.4078  0.1770 -0.0611
20296SOL    HW163330   9.103   9.542   5.002 -1.7652 -0.8340  0.0742
20296SOL    HW263331   9.158   9.616   5.122  0.5081  0.3214 -1.6028
20297SOL     OW63332   2.803   6.234   2.788 -0.2774 -0.4683  0.1448
20297SOL    HW163333   2.844   6.169   2.845  1.6595 -0.2104 -0.8678
20297SOL    HW263334   2.777   6.305   2.847  0.4303 -0.8078  0.8761
20298SOL     OW63335   0.670   4.803   1.360 -0.7172  0.7120  0.2368
20298SOL    HW163336   0.696   4.723   1.405  0.8393  0.0862 -1.6261
20298SOL    HW263337   0.749   4.856   1.357 -1.4860  1.9311  0.5984
20299SOL     OW63338   9.285   9.872   4.344 -0.3806  0.5648  0.0414
20299SOL    HW163339   9.321   9.956   4.316  1.0104  1.6485  4.2825
20299SOL    HW263340   9.359   9.827   4.385 -1.7902 -1.3893  0.6063
20300SOL     OW63341  10.221   7.901   1.826 -0.1880 -0.3255  0.2259
20300SOL    HW163342  10.298   7.884   1.880  0.7473 -0.2398 -1.0631
20300SOL    HW263343  10.178   7.975   1.869  0.6184 -0.1605  0.7679
20301SOL     OW63344   2.705   0.663   1.488 -0.0202  0.3595  0.1736
20301SOL    HW163345   2.653   0.728   1.442 -0.4001  0.6708  1.0151
20301SOL    HW263346   2.676   0.579   1.453  0.6367  0.6360 -1.0888
20302SOL     OW63347   0.832   4.128   2.195 -0.5331  0.1286 -0.2881
20302SOL    HW163348   0.742   4.151   2.170 -1.5609 -1.9122  1.3059
20302SOL    HW263349   0.850   4.183   2.271 -0.3021  0.6936 -0.7347
20303SOL     OW63350   9.404   6.694   2.642  0.8732  0.2113  0.0721
20303SOL    HW163351   9.492   6.655   2.642  0.4737 -0.7325 -0.6776
20303SOL    HW263352   9.380   6.698   2.550 -0.2037 -0.2942  0.3230
20304SOL     OW63353   1.898   3.496   9.943  0.0271 -0.2432 -0.0617
20304SOL    HW163354   1.922   3.515   9.852  3.4776  0.7170  0.8902
20304SOL    HW263355   1.927   3.406   9.956  1.7008  0.3492  0.6205
20305SOL     OW63356   8.995   1.491   6.420  0.0346 -0.3348 -0.0400
20305SOL    HW163357   9.041   1.573   6.402  0.6066 -0.8049 -0.7741
20305SOL    HW263358   9.034   1.459   6.502 -0.2643  0.1690  0.3042
20306SOL     OW63359   6.143   7.133   2.172  0.0141 -0.1423  0.1056
20306SOL    HW163360   6.197   7.070   2.125 -0.5661  0.2346 -1.0959
20306SOL    HW263361   6.174   7.218   2.142 -0.4603  0.1038  0.3122
20307SOL     OW63362   9.307   6.027   0.383  0.1929  0.3392  0.1261
20307SOL    HW163363   9.326   6.120   0.396 -1.3430  0.9923 -1.8601
20307SOL    HW263364   9.213   6.019   0.397  0.2044 -0.8264 -0.2929
20308SOL     OW63365   0.958   1.001   3.104 -0.3052  0.1525  0.0607
20308SOL    HW163366   1.034   0.952   3.135 -0.7607  0.2047  1.2917
20308SOL    HW263367   0.996   1.071   3.050  0.5380  0.2950  0.8059
20309SOL     OW63368   9.963   8.099   4.561  0.5581 -0.1673 -0.8701
20309SOL    HW163369   9.921   8.184   4.558  0.1939 -0.3167 -0.1769
20309SOL    HW263370   9.901   8.042   4.607  1.3358 -0.4867 -0.1780
20310SOL     OW63371   8.107   2.161   5.804  1.1837  0.0181 -0.1518
20310SOL    HW163372   8.088   2.134   5.714  1.7724  0.1835 -0.3291
20310SOL    HW263373   8.125   2.080   5.851 -0.2188 -0.1805  0.0979
20311SOL     OW63374   5.578   4.695  10.095 -0.0007 -0.3666  0.6103
20311SOL    HW163375   5.621   4.610  10.091  0.8196  0.0449  0.2982
20311SOL    HW263376   5.649   4.758  10.079 -0.1491  0.4893  2.8822
20312SOL     OW63377   6.401   1.925   0.466 -0.2914 -0.0735 -0.2516
20312SOL    HW163378   6.322   1.872   0.451 -2.1317  2.4946 -0.2626
20312SOL    HW263379   6.428   1.953   0.378 -0.2086  0.1979 -0.1404
20313SOL     OW63380  10.400   3.462   9.901  0.0879  0.2310 -0.0730
20313SOL    HW163381  10.470   3.481   9.964  0.7794  0.0714 -0.7696
20313SOL    HW263382  10.343   3.539   9.903  1.3192  1.2082 -0.8413
20314SOL     OW63383   4.707   5.791   4.899  0.2549  0.0715 -0.0482
20314SOL    HW163384   4.761   5.772   4.822 -2.2773 -0.4386 -1.8313
20314SOL    HW263385   4.747   5.741   4.970  1.4037 -1.2744 -1.5729
20315SOL     OW63386   4.440   9.085   1.880  0.1423 -0.3855  0.4981
20315SOL    HW163387   4.380   9.103   1.808  0.2030 -1.8106  0.0646
20315SOL    HW263388   4.525   9.069   1.838  0.8325  1.4191  1.0892
20316SOL     OW63389   9.779   9.257   0.462  0.2078 -0.3752 -0.2712
20316SOL    HW163390   9.774   9.290   0.372 -0.9828  0.0748 -0.0601
20316SOL    HW263391   9.832   9.322   0.509 -0.0008 -0.0929 -0.4270
20317SOL     OW63392   2.295   4.301   1.809  0.0228  0.5066 -0.1385
20317SOL    HW163393   2.205   4.321   1.784  0.4669  1.8251 -0.7769
20317SOL    HW263394   2.314   4.361   1.881  0.5616  0.6211 -0.3703
20318SOL     OW63395  10.469   1.302   9.290  0.1679  0.8335  0.3676
20318SOL    HW163396  10.443   1.331   9.377  1.4891 -0.0524  1.0902
20318SOL    HW263397  10.564   1.294   9.294  0.0422 -2.0555 -0.1987
20319SOL     OW63398  10.222   8.065   7.375 -0.0439 -0.2225  0.1261
20319SOL    HW163399  10.314   8.073   7.399  0.0040 -0.3193 -0.0245
20319SOL    HW263400  10.196   7.979   7.407 -0.4304  0.3056  1.3120
20320SOL     OW63401   6.626   2.618   5.911 -0.5300  0.2600  0.0646
20320SOL    HW163402   6.541   2.633   5.869 -0.5681  1.2868  0.4884
20320SOL    HW263403   6.679   2.694   5.885  0.1645 -0.2185  0.0549
20321SOL     OW63404   3.411  10.299   7.810  0.4033  0.0915  0.0337
20321SOL    HW163405   3.456  10.297   7.725 -2.6168 -0.0418 -1.6983
20321SOL    HW263406   3.345  10.230   7.804  0.1740  0.0054  2.5863
20322SOL     OW63407   4.200   0.927   1.657 -0.1099  0.7578 -0.2488
20322SOL    HW163408   4.123   0.981   1.641 -0.5232  0.6987  1.3403
20322SOL    HW263409   4.197   0.860   1.589 -0.5962  1.6438 -1.1282
20323SOL     OW63410   5.428   2.235   0.946 -0.3065 -0.3110 -0.0090
20323SOL    HW163411   5.422   2.267   0.856  1.6029 -0.0371 -0.0727
20323SOL    HW263412   5.460   2.145   0.937 -2.1472 -1.0438  0.3356
20324SOL     OW63413   0.294   9.903   4.194  0.1689  0.5117 -0.2940
20324SOL    HW163414   0.371   9.958   4.182  2.0901 -2.1300 -0.9526
20324SOL    HW263415   0.275   9.868   4.107 -0.8266 -0.1015  0.1432
20325SOL     OW63416   8.183   5.987   9.745 -0.1647 -0.0400  0.3203
20325SOL    HW163417   8.194   6.024   9.833  1.0871  0.3868  0.0009
20325SOL    HW263418   8.268   5.948   9.724  0.3063  1.8407 -1.5818
20326SOL     OW63419   2.340   9.641   6.587  0.6265 -0.2974  0.3533
20326SOL    HW163420   2.361   9.675   6.500 -0.9559 -0.7705 -0.2498
20326SOL    HW263421   2.338   9.719   6.643 -2.0473  0.6250 -0.8338
20327SOL     OW63422   3.132   4.494   9.170 -0.2730  0.3247 -0.1112
20327SOL    HW163423   3.067   4.540   9.117 -1.0247  0.8267  1.1830
20327SOL    HW263424   3.139   4.547   9.249  0.1942 -0.8291  0.6414
20328SOL     OW63425   0.961   2.098   6.589  0.1030 -1.0565 -0.0649
20328SOL    HW163426   0.914   2.106   6.505  1.8855  1.5587 -0.9439
20328SOL    HW263427   0.959   2.187   6.625  2.0527 -1.4610  1.1410
20329SOL     OW63428   9.908   8.969   2.653 -0.2654  0.5152 -0.3849
20329SOL    HW163429   9.851   8.959   2.729 -0.6352  0.2868 -0.6912
20329SOL    HW263430   9.994   8.937   2.682 -0.4203  0.3775 -0.0838
20330SOL     OW63431  10.355   8.907   9.478  0.1506 -0.3866 -0.2112
20330SOL    HW163432  10.332   8.833   9.422  0.1818 -1.0016  0.5648
20330SOL    HW263433  10.313   8.982   9.437  0.5726 -0.7292 -1.3272
20331SOL     OW63434   2.690   7.407   3.374 -0.5588  0.3489  0.1568
20331SOL    HW163435   2.720   7.358   3.298 -0.9162  0.4168 -0.0290
20331SOL    HW263436   2.604   7.369   3.395  0.5416 -1.2999  1.9853
20332SOL     OW63437   5.200   7.575   8.937 -1.1067  0.2597 -0.1959
20332SOL    HW163438   5.118   7.591   8.983 -1.0408 -1.4968  0.6253
20332SOL    HW263439   5.256   7.649   8.961 -1.4991  0.0170  1.5894
20333SOL     OW63440   7.171   8.904   5.836 -0.2660  0.8878 -0.0971
20333SOL    HW163441   7.172   8.841   5.764 -0.5802  0.0615  0.6000
20333SOL    HW263442   7.216   8.981   5.802  0.4759  0.1396 -0.8372
20334SOL     OW63443   2.640   0.238   2.538 -0.5151 -0.0810 -0.1177
20334SOL    HW163444   2.714   0.186   2.506 -0.1633 -1.2175  2.3054
20334SOL    HW263445   2.676   0.287   2.611 -0.8017  3.9064 -2.3641
20335SOL     OW63446   7.568   4.971   1.248 -0.3276 -0.4090 -0.5299
20335SOL    HW163447   7.494   5.027   1.273 -0.5055  0.3027 -2.5261
20335SOL    HW263448   7.527   4.892   1.212 -0.1187 -0.3497 -0.9019
20336SOL     OW63449   8.993  10.362   6.977 -0.0308 -0.0575 -0.3274
20336SOL    HW163450   9.052  10.436   6.966  1.8311 -1.1674  1.5267
20336SOL    HW263451   9.050  10.286   6.986 -1.5730 -1.0039  3.1451
20337SOL     OW63452   2.409  10.138   8.137 -0.0039  0.7695 -0.0538
20337SOL    HW163453   2.362  10.059   8.111  0.1494  0.9152 -0.7862
20337SOL    HW263454   2.457  10.113   8.216 -0.9337  0.4831  0.4388
20338SOL     OW63455   6.812   2.296   7.404 -0.3932  0.2180 -0.5817
20338SOL    HW163456   6.853   2.345   7.332  0.5573  0.6243  0.2282
20338SOL    HW263457   6.785   2.363   7.466  0.1943 -0.2353  0.1669
20339SOL     OW63458   1.867   9.246   1.051  0.0358 -0.2410  0.1879
20339SOL    HW163459   1.917   9.292   0.984 -0.4709  1.2258  0.7760
20339SOL    HW263460   1.777   9.245   1.018 -0.0744 -0.2230  0.4826
20340SOL     OW63461  10.134   7.789   9.426 -0.1794 -0.3708 -0.7135
20340SOL    HW163462  10.109   7.795   9.334 -0.5828  3.1095 -0.4911
20340SOL    HW263463  10.052   7.800   9.474  0.5803  3.9838 -0.0321
20341SOL     OW63464   1.220   0.830   2.303  0.0908 -0.0555 -0.8324
20341SOL    HW163465   1.214   0.777   2.382  0.0852 -0.4881 -1.1203
20341SOL    HW263466   1.144   0.804   2.251 -0.8965  1.4654 -0.2332
20342SOL     OW63467   9.297   1.985   3.633 -0.3756 -0.1848 -0.2977
20342SOL    HW163468   9.214   1.937   3.623 -0.9298  0.2742  1.6463
20342SOL    HW263469   9.282   2.068   3.588 -1.7757  0.7503  1.7855
20343SOL     OW63470   4.188   8.319   4.425  0.1513 -0.6473  0.9115
20343SOL    HW163471   4.210   8.270   4.504 -3.0514 -0.9673  1.7417
20343SOL    HW263472   4.139   8.256   4.371  1.5614 -0.1889 -1.0090
20344SOL     OW63473   4.285   5.496   1.497 -1.0219  0.1176  0.5340
20344SOL    HW163474   4.304   5.589   1.493 -1.4462  0.1665 -1.6495
20344SOL    HW263475   4.361   5.457   1.540 -0.0379  1.2894 -0.0909
20345SOL     OW63476   0.394  10.215   7.060  0.2443  0.0365 -1.1336
20345SOL    HW163477   0.418  10.193   7.150 -2.5938  0.4001 -0.1994
20345SOL    HW263478   0.398  10.310   7.056  0.7789  0.0038 -1.5485
20346SOL     OW63479   0.160   2.727   2.665 -0.2053 -0.2766  0.2177
20346SOL    HW163480   0.099   2.787   2.708  0.1055  0.6397 -0.5746
20346SOL    HW263481   0.174   2.765   2.578  0.7818 -0.9604  0.0544
20347SOL     OW63482   4.852   0.126   0.040  0.1037  0.4942 -0.0622
20347SOL    HW163483   4.896   0.080   0.112  0.7345  0.0817 -0.7009
20347SOL    HW263484   4.867   0.070  -0.036 -2.2662 -0.1394 -0.1593
20348SOL     OW63485   7.358   4.196   0.402  0.3870 -0.1382 -0.4081
20348SOL    HW163486   7.309   4.245   0.336  0.4991 -1.0028 -1.1483
20348SOL    HW263487   7.296   4.185   0.475  0.0599  0.2847 -0.6191
20349SOL     OW63488   6.723   4.159   0.022 -0.2052  0.6055  0.1352
20349SOL    HW163489   6.655   4.224   0.004  1.1213  2.0495  0.1581
20349SOL    HW263490   6.801   4.210   0.043  0.8706 -0.9999  0.2503
20350SOL     OW63491   9.708   0.842   2.962  0.1639  0.1440  0.0341
20350SOL    HW163492   9.785   0.820   3.016  1.5363  1.6803 -1.1716
20350SOL    HW263493   9.637   0.789   2.998  1.4108 -0.1478  2.2376
20351SOL     OW63494   8.024   6.699   3.731 -0.0947  0.2224  0.2508
20351SOL    HW163495   8.010   6.626   3.792 -0.3617 -1.6032 -1.8856
20351SOL    HW263496   7.945   6.702   3.678  0.1905  1.6962 -0.1518
20352SOL     OW63497   9.655   9.731   0.201 -0.4539 -0.0276 -0.0685
20352SOL    HW163498   9.656   9.683   0.117 -1.1889  0.7158 -0.5156
20352SOL    HW263499   9.693   9.816   0.180 -0.6533  0.1642  0.3596
20353SOL     OW63500   3.634   3.035   0.322  0.0284 -0.2756 -0.0170
20353SOL    HW163501   3.547   3.066   0.349  0.2082 -1.2106  1.8559
20353SOL    HW263502   3.618   2.990   0.239 -0.9112  1.2421 -0.7049
20354SOL     OW63503   5.162   0.449  10.355 -0.4927  0.7006 -0.4005
20354SOL    HW163504   5.133   0.479  10.441 -0.9081 -1.5904  0.3041
20354SOL    HW263505   5.257   0.440  10.364 -0.8305 -2.6681  0.9576
20355SOL     OW63506   0.885   5.027   4.516  0.2774  0.5545  0.8978
20355SOL    HW163507   0.790   5.039   4.517  0.4598  2.2425  0.9239
20355SOL    HW263508   0.913   5.054   4.604  0.8916  1.2179  0.5065
20356SOL     OW63509   9.359  10.010   1.490 -0.2517 -0.3012  0.3254
20356SOL    HW163510   9.426   9.996   1.558 -0.2074 -2.9696 -0.1657
20356SOL    HW263511   9.393   9.964   1.413 -1.1322  1.1682 -0.9833
20357SOL     OW63512   1.875   0.696   6.119 -0.0881 -0.1058  0.0914
20357SOL    HW163513   1.925   0.696   6.201  0.1162 -0.6608 -0.0281
20357SOL    HW263514   1.843   0.606   6.111 -0.2671 -0.0043 -0.3470
20358SOL     OW63515   4.924   0.115   5.141 -0.5416  0.6861  0.5408
20358SOL    HW163516   5.002   0.170   5.140  0.8021 -1.0770  2.3227
20358SOL    HW263517   4.914   0.086   5.050  2.3708 -0.9417  0.6206
20359SOL     OW63518   5.498   4.847   8.233  0.5778 -0.3179 -0.2524
20359SOL    HW163519   5.507   4.756   8.262  0.8133 -1.3155 -3.1201
20359SOL    HW263520   5.459   4.840   8.146 -3.3411  2.5696  0.9676
20360SOL     OW63521   0.307  10.009   3.462 -0.0233  0.5174  0.3392
20360SOL    HW163522   0.212   9.997   3.459  0.1315 -0.9563  0.5611
20360SOL    HW263523   0.319  10.097   3.498 -1.2954  0.3468  1.2515
20361SOL     OW63524   2.236   9.731   4.367 -0.4422 -0.3919 -0.0543
20361SOL    HW163525   2.227   9.636   4.373  0.5296 -0.4698  0.4792
20361SOL    HW263526   2.235   9.761   4.457  1.9449 -0.2091 -0.0234
20362SOL     OW63527   5.773   8.489   7.498 -0.7236 -0.1757 -0.0627
20362SOL    HW163528   5.825   8.487   7.579  0.9044 -3.0157 -1.0478
20362SOL    HW263529   5.703   8.425   7.512 -0.9954  0.0050 -0.5700
20363SOL     OW63530   7.263   1.520  10.101 -0.1956 -0.1453 -0.3204
20363SOL    HW163531   7.228   1.498  10.015 -1.0217  0.0419 -0.0462
20363SOL    HW263532   7.348   1.478  10.104  0.2078  0.5286 -1.5427
20364SOL     OW63533   0.309   3.678   8.157  0.2968 -0.6278 -0.0919
20364SOL    HW163534   0.374   3.608   8.150  1.2540  0.3135 -1.0297
20364SOL    HW263535   0.237   3.650   8.101  0.6637 -0.8661 -0.4448
20365SOL     OW63536   0.278   2.767   0.998 -0.0082 -0.1856 -0.3487
20365SOL    HW163537   0.254   2.771   1.091  3.2247  0.0113  0.6335
20365SOL    HW263538   0.327   2.685   0.990  0.8283  0.3984 -1.5350
20366SOL     OW63539   4.876   4.096   7.461 -0.1658  0.7230 -0.0694
20366SOL    HW163540   4.938   4.168   7.449 -0.0405  0.3012 -2.6477
20366SOL    HW263541   4.927   4.017   7.442  0.0516 -0.3317  3.9961
20367SOL     OW63542   4.737   5.743   4.431  0.2361 -0.0574  0.1221
20367SOL    HW163543   4.642   5.753   4.438  0.2334  0.6764 -0.7316
20367SOL    HW263544   4.763   5.807   4.364  1.6467  1.4795  1.9914
20368SOL     OW63545   4.053   3.107   2.441  0.0213 -0.2169 -0.6145
20368SOL    HW163546   4.146   3.127   2.437  0.1108 -0.3310  0.6051
20368SOL    HW263547   4.030   3.083   2.351  0.8690  1.0856 -1.2146
20369SOL     OW63548   5.335   8.960   7.636  0.1622  0.4250 -0.6064
20369SOL    HW163549   5.329   9.040   7.687  0.2734 -0.6342  1.1637
20369SOL    HW263550   5.423   8.927   7.653 -0.1742 -0.5073 -0.6019
20370SOL     OW63551   2.948   8.942   3.928  0.3997  0.1234 -0.0415
20370SOL    HW163552   2.897   8.863   3.942  2.4231 -1.3879 -0.7194
20370SOL    HW263553   3.002   8.951   4.006  1.8295 -0.5301 -0.9071
20371SOL     OW63554   6.974   0.854   7.166  0.0347 -0.2298 -0.1263
20371SOL    HW163555   7.002   0.842   7.257  1.1330 -2.4873 -0.7168
20371SOL    HW263556   7.055   0.856   7.115 -0.5646  1.0065 -1.0990
20372SOL     OW63557   8.589   9.272   8.259 -0.0667  0.4153  0.6742
20372SOL    HW163558   8.530   9.342   8.285 -1.2865 -0.0503 -0.7084
20372SOL    HW263559   8.612   9.228   8.341 -1.2129  0.9415  1.3012
20373SOL     OW63560   7.281   3.393   3.258 -0.8568  0.0512 -0.4228
20373SOL    HW163561   7.341   3.384   3.332 -3.7867  0.2371  2.1938
20373SOL    HW263562   7.323   3.345   3.187  0.9246 -2.5009  2.1281
20374SOL     OW63563  10.167   8.773   2.662 -0.3719  0.1881  0.3367
20374SOL    HW163564  10.175   8.749   2.754  0.0376  0.1664  0.2966
20374SOL    HW263565  10.240   8.728   2.619 -2.7882 -3.2703 -0.6853
20375SOL     OW63566   9.143   6.498   1.293 -0.5423 -0.6324  0.3845
20375SOL    HW163567   9.138   6.429   1.227  0.0236  0.2119 -0.5794
20375SOL    HW263568   9.081   6.564   1.263 -2.6765 -1.5844  2.4257
20376SOL     OW63569   9.525   6.001   9.349 -0.1762 -0.3452 -0.0225
20376SOL    HW163570   9.618   5.986   9.363 -0.0210 -4.1544 -3.4050
20376SOL    HW263571   9.517   6.096   9.336  3.2611  0.0627  0.0774
20377SOL     OW63572   4.770   7.656   7.462 -0.6438  0.2461 -0.3922
20377SOL    HW163573   4.864   7.671   7.474 -0.5767 -0.6625  0.3123
20377SOL    HW263574   4.759   7.652   7.367  0.3812 -1.5854 -0.4847
20378SOL     OW63575   0.243   7.080   0.826 -0.1294 -0.4155  0.4256
20378SOL    HW163576   0.270   7.003   0.875  1.1866 -0.8213 -0.8881
20378SOL    HW263577   0.204   7.046   0.746 -0.8349  0.2719  0.4566
20379SOL     OW63578   7.311   6.548   4.966  0.4341 -0.3167  0.1641
20379SOL    HW163579   7.351   6.492   5.032 -1.7976 -1.6678  0.4761
20379SOL    HW263580   7.317   6.636   5.002  0.8873 -0.7979  1.3080
20380SOL     OW63581   8.503   0.831   2.374 -0.4987 -0.0358 -0.1711
20380SOL    HW163582   8.569   0.879   2.425 -0.2363 -0.3980 -0.1586
20380SOL    HW263583   8.554   0.791   2.302 -0.8916  0.6178 -0.8261
20381SOL     OW63584   7.970   5.005   6.538 -0.2782  0.2967  0.1844
20381SOL    HW163585   7.905   5.009   6.469 -0.8877  1.5065  0.7946
20381SOL    HW263586   7.920   4.988   6.618  0.2098  0.6370  0.5708
20382SOL     OW63587   9.277   1.740   7.680 -0.3125  0.9316  0.2470
20382SOL    HW163588   9.305   1.790   7.756 -0.2980  2.2437 -0.5865
20382SOL    HW263589   9.355   1.731   7.626 -0.5342  0.8529 -0.0659
20383SOL     OW63590   1.306   1.264  10.093 -0.0452 -0.0317  0.2680
20383SOL    HW163591   1.286   1.271  10.186  0.1490 -1.6556  0.4596
20383SOL    HW263592   1.224   1.287  10.049 -0.2053  0.5071  0.8435
20384SOL     OW63593   7.921   7.436   3.131  0.1242 -0.3531  0.4373
20384SOL    HW163594   7.957   7.503   3.073 -0.5785  0.0714  0.4815
20384SOL    HW263595   7.908   7.360   3.074  1.5507 -0.6876  0.5262
20385SOL     OW63596   1.848   0.863   2.004  0.2159  0.3087  0.2562
20385SOL    HW163597   1.938   0.834   2.016  0.5859  2.0580  2.2628
20385SOL    HW263598   1.850   0.956   2.026 -1.7841  0.7828 -1.2823
20386SOL     OW63599   6.148   4.680   5.978 -0.5729 -0.6681 -0.1167
20386SOL    HW163600   6.181   4.628   5.904  1.3249 -0.9570  0.8670
20386SOL    HW263601   6.107   4.756   5.937  2.5187  0.4131 -1.5397
20387SOL     OW63602   0.479   9.341   0.973  0.1283 -0.4721 -0.2599
20387SOL    HW163603   0.408   9.385   1.020  0.4168  0.6313 -0.8090
20387SOL    HW263604   0.508   9.272   1.032  1.8308  2.0738  2.1787
20388SOL     OW63605   3.397   2.478   3.060 -0.1611 -0.3737 -0.1973
20388SOL    HW163606   3.492   2.466   3.053 -0.1809 -0.5195 -0.2139
20388SOL    HW263607   3.379   2.473   3.154 -0.0034  0.7716 -0.0969
20389SOL     OW63608   1.580   8.606   6.608 -0.0311  0.0070  0.1104
20389SOL    HW163609   1.496   8.637   6.642  0.3826  2.2212 -0.7166
20389SOL    HW263610   1.636   8.598   6.686 -0.9195 -1.3787  0.6480
20390SOL     OW63611   4.159   3.102   7.233 -0.2253  0.0073 -0.5772
20390SOL    HW163612   4.193   3.021   7.272  0.5845  0.1190 -1.0365
20390SOL    HW263613   4.071   3.110   7.269 -0.0554 -0.7043  0.0283
20391SOL     OW63614   0.900   0.970   9.522  0.9626  0.3620 -0.2004
20391SOL    HW163615   0.931   0.890   9.564 -0.0642 -0.1597 -0.4038
20391SOL    HW263616   0.843   0.940   9.452 -0.6717  1.2745  0.6792
20392SOL     OW63617   2.193  10.242   1.008  0.0248  0.3880 -0.3306
20392SOL    HW163618   2.206  10.155   0.971  1.9179  0.6445 -0.3591
20392SOL    HW263619   2.175  10.227   1.101  1.8478 -0.0055 -0.0123
20393SOL     OW63620   5.254   1.266   6.810 -0.0930 -0.3479 -0.9039
20393SOL    HW163621   5.323   1.272   6.877  0.7901 -0.8286 -1.7387
20393SOL    HW263622   5.225   1.175   6.814  0.4829 -0.5769 -1.6500
20394SOL     OW63623  10.055   0.342   4.904 -0.5452 -0.0866  0.0649
20394SOL    HW163624   9.974   0.348   4.852  0.3035 -0.9130 -1.4155
20394SOL    HW263625  10.066   0.249   4.921 -0.6165  0.1499  1.4471
20395SOL     OW63626   7.321   9.612   2.713 -0.0208  0.1863  0.1388
20395SOL    HW163627   7.377   9.539   2.739  0.1680  0.4380  0.4412
20395SOL    HW263628   7.351   9.686   2.766 -1.9261 -0.1490  1.8225
20396SOL     OW63629   1.854   3.879   3.196 -0.4201 -0.4190  0.2497
20396SOL    HW163630   1.789   3.835   3.251 -0.5681  0.1262  0.5091
20396SOL    HW263631   1.935   3.830   3.211 -0.4113 -0.1510  1.1081
20397SOL     OW63632   3.320   5.217   9.534 -0.3548 -0.0897 -0.2232
20397SOL    HW163633   3.262   5.141   9.529  1.7974 -1.7725 -1.1711
20397SOL    HW263634   3.324   5.250   9.444  0.0900  0.0585 -0.1497
20398SOL     OW63635   1.604   9.291   9.539 -0.5907  0.4192  0.4737
20398SOL    HW163636   1.646   9.377   9.537 -0.0534  0.1915  1.4792
20398SOL    HW263637   1.536   9.296   9.472  1.1383  0.7472 -1.3725
20399SOL     OW63638   0.450   3.085   4.888  0.0494  0.1433 -0.1428
20399SOL    HW163639   0.410   3.172   4.884  0.6161  0.3792 -0.9120
20399SOL    HW263640   0.536   3.096   4.847  0.3862 -0.6431  0.3158
20400SOL     OW63641   9.068   9.435   7.968  0.2278 -0.9181 -0.4958
20400SOL    HW163642   9.156   9.431   7.932 -0.3848 -0.6007 -2.1598
20400SOL    HW263643   9.019   9.489   7.905 -0.8039  0.1890  1.1590
20401SOL     OW63644   9.957   6.913   5.292 -0.2505  0.0037 -0.2293
20401SOL    HW163645   9.959   6.872   5.205  0.2984 -0.0900 -0.1771
20401SOL    HW263646   9.864   6.917   5.314 -0.5673  1.7433 -1.6299
20402SOL     OW63647   8.092   9.761   2.064 -0.2983 -0.1791 -0.2907
20402SOL    HW163648   8.092   9.716   2.149  3.3926 -0.4035 -0.2758
20402SOL    HW263649   8.117   9.693   2.002  0.3629  0.7286 -1.0303
20403SOL     OW63650  10.051   1.957   5.268  0.3496 -0.5728  0.3713
20403SOL    HW163651  10.004   1.931   5.189  0.8369 -0.6893  0.1120
20403SOL    HW263652   9.983   1.987   5.328  0.1650  2.4723 -1.1711
20404SOL     OW63653   9.215   4.104   3.799  0.3389  0.6437 -0.2882
20404SOL    HW163654   9.301   4.091   3.838  0.0965 -0.4163 -0.0695
20404SOL    HW263655   9.161   4.139   3.871  0.7380  1.9758 -0.6072
20405SOL     OW63656   0.239   1.792   3.005 -0.2810  0.1656 -0.4628
20405SOL    HW163657   0.331   1.818   3.015 -0.2426 -0.1066 -0.0453
20405SOL    HW263658   0.241   1.724   2.937  0.1289 -1.2907  0.9218
20406SOL     OW63659   6.565   4.502   6.817 -0.4258  0.1264 -0.3205
20406SOL    HW163660   6.532   4.565   6.753 -2.7617  0.1946  0.8154
20406SOL    HW263661   6.600   4.430   6.764  0.9357  1.6750 -1.6256
20407SOL     OW63662   9.390   0.281   0.553  0.1729  0.1950  0.5924
20407SOL    HW163663   9.362   0.245   0.637  1.1807 -0.2446  0.7520
20407SOL    HW263664   9.453   0.349   0.575  0.6654 -0.1176  0.2000
20408SOL     OW63665   7.400   0.733   6.489  0.3783 -0.6360  0.5002
20408SOL    HW163666   7.379   0.824   6.470 -0.7906 -0.8731  0.5819
20408SOL    HW263667   7.453   0.704   6.415 -1.9714 -0.8143 -1.2489
20409SOL     OW63668  10.443   3.476   6.922 -0.6976  0.9130  0.1636
20409SOL    HW163669  10.531   3.459   6.888 -1.2480 -1.5591 -0.2066
20409SOL    HW263670  10.397   3.518   6.850 -0.3682  0.4549 -0.3215
20410SOL     OW63671   3.688   1.273   0.126 -0.3347  0.9811  0.3118
20410SOL    HW163672   3.752   1.253   0.195  0.5537  0.1458 -0.7075
20410SOL    HW263673   3.625   1.202   0.130  0.0829  0.5741 -0.1354
20411SOL     OW63674   7.582   6.295   6.867 -0.3700  0.0559  0.6247
20411SOL    HW163675   7.606   6.264   6.780 -1.4393  0.4521  0.1880
20411SOL    HW263676   7.608   6.223   6.925  0.7048 -0.0514  0.0427
20412SOL     OW63677   7.193   2.798   7.155 -0.1474  0.0849 -0.3262
20412SOL    HW163678   7.251   2.722   7.170 -0.4197  0.1302  1.0739
20412SOL    HW263679   7.240   2.872   7.194 -0.9316  0.2016  0.4285
20413SOL     OW63680   0.177   9.682   1.724  0.0571  0.3962 -0.6024
20413SOL    HW163681   0.149   9.592   1.741 -0.6736  0.6214 -0.5902
20413SOL    HW263682   0.221   9.677   1.640  4.6232 -0.9437  1.5445
20414SOL     OW63683   4.534   7.368   0.932 -0.4611 -0.0051 -0.7776
20414SOL    HW163684   4.598   7.364   0.861 -0.8536  0.0573 -1.1399
20414SOL    HW263685   4.471   7.434   0.904  1.0510  2.3921  1.0272
20415SOL     OW63686   0.440   3.455   1.662 -0.5311 -0.1438  0.7378
20415SOL    HW163687   0.348   3.479   1.652 -0.1964  0.9526  0.0740
20415SOL    HW263688   0.465   3.419   1.577 -0.6181 -1.5079  1.2590
20416SOL     OW63689   0.661   4.483   9.375 -0.2577 -0.1030  0.2822
20416SOL    HW163690   0.575   4.521   9.360 -0.0983  0.6846  1.2380
20416SOL    HW263691   0.645   4.391   9.393 -0.8945  0.0318  0.4163
20417SOL     OW63692   8.997   6.942   3.633  0.0534 -0.1148  0.3268
20417SOL    HW163693   8.953   6.895   3.563 -0.5208  1.3958 -0.3499
20417SOL    HW263694   9.064   6.881   3.664  0.0582 -0.9524 -1.2554
20418SOL     OW63695   3.755   2.997   8.989 -0.3137 -0.0094  0.3881
20418SOL    HW163696   3.669   3.013   8.949 -0.2200  0.8128  0.4976
20418SOL    HW263697   3.768   3.071   9.049  0.3782 -0.2411  0.5344
20419SOL     OW63698   1.460   4.907   8.381  0.0961  0.5636 -0.2769
20419SOL    HW163699   1.529   4.958   8.338 -0.1558  0.7750 -0.4324
20419SOL    HW263700   1.490   4.816   8.374  0.5726  0.6959  0.0503
20420SOL     OW63701   4.402  10.203   1.429 -0.3096 -0.2526  0.3161
20420SOL    HW163702   4.393  10.228   1.337 -2.7796 -1.1029  0.2483
20420SOL    HW263703   4.347  10.266   1.476 -2.0104 -1.9747  0.7534
20421SOL     OW63704   4.143   8.293   9.287 -0.0735 -0.2930  0.5223
20421SOL    HW163705   4.138   8.388   9.283 -1.6677 -0.3317  1.0613
20421SOL    HW263706   4.141   8.264   9.196 -0.0460  0.1588  0.3773
20422SOL     OW63707   3.370   8.455   1.074 -0.2412 -0.1362 -0.0589
20422SOL    HW163708   3.355   8.361   1.060  0.3277 -0.4254  1.1882
20422SOL    HW263709   3.461   8.461   1.104  0.6215  1.0794 -2.5544
20423SOL     OW63710   1.348   4.100   5.407 -0.0848 -0.3734  0.1155
20423SOL    HW163711   1.283   4.142   5.463  1.0506  2.0221 -0.2424
20423SOL    HW263712   1.304   4.085   5.324 -0.2659  1.0555 -0.0634
20424SOL     OW63713   3.299   4.415   1.067  0.2366  0.0742 -0.0643
20424SOL    HW163714   3.252   4.369   0.998 -1.7105 -0.4850  1.5176
20424SOL    HW263715   3.253   4.390   1.148  2.5776  0.4631  1.4821
20425SOL     OW63716   0.012   9.933   6.081 -0.3926  0.3473  0.3885
20425SOL    HW163717  -0.051   9.990   6.037 -0.3669 -0.8772 -1.3859
20425SOL    HW263718   0.097   9.970   6.059 -0.3712 -0.3457 -0.8475
20426SOL     OW63719   5.478   7.054   0.675 -0.5193 -0.8585 -0.5241
20426SOL    HW163720   5.535   6.978   0.687 -0.3258 -0.6590 -0.1958
20426SOL    HW263721   5.411   7.044   0.743 -0.0333 -0.3062  0.0522
20427SOL     OW63722   6.715   6.381   9.785 -0.0018 -0.1473  0.2829
20427SOL    HW163723   6.648   6.391   9.852  1.2854 -0.6738  1.6985
20427SOL    HW263724   6.683   6.309   9.730 -1.0541  0.2717  0.3240
20428SOL     OW63725  10.305   9.441   9.778  0.3935 -0.2156 -0.0261
20428SOL    HW163726  10.348   9.382   9.839  1.4244  1.1595  0.6107
20428SOL    HW263727  10.264   9.508   9.833  0.7995  0.6915 -0.7955
20429SOL     OW63728   1.806   0.067   7.988  0.0926  0.2999  0.3660
20429SOL    HW163729   1.799   0.142   8.048  0.3181 -0.0238  0.8012
20429SOL    HW263730   1.732   0.077   7.929 -0.3582  0.4201  0.9383
20430SOL     OW63731   0.822   6.242   5.217  0.2785 -0.1499  0.0797
20430SOL    HW163732   0.751   6.204   5.269 -0.4233  0.7397 -0.2005
20430SOL    HW263733   0.800   6.335   5.211  0.0851 -0.2729 -2.1692
20431SOL     OW63734   6.368   6.849   3.739 -0.1706 -0.0564  0.1530
20431SOL    HW163735   6.326   6.782   3.793 -0.8796  0.2537  0.0062
20431SOL    HW263736   6.395   6.803   3.660  1.1379 -0.5756  0.8661
20432SOL     OW63737   0.080   5.195   9.630 -0.7553  0.9298  0.0267
20432SOL    HW163738   0.051   5.247   9.706 -0.9297  1.3302 -0.3074
20432SOL    HW263739   0.010   5.132   9.616 -0.0247 -0.1927  1.1501
20433SOL     OW63740   2.901   5.927   2.056 -0.6528 -0.1982  0.3115
20433SOL    HW163741   2.946   5.996   2.104 -0.1610  0.3210 -0.8643
20433SOL    HW263742   2.921   5.847   2.104 -0.5962  0.3645  1.2460
20434SOL     OW63743   5.466   4.705   4.465  0.6218  0.5169  0.1336
20434SOL    HW163744   5.519   4.678   4.391  0.1649 -0.1610  0.0473
20434SOL    HW263745   5.523   4.691   4.541  0.3784 -0.7914  0.1027
20435SOL     OW63746   3.611   6.581   2.050  0.4346  0.5033 -0.2907
20435SOL    HW163747   3.563   6.542   1.976  0.5394 -0.9824  0.3890
20435SOL    HW263748   3.558   6.560   2.127  0.9290  1.0002  0.1909
20436SOL     OW63749  10.390   8.641   7.192 -0.1756 -0.3237  0.1369
20436SOL    HW163750  10.371   8.712   7.254  0.5386 -0.2499  0.2805
20436SOL    HW263751  10.374   8.680   7.106 -0.9627 -0.3611  0.2596
20437SOL     OW63752   0.620   2.206   3.770 -0.0280 -0.3119 -0.6113
20437SOL    HW163753   0.595   2.290   3.810  0.7584  1.0844 -2.8586
20437SOL    HW263754   0.539   2.176   3.728 -0.4428 -0.9854  0.6146
20438SOL     OW63755  10.164   5.749   5.016 -0.1586 -0.3146  0.0455
20438SOL    HW163756  10.241   5.805   5.002 -0.2399  0.0815  1.1053
20438SOL    HW263757  10.098   5.782   4.956 -0.1592  0.6520  0.5709
20439SOL     OW63758   0.573   2.540   4.139  0.2562 -0.3790 -0.4428
20439SOL    HW163759   0.515   2.615   4.121  0.3994 -0.3513 -0.7834
20439SOL    HW263760   0.653   2.580   4.174  1.0584 -0.2203 -2.3407
20440SOL     OW63761   1.469   8.726   6.112  0.0646 -0.5032  0.6125
20440SOL    HW163762   1.377   8.704   6.120 -0.7022  1.6552 -1.2242
20440SOL    HW263763   1.474   8.818   6.140  1.7936 -0.7938  1.3739
20441SOL     OW63764   6.706   2.972   7.106  0.3609 -0.8975 -0.2644
20441SOL    HW163765   6.685   3.017   7.188  0.7292 -0.7993 -0.2219
20441SOL    HW263766   6.746   3.039   7.051 -1.0769 -0.6414 -1.0270
20442SOL     OW63767   8.502  10.477   0.284  0.4810  0.0397 -0.4097
20442SOL    HW163768   8.582  10.431   0.259  0.9385  0.1252  0.8391
20442SOL    HW263769   8.529  10.568   0.296  0.4227 -0.1140  1.0012
20443SOL     OW63770   1.457   6.285   2.890  0.0751 -0.3689 -0.0149
20443SOL    HW163771   1.542   6.247   2.911 -0.0452 -0.0288  1.1300
20443SOL    HW263772   1.393   6.219   2.915 -0.0060 -0.6860 -1.0178
20444SOL     OW63773   3.728   4.842  10.403  0.3102  0.4360 -0.2354
20444SOL    HW163774   3.665   4.869  10.336 -0.9178 -0.1281  0.6557
20444SOL    HW263775   3.809   4.829  10.355 -0.2951  0.9926 -1.4559
20445SOL     OW63776   7.373   9.545   0.784 -0.3247 -0.2161 -0.2023
20445SOL    HW163777   7.419   9.490   0.721  1.1945  2.6195 -1.8134
20445SOL    HW263778   7.365   9.630   0.739 -2.6550  0.8523  2.0131
20446SOL     OW63779   5.193   4.014   9.410 -0.2397 -0.1480  0.1771
20446SOL    HW163780   5.147   3.948   9.358 -2.1112  0.8044  0.5161
20446SOL    HW263781   5.155   4.006   9.497  1.5159 -0.4557  0.9466
20447SOL     OW63782   2.606   4.833   9.354  0.1060 -0.1446  0.3931
20447SOL    HW163783   2.607   4.918   9.398  0.5445 -1.0262  2.1557
20447SOL    HW263784   2.560   4.774   9.414  0.7437 -1.3992 -0.3008
20448SOL     OW63785   0.174   5.118   0.801  0.4193  0.9912  0.0138
20448SOL    HW163786   0.201   5.197   0.849  1.0714  0.3443  0.7437
20448SOL    HW263787   0.152   5.055   0.869 -1.8522  1.0814 -0.5592
20449SOL     OW63788   0.701   0.414   6.107  0.2389  0.5408 -0.8853
20449SOL    HW163789   0.627   0.447   6.158  1.4289  0.2218  1.1426
20449SOL    HW263790   0.663   0.346   6.051 -0.6878 -1.3194  1.8033
20450SOL     OW63791   1.093   9.892   7.289 -0.2223  0.3638  0.1676
20450SOL    HW163792   1.036   9.968   7.278 -0.6142  0.5511  2.8295
20450SOL    HW263793   1.107   9.886   7.383  1.7620 -1.4689 -0.1673
20451SOL     OW63794   9.527   3.158  10.228 -0.6517  0.0791 -0.2346
20451SOL    HW163795   9.461   3.119  10.171 -0.5339  0.2007 -0.4565
20451SOL    HW263796   9.539   3.094  10.299 -0.0376 -0.5628 -0.8959
20452SOL     OW63797   7.104   8.911   5.098 -0.1868  0.3324  0.4351
20452SOL    HW163798   7.009   8.906   5.090 -0.2236  1.3885  0.0523
20452SOL    HW263799   7.125   9.003   5.080  1.0830 -0.2873 -1.5327
20453SOL     OW63800   3.218   4.319   2.606 -0.3703  0.3831 -0.2339
20453SOL    HW163801   3.156   4.246   2.600 -0.0393  0.0137  0.6530
20453SOL    HW263802   3.274   4.296   2.680  0.3708  1.0644 -0.5772
20454SOL     OW63803   1.566   0.419   3.763 -0.1886 -0.0447 -0.2577
20454SOL    HW163804   1.640   0.393   3.817  0.8830  1.0561 -1.1428
20454SOL    HW263805   1.505   0.346   3.769  0.9633 -0.9812  0.4926
20455SOL     OW63806   0.930   2.907   5.719  0.1554  0.1576  1.0188
20455SOL    HW163807   0.864   2.957   5.766  0.5860 -0.0448  1.8599
20455SOL    HW263808   0.912   2.924   5.626  0.2656  1.8422  1.2755
20456SOL     OW63809   2.265   9.454   1.094  0.0179 -0.3987 -0.6619
20456SOL    HW163810   2.314   9.518   1.043  0.2705 -1.4841 -1.8347
20456SOL    HW263811   2.174   9.468   1.069 -0.1361  0.6298  0.3981
20457SOL     OW63812   9.717   5.713   8.017  0.0685 -0.5838  0.8708
20457SOL    HW163813   9.632   5.708   8.062  0.3054 -1.2635  1.2601
20457SOL    HW263814   9.722   5.803   7.985 -0.7330 -0.4932  0.9782
20458SOL     OW63815   3.945   0.313   9.077 -0.1168 -0.0756  0.2800
20458SOL    HW163816   3.961   0.364   8.998 -0.7237 -0.3746 -0.0366
20458SOL    HW263817   3.856   0.337   9.104 -1.1564 -2.3176 -0.9091
20459SOL     OW63818   8.158   9.563   9.702  0.0647  0.3433 -0.2869
20459SOL    HW163819   8.234   9.532   9.750 -0.4489  0.1768  0.4468
20459SOL    HW263820   8.160   9.659   9.712 -0.4681  0.2642  0.7697
20460SOL     OW63821   1.810   0.443   7.439  0.7064 -0.1410  0.1744
20460SOL    HW163822   1.886   0.444   7.381  2.3470  1.2950  2.1908
20460SOL    HW263823   1.772   0.356   7.428  1.5084 -0.2619 -2.2487
20461SOL     OW63824   7.927   7.888   6.450  0.0089 -0.2762 -0.0735
20461SOL    HW163825   8.001   7.828   6.467 -0.3415 -0.5615  0.4763
20461SOL    HW263826   7.944   7.922   6.363  2.7808  2.4877  1.3309
20462SOL     OW63827   6.571   5.578   0.619  0.3171  0.2113 -0.1287
20462SOL    HW163828   6.597   5.499   0.668 -1.0827  0.1227  0.5044
20462SOL    HW263829   6.556   5.644   0.686 -0.6869  0.3707 -0.5027
20463SOL     OW63830   0.877   2.158   0.115 -0.5323  0.1732 -0.4903
20463SOL    HW163831   0.840   2.106   0.043 -2.5577  1.1030 -0.1679
20463SOL    HW263832   0.870   2.101   0.192 -1.3694  0.3634 -0.4204
20464SOL     OW63833   4.926   6.883   2.071 -0.3110 -0.6188  0.5507
20464SOL    HW163834   4.945   6.846   2.157 -2.5638  1.1506  1.9268
20464SOL    HW263835   4.836   6.856   2.052 -1.0872  1.8059  0.4180
20465SOL     OW63836   7.884   4.889   6.790  0.0241  0.2299 -0.1391
20465SOL    HW163837   7.968   4.871   6.832 -0.1203 -1.7320 -0.5960
20465SOL    HW263838   7.831   4.812   6.809 -1.2204  0.8443 -1.0002
20466SOL     OW63839   6.430   6.714   9.686 -0.1947 -0.4563  0.2112
20466SOL    HW163840   6.499   6.704   9.751 -0.2305  1.9409  0.7130
20466SOL    HW263841   6.411   6.625   9.656  1.4668 -1.3751  1.7519
20467SOL     OW63842   0.767   4.604   9.705  0.8736  0.1132  0.1004
20467SOL    HW163843   0.794   4.694   9.722  0.2958  0.2948  0.0989
20467SOL    HW263844   0.673   4.611   9.690  0.9608 -0.3879 -0.6725
20468SOL     OW63845   6.178   5.707   8.888 -0.3602 -0.0961  0.1259
20468SOL    HW163846   6.130   5.626   8.869 -0.2917 -0.6206  1.9650
20468SOL    HW263847   6.217   5.732   8.804 -2.0872 -0.8138 -0.9501
20469SOL     OW63848   9.055   7.396   7.541  0.3783 -0.3882 -0.1489
20469SOL    HW163849   9.059   7.364   7.451  0.6187 -1.2501  0.1646
20469SOL    HW263850   8.993   7.469   7.537  0.9699  0.0896 -1.1596
20470SOL     OW63851   2.516   8.802   2.761  0.2996 -0.4081 -0.1999
20470SOL    HW163852   2.581   8.828   2.826  0.9330  0.8038 -1.2588
20470SOL    HW263853   2.565   8.796   2.679 -0.2905 -2.8298 -0.4434
20471SOL     OW63854   1.813   6.854   1.275 -1.0119  0.0927 -0.0338
20471SOL    HW163855   1.840   6.927   1.219 -2.2343 -1.0283 -2.1822
20471SOL    HW263856   1.746   6.892   1.332 -0.3984  1.0422  0.0767
20472SOL     OW63857   1.682   8.959   1.093 -0.8912  0.6038 -0.5432
20472SOL    HW163858   1.673   9.053   1.078 -0.4960  0.6356 -0.5784
20472SOL    HW263859   1.641   8.919   1.016 -2.0478  0.7260 -0.0171
20473SOL     OW63860   1.075   0.276   5.535 -0.1809  0.4085  0.1634
20473SOL    HW163861   1.059   0.199   5.589  2.7171  0.1668  0.8288
20473SOL    HW263862   1.122   0.242   5.458 -0.0549  1.3392 -0.1885
20474SOL     OW63863   0.456   0.835  10.276 -0.4887 -0.1239  0.8520
20474SOL    HW163864   0.452   0.768  10.344  2.0960 -1.1198  0.1354
20474SOL    HW263865   0.373   0.827  10.230 -0.8884 -1.7513  1.7763
20475SOL     OW63866   0.901   3.643   7.419  0.5764 -0.1209  0.1188
20475SOL    HW163867   0.869   3.671   7.505  1.7085 -0.2172  0.5904
20475SOL    HW263868   0.873   3.551   7.412 -0.1037  0.0845  0.0832
20476SOL     OW63869   5.400  10.432   1.037  0.0802  0.4623  0.1928
20476SOL    HW163870   5.398  10.350   0.987  1.8525  0.0759  0.6675
20476SOL    HW263871   5.354  10.413   1.118  1.1512 -0.3449  0.6374
20477SOL     OW63872   0.300   9.331   1.398  0.2222  0.7552  0.3938
20477SOL    HW163873   0.210   9.342   1.428 -0.1878 -1.4793  0.1443
20477SOL    HW263874   0.302   9.372   1.311 -1.2786 -1.3627 -0.7037
20478SOL     OW63875   2.661   6.847   6.633  0.1988 -0.7182  0.8622
20478SOL    HW163876   2.566   6.848   6.647  0.3931 -0.9624  2.3500
20478SOL    HW263877   2.678   6.764   6.589 -0.4420  0.0597 -0.9699
20479SOL     OW63878   3.128   1.082   7.787  0.1844 -0.4414 -0.3580
20479SOL    HW163879   3.203   1.131   7.754 -0.7730  1.7384  0.5153
20479SOL    HW263880   3.167   1.010   7.837  1.6537 -0.2824 -1.2124
20480SOL     OW63881   2.173   3.479   8.040 -0.1371 -0.1351 -0.2161
20480SOL    HW163882   2.239   3.427   8.086 -0.0281  0.8192  0.7583
20480SOL    HW263883   2.098   3.421   8.031  0.9105 -1.3486 -1.6091
20481SOL     OW63884   6.272  10.201   6.309 -0.0063 -0.0367 -0.2889
20481SOL    HW163885   6.275  10.170   6.218  1.7329  0.8534 -0.5809
20481SOL    HW263886   6.345  10.263   6.315  1.5626 -1.9132  2.3630
20482SOL     OW63887   8.370   9.884   2.075 -0.3631  0.3856 -0.2538
20482SOL    HW163888   8.337   9.974   2.072  2.5156  1.5863  0.5643
20482SOL    HW263889   8.301   9.835   2.120 -1.1979  2.6135  1.0810
20483SOL     OW63890   7.338   8.318   7.143  0.9564  0.4948 -0.5189
20483SOL    HW163891   7.403   8.272   7.196  1.0982 -0.4142 -1.4434
20483SOL    HW263892   7.265   8.256   7.136  0.7151  0.8188 -0.9441
20484SOL     OW63893   1.214   5.693   8.442  0.0090  0.3260  0.5496
20484SOL    HW163894   1.189   5.640   8.366 -0.8850  0.8185  0.4911
20484SOL    HW263895   1.132   5.732   8.472  0.6322  1.5461  0.7026
20485SOL     OW63896   0.390   9.643   3.227  0.0738  0.7438 -0.2294
20485SOL    HW163897   0.373   9.718   3.171  1.1936  0.5186 -0.9020
20485SOL    HW263898   0.437   9.679   3.302  1.0529  0.6720 -0.7871
20486SOL     OW63899   6.937   3.092   6.589  0.0143 -0.0863 -0.3987
20486SOL    HW163900   6.901   3.004   6.577  1.5775 -1.1124  1.7587
20486SOL    HW263901   7.020   3.078   6.634  0.7107  2.4738 -0.7196
20487SOL     OW63902   4.828   7.857   5.911  0.3939  0.2808 -0.6549
20487SOL    HW163903   4.745   7.856   5.863  0.2956  0.8122 -0.5107
20487SOL    HW263904   4.864   7.944   5.894  1.3288 -0.2433 -1.3923
20488SOL     OW63905   7.173   8.160   9.884 -0.6263  0.7146  0.0493
20488SOL    HW163906   7.085   8.131   9.908 -1.1211  0.6725 -1.6718
20488SOL    HW263907   7.163   8.198   9.797  1.3442 -0.8706 -0.9566
20489SOL     OW63908   9.275   1.812   0.913  0.1183 -0.3208 -0.7074
20489SOL    HW163909   9.214   1.871   0.869 -1.2811 -1.5605 -0.5372
20489SOL    HW263910   9.358   1.822   0.867  0.1552  2.3094 -0.1961
20490SOL     OW63911   1.482   2.230   8.784 -0.2127  0.1296 -0.4740
20490SOL    HW163912   1.468   2.242   8.878  1.2685  0.2907 -0.2619
20490SOL    HW263913   1.512   2.315   8.753  1.5014 -0.5175 -0.6584
20491SOL     OW63914   4.478   8.944   0.876  0.1360 -0.2129 -0.2429
20491SOL    HW163915   4.482   8.959   0.971  0.5915 -0.3375 -0.2422
20491SOL    HW263916   4.478   8.848   0.867 -1.3854 -0.2295 -0.3085
20492SOL     OW63917   1.227   4.647   2.101  0.4387 -0.1841 -0.4524
20492SOL    HW163918   1.135   4.630   2.120 -0.3057  1.3466 -2.3237
20492SOL    HW263919   1.272   4.567   2.127 -1.4072 -0.9999  0.4493
20493SOL     OW63920   8.758   9.528   5.296  0.0662  0.1528 -0.0780
20493SOL    HW163921   8.718   9.568   5.373 -0.8567  1.3075 -1.1131
20493SOL    HW263922   8.720   9.576   5.222 -0.0767 -1.8049 -1.3296
20494SOL     OW63923   0.463   3.087   5.522 -0.0093 -0.0338  0.1321
20494SOL    HW163924   0.498   3.000   5.540 -0.3466 -0.2273 -0.1367
20494SOL    HW263925   0.448   3.126   5.608  2.3517  0.6723  0.3078
20495SOL     OW63926   5.508   0.958   2.579 -0.2327 -0.0541  0.1331
20495SOL    HW163927   5.427   0.998   2.612  0.0036  2.8390 -2.3326
20495SOL    HW263928   5.568   0.964   2.653 -1.8404 -1.1470  1.6282
20496SOL     OW63929   0.769   7.878   0.037  0.0772  0.0143  0.2994
20496SOL    HW163930   0.731   7.821   0.104 -0.3311  0.5974  0.5723
20496SOL    HW263931   0.738   7.966   0.060 -1.5071  0.0478 -1.6231
20497SOL     OW63932   0.301   6.936   6.702 -0.1626  0.7842 -0.4983
20497SOL    HW163933   0.358   6.883   6.758 -2.0769 -1.3226 -0.3889
20497SOL    HW263934   0.260   6.999   6.761 -1.4789 -0.8286  0.3832
20498SOL     OW63935   5.557   8.082   6.375 -0.1922 -0.1121  0.1736
20498SOL    HW163936   5.640   8.035   6.374 -0.3017 -0.4585  2.2590
20498SOL    HW263937   5.521   8.068   6.288  2.1280  0.4663 -0.9528
20499SOL     OW63938   5.730   1.083   2.022 -0.1925 -0.0071 -0.3174
20499SOL    HW163939   5.777   1.118   1.946  2.4671 -0.5775  0.9620
20499SOL    HW263940   5.779   1.114   2.097 -1.7754 -0.8598  1.1344
20500SOL     OW63941   2.907  10.100   8.142  0.5294 -0.3359 -0.1823
20500SOL    HW163942   2.912  10.174   8.203  0.9253  0.3675 -1.0493
20500SOL    HW263943   2.992  10.100   8.098  0.6593 -1.5228  0.0325
20501SOL     OW63944   5.894   2.314   9.874  0.3082  0.0546 -0.1841
20501SOL    HW163945   5.856   2.374   9.938  0.6513 -0.2210  0.2860
20501SOL    HW263946   5.982   2.296   9.908  0.2698 -0.5806 -0.4131
20502SOL     OW63947   2.834   0.599   6.012 -0.2391 -0.0056  0.3440
20502SOL    HW163948   2.851   0.675   5.958 -1.1639  1.5083  2.0704
20502SOL    HW263949   2.896   0.533   5.981 -1.5017  0.3074 -3.3051
20503SOL     OW63950   1.927   3.004   6.478  0.3225 -0.1429  0.2667
20503SOL    HW163951   1.961   2.922   6.514  0.8689 -0.7157 -1.4592
20503SOL    HW263952   1.885   2.978   6.396  1.0624  1.3776 -0.6357
20504SOL     OW63953   9.544   1.870   9.263 -0.1041 -0.2098  0.4962
20504SOL    HW163954   9.485   1.796   9.281 -1.6142  0.6036 -0.8792
20504SOL    HW263955   9.502   1.944   9.306 -0.6625  0.5749 -1.3105
20505SOL     OW63956  10.105   5.340   5.660 -0.1613  0.4783  0.1791
20505SOL    HW163957  10.178   5.299   5.707  0.4015  0.7583 -0.4286
20505SOL    HW263958  10.045   5.368   5.729 -1.0497 -2.1658  0.6182
20506SOL     OW63959   2.429   0.263   5.704  0.9571  0.3023  0.6863
20506SOL    HW163960   2.501   0.310   5.662 -2.0309  1.9822 -3.1896
20506SOL    HW263961   2.422   0.181   5.655  0.5376 -0.1248  1.4363
20507SOL     OW63962  10.435   1.754   7.906 -0.7001  0.3586  0.1239
20507SOL    HW163963  10.462   1.689   7.842  0.4840  1.5047 -0.5724
20507SOL    HW263964  10.394   1.824   7.855  0.5519  1.4427  0.5291
20508SOL     OW63965   0.107   8.482   0.150 -0.1877  0.4328  0.4284
20508SOL    HW163966   0.115   8.521   0.063  0.7383  1.0453  0.7665
20508SOL    HW263967   0.140   8.550   0.210 -2.6886  0.8368  1.4689
20509SOL     OW63968   1.429   6.225  10.110  0.2034 -0.2365 -0.0006
20509SOL    HW163969   1.377   6.184  10.041  0.9840 -0.2631 -0.5848
20509SOL    HW263970   1.460   6.152  10.163 -1.1877 -0.1615  0.9848
20510SOL     OW63971   9.837  10.433   5.336  0.0594 -0.3192  0.5848
20510SOL    HW163972   9.932  10.440   5.345  0.1362 -1.7476  1.0158
20510SOL    HW263973   9.824  10.395   5.249 -0.1697  0.5739  0.2112
20511SOL     OW63974   7.710   1.756   9.700  0.2226  0.0477  0.0544
20511SOL    HW163975   7.775   1.732   9.634  0.7022  2.6464 -0.5373
20511SOL    HW263976   7.626   1.736   9.660  0.5702  0.0058 -0.6668
20512SOL     OW63977   3.454   6.423   7.989  0.2561 -0.1013 -0.5403
20512SOL    HW163978   3.455   6.330   7.967  1.6781 -0.4022  0.6127
20512SOL    HW263979   3.420   6.466   7.911  1.9061 -1.3835 -2.0598
20513SOL     OW63980   9.322   5.102   7.924 -0.4745 -0.2406  0.0061
20513SOL    HW163981   9.390   5.069   7.984 -1.2017 -1.8513  0.0086
20513SOL    HW263982   9.239   5.078   7.966 -1.0100 -0.9515 -1.3747
20514SOL     OW63983   3.394   7.579   3.881 -0.1333 -0.4412 -0.8868
20514SOL    HW163984   3.428   7.650   3.935 -2.5205 -0.1984  0.4424
20514SOL    HW263985   3.377   7.619   3.796  0.4503  0.0428 -0.7832
20515SOL     OW63986   3.941   6.156   5.650  0.7415  0.2869 -0.4252
20515SOL    HW163987   4.018   6.103   5.631  1.9386  0.7823  2.5085
20515SOL    HW263988   3.867   6.099   5.628  1.7849  0.1614 -4.2508
20516SOL     OW63989   8.839   8.812  10.260  0.2290 -0.1704 -0.2454
20516SOL    HW163990   8.824   8.893  10.308 -0.4502 -0.1806 -0.4406
20516SOL    HW263991   8.928   8.821  10.225  1.3017 -0.7571  2.1479
20517SOL     OW63992   7.434   9.762   0.200 -0.5701 -0.0223  0.0370
20517SOL    HW163993   7.393   9.677   0.216  1.2977 -0.7599  1.2601
20517SOL    HW263994   7.502   9.744   0.135 -0.8120  0.7461 -0.4391
20518SOL     OW63995   6.924   6.983   9.022  0.3860  0.1247  0.0037
20518SOL    HW163996   6.918   6.955   9.114  0.5086 -0.6583 -0.2193
20518SOL    HW263997   7.004   6.942   8.990  0.3171  0.3569 -0.4759
20519SOL     OW63998   9.205   3.721   4.865 -0.1413  0.6372  0.4925
20519SOL    HW163999   9.301   3.720   4.870 -0.1123  0.6766 -0.0176
20519SOL    HW264000   9.182   3.812   4.848 -0.0236  0.1082 -3.4581
20520SOL     OW64001   9.443   0.892   5.597  0.0343 -0.4428  0.3434
20520SOL    HW164002   9.437   0.987   5.594  0.0170 -0.4537 -0.0033
20520SOL    HW264003   9.378   0.861   5.534 -1.1566 -0.7327  1.6734
20521SOL     OW64004   6.667   8.819   0.410 -0.2650  0.2660  0.2962
20521SOL    HW164005   6.645   8.726   0.418 -0.0583  0.1716 -0.1879
20521SOL    HW264006   6.622   8.861   0.483  0.2694 -0.3201  0.9731
20522SOL     OW64007   5.486   0.502   3.230 -0.5266 -0.0476  0.1260
20522SOL    HW164008   5.508   0.498   3.324  0.4416 -0.4309 -0.1013
20522SOL    HW264009   5.391   0.510   3.228 -0.5960 -0.4319  1.1377
20523SOL     OW64010   1.090   3.200   2.837  0.4748  0.3420 -0.2316
20523SOL    HW164011   1.079   3.159   2.923  2.5001  0.0205 -0.0830
20523SOL    HW264012   1.062   3.132   2.775 -0.7252  0.4735  0.1411
20524SOL     OW64013   3.609   6.332   4.192  0.9672 -0.6077 -0.9595
20524SOL    HW164014   3.649   6.413   4.225  0.3932 -1.1956  1.3063
20524SOL    HW264015   3.514   6.347   4.200  0.8368 -1.2119 -1.2837
20525SOL     OW64016   8.252   6.712   7.022  0.0338 -0.1865  0.2729
20525SOL    HW164017   8.284   6.773   7.089  1.3198 -1.8955  1.3152
20525SOL    HW264018   8.265   6.758   6.939  0.3641  1.1876  1.0555
20526SOL     OW64019  10.128   7.543   4.183  0.2188 -0.0264  0.0671
20526SOL    HW164020  10.074   7.506   4.112 -0.5101  0.9620  0.0852
20526SOL    HW264021  10.186   7.471   4.208 -0.1816 -0.7056 -0.8670
20527SOL     OW64022   1.161   4.571   3.430 -0.0015  0.3793  1.1598
20527SOL    HW164023   1.242   4.525   3.405 -0.2194  0.5149  0.1653
20527SOL    HW264024   1.192   4.652   3.471  0.3848  0.9473 -0.2064
20528SOL     OW64025   7.894   9.972   2.334 -0.9522  0.2818  0.2730
20528SOL    HW164026   7.939   9.894   2.301 -0.6394  0.9132 -0.8210
20528SOL    HW264027   7.963  10.023   2.377 -1.3173 -0.4350  1.8016
20529SOL     OW64028   6.095   5.279   4.975  0.3343  0.2693 -0.4951
20529SOL    HW164029   6.103   5.304   5.067 -0.2135 -0.6051 -0.1998
20529SOL    HW264030   6.029   5.210   4.974  0.1502  0.4430 -1.5823
20530SOL     OW64031   1.943   0.641   7.097 -0.3110  0.1178  0.5505
20530SOL    HW164032   2.000   0.580   7.144 -1.5803 -1.3394  0.2841
20530SOL    HW264033   1.969   0.632   7.006  0.5294  1.1621  0.6624
20531SOL     OW64034   4.833   2.652   8.055  0.0530  0.3567  0.2619
20531SOL    HW164035   4.817   2.655   7.960  0.7447  2.3426  0.1650
20531SOL    HW264036   4.795   2.568   8.083 -0.3190 -0.1981 -1.7309
20532SOL     OW64037   1.445   5.440   4.261  0.1997  0.0775  0.2678
20532SOL    HW164038   1.450   5.472   4.171 -1.2721 -0.6154 -0.0855
20532SOL    HW264039   1.352   5.424   4.277  0.5805 -1.3380  1.3675
20533SOL     OW64040   6.816   8.731   3.453 -0.3191  0.2175  0.6391
20533SOL    HW164041   6.864   8.650   3.433 -1.1448 -0.1051 -0.1186
20533SOL    HW264042   6.877   8.783   3.504  0.5739 -0.4924  0.3249
20534SOL     OW64043   0.939   2.753   7.048 -0.3895  0.5963 -0.4751
20534SOL    HW164044   0.998   2.680   7.069  1.5532  1.9265 -1.0584
20534SOL    HW264045   0.911   2.736   6.958 -0.2021  0.4250 -0.5012
20535SOL     OW64046   2.871   6.694   0.016 -0.1283  0.1593  0.3778
20535SOL    HW164047   2.795   6.733  -0.028 -0.1170  0.2608  0.4492
20535SOL    HW264048   2.839   6.609   0.047  0.3052 -0.6142 -1.1996
20536SOL     OW64049   9.369   2.130   8.025  0.0705  0.3441  0.2445
20536SOL    HW164050   9.399   2.123   8.116 -0.0655  0.7257  0.3201
20536SOL    HW264051   9.436   2.185   7.983  1.0596 -1.2002 -0.3075
20537SOL     OW64052   4.790  10.464   0.571  0.7000 -0.3063  0.7278
20537SOL    HW164053   4.769  10.530   0.638  0.2513  0.3163 -0.0115
20537SOL    HW264054   4.765  10.381   0.611 -2.2326  0.2835  0.3236
20538SOL     OW64055   6.848   6.591   3.817  0.2635  0.5055  0.1976
20538SOL    HW164056   6.774   6.651   3.827 -0.0961  0.1399 -0.2333
20538SOL    HW264057   6.875   6.570   3.906 -0.5664  0.1282  0.3603
20539SOL     OW64058   8.205   0.781   1.642 -0.2437  0.3157  0.0386
20539SOL    HW164059   8.272   0.817   1.584  0.2120  0.3529  0.5871
20539SOL    HW264060   8.169   0.707   1.593 -1.3416  1.5960 -1.2097
20540SOL     OW64061   0.570   2.779   6.433 -0.2101 -0.4867  0.1393
20540SOL    HW164062   0.533   2.867   6.439 -1.2389 -1.0096  2.6078
20540SOL    HW264063   0.664   2.793   6.443 -0.1712  0.4331 -1.1837
20541SOL     OW64064   8.513   6.055   0.305  0.0218 -0.4268  0.2304
20541SOL    HW164065   8.596   6.070   0.260 -0.3537 -1.5397 -0.8903
20541SOL    HW264066   8.478   6.143   0.320  0.4591 -0.0083 -1.0969
20542SOL     OW64067   7.803   1.893   2.826  0.2503  0.8098 -0.5637
20542SOL    HW164068   7.829   1.866   2.914  0.0276  0.7488 -0.5161
20542SOL    HW264069   7.770   1.983   2.837  0.0674  0.7432 -0.5548
20543SOL     OW64070   8.851   0.177   7.094  0.8273  0.2077 -0.1890
20543SOL    HW164071   8.868   0.140   7.181  0.3855 -0.8525 -0.5315
20543SOL    HW264072   8.766   0.220   7.103  0.2998 -0.7765 -0.3427
20544SOL     OW64073   2.784   3.368   5.386 -0.5103  0.1421 -0.0002
20544SOL    HW164074   2.863   3.333   5.344  0.4932  2.6471 -0.3370
20544SOL    HW264075   2.725   3.387   5.313 -0.4468  0.5764  0.0631
20545SOL     OW64076   8.904   6.293   4.141 -0.3189 -0.0500 -0.3797
20545SOL    HW164077   8.897   6.388   4.145 -1.6123 -0.1738  1.3667
20545SOL    HW264078   8.998   6.275   4.148 -0.1510  1.0707  0.4323
20546SOL     OW64079   7.105  10.399   3.042 -0.5869  0.2032 -0.0723
20546SOL    HW164080   7.069  10.370   3.126 -0.8447  1.9712  0.4569
20546SOL    HW264081   7.133  10.489   3.057  0.8849  0.0173 -1.4506
20547SOL     OW64082   1.513   4.462   1.044 -0.0077  0.0451 -0.0498
20547SOL    HW164083   1.600   4.426   1.032  0.4784  1.4595 -1.0938
20547SOL    HW264084   1.459   4.417   0.978  0.5262  0.9291 -1.1370
20548SOL     OW64085   6.330   5.289   6.979 -0.4110  0.0963 -0.1717
20548SOL    HW164086   6.357   5.244   7.059 -0.7840 -1.0755 -0.6671
20548SOL    HW264087   6.407   5.286   6.922 -0.5997 -0.4312 -0.4093
20549SOL     OW64088   9.941   2.833   2.796 -0.2530 -0.1954 -0.2069
20549SOL    HW164089   9.928   2.924   2.821  0.5889 -0.5726  1.8614
20549SOL    HW264090   9.854   2.794   2.802 -0.9693  0.8122 -2.9464
20550SOL     OW64091   7.305   4.518   3.068 -0.1711 -0.0278 -0.3697
20550SOL    HW164092   7.289   4.594   3.124 -0.3418 -0.6184  0.3902
20550SOL    HW264093   7.339   4.556   2.987 -0.0086  0.8439  0.0877
20551SOL     OW64094   2.804   5.341   4.557 -0.1376  0.0485 -0.0851
20551SOL    HW164095   2.882   5.285   4.550 -0.3097 -0.0133 -1.9141
20551SOL    HW264096   2.733   5.287   4.523 -0.5210  0.9724 -0.7745
20552SOL     OW64097   8.646   2.462   5.715  0.1780 -0.5099  0.1874
20552SOL    HW164098   8.577   2.528   5.709  0.3870 -0.4588 -2.8110
20552SOL    HW264099   8.717   2.506   5.763 -0.8656  0.2959  1.0461
20553SOL     OW64100   5.779   5.372   8.245  0.0967 -0.3674  0.0219
20553SOL    HW164101   5.728   5.446   8.279  0.6709 -0.1131  0.3334
20553SOL    HW264102   5.713   5.308   8.218 -0.4729  0.7714 -1.4637
20554SOL     OW64103   1.308   0.411   1.485 -0.5459  0.0734  0.1228
20554SOL    HW164104   1.213   0.410   1.499 -0.5427  0.2678  0.1635
20554SOL    HW264105   1.323   0.484   1.425 -0.4896 -0.3606 -0.3976
20555SOL     OW64106   1.302   0.248   5.325 -0.2272  0.1837  0.1004
20555SOL    HW164107   1.228   0.215   5.273 -0.5415 -0.0664  0.6925
20555SOL    HW264108   1.380   0.212   5.281 -0.6007 -2.7448  1.5843
20556SOL     OW64109   1.748   0.344   1.911  0.0602  0.1462 -0.0215
20556SOL    HW164110   1.662   0.301   1.916 -0.0941  0.5432  1.1464
20556SOL    HW264111   1.811   0.272   1.913 -0.1571 -0.1034  3.0220
20557SOL     OW64112   0.104  10.219   1.689 -0.4325  0.6007  0.2768
20557SOL    HW164113   0.173  10.275   1.723 -0.9771  0.4474  1.7157
20557SOL    HW264114   0.100  10.145   1.751 -1.9179  0.6525  0.2734
20558SOL     OW64115   1.636   7.560   5.312 -0.0373 -0.0443 -0.0088
20558SOL    HW164116   1.647   7.649   5.277 -1.0856  0.0174 -0.2192
20558SOL    HW264117   1.706   7.510   5.271 -0.1770  0.4243 -0.8472
20559SOL     OW64118   2.572  10.272   9.390 -0.1222  0.0292  0.0655
20559SOL    HW164119   2.583  10.366   9.409  1.7055 -0.6476  3.0201
20559SOL    HW264120   2.654  10.247   9.347  0.0611 -0.5100  0.7245
20560SOL     OW64121   2.878   5.113   7.312  0.1478 -0.2382 -0.7637
20560SOL    HW164122   2.969   5.142   7.312  0.2306 -0.4787 -0.3663
20560SOL    HW264123   2.861   5.090   7.404 -0.7969  1.2899 -0.5191
20561SOL     OW64124   7.699   0.496   1.256  0.3260 -0.0858 -0.1943
20561SOL    HW164125   7.709   0.467   1.347 -0.3243 -1.5073 -0.5505
20561SOL    HW264126   7.604   0.499   1.242  0.4126 -1.2827 -1.2330
20562SOL     OW64127   4.317   9.091   2.268  0.3447 -0.0179 -0.0686
20562SOL    HW164128   4.316   9.035   2.190  1.2041  1.2318 -1.0143
20562SOL    HW264129   4.304   9.180   2.235 -1.3416  0.3496  1.4447
20563SOL     OW64130   1.585   9.721   3.695  0.3757  0.1039 -0.0850
20563SOL    HW164131   1.560   9.669   3.772 -1.2652 -0.6339 -1.0480
20563SOL    HW264132   1.635   9.661   3.641  0.9100  0.4019  0.0769
20564SOL     OW64133   2.015  10.268   9.609  0.6899  0.2055  0.2801
20564SOL    HW164134   1.954  10.279   9.682  0.6347  0.4084  0.2044
20564SOL    HW264135   2.101  10.289   9.646  0.3021  3.6361 -0.4947
20565SOL     OW64136   9.234   0.512   9.957 -0.3942  0.0403  0.5904
20565SOL    HW164137   9.186   0.588   9.924 -0.1078  0.1266  0.3656
20565SOL    HW264138   9.326   0.538   9.952 -0.3542  0.1828  1.7855
20566SOL     OW64139   1.235   3.246   1.497  0.1112 -0.2083  0.3059
20566SOL    HW164140   1.153   3.197   1.501  1.0826 -1.8523  3.7439
20566SOL    HW264141   1.300   3.183   1.468  0.8753 -0.2303  1.9421
20567SOL     OW64142   7.661   0.996   6.513  0.3517  0.2409 -0.4296
20567SOL    HW164143   7.670   1.077   6.563  0.7309  1.1047 -1.8423
20567SOL    HW264144   7.570   0.996   6.483  0.6102  0.6647 -1.2508
20568SOL     OW64145   8.925   8.041   6.096 -0.0117  0.4118 -0.6963
20568SOL    HW164146   8.830   8.051   6.102  0.0923  1.9436 -1.1454
20568SOL    HW264147   8.941   8.026   6.003  0.1095 -1.2890 -0.4437
20569SOL     OW64148   9.929   4.424   0.206 -0.1596  0.0088 -0.1189
20569SOL    HW164149   9.838   4.448   0.224  0.0442  0.1929  0.7194
20569SOL    HW264150   9.981   4.482   0.263  0.4453 -0.6579  0.0181
20570SOL     OW64151  10.031   9.322   4.573 -0.1096  0.4681  0.8520
20570SOL    HW164152  10.091   9.356   4.640 -0.5105 -0.5462  1.7637
20570SOL    HW264153   9.983   9.251   4.617 -1.4331  0.7360 -0.0770
20571SOL     OW64154   1.998   1.392   0.892  0.2203  0.2894 -0.1445
20571SOL    HW164155   2.037   1.333   0.828  1.8123 -1.1084  1.9929
20571SOL    HW264156   1.918   1.347   0.920  1.0451 -0.5445  0.9379
20572SOL     OW64157   5.666   0.996   9.787  0.6003  0.4743  0.1920
20572SOL    HW164158   5.631   0.907   9.787 -0.8992  1.0311  0.7682
20572SOL    HW264159   5.726   0.999   9.861 -0.5874  0.3891  1.1752
20573SOL     OW64160   4.961   6.696   8.326  0.3759  0.6114 -0.0351
20573SOL    HW164161   5.032   6.651   8.372 -0.0785  0.2399  0.3086
20573SOL    HW264162   4.954   6.650   8.242 -0.5543 -0.4380  0.5913
20574SOL     OW64163   6.148   9.393   6.278  0.0348  0.3236 -0.0283
20574SOL    HW164164   6.214   9.333   6.314 -1.2003  0.1758  2.1592
20574SOL    HW264165   6.086   9.335   6.233  0.0294  0.1841  0.1561
20575SOL     OW64166   3.912   8.427   3.173  0.4690 -0.5992 -0.2148
20575SOL    HW164167   3.871   8.350   3.212  1.5577 -0.3575  1.5323
20575SOL    HW264168   3.968   8.462   3.243 -0.7442  2.3569 -0.5985
20576SOL     OW64169   8.352   5.155   1.593 -0.1001 -0.2832  0.4230
20576SOL    HW164170   8.389   5.155   1.682 -0.4542 -0.3495  0.5722
20576SOL    HW264171   8.388   5.077   1.552  1.2328  0.5069  0.0076
20577SOL     OW64172   0.882   9.690   4.033 -0.4674 -0.1052 -0.5268
20577SOL    HW164173   0.844   9.765   4.080  0.4286 -0.6737  1.2025
20577SOL    HW264174   0.846   9.697   3.944 -0.4648  2.3213 -0.4117
20578SOL     OW64175   4.045   5.381   4.382  0.3512 -1.0032 -0.2246
20578SOL    HW164176   4.116   5.421   4.331 -0.3016 -0.1295 -0.4799
20578SOL    HW264177   3.999   5.326   4.319 -0.5307  0.1742 -0.6398
20579SOL     OW64178   1.419  10.358   9.943  0.3582  0.1866 -0.0969
20579SOL    HW164179   1.447  10.431   9.888  0.2772  1.2135  1.1793
20579SOL    HW264180   1.496  10.337   9.996  0.4848 -0.8948 -0.6858
20580SOL     OW64181   4.910   0.253   8.411 -0.7983 -0.5760 -0.3898
20580SOL    HW164182   4.846   0.228   8.478 -1.5351 -0.1125 -0.8905
20580SOL    HW264183   4.859   0.258   8.330 -0.3645  0.8417 -0.6154
20581SOL     OW64184  10.442   9.445   6.609 -0.3257 -0.1954  0.1640
20581SOL    HW164185  10.423   9.527   6.654 -1.3673  0.3636 -1.2392
20581SOL    HW264186  10.535   9.452   6.585 -0.2198  0.2426  0.6892
20582SOL     OW64187  10.320   8.056   2.105 -0.2488  0.5254  0.5563
20582SOL    HW164188  10.338   8.017   2.190  0.0723  0.9646  0.6936
20582SOL    HW264189  10.407   8.064   2.064 -0.5415 -1.1848 -0.4780
20583SOL     OW64190   5.851   7.531   8.267  0.2535  0.3095  0.0424
20583SOL    HW164191   5.929   7.582   8.289  1.5140 -0.5588 -2.0791
20583SOL    HW264192   5.886   7.449   8.230 -1.6590 -0.1477 -0.8855
20584SOL     OW64193   5.601   4.774   7.561  0.2967 -0.1818  0.8045
20584SOL    HW164194   5.623   4.862   7.591  0.9098  0.2163 -0.7327
20584SOL    HW264195   5.644   4.766   7.475 -2.4801 -0.7476 -0.6421
20585SOL     OW64196   7.518   4.487   6.409 -0.0733 -0.4748  0.1117
20585SOL    HW164197   7.509   4.579   6.383 -1.0359 -0.2160  1.2843
20585SOL    HW264198   7.599   4.485   6.460  0.6712 -0.5669 -1.0266
20586SOL     OW64199   4.933   0.145   5.733 -0.1552  0.0269  0.9088
20586SOL    HW164200   4.942   0.169   5.825 -1.6605  0.2118  1.0193
20586SOL    HW264201   4.848   0.101   5.727 -0.8539  1.4824 -0.6791
20587SOL     OW64202   7.894   8.678   3.284  0.1687 -0.3722  0.0119
20587SOL    HW164203   7.842   8.726   3.219  2.0297 -0.0685 -1.3437
20587SOL    HW264204   7.833   8.614   3.321 -1.2574  0.2068 -1.2237
20588SOL     OW64205   6.426   3.709   2.245 -0.4114 -0.1102  0.0723
20588SOL    HW164206   6.504   3.733   2.295  0.0431 -0.7667 -0.2957
20588SOL    HW264207   6.389   3.635   2.292 -0.1030 -0.5932 -0.4229
20589SOL     OW64208  10.168  10.274   5.746  0.1604  0.0420 -0.3107
20589SOL    HW164209  10.249  10.234   5.713  0.1850  0.3631 -0.6396
20589SOL    HW264210  10.122  10.202   5.789  1.0987  0.0743  0.7960
20590SOL     OW64211   1.016  10.214   1.737 -0.5502 -0.0639  0.5377
20590SOL    HW164212   1.060  10.294   1.708 -0.6048 -0.2600 -0.0922
20590SOL    HW264213   1.084  10.147   1.736 -0.8294 -0.3476 -0.3529
20591SOL     OW64214   3.882   1.222   1.046 -1.1160  1.0094 -0.5919
20591SOL    HW164215   3.820   1.198   0.977 -0.6714  1.5849 -1.1984
20591SOL    HW264216   3.948   1.275   1.002 -0.6472  1.1123  0.2161
20592SOL     OW64217   0.702   9.579   4.677  0.4920  0.1316 -0.0945
20592SOL    HW164218   0.629   9.525   4.707  1.8613 -1.8052 -0.0992
20592SOL    HW264219   0.666   9.629   4.603 -0.4430 -1.9350 -1.1080
20593SOL     OW64220   6.494   8.344   1.559 -1.0092 -0.7507  0.1536
20593SOL    HW164221   6.454   8.329   1.474  1.0466 -1.0545 -0.8181
20593SOL    HW264222   6.573   8.290   1.559  0.0455  0.6875  1.4932
20594SOL     OW64223   1.266   7.101   6.609 -0.4688  0.0389 -0.3887
20594SOL    HW164224   1.269   7.129   6.700  0.3546 -0.9509 -0.0894
20594SOL    HW264225   1.349   7.131   6.572  0.4177 -1.8382 -0.0702
20595SOL     OW64226   0.189   0.173   6.461 -0.4433  0.6163  0.2610
20595SOL    HW164227   0.281   0.174   6.434 -0.1929  0.6155  1.1111
20595SOL    HW264228   0.149   0.105   6.407  0.0034  0.7526 -0.2536
20596SOL     OW64229   5.036   9.267   5.287  0.3671 -0.0376  0.3701
20596SOL    HW164230   5.116   9.233   5.328  0.3198 -0.3882  0.1796
20596SOL    HW264231   4.969   9.261   5.354  0.5793  0.5958  0.6467
20597SOL     OW64232   7.538   4.851   5.184 -0.6008  0.7151 -0.0077
20597SOL    HW164233   7.506   4.905   5.112 -0.2174  1.6656  0.5243
20597SOL    HW264234   7.599   4.789   5.142 -1.6157  0.1834 -0.7248
20598SOL     OW64235   0.747   2.365   1.050  0.1967 -0.1198  0.0836
20598SOL    HW164236   0.763   2.308   1.126 -2.1803 -0.8178  0.1657
20598SOL    HW264237   0.694   2.311   0.992  2.3371  0.2460 -2.3600
20599SOL     OW64238   7.313   8.123   5.685  0.2196 -0.3867 -0.4177
20599SOL    HW164239   7.285   8.215   5.691 -1.0262 -0.7671  0.0448
20599SOL    HW264240   7.290   8.097   5.596 -0.3199 -0.5085 -0.2485
20600SOL     OW64241   1.098   0.901   3.846  0.7353 -0.0266 -0.1226
20600SOL    HW164242   1.190   0.879   3.859 -0.0415 -2.7161  1.6533
20600SOL    HW264243   1.062   0.910   3.934 -0.7022  1.1370 -0.7797
20601SOL     OW64244  10.157   0.503   2.581  0.1385 -0.6619 -0.4704
20601SOL    HW164245  10.083   0.561   2.600 -0.4826 -1.5573 -0.0830
20601SOL    HW264246  10.213   0.509   2.659  0.0685 -0.5987 -0.4248
20602SOL     OW64247   6.888   4.961   0.910  0.1926  0.3694  0.1924
20602SOL    HW164248   6.822   4.921   0.966  0.1928  0.9523  0.6121
20602SOL    HW264249   6.969   4.915   0.933  0.2756  0.9013  0.9851
20603SOL     OW64250   7.012   5.796   1.339 -0.2176 -0.6133 -0.4887
20603SOL    HW164251   6.972   5.839   1.263  0.2823 -0.7232 -0.8138
20603SOL    HW264252   7.055   5.718   1.303  1.3543  0.1544 -0.3270
20604SOL     OW64253   0.999   0.506   1.010  0.1336  0.3512  0.1765
20604SOL    HW164254   0.911   0.471   0.995  0.4401 -0.7867  0.8319
20604SOL    HW264255   1.057   0.448   0.960  0.5501  0.7644  0.1701
20605SOL     OW64256   7.215   6.214   6.350  0.2055  0.9600  0.2206
20605SOL    HW164257   7.242   6.282   6.288 -0.6446  1.7629  0.7074
20605SOL    HW264258   7.273   6.141   6.332 -0.8353  0.6768 -2.4332
20606SOL     OW64259   4.403   6.010   3.181  0.4237 -0.3402  0.7201
20606SOL    HW164260   4.479   6.056   3.217 -0.0759  1.1304 -0.0081
20606SOL    HW264261   4.349   6.080   3.143 -0.0842 -1.6060 -0.9808
20607SOL     OW64262   6.897   7.863   9.238  0.4838 -0.0266 -0.2298
20607SOL    HW164263   6.903   7.814   9.156 -0.4501 -0.2861 -0.1521
20607SOL    HW264264   6.977   7.840   9.286  0.6538 -0.4940 -0.7304
20608SOL     OW64265   2.402   4.166   0.471  0.4953 -1.0761 -0.1704
20608SOL    HW164266   2.457   4.109   0.525  0.3748 -1.1446 -0.1167
20608SOL    HW264267   2.319   4.118   0.465  0.7681 -1.4587 -1.1005
20609SOL     OW64268   7.789   5.033   7.134  0.2341 -0.0919  0.3959
20609SOL    HW164269   7.879   5.055   7.158  0.2663  1.0487 -0.6753
20609SOL    HW264270   7.745   5.020   7.218  1.3356 -0.4284  0.9400
20610SOL     OW64271   3.117   4.836   8.990 -0.1637  0.2048  0.6767
20610SOL    HW164272   3.034   4.837   8.943 -0.1666  3.0682  0.5560
20610SOL    HW264273   3.105   4.899   9.061  2.3137  1.9173 -0.2552
20611SOL     OW64274   0.751   5.902   0.640 -0.3870 -0.7390 -0.1231
20611SOL    HW164275   0.725   5.897   0.547 -0.8214 -4.9020  0.0189
20611SOL    HW264276   0.670   5.885   0.688 -0.2454  1.7386  1.1839
20612SOL     OW64277   2.150   6.012   2.278 -0.7307 -0.0607  0.1968
20612SOL    HW164278   2.129   6.017   2.371  0.2473  0.4003  0.4126
20612SOL    HW264279   2.065   6.008   2.234 -1.1955 -1.4716  1.1562
20613SOL     OW64280   3.402   1.188   3.369 -0.5861 -0.3113  0.1082
20613SOL    HW164281   3.429   1.280   3.370 -0.3210 -0.3836  1.3259
20613SOL    HW264282   3.340   1.182   3.296  0.4541  0.5057 -0.8712
20614SOL     OW64283   8.303   5.878  10.471  0.4404 -0.2638 -0.4578
20614SOL    HW164284   8.391   5.847  10.449  0.8117  0.1186  0.4309
20614SOL    HW264285   8.259   5.802  10.508  0.7042 -0.2258 -0.0639
20615SOL     OW64286   5.207   1.451   4.486 -0.4987 -0.3038  0.0410
20615SOL    HW164287   5.198   1.372   4.433 -0.7146 -0.0900 -0.2415
20615SOL    HW264288   5.208   1.419   4.576 -4.3811 -0.4171  0.2071
20616SOL     OW64289   5.969   6.503   6.315 -0.0049 -0.1097 -0.1702
20616SOL    HW164290   5.979   6.596   6.295  0.4741 -0.4240 -1.4873
20616SOL    HW264291   6.050   6.463   6.284  0.0282 -0.8973  0.8892
20617SOL     OW64292   7.601   9.125   6.246  0.1735  0.2530  0.2955
20617SOL    HW164293   7.589   9.121   6.151  0.0108  0.6511  0.3004
20617SOL    HW264294   7.638   9.040   6.268  0.5889  0.3040 -0.1800
20618SOL     OW64295   3.026   6.180   2.125 -0.0341 -0.0497 -0.1930
20618SOL    HW164296   2.976   6.210   2.201 -0.7357 -2.5528  0.4250
20618SOL    HW264297   3.102   6.238   2.121 -0.0975  0.2830  2.3039
20619SOL     OW64298   7.005   3.697   3.297  0.1379 -0.4017 -0.3386
20619SOL    HW164299   7.099   3.716   3.301  0.8661 -3.4473 -0.4026
20619SOL    HW264300   6.992   3.630   3.365 -1.9910 -0.0962 -0.3897
20620SOL     OW64301   0.219   1.970   6.505  0.1778 -0.0197  0.7693
20620SOL    HW164302   0.268   2.042   6.545  0.5618  0.5975 -0.7414
20620SOL    HW264303   0.243   1.893   6.557  0.4568  0.7769  1.8642
20621SOL     OW64304   9.149   8.190   5.001 -0.4142  0.0469  0.3930
20621SOL    HW164305   9.063   8.229   5.018 -0.1399  0.4712  0.8383
20621SOL    HW264306   9.174   8.152   5.086  0.8751  1.9797  0.9382
20622SOL     OW64307  10.355   9.035   1.871  0.4658 -0.3237  0.3139
20622SOL    HW164308  10.351   9.083   1.954 -0.2235  2.6836 -1.2781
20622SOL    HW264309  10.264   9.020   1.847  0.6266 -0.3809 -0.2918
20623SOL     OW64310   0.679   9.621   2.919 -0.6830 -0.1355 -0.3337
20623SOL    HW164311   0.694   9.526   2.917 -1.9286 -0.3672  0.5396
20623SOL    HW264312   0.696   9.646   3.010  0.5242  0.6603 -0.7464
20624SOL     OW64313   5.699   1.695   8.816  0.0508  0.0514 -0.0563
20624SOL    HW164314   5.641   1.630   8.777  2.0425 -1.0958 -1.2927
20624SOL    HW264315   5.756   1.645   8.874  0.6215  0.9127  0.1543
20625SOL     OW64316   3.445   1.708   7.773 -0.0409  0.7312 -0.1653
20625SOL    HW164317   3.416   1.703   7.682 -0.3030  1.1680 -0.1072
20625SOL    HW264318   3.524   1.762   7.771 -1.5050  3.0458  0.1785
20626SOL     OW64319   9.425   3.846   9.704  0.0117  0.1290 -0.2238
20626SOL    HW164320   9.480   3.903   9.758 -3.0428  1.1652  2.0966
20626SOL    HW264321   9.415   3.893   9.621  0.8832  0.9271  0.1100
20627SOL     OW64322   9.090   4.824   5.379 -0.3409  0.1309 -0.1865
20627SOL    HW164323   9.185   4.829   5.390 -0.2828  0.5185 -0.8332
20627SOL    HW264324   9.071   4.730   5.379  0.3579 -0.0881 -2.5349
20628SOL     OW64325   5.326   5.497   1.499 -0.1028  0.4519  0.4166
20628SOL    HW164326   5.239   5.512   1.462 -0.6754 -0.0833  1.4997
20628SOL    HW264327   5.333   5.561   1.569 -0.5315 -0.9091  1.7602
20629SOL     OW64328   8.950   4.221   1.449 -0.1616 -0.9086  0.4666
20629SOL    HW164329   8.895   4.149   1.477  1.4066 -2.1279  0.5882
20629SOL    HW264330   8.916   4.246   1.363 -1.0350 -1.4590  0.6486
20630SOL     OW64331   5.430   8.438   1.145 -0.3027  1.0612 -0.1936
20630SOL    HW164332   5.467   8.449   1.232  0.7537  1.3477 -0.6600
20630SOL    HW264333   5.469   8.357   1.112 -0.1564  1.3122 -0.6543
20631SOL     OW64334   2.595   8.261   3.964  0.4444  0.8939 -0.3749
20631SOL    HW164335   2.681   8.294   3.987  0.5440  0.2911  0.1272
20631SOL    HW264336   2.597   8.256   3.868  0.6099  1.8089 -0.4343
20632SOL     OW64337   8.396   5.079   0.366 -0.5285 -0.1536  0.2116
20632SOL    HW164338   8.464   5.146   0.361  0.6318 -1.1573  1.7477
20632SOL    HW264339   8.316   5.128   0.389  0.0057  0.8300  0.0478
20633SOL     OW64340   7.487   2.621   4.039  0.4534 -0.9358  0.1247
20633SOL    HW164341   7.410   2.637   4.093 -0.6860 -0.2490 -1.5992
20633SOL    HW264342   7.558   2.667   4.084 -0.7092  0.6372  0.4370
20634SOL     OW64343   3.602   1.042   2.275 -0.3443  0.3624 -0.3769
20634SOL    HW164344   3.522   1.086   2.304 -0.4544  0.5643 -0.9775
20634SOL    HW264345   3.646   1.107   2.220  0.6487  0.5576  0.6238
20635SOL     OW64346   6.966   1.256   5.636 -0.4803  0.0044  0.2401
20635SOL    HW164347   6.893   1.318   5.632 -1.4739 -1.1873 -1.0393
20635SOL    HW264348   6.935   1.187   5.694 -0.1367 -0.1990  0.1812
20636SOL     OW64349   2.675   0.953   8.190 -0.5551 -0.7292 -0.0268
20636SOL    HW164350   2.591   0.916   8.163 -0.3185  0.5300 -2.8066
20636SOL    HW264351   2.656   1.043   8.214 -0.2129 -0.9009  0.9551
20637SOL     OW64352   1.359   2.223   9.433 -0.4258 -0.3957 -0.9119
20637SOL    HW164353   1.442   2.270   9.428  0.0929 -1.1464  0.0195
20637SOL    HW264354   1.292   2.291   9.444  0.1206  0.1875 -1.1650
20638SOL     OW64355   3.671   7.212   1.184 -0.1052  0.6130  0.1988
20638SOL    HW164356   3.760   7.195   1.215  0.2200 -0.9960 -1.4390
20638SOL    HW264357   3.616   7.204   1.263  1.1508  1.4857  1.2014
20639SOL     OW64358   0.410   5.085   0.685  0.4844 -0.0328 -0.1779
20639SOL    HW164359   0.431   5.163   0.633 -0.1524  0.2063 -0.0911
20639SOL    HW264360   0.320   5.100   0.715  0.4209 -0.7203 -0.0065
20640SOL     OW64361   0.096   0.156   0.239 -0.1141 -0.0157  0.0561
20640SOL    HW164362   0.069   0.134   0.150  1.2946  1.4225 -0.7716
20640SOL    HW264363   0.025   0.211   0.272  0.1025  0.7711 -0.7704
20641SOL     OW64364   8.214   6.080  10.009  0.0197 -0.1547  0.2080
20641SOL    HW164365   8.236   6.034  10.090  0.5880  2.1589  1.4630
20641SOL    HW264366   8.134   6.128  10.029  1.0510  1.7606  0.0273
20642SOL     OW64367   8.875   3.579   5.393 -0.0926 -0.4837  0.5026
20642SOL    HW164368   8.824   3.627   5.328  1.7941 -0.4084 -1.0315
20642SOL    HW264369   8.846   3.614   5.478 -2.4758 -0.4392 -0.2575
20643SOL     OW64370   3.043   2.449   8.915 -0.0183  0.4861 -0.0177
20643SOL    HW164371   3.007   2.514   8.976 -1.6658 -0.3550 -0.0680
20643SOL    HW264372   3.081   2.502   8.844 -2.9623  1.4531 -1.0093
20644SOL     OW64373   0.347   4.614   2.723 -0.2205  0.2687  0.2257
20644SOL    HW164374   0.365   4.677   2.793 -2.0844 -0.4725  1.4534
20644SOL    HW264375   0.344   4.667   2.643  2.8427  1.0134  0.4624
20645SOL     OW64376   4.072   3.762  10.035  0.0024  0.1584  0.2980
20645SOL    HW164377   4.033   3.850  10.031 -0.9420 -0.2451  0.4197
20645SOL    HW264378   4.153   3.770   9.985 -0.0993  1.0895  0.2586
20646SOL     OW64379   4.978   3.657   4.636  0.3020  0.4661 -0.2233
20646SOL    HW164380   4.997   3.607   4.556  1.7818  0.7211 -0.0582
20646SOL    HW264381   4.968   3.591   4.704 -1.6308  0.2042 -0.7067
20647SOL     OW64382   2.896   2.065   3.198 -0.1239  0.1746 -0.4298
20647SOL    HW164383   2.860   2.096   3.281 -0.3449  0.1320 -0.5093
20647SOL    HW264384   2.876   1.971   3.197 -1.0525  0.3688 -1.0038
20648SOL     OW64385   6.085   1.449   5.300  0.0183 -0.0464  0.5652
20648SOL    HW164386   6.168   1.495   5.315  0.5301  0.3928 -2.8385
20648SOL    HW264387   6.018   1.512   5.327  0.7633  0.5441  1.0920
20649SOL     OW64388   6.657   1.625   3.731 -0.2853  0.4457 -0.1752
20649SOL    HW164389   6.668   1.720   3.728  0.7717  0.3551  0.2513
20649SOL    HW264390   6.571   1.609   3.693 -0.2297  1.5314 -0.7847
20650SOL     OW64391   4.308   9.533   3.147 -0.3344  0.3086 -0.6384
20650SOL    HW164392   4.355   9.453   3.125 -0.8719 -0.2583  0.2033
20650SOL    HW264393   4.322   9.544   3.241 -1.8696  0.1085 -0.3575
20651SOL     OW64394   8.961   3.432   8.157  0.3984 -0.0358 -0.3557
20651SOL    HW164395   9.046   3.460   8.121 -0.1515  0.7018 -1.1201
20651SOL    HW264396   8.978   3.346   8.196  1.4437  0.0034 -0.7041
20652SOL     OW64397  10.190   1.124   9.387 -0.1133  0.0049  0.0939
20652SOL    HW164398  10.268   1.071   9.401 -0.1314 -0.6124 -1.9178
20652SOL    HW264399  10.155   1.095   9.303 -1.4155  1.6248  0.0198
20653SOL     OW64400   3.187   9.115   2.265 -0.1440  0.3268  0.5869
20653SOL    HW164401   3.158   9.204   2.287 -0.8832 -0.0943  1.3804
20653SOL    HW264402   3.202   9.073   2.350  0.3081 -0.2738  0.2161
20654SOL     OW64403   5.349   7.150   7.784 -0.5525  0.1288 -0.7985
20654SOL    HW164404   5.391   7.198   7.713  0.7406 -1.2850 -1.0271
20654SOL    HW264405   5.421   7.120   7.840 -1.4022 -0.4900  0.0045
20655SOL     OW64406   1.779   0.086   5.529  0.2050 -0.2082  0.2534
20655SOL    HW164407   1.845   0.040   5.581 -1.5371 -0.7468  2.0973
20655SOL    HW264408   1.770   0.033   5.450  0.7297 -1.0829  0.7630
20656SOL     OW64409   3.708   2.022   3.625  0.0348  0.0454 -0.2924
20656SOL    HW164410   3.631   1.973   3.597 -0.6036  0.3326  0.8965
20656SOL    HW264411   3.764   1.957   3.668  0.2149 -0.0545 -0.6700
20657SOL     OW64412   9.870   0.689   4.120  0.1427  0.1005  0.0440
20657SOL    HW164413   9.888   0.614   4.063  2.2717 -0.2044  1.0335
20657SOL    HW264414   9.939   0.752   4.100 -1.2298  1.5572 -0.2987
20658SOL     OW64415   7.358   8.854   5.152 -0.0023 -0.6506  0.1990
20658SOL    HW164416   7.269   8.888   5.149  0.2627  0.1946  1.3079
20658SOL    HW264417   7.347   8.759   5.161 -0.7908 -0.5351  0.5239
20659SOL     OW64418   7.349   5.669   0.263 -0.1171  0.0662  0.0861
20659SOL    HW164419   7.298   5.610   0.318  0.3151 -1.4265 -1.0574
20659SOL    HW264420   7.290   5.692   0.191  0.0128  0.3277  0.0622
20660SOL     OW64421   8.385   0.637   8.526  0.2123 -0.1627 -0.6403
20660SOL    HW164422   8.362   0.560   8.576 -0.2648  0.4409  0.0855
20660SOL    HW264423   8.480   0.631   8.515  0.2464 -0.5804 -0.1462
20661SOL     OW64424   9.096   3.590   5.125 -0.5557 -0.1139 -0.2761
20661SOL    HW164425   9.058   3.670   5.160  2.7648  1.6793 -0.3669
20661SOL    HW264426   9.072   3.522   5.188 -1.8289  1.3300  0.8674
20662SOL     OW64427   9.531   6.760   9.176 -0.1779 -0.0732 -0.4460
20662SOL    HW164428   9.512   6.731   9.087 -0.4329 -0.2779 -0.3255
20662SOL    HW264429   9.583   6.840   9.164 -0.2116 -0.0984 -0.7779
20663SOL     OW64430   9.588   8.510   1.768  0.2417 -0.2790  0.1672
20663SOL    HW164431   9.505   8.479   1.731  0.2688 -2.0114  1.4365
20663SOL    HW264432   9.597   8.461   1.850  2.0363  0.6266  0.5480
20664SOL     OW64433   9.810   8.995   0.228 -0.1134  0.0143 -0.2127
20664SOL    HW164434   9.816   8.974   0.135  0.2979 -0.8076 -0.0085
20664SOL    HW264435   9.716   9.002   0.245 -0.2138  3.1621 -1.3044
20665SOL     OW64436   4.628   8.838   5.050  0.4196  0.4581  0.3270
20665SOL    HW164437   4.695   8.878   4.995 -0.0721 -0.6321 -1.1247
20665SOL    HW264438   4.547   8.882   5.026  0.1364 -0.2940 -0.1550
20666SOL     OW64439   0.671   8.044   8.311  0.2571  0.0571  0.2420
20666SOL    HW164440   0.621   7.966   8.332  1.1014 -0.8564 -1.0035
20666SOL    HW264441   0.607   8.104   8.272  0.0362 -0.9503 -0.9993
20667SOL     OW64442   9.651   1.114   7.913 -0.0572 -0.4420  0.3187
20667SOL    HW164443   9.682   1.202   7.894 -0.2130  0.1250  2.4233
20667SOL    HW264444   9.662   1.066   7.831  0.7190  1.3255 -0.6620
20668SOL     OW64445   0.127   8.649   3.792  0.3093  0.6735  0.3535
20668SOL    HW164446   0.120   8.738   3.826 -0.6348  1.2040 -1.1332
20668SOL    HW264447   0.215   8.621   3.815  0.1548  1.4612  2.0597
20669SOL     OW64448  10.025   8.058   5.805 -0.1113  0.4523  0.2167
20669SOL    HW164449   9.998   8.094   5.721  0.1888 -0.5500 -0.3309
20669SOL    HW264450  10.099   8.000   5.784 -0.2239 -0.0413  1.1204
20670SOL     OW64451   5.169   9.031   1.538  0.2495 -0.5308  0.2744
20670SOL    HW164452   5.195   9.040   1.447  0.2776 -2.2364  0.0942
20670SOL    HW264453   5.231   8.969   1.575  2.1665  2.3292  2.2961
20671SOL     OW64454   4.493   6.912   6.951  0.1867  0.2886 -0.3144
20671SOL    HW164455   4.575   6.866   6.966  0.0796  0.3233  0.3990
20671SOL    HW264456   4.427   6.843   6.947 -0.0535  0.3926  1.3100
20672SOL     OW64457   8.527   9.199   3.538 -0.0892  0.5824 -0.2255
20672SOL    HW164458   8.621   9.186   3.550  0.0539  0.0527 -1.7210
20672SOL    HW264459   8.518   9.293   3.522  0.1007  0.7339  0.5105
20673SOL     OW64460   0.367   7.225   5.933  0.2120 -0.2141  0.0172
20673SOL    HW164461   0.461   7.230   5.916 -0.1207  0.1203 -2.0622
20673SOL    HW264462   0.359   7.220   6.028  2.3562 -1.1541  0.1926
20674SOL     OW64463   9.264   3.847   1.466  0.7625  0.0693 -0.2674
20674SOL    HW164464   9.180   3.820   1.428  0.6197 -1.5805  1.0752
20674SOL    HW264465   9.330   3.808   1.408  0.6047  0.7606 -0.9225
20675SOL     OW64466   4.842   5.634   8.116  0.8097  0.4410 -0.0730
20675SOL    HW164467   4.783   5.670   8.183  1.3217 -1.6581  1.6222
20675SOL    HW264468   4.816   5.678   8.035 -2.3555  0.4404  0.7911
20676SOL     OW64469  10.196   9.654   2.434 -0.5897 -0.0854  0.3096
20676SOL    HW164470  10.128   9.590   2.409  0.5677 -1.8080  1.3425
20676SOL    HW264471  10.159   9.700   2.509 -0.8479 -0.6377  0.5327
20677SOL     OW64472   4.258   8.017   4.166  0.2073  0.4957  0.4831
20677SOL    HW164473   4.337   7.964   4.157  0.0862  0.6548 -2.7321
20677SOL    HW264474   4.191   7.969   4.117 -0.4277  2.5823 -0.8283
20678SOL     OW64475   8.615   4.725   7.131 -0.3572 -0.3967  0.4522
20678SOL    HW164476   8.611   4.693   7.221  1.5383 -0.1211  0.6802
20678SOL    HW264477   8.656   4.655   7.082 -0.5776 -0.1932 -0.0288
20679SOL     OW64478   0.820   8.233   8.815  0.1946 -0.1796 -0.6554
20679SOL    HW164479   0.743   8.263   8.864 -0.2479  0.8067 -1.8683
20679SOL    HW264480   0.833   8.142   8.842 -0.4758  0.1129  0.6961
20680SOL     OW64481   1.395   5.124   5.219  0.0227  0.2119 -0.3186
20680SOL    HW164482   1.416   5.034   5.193  1.6245 -0.3211  2.4384
20680SOL    HW264483   1.426   5.131   5.310 -2.1099  2.8734  0.3439
20681SOL     OW64484   4.054   1.716   0.865  0.6998 -0.7181 -0.5126
20681SOL    HW164485   3.976   1.765   0.890  0.9216 -0.5064 -0.2365
20681SOL    HW264486   4.045   1.632   0.911  1.4788 -0.0519  0.9330
20682SOL     OW64487   3.776   7.137   6.040  0.2122 -0.2236 -0.3881
20682SOL    HW164488   3.747   7.209   6.096 -2.1308 -1.0369 -0.4372
20682SOL    HW264489   3.838   7.177   5.979 -0.0745  1.4661  0.3712
20683SOL     OW64490   8.518   2.374   4.927 -0.6371  0.3194 -0.2167
20683SOL    HW164491   8.423   2.379   4.935 -0.5550  1.9246  0.1576
20683SOL    HW264492   8.551   2.390   5.015 -0.0071 -2.0619  0.0404
20684SOL     OW64493   4.736   9.393  10.093 -0.3046  0.5871  0.0990
20684SOL    HW164494   4.658   9.340  10.107 -0.8044  0.8660 -1.4127
20684SOL    HW264495   4.710   9.457  10.026  0.9606  1.2454  0.1989
20685SOL     OW64496   9.923   4.154   0.140  0.0954 -0.3891 -0.0408
20685SOL    HW164497   9.944   4.237   0.183 -3.4069  0.0132  1.2490
20685SOL    HW264498   9.831   4.163   0.115  0.3494 -2.9312 -2.3199
20686SOL     OW64499   8.198   4.546   4.246 -0.9735  0.1568  0.3112
20686SOL    HW164500   8.235   4.559   4.334  1.7018 -0.4546 -0.6259
20686SOL    HW264501   8.152   4.462   4.252  0.5700 -0.6989  0.7723
20687SOL     OW64502   2.787   2.305  10.105  0.1912 -0.0641  0.5695
20687SOL    HW164503   2.793   2.213  10.080 -1.0177  0.4588 -1.9419
20687SOL    HW264504   2.836   2.351  10.037 -0.8846  1.2678  0.6558
20688SOL     OW64505   8.225   8.224   3.099  0.4723 -0.2837 -0.1957
20688SOL    HW164506   8.271   8.295   3.055  0.2763 -0.0780 -0.0671
20688SOL    HW264507   8.229   8.246   3.191  0.8684 -0.7083 -0.1046
20689SOL     OW64508   4.710   0.458   9.816 -1.0671  0.0579 -0.2468
20689SOL    HW164509   4.766   0.438   9.741 -0.7159  0.2575 -0.0416
20689SOL    HW264510   4.653   0.529   9.785  1.6147  2.8950  0.7666
20690SOL     OW64511   8.106   0.255   9.008 -0.3157 -0.4244  0.4915
20690SOL    HW164512   8.171   0.301   9.061 -0.2848 -0.8320  0.8031
20690SOL    HW264513   8.022   0.289   9.038 -0.2168  1.7053 -1.3494
20691SOL     OW64514   2.280  10.355   9.404  0.7612  0.2044  0.2819
20691SOL    HW164515   2.232  10.399   9.473  0.7412 -0.6632  0.8453
20691SOL    HW264516   2.262  10.405   9.325 -0.5505  0.2633  0.6057
20692SOL     OW64517   0.301   5.714   8.095 -0.4157  0.8661  0.1439
20692SOL    HW164518   0.351   5.633   8.105  1.4491  1.9804  0.2640
20692SOL    HW264519   0.246   5.718   8.173 -0.0896  0.0198  0.4298
20693SOL     OW64520   7.964   8.811   3.721  0.3799 -0.1149 -0.5920
20693SOL    HW164521   8.008   8.795   3.638  0.7873  0.0719 -0.4123
20693SOL    HW264522   7.876   8.775   3.708  0.4650 -0.1603 -1.0734
20694SOL     OW64523   9.772   2.814   5.930 -0.3439  0.0254  0.5979
20694SOL    HW164524   9.855   2.769   5.917 -0.7111 -0.1293 -1.6158
20694SOL    HW264525   9.792   2.906   5.916 -0.7602 -0.1518 -1.6098
20695SOL     OW64526   9.770   3.102   6.223 -0.3596 -0.0946 -0.0807
20695SOL    HW164527   9.679   3.123   6.246  0.1862  0.9032  1.2820
20695SOL    HW264528   9.799   3.176   6.170 -0.2807 -0.3346 -0.3752
20696SOL     OW64529   8.843   4.834   0.675  0.4670 -0.3771  0.0794
20696SOL    HW164530   8.786   4.793   0.740  0.6340  0.1617  0.5733
20696SOL    HW264531   8.828   4.928   0.685  1.0539 -0.2530 -0.1325
20697SOL     OW64532   3.756   7.072   4.490 -0.5565 -0.4929  0.1368
20697SOL    HW164533   3.694   7.068   4.563 -0.6332 -0.7226  0.0615
20697SOL    HW264534   3.842   7.060   4.530 -0.5033  0.4358  0.3163
20698SOL     OW64535   5.806   4.241   6.293  0.4909  0.0274  0.2122
20698SOL    HW164536   5.751   4.318   6.282  1.2684  0.9465  2.3379
20698SOL    HW264537   5.808   4.201   6.206 -1.7505  1.1237 -0.4270
20699SOL     OW64538   6.608   4.447   7.083 -0.4392  0.5275 -0.1184
20699SOL    HW164539   6.554   4.458   7.005 -0.5293 -0.5247 -0.2251
20699SOL    HW264540   6.688   4.405   7.051  0.2759  1.6800  0.1030
20700SOL     OW64541   8.512   9.843   4.342 -0.0811  0.4067  0.4431
20700SOL    HW164542   8.474   9.782   4.405 -3.4459  2.8587  1.0911
20700SOL    HW264543   8.602   9.857   4.373  0.3486 -2.9578  1.0522
20701SOL     OW64544   2.750   1.434   5.094  0.3371  0.0981 -0.0862
20701SOL    HW164545   2.838   1.455   5.126  0.0432 -0.7535  1.3823
20701SOL    HW264546   2.692   1.480   5.154 -0.2309 -1.2062  0.3968
20702SOL     OW64547   5.511   7.102   5.182  0.2070 -0.5986  0.3577
20702SOL    HW164548   5.424   7.136   5.203 -0.3983 -1.0393 -1.3299
20702SOL    HW264549   5.553   7.091   5.268 -1.7021 -1.2060  1.2777
20703SOL     OW64550   7.574   8.539   6.776  0.1870 -0.0313  0.3621
20703SOL    HW164551   7.561   8.612   6.715 -1.2296 -2.2919 -2.2283
20703SOL    HW264552   7.594   8.582   6.860 -0.1925  3.2918 -1.0827
20704SOL     OW64553   3.031   3.405   1.806  0.3322  0.2850  0.1203
20704SOL    HW164554   3.060   3.492   1.832  0.6038 -0.1409  1.3018
20704SOL    HW264555   3.037   3.406   1.710  0.0985  1.6264  0.0969
20705SOL     OW64556   5.740   8.987   2.610  0.1803 -0.1374 -0.9150
20705SOL    HW164557   5.758   9.081   2.604 -0.7970  0.1082 -0.1340
20705SOL    HW264558   5.652   8.977   2.575 -0.1164 -0.6183 -0.0548
20706SOL     OW64559   9.581   9.976   1.951 -0.6437 -0.0622  0.7926
20706SOL    HW164560   9.554  10.047   2.010 -0.9685 -0.0584  0.6410
20706SOL    HW264561   9.638   9.922   2.004  0.9859  1.2306  0.4372
20707SOL     OW64562   4.990   4.632   3.439 -0.0656  0.7699 -0.9577
20707SOL    HW164563   4.991   4.727   3.427 -1.1271  0.7988 -0.9241
20707SOL    HW264564   5.035   4.597   3.362  0.0407  1.2923 -1.1344
20708SOL     OW64565  10.271  10.279   8.209  0.4241  0.2979  0.0649
20708SOL    HW164566  10.335  10.320   8.267 -0.5702  0.3904  1.1538
20708SOL    HW264567  10.203  10.345   8.197 -2.0099 -1.3449  3.1277
20709SOL     OW64568   8.359   3.241   7.859 -0.0609 -0.3890  0.0929
20709SOL    HW164569   8.448   3.269   7.880 -0.3597 -0.1693  1.1357
20709SOL    HW264570   8.303   3.305   7.904 -0.7592  0.2069 -1.5464
20710SOL     OW64571   7.285   8.513   0.393  0.1592 -0.2377  0.4432
20710SOL    HW164572   7.375   8.532   0.368  0.4683  1.1521  2.3928
20710SOL    HW264573   7.284   8.419   0.410  0.6412 -0.6835 -1.7274
20711SOL     OW64574   9.736   5.336   6.357 -0.0761 -0.0868 -0.1527
20711SOL    HW164575   9.755   5.243   6.345  1.2587 -0.0961  1.5039
20711SOL    HW264576   9.788   5.380   6.290  1.6967 -0.4221  0.9376
20712SOL     OW64577   1.055   3.236   3.145 -0.2113 -0.1327  0.0514
20712SOL    HW164578   1.136   3.197   3.177 -0.7297 -0.9220  0.4223
20712SOL    HW264579   1.065   3.330   3.164 -0.1067 -0.4465  1.6917
20713SOL     OW64580   9.672   0.435   7.608 -0.3472  0.3205  0.1199
20713SOL    HW164581   9.671   0.344   7.636 -0.8581 -0.2799 -1.7260
20713SOL    HW264582   9.617   0.437   7.530 -1.0608  2.3850  0.6119
20714SOL     OW64583   5.979   0.062   2.348  0.4918 -0.1892  0.3629
20714SOL    HW164584   6.049   0.008   2.311 -1.0673 -0.6581 -2.1796
20714SOL    HW264585   5.940   0.009   2.417 -0.9171 -2.4673 -1.9859
20715SOL     OW64586   4.069   8.481   3.368  0.3741 -0.5965  0.0483
20715SOL    HW164587   4.065   8.567   3.409  0.3337 -0.8681  0.6370
20715SOL    HW264588   4.162   8.459   3.367  0.5952  0.2624 -1.8746
20716SOL     OW64589   7.110   3.676   8.918  0.1537 -0.4733 -0.1099
20716SOL    HW164590   7.089   3.767   8.895  1.3821  0.1804  1.2319
20716SOL    HW264591   7.048   3.654   8.988  1.1417  0.0171  0.9317
20717SOL     OW64592   1.101   1.981   2.358 -0.7025 -0.3308  0.2637
20717SOL    HW164593   1.157   2.059   2.358 -0.8987 -0.1852 -0.4253
20717SOL    HW264594   1.087   1.961   2.451  0.6311 -0.4649  0.4596
20718SOL     OW64595   3.324   4.178   6.584 -0.1905 -0.1032 -0.3152
20718SOL    HW164596   3.365   4.223   6.509 -0.1581 -1.4662 -1.1494
20718SOL    HW264597   3.355   4.226   6.660  0.7491  0.5818 -1.1000
20719SOL     OW64598   2.804   5.616   1.129  0.6306  0.2107  0.0482
20719SOL    HW164599   2.867   5.646   1.063 -0.5079 -1.1504 -1.7575
20719SOL    HW264600   2.808   5.520   1.124 -1.8395  0.0811 -0.4132
20720SOL     OW64601   4.291   2.237   0.032 -0.2006 -0.0677  0.4091
20720SOL    HW164602   4.360   2.182  -0.003  0.2863  0.7861 -0.0161
20720SOL    HW264603   4.290   2.314  -0.025 -0.9752  0.2857  0.8746
20721SOL     OW64604   1.813   4.782   9.486 -0.1697  0.2692 -0.0481
20721SOL    HW164605   1.804   4.689   9.466  1.5489  0.0647  0.0173
20721SOL    HW264606   1.802   4.825   9.401  0.5145 -0.1055 -0.3331
20722SOL     OW64607   5.469   7.261   3.410 -0.7085  0.1255  0.0815
20722SOL    HW164608   5.481   7.168   3.391  0.3520  0.4570 -1.0123
20722SOL    HW264609   5.515   7.275   3.493 -0.8928 -0.3285  0.2635
20723SOL     OW64610   8.107   3.866   7.647 -0.0322  0.4358  0.4215
20723SOL    HW164611   8.093   3.829   7.560 -0.6915 -0.2423  0.8057
20723SOL    HW264612   8.106   3.790   7.706 -0.5753  0.9798  1.1314
20724SOL     OW64613   1.671   7.041   5.873 -0.7691 -0.5680  0.0674
20724SOL    HW164614   1.618   6.962   5.879  1.2425 -1.9216  1.5367
20724SOL    HW264615   1.761   7.010   5.884  0.2259  1.7792 -0.8208
20725SOL     OW64616   4.498   9.744   0.581 -0.0595  0.5058 -0.4244
20725SOL    HW164617   4.543   9.663   0.605 -0.6492  0.2677 -0.1090
20725SOL    HW264618   4.447   9.721   0.503  0.3307  0.7637 -0.7576
20726SOL     OW64619   1.710   6.107   3.848  0.2165  0.7068  0.8339
20726SOL    HW164620   1.731   6.200   3.842 -2.3625  1.4164  1.5129
20726SOL    HW264621   1.786   6.068   3.891  1.0388  2.6069  1.2017
20727SOL     OW64622   1.486   1.961   3.307  0.1687  0.4341  0.5525
20727SOL    HW164623   1.507   2.029   3.243  0.1834  0.2499  0.3629
20727SOL    HW264624   1.396   1.936   3.287  0.2211  0.2764  0.5162
20728SOL     OW64625   4.652   1.403   7.114  0.1282 -0.0668  0.0240
20728SOL    HW164626   4.569   1.451   7.110 -0.5857 -1.0020  2.0294
20728SOL    HW264627   4.649   1.359   7.199  1.5046 -2.2790 -0.9970
20729SOL     OW64628   5.375   7.902   8.137 -0.1875  0.4109 -0.0592
20729SOL    HW164629   5.316   7.829   8.155 -0.2364  0.4748  0.0407
20729SOL    HW264630   5.463   7.863   8.139 -0.1814  0.4473  0.4781
20730SOL     OW64631   4.989   0.379   4.167 -0.5823  0.0988  0.0390
20730SOL    HW164632   4.992   0.370   4.262  0.5878 -1.1857 -0.0736
20730SOL    HW264633   5.062   0.438   4.146 -0.4723 -0.0826 -0.0923
20731SOL     OW64634   1.787   5.344   8.846 -0.3418  0.2977 -0.2251
20731SOL    HW164635   1.736   5.423   8.863 -1.1412 -0.2014 -0.2400
20731SOL    HW264636   1.731   5.291   8.790  0.1055 -0.3571 -0.0668
20732SOL     OW64637   7.409   2.826   6.436 -0.4013  0.0307  0.4153
20732SOL    HW164638   7.416   2.851   6.343  0.1278 -0.1561  0.3974
20732SOL    HW264639   7.427   2.907   6.484  0.1417 -0.0432  0.3509
20733SOL     OW64640   3.009   3.495   8.512 -0.6206 -0.6885  0.5201
20733SOL    HW164641   3.068   3.551   8.563  0.4043 -2.1995  1.0543
20733SOL    HW264642   2.992   3.546   8.433 -1.1750  1.1306  1.7446
20734SOL     OW64643   4.582  10.260   9.922 -0.2495 -0.8794 -0.6370
20734SOL    HW164644   4.498  10.307   9.928 -0.1223 -0.6717 -0.4423
20734SOL    HW264645   4.647  10.330   9.916 -0.0063 -1.0159  0.2599
20735SOL     OW64646   1.226   0.917   8.629  0.4736  0.2694 -0.0424
20735SOL    HW164647   1.277   0.953   8.701  1.4104 -2.7304  0.9381
20735SOL    HW264648   1.135   0.927   8.657  0.7956  0.0166  1.1553
20736SOL     OW64649   3.035   5.658   3.596 -0.1055 -0.2140  0.1226
20736SOL    HW164650   3.056   5.618   3.681 -0.9815  2.5094  1.7379
20736SOL    HW264651   2.949   5.622   3.574 -1.6478  1.7795  2.3733
20737SOL     OW64652  10.133   5.379   9.940 -0.5784 -0.3187 -0.2983
20737SOL    HW164653  10.075   5.336  10.003  0.7122 -1.0080  0.4501
20737SOL    HW264654  10.178   5.308   9.896  1.4307  0.1863  0.8116
20738SOL     OW64655   1.134   4.478   3.781  0.3702  0.3795 -0.4815
20738SOL    HW164656   1.122   4.526   3.863 -0.2523  0.4165 -0.5928
20738SOL    HW264657   1.051   4.488   3.734  0.2448 -0.7525 -0.5272
20739SOL     OW64658   2.622   6.482   4.235 -0.3510 -0.4435 -0.0778
20739SOL    HW164659   2.558   6.527   4.181 -0.1655  0.5791  0.5324
20739SOL    HW264660   2.581   6.398   4.256 -1.9294  0.5809  1.1268
20740SOL     OW64661   6.655   6.225   1.008  0.4395 -0.0043  0.2778
20740SOL    HW164662   6.653   6.175   1.090 -0.5741  1.7904  1.4153
20740SOL    HW264663   6.733   6.194   0.963 -0.0808 -2.5239  0.9436
20741SOL     OW64664   5.846   9.596   8.098  0.0693 -0.0388  0.1229
20741SOL    HW164665   5.873   9.506   8.115  1.2733  0.3328  0.2841
20741SOL    HW264666   5.787   9.590   8.022 -0.7028 -1.0594  0.7837
20742SOL     OW64667   9.792   5.496   5.374  0.7131  0.6012 -0.2489
20742SOL    HW164668   9.747   5.531   5.298  3.1891  1.5056 -1.3716
20742SOL    HW264669   9.806   5.572   5.431  0.3264  0.2205  0.3673
20743SOL     OW64670   3.631   9.666   7.878  0.0911 -0.0775  0.0627
20743SOL    HW164671   3.626   9.575   7.908 -0.0679 -0.5738 -1.4213
20743SOL    HW264672   3.707   9.702   7.924  0.1773 -0.9602  0.6380
20744SOL     OW64673   3.091   9.382   1.557 -0.3287 -0.2718  0.4058
20744SOL    HW164674   3.140   9.383   1.475  0.4570  1.0979  0.8593
20744SOL    HW264675   2.999   9.390   1.531 -0.0291  1.0707 -0.3181
20745SOL     OW64676   7.032   4.548   3.793  0.3677  0.4104  0.0896
20745SOL    HW164677   7.116   4.525   3.832  1.4523  0.7933 -1.8713
20745SOL    HW264678   7.054   4.611   3.725 -1.0757 -1.8675 -2.7015
20746SOL     OW64679   3.829   7.376   7.407  0.3624  0.5203  0.1260
20746SOL    HW164680   3.896   7.441   7.388  1.1615 -0.4312 -0.4046
20746SOL    HW264681   3.781   7.365   7.325  1.0809 -0.4933 -0.1826
20747SOL     OW64682   3.405  10.069   2.758  0.4421  0.6149  0.4036
20747SOL    HW164683   3.469  10.002   2.778  0.6367  1.4576  2.9099
20747SOL    HW264684   3.448  10.124   2.692  2.3656  1.2048  2.0707
20748SOL     OW64685   4.536   5.657   9.913 -0.0839 -0.1379  0.4364
20748SOL    HW164686   4.586   5.578   9.933  0.3859  0.6199  2.5904
20748SOL    HW264687   4.600   5.728   9.914 -0.9231  0.6763  1.9802
20749SOL     OW64688   4.157  10.223   7.293 -0.4723 -0.1559  0.3491
20749SOL    HW164689   4.136  10.150   7.352 -0.3797 -0.7561 -0.3495
20749SOL    HW264690   4.082  10.282   7.301 -0.5742 -0.3496  0.8858
20750SOL     OW64691   0.874   3.547   3.695  0.2109  0.2121  0.1157
20750SOL    HW164692   0.955   3.553   3.746  0.1990  3.0195 -0.0388
20750SOL    HW264693   0.862   3.453   3.682  2.0776 -0.4480  2.2685
20751SOL     OW64694   2.956   6.981   4.318 -0.1255  0.3653  0.1521
20751SOL    HW164695   2.877   7.009   4.272 -0.0504  1.4188  0.6181
20751SOL    HW264696   2.926   6.917   4.382 -0.2766 -0.8533 -1.0893
20752SOL     OW64697   2.685   8.957   0.276  0.4131  0.5390 -0.4334
20752SOL    HW164698   2.630   8.960   0.197  2.0204  1.2379 -1.5706
20752SOL    HW264699   2.667   8.871   0.313  0.2845 -0.1948 -2.0835
20753SOL     OW64700   4.464   7.924   5.142  0.1303 -0.4291 -0.1613
20753SOL    HW164701   4.504   7.998   5.188  0.5331 -1.5512  1.3706
20753SOL    HW264702   4.497   7.930   5.052 -0.7739  1.9090 -0.4053
20754SOL     OW64703   3.319   5.336   6.974 -0.4305 -0.6516  0.2775
20754SOL    HW164704   3.401   5.324   7.021  0.1205  0.9641 -0.2094
20754SOL    HW264705   3.257   5.367   7.040 -0.2839 -0.5773  0.3799
20755SOL     OW64706   5.225   2.610   5.180 -0.2609 -0.7830  0.1381
20755SOL    HW164707   5.255   2.594   5.091  0.6557 -0.1418  0.3241
20755SOL    HW264708   5.138   2.649   5.169  1.0273  2.1494 -0.6446
20756SOL     OW64709   1.950   3.577   3.433  0.1640  0.4562 -0.4793
20756SOL    HW164710   2.025   3.615   3.387  0.7389  1.4237  1.1574
20756SOL    HW264711   1.975   3.580   3.526 -2.6340  2.6315  0.3338
20757SOL     OW64712   2.417   9.620   0.964  0.3689  0.4043 -0.5112
20757SOL    HW164713   2.508   9.635   0.988 -0.0103  1.0797  0.5648
20757SOL    HW264714   2.407   9.663   0.879  0.7324  1.4807 -0.0267
20758SOL     OW64715   2.310   0.797   1.505 -0.5838  0.0159 -0.1978
20758SOL    HW164716   2.377   0.774   1.570 -0.4917 -1.1467 -0.6714
20758SOL    HW264717   2.360   0.830   1.431 -0.6798  1.1871  0.2411
20759SOL     OW64718   5.705   7.512   1.206 -0.5920 -0.2156  0.5503
20759SOL    HW164719   5.695   7.498   1.300  2.6977  1.3290  1.2900
20759SOL    HW264720   5.776   7.453   1.181 -1.4260 -0.6055 -1.0144
20760SOL     OW64721   6.089   3.605   2.870  0.4492 -0.2467  0.0823
20760SOL    HW164722   6.152   3.675   2.858  1.4396 -0.8434  1.4965
20760SOL    HW264723   6.054   3.619   2.958 -1.1384 -0.1488 -0.5378
20761SOL     OW64724   1.797   6.647   1.554  0.0921  0.0114 -0.0570
20761SOL    HW164725   1.807   6.740   1.534  1.3077 -0.1391 -0.2355
20761SOL    HW264726   1.863   6.629   1.621  0.2912 -0.8484 -0.4610
20762SOL     OW64727   9.837   0.300   6.501 -0.5602 -0.1820  0.5194
20762SOL    HW164728   9.769   0.233   6.515 -0.3322 -1.0844 -2.1876
20762SOL    HW264729   9.909   0.271   6.557 -1.0953 -1.2565  0.6949
20763SOL     OW64730   2.312   0.647   2.479 -0.3486  0.5124 -0.0567
20763SOL    HW164731   2.363   0.568   2.460  0.8215  0.4521  2.9054
20763SOL    HW264732   2.374   0.719   2.473 -0.8536  0.9425 -0.2715
20764SOL     OW64733   9.856   5.917   1.188  0.1317 -0.0361  0.2821
20764SOL    HW164734   9.842   5.988   1.250  0.4732  0.7174 -0.4848
20764SOL    HW264735   9.915   5.953   1.122  1.8115 -1.5944  0.8340
20765SOL     OW64736   6.953   3.795   3.557 -0.6144  0.0282 -0.4677
20765SOL    HW164737   6.960   3.701   3.547  0.2590  0.2774 -2.7128
20765SOL    HW264738   6.962   3.830   3.468 -1.0844  2.2205  0.2706
20766SOL     OW64739   2.720   5.195   0.646  0.1541 -0.6838 -0.0409
20766SOL    HW164740   2.743   5.235   0.562  0.8277 -1.9403 -0.4657
20766SOL    HW264741   2.714   5.270   0.706  0.5632  0.1455 -0.9933
20767SOL     OW64742   6.764   3.906   1.126 -0.3114 -0.3643  0.0363
20767SOL    HW164743   6.703   3.976   1.149  0.5224  0.2183  0.5627
20767SOL    HW264744   6.714   3.826   1.135 -1.5595  0.2011 -1.4965
20768SOL     OW64745   2.859   6.110   0.201 -0.3979 -0.1048  0.3097
20768SOL    HW164746   2.776   6.126   0.156 -0.5169  2.1069  1.1993
20768SOL    HW264747   2.925   6.113   0.131 -1.0979 -4.0319 -0.7715
20769SOL     OW64748   4.193   4.928   7.149 -0.0195  0.2152  0.1775
20769SOL    HW164749   4.201   4.880   7.067  2.3719 -0.3342  0.6681
20769SOL    HW264750   4.121   4.885   7.195  0.1088 -0.9352 -0.6609
20770SOL     OW64751   5.777   4.347   3.525 -0.3066  0.0645  0.0320
20770SOL    HW164752   5.791   4.290   3.601 -0.8235 -0.8559 -0.5386
20770SOL    HW264753   5.723   4.418   3.558 -0.6728 -0.4168  0.4907
20771SOL     OW64754   2.483   9.275   3.775 -0.6040  0.2741 -0.8905
20771SOL    HW164755   2.482   9.359   3.822  1.8639 -0.8507  1.4298
20771SOL    HW264756   2.515   9.297   3.688 -0.7265  1.8373 -0.5772
20772SOL     OW64757   8.287   7.756   3.246  0.0433  0.1582  0.0537
20772SOL    HW164758   8.295   7.838   3.199  2.6526 -1.0274 -1.8192
20772SOL    HW264759   8.198   7.757   3.282 -1.1801  2.3559 -2.6576
20773SOL     OW64760   1.366   8.301  10.278  0.1379  0.0463  0.3125
20773SOL    HW164761   1.436   8.252  10.321  1.7084  0.1023 -2.0049
20773SOL    HW264762   1.287   8.275  10.324  1.0313 -3.7868 -0.0130
20774SOL     OW64763   7.086   5.911   6.073 -0.5049 -0.4717  0.0590
20774SOL    HW164764   7.054   5.995   6.039  0.5097 -0.0306  0.1530
20774SOL    HW264765   7.150   5.882   6.009  0.0344 -0.5735  0.6338
20775SOL     OW64766   8.174   5.397   3.346 -0.5640 -0.1281  0.3142
20775SOL    HW164767   8.145   5.485   3.322 -2.7438 -0.8358  0.2085
20775SOL    HW264768   8.238   5.411   3.416 -0.3695  1.5556 -0.1587
20776SOL     OW64769   5.525   2.893   1.721  0.1573  0.4783 -0.5245
20776SOL    HW164770   5.531   2.988   1.727 -0.5567  0.4626  0.6915
20776SOL    HW264771   5.524   2.862   1.812  0.3551 -0.6889 -0.8944
20777SOL     OW64772   7.069   0.634   4.903 -0.1976  0.1550 -0.3373
20777SOL    HW164773   7.063   0.540   4.892 -1.0257  0.0107  1.0304
20777SOL    HW264774   7.071   0.647   4.998  1.8740  1.4269 -0.4947
20778SOL     OW64775   4.469   8.692   6.779 -0.0886  0.6776 -0.6633
20778SOL    HW164776   4.430   8.648   6.854  0.2946  0.2731 -0.6963
20778SOL    HW264777   4.553   8.648   6.766 -0.8130 -0.3304 -2.2827
20779SOL     OW64778   8.599   3.334   2.367  0.2298 -0.0458  0.3499
20779SOL    HW164779   8.623   3.290   2.286 -0.1160 -0.8737  0.6872
20779SOL    HW264780   8.551   3.412   2.340  1.2990  0.4275 -0.2717
20780SOL     OW64781   7.309   7.506   8.333 -0.8432  0.3427  0.2196
20780SOL    HW164782   7.230   7.491   8.386 -1.0203  0.2986 -0.0533
20780SOL    HW264783   7.279   7.498   8.243 -0.7717  1.4870  0.0742
20781SOL     OW64784   3.636   3.501   1.724 -0.3529 -0.1585 -0.8905
20781SOL    HW164785   3.680   3.455   1.653 -1.3064  1.3135 -2.5117
20781SOL    HW264786   3.544   3.477   1.715 -0.3955 -0.5032  0.3094
20782SOL     OW64787   9.408   9.643   8.708 -0.2525 -0.3368  0.0079
20782SOL    HW164788   9.352   9.653   8.786  0.1460 -0.1293  0.2728
20782SOL    HW264789   9.358   9.588   8.649 -0.1593 -1.3037  0.8087
20783SOL     OW64790   4.742   1.064   9.611  0.1383 -0.1792 -0.5431
20783SOL    HW164791   4.691   1.028   9.683  0.1820 -1.7673 -1.2555
20783SOL    HW264792   4.683   1.060   9.536  0.4294  0.5052 -0.8148
20784SOL     OW64793   5.813   4.527   8.861 -0.2359 -0.1118 -0.0892
20784SOL    HW164794   5.826   4.442   8.817  0.3512  0.4892 -1.1222
20784SOL    HW264795   5.901   4.551   8.892 -0.4154  0.0824  0.2711
20785SOL     OW64796   7.661   9.918   7.047  0.3210  0.2604 -0.2812
20785SOL    HW164797   7.740   9.894   6.998  0.3959 -0.6370  0.2539
20785SOL    HW264798   7.615   9.979   6.990  0.3371 -0.8486 -1.5402
20786SOL     OW64799   9.384   4.576   9.783 -0.9803 -0.2027  0.0282
20786SOL    HW164800   9.401   4.576   9.878  2.4954 -2.0342 -0.4369
20786SOL    HW264801   9.408   4.488   9.754  2.3824  1.4486 -3.0648
20787SOL     OW64802   5.885   3.731   7.400 -0.7320 -1.0419  0.5124
20787SOL    HW164803   5.890   3.698   7.310  1.2120  2.1189 -0.6979
20787SOL    HW264804   5.792   3.749   7.413 -1.1372 -2.1841 -0.5521
20788SOL     OW64805   0.298   2.010   5.588  0.2507  0.1998 -0.2943
20788SOL    HW164806   0.336   1.928   5.556 -0.3053  0.1280 -0.8070
20788SOL    HW264807   0.312   2.072   5.517 -0.8889  0.0734 -0.6569
20789SOL     OW64808   6.580   9.049   0.152  0.6902 -0.2430  0.1213
20789SOL    HW164809   6.665   9.006   0.158  0.2182 -1.1937  0.2279
20789SOL    HW264810   6.518   8.977   0.139 -0.1294  0.4109  0.3425
20790SOL     OW64811   2.092   9.932   3.304  0.3382 -0.2328 -0.2135
20790SOL    HW164812   2.026   9.890   3.359  0.0257  1.7688  1.0426
20790SOL    HW264813   2.046   9.956   3.224  0.4825 -2.0088 -0.8851
20791SOL     OW64814   1.570   0.826  10.488  0.5311 -0.5520 -0.0163
20791SOL    HW164815   1.567   0.904  10.432  0.0973 -1.0906 -0.7613
20791SOL    HW264816   1.575   0.753  10.427 -0.4955 -1.1821  0.6272
20792SOL     OW64817   9.198   2.074  10.184 -0.4040  0.7248 -0.2597
20792SOL    HW164818   9.283   2.035  10.209  0.1036  2.5961  1.1855
20792SOL    HW264819   9.133   2.019  10.228 -0.0204 -1.0435 -1.8043
20793SOL     OW64820   3.621   5.348   3.647  1.1254  0.0669 -0.1428
20793SOL    HW164821   3.658   5.436   3.650  0.3732  0.3669  0.5768
20793SOL    HW264822   3.548   5.350   3.709 -0.1632 -0.4738 -1.5600
20794SOL     OW64823   4.701   2.294   3.958  0.7414 -0.1862  0.1915
20794SOL    HW164824   4.708   2.237   4.034  2.9206 -1.2748 -0.7333
20794SOL    HW264825   4.744   2.245   3.888  0.1658  1.4333 -1.3629
20795SOL     OW64826   1.057  10.085   8.195  0.1602 -0.5187 -0.5434
20795SOL    HW164827   1.097  10.121   8.274  0.2314 -0.7694 -0.4616
20795SOL    HW264828   1.009  10.157   8.156  0.9881 -0.1119 -0.8296
20796SOL     OW64829   0.507   0.725   3.829 -0.2492 -0.1735 -0.2338
20796SOL    HW164830   0.533   0.656   3.769 -1.0165  0.8952 -1.8701
20796SOL    HW264831   0.413   0.712   3.842 -0.5790  1.0265 -1.2412
20797SOL     OW64832   4.950   4.338   5.799 -0.3868  0.2939  0.0405
20797SOL    HW164833   5.015   4.333   5.730 -1.6818  0.8922 -1.2757
20797SOL    HW264834   4.995   4.304   5.877  1.2001 -0.1115 -1.0035
20798SOL     OW64835   1.644   1.251   6.016 -0.1133 -0.4107 -0.3430
20798SOL    HW164836   1.643   1.347   6.021 -2.8232 -0.2755 -1.6223
20798SOL    HW264837   1.655   1.231   5.923  1.2011 -1.4067 -0.0077
20799SOL     OW64838   6.457   5.963   9.135  0.3377 -0.2904  0.0509
20799SOL    HW164839   6.551   5.977   9.141  0.0184  1.9362  1.0814
20799SOL    HW264840   6.421   6.015   9.207 -1.7423 -0.1862 -0.9947
20800SOL     OW64841   5.885   9.012   4.487  0.2560 -0.5853 -0.3238
20800SOL    HW164842   5.810   8.990   4.542 -0.2688  0.6289 -0.5211
20800SOL    HW264843   5.958   9.021   4.549  0.2393 -1.6781 -0.1217
20801SOL     OW64844   9.321   5.012   9.300 -0.0870  0.5702 -0.0423
20801SOL    HW164845   9.362   5.099   9.302  2.1084 -0.3938 -0.0397
20801SOL    HW264846   9.311   4.993   9.207 -0.1514  0.6379 -0.0492
20802SOL     OW64847   8.012   0.616   5.834 -0.1440 -0.6218 -0.1809
20802SOL    HW164848   7.965   0.699   5.839 -0.3698 -0.8290  1.5924
20802SOL    HW264849   8.104   0.640   5.847 -0.1035 -0.5657 -0.5491
20803SOL     OW64850   4.595   1.223   5.341 -0.1218 -0.5311  0.6928
20803SOL    HW164851   4.527   1.288   5.360 -0.6544 -0.3811 -1.4664
20803SOL    HW264852   4.676   1.261   5.375 -0.8471  0.0511  1.7997
20804SOL     OW64853   6.607   2.983   8.315  0.4365  0.7513  0.6140
20804SOL    HW164854   6.611   3.072   8.282 -0.1245  0.1597 -1.1630
20804SOL    HW264855   6.525   2.979   8.364 -1.3422  0.3803 -2.1474
20805SOL     OW64856   3.514   2.515   2.143  0.5864 -0.2020  0.2111
20805SOL    HW164857   3.441   2.550   2.094 -1.0660 -1.1612  1.8550
20805SOL    HW264858   3.566   2.467   2.078  0.4936  1.5446 -1.2087
20806SOL     OW64859   0.204  10.380   1.301 -0.7052  0.8547 -0.3547
20806SOL    HW164860   0.205  10.365   1.396  1.6827 -1.2282 -0.5784
20806SOL    HW264861   0.174  10.297   1.265 -1.1919  1.4964 -1.4448
20807SOL     OW64862   0.693   0.056   6.885 -0.2479 -0.0450  0.1117
20807SOL    HW164863   0.716   0.038   6.976  0.6287 -0.3687 -0.1702
20807SOL    HW264864   0.741   0.136   6.863  3.4159 -2.3848 -1.4554
20808SOL     OW64865   7.759   7.627   4.304 -0.4590  0.3363  0.1498
20808SOL    HW164866   7.838   7.584   4.337  0.9030  1.1420 -1.8502
20808SOL    HW264867   7.764   7.716   4.339  0.5092  0.9152 -1.3317
20809SOL     OW64868   2.734   7.119   6.901  0.0838  0.4090  0.3698
20809SOL    HW164869   2.651   7.103   6.857 -0.3426 -1.7490  1.7982
20809SOL    HW264870   2.724   7.206   6.940  0.1265  1.9761 -2.7921
20810SOL     OW64871   6.268   8.251   2.024  0.6479 -0.0064 -0.0913
20810SOL    HW164872   6.254   8.163   1.989 -0.0260 -0.0626  0.2946
20810SOL    HW264873   6.328   8.239   2.098  2.8834  0.2336 -1.7733
20811SOL     OW64874   1.820   5.846   7.808 -0.2707 -0.2563 -0.5945
20811SOL    HW164875   1.854   5.862   7.720  1.3681  0.3740  0.1168
20811SOL    HW264876   1.871   5.773   7.841  1.0533  1.2219  0.7907
20812SOL     OW64877   3.149   7.922   4.183 -0.4848 -0.1556 -0.2046
20812SOL    HW164878   3.065   7.877   4.177 -0.8913  0.3404  1.3982
20812SOL    HW264879   3.178   7.907   4.273  0.5485  0.7398 -0.3712
20813SOL     OW64880   2.892   3.121   4.837 -0.3939 -0.1269  0.1616
20813SOL    HW164881   2.835   3.195   4.860  1.5292  1.7543 -0.7599
20813SOL    HW264882   2.908   3.132   4.743  0.2948 -1.4639  0.1110
20814SOL     OW64883  10.431   0.453   3.418  0.3017  0.1128 -0.1601
20814SOL    HW164884  10.466   0.364   3.411 -0.8279 -0.2340 -1.7781
20814SOL    HW264885  10.484   0.504   3.357  0.4056  0.3724  0.1481
20815SOL     OW64886   4.310   8.138   7.352 -0.7875  0.4022  0.5674
20815SOL    HW164887   4.274   8.069   7.296 -0.9568 -1.1471  2.4706
20815SOL    HW264888   4.402   8.145   7.327 -1.3564  1.3938 -1.4380
20816SOL     OW64889   6.984   1.715   6.528 -0.0478 -1.1094 -0.2595
20816SOL    HW164890   7.064   1.670   6.500  1.7547  2.0434 -0.5630
20816SOL    HW264891   6.953   1.760   6.449  1.3773  2.5364  1.0849
20817SOL     OW64892   1.034   5.883   7.549 -0.8492  0.1904 -0.4227
20817SOL    HW164893   1.023   5.978   7.561 -3.2633  0.3174 -2.7277
20817SOL    HW264894   1.026   5.846   7.637 -0.1827  2.0792  0.4827
20818SOL     OW64895   9.992   9.680   9.614  0.0541 -0.0701  0.6621
20818SOL    HW164896   9.965   9.593   9.584 -2.3996  0.4125  1.2761
20818SOL    HW264897   9.911   9.722   9.642  1.4148  1.8049  2.0107
20819SOL     OW64898   6.383   9.289   2.840 -0.3021 -0.1355  0.4297
20819SOL    HW164899   6.470   9.279   2.802 -0.5333 -1.4324  0.1927
20819SOL    HW264900   6.348   9.368   2.800 -0.5879 -1.5117 -2.1896
20820SOL     OW64901   5.579   0.494   1.183 -0.2469  0.0278  0.0153
20820SOL    HW164902   5.517   0.451   1.241  1.1509 -0.2540  1.3741
20820SOL    HW264903   5.659   0.504   1.236  0.7156  0.7957 -1.4982
20821SOL     OW64904   3.059   9.732   0.733  0.1115 -0.0557 -1.1076
20821SOL    HW164905   3.148   9.742   0.768 -0.5672 -0.6875  0.9182
20821SOL    HW264906   3.026   9.822   0.728  0.1488  0.0581  0.2079
20822SOL     OW64907   4.810   8.298   3.192  0.4662 -0.3443 -0.4645
20822SOL    HW164908   4.875   8.241   3.232 -0.0611 -1.2029 -0.7934
20822SOL    HW264909   4.832   8.300   3.099 -0.8385 -1.8840 -0.8469
20823SOL     OW64910   2.989  10.431   7.629  0.5230 -0.4117  0.4493
20823SOL    HW164911   2.907  10.464   7.592  0.6171  0.7689  1.2450
20823SOL    HW264912   3.028  10.381   7.557 -1.7836 -2.7231  0.6591
20824SOL     OW64913   0.912   1.419   6.481  0.1956  0.0010  0.1553
20824SOL    HW164914   0.911   1.398   6.575 -0.9274 -0.3507  0.0830
20824SOL    HW264915   0.959   1.346   6.441 -1.2235 -0.9940  0.2246
20825SOL     OW64916  10.398   5.530   9.798  0.1976  0.2070  0.3044
20825SOL    HW164917  10.309   5.494   9.799 -0.1213  0.9044  2.6667
20825SOL    HW264918  10.387   5.622   9.822  1.5681  0.2305  0.9103
20826SOL     OW64919   1.421   0.154   0.142  0.3851  0.3068  0.2012
20826SOL    HW164920   1.346   0.136   0.199  0.2094  0.3583 -0.0103
20826SOL    HW264921   1.451   0.240   0.169  0.7986 -0.0059  0.7515
20827SOL     OW64922   7.184   8.277   4.724 -0.0862  0.1014 -0.1014
20827SOL    HW164923   7.142   8.348   4.676  1.0901  0.2487 -0.9828
20827SOL    HW264924   7.150   8.284   4.813 -0.3528  1.4670 -0.2885
20828SOL     OW64925   9.383   2.530   7.468 -0.2363  0.0564 -0.2519
20828SOL    HW164926   9.323   2.456   7.453 -2.0876  1.4960 -0.2536
20828SOL    HW264927   9.364   2.591   7.397 -1.4296  2.1669  1.7505
20829SOL     OW64928   0.918   2.007   3.056 -0.7073 -1.3665  0.0582
20829SOL    HW164929   0.928   1.999   2.961  0.6885  2.0277 -0.2494
20829SOL    HW264930   0.852   2.075   3.068 -0.1852 -1.0647  1.4665
20830SOL     OW64931   9.482   3.430   9.556  0.1561  0.0503 -0.2593
20830SOL    HW164932   9.402   3.471   9.522 -0.9858 -0.7698  1.3031
20830SOL    HW264933   9.519   3.494   9.616  1.2446  0.8194 -1.7020
20831SOL     OW64934   6.466   1.795   9.256  0.2809 -0.2162 -0.3423
20831SOL    HW164935   6.420   1.844   9.325 -2.0807 -1.0171 -1.2224
20831SOL    HW264936   6.507   1.863   9.202  1.7844  0.4361  1.5172
20832SOL     OW64937   4.684   5.947   4.219  0.3282 -0.4345  0.0671
20832SOL    HW164938   4.767   5.962   4.264  0.3314  0.2990 -0.1791
20832SOL    HW264939   4.688   6.003   4.142 -0.9502  0.6218  0.7425
20833SOL     OW64940   6.264   0.907   7.775  0.2707 -0.8338 -0.4739
20833SOL    HW164941   6.338   0.913   7.715  0.6673  0.5233  0.1208
20833SOL    HW264942   6.216   0.989   7.763 -0.8371 -1.4524 -0.4467
20834SOL     OW64943   6.790   2.482   1.975 -0.1980  0.3357 -0.0053
20834SOL    HW164944   6.882   2.455   1.965 -1.0667 -4.0039  1.2132
20834SOL    HW264945   6.761   2.504   1.887  1.3313 -1.0849 -0.9147
20835SOL     OW64946   4.173   9.530   1.452  0.2435 -0.0114 -0.0574
20835SOL    HW164947   4.081   9.502   1.448  0.3733 -0.5398  0.4456
20835SOL    HW264948   4.221   9.448   1.465  0.9926 -0.0343 -2.4736
20836SOL     OW64949   2.926   6.460   5.436  0.4342  0.4459 -0.8202
20836SOL    HW164950   2.930   6.385   5.378 -3.1080  0.0893 -0.8325
20836SOL    HW264951   2.946   6.535   5.380  1.6885 -0.2483 -1.3419
20837SOL     OW64952   9.036   6.104   5.355  0.0983 -0.0316  0.4483
20837SOL    HW164953   9.123   6.144   5.363  0.6994 -0.4978 -2.5077
20837SOL    HW264954   9.054   6.014   5.326 -1.3411 -0.1808 -0.0704
20838SOL     OW64955   8.434   9.273   1.701 -0.3438  0.1119 -0.2612
20838SOL    HW164956   8.349   9.259   1.660  0.2174  0.1263 -1.4663
20838SOL    HW264957   8.479   9.189   1.694 -0.7241 -0.2810  1.5566
20839SOL     OW64958   7.332   1.990   1.067 -0.4300 -0.2019  0.3281
20839SOL    HW164959   7.238   1.976   1.057 -0.6240  0.3394  1.2635
20839SOL    HW264960   7.354   2.054   0.998 -1.2355  1.5076  1.5772
20840SOL     OW64961   0.081   8.972   8.070 -0.0088  0.0528  0.6506
20840SOL    HW164962   0.119   9.053   8.037  0.5756 -0.9559 -1.3270
20840SOL    HW264963   0.136   8.903   8.033 -0.2285 -1.2518  2.6315
20841SOL     OW64964   9.930   9.171   4.108 -0.2559  0.1809  0.1618
20841SOL    HW164965   9.948   9.229   4.182  1.9977  1.1862 -1.0780
20841SOL    HW264966  10.005   9.183   4.050 -1.7692 -0.8675 -2.1188
20842SOL     OW64967   6.311   3.524   5.010 -0.0701 -0.4102 -0.0566
20842SOL    HW164968   6.253   3.522   5.086 -0.3939  1.6712 -0.2105
20842SOL    HW264969   6.289   3.445   4.961 -2.7620  0.2945 -0.1003
20843SOL     OW64970   1.625   8.698   8.900 -0.1340 -0.2369  0.1767
20843SOL    HW164971   1.621   8.606   8.873 -1.5901  0.0257 -0.6288
20843SOL    HW264972   1.674   8.741   8.830 -0.7418 -0.1550 -0.1974
20844SOL     OW64973   2.633  10.315   9.684  0.2070 -1.1764 -0.3837
20844SOL    HW164974   2.713  10.270   9.657 -0.1123 -0.8163 -2.0505
20844SOL    HW264975   2.652  10.408   9.671 -0.7555 -1.1341 -1.7306
20845SOL     OW64976   2.289   1.652   6.393 -0.0131 -0.9445 -0.4464
20845SOL    HW164977   2.217   1.715   6.403  0.0404 -0.8884 -0.4136
20845SOL    HW264978   2.287   1.601   6.474  0.9314  0.0408  0.2214
20846SOL     OW64979   9.067   4.021   2.475 -0.0688 -0.8948  0.1204
20846SOL    HW164980   9.018   4.039   2.555  0.3964  0.8925  0.0239
20846SOL    HW264981   9.025   3.942   2.439 -2.6028  0.2924  0.2709
20847SOL     OW64982   4.903   3.837   9.492  0.2644 -0.4736  0.6628
20847SOL    HW164983   4.987   3.790   9.487 -0.0766 -0.9118 -2.5564
20847SOL    HW264984   4.909   3.905   9.426 -1.0584  1.1151  2.0806
20848SOL     OW64985   3.876   6.394   5.830 -0.3140  0.4247 -0.2422
20848SOL    HW164986   3.945   6.338   5.865 -0.3222  0.1911 -0.5941
20848SOL    HW264987   3.888   6.391   5.735 -0.0665  1.3421 -0.2504
20849SOL     OW64988   6.975   4.548   3.141 -0.4274 -0.3338  0.5894
20849SOL    HW164989   6.900   4.534   3.083  0.0792 -0.6853  0.0174
20849SOL    HW264990   7.051   4.519   3.091  0.1292  0.2515  1.0753
20850SOL     OW64991   5.971   4.495   4.850  0.1697 -0.1743 -0.1565
20850SOL    HW164992   6.016   4.528   4.773  1.1621  0.0418  0.4978
20850SOL    HW264993   5.975   4.567   4.913 -1.5522  0.0328 -0.2537
20851SOL     OW64994   9.591   3.124   8.884 -0.7561  0.0102 -0.1152
20851SOL    HW164995   9.621   3.159   8.800 -0.1960 -1.6561 -0.6406
20851SOL    HW264996   9.622   3.034   8.885  1.9524  0.7814  3.2239
20852SOL     OW64997   3.048   4.022   3.477  0.3899 -0.0924 -0.3768
20852SOL    HW164998   3.115   3.972   3.523  0.9737  0.9164 -0.1120
20852SOL    HW264999   3.090   4.106   3.456  0.0502 -0.3835 -2.4793
20853SOL     OW65000   7.828   1.179   1.648 -0.1489 -0.1994  0.5869
20853SOL    HW165001   7.869   1.100   1.613  1.5204  0.6534  0.5293
20853SOL    HW265002   7.856   1.183   1.739  1.0536  1.0900  0.1969
20854SOL     OW65003   7.125   6.379   1.681 -0.0117 -0.4203  0.1332
20854SOL    HW165004   7.051   6.317   1.680  1.5434 -2.3894 -0.3226
20854SOL    HW265005   7.183   6.347   1.612  1.7246  0.4720  1.1233
20855SOL     OW65006   4.881   0.395   6.518 -0.2878 -0.1357 -0.2103
20855SOL    HW165007   4.957   0.358   6.562 -1.1447  1.1458  2.5701
20855SOL    HW265008   4.827   0.320   6.496  0.4839 -0.8789  0.3780
20856SOL     OW65009   2.143   7.031   3.917  0.2949  0.5290  0.1026
20856SOL    HW165010   2.202   7.032   3.992 -0.0404 -2.6747  0.5502
20856SOL    HW265011   2.055   7.029   3.955  0.0822  0.1203 -0.3936
20857SOL     OW65012   8.591   3.640  10.097 -0.2642 -0.4151  0.4905
20857SOL    HW165013   8.557   3.643  10.007  0.1957  0.0276  0.3245
20857SOL    HW265014   8.587   3.731  10.126  1.1496 -0.2760  0.3204
20858SOL     OW65015   1.692   0.915  10.044 -0.4396  0.1063  0.1381
20858SOL    HW165016   1.717   0.941  10.134  1.1033  0.7330 -0.4263
20858SOL    HW265017   1.606   0.955  10.031 -1.0671 -0.6928  1.6181
20859SOL     OW65018   3.377   3.160   2.814 -0.3454 -0.6726 -0.4173
20859SOL    HW165019   3.440   3.149   2.885  0.7330 -0.6026 -1.3389
20859SOL    HW265020   3.324   3.235   2.840  1.3383  0.6247 -0.5984
20860SOL     OW65021   3.706   7.644   1.001  0.3843  0.5538 -0.0180
20860SOL    HW165022   3.637   7.710   0.997  1.1904  1.4831  0.8278
20860SOL    HW265023   3.666   7.570   1.047  0.2932  1.5647  1.6210
20861SOL     OW65024   9.239   0.276   6.609  0.2429 -0.2059 -0.3097
20861SOL    HW165025   9.204   0.355   6.650  0.5416  0.4967 -1.3673
20861SOL    HW265026   9.163   0.236   6.566 -0.0052 -0.7720  0.6301
20862SOL     OW65027   9.553   4.677   7.086  0.2620  0.0740 -0.2429
20862SOL    HW165028   9.587   4.708   7.170 -0.2635  0.8373 -0.3003
20862SOL    HW265029   9.499   4.602   7.108 -0.2985  0.5940  0.1670
20863SOL     OW65030  10.024   8.495   9.464 -0.1249  0.7468  0.4882
20863SOL    HW165031  10.098   8.471   9.408  0.4933  1.5848  0.9247
20863SOL    HW265032  10.009   8.418   9.519  0.1035  0.3970  0.0642
20864SOL     OW65033   8.740   7.813   7.223 -0.4056 -0.5811  0.2068
20864SOL    HW165034   8.719   7.877   7.155 -1.3922  0.1667  1.1772
20864SOL    HW265035   8.807   7.856   7.277 -0.3340 -0.7806  0.2784
20865SOL     OW65036   2.827  10.449   8.086  0.2141 -0.5477  0.1308
20865SOL    HW165037   2.771  10.390   8.036 -1.4061  1.7054 -0.9043
20865SOL    HW265038   2.899  10.470   8.027  0.4530 -0.9948  0.2630
20866SOL     OW65039   9.948   0.961   7.930  0.5289  0.1324 -0.0592
20866SOL    HW165040   9.963   1.036   7.988 -1.5098 -0.8379  1.8625
20866SOL    HW265041   9.996   0.983   7.850 -0.1168  3.5598  0.3459
20867SOL     OW65042   8.169   5.514   3.066 -0.6069  0.1305  0.2017
20867SOL    HW165043   8.126   5.457   3.129 -1.0557 -1.1968 -1.2315
20867SOL    HW265044   8.260   5.484   3.064 -0.7309 -0.2347 -0.1948
20868SOL     OW65045   7.069   8.908   1.638 -0.3046  0.6167  0.1577
20868SOL    HW165046   7.107   8.929   1.723  0.2932  0.0945  0.0247
20868SOL    HW265047   7.117   8.964   1.576 -0.0470  0.2747  0.0449
20869SOL     OW65048   6.621   2.373   6.582 -0.4577  0.1485  0.2815
20869SOL    HW165049   6.684   2.358   6.512 -0.2689 -0.8849  0.6607
20869SOL    HW265050   6.549   2.312   6.564  0.0831 -0.9051  1.5634
20870SOL     OW65051   1.933   0.561   2.231  0.3313 -0.2063  0.0422
20870SOL    HW165052   1.858   0.535   2.177 -0.1797 -1.0681  1.1277
20870SOL    HW265053   2.007   0.512   2.195  0.2637  0.2074 -0.6718
20871SOL     OW65054   5.199   8.968   4.610  0.3105 -0.3281 -0.1598
20871SOL    HW165055   5.227   8.987   4.521  1.8255  0.9766  0.5398
20871SOL    HW265056   5.105   8.951   4.603  0.6167 -1.4236 -2.1378
20872SOL     OW65057   1.147   7.606   0.364  0.4824 -0.1662 -0.1358
20872SOL    HW165058   1.088   7.680   0.378  0.1821 -0.9235  3.2181
20872SOL    HW265059   1.119   7.569   0.280 -3.3666 -0.0351  0.9237
20873SOL     OW65060   5.927  10.019   2.584  0.6379  0.2092  0.1506
20873SOL    HW165061   5.985  10.035   2.658  0.1450 -1.6026  0.9910
20873SOL    HW265062   5.920   9.923   2.579  0.1722  0.2913 -1.8693
20874SOL     OW65063   6.431   7.026   7.921 -0.1344  0.6100  0.2236
20874SOL    HW165064   6.515   6.982   7.929  0.4745  1.7871  0.3975
20874SOL    HW265065   6.451   7.119   7.919 -1.4872  0.9565  1.1022
20875SOL     OW65066   5.394   3.177   5.834 -0.8649 -0.1225  0.4386
20875SOL    HW165067   5.466   3.214   5.783 -0.7647 -0.3595  0.4031
20875SOL    HW265068   5.431   3.097   5.873 -0.8285  0.2480  1.1860
20876SOL     OW65069   8.550   6.559   8.528 -0.5801 -0.3963 -0.2160
20876SOL    HW165070   8.516   6.582   8.442  1.3172  0.1102 -0.8759
20876SOL    HW265071   8.534   6.636   8.582 -2.4676 -0.9965  0.1341
20877SOL     OW65072   4.536   8.928   0.419 -0.5305  0.7391 -0.2782
20877SOL    HW165073   4.558   8.992   0.487  0.7607  0.7855 -0.7176
20877SOL    HW265074   4.563   8.970   0.337 -0.1762 -0.1356 -0.6204
20878SOL     OW65075  10.102   7.420   9.247 -0.3522  0.3119  0.5214
20878SOL    HW165076  10.166   7.404   9.177 -0.3119 -2.0902  1.0383
20878SOL    HW265077  10.018   7.424   9.202 -0.3764 -1.6362  0.3269
20879SOL     OW65078  10.226   2.012   5.783  0.3711 -0.6106 -0.6272
20879SOL    HW165079  10.174   1.966   5.717  0.5835  1.7126 -2.5381
20879SOL    HW265080  10.315   2.013   5.748  0.4782  0.7334 -0.3754
20880SOL     OW65081   1.108   8.811   9.046  0.1475  0.1877  0.2016
20880SOL    HW165082   1.197   8.842   9.029 -0.0464  0.7579  0.1771
20880SOL    HW265083   1.108   8.791   9.140  0.5376 -0.6463  0.0358
20881SOL     OW65084   0.729   0.841   9.349  0.0658  0.1293 -0.3461
20881SOL    HW165085   0.690   0.854   9.436  0.3561 -2.4215  0.2435
20881SOL    HW265086   0.654   0.835   9.290 -0.1258  3.0291 -0.5876
20882SOL     OW65087   1.546   5.164   7.576  0.3346  0.0253  0.0177
20882SOL    HW165088   1.520   5.079   7.613  2.4775 -0.3598  0.8020
20882SOL    HW265089   1.589   5.209   7.648 -0.7017  1.7997 -0.4194
20883SOL     OW65090   3.445   0.867   1.852  0.1829  0.0185  0.7061
20883SOL    HW165091   3.472   0.782   1.817  3.1685  1.1677 -0.1312
20883SOL    HW265092   3.420   0.918   1.775 -1.2198  0.0574  1.1645
20884SOL     OW65093   1.331   7.940   0.350 -0.2512 -0.7175 -0.5246
20884SOL    HW165094   1.255   7.944   0.292 -0.7254 -1.8837 -0.0048
20884SOL    HW265095   1.319   8.014   0.410 -0.3843 -0.2382 -1.1255
20885SOL     OW65096   7.482   3.297   3.479 -0.7548 -0.2438  0.8921
20885SOL    HW165097   7.504   3.217   3.527  0.9041 -0.3955 -0.0405
20885SOL    HW265098   7.551   3.305   3.413 -1.0277  1.8171  0.7805
20886SOL     OW65099   5.302   9.123   0.284 -0.3852  0.1225  0.0165
20886SOL    HW165100   5.255   9.126   0.367  0.4406  1.2135  0.4692
20886SOL    HW265101   5.251   9.063   0.230 -0.7121 -0.9342  1.4359
20887SOL     OW65102   7.179   0.121   7.447 -0.4996 -0.1872 -0.8754
20887SOL    HW165103   7.099   0.140   7.496  0.9609  1.8120  0.9176
20887SOL    HW265104   7.207   0.036   7.479  0.5586  1.1535  2.1970
20888SOL     OW65105   2.538   7.632   6.743 -0.3057 -0.8968 -0.0459
20888SOL    HW165106   2.552   7.664   6.653 -2.8356  0.0498 -0.1915
20888SOL    HW265107   2.545   7.710   6.797  0.4587 -1.3453  0.5223
20889SOL     OW65108   4.011   5.887   7.029  0.4911 -0.4345  0.2264
20889SOL    HW165109   4.054   5.968   7.003  0.5967 -0.6941 -0.4049
20889SOL    HW265110   4.074   5.844   7.088  0.1080  0.3132  1.1930
20890SOL     OW65111  10.159   6.995   3.434 -0.0780  0.2390  0.1369
20890SOL    HW165112  10.151   6.912   3.481  2.2324 -1.1637 -1.7445
20890SOL    HW265113  10.239   7.035   3.468  0.2748  0.3947 -0.8675
20891SOL     OW65114   8.966   8.119   9.651  0.0019 -0.0764 -0.4364
20891SOL    HW165115   8.889   8.163   9.687  0.2955  0.6457 -0.6937
20891SOL    HW265116   8.935   8.030   9.634 -0.0819 -0.5678  1.8619
20892SOL     OW65117   5.925   8.165   4.168 -0.3248 -0.4365 -0.3336
20892SOL    HW165118   5.902   8.215   4.246 -0.6406 -0.3526 -0.4813
20892SOL    HW265119   5.980   8.093   4.201  0.4994  0.2475 -0.1694
20893SOL     OW65120   5.541   3.028   6.911 -0.1368 -0.2835  0.0339
20893SOL    HW165121   5.600   3.103   6.918 -0.3897 -0.0738 -0.0516
20893SOL    HW265122   5.521   3.021   6.817 -1.1126  0.3336  0.1739
20894SOL     OW65123   0.166   6.311   9.041  0.5407  0.4704 -0.0757
20894SOL    HW165124   0.185   6.227   9.082  1.6561 -1.6948 -4.3988
20894SOL    HW265125   0.242   6.366   9.061  2.3894 -1.4695 -1.4577
20895SOL     OW65126   6.866   2.483   0.413  0.1877 -0.0818 -0.2013
20895SOL    HW165127   6.831   2.412   0.467  0.0034 -0.3258 -0.6360
20895SOL    HW265128   6.961   2.469   0.416  0.2298  0.3211  0.6192
20896SOL     OW65129  10.083   3.783   5.751 -0.1849  0.0576 -0.0782
20896SOL    HW165130  10.081   3.791   5.656 -1.5493 -2.5834 -0.3562
20896SOL    HW265131  10.002   3.825   5.781  0.0083  0.4651 -0.1306
20897SOL     OW65132   3.169   5.696   4.400  0.2610  0.1278 -0.6601
20897SOL    HW165133   3.127   5.747   4.331  0.3366  0.3514 -0.5440
20897SOL    HW265134   3.153   5.746   4.480  0.5929  0.1245 -0.5898
20898SOL     OW65135   3.737   9.446   3.556 -0.0066  0.2050 -0.7249
20898SOL    HW165136   3.739   9.481   3.467  1.7838  2.9509  0.2825
20898SOL    HW265137   3.821   9.400   3.565  0.2394  0.7474 -0.1852
20899SOL     OW65138   9.532   3.858   2.706  0.5408  0.0559 -0.2540
20899SOL    HW165139   9.581   3.892   2.632 -0.7707 -1.2635 -1.8070
20899SOL    HW265140   9.452   3.910   2.708  0.0633 -0.6587 -0.4954
20900SOL     OW65141   7.802   3.952   6.079 -0.2025 -0.4476  0.2366
20900SOL    HW165142   7.889   3.985   6.099 -0.5623  1.2321 -0.7660
20900SOL    HW265143   7.804   3.933   5.985 -1.0274  0.0217  0.1153
20901SOL     OW65144   3.976  10.106   3.881 -1.0373  0.6804 -0.1805
20901SOL    HW165145   3.888  10.075   3.901 -0.9155  0.0804 -0.5291
20901SOL    HW265146   3.969  10.143   3.794 -0.3104 -2.3377 -1.6708
20902SOL     OW65147   1.165  10.359   7.519  0.1172  0.0982 -0.4216
20902SOL    HW165148   1.073  10.383   7.513  0.3094  0.8775 -0.3620
20902SOL    HW265149   1.174  10.321   7.607  0.1179  1.2818  0.1159
20903SOL     OW65150   4.468   1.775  10.077 -0.3438 -0.4120 -0.0643
20903SOL    HW165151   4.558   1.803  10.092 -0.5113  0.3306 -0.4098
20903SOL    HW265152   4.425   1.788  10.162 -0.8925  2.2661 -0.6559
20904SOL     OW65153   6.801   8.751   0.708  0.4997 -0.5894 -0.6121
20904SOL    HW165154   6.722   8.802   0.689 -0.0660 -0.6459  1.3783
20904SOL    HW265155   6.771   8.682   0.766  1.7122 -1.7614 -1.3178
20905SOL     OW65156   7.137   1.987   3.939 -0.2042  0.1285  0.7501
20905SOL    HW165157   7.226   1.963   3.915 -0.1850  1.1809 -0.3002
20905SOL    HW265158   7.090   1.991   3.856 -0.3584  2.9782  0.8604
20906SOL     OW65159   9.255   5.600   9.141  0.1369 -0.1488 -0.4080
20906SOL    HW165160   9.224   5.535   9.204  1.5527 -1.6424 -1.1881
20906SOL    HW265161   9.259   5.554   9.058  1.5598  0.8128 -0.9157
20907SOL     OW65162  10.107   6.297   4.780  0.3673 -0.3303 -0.1309
20907SOL    HW165163  10.185   6.351   4.767 -0.6378  0.8548 -1.4296
20907SOL    HW265164  10.072   6.325   4.865  1.6739 -1.3509  0.7990
20908SOL     OW65165   6.304   4.462   8.060  0.1443 -0.0075  0.3367
20908SOL    HW165166   6.366   4.534   8.051 -0.0124  0.0293 -0.5876
20908SOL    HW265167   6.223   4.504   8.090  0.9947 -0.2753  3.3179
20909SOL     OW65168   0.138   5.806   6.532 -0.1520  0.4182  0.4918
20909SOL    HW165169   0.050   5.796   6.570 -0.4284  0.6026 -0.0883
20909SOL    HW265170   0.147   5.733   6.471 -0.8064  1.6265 -1.1368
20910SOL     OW65171   3.482   2.218   3.741 -0.4080 -0.1791 -0.6318
20910SOL    HW165172   3.455   2.151   3.804  0.1905  0.2278  0.0752
20910SOL    HW265173   3.403   2.269   3.724 -0.8577 -1.0128 -1.1314
20911SOL     OW65174   3.809   6.482   1.321  0.5500 -0.9500 -0.7152
20911SOL    HW165175   3.835   6.475   1.413  0.0806 -1.8742 -0.6427
20911SOL    HW265176   3.891   6.470   1.272  0.7488 -0.7726 -0.4293
20912SOL     OW65177   7.677   7.583   4.638 -0.7300 -0.5593  0.4779
20912SOL    HW165178   7.653   7.490   4.636 -0.4288 -0.6327  0.1712
20912SOL    HW265179   7.676   7.606   4.731 -1.3892 -0.7159  0.5105
20913SOL     OW65180   1.610   5.400   7.809  0.0222 -0.1133  0.4029
20913SOL    HW165181   1.593   5.490   7.837 -1.8936 -0.1414 -0.5335
20913SOL    HW265182   1.673   5.408   7.738  1.0260  0.3342  1.3050
20914SOL     OW65183   5.968   8.287   2.264  0.1633  0.0347 -0.9910
20914SOL    HW165184   6.054   8.322   2.245  0.0824  1.2230  0.6561
20914SOL    HW265185   5.918   8.361   2.297 -0.3750 -1.3214  1.4932
20915SOL     OW65186   5.666   2.275   0.585 -0.2076 -0.1544  0.1335
20915SOL    HW165187   5.733   2.283   0.518 -0.8322  0.9933 -0.3793
20915SOL    HW265188   5.714   2.259   0.666  0.5821 -0.9914 -0.4783
20916SOL     OW65189   9.195   6.441   7.223 -0.7859  0.9005  0.2241
20916SOL    HW165190   9.116   6.409   7.268 -0.2129  1.1698  1.4725
20916SOL    HW265191   9.225   6.366   7.171 -0.6641  0.0831  1.4353
20917SOL     OW65192   4.263   8.520   1.503  0.5904  0.5394 -0.2953
20917SOL    HW165193   4.246   8.478   1.587 -0.5573  0.5108 -0.5273
20917SOL    HW265194   4.354   8.499   1.483  0.7089  0.1019  0.6878
20918SOL     OW65195   3.084   1.753   0.683  0.2840  0.0330  1.0716
20918SOL    HW165196   3.052   1.842   0.671 -0.5807 -0.2667  1.0846
20918SOL    HW265197   3.170   1.752   0.641  1.0329  1.2994  2.4699
20919SOL     OW65198   9.570   0.227   3.579 -0.2472  0.1406  0.1774
20919SOL    HW165199   9.584   0.138   3.545  0.3433  0.6443 -0.9852
20919SOL    HW265200   9.658   0.258   3.599 -0.4447  0.5004  0.4868
20920SOL     OW65201   0.209   2.457   5.240 -0.0065  0.3539 -0.3258
20920SOL    HW165202   0.263   2.412   5.175 -0.9445 -0.0359 -0.8724
20920SOL    HW265203   0.124   2.414   5.234 -0.7291  1.7148 -0.3392
20921SOL     OW65204   5.871   7.306   7.346 -0.3512  0.0604  0.3222
20921SOL    HW165205   5.916   7.258   7.277 -0.4624 -0.1170  0.3716
20921SOL    HW265206   5.930   7.378   7.368  0.8259 -1.2753  1.7489
20922SOL     OW65207   4.822   5.879   0.302  0.1106  0.0404  0.3361
20922SOL    HW165208   4.732   5.910   0.290  0.0687 -0.6120 -1.4074
20922SOL    HW265209   4.875   5.958   0.305 -0.5950  0.5166  2.8052
20923SOL     OW65210   3.908   0.963   8.802  0.0010  0.6036  0.6393
20923SOL    HW165211   3.886   0.968   8.895 -0.0412  0.0944  0.6593
20923SOL    HW265212   3.832   0.998   8.757  0.0335  0.8804  0.7960
20924SOL     OW65213   5.276   8.110   1.831 -0.1633  0.2154 -0.3320
20924SOL    HW165214   5.237   8.032   1.791 -0.0629 -0.9011  1.6280
20924SOL    HW265215   5.362   8.081   1.861 -0.0482  1.1331  0.2687
20925SOL     OW65216   6.210   5.213   3.267 -0.2235  0.0021 -0.0238
20925SOL    HW165217   6.262   5.275   3.318 -0.6884 -1.0588  1.8671
20925SOL    HW265218   6.204   5.136   3.323 -0.6639 -1.3144 -1.7972
20926SOL     OW65219   1.144   7.638   5.079 -0.3699 -0.4613  0.0944
20926SOL    HW165220   1.087   7.700   5.125 -0.0958 -1.1596  1.4380
20926SOL    HW265221   1.228   7.683   5.072 -0.0645 -0.7819  1.3948
20927SOL     OW65222   9.675   0.503   3.508 -0.1267  0.2221 -0.4757
20927SOL    HW165223   9.710   0.454   3.434  0.6590 -0.7269  0.5017
20927SOL    HW265224   9.746   0.504   3.572 -0.3671  2.0539 -0.1712
20928SOL     OW65225   4.581   8.645   0.430  0.5585  0.2399  0.5407
20928SOL    HW165226   4.643   8.626   0.360 -0.4513  1.4610 -0.7402
20928SOL    HW265227   4.585   8.740   0.440  0.8911  0.0735  2.3687
20929SOL     OW65228   3.236   3.751   2.287  0.0780 -0.0160  0.0738
20929SOL    HW165229   3.163   3.696   2.316  0.8548 -0.0437  2.0690
20929SOL    HW265230   3.250   3.726   2.195 -1.8275 -0.6269 -0.0828
20930SOL     OW65231   0.584   3.988   4.836 -0.1580  0.5080 -0.5740
20930SOL    HW165232   0.541   3.939   4.766 -3.0503  1.5030  0.3881
20930SOL    HW265233   0.537   4.071   4.840  0.4431  0.8098  1.9972
20931SOL     OW65234   6.649   8.139   4.543 -0.3511  0.0173  0.0692
20931SOL    HW165235   6.708   8.070   4.574 -1.4782 -0.9665  0.0617
20931SOL    HW265236   6.706   8.216   4.533  0.7982 -0.7212  0.7104
20932SOL     OW65237   4.548   7.516   4.548 -0.1223 -0.1636 -0.1061
20932SOL    HW165238   4.497   7.572   4.607 -1.5955 -0.8733 -0.6421
20932SOL    HW265239   4.489   7.499   4.474  0.7558 -1.3658 -0.5714
20933SOL     OW65240   5.130   0.999   2.214 -0.0784 -0.6034 -0.3041
20933SOL    HW165241   5.091   1.007   2.126  1.5858 -1.1555 -1.1436
20933SOL    HW265242   5.222   1.022   2.201 -0.2816  1.8110  1.8288
20934SOL     OW65243   9.767   2.348   9.053  0.0700  0.6044  0.7441
20934SOL    HW165244   9.735   2.319   8.967 -0.0664  0.2569  0.9117
20934SOL    HW265245   9.694   2.334   9.112  0.6119 -0.5050  1.1940
20935SOL     OW65246   0.678   1.339   3.884 -0.2500  0.4430 -0.4843
20935SOL    HW165247   0.728   1.265   3.850 -0.3974 -0.1833  0.6213
20935SOL    HW265248   0.672   1.323   3.978  0.4589  2.2891 -0.0652
20936SOL     OW65249   5.213   1.910   0.305 -0.0943  0.5079  0.1055
20936SOL    HW165250   5.192   1.877   0.393  1.3040 -0.3118  0.1607
20936SOL    HW265251   5.230   2.003   0.317  2.4378 -0.0068  1.1981
20937SOL     OW65252   3.224   7.187   3.523  0.6775 -0.2178 -0.1089
20937SOL    HW165253   3.299   7.207   3.467  0.7152 -2.6743 -1.0402
20937SOL    HW265254   3.263   7.158   3.606  0.6219  3.4387  1.3890
20938SOL     OW65255   6.480   6.149  10.183 -0.2168  0.0375  0.1340
20938SOL    HW165256   6.503   6.109  10.099  0.8578 -0.8486  0.8175
20938SOL    HW265257   6.548   6.214  10.198 -0.3325  0.1023  0.3799
20939SOL     OW65258   8.949   0.049   5.355  0.2839 -0.0129 -0.1352
20939SOL    HW165259   8.990  -0.034   5.380  0.4363 -0.1806 -0.9086
20939SOL    HW265260   9.011   0.116   5.382 -0.2557 -0.0795  1.3510
20940SOL     OW65261   5.142   6.976   2.554 -0.2256  0.0615 -0.0677
20940SOL    HW165262   5.180   6.893   2.526 -0.1117  0.5178 -1.3166
20940SOL    HW265263   5.064   6.951   2.603 -0.9200 -0.7691 -1.5216
20941SOL     OW65264   2.499   2.223   7.183 -0.2458  0.0981 -0.8258
20941SOL    HW165265   2.576   2.271   7.213 -0.5461  1.9455 -2.7248
20941SOL    HW265266   2.533   2.157   7.122 -0.0822  0.3875 -1.0520
20942SOL     OW65267   3.755   7.897   4.678  0.4966  0.3161  0.0876
20942SOL    HW165268   3.758   7.813   4.633  1.3051  1.1981 -1.6437
20942SOL    HW265269   3.666   7.929   4.665 -0.4827 -1.1590  2.6148
20943SOL     OW65270   6.848   2.003   8.613 -0.4373  0.4064 -0.0650
20943SOL    HW165271   6.839   2.095   8.636  1.2424  0.6634 -0.2553
20943SOL    HW265272   6.927   1.975   8.659 -0.0274 -0.4969 -1.2615
20944SOL     OW65273   3.088   9.632   7.004  0.1641 -0.1879 -0.3661
20944SOL    HW165274   3.132   9.547   6.998 -1.6055 -1.1970  0.0142
20944SOL    HW265275   3.055   9.648   6.915  2.3400  1.2284 -0.9959
20945SOL     OW65276   1.316   0.109   7.758 -0.2321 -0.1628 -0.5616
20945SOL    HW165277   1.228   0.129   7.789 -0.0347  1.3119 -0.8726
20945SOL    HW265278   1.373   0.127   7.834 -0.2532 -1.9394 -0.0904
20946SOL     OW65279   7.570   6.164   7.987  0.1563  0.5859 -0.2765
20946SOL    HW165280   7.643   6.201   8.036  0.7556  1.4129 -1.7184
20946SOL    HW265281   7.539   6.235   7.931  0.6912 -0.7398 -2.4030
20947SOL     OW65282   8.800   4.329   5.824  0.0604  0.2816  0.1939
20947SOL    HW165283   8.722   4.278   5.805 -0.1209  0.6643 -0.0880
20947SOL    HW265284   8.786   4.413   5.780  0.2037  0.7090  0.9391
20948SOL     OW65285   3.188   6.875   4.937  0.5335 -0.7294  0.2410
20948SOL    HW165286   3.235   6.821   4.874  2.0783  0.8599 -0.0664
20948SOL    HW265287   3.214   6.965   4.915  2.3684 -0.1405  4.0326
20949SOL     OW65288   7.124   4.369   0.795 -0.0197 -0.0465 -0.1465
20949SOL    HW165289   7.045   4.327   0.827  0.3533 -0.2893  0.4699
20949SOL    HW265290   7.132   4.449   0.847  0.9970 -0.8165  0.9460
20950SOL     OW65291   0.316   3.543   0.298 -0.4924  0.0143 -0.5277
20950SOL    HW165292   0.336   3.571   0.208  0.0950 -2.2662 -1.1736
20950SOL    HW265293   0.401   3.518   0.334 -1.0064 -1.2138 -0.1305
20951SOL     OW65294   3.847   7.152   6.910  0.1531 -0.0930 -0.1490
20951SOL    HW165295   3.910   7.086   6.880 -1.4517 -2.4421  1.3005
20951SOL    HW265296   3.901   7.226   6.936  2.2154 -1.4266 -0.3724
20952SOL     OW65297   5.658   1.702   0.496 -0.7044 -0.3196  0.4859
20952SOL    HW165298   5.600   1.665   0.429 -0.9734 -0.1254  0.6102
20952SOL    HW265299   5.730   1.639   0.502 -0.4323 -0.0986 -0.3327
20953SOL     OW65300   7.970   6.720   4.070 -0.0682 -0.0618  0.8162
20953SOL    HW165301   7.986   6.656   4.002  2.2450 -0.1714  1.3786
20953SOL    HW265302   7.886   6.759   4.047  0.4210 -0.3764 -1.8643
20954SOL     OW65303   3.457   7.671   5.613  0.2286  0.2407  1.0947
20954SOL    HW165304   3.397   7.647   5.683  0.5073  0.3879  1.3887
20954SOL    HW265305   3.402   7.716   5.548  0.1178  0.8695  1.6150
20955SOL     OW65306   1.961   0.427   3.374 -0.0027 -0.5821 -0.0751
20955SOL    HW165307   1.916   0.366   3.431  1.7658 -1.3018  0.6231
20955SOL    HW265308   2.025   0.374   3.327 -0.5522  0.2182 -1.8052
20956SOL     OW65309   3.671  10.186   6.623 -0.6775 -0.7585  0.2246
20956SOL    HW165310   3.739  10.120   6.608  1.6679  0.7178  3.1712
20956SOL    HW265311   3.597  10.137   6.659  0.1778 -2.0472  0.2910
20957SOL     OW65312   6.388   4.335   8.677 -0.0287  0.1211  0.4310
20957SOL    HW165313   6.326   4.331   8.604  0.7077  1.8655 -0.3559
20957SOL    HW265314   6.472   4.358   8.636  0.7111 -0.2728  1.6832
20958SOL     OW65315   8.008  10.368   8.012  0.9127 -0.1196  0.2474
20958SOL    HW165316   8.086  10.421   8.028  1.7555 -1.2533  0.0781
20958SOL    HW265317   8.043  10.282   7.986 -0.3777 -0.1200 -1.7058
20959SOL     OW65318   9.671   1.222   6.633 -0.2693 -0.2771  0.6392
20959SOL    HW165319   9.688   1.134   6.665 -0.3606 -0.4155  0.3182
20959SOL    HW265320   9.615   1.262   6.699 -1.1938 -0.8643  0.2333
20960SOL     OW65321   3.911   5.154   3.366  0.2241  0.0012  0.4329
20960SOL    HW165322   3.837   5.147   3.426 -0.4459  1.2214 -0.2043
20960SOL    HW265323   3.982   5.105   3.408 -0.4324  0.2457  1.8647
20961SOL     OW65324   4.060   7.548   2.408 -0.1128  0.0375  0.0574
20961SOL    HW165325   3.992   7.482   2.397  1.4345 -1.4506 -0.9878
20961SOL    HW265326   4.024   7.626   2.365 -1.4473 -0.4774  0.1769
20962SOL     OW65327   7.203   4.383   7.137 -0.1532 -0.3219  0.4198
20962SOL    HW165328   7.217   4.315   7.071  0.4797 -0.5988  0.8225
20962SOL    HW265329   7.141   4.444   7.097  0.5491 -0.2539 -0.6061
20963SOL     OW65330   9.105   1.102  10.414  0.0166  0.3561  0.0185
20963SOL    HW165331   9.134   1.087  10.504 -1.2426 -0.0530  0.3825
20963SOL    HW265332   9.055   1.184  10.418  0.6049  0.7470 -0.4716
20964SOL     OW65333  10.018   8.055   7.710 -0.4325  0.0736  0.0438
20964SOL    HW165334  10.017   8.103   7.793  3.4442  1.8133 -0.6630
20964SOL    HW265335   9.999   8.122   7.643 -2.9048 -1.1742 -0.5854
20965SOL     OW65336   1.903   0.102   2.545  0.1864 -0.6642  0.1179
20965SOL    HW165337   1.880   0.150   2.625 -3.0176  0.1320 -1.1316
20965SOL    HW265338   1.864   0.016   2.557  0.7407 -0.9462 -0.0973
20966SOL     OW65339   2.667   8.067   5.469  0.5174 -0.3636  0.6230
20966SOL    HW165340   2.621   8.131   5.414  1.4636  0.9069  1.2626
20966SOL    HW265341   2.597   8.017   5.511 -0.2388 -0.1963 -0.3880
20967SOL     OW65342   2.168   1.837   0.791 -0.0646  0.3573 -0.1030
20967SOL    HW165343   2.088   1.856   0.841  1.3941  1.9442  1.8312
20967SOL    HW265344   2.204   1.759   0.833  1.2090  1.7429  1.5845
20968SOL     OW65345   0.940   5.117   3.698 -0.2221 -0.0666 -0.0807
20968SOL    HW165346   0.986   5.044   3.741 -0.0988  0.7394  1.2219
20968SOL    HW265347   0.848   5.098   3.711 -0.2173 -0.5516 -0.7292
20969SOL     OW65348   4.338   5.823   3.355 -0.2947  0.3096  0.4438
20969SOL    HW165349   4.408   5.765   3.327 -2.4448 -1.5606 -1.5546
20969SOL    HW265350   4.350   5.903   3.303 -0.1322 -0.3660 -0.5978
20970SOL     OW65351   3.166   2.091   0.121  0.0760 -0.2158 -0.6066
20970SOL    HW165352   3.143   2.161   0.182 -0.6654 -1.2924  0.3835
20970SOL    HW265353   3.084   2.047   0.103  0.1082  0.6277 -3.1619
20971SOL     OW65354   5.801   3.499   3.068 -0.1945 -0.2040  0.0844
20971SOL    HW165355   5.828   3.411   3.041 -0.8075 -0.5689  0.6001
20971SOL    HW265356   5.882   3.545   3.087  0.1699 -0.4093 -0.9409
20972SOL     OW65357   6.204   5.429   9.302  0.2455 -0.0594 -0.3636
20972SOL    HW165358   6.130   5.424   9.241  1.5040  0.3694 -1.9835
20972SOL    HW265359   6.265   5.490   9.261  1.7481 -0.8122  0.6740
20973SOL     OW65360   8.135   8.324   2.186 -0.0008  0.2389 -0.2785
20973SOL    HW165361   8.222   8.364   2.196 -0.0771  0.2116  0.4942
20973SOL    HW265362   8.081   8.364   2.253 -0.5093  0.0147 -0.5426
20974SOL     OW65363   8.658   7.612   9.673  0.2680  0.6079  0.1499
20974SOL    HW165364   8.589   7.549   9.694 -0.3137  0.9398 -0.7404
20974SOL    HW265365   8.701   7.629   9.757  1.0943 -1.7235  0.2669
20975SOL     OW65366   4.186   0.217   7.975 -0.0118  0.4494  0.0200
20975SOL    HW165367   4.230   0.263   7.903 -0.2839  0.8265  0.0897
20975SOL    HW265368   4.192   0.278   8.049  1.6897 -0.5733  0.8045
20976SOL     OW65369   3.657   5.181   1.448 -0.2951  0.1587  0.0905
20976SOL    HW165370   3.698   5.141   1.371 -0.9607 -1.1655  0.3862
20976SOL    HW265371   3.730   5.215   1.499  0.3541 -1.0586  0.0076
20977SOL     OW65372   1.585   1.652   6.345  0.0136  0.7886  0.3142
20977SOL    HW165373   1.512   1.714   6.354  1.3019  2.4167 -0.0915
20977SOL    HW265374   1.590   1.609   6.431 -1.4629  0.5452  0.3154
20978SOL     OW65375   0.740  10.225   8.360 -0.3622 -0.0190  0.4370
20978SOL    HW165376   0.770  10.161   8.425 -0.3301 -0.3560  0.0889
20978SOL    HW265377   0.806  10.222   8.291  1.5332  2.8065  1.9200
20979SOL     OW65378   2.279   2.748   3.787  0.5323  0.1910 -0.2223
20979SOL    HW165379   2.269   2.656   3.765  0.4114  0.2529 -0.4276
20979SOL    HW265380   2.369   2.769   3.762  0.6533  0.0528  0.1012
20980SOL     OW65381   5.039   7.853   8.273 -0.7475  0.3890  0.2556
20980SOL    HW165382   4.954   7.809   8.281 -0.4534 -0.1440  0.4383
20980SOL    HW265383   5.082   7.809   8.200 -0.0102 -0.3681  1.1311
20981SOL     OW65384   4.597   9.669   1.996  1.0037 -0.4269  0.4816
20981SOL    HW165385   4.610   9.578   1.968 -1.6869 -0.4121 -1.1856
20981SOL    HW265386   4.684   9.708   1.990  2.0558 -2.6375  0.3207
20982SOL     OW65387   4.304   7.396   1.664 -0.0368 -1.1342  0.2048
20982SOL    HW165388   4.348   7.401   1.749  0.0457  1.3556  0.1055
20982SOL    HW265389   4.250   7.475   1.660 -0.8268 -1.6977 -1.6576
20983SOL     OW65390   4.252   7.069   1.998  0.0737  0.0712 -0.2416
20983SOL    HW165391   4.339   7.057   1.958  1.6022 -3.2343  3.4705
20983SOL    HW265392   4.270   7.107   2.084 -2.7404  3.6261 -0.9895
20984SOL     OW65393   1.795   5.765   5.242  0.1316  0.1667 -0.1021
20984SOL    HW165394   1.800   5.860   5.254  1.4076  0.2575 -1.1438
20984SOL    HW265395   1.702   5.747   5.229  0.0027  1.4452 -1.1170
20985SOL     OW65396   4.749   4.145   0.101  0.2752 -0.0121  0.2464
20985SOL    HW165397   4.748   4.118   0.193 -2.5310  1.7843  0.8537
20985SOL    HW265398   4.715   4.069   0.054  3.3496 -1.6159  0.3133
20986SOL     OW65399   0.107   4.265   8.653 -0.2950  0.4696  0.0714
20986SOL    HW165400   0.112   4.358   8.635  0.4011  0.4772  0.2812
20986SOL    HW265401   0.153   4.223   8.580  0.5114  0.3691  0.6306
20987SOL     OW65402   9.138   1.744   5.417  0.4707  0.3275 -0.1272
20987SOL    HW165403   9.124   1.659   5.375 -2.1174  0.8563 -0.5100
20987SOL    HW265404   9.105   1.733   5.506  0.8346  0.7348  0.0616
20988SOL     OW65405   4.557   0.795   9.460  0.7339 -0.5550 -0.0108
20988SOL    HW165406   4.596   0.870   9.415  0.6275 -0.4557  0.0616
20988SOL    HW265407   4.517   0.743   9.390  0.8192 -0.5500 -0.0625
20989SOL     OW65408   6.515   9.005   8.479  0.2473 -0.1276  0.0631
20989SOL    HW165409   6.454   9.073   8.504  0.2828 -0.0270 -0.1166
20989SOL    HW265410   6.461   8.928   8.463  0.4265 -0.8835  2.7282
20990SOL     OW65411   6.643   4.275   7.525  0.1677 -0.4039 -0.5123
20990SOL    HW165412   6.547   4.268   7.525  0.2007 -1.0378  0.5522
20990SOL    HW265413   6.672   4.205   7.467 -0.0128 -0.1905 -0.8621
20991SOL     OW65414   5.115   6.505   8.192  0.4870  0.4359  0.5488
20991SOL    HW165415   5.165   6.527   8.270 -0.1684 -0.1349  1.1446
20991SOL    HW265416   5.177   6.457   8.137  0.6008 -0.2493  1.2650
20992SOL     OW65417   0.462   6.315   7.127 -0.1934 -0.1475  0.2072
20992SOL    HW165418   0.541   6.344   7.082 -0.9683  3.1951  0.7236
20992SOL    HW265419   0.393   6.373   7.095 -2.1618 -1.9823  0.8796
20993SOL     OW65420   3.416   1.860   6.534 -0.5393  0.1637 -0.3568
20993SOL    HW165421   3.490   1.804   6.510 -0.3964 -0.1831  0.8289
20993SOL    HW265422   3.445   1.904   6.614 -2.0469 -0.9227  0.8429
20994SOL     OW65423   5.533   0.452   4.703 -0.3107  0.3362  0.6825
20994SOL    HW165424   5.571   0.366   4.723 -0.0258  0.4155  0.4849
20994SOL    HW265425   5.555   0.467   4.611  0.5051  1.0600  0.9766
20995SOL     OW65426   9.758   6.139  10.062  0.4199  0.4065  0.4075
20995SOL    HW165427   9.721   6.050  10.064  1.5447 -0.0717  1.8729
20995SOL    HW265428   9.852   6.125  10.047  0.5047  1.4112 -0.0729
20996SOL     OW65429   5.006   5.438   9.273 -0.5612 -0.2501 -0.3599
20996SOL    HW165430   4.929   5.495   9.280  0.5752  1.2134  1.2312
20996SOL    HW265431   5.078   5.498   9.255  0.8232 -0.9797  2.1696
20997SOL     OW65432   3.078   4.671   5.233 -0.0827  0.3250 -0.0899
20997SOL    HW165433   3.050   4.760   5.252 -1.2441 -0.1237  0.3768
20997SOL    HW265434   3.168   4.667   5.267  1.4657  2.3930 -3.4564
20998SOL     OW65435   6.117   6.212   9.126  0.8299  0.0889  0.5488
20998SOL    HW165436   6.090   6.142   9.185 -1.7649  0.9943  0.5743
20998SOL    HW265437   6.172   6.169   9.061  1.4602 -1.4401  2.0293
20999SOL     OW65438   2.951   8.922   1.230 -0.0050 -0.2738  0.3719
20999SOL    HW165439   3.042   8.905   1.204 -0.5749 -1.5026 -0.9851
20999SOL    HW265440   2.912   8.835   1.238 -0.8988  0.2184  1.6560
21000SOL     OW65441   3.423   9.804   4.467  0.0778 -0.4255  0.1487
21000SOL    HW165442   3.489   9.837   4.528  0.3165 -1.1425  0.2887
21000SOL    HW265443   3.379   9.882   4.434 -0.0008 -0.0135  1.1897
21001SOL     OW65444   1.975   2.295   5.921  0.4708 -0.0819  0.4449
21001SOL    HW165445   1.905   2.237   5.949 -0.3262  0.6859  0.0880
21001SOL    HW265446   2.028   2.310   6.000  0.2895 -0.7432  0.6920
21002SOL     OW65447   9.008   7.085   8.316  0.0229 -0.1739  0.7559
21002SOL    HW165448   8.966   7.039   8.244 -0.6942  1.5398  0.0136
21002SOL    HW265449   9.100   7.060   8.311  0.6779  2.1929 -2.7820
21003SOL     OW65450   3.502   5.622   8.855  0.1545  0.1989  0.3418
21003SOL    HW165451   3.505   5.551   8.792  0.9791  0.1378  0.4394
21003SOL    HW265452   3.574   5.680   8.830 -0.6152  1.1015  0.1518
21004SOL     OW65453   2.786   9.535  10.184  0.2242 -0.5203 -0.1846
21004SOL    HW165454   2.797   9.457  10.129 -1.7098 -0.5366 -0.6369
21004SOL    HW265455   2.759   9.603  10.123  1.1617  0.3284  0.3272
21005SOL     OW65456   8.660   6.662   4.215 -0.1980 -0.0379 -0.3016
21005SOL    HW165457   8.749   6.650   4.183 -0.4487 -0.2365 -0.9255
21005SOL    HW265458   8.637   6.750   4.186 -1.1223 -0.9069 -2.3987
21006SOL     OW65459   4.501   3.741   6.724  0.2361 -0.0721 -0.0194
21006SOL    HW165460   4.578   3.796   6.710 -0.1688  0.2021 -1.3516
21006SOL    HW265461   4.530   3.674   6.785  0.8471  1.3900  1.3563
21007SOL     OW65462   4.195   0.452   3.223 -0.0852 -0.6183 -0.1927
21007SOL    HW165463   4.266   0.470   3.284 -0.9090  0.1835  0.5642
21007SOL    HW265464   4.161   0.367   3.250  0.6393 -1.0625 -0.6320
21008SOL     OW65465   2.930   4.162   6.184 -0.3313  0.0606  0.2285
21008SOL    HW165466   3.018   4.148   6.150 -0.6151  0.5064 -0.7146
21008SOL    HW265467   2.900   4.074   6.209  0.5658 -0.0288  1.0618
21009SOL     OW65468   8.311   7.803   4.653  0.5694 -0.5864 -0.7168
21009SOL    HW165469   8.357   7.719   4.662  0.1490 -0.6581  1.1328
21009SOL    HW265470   8.255   7.791   4.576  0.5937 -1.9591 -0.5558
21010SOL     OW65471   3.126   5.243   3.528  0.4095  0.5046 -0.4396
21010SOL    HW165472   3.182   5.301   3.580  0.6116  1.3068 -1.5229
21010SOL    HW265473   3.113   5.166   3.583  3.5998 -0.2686 -0.6167
21011SOL     OW65474   7.479   3.790   4.326 -0.1631  0.3242 -0.4587
21011SOL    HW165475   7.385   3.797   4.310 -0.0761  0.6158 -0.8459
21011SOL    HW265476   7.519   3.793   4.240  0.2300  0.6637 -0.2684
21012SOL     OW65477   3.766   4.965   4.471  0.7143  0.2510  0.0486
21012SOL    HW165478   3.799   4.932   4.555 -1.4203  0.4883  1.0692
21012SOL    HW265479   3.767   5.061   4.481  3.9922  0.5587 -1.7297
21013SOL     OW65480   4.168   8.518   5.855  0.6512  0.2560  0.0254
21013SOL    HW165481   4.077   8.490   5.864  0.3836  1.1836  0.3373
21013SOL    HW265482   4.163   8.614   5.848  1.7211  0.4843  1.8750
21014SOL     OW65483   2.946   1.424   6.100  0.0420 -0.3922  0.1305
21014SOL    HW165484   2.872   1.388   6.052 -0.2457 -0.7791  0.8444
21014SOL    HW265485   2.951   1.516   6.072 -1.3910 -0.0585  0.8546
21015SOL     OW65486   7.436   0.350   3.812 -0.0686  0.0083 -0.3680
21015SOL    HW165487   7.363   0.406   3.787  0.6643  0.0426 -2.6609
21015SOL    HW265488   7.410   0.262   3.782  0.1735 -0.2741  0.2301
21016SOL     OW65489   5.644   4.713   4.684  0.3011 -0.0074 -0.1485
21016SOL    HW165490   5.726   4.749   4.651  0.1257 -0.2366 -0.8600
21016SOL    HW265491   5.647   4.727   4.779  0.6888  0.9564 -0.2901
21017SOL     OW65492   7.551   4.716   2.650  0.3617  0.3490  0.5057
21017SOL    HW165493   7.646   4.705   2.652  0.3225  0.0150  2.4614
21017SOL    HW265494   7.527   4.701   2.558  2.1867  0.5135 -0.0356
21018SOL     OW65495   5.567   5.522   0.770 -0.0149  0.3531 -0.2111
21018SOL    HW165496   5.606   5.558   0.850  0.0376 -0.1297 -0.0202
21018SOL    HW265497   5.490   5.473   0.801  1.4584 -2.0694 -0.1484
21019SOL     OW65498  10.369   3.994   5.223 -0.0611 -0.3535  0.5017
21019SOL    HW165499  10.328   3.907   5.219  0.2015 -0.4948  0.7852
21019SOL    HW265500  10.305   4.053   5.184 -0.2469 -0.6752  0.3141
21020SOL     OW65501   0.564   5.431   5.492  0.0387  0.4218  0.6233
21020SOL    HW165502   0.596   5.344   5.516 -1.2474 -0.9921 -2.3554
21020SOL    HW265503   0.474   5.433   5.523 -0.1765  0.3987 -0.0047
21021SOL     OW65504   6.491   4.294   0.935 -0.8403 -0.0410  0.2268
21021SOL    HW165505   6.517   4.365   0.877 -0.1772  0.3022  0.9232
21021SOL    HW265506   6.491   4.216   0.880  0.3009  0.1855 -0.1093
21022SOL     OW65507   7.230   8.015   6.076 -0.4332  0.2022  0.3449
21022SOL    HW165508   7.140   8.047   6.076  0.1882  2.0781 -0.3016
21022SOL    HW265509   7.255   8.014   6.169 -0.5544  1.4311  0.4029
21023SOL     OW65510   7.732   0.562   7.787  0.6030 -0.6247 -0.1672
21023SOL    HW165511   7.775   0.476   7.783  1.6180 -0.0891 -1.2870
21023SOL    HW265512   7.646   0.548   7.746  0.3777 -1.3033  0.5076
21024SOL     OW65513   7.168   5.234   6.197  0.1805 -0.1033 -0.1941
21024SOL    HW165514   7.189   5.260   6.107 -0.0480  0.1507 -0.1771
21024SOL    HW265515   7.236   5.275   6.250  0.0361  0.1586 -0.2058
21025SOL     OW65516   8.133   2.457   8.986 -0.4034 -0.1563  0.1178
21025SOL    HW165517   8.074   2.382   8.975  0.4146 -0.9518  0.8911
21025SOL    HW265518   8.088   2.515   9.047 -0.7528 -0.3514  0.0485
21026SOL     OW65519   9.398   4.811   6.890 -0.1520 -0.0466 -0.1864
21026SOL    HW165520   9.449   4.784   6.967  3.8901  1.1303 -2.1748
21026SOL    HW265521   9.398   4.906   6.893  0.3677  0.0255 -1.7689
21027SOL     OW65522   7.006   2.353   2.215  0.2166  0.4659  0.2137
21027SOL    HW165523   6.997   2.420   2.147  0.4013  0.2918  0.0148
21027SOL    HW265524   7.062   2.286   2.175  0.0546  0.2056  0.4195
21028SOL     OW65525   0.108   2.120   5.137 -0.0118  0.6063 -1.0129
21028SOL    HW165526   0.100   2.106   5.042 -0.9407  0.1783 -0.8849
21028SOL    HW265527   0.062   2.203   5.152  0.2503  0.7405 -0.9556
21029SOL     OW65528   8.879   5.226   4.712  0.0623  0.1158 -0.4814
21029SOL    HW165529   8.908   5.314   4.738 -1.6106  0.0816  1.7853
21029SOL    HW265530   8.957   5.171   4.721  0.2910  0.7170  1.7193
21030SOL     OW65531   9.871   4.299   3.022 -0.4725 -0.1916  0.0865
21030SOL    HW165532   9.926   4.375   3.042  1.0186 -1.5363  1.2825
21030SOL    HW265533   9.797   4.307   3.083 -1.0021  0.9222 -0.6502
21031SOL     OW65534   7.076   9.941   5.534  0.9929 -0.6351  0.6214
21031SOL    HW165535   7.117  10.012   5.486 -0.2750  1.8250  2.9001
21031SOL    HW265536   7.044   9.881   5.467  0.9663  1.6167 -1.4963
21032SOL     OW65537   1.181   6.876   3.687  0.1283  0.2906 -0.5227
21032SOL    HW165538   1.269   6.846   3.667 -0.5966 -1.7106 -0.9325
21032SOL    HW265539   1.171   6.862   3.781  0.3330  0.8150 -0.4178
21033SOL     OW65540   3.345   4.146   6.928  0.3537 -0.5691  0.0572
21033SOL    HW165541   3.421   4.196   6.897  1.6930 -2.5584 -0.0687
21033SOL    HW265542   3.375   4.055   6.928 -2.3562 -1.5473 -0.8929
21034SOL     OW65543   9.073   7.831   9.870 -0.4443 -0.3793 -0.6745
21034SOL    HW165544   9.086   7.783   9.953  3.3928  0.7631 -0.4287
21034SOL    HW265545   9.118   7.778   9.805  1.4987  1.3643 -0.8815
21035SOL     OW65546   0.246   4.569   6.132 -0.5293 -0.9922 -0.6228
21035SOL    HW165547   0.186   4.624   6.182  0.6514 -0.4301  0.2363
21035SOL    HW265548   0.275   4.625   6.060  0.3586 -0.5943  0.0200
21036SOL     OW65549   6.683   9.748   5.876 -0.0332  0.7859  0.3281
21036SOL    HW165550   6.674   9.794   5.959  0.4332 -1.6545  1.8213
21036SOL    HW265551   6.773   9.767   5.847 -0.2894  1.8656  0.2068
21037SOL     OW65552   1.726   2.963   2.790 -0.1844  0.1617  0.3540
21037SOL    HW165553   1.661   2.893   2.783  0.1886 -0.0781 -1.0660
21037SOL    HW265554   1.699   3.026   2.724  0.4773  0.5307  0.4294
21038SOL     OW65555   0.791   7.025   8.009 -0.5022 -0.5949  0.4253
21038SOL    HW165556   0.815   7.081   8.082  2.2112 -0.5177 -0.3894
21038SOL    HW265557   0.750   7.084   7.946  2.5040  0.7348 -0.5124
21039SOL     OW65558   8.302   4.143   5.190 -0.4226  0.0155 -0.4429
21039SOL    HW165559   8.375   4.153   5.129 -0.9859 -0.5688 -1.2297
21039SOL    HW265560   8.224   4.145   5.134 -0.9499 -0.4641  0.2624
21040SOL     OW65561   7.010   5.265   6.559  0.8144 -0.3169  0.1759
21040SOL    HW165562   6.976   5.287   6.472 -0.4965 -1.5898  0.3415
21040SOL    HW265563   7.019   5.169   6.558  0.9169 -0.3391  1.4026
21041SOL     OW65564   1.243   2.716   2.595 -0.2154  0.1476 -0.0847
21041SOL    HW165565   1.252   2.728   2.500 -0.7076  2.2446  0.0886
21041SOL    HW265566   1.177   2.781   2.621 -0.3572 -0.6427  1.6520
21042SOL     OW65567   8.019   1.551   8.189 -0.0870  0.2360 -0.1541
21042SOL    HW165568   8.102   1.573   8.232  0.2062  0.5235 -0.8453
21042SOL    HW265569   8.022   1.456   8.179 -0.4592  0.0817  1.0418
21043SOL     OW65570   8.718   8.955   3.041 -0.1148  0.5000  0.0219
21043SOL    HW165571   8.796   8.992   2.999  0.4703  0.3036  0.9133
21043SOL    HW265572   8.681   9.028   3.090 -1.2415  0.9396 -1.4214
21044SOL     OW65573   2.331   0.535   5.137 -0.8147  0.1190  0.2514
21044SOL    HW165574   2.401   0.560   5.077 -0.8482  1.6011  0.7943
21044SOL    HW265575   2.374   0.526   5.222 -1.0509 -0.3261  0.3260
21045SOL     OW65576   5.024   7.374   1.298  0.3974  0.1522  0.5009
21045SOL    HW165577   5.050   7.281   1.296  0.6242  0.2064  0.8105
21045SOL    HW265578   5.100   7.420   1.263 -0.4748  0.0781 -1.6639
21046SOL     OW65579   8.935   7.716   6.187  0.0705 -0.0201 -0.0234
21046SOL    HW165580   8.845   7.737   6.213  0.0770  0.4392 -0.3640
21046SOL    HW265581   8.946   7.625   6.213  0.1629  0.4903  1.8246
21047SOL     OW65582   4.976   3.925   1.768  0.5666 -0.0760  0.1406
21047SOL    HW165583   5.023   3.841   1.765 -1.7209 -1.4869  1.5614
21047SOL    HW265584   4.904   3.910   1.828 -1.2730  2.2291 -1.3512
21048SOL     OW65585   2.058   3.795   9.897  0.0087 -0.2071 -0.3886
21048SOL    HW165586   2.074   3.707   9.863  1.8298 -0.0168 -0.1136
21048SOL    HW265587   2.066   3.853   9.821 -1.0529 -0.2402 -0.5440
21049SOL     OW65588   1.149   4.652   1.186 -0.2178 -0.2696  0.2762
21049SOL    HW165589   1.067   4.620   1.223 -0.3575  0.8476  0.9908
21049SOL    HW265590   1.123   4.704   1.110 -0.1859  0.0413  0.4715
21050SOL     OW65591   2.589   7.737   2.354 -0.1416 -0.5137 -0.0471
21050SOL    HW165592   2.651   7.792   2.306 -0.1161  0.2100  0.7930
21050SOL    HW265593   2.523   7.713   2.289 -0.2625  0.6766 -0.3931
21051SOL     OW65594   3.916   1.377   7.377  0.3730 -0.3639  0.0785
21051SOL    HW165595   3.967   1.444   7.421 -0.4855  0.3744 -0.0314
21051SOL    HW265596   3.957   1.368   7.291  0.1580  0.4020 -0.1040
21052SOL     OW65597   5.316   7.134   1.823 -0.2986  0.3668 -0.1344
21052SOL    HW165598   5.254   7.139   1.895 -0.5824  0.9457 -0.4105
21052SOL    HW265599   5.400   7.114   1.864 -0.6194 -0.1656  0.2660
21053SOL     OW65600   5.735   0.391   9.148  0.1269 -0.2583  0.6154
21053SOL    HW165601   5.709   0.454   9.081 -1.0439  0.2819  1.5339
21053SOL    HW265602   5.688   0.419   9.227  1.4681 -0.8780  1.6700
21054SOL     OW65603   5.468   9.115   8.722 -0.5842  0.9175 -0.5514
21054SOL    HW165604   5.488   9.178   8.791 -0.7010 -0.2418  0.5900
21054SOL    HW265605   5.404   9.055   8.762  0.7949 -0.9336 -0.9829
21055SOL     OW65606   2.231   0.672   5.883 -0.4018  0.0441  0.3860
21055SOL    HW165607   2.204   0.600   5.940  1.4248 -1.1829 -0.2103
21055SOL    HW265608   2.326   0.665   5.879 -0.2900  1.6502 -0.8222
21056SOL     OW65609   0.545   7.391   8.044 -0.3492 -0.1944  0.8415
21056SOL    HW165610   0.627   7.346   8.064  0.6009  0.2303 -1.7655
21056SOL    HW265611   0.571   7.472   8.000 -2.1413 -0.1733 -0.3068
21057SOL     OW65612   9.371   9.575   8.428 -0.1349  0.1884  0.0295
21057SOL    HW165613   9.402   9.663   8.408 -0.5096  0.1458 -0.7689
21057SOL    HW265614   9.303   9.558   8.364 -0.6876 -0.3480  0.7369
21058SOL     OW65615   0.274   4.654   1.848 -0.0482  0.0604 -0.4641
21058SOL    HW165616   0.210   4.702   1.796 -0.9610 -0.2875  0.3117
21058SOL    HW265617   0.222   4.610   1.916  0.7700 -1.9005 -1.0511
21059SOL     OW65618   8.238   6.285   4.272  0.1956 -0.5128  0.0907
21059SOL    HW165619   8.317   6.329   4.302 -0.6546 -0.5340  2.5125
21059SOL    HW265620   8.166   6.344   4.295 -0.5641 -0.6409 -1.7800
21060SOL     OW65621   7.640   0.589   8.866 -0.4039 -0.2348  0.3169
21060SOL    HW165622   7.674   0.669   8.825  0.2299 -1.2181 -1.1743
21060SOL    HW265623   7.546   0.603   8.871 -0.6780 -0.4748 -2.5576
21061SOL     OW65624   8.425   6.726   5.161  0.7140 -0.5722  0.3228
21061SOL    HW165625   8.492   6.696   5.100  0.8271 -1.3655  0.8270
21061SOL    HW265626   8.345   6.730   5.108  0.8175 -1.2268  0.1147
21062SOL     OW65627   1.338   4.114   9.674 -0.0164 -0.3110 -0.1845
21062SOL    HW165628   1.307   4.204   9.680 -0.2527 -0.3593 -0.6005
21062SOL    HW265629   1.313   4.087   9.586 -2.8828 -1.8765  0.9860
21063SOL     OW65630   7.938   6.747  10.302  0.0463  0.3992  0.3469
21063SOL    HW165631   7.969   6.684  10.237 -0.4213  0.4503  0.0709
21063SOL    HW265632   8.004   6.816  10.302 -0.2491  0.6964 -0.5112
21064SOL     OW65633   3.658   9.967   3.687  0.0636 -0.1507  0.4346
21064SOL    HW165634   3.623   9.892   3.640 -0.0113  0.6369 -0.8169
21064SOL    HW265635   3.716  10.010   3.624  0.1276  0.8176  1.1229
21065SOL     OW65636   1.248   9.047   1.331 -0.4808 -0.3671  0.5250
21065SOL    HW165637   1.225   8.968   1.381 -0.8846 -0.8367 -0.3718
21065SOL    HW265638   1.343   9.044   1.324 -0.6112 -1.8471 -1.1647
21066SOL     OW65639   1.743   7.814   0.064 -0.2708 -0.3150 -0.3549
21066SOL    HW165640   1.698   7.854   0.138 -0.3283  1.2588 -1.1813
21066SOL    HW265641   1.761   7.725   0.092 -0.4180  0.1875  1.4851
21067SOL     OW65642   3.290   3.048   1.687  0.0474  0.0252  0.0543
21067SOL    HW165643   3.238   2.982   1.733  2.5971 -1.0292  1.7113
21067SOL    HW265644   3.295   3.122   1.747 -0.4859  0.5942 -0.5924
21068SOL     OW65645   0.377   7.406   8.262 -0.6452 -0.2461 -0.0792
21068SOL    HW165646   0.385   7.501   8.263 -2.5681  0.0084 -1.4020
21068SOL    HW265647   0.396   7.381   8.172 -1.9763 -0.8596 -0.2216
21069SOL     OW65648   0.496   9.849   9.885  0.5332  0.6711  0.4176
21069SOL    HW165649   0.401   9.856   9.884  0.3986 -0.8030 -1.9828
21069SOL    HW265650   0.519   9.860   9.978 -1.9324  1.0856  1.0554
21070SOL     OW65651   9.381   2.840   7.616  0.1721 -0.0940  0.0516
21070SOL    HW165652   9.321   2.878   7.680 -2.1415 -0.0031 -2.0334
21070SOL    HW265653   9.372   2.745   7.628 -0.9756 -0.0992 -0.6923
21071SOL     OW65654   8.933   2.691   9.745  0.5466  0.4911 -0.7526
21071SOL    HW165655   8.919   2.783   9.721  1.3959  0.7140 -0.4360
21071SOL    HW265656   9.004   2.694   9.810  0.2988 -0.3552 -0.4330
21072SOL     OW65657   7.674   0.301   7.547 -0.2561 -0.7143  0.0318
21072SOL    HW165658   7.730   0.261   7.612 -0.1291 -0.7830 -0.1197
21072SOL    HW265659   7.588   0.306   7.589 -0.5971 -2.3666 -0.4173
21073SOL     OW65660   9.601   1.854   6.240  0.3819  0.0412 -0.0020
21073SOL    HW165661   9.695   1.845   6.259  0.6222 -0.5842 -1.3735
21073SOL    HW265662   9.591   1.822   6.151 -0.9307  1.4300 -0.3952
21074SOL     OW65663   4.829   6.262   5.832  0.3424  0.7374 -0.9171
21074SOL    HW165664   4.893   6.197   5.802  0.5842  0.7067 -0.3465
21074SOL    HW265665   4.798   6.304   5.751 -0.2492 -0.4686 -1.3392
21075SOL     OW65666  10.059   8.705   5.568 -0.4239  0.3456 -0.8215
21075SOL    HW165667  10.124   8.639   5.590  0.4261  1.3597 -0.1879
21075SOL    HW265668  10.019   8.729   5.652 -1.0129  0.3559 -1.0966
21076SOL     OW65669   3.478   3.536   2.282  0.5905  0.3313  0.2213
21076SOL    HW165670   3.538   3.599   2.243 -0.4926  0.9482 -0.4885
21076SOL    HW265671   3.496   3.540   2.376 -0.5008  2.8586  0.3877
21077SOL     OW65672   4.873   1.429   4.012  0.0996 -0.3838  0.5464
21077SOL    HW165673   4.966   1.411   4.006  0.0160 -0.5785 -0.3413
21077SOL    HW265674   4.839   1.364   4.073  0.6111 -0.0050  1.2477
21078SOL     OW65675   4.410   9.930  10.053  0.6651  0.5201 -0.9071
21078SOL    HW165676   4.454   9.943   9.969  1.6841  3.1427 -0.0672
21078SOL    HW265677   4.465   9.975  10.117 -0.3850 -0.8868  1.1129
21079SOL     OW65678   0.568   5.262   7.244  0.4403 -0.0178 -0.4484
21079SOL    HW165679   0.562   5.321   7.320  2.3236  0.7022 -0.8081
21079SOL    HW265680   0.531   5.313   7.172 -1.1550 -0.6244 -0.1021
21080SOL     OW65681   5.139  10.300   2.393  0.1188 -0.2309  0.1455
21080SOL    HW165682   5.192  10.317   2.314  0.1522 -1.8582 -0.2134
21080SOL    HW265683   5.058  10.262   2.360  0.3435 -1.4144  0.9191
21081SOL     OW65684   6.904   8.629   0.281 -0.0046 -0.1718 -0.5624
21081SOL    HW165685   6.919   8.703   0.223  0.7235  0.5368  0.5071
21081SOL    HW265686   6.967   8.563   0.252  0.6858  0.3569 -0.2917
21082SOL     OW65687   0.821   0.427   8.434 -0.0980 -0.9249 -0.3515
21082SOL    HW165688   0.796   0.458   8.521 -1.3683 -0.6885 -0.7757
21082SOL    HW265689   0.815   0.331   8.440  1.0307 -0.9867  0.1458
21083SOL     OW65690   7.375   2.960   7.270  0.2566 -0.4651  0.4455
21083SOL    HW165691   7.395   2.993   7.182  1.0960  1.1700  1.2095
21083SOL    HW265692   7.458   2.926   7.303  0.3215  0.3855  1.1899
21084SOL     OW65693   1.004   7.588   2.452  0.0161  0.8653 -0.9310
21084SOL    HW165694   1.018   7.579   2.546 -0.5410 -2.4435 -1.0346
21084SOL    HW265695   0.976   7.678   2.440  1.6406  1.8608  1.8280
21085SOL     OW65696   0.566   6.307   5.680  0.5792  0.3786 -0.0140
21085SOL    HW165697   0.653   6.344   5.666  0.5484  0.2666 -0.5261
21085SOL    HW265698   0.506   6.371   5.640  0.2755  1.3308  1.8453
21086SOL     OW65699   6.842   7.945   1.022 -0.5035 -0.1072  0.3947
21086SOL    HW165700   6.918   7.939   0.964 -2.0275  0.8610 -1.8896
21086SOL    HW265701   6.774   7.894   0.977 -1.6501  0.3391  1.5562
21087SOL     OW65702   5.029   5.069   1.449  0.0919  0.1509  0.2620
21087SOL    HW165703   4.966   5.131   1.484  0.1574  0.7250 -0.6111
21087SOL    HW265704   4.995   5.046   1.363  0.0141 -1.1205  0.6112
21088SOL     OW65705   4.970   4.618   5.718 -0.1984 -0.3847  0.5648
21088SOL    HW165706   4.979   4.663   5.802  0.5889 -0.6561  0.6393
21088SOL    HW265707   4.954   4.527   5.741 -0.7185 -0.3313  0.4175
21089SOL     OW65708   9.054   0.818   9.378 -0.0461  0.5384  0.4669
21089SOL    HW165709   8.962   0.793   9.382 -0.2042  1.2611  2.0225
21089SOL    HW265710   9.054   0.913   9.390  0.8647  0.6534 -0.2698
21090SOL     OW65711   8.117   8.066   3.722 -0.5073 -0.3822 -0.6724
21090SOL    HW165712   8.137   8.077   3.629  1.3172  1.8520 -0.1199
21090SOL    HW265713   8.193   8.019   3.758  0.1770  1.2354  0.1105
21091SOL     OW65714   8.634   5.537   2.811  0.2630  0.4078  0.8387
21091SOL    HW165715   8.685   5.461   2.838  1.2435  1.4764  2.0765
21091SOL    HW265716   8.668   5.560   2.725 -0.3598 -0.8184  0.2503
21092SOL     OW65717   9.896   3.125   3.815  0.4666  0.0270 -0.0459
21092SOL    HW165718   9.948   3.055   3.777  0.5937 -0.0789  0.3150
21092SOL    HW265719   9.955   3.168   3.877  0.2308  0.1246  0.1142
21093SOL     OW65720   7.001   3.353  10.120  0.0929  0.1643 -0.0185
21093SOL    HW165721   6.908   3.334  10.130  0.2480 -0.0421  1.3353
21093SOL    HW265722   7.016   3.356  10.026 -1.4337  0.9781 -0.2604
21094SOL     OW65723   0.220   6.883   8.842  0.6984  0.0666 -0.1288
21094SOL    HW165724   0.160   6.950   8.809 -0.5329 -0.4493  0.9653
21094SOL    HW265725   0.187   6.801   8.804  3.0092  0.1431 -2.5929
21095SOL     OW65726   9.369   9.321   1.496  0.2699 -0.1638 -0.0080
21095SOL    HW165727   9.428   9.258   1.456 -0.6438 -0.3335 -1.1475
21095SOL    HW265728   9.282   9.298   1.462 -0.4698  0.0792  1.6053
21096SOL     OW65729   4.612   3.847   1.616  0.3069  0.1262 -0.3520
21096SOL    HW165730   4.703   3.862   1.589 -0.4133 -0.1408 -3.1320
21096SOL    HW265731   4.591   3.759   1.584 -1.2360  0.5583 -0.5820
21097SOL     OW65732   1.222   1.857   8.053 -0.0198 -0.3278 -0.2159
21097SOL    HW165733   1.221   1.926   8.120 -0.1716 -0.5711  0.0378
21097SOL    HW265734   1.177   1.783   8.095  1.2804 -1.0254 -0.0118
21098SOL     OW65735   1.627   6.144   7.645 -0.3300 -0.2061 -0.0361
21098SOL    HW165736   1.553   6.089   7.620 -0.4373 -0.5779  1.0805
21098SOL    HW265737   1.704   6.093   7.622 -0.4290 -0.6847  0.6799
21099SOL     OW65738   1.402   2.323   6.119  0.1813  0.0518  0.5180
21099SOL    HW165739   1.332   2.274   6.075  0.1343  0.2205  0.4010
21099SOL    HW265740   1.481   2.271   6.104  0.2189  0.2555 -0.0219
21100SOL     OW65741   3.242   7.120   6.287  0.2557 -0.0317 -0.0785
21100SOL    HW165742   3.206   7.054   6.347  0.1664  0.1004  0.0139
21100SOL    HW265743   3.171   7.138   6.225 -0.4354  1.4143  1.0622
21101SOL     OW65744   6.690   3.654   3.973  0.0802  0.2347  0.0360
21101SOL    HW165745   6.714   3.736   3.930  1.0330 -1.0505 -2.0355
21101SOL    HW265746   6.726   3.586   3.916  0.1088 -1.6265  2.1571
21102SOL     OW65747   6.448   1.021   9.182 -0.1497  0.6390  0.2904
21102SOL    HW165748   6.373   0.962   9.175  0.6334 -0.2247 -1.5168
21102SOL    HW265749   6.459   1.035   9.276 -1.0068 -1.2569  0.7148
21103SOL     OW65750   1.916   3.713   9.010 -0.5608 -0.4110 -0.4981
21103SOL    HW165751   1.838   3.671   9.045 -0.6993 -0.0207 -0.3297
21103SOL    HW265752   1.935   3.784   9.071  1.7780 -2.3607  1.2618
21104SOL     OW65753   4.641   8.585   5.328  0.0047 -0.0381 -0.2846
21104SOL    HW165754   4.694   8.663   5.314  0.7143 -0.4503  0.0706
21104SOL    HW265755   4.575   8.613   5.392 -0.3798  0.5449 -0.9192
21105SOL     OW65756   7.859   6.272   9.359 -0.1953  0.0467  0.2214
21105SOL    HW165757   7.913   6.347   9.386  0.9120  0.5789 -3.0171
21105SOL    HW265758   7.922   6.200   9.349 -0.8080 -0.5513  0.6230
21106SOL     OW65759   4.882   3.907   7.078 -0.1862 -0.1397 -0.2393
21106SOL    HW165760   4.854   3.857   7.002 -0.3295 -0.3932 -0.0215
21106SOL    HW265761   4.830   3.872   7.150 -0.0245  0.0725 -0.0176
21107SOL     OW65762   0.239   0.713   8.958 -0.4264 -0.0777 -0.2953
21107SOL    HW165763   0.235   0.808   8.948 -1.4748 -0.2424 -1.8072
21107SOL    HW265764   0.208   0.697   9.047 -0.2053  0.9763 -0.0071
21108SOL     OW65765   9.318   6.500   6.618  0.0099  0.9218  0.2235
21108SOL    HW165766   9.259   6.425   6.606  0.1381  0.8760 -0.1535
21108SOL    HW265767   9.304   6.528   6.708  0.0973  0.3218  0.4252
21109SOL     OW65768   4.852   2.464  10.168 -0.7624  0.0397 -0.1922
21109SOL    HW165769   4.795   2.491  10.240 -1.4237 -0.7018 -0.4226
21109SOL    HW265770   4.914   2.403  10.209  1.4768  2.6633  0.5738
21110SOL     OW65771   8.199  10.139   8.338  0.5219  0.1870 -0.0316
21110SOL    HW165772   8.159  10.060   8.374  2.9582 -1.3925 -0.5309
21110SOL    HW265773   8.198  10.202   8.409 -1.2023 -0.3860  0.4852
21111SOL     OW65774   7.596   1.897   8.406  0.2327  0.3731  0.4884
21111SOL    HW165775   7.593   1.962   8.335  0.3706  1.4787  1.4729
21111SOL    HW265776   7.594   1.949   8.486 -2.0617 -0.9251  1.3628
21112SOL     OW65777   4.093   2.516   9.499  0.0089 -0.2164  0.7303
21112SOL    HW165778   4.022   2.562   9.545  0.7563 -0.6879  2.4247
21112SOL    HW265779   4.071   2.423   9.510  1.1253 -0.3848  1.7253
21113SOL     OW65780   5.978   0.164   3.578  0.2037  0.0118 -0.0262
21113SOL    HW165781   5.929   0.140   3.499 -1.0353  2.2248 -0.0010
21113SOL    HW265782   6.058   0.203   3.545 -1.3251  3.1042 -0.3818
21114SOL     OW65783   4.445   7.279   1.162  0.1732  0.1292  0.3810
21114SOL    HW165784   4.487   7.321   1.087  0.7652 -0.5021  0.3559
21114SOL    HW265785   4.457   7.342   1.234 -0.7572  0.9223 -0.1277
21115SOL     OW65786   8.291   5.194   7.031  0.0541 -0.0841  0.4723
21115SOL    HW165787   8.274   5.279   6.990  0.5605 -0.2358 -0.0640
21115SOL    HW265788   8.284   5.131   6.959 -0.8830 -0.5685  0.9712
21116SOL     OW65789   2.997   3.223   8.144  0.0753 -0.5539  0.1870
21116SOL    HW165790   2.938   3.295   8.125  0.9955  1.0340  2.7843
21116SOL    HW265791   3.085   3.259   8.128  0.5050 -1.4656  0.4381
21117SOL     OW65792   2.082   8.962  10.242  0.2572 -0.1451 -0.2853
21117SOL    HW165793   2.047   8.876  10.221  0.8283  0.0051 -2.0297
21117SOL    HW265794   2.147   8.979  10.174 -0.3753  1.9860 -0.4256
21118SOL     OW65795   8.433   2.332   9.360 -0.2909 -0.3116  0.2782
21118SOL    HW165796   8.417   2.282   9.279 -0.6323 -0.5725  0.5027
21118SOL    HW265797   8.526   2.354   9.356 -0.6602  1.1983 -1.0458
21119SOL     OW65798  10.243   4.779   8.780 -0.2338  0.2526  0.5151
21119SOL    HW165799  10.186   4.853   8.762 -1.1266 -0.6811 -0.6724
21119SOL    HW265800  10.200   4.704   8.738  1.7234 -0.5459 -0.1959
21120SOL     OW65801   2.931   1.133  10.201  0.2903 -0.3472 -0.1007
21120SOL    HW165802   3.011   1.138  10.147 -1.0545 -1.1822 -2.3111
21120SOL    HW265803   2.962   1.098  10.285  2.2704 -0.6436 -0.8829
21121SOL     OW65804   0.411   8.344   4.929 -0.0798  0.4379 -0.4028
21121SOL    HW165805   0.460   8.286   4.870 -0.1368 -0.4784  0.4300
21121SOL    HW265806   0.479   8.387   4.982 -0.1428 -1.1973  1.0883
21122SOL     OW65807   4.451   1.750   3.092  0.3885 -0.2454  0.4706
21122SOL    HW165808   4.531   1.788   3.129 -0.9502  1.7902  1.4450
21122SOL    HW265809   4.404   1.714   3.168 -0.2161 -0.2577  0.1010
21123SOL     OW65810   1.393   5.065   9.330 -0.0764  0.7116  0.2019
21123SOL    HW165811   1.450   4.988   9.327 -1.7860 -0.6214  0.4664
21123SOL    HW265812   1.310   5.035   9.294 -0.7731  2.4764  0.2424
21124SOL     OW65813   4.902   7.285   3.329  0.4622  0.1139  0.5600
21124SOL    HW165814   4.808   7.271   3.337  0.1837  0.0399 -1.9162
21124SOL    HW265815   4.932   7.302   3.418 -1.4873 -2.1339  1.7484
21125SOL     OW65816   8.529   8.699   8.409  0.4222 -0.7633 -0.0401
21125SOL    HW165817   8.581   8.779   8.411 -2.0120  0.9000  2.2223
21125SOL    HW265818   8.471   8.709   8.334  0.0982 -0.3863  0.2598
21126SOL     OW65819   1.618   9.194   2.115  0.7463 -0.2753 -0.0448
21126SOL    HW165820   1.641   9.108   2.081  1.9150 -0.1814  0.4417
21126SOL    HW265821   1.698   9.224   2.158  0.3259  1.0200 -0.1402
21127SOL     OW65822   6.187   5.281   4.218  0.1591  0.1987 -0.1832
21127SOL    HW165823   6.179   5.343   4.145 -0.7889 -0.1646 -0.4069
21127SOL    HW265824   6.191   5.337   4.296  0.3171  0.5694 -0.4518
21128SOL     OW65825   7.067   8.492   4.623  0.5353  0.2148  0.3487
21128SOL    HW165826   7.060   8.527   4.535 -0.1496 -1.1454 -0.1644
21128SOL    HW265827   7.032   8.561   4.679 -1.4805  0.1128 -0.7012
21129SOL     OW65828   7.767   4.209   1.414 -0.2625  0.6947 -0.0073
21129SOL    HW165829   7.793   4.130   1.367  4.4645  0.8768  1.7406
21129SOL    HW265830   7.800   4.281   1.360  2.4225  1.0039  1.8404
21130SOL     OW65831   7.640  10.068   6.009 -0.0382 -0.4357  0.1874
21130SOL    HW165832   7.680  10.153   6.023  1.0836 -1.0270  0.6511
21130SOL    HW265833   7.567  10.065   6.071 -0.0607  0.1619  0.1954
21131SOL     OW65834   0.872   3.674   8.704  0.0808  0.0236 -0.2243
21131SOL    HW165835   0.812   3.732   8.750 -1.3306 -1.0310 -0.6751
21131SOL    HW265836   0.893   3.720   8.623 -1.1367 -0.1390 -0.6437
21132SOL     OW65837   7.173   0.336   4.371 -0.0503  0.0029  0.2028
21132SOL    HW165838   7.219   0.420   4.367  0.5392 -0.2279  1.6025
21132SOL    HW265839   7.242   0.271   4.356 -0.6700 -0.2563 -1.9407
21133SOL     OW65840   0.533   6.281   5.961  0.5163  0.4152  0.1001
21133SOL    HW165841   0.446   6.262   5.996  0.8970 -2.4196 -0.2564
21133SOL    HW265842   0.521   6.280   5.866  0.6245  2.0905  0.0262
21134SOL     OW65843   2.487   4.740   8.155  0.2542 -0.2095 -0.3294
21134SOL    HW165844   2.522   4.807   8.096 -1.0332  0.8263  0.0342
21134SOL    HW265845   2.393   4.758   8.158 -0.0280 -1.6656  0.2646
21135SOL     OW65846   3.822   1.326   7.658  0.1761  0.2706  0.2049
21135SOL    HW165847   3.807   1.420   7.647  1.4455  0.4867  0.1545
21135SOL    HW265848   3.868   1.300   7.578 -0.5720 -0.4923  0.0134
21136SOL     OW65849   9.205   6.546   8.566 -0.7437  0.0780 -0.9152
21136SOL    HW165850   9.163   6.603   8.630  0.8845  1.5917 -1.1131
21136SOL    HW265851   9.276   6.504   8.614  0.8239  1.6158 -1.7473
21137SOL     OW65852   6.632   7.943   8.682 -0.6002 -0.1137 -0.6160
21137SOL    HW165853   6.701   7.978   8.738 -0.5256 -1.0811 -0.0872
21137SOL    HW265854   6.561   8.007   8.689 -1.0626 -0.7808  1.5621
21138SOL     OW65855   3.053   0.307   3.642 -0.1066  0.1832 -0.3818
21138SOL    HW165856   3.147   0.311   3.626  0.0492 -0.5840  0.2852
21138SOL    HW265857   3.013   0.319   3.556  0.5011  3.1639 -0.3527
21139SOL     OW65858   0.469   2.811   6.715 -0.0119 -0.1867  0.0281
21139SOL    HW165859   0.450   2.798   6.622 -0.5968 -1.5036  0.3023
21139SOL    HW265860   0.465   2.906   6.728  0.4379  0.0475 -1.3526
21140SOL     OW65861   5.310   3.237   2.206  0.4245 -0.7805  0.1772
21140SOL    HW165862   5.394   3.207   2.240  0.4460  0.0637  0.9068
21140SOL    HW265863   5.314   3.332   2.213  0.7021 -0.4569 -2.8435
21141SOL     OW65864   1.738   8.896   7.541  0.5889 -1.0233  0.1637
21141SOL    HW165865   1.771   8.860   7.624  1.1774  1.1457  0.9359
21141SOL    HW265866   1.804   8.960   7.515  0.9211 -2.3551 -2.5789
21142SOL     OW65867   5.097   7.700   3.910 -0.2488  0.1010  0.7197
21142SOL    HW165868   5.021   7.646   3.892  0.6869 -1.0891  0.1432
21142SOL    HW265869   5.068   7.764   3.975 -1.7925 -0.1417  0.2889
21143SOL     OW65870   3.884   4.378   3.096  0.3369  0.3215 -0.0660
21143SOL    HW165871   3.862   4.406   3.185 -0.7774  1.4808 -0.6645
21143SOL    HW265872   3.893   4.283   3.102  0.0080  0.3514  1.2359
21144SOL     OW65873   8.332   2.407   4.021  0.1305  0.6683  0.0740
21144SOL    HW165874   8.400   2.474   4.020 -0.4471  1.2639  0.0032
21144SOL    HW265875   8.291   2.413   3.935  0.6928 -0.4302 -0.2855
21145SOL     OW65876   9.653   8.792   1.783 -0.3529 -0.3537 -0.2278
21145SOL    HW165877   9.675   8.810   1.692  1.9396 -0.0626  0.3320
21145SOL    HW265878   9.651   8.696   1.789  3.0210 -0.5151  0.0841
21146SOL     OW65879   7.624   7.349   9.533  0.4805 -0.0928 -0.2599
21146SOL    HW165880   7.590   7.435   9.556  2.5683  0.9288 -0.7416
21146SOL    HW265881   7.615   7.298   9.613 -2.2250  0.0346 -0.4102
21147SOL     OW65882   7.466   4.923   4.201  0.2018 -0.0763  0.0298
21147SOL    HW165883   7.376   4.950   4.183  0.4421  0.5142 -0.3440
21147SOL    HW265884   7.462   4.878   4.285 -0.5504 -0.6803 -0.3180
21148SOL     OW65885   7.701   0.112   6.093 -0.5595  0.4235  0.1974
21148SOL    HW165886   7.648   0.179   6.135  0.9213  0.9692  1.2690
21148SOL    HW265887   7.721   0.050   6.164 -0.1301 -0.0034 -0.2905
21149SOL     OW65888   4.894   5.611   8.958  0.2884  0.2261  0.0173
21149SOL    HW165889   4.806   5.574   8.970 -0.1106  0.6848 -1.2285
21149SOL    HW265890   4.887   5.700   8.993  0.5842 -0.1074  0.9317
21150SOL     OW65891   8.467   5.719   1.814  0.4489  0.0206 -0.3996
21150SOL    HW165892   8.463   5.625   1.796 -0.6448 -0.0927  0.3957
21150SOL    HW265893   8.526   5.753   1.746  0.9490 -1.2458 -0.6265
21151SOL     OW65894   4.748   0.832   2.380 -0.1384  0.3431 -0.6189
21151SOL    HW165895   4.782   0.772   2.447  0.6428  1.3899 -0.0470
21151SOL    HW265896   4.666   0.864   2.416  0.1753  0.7397 -0.2412
21152SOL     OW65897   7.112   4.099   7.400  0.0555  0.4317 -0.1552
21152SOL    HW165898   7.164   4.180   7.407  1.3095 -0.4031  0.6259
21152SOL    HW265899   7.178   4.030   7.387 -0.8588 -0.6831  0.9933
21153SOL     OW65900   4.436   6.700   5.267  0.3317  0.1253 -0.5011
21153SOL    HW165901   4.505   6.716   5.202 -0.5585  2.9498 -0.9103
21153SOL    HW265902   4.412   6.788   5.297 -0.3437 -1.0007  2.5949
21154SOL     OW65903   0.917   5.122   0.591 -0.5351 -0.0435 -0.0543
21154SOL    HW165904   0.873   5.179   0.529 -0.9494  0.9674  1.1180
21154SOL    HW265905   1.010   5.132   0.572 -0.7086 -1.5465 -2.0016
21155SOL     OW65906   8.027   0.499   6.903 -0.4488  0.6201 -0.0045
21155SOL    HW165907   8.029   0.513   6.997  1.5648  2.4637 -0.2334
21155SOL    HW265908   7.976   0.572   6.868 -0.1627  0.6392 -0.4007
21156SOL     OW65909   4.315   3.122   0.734 -0.1647 -0.2343 -0.1985
21156SOL    HW165910   4.280   3.068   0.663  0.8954 -0.6724 -0.4103
21156SOL    HW265911   4.408   3.133   0.713 -0.4596  2.2444 -0.4875
21157SOL     OW65912   7.724   5.315   3.677  0.0100  0.3736 -0.2061
21157SOL    HW165913   7.799   5.268   3.640 -0.1774 -0.3728  0.3567
21157SOL    HW265914   7.671   5.338   3.601  1.0301  1.3238 -0.6687
21158SOL     OW65915   9.454   1.506   3.649 -0.4341 -0.0508 -0.1896
21158SOL    HW165916   9.461   1.459   3.733  0.0614 -0.4224 -0.4318
21158SOL    HW265917   9.445   1.598   3.674  2.6499  0.2253  0.2807
21159SOL     OW65918   7.503   5.170   5.718 -0.6454  0.3154 -0.0543
21159SOL    HW165919   7.569   5.190   5.784 -0.9506  0.9795  0.0632
21159SOL    HW265920   7.488   5.076   5.726 -0.7339  0.4025  0.8642
21160SOL     OW65921   9.512   0.613   5.613 -0.2101 -0.0730  0.5997
21160SOL    HW165922   9.535   0.703   5.588  0.2814 -0.6745 -1.2698
21160SOL    HW265923   9.564   0.595   5.691  0.7096  0.7938  0.2017
21161SOL     OW65924   2.289   3.910   1.618  0.2923  0.0188 -0.1578
21161SOL    HW165925   2.322   3.954   1.539  1.5573 -0.6259 -0.0131
21161SOL    HW265926   2.298   3.817   1.598 -0.1804 -0.1511  0.4247
21162SOL     OW65927   1.678   6.637   7.789 -0.0349 -0.2899  0.4268
21162SOL    HW165928   1.728   6.558   7.767  0.7107 -0.2797  1.9739
21162SOL    HW265929   1.635   6.661   7.707 -1.2646 -2.9793  0.1780
21163SOL     OW65930   7.066   0.734   7.652  0.7916  0.1585 -0.0769
21163SOL    HW165931   7.023   0.736   7.738 -0.4218 -2.5435 -0.5403
21163SOL    HW265932   6.996   0.750   7.589  1.7072  2.3277 -0.6690
21164SOL     OW65933   5.264   8.343   8.706 -0.2900 -0.1853  0.5490
21164SOL    HW165934   5.178   8.383   8.691 -1.1097 -1.4074  1.7249
21164SOL    HW265935   5.292   8.314   8.620 -1.9988 -1.5177  0.3847
21165SOL     OW65936   4.422   1.427   5.350 -0.0304  0.3159 -0.1579
21165SOL    HW165937   4.421   1.406   5.257  3.0198  0.3822 -0.3173
21165SOL    HW265938   4.442   1.521   5.354  1.2466  0.0492  0.4906
21166SOL     OW65939   5.766   3.379   8.725  0.0205 -0.1306  0.3244
21166SOL    HW165940   5.834   3.371   8.793  0.0656 -0.8473  0.2009
21166SOL    HW265941   5.686   3.348   8.767 -0.2277  0.6488  0.4476
21167SOL     OW65942   1.226   1.445   4.224  0.2319  0.3174  0.6613
21167SOL    HW165943   1.320   1.439   4.207 -0.0635 -3.4585 -0.6601
21167SOL    HW265944   1.191   1.497   4.151  0.8535 -2.3671 -1.7321
21168SOL     OW65945   0.159   9.781   5.315  0.0801  0.2679 -0.1957
21168SOL    HW165946   0.201   9.723   5.252 -0.3981 -0.9567  0.5590
21168SOL    HW265947   0.092   9.827   5.264  0.9330  0.6777 -0.9566
21169SOL     OW65948   5.248   4.925   9.058 -0.0934 -0.1090 -1.1317
21169SOL    HW165949   5.313   4.878   9.110 -0.0214  1.6293  0.4698
21169SOL    HW265950   5.243   5.012   9.098 -1.2456  0.7955 -3.0667
21170SOL     OW65951   7.612   5.270   8.541 -0.4927  0.2397 -0.2034
21170SOL    HW165952   7.587   5.350   8.587 -1.0002  1.7034 -2.8410
21170SOL    HW265953   7.543   5.207   8.564 -2.2913  1.7763 -1.0653
21171SOL     OW65954   5.069   4.944   2.064  0.0482  0.4119 -0.0571
21171SOL    HW165955   4.980   4.963   2.034 -0.8417  0.3771  2.3104
21171SOL    HW265956   5.105   5.029   2.089 -0.3933  0.1661  1.5603
21172SOL     OW65957   0.299   2.346   1.693  0.8328  0.5018  0.0175
21172SOL    HW165958   0.212   2.339   1.653  1.3381 -0.4973 -0.9440
21172SOL    HW265959   0.297   2.430   1.739 -0.1536  1.1699 -1.1902
21173SOL     OW65960   3.218   8.746   5.473 -0.2704  0.2802  0.0432
21173SOL    HW165961   3.143   8.719   5.526  1.1887 -0.2337  1.9725
21173SOL    HW265962   3.251   8.825   5.517  0.5353  0.2865 -0.5460
21174SOL     OW65963   6.277   7.328   7.803 -0.0540 -0.4269  0.2629
21174SOL    HW165964   6.284   7.391   7.875 -0.2847  0.1772 -0.2292
21174SOL    HW265965   6.362   7.283   7.802 -0.1095 -0.5564  1.0084
21175SOL     OW65966   8.162   8.706   8.567 -0.3763  0.1981 -0.2288
21175SOL    HW165967   8.240   8.660   8.599 -0.8331 -0.0814  0.5079
21175SOL    HW265968   8.157   8.684   8.474  0.3536  0.1244 -0.2558
21176SOL     OW65969   8.730   3.594   0.582 -0.6441 -0.2208  0.2820
21176SOL    HW165970   8.685   3.513   0.606 -1.3048 -0.6692 -2.1467
21176SOL    HW265971   8.688   3.622   0.500  1.7092  0.8120 -0.6934
21177SOL     OW65972   5.968   8.631   8.688  0.2482  0.3528  0.2370
21177SOL    HW165973   5.917   8.633   8.769  0.2173  2.3051  0.1971
21177SOL    HW265974   5.903   8.613   8.620 -0.2557  1.8261  0.3031
21178SOL     OW65975   9.476  10.151   3.170 -0.5496 -0.7149 -0.0988
21178SOL    HW165976   9.472  10.062   3.205  1.5546 -1.0186 -0.5462
21178SOL    HW265977   9.451  10.142   3.078  2.1079 -1.3254 -0.8394
21179SOL     OW65978   8.859   2.853   4.132 -0.4253  0.3232  0.2646
21179SOL    HW165979   8.890   2.919   4.070  1.3297  0.1686  0.9185
21179SOL    HW265980   8.880   2.769   4.089 -0.8528  0.2037  0.2897
21180SOL     OW65981   3.375   7.686   2.866 -0.4416  1.1721  0.2606
21180SOL    HW165982   3.351   7.673   2.774 -2.4372  1.5704  0.6661
21180SOL    HW265983   3.333   7.769   2.890  2.0784  2.3583  0.9221
21181SOL     OW65984   6.003   9.421   4.389 -0.1165 -0.1665 -0.3975
21181SOL    HW165985   5.951   9.484   4.440 -0.0613 -1.0116  0.7273
21181SOL    HW265986   6.064   9.475   4.339 -0.3759  0.6992  0.2057
21182SOL     OW65987   5.502   9.393   1.207 -0.5429  0.3891 -0.4996
21182SOL    HW165988   5.511   9.334   1.133 -0.7490  1.5005 -1.4503
21182SOL    HW265989   5.460   9.471   1.170 -0.3065  1.1119  0.7055
21183SOL     OW65990   0.687   5.736   0.263  0.1877  0.0884 -0.0113
21183SOL    HW165991   0.652   5.816   0.302 -1.4213 -0.3216 -0.5732
21183SOL    HW265992   0.695   5.757   0.170 -1.6592 -0.8687 -0.4095
21184SOL     OW65993   1.119   4.378   9.054  0.5338 -0.2208 -0.4411
21184SOL    HW165994   1.074   4.295   9.071  1.8962 -0.6547  1.4458
21184SOL    HW265995   1.072   4.442   9.107  1.1369 -0.3612  0.2801
21185SOL     OW65996   2.365   9.948   0.472  0.4353 -0.1803  0.1884
21185SOL    HW165997   2.380  10.005   0.396 -1.6211 -0.7034 -0.6828
21185SOL    HW265998   2.375  10.006   0.548 -0.1006  1.0125 -0.6122
21186SOL     OW65999   9.928   1.252   6.491 -0.4956 -0.2457 -0.1407
21186SOL    HW166000   9.943   1.211   6.406 -1.4214 -0.7677 -0.0623
21186SOL    HW266001   9.837   1.233   6.511 -0.4000  0.2240  0.7867
21187SOL     OW66002   0.530   3.942   0.789  0.7331 -0.0461 -0.3468
21187SOL    HW166003   0.562   3.888   0.717  0.3230 -0.5948 -0.1257
21187SOL    HW266004   0.590   4.017   0.793  0.3141  0.3852 -1.7472
21188SOL     OW66005   3.372   0.212   9.017  0.0698  0.3901 -0.2906
21188SOL    HW166006   3.374   0.196   9.111 -0.2257 -2.2165 -0.6333
21188SOL    HW266007   3.279   0.220   8.996  0.2082  2.9397 -0.1465
21189SOL     OW66008   5.654   2.258  10.212 -0.2382  0.0894  0.3837
21189SOL    HW166009   5.643   2.293  10.301 -0.1895  2.0558 -0.3277
21189SOL    HW266010   5.614   2.171  10.216  1.3780 -0.6528  2.7796
21190SOL     OW66011   5.887   5.206   4.546  0.3280  0.0862 -0.5019
21190SOL    HW166012   5.882   5.240   4.456  0.6658  0.6003 -0.3281
21190SOL    HW266013   5.976   5.173   4.554 -0.2743 -1.7555 -0.9827
21191SOL     OW66014   5.382   2.597   0.167  0.1153 -0.0317 -0.3294
21191SOL    HW166015   5.419   2.598   0.255 -0.7293  0.0251  0.0277
21191SOL    HW266016   5.405   2.682   0.130  0.5122 -0.0748 -0.1840
21192SOL     OW66017   6.927   9.700   1.421 -0.0974 -0.5550 -0.4469
21192SOL    HW166018   6.954   9.717   1.331  0.6933 -0.1376 -0.1413
21192SOL    HW266019   6.971   9.618   1.445 -0.1169 -0.5431 -0.3712
21193SOL     OW66020   7.442  10.213   9.470  0.2566 -0.0712 -0.3718
21193SOL    HW166021   7.526  10.188   9.431  1.1960  1.4372  0.5926
21193SOL    HW266022   7.416  10.136   9.521  1.7944 -0.0448  0.4955
21194SOL     OW66023   8.270   1.867   9.964  0.1072 -0.3117  0.4615
21194SOL    HW166024   8.326   1.867   9.886 -1.0097  1.1822 -0.3953
21194SOL    HW266025   8.302   1.941  10.016 -1.0377  0.5995 -0.0664
21195SOL     OW66026   2.402   5.635   9.019  0.4028  0.2786 -0.2236
21195SOL    HW166027   2.466   5.565   9.033  0.2710  0.3873  0.9797
21195SOL    HW266028   2.454   5.707   8.983  0.6302 -0.2512 -0.9778
21196SOL     OW66029   8.713   8.531   4.593  0.1932 -0.4089 -0.0996
21196SOL    HW166030   8.698   8.622   4.568  1.0663 -0.1083  0.4106
21196SOL    HW266031   8.712   8.482   4.510  2.0299  0.4175 -0.6756
21197SOL     OW66032   6.214   7.975   7.647 -0.6263 -0.7676 -0.8693
21197SOL    HW166033   6.145   8.002   7.708  0.8335  2.1718 -0.3455
21197SOL    HW266034   6.273   7.921   7.699 -0.2345  0.4085 -0.0480
21198SOL     OW66035   3.014   7.017   3.367  0.2162 -0.3485 -0.1499
21198SOL    HW166036   3.103   7.049   3.387  0.1313 -0.7556  0.9486
21198SOL    HW266037   3.027   6.928   3.337  0.1604 -0.5437  0.3874
21199SOL     OW66038   3.994   7.905   5.242  0.0846  0.4926 -0.0280
21199SOL    HW166039   3.934   7.841   5.204  0.6528  0.8009 -1.5169
21199SOL    HW266040   3.943   7.986   5.246 -0.2941  0.2227  0.8471
21200SOL     OW66041   9.467   7.073   5.212 -0.4341  0.0746 -0.0178
21200SOL    HW166042   9.439   7.133   5.143 -0.7027  0.1722  0.1746
21200SOL    HW266043   9.535   7.121   5.259  0.2261 -0.2484 -0.6223
21201SOL     OW66044   4.870   6.839  10.069  0.5915  0.1093  0.2352
21201SOL    HW166045   4.918   6.813  10.148  0.0650  1.1767  0.9368
21201SOL    HW266046   4.913   6.920  10.041  1.5283 -0.8740 -1.2823
21202SOL     OW66047   7.069   1.484   3.141 -0.4805  0.1351 -0.2918
21202SOL    HW166048   7.129   1.411   3.158 -2.3362 -0.9036  2.7058
21202SOL    HW266049   7.121   1.547   3.090  2.3974 -1.6163  0.2348
21203SOL     OW66050   3.433   5.581   2.413  0.2890 -0.5702  0.3333
21203SOL    HW166051   3.508   5.634   2.385 -0.3753  0.8538  1.1222
21203SOL    HW266052   3.462   5.490   2.403  0.5357 -0.2384 -3.7549
21204SOL     OW66053   4.317   8.840   3.768 -0.5583  0.4678 -0.2201
21204SOL    HW166054   4.290   8.807   3.853  0.6929 -1.5882 -0.5635
21204SOL    HW266055   4.388   8.901   3.786  0.3644 -0.6956  0.1904
21205SOL     OW66056   6.053   5.572   0.115  0.1702  0.7322 -0.1200
21205SOL    HW166057   6.098   5.653   0.138 -0.4201  0.8532  0.6519
21205SOL    HW266058   6.116   5.503   0.132  0.9788  1.0588 -1.5664
21206SOL     OW66059   1.145   3.467   4.819  0.3660 -0.6090 -0.4919
21206SOL    HW166060   1.128   3.547   4.870  2.1403  0.4560 -1.4550
21206SOL    HW266061   1.137   3.396   4.883  0.6594  0.5190  0.8565
21207SOL     OW66062   4.640   0.687   5.550 -0.1262  0.6920  0.8227
21207SOL    HW166063   4.573   0.744   5.588 -1.3314 -0.3968  0.3944
21207SOL    HW266064   4.672   0.736   5.474 -2.1881  0.2498 -0.4153
21208SOL     OW66065   1.436   8.146   4.108  0.0558 -0.0953 -0.0067
21208SOL    HW166066   1.385   8.120   4.031  0.8371  1.0223 -0.9484
21208SOL    HW266067   1.472   8.064   4.141 -2.7079 -0.9998  1.0284
21209SOL     OW66068   0.430   4.979   1.126  0.5034  0.5203 -0.0602
21209SOL    HW166069   0.371   4.922   1.076  1.6404  0.0364 -0.8945
21209SOL    HW266070   0.495   5.008   1.062  0.8617  1.4954  0.7171
21210SOL     OW66071   8.069   2.419   3.531  0.4387  0.7108  0.4916
21210SOL    HW166072   8.013   2.372   3.470  1.0884 -0.5582  0.8363
21210SOL    HW266073   8.052   2.511   3.513  1.2449  0.4329 -2.2430
21211SOL     OW66074   2.224   1.617   3.444  0.0198  0.3085 -0.0184
21211SOL    HW166075   2.172   1.539   3.426  1.1524 -0.4387 -0.1733
21211SOL    HW266076   2.312   1.595   3.412  0.4605  1.4871  0.3287
21212SOL     OW66077   7.771   9.828   6.663  0.4331 -0.1224  0.3286
21212SOL    HW166078   7.852   9.862   6.700  1.0164  1.4364 -2.1707
21212SOL    HW266079   7.714   9.904   6.656 -0.3090 -0.7183 -0.2808
21213SOL     OW66080   4.266   2.279   7.671  0.2979 -0.4031  0.1387
21213SOL    HW166081   4.220   2.339   7.731 -0.5987 -1.3753  0.4682
21213SOL    HW266082   4.219   2.288   7.588 -0.3446 -1.2096  0.4051
21214SOL     OW66083   9.229   9.358   8.822  0.4328  0.6281 -0.1178
21214SOL    HW166084   9.186   9.441   8.803  1.0274  0.6684 -1.4263
21214SOL    HW266085   9.162   9.306   8.867 -0.7927  0.9236 -1.5119
21215SOL     OW66086   6.091   1.773   0.696 -0.1898 -0.2398  1.1340
21215SOL    HW166087   6.076   1.690   0.742  2.3690 -1.0296  0.6882
21215SOL    HW266088   6.145   1.824   0.756  0.3596  0.0729  0.3898
21216SOL     OW66089   8.943   4.200   6.734  0.3615 -0.2902  0.0193
21216SOL    HW166090   8.943   4.105   6.724 -0.1915 -0.2619 -0.3077
21216SOL    HW266091   8.919   4.233   6.647 -3.0906  0.0346  0.9737
21217SOL     OW66092   5.180   7.366   6.818  0.2032 -0.0409  0.0980
21217SOL    HW166093   5.182   7.301   6.888 -2.4554 -0.1181  0.1934
21217SOL    HW266094   5.216   7.321   6.742  1.8895 -0.3717  1.0313
21218SOL     OW66095   4.428   5.334   7.769 -0.5184 -0.5300 -0.4781
21218SOL    HW166096   4.507   5.333   7.715 -0.4824 -1.5542 -0.4245
21218SOL    HW266097   4.461   5.337   7.859 -0.4833 -2.3383 -0.3996
21219SOL     OW66098   6.081   3.462   6.500  0.1330 -0.1658  0.6341
21219SOL    HW166099   6.138   3.408   6.445 -0.4231  0.2269 -0.3645
21219SOL    HW266100   6.007   3.405   6.522 -0.9298  0.4057 -1.2066
21220SOL     OW66101   2.413   8.418   2.523 -0.5075 -0.7196  0.2326
21220SOL    HW166102   2.410   8.482   2.594 -3.0896 -1.3991  0.8398
21220SOL    HW266103   2.466   8.346   2.557  1.5246  0.5459 -0.0620
21221SOL     OW66104   4.521   9.444   0.613 -0.6330  0.1653 -0.3518
21221SOL    HW166105   4.608   9.415   0.639 -0.1134  0.0202 -2.1166
21221SOL    HW266106   4.466   9.427   0.690  0.6507 -0.8422  0.3905
21222SOL     OW66107   6.424   6.188   5.413 -0.3166 -0.1603  0.2056
21222SOL    HW166108   6.461   6.214   5.329  0.0936 -0.3923  0.3124
21222SOL    HW266109   6.367   6.261   5.438  0.4225  0.4026  0.2625
21223SOL     OW66110   2.392   7.495   2.194 -0.1094 -0.3305  0.1886
21223SOL    HW166111   2.348   7.459   2.117  2.4796  0.6113 -1.8392
21223SOL    HW266112   2.356   7.583   2.203 -3.0534 -1.5670  2.3942
21224SOL     OW66113   6.334   1.865   9.487  0.0100  0.4712 -0.4611
21224SOL    HW166114   6.400   1.826   9.545 -1.3540 -1.5534 -0.1584
21224SOL    HW266115   6.293   1.933   9.541  1.1538  1.0981 -0.3293
21225SOL     OW66116  10.170   7.855   7.520 -0.0006 -0.4150 -0.1628
21225SOL    HW166117  10.176   7.908   7.599 -0.1375 -0.2845 -0.2384
21225SOL    HW266118  10.076   7.844   7.506 -0.0188  0.4736 -0.9068
21226SOL     OW66119   5.471   0.783   4.235 -0.5685 -0.1831 -0.3244
21226SOL    HW166120   5.547   0.822   4.191 -1.2010  1.0847 -0.3565
21226SOL    HW266121   5.442   0.714   4.175  1.1826 -1.4271  0.2067
21227SOL     OW66122   8.579   6.408   4.856  0.1244  0.0452  0.4685
21227SOL    HW166123   8.568   6.314   4.841  0.6889  0.1692 -0.7809
21227SOL    HW266124   8.671   6.419   4.879  0.6479  0.5463 -1.6761
21228SOL     OW66125   2.477   5.712   0.144 -0.4749  0.1288  0.0700
21228SOL    HW166126   2.487   5.790   0.199  1.6526  0.8178 -1.1875
21228SOL    HW266127   2.567   5.686   0.124 -1.1846 -1.4859 -1.1760
21229SOL     OW66128   1.470   6.994   6.176  0.3164  0.6764 -0.2633
21229SOL    HW166129   1.529   7.049   6.228 -0.5065  0.4378  0.9371
21229SOL    HW266130   1.392   6.983   6.230  0.2881 -1.3616 -0.6400
21230SOL     OW66131  10.234   9.115   8.109 -0.2856  0.3947 -0.2115
21230SOL    HW166132  10.185   9.041   8.144 -0.8034  1.1409  0.6971
21230SOL    HW266133  10.183   9.192   8.135  1.2537  1.1905  0.6344
21231SOL     OW66134   7.046   9.913   6.006  0.0788 -0.1597  0.0454
21231SOL    HW166135   7.001   9.833   6.033 -2.4793  0.7510 -1.2842
21231SOL    HW266136   7.005   9.983   6.057  0.9398  0.5733 -0.2301
21232SOL     OW66137   1.281   0.572   3.940 -0.1335  0.3367 -0.1233
21232SOL    HW166138   1.254   0.663   3.931  1.1264  0.6222 -1.3615
21232SOL    HW266139   1.295   0.542   3.850  0.9267 -0.6037  0.3281
21233SOL     OW66140   3.774   4.626   1.942  0.4031  0.1752 -0.2482
21233SOL    HW166141   3.773   4.663   1.854  0.9910 -1.7237 -1.1074
21233SOL    HW266142   3.843   4.560   1.940  0.2873 -0.0629  1.5801
21234SOL     OW66143   2.329   5.908   6.620  0.5348  1.0650 -0.2874
21234SOL    HW166144   2.316   5.884   6.529  0.1465  1.3957 -0.3219
21234SOL    HW266145   2.363   5.998   6.616 -1.8289  2.0422 -0.0481
21235SOL     OW66146   8.800   9.321   3.477  0.0448  0.6038  0.0949
21235SOL    HW166147   8.787   9.376   3.555  1.1461  0.7674  0.1738
21235SOL    HW266148   8.809   9.384   3.405 -1.6124  0.4394 -0.2877
21236SOL     OW66149   8.764   9.427   9.544 -0.4946  0.3630  0.0811
21236SOL    HW166150   8.847   9.468   9.570  0.6651 -1.4781 -0.5175
21236SOL    HW266151   8.728   9.486   9.479  0.2781  1.2721  0.4455
21237SOL     OW66152   7.383   2.636   4.496  0.0769 -0.1845  0.3537
21237SOL    HW166153   7.377   2.585   4.416 -0.6731 -1.3205  1.0970
21237SOL    HW266154   7.397   2.726   4.467 -2.9055 -0.0959 -1.1957
21238SOL     OW66155   0.768   5.042   7.298  0.8106  0.3429  0.0100
21238SOL    HW166156   0.784   5.095   7.376  2.1969 -0.2316  0.1516
21238SOL    HW266157   0.736   5.104   7.232 -1.2275  0.7053  1.2515
21239SOL     OW66158   5.020   8.122   6.654 -0.0359 -0.4034  0.5703
21239SOL    HW166159   4.968   8.202   6.653  1.3182  0.5102  0.1284
21239SOL    HW266160   5.071   8.127   6.734  1.2693  0.0096 -0.2654
21240SOL     OW66161   8.954   1.336  10.441  0.5347  0.0247 -0.4273
21240SOL    HW166162   8.891   1.404  10.464  0.2227 -0.4089  0.0160
21240SOL    HW266163   9.030   1.384  10.409  0.6967  0.6242  0.7874
21241SOL     OW66164   4.183   8.798   2.491  0.1759  0.0518  0.3239
21241SOL    HW166165   4.098   8.754   2.490  0.7285 -1.0327 -0.0719
21241SOL    HW266166   4.237   8.746   2.550  1.0310 -0.1989 -0.6463
21242SOL     OW66167   6.812   0.515   2.942  0.2240 -0.5331 -0.7573
21242SOL    HW166168   6.897   0.545   2.974 -0.1422 -0.4013  0.1106
21242SOL    HW266169   6.749   0.542   3.009 -0.3862 -1.4600 -0.9263
21243SOL     OW66170   7.097   1.158   8.493  0.0261 -0.3410 -0.6548
21243SOL    HW166171   7.006   1.182   8.510 -0.2751 -0.9326 -1.3301
21243SOL    HW266172   7.101   1.151   8.397  0.9214  0.1932 -0.6616
21244SOL     OW66173   6.721   2.355   4.184 -0.2778 -0.9349  0.2100
21244SOL    HW166174   6.769   2.273   4.168  1.0946 -0.6691  2.5028
21244SOL    HW266175   6.681   2.342   4.270 -0.2584  0.6999  0.4897
21245SOL     OW66176  10.063   2.712   7.456 -0.1312 -0.2456 -0.5123
21245SOL    HW166177  10.125   2.785   7.456  1.1700 -1.2830 -1.8141
21245SOL    HW266178   9.987   2.745   7.408  0.7899  0.0300 -1.8553
21246SOL     OW66179   8.829   5.521   5.780  0.0046  0.5442 -0.6295
21246SOL    HW166180   8.816   5.450   5.719  0.2862  0.4517 -0.5823
21246SOL    HW266181   8.883   5.585   5.733  0.8444  0.1410 -0.2298
21247SOL     OW66182   8.234   2.597   6.243  0.9198  0.0432  0.2796
21247SOL    HW166183   8.172   2.527   6.221  0.3886  0.8858 -1.1065
21247SOL    HW266184   8.199   2.637   6.323  0.5797 -0.5329  0.4181
21248SOL     OW66185   0.125   6.498   7.283 -0.1636  0.0883  0.4011
21248SOL    HW166186   0.095   6.444   7.356 -2.4398  0.8613  0.1358
21248SOL    HW266187   0.051   6.557   7.265 -0.4210 -1.1098 -3.5301
21249SOL     OW66188   8.056   2.013   5.585  0.0167 -0.0617 -0.1164
21249SOL    HW166189   8.099   2.069   5.520  0.1784  0.6107  0.5538
21249SOL    HW266190   8.104   1.931   5.581  0.3344  0.1368 -0.5092
21250SOL     OW66191   0.538   1.323   2.712  0.0130  0.8289  0.1517
21250SOL    HW166192   0.610   1.364   2.760  1.0648  0.0987 -0.7245
21250SOL    HW266193   0.576   1.241   2.679 -1.5136 -0.0273  0.4453
21251SOL     OW66194   8.174   4.616   2.869 -0.2789 -0.6360  0.0362
21251SOL    HW166195   8.103   4.553   2.879 -0.7448 -0.2798 -0.9780
21251SOL    HW266196   8.216   4.592   2.786  0.9001 -0.9380  0.6855
21252SOL     OW66197   5.141   2.703  10.409 -0.2503  0.1906  0.0668
21252SOL    HW166198   5.058   2.661  10.431 -0.5651  0.9059  0.2588
21252SOL    HW266199   5.207   2.656  10.460 -0.7597  0.7575  1.2627
21253SOL     OW66200   4.743   7.712   6.810 -0.5025 -0.1932  0.2469
21253SOL    HW166201   4.752   7.790   6.865  0.8849 -1.3958  1.8299
21253SOL    HW266202   4.830   7.673   6.810 -0.7605 -0.8731 -1.9053
21254SOL     OW66203   0.572   1.729   0.563 -0.2088 -0.4264  0.2804
21254SOL    HW166204   0.547   1.751   0.473  3.3918 -2.1310 -1.3442
21254SOL    HW266205   0.537   1.641   0.576 -1.8484  0.2977  1.1658
21255SOL     OW66206   7.745   8.515   9.279  0.2776  0.1857 -0.4828
21255SOL    HW166207   7.761   8.447   9.344 -1.7706 -1.3776 -1.4952
21255SOL    HW266208   7.727   8.594   9.331  1.5489 -0.3036  0.7419
21256SOL     OW66209   5.973   0.553   1.712  0.2312 -0.0781  0.1294
21256SOL    HW166210   6.011   0.580   1.629  1.1705 -0.9421  0.2674
21256SOL    HW266211   5.891   0.602   1.717  0.8206  1.0324 -0.6487
21257SOL     OW66212   3.742   5.988   1.374  0.1877  0.1505 -0.1652
21257SOL    HW166213   3.716   5.904   1.411 -0.6036  0.9728  1.2147
21257SOL    HW266214   3.660   6.035   1.360  0.6953  1.2446  0.4337
21258SOL     OW66215   4.323   0.962   8.015 -0.5293 -0.0892  0.0008
21258SOL    HW166216   4.268   1.028   8.058 -1.8903 -0.3416 -1.2584
21258SOL    HW266217   4.312   0.883   8.069 -0.7487  0.0963  0.2295
21259SOL     OW66218   2.516   0.013   9.937 -0.8105 -0.2340  0.2049
21259SOL    HW166219   2.576  -0.061   9.939 -0.8453 -0.2599  0.2786
21259SOL    HW266220   2.569   0.087   9.966 -1.0181 -0.4012  1.0243
21260SOL     OW66221   0.087   5.188   5.704 -0.1622  0.1365  0.0436
21260SOL    HW166222   0.114   5.134   5.630  1.0312  2.9352 -1.7149
21260SOL    HW266223   0.136   5.270   5.694 -1.9884  1.6767  2.4285
21261SOL     OW66224   5.674   5.363   0.020  0.0880  0.3831  0.5396
21261SOL    HW166225   5.620   5.426   0.068 -0.2007 -0.3333  1.1680
21261SOL    HW266226   5.702   5.300   0.086  2.8189  1.4647  0.5269
21262SOL     OW66227   1.808   8.552   7.259 -0.2615  0.0434  0.1497
21262SOL    HW166228   1.859   8.632   7.271 -2.6360  1.6316  0.1143
21262SOL    HW266229   1.781   8.527   7.347 -0.3319 -0.1928  0.0627
21263SOL     OW66230   5.524   3.840   7.980  0.1727 -0.0580  0.4244
21263SOL    HW166231   5.605   3.885   8.000 -0.1219 -0.7982  4.1116
21263SOL    HW266232   5.467   3.858   8.055 -1.8451 -2.2685 -0.4174
21264SOL     OW66233   4.753   3.681   9.694 -0.0598  0.2675 -0.2626
21264SOL    HW166234   4.766   3.587   9.678 -0.9081 -0.0737  0.9336
21264SOL    HW266235   4.817   3.723   9.637  2.6737 -1.1459  1.5051
21265SOL     OW66236   3.414   5.492   1.944  0.2739 -0.0483  0.3100
21265SOL    HW166237   3.374   5.505   1.858  0.0328 -0.1291  0.4112
21265SOL    HW266238   3.346   5.450   1.997  1.2924 -2.6577 -0.2859
21266SOL     OW66239   5.762   3.881  10.379 -0.2567 -0.1464 -0.3320
21266SOL    HW166240   5.755   3.835  10.295 -0.7334 -0.5790 -0.0595
21266SOL    HW266241   5.819   3.824  10.432 -0.5414 -0.2351 -0.1214
21267SOL     OW66242   8.770   2.810   3.802 -0.7478 -0.1807  0.0700
21267SOL    HW166243   8.780   2.715   3.800 -0.1309 -0.1255  0.3182
21267SOL    HW266244   8.816   2.841   3.724  1.5334  0.1126  1.4605
21268SOL     OW66245   8.742   0.274   6.582  0.1743  0.1148 -0.1391
21268SOL    HW166246   8.651   0.305   6.580 -0.3723 -1.4018 -0.0086
21268SOL    HW266247   8.760   0.248   6.491  1.0311  1.8365 -0.5054
21269SOL     OW66248   1.963  10.030   3.918 -0.6212 -0.2570 -0.4206
21269SOL    HW166249   1.938  10.041   4.010 -1.0757 -0.1244 -0.5583
21269SOL    HW266250   1.984  10.118   3.888  1.9786 -0.5846  0.2324
21270SOL     OW66251   1.434   2.122   0.104 -0.0818  0.4092 -0.0812
21270SOL    HW166252   1.339   2.126   0.111  0.0222  0.7334  1.4005
21270SOL    HW266253   1.457   2.192   0.043 -0.8783 -0.6658 -1.6899
21271SOL     OW66254   1.273   6.570   3.749  0.3732 -0.1117  0.5148
21271SOL    HW166255   1.248   6.630   3.819 -0.6763  0.7168 -0.5357
21271SOL    HW266256   1.192   6.555   3.700  0.8908 -1.4145  0.0310
21272SOL     OW66257   0.221   8.165   1.731 -0.0587 -0.0132  0.1369
21272SOL    HW166258   0.199   8.249   1.690 -2.8530 -0.4588  0.5274
21272SOL    HW266259   0.186   8.099   1.671 -0.6680 -0.7832  1.3018
21273SOL     OW66260   7.020   0.553   3.370 -0.1121  0.3627  0.1039
21273SOL    HW166261   7.046   0.496   3.442  0.7730  0.2740 -0.2714
21273SOL    HW266262   7.009   0.495   3.295  0.5064  0.6306 -0.2085
21274SOL     OW66263   9.453   7.757   4.326  0.2023  0.5316  0.0977
21274SOL    HW166264   9.536   7.801   4.308  0.4144  1.1419  2.2617
21274SOL    HW266265   9.391   7.829   4.338  0.0717  0.1933  1.5647
21275SOL     OW66266   5.041   7.724   1.209 -0.1627  0.0292 -0.3035
21275SOL    HW166267   5.102   7.674   1.154  0.1737  0.4738 -0.3432
21275SOL    HW266268   4.966   7.741   1.152  0.0544  0.2268 -0.5340
21276SOL     OW66269   8.917   4.747   6.521 -0.2825  0.5687 -0.5141
21276SOL    HW166270   8.917   4.667   6.572 -2.6930 -0.1538 -1.4994
21276SOL    HW266271   8.865   4.809   6.572 -4.1549 -0.6686 -2.5592
21277SOL     OW66272   1.106  10.364   3.922  0.1609  0.1546 -0.0131
21277SOL    HW166273   1.023  10.322   3.941  0.0101  0.7474  0.6954
21277SOL    HW266274   1.100  10.450   3.963  1.4474 -0.1118  0.8224
21278SOL     OW66275   7.153   0.671   9.400 -0.0638 -0.1831 -0.2052
21278SOL    HW166276   7.156   0.621   9.481 -0.3905 -2.0688 -1.3122
21278SOL    HW266277   7.172   0.761   9.427 -1.1335 -0.5817  2.0868
21279SOL     OW66278   6.285   1.666   5.008  0.1388  0.1560  0.1148
21279SOL    HW166279   6.269   1.744   5.061 -0.4256  0.5886 -0.6704
21279SOL    HW266280   6.329   1.699   4.929 -1.5930 -0.0647 -0.9932
21280SOL     OW66281   9.190   0.709   1.747  0.5692  0.1633 -0.4277
21280SOL    HW166282   9.188   0.642   1.815 -0.0218  0.8211  0.2157
21280SOL    HW266283   9.281   0.739   1.746  0.8836 -0.7574 -0.8510
21281SOL     OW66284   6.535   5.159   7.780  0.1838 -0.1731  0.0316
21281SOL    HW166285   6.547   5.187   7.870 -0.4738  0.8349 -0.1843
21281SOL    HW266286   6.571   5.070   7.778  0.5084 -0.0864  1.1952
21282SOL     OW66287   9.455   5.157   3.294 -0.2707 -0.7218  0.2587
21282SOL    HW166288   9.413   5.241   3.309  0.4955 -0.6079  1.9861
21282SOL    HW266289   9.465   5.151   3.199 -1.4618  0.5583  0.0325
21283SOL     OW66290   4.175   5.878   0.117  0.4715 -0.6466 -0.9189
21283SOL    HW166291   4.148   5.910   0.031  0.8101 -0.8853 -1.1170
21283SOL    HW266292   4.144   5.787   0.119 -0.3254 -0.3739 -0.4329
21284SOL     OW66293   4.615   9.700   4.050 -0.6079 -0.3910  0.2547
21284SOL    HW166294   4.557   9.688   4.125  0.1090 -0.1282  0.8605
21284SOL    HW266295   4.568   9.759   3.992 -0.8704 -0.0397  0.8214
21285SOL     OW66296   6.091  10.233   3.626 -0.2347  0.2802 -0.0005
21285SOL    HW166297   6.066  10.141   3.635  1.8208 -0.1564  2.2816
21285SOL    HW266298   6.127  10.256   3.711 -0.0730  3.0319 -0.7356
21286SOL     OW66299  10.478   5.314   8.044 -0.0127  0.3955 -0.1475
21286SOL    HW166300  10.438   5.371   7.979  0.3366 -0.0554 -0.7750
21286SOL    HW266301  10.419   5.239   8.051  0.0880  0.3139 -0.1534
21287SOL     OW66302   6.953   6.238  10.370  0.0660  0.0548 -0.9057
21287SOL    HW166303   7.029   6.218  10.424  0.2759  0.2200 -1.1374
21287SOL    HW266304   6.889   6.171  10.393  0.7814 -0.9311 -1.7280
21288SOL     OW66305   4.087   5.645   3.405 -0.2914 -0.2640 -0.0737
21288SOL    HW166306   4.158   5.708   3.391 -0.5966  0.2306  0.5512
21288SOL    HW266307   4.040   5.642   3.321 -0.2465  0.3139 -0.1218
21289SOL     OW66308   7.390   4.082   5.402 -0.1781  0.0665  0.1713
21289SOL    HW166309   7.465   4.135   5.373 -1.3905  0.4283 -2.6518
21289SOL    HW266310   7.327   4.145   5.436  0.1880 -0.0938  1.1855
21290SOL     OW66311   3.993   5.801   0.470 -0.6624 -0.5233 -0.1095
21290SOL    HW166312   4.054   5.734   0.440  1.1805  1.3973 -0.9561
21290SOL    HW266313   3.988   5.789   0.565  3.8989  1.2587  0.6156
21291SOL     OW66314   4.870   5.082   0.922 -0.0421  0.2078 -0.0504
21291SOL    HW166315   4.784   5.058   0.888 -0.2887 -1.8800  1.8513
21291SOL    HW266316   4.932   5.041   0.861 -0.4765 -2.6463  1.2775
21292SOL     OW66317   4.223   6.670   6.165 -0.2402  0.6240  0.1615
21292SOL    HW166318   4.148   6.625   6.126 -1.4242  1.2337  1.6662
21292SOL    HW266319   4.195   6.761   6.173  1.2518  1.1970 -0.6425
21293SOL     OW66320   5.221   6.411   6.450  0.1285  0.5593  0.4488
21293SOL    HW166321   5.247   6.502   6.462 -1.1518  0.8123  1.5499
21293SOL    HW266322   5.215   6.399   6.355  2.3039  1.0077  0.2080
21294SOL     OW66323   2.738   7.885   6.530 -0.1753 -0.4778  0.2103
21294SOL    HW166324   2.709   7.833   6.455 -0.9749 -0.4540  0.4876
21294SOL    HW266325   2.693   7.969   6.519  0.4707 -0.1319  0.1957
21295SOL     OW66326   8.872   0.415   2.024  0.3958  0.5072  0.3401
21295SOL    HW166327   8.818   0.460   1.959  0.5164  2.3448  1.4380
21295SOL    HW266328   8.818   0.340   2.052 -0.8633  1.3089  0.1532
21296SOL     OW66329   6.021   8.461   6.926  0.0653 -0.2121 -0.7449
21296SOL    HW166330   6.099   8.414   6.956  0.7907  0.2955 -1.8076
21296SOL    HW266331   6.050   8.551   6.913 -1.1618  0.4315  0.6482
21297SOL     OW66332   4.121   4.583   7.546 -0.4602 -0.4511 -0.4422
21297SOL    HW166333   4.182   4.655   7.559 -0.5039 -0.6770  1.1622
21297SOL    HW266334   4.035   4.618   7.571 -1.3445  0.2905 -3.9364
21298SOL     OW66335   3.092   4.094  10.007 -0.1355  0.3751 -0.2441
21298SOL    HW166336   3.108   4.122   9.917  1.7976  2.3661  0.6278
21298SOL    HW266337   3.134   4.161  10.061 -3.1430  0.4824  2.2369
21299SOL     OW66338   3.080   1.448   7.813  0.2106 -0.0961 -0.1661
21299SOL    HW166339   3.052   1.377   7.870 -0.3869  0.1783 -0.1057
21299SOL    HW266340   3.024   1.522   7.838  2.0205  0.9481  1.0425
21300SOL     OW66341   7.637   5.764   6.977  0.2012  0.2704 -0.1470
21300SOL    HW166342   7.695   5.822   6.929  1.7132 -1.1509 -0.1223
21300SOL    HW266343   7.673   5.676   6.964  0.0748 -0.3090  2.6732
21301SOL     OW66344   7.236   2.562   4.254 -0.1629 -0.1055  0.2642
21301SOL    HW166345   7.147   2.529   4.264 -1.4597  2.2802 -2.2737
21301SOL    HW266346   7.237   2.643   4.305  0.5754 -0.1337  0.3038
21302SOL     OW66347   5.976   8.968   5.015 -0.1671  0.1084 -0.3697
21302SOL    HW166348   6.012   9.020   5.087 -0.2887  1.7083 -1.4153
21302SOL    HW266349   5.939   9.033   4.955 -0.1171 -1.1818 -1.8530
21303SOL     OW66350   5.384   1.894   9.490 -0.4603  0.0538  0.7123
21303SOL    HW166351   5.319   1.843   9.538  0.1791  0.3784  1.9789
21303SOL    HW266352   5.460   1.835   9.484 -0.4049  0.1547  0.4464
21304SOL     OW66353   5.591   8.141   3.380 -0.2284 -0.1140  0.0483
21304SOL    HW166354   5.663   8.140   3.317  0.9011  0.1108  1.2832
21304SOL    HW266355   5.558   8.052   3.380  1.7372 -0.9165  1.2799
21305SOL     OW66356   3.607   9.741   0.835 -0.1237 -0.1436 -0.7324
21305SOL    HW166357   3.694   9.747   0.875 -0.3384  4.1551 -0.4223
21305SOL    HW266358   3.624   9.717   0.744  1.3791  0.3218 -0.5985
21306SOL     OW66359   3.246   2.347   1.190  0.6719  0.1586  0.0817
21306SOL    HW166360   3.154   2.375   1.190  0.8211  0.8892 -2.2222
21306SOL    HW266361   3.247   2.271   1.132  1.5923  0.5619 -0.4496
21307SOL     OW66362   0.823   0.638   9.017 -0.6697  0.2228 -0.1553
21307SOL    HW166363   0.785   0.720   8.986 -2.2378 -0.4662 -0.1363
21307SOL    HW266364   0.774   0.569   8.972  0.8785 -0.7205 -0.4706
21308SOL     OW66365   9.125   9.709   4.067  0.3582  0.3205 -0.8275
21308SOL    HW166366   9.045   9.762   4.073 -0.7727 -1.3751 -0.3938
21308SOL    HW266367   9.152   9.696   4.158  0.5382 -0.0018 -0.9290
21309SOL     OW66368   9.196   4.499   6.412 -0.0639 -0.1194  0.0682
21309SOL    HW166369   9.203   4.404   6.402  1.3794 -0.0352  0.1004
21309SOL    HW266370   9.232   4.517   6.499 -1.7626  0.3189  0.7105
21310SOL     OW66371   2.456   4.827   2.643  0.7882 -0.0745 -0.0863
21310SOL    HW166372   2.375   4.792   2.606 -0.6442  1.2174  1.6676
21310SOL    HW266373   2.436   4.919   2.661  1.9003 -0.2498  2.3436
21311SOL     OW66374   5.137   8.660   6.238  0.4946 -0.7846 -0.0187
21311SOL    HW166375   5.198   8.646   6.166 -0.0566  0.6113 -0.8199
21311SOL    HW266376   5.165   8.743   6.277 -1.6182  0.6580 -1.3083
21312SOL     OW66377   3.036   7.904   4.729 -0.1739  0.2825 -0.3342
21312SOL    HW166378   2.968   7.966   4.754  0.4695  0.7920  0.1902
21312SOL    HW266379   3.072   7.873   4.812  0.5160  0.3313 -0.6120
21313SOL     OW66380   7.735   3.181   9.779 -0.4759  0.0919  0.4546
21313SOL    HW166381   7.645   3.168   9.810 -1.2401  0.8559 -1.3124
21313SOL    HW266382   7.735   3.269   9.740  0.6680 -0.4180 -0.7868
21314SOL     OW66383   1.308   7.401   1.997 -0.3805  0.3624  0.3251
21314SOL    HW166384   1.231   7.451   2.022  0.1744  1.1889  0.4305
21314SOL    HW266385   1.310   7.327   2.058 -0.8776  0.5394  0.5590
21315SOL     OW66386   6.652   5.805  10.178 -0.1182 -0.3031 -0.1209
21315SOL    HW166387   6.689   5.724  10.143  0.0496  0.3612 -1.5622
21315SOL    HW266388   6.727   5.855  10.208 -0.1611 -0.4056  0.1566
21316SOL     OW66389   7.738   2.977   1.538 -0.0667 -0.3165  0.2773
21316SOL    HW166390   7.658   2.987   1.487 -1.8803 -1.7929  2.6334
21316SOL    HW266391   7.744   2.883   1.556  1.8688 -0.1635  0.7106
21317SOL     OW66392   8.362   7.672   1.962 -0.0392 -0.2433 -0.1776
21317SOL    HW166393   8.324   7.593   1.924 -1.0143 -1.0476  2.2795
21317SOL    HW266394   8.455   7.667   1.941 -0.3286 -1.2362 -1.3508
21318SOL     OW66395   0.212   3.648   6.019  0.3024  0.1795 -0.0403
21318SOL    HW166396   0.136   3.697   5.986  0.9186  1.4477  0.3426
21318SOL    HW266397   0.177   3.562   6.043 -1.4309  1.3439  1.9148
21319SOL     OW66398   5.044   6.487   9.404  0.4065  0.2506 -0.4597
21319SOL    HW166399   5.106   6.525   9.342  1.1077 -0.2406 -0.0750
21319SOL    HW266400   5.042   6.550   9.477 -0.7088  1.0211 -1.1196
21320SOL     OW66401   7.867   0.056   3.693 -0.0423  0.8532 -0.4252
21320SOL    HW166402   7.927   0.067   3.767  0.9075  0.3842 -1.0938
21320SOL    HW266403   7.910   0.103   3.621 -0.8490  1.1290 -0.7345
21321SOL     OW66404   8.058   4.604   8.250  0.2582  0.1341 -0.0136
21321SOL    HW166405   8.078   4.689   8.211  2.5330  0.2155  1.1676
21321SOL    HW266406   8.002   4.625   8.325 -0.5950  0.3853 -0.6984
21322SOL     OW66407   0.105   9.919   2.913 -0.4993 -0.2285 -0.0575
21322SOL    HW166408   0.158   9.843   2.891  1.8645  0.2561  3.1347
21322SOL    HW266409   0.098   9.917   3.009  0.4172  3.8986  0.3263
21323SOL     OW66410   5.031   9.954   7.355 -0.3020 -0.4238  0.1723
21323SOL    HW166411   5.003   9.887   7.293  1.8401 -3.0005  1.7439
21323SOL    HW266412   4.985   9.932   7.436  1.2492 -0.7534  1.0044
21324SOL     OW66413  10.059   5.681   2.185  0.0028  0.1388 -0.0427
21324SOL    HW166414  10.002   5.755   2.168 -0.3823 -0.0712  0.3098
21324SOL    HW266415  10.037   5.617   2.118 -0.9492 -0.3698  0.7187
21325SOL     OW66416   7.994   4.758   5.541  0.2478  0.4735  0.1154
21325SOL    HW166417   7.943   4.792   5.614  1.5013 -0.2059  1.3475
21325SOL    HW266418   7.962   4.807   5.465 -1.6344  0.6507  0.9482
21326SOL     OW66419   0.827   7.992   1.248  0.2023 -0.1732  0.0538
21326SOL    HW166420   0.788   8.016   1.164 -0.0455 -0.1726  0.1684
21326SOL    HW266421   0.753   7.970   1.304  0.3557 -0.0180  0.3226
21327SOL     OW66422   8.107   8.035   2.398 -0.2378  0.5548  0.2485
21327SOL    HW166423   8.026   8.082   2.381 -0.7229 -0.5323 -0.5772
21327SOL    HW266424   8.079   7.948   2.426  0.6409  0.6371  1.4874
21328SOL     OW66425   6.256   0.102   8.085  1.0188 -0.0912  0.0696
21328SOL    HW166426   6.259   0.016   8.042  0.6342  0.1598 -0.4611
21328SOL    HW266427   6.306   0.159   8.028  2.1583 -0.1730  0.9387
21329SOL     OW66428   9.064  10.133   6.828 -0.3069 -0.4339  0.5964
21329SOL    HW166429   9.132  10.071   6.853 -0.5302  0.2479  3.1657
21329SOL    HW266430   8.984  10.101   6.870 -0.9519  0.3204 -0.0106
21330SOL     OW66431   5.708   8.274   8.536  0.2502 -0.4938  0.1492
21330SOL    HW166432   5.681   8.187   8.563 -0.0024  0.0700  1.8577
21330SOL    HW266433   5.699   8.328   8.615 -0.4548  1.2739 -1.0540
21331SOL     OW66434   4.760  10.258   5.443  0.2859  0.2547  0.2216
21331SOL    HW166435   4.738  10.219   5.528 -0.4083  2.7013  1.2506
21331SOL    HW266436   4.754  10.352   5.458  1.3009  0.7848 -2.2737
21332SOL     OW66437   5.887   0.392   5.749 -0.2688  0.0427  0.6427
21332SOL    HW166438   5.866   0.466   5.693  1.7580 -1.7952 -2.9470
21332SOL    HW266439   5.807   0.340   5.750 -1.1058  1.3033  1.6062
21333SOL     OW66440   5.940   8.377   2.612  0.6224 -0.1870 -0.3757
21333SOL    HW166441   5.898   8.440   2.554  3.4749  1.1197 -1.2192
21333SOL    HW266442   6.002   8.429   2.664  0.1928 -1.7544  1.8467
21334SOL     OW66443   2.255   3.087   6.692  0.1251 -0.0850  0.3491
21334SOL    HW166444   2.160   3.080   6.701  0.0984 -2.1135 -0.8881
21334SOL    HW266445   2.289   3.037   6.767  0.2025  0.0245  0.3858
21335SOL     OW66446   8.517   9.428   5.391  0.0628 -0.0813  0.0084
21335SOL    HW166447   8.587   9.419   5.326 -1.6978 -1.8103 -1.7997
21335SOL    HW266448   8.461   9.496   5.355  0.3476  0.7076  1.0262
21336SOL     OW66449   2.275   6.649   2.915  0.6159 -0.0176 -0.3157
21336SOL    HW166450   2.267   6.567   2.964 -0.1143  0.5477  0.5441
21336SOL    HW266451   2.186   6.685   2.914  0.8031  0.4372 -1.2668
21337SOL     OW66452   4.819   3.033   8.714  1.3205 -0.2413 -0.3270
21337SOL    HW166453   4.848   2.945   8.690 -1.2278 -1.5185  0.9547
21337SOL    HW266454   4.729   3.022   8.744  0.1806  3.1342 -2.0115
21338SOL     OW66455   2.056   6.321   3.518 -0.0151  0.5594 -0.3219
21338SOL    HW166456   1.978   6.371   3.543 -1.3478 -0.9597 -1.2661
21338SOL    HW266457   2.028   6.230   3.520  1.6570 -0.0025 -1.0104
21339SOL     OW66458   6.851   3.333   4.982 -0.4098  0.1607 -0.3493
21339SOL    HW166459   6.928   3.385   5.002  0.8254 -1.6120 -0.2119
21339SOL    HW266460   6.806   3.324   5.066 -0.1520  0.2649 -0.1993
21340SOL     OW66461   3.925  10.460   4.933 -0.4046 -0.2982 -0.1033
21340SOL    HW166462   3.851  10.402   4.917 -1.5631  0.8579  0.7533
21340SOL    HW266463   3.909  10.536   4.876 -2.8602  2.3803  3.6280
21341SOL     OW66464   2.045   2.568   9.213 -0.0887 -0.3997  0.1313
21341SOL    HW166465   1.989   2.527   9.148  0.1260 -0.5055  0.0124
21341SOL    HW266466   2.134   2.552   9.182 -0.0125  0.5460 -0.1573
21342SOL     OW66467   3.484   6.676   2.742 -0.5657  0.0609  0.6086
21342SOL    HW166468   3.461   6.597   2.790  1.5811 -1.3878 -0.5394
21342SOL    HW266469   3.512   6.739   2.809 -0.4977 -0.8370  1.4320
21343SOL     OW66470   8.013   9.317   8.745 -0.7056  0.0929 -0.8837
21343SOL    HW166471   7.943   9.320   8.810 -0.4140 -1.8922 -0.4236
21343SOL    HW266472   7.972   9.275   8.669 -0.0601 -1.0541 -0.6204
21344SOL     OW66473   6.191   1.415   9.202 -0.8605 -0.1050  0.5457
21344SOL    HW166474   6.145   1.477   9.146  0.2026  0.4045  0.2097
21344SOL    HW266475   6.184   1.331   9.156  0.9125  0.5077 -0.9457
21345SOL     OW66476   2.984   1.933   8.212 -0.2031 -0.1255 -0.0877
21345SOL    HW166477   3.071   1.898   8.197 -0.4396 -0.4771 -0.7022
21345SOL    HW266478   2.954   1.892   8.293  0.1752 -0.0458  0.0933
21346SOL     OW66479   8.053   4.188  10.424  0.3613  0.2736 -0.8097
21346SOL    HW166480   7.965   4.183  10.461  0.4410 -0.5922 -0.7145
21346SOL    HW266481   8.110   4.154  10.494  0.6752  0.0566 -1.1697
21347SOL     OW66482   1.935   9.616   8.946  0.1559  0.8598 -0.0598
21347SOL    HW166483   1.944   9.553   9.017  2.3269  0.3090 -0.7630
21347SOL    HW266484   2.024   9.642   8.925 -0.5382  2.2392 -1.5238
21348SOL     OW66485   8.771   8.184   1.102 -0.5006  0.3603  0.1997
21348SOL    HW166486   8.725   8.111   1.060  1.3700 -0.1480 -1.1009
21348SOL    HW266487   8.781   8.156   1.193  0.0587 -0.9831 -0.2401
21349SOL     OW66488   1.463   0.107   0.700  0.6754 -0.1875 -0.4127
21349SOL    HW166489   1.520   0.055   0.643  0.3681 -2.0159  0.8499
21349SOL    HW266490   1.479   0.071   0.788 -2.6389 -1.0154 -0.0450
21350SOL     OW66491   6.644   9.650  10.123  0.2144  0.3426  0.0846
21350SOL    HW166492   6.608   9.660  10.212 -0.8105 -0.0007 -0.2773
21350SOL    HW266493   6.606   9.568  10.091  0.0797  0.7828 -0.9021
21351SOL     OW66494   4.369   2.486   9.521  0.1828 -0.4511  0.6575
21351SOL    HW166495   4.286   2.529   9.499  0.9368  0.2185 -1.0647
21351SOL    HW266496   4.345   2.394   9.533 -0.6884 -0.4644 -0.8554
21352SOL     OW66497   7.205   6.306   9.140  0.2095 -0.0961 -0.0315
21352SOL    HW166498   7.286   6.354   9.150  1.0974 -1.3903 -0.6828
21352SOL    HW266499   7.208   6.270   9.051 -1.4344  0.4517 -0.3539
21353SOL     OW66500   0.915   8.171   2.694  0.5324 -0.1874  0.3250
21353SOL    HW166501   0.913   8.182   2.599  0.2224 -1.3447  0.1799
21353SOL    HW266502   0.983   8.231   2.724  0.5546  0.2726 -0.6117
21354SOL     OW66503   8.991   0.313   8.678 -0.5631 -0.1048  0.6033
21354SOL    HW166504   8.952   0.231   8.707 -1.1606  0.1445  0.5224
21354SOL    HW266505   9.058   0.333   8.743 -0.2216 -0.8008  0.4668
21355SOL     OW66506  10.003   0.084   2.421  0.1225  0.0816  0.5729
21355SOL    HW166507  10.049   0.062   2.502 -0.6288  0.8298  1.2215
21355SOL    HW266508  10.052   0.158   2.385 -0.0925  0.3531  0.8363
21356SOL     OW66509   7.843   3.003   2.829  0.7162  0.2627  0.0179
21356SOL    HW166510   7.860   2.980   2.737  2.8180  0.4015  0.3076
21356SOL    HW266511   7.764   2.955   2.852 -0.7779  1.4463 -2.2936
21357SOL     OW66512   3.794   4.329   9.735  0.1866 -0.5369 -0.2795
21357SOL    HW166513   3.748   4.361   9.657 -1.9069  3.2760  2.2145
21357SOL    HW266514   3.885   4.355   9.720 -0.2128  0.3465 -1.3365
21358SOL     OW66515   8.514   4.369   9.731  0.4134  0.3742  0.6085
21358SOL    HW166516   8.483   4.458   9.748 -0.9107  0.6718 -2.6043
21358SOL    HW266517   8.512   4.326   9.816 -1.0339  2.7926  1.9097
21359SOL     OW66518   2.305   0.747   7.374 -0.0715  0.0839  0.4677
21359SOL    HW166519   2.286   0.724   7.283 -2.9058  1.3912  0.6498
21359SOL    HW266520   2.237   0.704   7.425  1.1493 -0.1699  1.9542
21360SOL     OW66521  10.393   9.446   2.460  0.4502 -0.3635  0.1884
21360SOL    HW166522  10.367   9.385   2.529  0.4056 -0.2507  0.2729
21360SOL    HW266523  10.310   9.478   2.424  0.4700 -0.9671 -0.4093
21361SOL     OW66524   2.285   6.426   5.265 -0.4908  0.3823 -0.1183
21361SOL    HW166525   2.216   6.361   5.278  0.5158 -0.7627 -0.2268
21361SOL    HW266526   2.260   6.500   5.320 -0.2937 -1.1960  2.2378
21362SOL     OW66527   6.583   5.266   1.401  0.4129 -0.5166  0.2707
21362SOL    HW166528   6.498   5.246   1.361  0.1285 -0.9238  1.0555
21362SOL    HW266529   6.570   5.251   1.494  0.9001  1.0021  0.6080
21363SOL     OW66530   6.080   6.030   4.328  0.3468 -0.1542  0.1586
21363SOL    HW166531   6.034   5.955   4.290  1.4547 -1.1258  0.6496
21363SOL    HW266532   6.011   6.090   4.356 -0.5991 -1.3562  0.4693
21364SOL     OW66533   7.618   9.970   6.371  0.4419 -0.4339  0.0046
21364SOL    HW166534   7.547   9.916   6.337 -0.8613  0.8743  0.5110
21364SOL    HW266535   7.658  10.009   6.294 -0.7303  0.3931 -0.2159
21365SOL     OW66536   3.699   5.651   8.357 -0.2330 -0.4721  0.2159
21365SOL    HW166537   3.623   5.593   8.367 -1.2811  1.0034  1.1941
21365SOL    HW266538   3.772   5.591   8.339 -1.6030 -1.9367 -0.7861
21366SOL     OW66539   5.601   4.363   0.522 -0.2112  0.3786  0.0875
21366SOL    HW166540   5.615   4.300   0.592  0.6581  1.8349  1.2814
21366SOL    HW266541   5.507   4.381   0.524 -0.1882  0.4550  0.9537
21367SOL     OW66542   8.094   0.464   5.044  0.0326  0.5112  0.3241
21367SOL    HW166543   8.126   0.539   5.095  1.0406  1.1548 -1.1695
21367SOL    HW266544   8.137   0.473   4.959  1.0014 -2.3560  0.4086
21368SOL     OW66545   7.245   3.872   5.281  0.1805 -0.3183  0.8677
21368SOL    HW166546   7.169   3.851   5.335 -0.5811  0.1359  0.0026
21368SOL    HW266547   7.288   3.944   5.326 -0.8472  0.5291  0.5145
21369SOL     OW66548   6.371   3.412   4.554  0.0915 -0.5589  0.3698
21369SOL    HW166549   6.298   3.360   4.589 -1.5358  0.1679 -1.7778
21369SOL    HW266550   6.413   3.354   4.490 -1.0040  0.2782 -1.1679
21370SOL     OW66551   9.921   1.574   0.545 -1.0077  0.3671 -0.0574
21370SOL    HW166552   9.944   1.649   0.490  1.3926  0.7866  1.3602
21370SOL    HW266553   9.989   1.572   0.612 -2.7615 -1.2339  1.8058
21371SOL     OW66554   8.191   6.228   3.569 -0.3060  0.1413 -0.0790
21371SOL    HW166555   8.136   6.304   3.555 -0.7879 -0.0999  0.4677
21371SOL    HW266556   8.222   6.236   3.659  1.5310  0.8899 -0.7311
21372SOL     OW66557   5.448   1.127   9.363  0.0815 -0.0282  0.3069
21372SOL    HW166558   5.460   1.150   9.455 -0.1688 -0.0961  0.3573
21372SOL    HW266559   5.431   1.033   9.363  1.4327 -0.2913  0.0730
21373SOL     OW66560   4.106   3.153   4.106  0.0815  0.4614 -0.0560
21373SOL    HW166561   4.124   3.246   4.090 -1.0279  0.5504 -0.9543
21373SOL    HW266562   4.171   3.126   4.171  1.4053  1.4748 -0.9190
21374SOL     OW66563   6.177   1.427   4.165  0.0622  0.4946  0.1851
21374SOL    HW166564   6.208   1.371   4.236 -0.1767  0.5214  0.3111
21374SOL    HW266565   6.255   1.444   4.112 -0.1734 -1.3954 -0.8602
21375SOL     OW66566   6.158   4.438   0.339  0.2657  0.1902 -0.2821
21375SOL    HW166567   6.098   4.376   0.380  0.4984  0.5491  0.6323
21375SOL    HW266568   6.170   4.506   0.405  0.5499  0.8522 -1.0142
21376SOL     OW66569   5.383  10.480   8.322 -0.3073  0.2896  0.2317
21376SOL    HW166570   5.446  10.482   8.395 -0.3086  1.5297  0.2200
21376SOL    HW266571   5.328  10.557   8.336 -0.7093  0.1862 -0.7399
21377SOL     OW66572   9.787  10.243   9.823 -0.3394  0.5442 -0.5091
21377SOL    HW166573   9.782  10.308   9.752  3.2588  0.4079 -1.0352
21377SOL    HW266574   9.824  10.291   9.896 -0.4439 -0.2462  0.0671
21378SOL     OW66575   9.033   0.428   9.164 -0.0961 -0.0340 -0.2106
21378SOL    HW166576   8.973   0.474   9.105 -2.6305 -1.9675  0.6696
21378SOL    HW266577   9.024   0.474   9.248 -0.6639 -0.5202  0.0062
21379SOL     OW66578   8.306   9.742   8.276  0.5131  0.3880  0.5408
21379SOL    HW166579   8.220   9.781   8.292 -0.9234 -2.2332 -0.2362
21379SOL    HW266580   8.301   9.707   8.187  0.7467 -3.4597  1.8509
21380SOL     OW66581   4.443   3.382   4.821  0.3906  0.4098 -0.3147
21380SOL    HW166582   4.480   3.354   4.905  0.2731 -2.6479 -1.1681
21380SOL    HW266583   4.519   3.388   4.762  0.1510 -0.6417 -0.7514
21381SOL     OW66584   0.300   0.142   1.277 -0.2851 -0.2865 -0.0958
21381SOL    HW166585   0.292   0.049   1.297  2.0470 -0.4521  0.4325
21381SOL    HW266586   0.264   0.186   1.354  2.3701 -0.8763  1.6371
21382SOL     OW66587   4.062   9.559   5.053  0.2632  0.5653  0.3438
21382SOL    HW166588   4.040   9.558   5.146 -0.5368 -0.1496  0.1631
21382SOL    HW266589   3.995   9.504   5.012  1.1782  0.0800 -0.5300
21383SOL     OW66590   2.000   2.290   0.291 -0.2636 -0.1624 -0.2880
21383SOL    HW166591   2.018   2.363   0.231  0.8432 -0.5006 -0.3897
21383SOL    HW266592   1.983   2.216   0.233  1.9989 -0.7877 -0.2618
21384SOL     OW66593   9.228   4.299  10.451  0.0173  0.4427  0.1236
21384SOL    HW166594   9.184   4.355  10.387 -1.0975 -0.2735  0.2301
21384SOL    HW266595   9.291   4.356  10.494 -0.3750  1.3484 -0.4822
21385SOL     OW66596   8.402   8.965   3.595  0.3913  0.3260 -0.0884
21385SOL    HW166597   8.416   9.059   3.591 -2.0686  0.8106  0.5739
21385SOL    HW266598   8.356   8.951   3.678  2.0565 -1.7120  0.6032
21386SOL     OW66599   4.330   6.088   8.843  0.2104 -0.3202  0.3783
21386SOL    HW166600   4.319   5.995   8.863 -2.1609 -0.1026  0.2850
21386SOL    HW266601   4.337   6.130   8.928 -1.5397 -0.3012  0.5312
21387SOL     OW66602   4.638   7.839   8.092 -0.1165  1.2079  0.1638
21387SOL    HW166603   4.714   7.808   8.044  0.2186  0.9822  0.8345
21387SOL    HW266604   4.661   7.928   8.119 -0.1235  1.1672  0.3033
21388SOL     OW66605   3.088   9.016   4.738  0.0927  0.0243  0.1176
21388SOL    HW166606   3.174   9.054   4.758 -0.2496  1.0032 -0.2219
21388SOL    HW266607   3.026   9.074   4.782 -0.4300 -0.2829 -0.2146
21389SOL     OW66608   6.625   7.809   0.176 -0.0986 -0.2632  0.0187
21389SOL    HW166609   6.647   7.717   0.158 -1.1724 -0.6977  0.8111
21389SOL    HW266610   6.623   7.815   0.272  0.8579  0.8335 -0.0032
21390SOL     OW66611   1.291   1.285   9.224 -0.2488  0.2946  0.2447
21390SOL    HW166612   1.355   1.354   9.241  0.4796 -0.3613  0.2619
21390SOL    HW266613   1.207   1.323   9.248 -0.0291  1.6140 -0.9770
21391SOL     OW66614   7.623   1.677   0.491  0.5771  0.3723  0.5594
21391SOL    HW166615   7.660   1.601   0.535  1.3096  0.7156  0.5433
21391SOL    HW266616   7.541   1.694   0.537  0.7723  0.0248  1.0447
21392SOL     OW66617   2.425   6.968   0.817  0.2409  0.6695  0.0809
21392SOL    HW166618   2.415   6.876   0.794  0.1321  0.9226 -0.9399
21392SOL    HW266619   2.338   6.994   0.849  0.4950  0.2177  1.1902
21393SOL     OW66620   7.262   7.177   5.962  0.2787 -0.3786  0.0031
21393SOL    HW166621   7.249   7.090   5.924 -0.1782 -0.7239  0.9367
21393SOL    HW266622   7.301   7.228   5.891  1.0573 -1.4900 -0.3845
21394SOL     OW66623   3.334   8.282   6.781 -0.3276 -0.5062  0.0252
21394SOL    HW166624   3.263   8.245   6.729 -0.4404  0.1835 -0.3296
21394SOL    HW266625   3.409   8.283   6.721 -0.4989  0.4400 -0.1963
21395SOL     OW66626   7.429  10.328   2.402  0.6467 -0.1217 -0.0095
21395SOL    HW166627   7.347  10.376   2.409  0.9673  0.3254  0.8324
21395SOL    HW266628   7.406  10.237   2.420  0.2769 -0.0590 -0.1636
21396SOL     OW66629   4.397   8.987   7.561 -0.4418 -0.0446 -0.0090
21396SOL    HW166630   4.333   8.919   7.540 -1.5685  1.7633 -3.0606
21396SOL    HW266631   4.418   9.027   7.477  0.7807  2.8683  1.5466
21397SOL     OW66632   6.723   8.649   4.296 -0.3770 -0.2028  0.0980
21397SOL    HW166633   6.806   8.624   4.256  0.9516  0.8740  2.0621
21397SOL    HW266634   6.700   8.576   4.353  0.7804  0.6956  1.7867
21398SOL     OW66635   5.264   9.732   0.937  0.4552  0.2550  0.1381
21398SOL    HW166636   5.306   9.733   0.850  0.6975 -0.0518  0.2499
21398SOL    HW266637   5.195   9.798   0.931 -1.0382 -1.3264 -1.0283
21399SOL     OW66638   6.817   3.577   8.412  0.0377  0.3477 -0.3185
21399SOL    HW166639   6.789   3.647   8.471 -1.0217  2.0865 -2.7063
21399SOL    HW266640   6.755   3.506   8.427  1.9836 -0.8549  3.1871
21400SOL     OW66641   5.621   9.306   6.226  0.4037 -0.0565 -0.4155
21400SOL    HW166642   5.565   9.240   6.186  1.6420 -0.0766 -2.1927
21400SOL    HW266643   5.598   9.304   6.319 -0.4597 -2.0969 -0.6360
21401SOL     OW66644   1.752   4.298   1.013  0.0610 -0.3070  0.1268
21401SOL    HW166645   1.796   4.353   0.948 -0.4891 -0.4149 -0.3366
21401SOL    HW266646   1.813   4.226   1.028  0.0622 -0.4318 -0.4799
21402SOL     OW66647   5.894   0.144   4.065 -0.1058  0.0716  0.2964
21402SOL    HW166648   5.908   0.234   4.037  1.5543 -0.0827  0.5801
21402SOL    HW266649   5.905   0.092   3.985  1.4205 -0.0827  0.5878
21403SOL     OW66650  10.380   3.796   7.893  0.2466 -0.0803  0.1023
21403SOL    HW166651  10.289   3.809   7.920  0.3503  0.7663  0.0420
21403SOL    HW266652  10.417   3.883   7.889  1.0521 -0.4187  0.0583
21404SOL     OW66653   2.551   1.169   0.173  0.6512  0.6868  0.2577
21404SOL    HW166654   2.566   1.113   0.249  1.2384 -1.8910 -1.5892
21404SOL    HW266655   2.471   1.134   0.134 -0.1107  2.5069  0.1150
21405SOL     OW66656   8.147   5.141   9.400 -0.1673  0.3758 -0.2538
21405SOL    HW166657   8.151   5.212   9.335  1.1720  0.8611  0.3187
21405SOL    HW266658   8.064   5.096   9.382  0.5897 -0.0932 -2.8908
21406SOL     OW66659   7.250   8.861   7.264  0.1493 -0.8102 -0.4281
21406SOL    HW166660   7.314   8.900   7.323 -1.0253  0.1028  0.2810
21406SOL    HW266661   7.229   8.930   7.201 -2.0758 -0.1281  0.9445
21407SOL     OW66662   1.399  10.014   5.813  0.1827  0.9542  0.5102
21407SOL    HW166663   1.398  10.023   5.718 -0.0204  1.2315  0.5386
21407SOL    HW266664   1.312  10.040   5.841 -0.0912 -0.1048  0.6918
21408SOL     OW66665   8.011   7.962   1.464 -0.5078  0.5647 -0.0150
21408SOL    HW166666   8.007   7.979   1.370  0.5945  1.7130  0.1027
21408SOL    HW266667   7.993   8.047   1.504  0.2286  0.3691  0.7725
21409SOL     OW66668   8.876   3.272   6.965  0.0218 -0.5263  0.0248
21409SOL    HW166669   8.874   3.367   6.973 -1.2493 -0.5460  0.2180
21409SOL    HW266670   8.966   3.251   6.939 -0.2622  0.9071 -2.3803
21410SOL     OW66671   0.484   7.705   1.116  0.2921  0.0389 -0.0806
21410SOL    HW166672   0.443   7.680   1.033  0.1760 -0.0519  0.0025
21410SOL    HW266673   0.560   7.647   1.123  0.5342  0.3284 -0.3188
21411SOL     OW66674   4.023   9.190   3.762 -0.1696 -1.2403 -0.3357
21411SOL    HW166675   3.950   9.145   3.805 -1.1765 -0.3295 -1.0349
21411SOL    HW266676   4.002   9.186   3.669 -0.9079  1.5875 -0.3912
21412SOL     OW66677   7.796   5.944   6.851  0.3827 -0.0464  0.2188
21412SOL    HW166678   7.824   5.991   6.929  0.1628  1.0323 -0.3389
21412SOL    HW266679   7.863   5.964   6.785 -0.4008  0.5836 -0.4125
21413SOL     OW66680  10.127   6.493   8.210  0.2291  0.0038 -0.5129
21413SOL    HW166681  10.064   6.539   8.265  1.2147  1.6400 -0.6657
21413SOL    HW266682  10.114   6.530   8.123  0.7933 -0.2899 -0.7263
21414SOL     OW66683   9.160   6.010   2.142 -0.0091 -0.5342  0.0156
21414SOL    HW166684   9.207   5.928   2.129  1.4635  0.4000 -0.8249
21414SOL    HW266685   9.225   6.070   2.177 -0.4235  0.9387 -1.6178
21415SOL     OW66686  10.401   9.166   7.550 -0.1989 -0.2666  0.3071
21415SOL    HW166687  10.462   9.194   7.481  0.7525 -0.9186  0.8503
21415SOL    HW266688  10.376   9.247   7.595  0.8259 -0.0465  0.5102
21416SOL     OW66689   5.007   2.446   1.345  0.1422 -0.0880 -0.1468
21416SOL    HW166690   5.100   2.452   1.365  0.0792 -0.0173  0.1346
21416SOL    HW266691   4.964   2.499   1.412 -0.1673 -0.8680  0.2862
21417SOL     OW66692   0.365   3.197   0.698 -0.6693  0.5791 -0.0053
21417SOL    HW166693   0.451   3.159   0.720 -1.5543 -1.1281  0.6652
21417SOL    HW266694   0.334   3.235   0.780  0.0687  2.5681 -0.6003
21418SOL     OW66695   3.722   4.278   7.652 -0.0220 -0.1203 -0.2031
21418SOL    HW166696   3.655   4.309   7.591 -0.4758 -1.5229 -0.4693
21418SOL    HW266697   3.694   4.309   7.738 -0.3715  0.3207 -0.4763
21419SOL     OW66698   3.878   4.741   9.057 -0.1682 -0.4041 -0.1352
21419SOL    HW166699   3.862   4.806   9.125 -1.7477  0.7395 -1.5132
21419SOL    HW266700   3.810   4.675   9.071 -0.8014  0.0785 -0.8545
21420SOL     OW66701   5.266   0.521   3.523 -0.3153 -0.1808 -0.4465
21420SOL    HW166702   5.224   0.435   3.521  0.5258 -0.6919  1.3110
21420SOL    HW266703   5.359   0.502   3.510 -0.0197  0.3574  0.7347
21421SOL     OW66704   0.243   4.175   0.650 -0.1219  0.4579  0.4424
21421SOL    HW166705   0.314   4.147   0.708  0.5887  0.8826 -0.2077
21421SOL    HW266706   0.279   4.165   0.562 -1.0402  0.2342  0.0854
21422SOL     OW66707   3.823   2.873   0.485  0.1527 -0.5203 -0.1843
21422SOL    HW166708   3.785   2.910   0.406  1.2758 -1.3706 -1.1604
21422SOL    HW266709   3.871   2.945   0.525  0.8811 -0.4526 -1.1386
21423SOL     OW66710   7.877   0.468   1.820  0.5397 -0.1904  0.2321
21423SOL    HW166711   7.966   0.505   1.822 -0.1489  1.7064 -1.0326
21423SOL    HW266712   7.820   0.542   1.841 -0.8164 -1.1413  0.0438
21424SOL     OW66713   1.318   3.760  10.159  0.1506  0.6190  0.0628
21424SOL    HW166714   1.328   3.855  10.150  0.6842  0.5766  0.2034
21424SOL    HW266715   1.380   3.736  10.228 -1.6324  0.4936  1.7000
21425SOL     OW66716   0.123   2.081   0.977 -0.2975 -0.0633  0.6014
21425SOL    HW166717   0.172   2.009   0.938  1.1941  1.4583 -0.4657
21425SOL    HW266718   0.058   2.104   0.910  1.1206  1.4098 -0.3310
21426SOL     OW66719   0.714   3.415   5.466  0.1122  0.4599  0.2973
21426SOL    HW166720   0.776   3.446   5.400  1.0843  0.7507  1.3069
21426SOL    HW266721   0.684   3.494   5.511 -0.9643  0.3156 -0.1394
21427SOL     OW66722   5.504   2.658   0.750 -0.0831  0.2780  0.1550
21427SOL    HW166723   5.567   2.657   0.677  1.3809  3.1049  1.2226
21427SOL    HW266724   5.542   2.599   0.815 -0.7269 -1.2368 -0.7878
21428SOL     OW66725   1.136   8.665   6.502 -0.2280  0.6464  0.0945
21428SOL    HW166726   1.128   8.725   6.576 -2.4145  1.0894 -0.4108
21428SOL    HW266727   1.140   8.722   6.425  2.1424  0.1952 -0.1974
21429SOL     OW66728   0.058   2.865   5.402  0.3816  0.2021 -0.2765
21429SOL    HW166729  -0.034   2.891   5.408  0.2190  0.0589 -1.8007
21429SOL    HW266730   0.107   2.945   5.419 -0.0013  0.1513  1.1441
21430SOL     OW66731   0.795   6.380  10.314  0.5871 -0.0448 -0.1244
21430SOL    HW166732   0.741   6.375  10.393  1.4133  1.0250  0.5420
21430SOL    HW266733   0.732   6.387  10.243 -0.1869 -1.5780  0.3649
21431SOL     OW66734   5.122   4.962   3.427 -0.1724 -0.4947  0.2233
21431SOL    HW166735   5.210   4.996   3.438 -0.4703  0.0539  0.9809
21431SOL    HW266736   5.085   4.962   3.516 -1.6917  1.3819 -0.3394
21432SOL     OW66737   3.543   9.772   3.535 -0.4144  0.3917  0.2631
21432SOL    HW166738   3.450   9.762   3.516 -0.8523 -0.5795  2.5888
21432SOL    HW266739   3.586   9.758   3.451 -2.2893 -0.5590 -0.6085
21433SOL     OW66740   9.627   1.803   3.714 -0.0744 -0.1102 -1.0084
21433SOL    HW166741   9.714   1.841   3.701 -0.3613  0.9872  0.0178
21433SOL    HW266742   9.581   1.818   3.631  0.7442 -0.8199 -1.6039
21434SOL     OW66743   2.212  10.467  10.465 -0.7596  1.0661 -0.3186
21434SOL    HW166744   2.125  10.427  10.474 -0.6012  0.9571  0.9679
21434SOL    HW266745   2.273  10.397  10.491 -0.2729  1.0899 -1.3692
21435SOL     OW66746   2.724   3.170   1.642  0.1342  0.0344 -0.0188
21435SOL    HW166747   2.649   3.190   1.697 -0.0106  1.8950 -0.8236
21435SOL    HW266748   2.765   3.094   1.684 -1.5791 -0.3708  1.0095
21436SOL     OW66749  10.399  10.161   5.684  0.3099 -0.2660  0.5011
21436SOL    HW166750  10.448  10.116   5.752  2.2348 -0.8243 -1.1408
21436SOL    HW266751  10.450  10.147   5.604 -1.0792  1.5626 -0.8097
21437SOL     OW66752   7.769   8.422   7.794  0.2970 -0.6440 -0.5719
21437SOL    HW166753   7.833   8.458   7.732  0.6413 -1.2034 -0.5472
21437SOL    HW266754   7.689   8.412   7.743  0.2484 -0.0390 -0.6307
21438SOL     OW66755   0.509   8.816   4.338 -0.0978 -0.1566  0.1074
21438SOL    HW166756   0.421   8.796   4.372 -0.3850  0.1314 -0.4488
21438SOL    HW266757   0.569   8.777   4.402 -0.6267  0.0749  0.7629
21439SOL     OW66758   5.844  10.083  10.371 -0.1553 -0.0452  0.1975
21439SOL    HW166759   5.774  10.071  10.436  0.2841 -3.1262  0.2415
21439SOL    HW266760   5.884   9.997  10.363  1.7393  0.9431 -2.0372
21440SOL     OW66761   3.406   8.609   2.792 -0.1000 -0.5238  0.3911
21440SOL    HW166762   3.317   8.589   2.763  0.1715  0.6872 -1.4960
21440SOL    HW266763   3.405   8.704   2.807  0.5056 -0.7266  1.8067
21441SOL     OW66764   8.994   1.330   3.074 -0.4926  0.0551  0.6070
21441SOL    HW166765   8.909   1.303   3.038  0.2395 -1.3093 -0.1949
21441SOL    HW266766   8.980   1.333   3.168 -1.2392 -0.9555  0.5524
21442SOL     OW66767   2.770  10.275   3.115 -0.4999 -0.2107 -0.2871
21442SOL    HW166768   2.758  10.309   3.026  0.7044 -2.5563 -1.4412
21442SOL    HW266769   2.817  10.193   3.103 -0.9962 -1.0058  2.4969
21443SOL     OW66770   4.170   6.196   1.208 -0.4895 -0.0774 -0.4853
21443SOL    HW166771   4.133   6.109   1.220 -1.4834  0.4798  0.6394
21443SOL    HW266772   4.223   6.211   1.286 -1.3480  0.8107 -0.0488
21444SOL     OW66773   3.795   1.926   5.139 -0.1339  0.2135  0.3621
21444SOL    HW166774   3.835   1.985   5.075 -0.0025  0.4861  0.6912
21444SOL    HW266775   3.729   1.979   5.184 -0.8493 -0.2230 -0.1515
21445SOL     OW66776   1.725   6.251   2.632  0.1656 -0.0831 -0.0731
21445SOL    HW166777   1.679   6.329   2.602  1.1364 -0.2124 -2.0483
21445SOL    HW266778   1.657   6.185   2.644 -0.7285  1.1234  2.0722
21446SOL     OW66779   3.847   4.550   6.882  0.3260  0.0636  0.2142
21446SOL    HW166780   3.919   4.496   6.848 -0.0954 -0.5158  0.2245
21446SOL    HW266781   3.817   4.600   6.807  0.2295 -0.2723  0.0282
21447SOL     OW66782   2.297   1.431   1.557  0.1402  0.1083 -0.0476
21447SOL    HW166783   2.254   1.374   1.621 -0.3174  0.4864 -0.0162
21447SOL    HW266784   2.236   1.438   1.484 -0.0758  1.0283  0.2018
21448SOL     OW66785   2.010   2.886   2.906 -0.0048  0.1823 -0.0395
21448SOL    HW166786   1.919   2.884   2.876  0.5172 -0.0135 -1.6886
21448SOL    HW266787   2.007   2.936   2.988 -1.8609 -1.3567  0.9332
21449SOL     OW66788   0.706   9.905   6.992 -0.3004  0.2560 -0.7833
21449SOL    HW166789   0.694   9.810   6.994  0.9474  0.0728 -1.2007
21449SOL    HW266790   0.747   9.922   6.908 -0.6867  1.1913 -0.7834
21450SOL     OW66791   1.318   8.878   4.459 -0.2351 -0.4363  0.2436
21450SOL    HW166792   1.399   8.902   4.415  0.6085 -3.7147 -0.2789
21450SOL    HW266793   1.253   8.870   4.389 -0.2139 -0.7402  0.2570
21451SOL     OW66794   3.835   0.116   0.806  0.8561 -0.0864 -0.0391
21451SOL    HW166795   3.882   0.037   0.830  0.6877 -0.3141 -0.4541
21451SOL    HW266796   3.776   0.089   0.736  1.6912  0.6640 -1.0745
21452SOL     OW66797   0.952   5.592   7.178  0.0889 -0.0351  0.0783
21452SOL    HW166798   1.017   5.595   7.249  0.5007 -1.0379 -0.2412
21452SOL    HW266799   0.905   5.675   7.185 -0.3903 -0.4280  1.9983
21453SOL     OW66800   4.818   7.011   6.306  0.1166  0.3544 -0.2446
21453SOL    HW166801   4.841   7.097   6.272 -2.0447  0.7325 -0.9240
21453SOL    HW266802   4.801   6.958   6.229 -2.4359  0.5033  0.1416
21454SOL     OW66803   7.158   0.527   0.464 -0.8709  0.3825 -0.0385
21454SOL    HW166804   7.188   0.448   0.420  1.5829  1.2643 -0.1019
21454SOL    HW266805   7.169   0.597   0.399 -2.1428  0.9394  0.3107
21455SOL     OW66806   3.358   3.622   5.859 -0.1736  0.1128 -0.0162
21455SOL    HW166807   3.348   3.536   5.902  0.3731 -0.8183 -1.6550
21455SOL    HW266808   3.378   3.601   5.768  1.0517  1.9858 -0.2391
21456SOL     OW66809   2.753   6.336   5.949  0.0896  0.2526  0.0634
21456SOL    HW166810   2.843   6.305   5.965 -0.0158 -0.7510 -1.1866
21456SOL    HW266811   2.737   6.317   5.857 -1.4871  0.2403  0.3195
21457SOL     OW66812   7.626   2.614   7.715 -0.0855  0.5344 -0.0995
21457SOL    HW166813   7.562   2.677   7.681 -0.5756  0.4372  0.6276
21457SOL    HW266814   7.650   2.561   7.639 -1.0275  0.4359 -0.3342
21458SOL     OW66815   8.827   5.505   6.273 -0.6122 -0.0148 -0.5570
21458SOL    HW166816   8.782   5.461   6.202  0.7009 -0.7901 -0.9565
21458SOL    HW266817   8.914   5.464   6.275 -0.8612 -0.6006  2.0034
21459SOL     OW66818   8.779   3.091   8.209  0.1214 -0.1771 -0.3401
21459SOL    HW166819   8.751   3.062   8.122 -0.4197  1.9169 -0.9387
21459SOL    HW266820   8.708   3.064   8.267 -1.6829  2.1404 -1.3068
21460SOL     OW66821   8.727   2.230   3.074 -0.6454 -0.1406 -0.0132
21460SOL    HW166822   8.688   2.318   3.075  1.0949  0.6807  0.6423
21460SOL    HW266823   8.813   2.242   3.115  0.7133 -1.6398 -2.1905
21461SOL     OW66824  10.235   2.252   9.085  0.4915  0.2430  0.2108
21461SOL    HW166825  10.272   2.190   9.148  1.2149 -1.0165 -1.3566
21461SOL    HW266826  10.308   2.309   9.062  0.9484 -0.8615 -1.2561
21462SOL     OW66827   6.236   7.801   5.065 -0.8577 -0.2053  0.1185
21462SOL    HW166828   6.276   7.715   5.074 -2.0188 -0.6816  0.9224
21462SOL    HW266829   6.276   7.854   5.134  1.8031  0.7418 -1.9549
21463SOL     OW66830   3.416   1.688   8.552 -0.1254 -0.2314  0.3118
21463SOL    HW166831   3.410   1.729   8.638 -0.3892  1.6379 -0.5354
21463SOL    HW266832   3.482   1.740   8.505 -0.7837 -0.4969 -0.9691
21464SOL     OW66833   0.117   6.956   3.291  0.0758  0.2790  0.7992
21464SOL    HW166834   0.101   6.918   3.378 -0.2645  0.4707  0.8232
21464SOL    HW266835   0.211   6.947   3.278  0.3050  1.2462  1.6575
21465SOL     OW66836   4.110   0.434   6.583 -0.2499  0.1818  0.0961
21465SOL    HW166837   4.063   0.451   6.501  0.1358  0.7290 -0.0191
21465SOL    HW266838   4.136   0.342   6.577 -0.3314  0.1832 -0.3424
21466SOL     OW66839   5.997   4.781  10.318  0.3163  0.1471  0.5310
21466SOL    HW166840   5.996   4.749  10.409  1.2460 -0.3266  0.3949
21466SOL    HW266841   5.909   4.816  10.304  0.4750  1.2475  1.9709
21467SOL     OW66842   8.459   0.007   1.535  0.2679 -0.4122  0.6096
21467SOL    HW166843   8.536   0.048   1.495 -1.0059  2.4787  0.9368
21467SOL    HW266844   8.386   0.037   1.482 -0.8906 -1.2610  1.6797
21468SOL     OW66845   5.294   1.430   9.773  0.4884 -0.0297  0.0768
21468SOL    HW166846   5.215   1.377   9.762 -0.8495  1.8443  0.3513
21468SOL    HW266847   5.298   1.450   9.866  0.9959  0.3331 -0.0144
21469SOL     OW66848   4.024   6.328   8.033 -0.0820 -0.6990  0.7062
21469SOL    HW166849   4.096   6.389   8.020 -0.1756 -1.0045 -1.8073
21469SOL    HW266850   4.049   6.251   7.982 -2.7494 -0.2569 -1.5050
21470SOL     OW66851   0.832   1.175   3.309 -0.1615  0.0184  0.1035
21470SOL    HW166852   0.777   1.162   3.231 -1.2020 -1.6281  1.0598
21470SOL    HW266853   0.893   1.102   3.308  2.2076  1.8776 -0.9927
21471SOL     OW66854   4.433   1.722   5.719 -0.1119  0.1448  0.1121
21471SOL    HW166855   4.360   1.729   5.780  0.3624 -0.1256  0.7272
21471SOL    HW266856   4.487   1.651   5.754  2.0199  2.2432  1.3997
21472SOL     OW66857   0.244   0.477   7.167 -0.3480  0.1701 -0.3989
21472SOL    HW166858   0.324   0.427   7.151  0.4179  0.9638  0.7831
21472SOL    HW266859   0.178   0.410   7.183  0.6811 -0.5420  1.2597
21473SOL     OW66860   4.482   4.463   0.346 -0.0681  0.2367  0.1070
21473SOL    HW166861   4.552   4.397   0.348 -1.3529 -1.1923 -0.5727
21473SOL    HW266862   4.419   4.430   0.282 -1.1540  1.7239  0.3610
21474SOL     OW66863   4.463   7.173   3.041 -0.0061 -0.5262  0.1807
21474SOL    HW166864   4.386   7.128   3.005  0.5033 -0.5502 -0.9316
21474SOL    HW266865   4.427   7.234   3.105 -0.8958 -1.0089  0.1640
21475SOL     OW66866   1.943   1.507   0.642 -0.3808  0.2574  0.0431
21475SOL    HW166867   1.958   1.537   0.732 -1.6301  2.1542 -0.3247
21475SOL    HW266868   1.938   1.412   0.649 -0.9952  0.3893  2.0920
21476SOL     OW66869   7.684  10.046   0.642  0.0173  0.0541 -0.1496
21476SOL    HW166870   7.719   9.996   0.715 -0.3224 -2.1799 -1.4095
21476SOL    HW266871   7.634   9.982   0.591 -1.0060  1.8458 -1.5370
21477SOL     OW66872   9.587   2.169   6.739  0.1166 -0.5151 -0.1603
21477SOL    HW166873   9.608   2.197   6.828 -0.0882  0.7175 -0.4743
21477SOL    HW266874   9.583   2.251   6.689  0.2230 -1.1888 -1.2994
21478SOL     OW66875   0.780   6.440   6.093 -0.2271 -0.2300 -0.0314
21478SOL    HW166876   0.821   6.359   6.064  1.5207  0.3095  0.7809
21478SOL    HW266877   0.686   6.425   6.082  0.0665 -2.2672 -0.1223
21479SOL     OW66878   0.628   3.964   5.359  0.2204 -0.8245 -0.1980
21479SOL    HW166879   0.560   3.992   5.420 -0.0872 -0.7080 -0.5859
21479SOL    HW266880   0.702   3.940   5.414  1.6921  3.7129  0.1196
21480SOL     OW66881   0.966   4.260   3.367  0.4685 -0.1736 -0.4762
21480SOL    HW166882   0.895   4.210   3.408  2.2277 -1.1437  1.5313
21480SOL    HW266883   0.935   4.274   3.277 -2.1768 -0.6845  0.2436
21481SOL     OW66884   1.273   3.557   8.881 -0.0352 -0.5453 -0.4346
21481SOL    HW166885   1.260   3.493   8.951  3.4547 -0.4081  0.5130
21481SOL    HW266886   1.196   3.614   8.886 -0.7449 -1.6008  2.1402
21482SOL     OW66887   5.644   0.932   1.628 -0.3953 -0.1863 -0.4806
21482SOL    HW166888   5.582   0.955   1.697  0.6293 -0.5522  0.5907
21482SOL    HW266889   5.601   0.861   1.580 -1.0333 -0.0590 -0.1007
21483SOL     OW66890   9.321   6.859   5.710 -0.2516  0.0438  0.1829
21483SOL    HW166891   9.314   6.811   5.627  0.2164 -0.1952  0.2768
21483SOL    HW266892   9.378   6.804   5.764 -1.2180 -0.2113  0.9565
21484SOL     OW66893   5.391   4.878   9.783 -0.7734  0.2359 -0.2867
21484SOL    HW166894   5.485   4.886   9.766 -0.7758  0.7363 -0.0881
21484SOL    HW266895   5.356   4.833   9.706 -0.6605  1.6769 -1.2130
21485SOL     OW66896   0.796   8.455   7.005  0.1344 -0.1417  0.2755
21485SOL    HW166897   0.727   8.489   7.062  0.8141  0.3079  0.8576
21485SOL    HW266898   0.803   8.520   6.935 -0.8818 -0.8290 -0.4801
21486SOL     OW66899   1.942   0.272   2.309 -0.4438 -0.0263 -0.3669
21486SOL    HW166900   2.008   0.340   2.295  0.8531 -0.8733  1.2706
21486SOL    HW266901   1.962   0.238   2.396 -2.5059 -0.9353 -0.2030
21487SOL     OW66902   0.629   4.402   7.482  0.4255  0.5011 -0.0323
21487SOL    HW166903   0.723   4.393   7.469  0.6882  2.4203  0.1467
21487SOL    HW266904   0.591   4.387   7.395  0.6476 -2.2475  0.2636
21488SOL     OW66905   0.729   1.117   0.690 -0.0627 -0.5999  0.1591
21488SOL    HW166906   0.758   1.185   0.750  1.1661 -1.1615  0.2483
21488SOL    HW266907   0.811   1.081   0.655 -0.7324 -0.9486 -1.0921
21489SOL     OW66908   7.830   4.995   7.857  0.2882 -0.1193 -0.2018
21489SOL    HW166909   7.756   5.020   7.802  0.7600 -2.1196 -1.8779
21489SOL    HW266910   7.907   5.027   7.810  0.6313 -0.5893  0.0323
21490SOL     OW66911   2.365   6.121   5.235  0.1911  0.3237 -0.1642
21490SOL    HW166912   2.440   6.173   5.205 -0.6242  0.7608 -1.5107
21490SOL    HW266913   2.354   6.054   5.168 -0.5968  0.2326  0.0511
21491SOL     OW66914   1.753   3.921   8.417  0.4785  0.0961 -0.3382
21491SOL    HW166915   1.840   3.958   8.400  0.2782  0.3623 -0.8147
21491SOL    HW266916   1.757   3.833   8.381  0.1965  0.5058 -1.4140
21492SOL     OW66917   6.238   6.374   5.056  0.0613 -0.3798  0.4805
21492SOL    HW166918   6.165   6.425   5.091 -2.4575 -1.3183 -2.8775
21492SOL    HW266919   6.295   6.438   5.014 -1.0429  0.0729 -0.3723
21493SOL     OW66920   6.858   4.777   0.494  0.1804 -0.0939 -0.1251
21493SOL    HW166921   6.857   4.860   0.542 -1.4589 -0.5932  0.7714
21493SOL    HW266922   6.819   4.798   0.409  1.4424  0.4091 -0.6072
21494SOL     OW66923   9.655   0.998   0.049  0.4564 -0.4116  0.2230
21494SOL    HW166924   9.581   0.948   0.013  1.1340 -2.1761  1.1638
21494SOL    HW266925   9.701   1.031  -0.028 -1.2154  0.6651 -0.3966
21495SOL     OW66926   1.169   3.234   5.731  0.1051 -0.4776  0.8039
21495SOL    HW166927   1.248   3.283   5.708 -0.5010 -0.1405 -0.6537
21495SOL    HW266928   1.154   3.256   5.823  1.2606  0.0765  0.8812
21496SOL     OW66929   7.181   9.550   9.029 -0.0135 -0.2744 -0.0615
21496SOL    HW166930   7.204   9.642   9.016 -2.1395  0.3728  0.3898
21496SOL    HW266931   7.144   9.522   8.945  1.2298 -0.9571 -0.4145
21497SOL     OW66932   1.604   0.364   9.378  0.0094 -0.0520 -0.5002
21497SOL    HW166933   1.509   0.370   9.384  0.0301 -0.2960  0.1203
21497SOL    HW266934   1.636   0.442   9.424  0.1196 -0.3122 -0.1349
21498SOL     OW66935   6.350   1.190   3.068 -0.2170 -0.0435 -0.0169
21498SOL    HW166936   6.387   1.244   3.138  0.9718 -0.5385 -0.2542
21498SOL    HW266937   6.357   1.243   2.989  1.0650 -0.5600 -0.2734
21499SOL     OW66938   4.370   4.735   4.915 -0.4422  0.1022 -0.0690
21499SOL    HW166939   4.397   4.643   4.907  0.4407  0.1834  1.5513
21499SOL    HW266940   4.424   4.781   4.850 -0.0730 -0.3785 -0.1114
21500SOL     OW66941   9.108  10.175   2.364 -0.8914 -0.1284 -0.3719
21500SOL    HW166942   9.111  10.228   2.444 -2.0118  1.6634 -1.4286
21500SOL    HW266943   9.015  10.173   2.341 -0.4721  0.5083 -2.2872
21501SOL     OW66944   5.663   6.589   3.573  0.8559 -0.2269  0.6693
21501SOL    HW166945   5.600   6.645   3.619  0.7893  0.2419  0.0247
21501SOL    HW266946   5.748   6.622   3.599  0.8192 -0.0084  0.5156
21502SOL     OW66947   9.555   5.675   9.189 -0.0061 -0.4651 -0.0614
21502SOL    HW166948   9.600   5.611   9.133  0.8899 -0.0361  0.1481
21502SOL    HW266949   9.473   5.632   9.214  0.1282 -1.1287 -0.7380
21503SOL     OW66950   2.633   5.495   8.146  0.2864  0.0579  0.6936
21503SOL    HW166951   2.637   5.582   8.104 -4.3484  0.7042  1.1141
21503SOL    HW266952   2.613   5.435   8.074 -2.5372  0.3900  1.0989
21504SOL     OW66953  10.190   6.399   3.405 -0.2455  0.0271  0.0557
21504SOL    HW166954  10.130   6.369   3.337 -1.6251 -1.0634  1.6857
21504SOL    HW266955  10.200   6.493   3.387 -2.9422  0.3946  0.0466
21505SOL     OW66956   7.122   0.020   1.188  0.1021  0.1755 -0.1088
21505SOL    HW166957   7.114   0.115   1.199  0.1103  0.2020 -0.3248
21505SOL    HW266958   7.156  -0.011   1.271 -0.9640  0.2283  0.3745
21506SOL     OW66959   3.273  10.301   9.317  0.1474  0.1668  0.2133
21506SOL    HW166960   3.368  10.296   9.323  0.2256  0.5785 -0.4895
21506SOL    HW266961   3.244  10.210   9.310  0.4481  0.0133  0.8777
21507SOL     OW66962   9.066   2.219  10.454  0.2169 -0.1298  0.0680
21507SOL    HW166963   9.100   2.279  10.388  1.6529 -0.7419  0.2234
21507SOL    HW266964   9.001   2.167  10.407  0.3709  0.2326 -0.5610
21508SOL     OW66965   9.418  10.189   6.589  0.4871  0.1376 -0.2595
21508SOL    HW166966   9.422  10.207   6.495  0.9712 -2.1794 -0.7407
21508SOL    HW266967   9.482  10.120   6.603  1.0521  1.0101  1.9709
21509SOL     OW66968   7.316   0.241   9.756 -0.1608  0.0251 -0.7176
21509SOL    HW166969   7.376   0.310   9.730 -2.2941  1.7203 -1.4778
21509SOL    HW266970   7.242   0.287   9.796 -1.0488 -1.9271  0.0150
21510SOL     OW66971   2.090   6.210   6.945  0.1177 -0.4761  0.3123
21510SOL    HW166972   2.020   6.192   6.882  2.1591 -1.7497 -1.7422
21510SOL    HW266973   2.106   6.125   6.986  1.8304 -0.7245 -0.7915
21511SOL     OW66974   7.751   5.355   7.862  0.8394 -0.0413 -0.7687
21511SOL    HW166975   7.755   5.284   7.797  4.1521  1.4645 -2.4817
21511SOL    HW266976   7.752   5.310   7.946  0.2272 -2.0646 -1.7724
21512SOL     OW66977   8.935   3.064   1.732  0.1327 -0.4455 -0.2066
21512SOL    HW166978   8.874   3.021   1.672 -0.4464 -1.9659  1.3476
21512SOL    HW266979   8.883   3.080   1.811  1.2080  0.1887  0.3937
21513SOL     OW66980   0.186   9.865   2.522  0.2214  0.2016  0.4126
21513SOL    HW166981   0.140   9.786   2.552  1.3581 -1.6944 -2.4398
21513SOL    HW266982   0.224   9.902   2.602  1.0689 -3.0972  1.7011
21514SOL     OW66983   3.769   2.446   8.221  0.5153  0.5857  0.7696
21514SOL    HW166984   3.725   2.508   8.279  2.2047  1.2778  1.3815
21514SOL    HW266985   3.803   2.499   8.150  0.0499  0.0006  0.0963
21515SOL     OW66986   8.474   9.614   0.657  0.1513 -0.3611  0.0919
21515SOL    HW166987   8.506   9.702   0.677 -2.9103  0.6803  0.8678
21515SOL    HW266988   8.514   9.559   0.725  1.8472  0.4067 -0.2070
21516SOL     OW66989   1.529   7.309   0.411  0.0450 -0.2517  0.2037
21516SOL    HW166990   1.602   7.348   0.460  0.3179  1.4034 -1.4086
21516SOL    HW266991   1.566   7.234   0.367  0.4295 -0.2321  0.4910
21517SOL     OW66992   2.364  10.278   2.054  0.0889 -0.1558  0.0048
21517SOL    HW166993   2.305  10.215   2.095  0.7677  1.5201  3.9389
21517SOL    HW266994   2.307  10.353   2.034  0.0326 -0.4126 -0.8287
21518SOL     OW66995   2.753   0.712   3.715  0.3432 -0.4402 -0.0026
21518SOL    HW166996   2.805   0.729   3.794 -3.0298  1.0966  2.1394
21518SOL    HW266997   2.756   0.795   3.667  1.8584 -1.1726 -1.2721
21519SOL     OW66998   0.467   1.976  10.125 -0.5310 -0.1038 -0.0365
21519SOL    HW166999   0.507   2.058  10.096 -0.1339  0.2459  1.4098
21519SOL    HW267000   0.375   1.986  10.102 -0.2802  0.2429 -0.9410
21520SOL     OW67001   8.461   8.909   4.329  0.6327  0.3167 -0.1066
21520SOL    HW167002   8.453   9.004   4.338 -0.6742  0.2152 -0.0088
21520SOL    HW267003   8.371   8.879   4.316  1.0501 -0.8973 -0.2849
21521SOL     OW67004   4.036   7.658   5.871  0.1437  0.3491 -0.1149
21521SOL    HW167005   4.050   7.649   5.776  2.6934 -1.9030  0.3730
21521SOL    HW267006   4.097   7.726   5.898 -1.3353  1.7529 -0.1749
21522SOL     OW67007   6.988   7.380   8.547 -0.0520  0.1393 -0.1078
21522SOL    HW167008   7.053   7.313   8.528 -0.6361  0.0486 -2.0055
21522SOL    HW267009   6.914   7.333   8.584  0.4603  0.0905  0.8987
21523SOL     OW67010   7.191   6.958   7.708 -0.1681 -0.2903 -0.4260
21523SOL    HW167011   7.174   6.954   7.802 -0.9458 -1.3799 -0.5873
21523SOL    HW267012   7.270   7.011   7.700 -1.1428  1.4565  0.6935
21524SOL     OW67013   7.421   8.708   1.272  0.1279  0.0103  0.4064
21524SOL    HW167014   7.419   8.616   1.298  0.1656 -0.0791  0.0982
21524SOL    HW267015   7.354   8.750   1.326  1.1935  0.1127  1.6958
21525SOL     OW67016   7.781   6.034   8.285  0.4699  0.1569  0.4184
21525SOL    HW167017   7.859   6.081   8.255  0.6691  0.2827  1.1067
21525SOL    HW267018   7.811   5.944   8.297  0.2645 -0.0053 -0.2177
21526SOL     OW67019   9.112   2.687   5.544 -0.2402  0.1647 -0.0723
21526SOL    HW167020   9.049   2.757   5.528  0.8778  1.0090 -1.0109
21526SOL    HW267021   9.155   2.674   5.459 -1.0705 -2.3595 -0.1973
21527SOL     OW67022   8.509   5.436   7.317 -0.0475 -0.3132 -0.2217
21527SOL    HW167023   8.523   5.362   7.259 -0.2566 -0.4589 -0.0899
21527SOL    HW267024   8.443   5.405   7.379 -0.1720  0.0027 -0.1984
21528SOL     OW67025   7.284   2.010   5.830  0.4470 -0.2613 -0.3294
21528SOL    HW167026   7.378   2.024   5.826  0.3984  0.5983  0.8387
21528SOL    HW267027   7.260   2.036   5.920 -1.4568  3.1088 -1.6282
21529SOL     OW67028   4.592   5.029   0.976  0.1088  0.1399  0.1535
21529SOL    HW167029   4.643   5.077   1.041  0.5747 -0.5023  0.2628
21529SOL    HW267030   4.553   4.956   1.024 -1.4016  0.9347  0.2014
21530SOL     OW67031   5.934   1.090   4.385 -0.1072  0.0279 -0.2008
21530SOL    HW167032   5.890   1.166   4.347 -0.6977 -1.1327 -1.9731
21530SOL    HW267033   5.892   1.079   4.471 -0.7498  1.0598 -0.3584
21531SOL     OW67034   9.535   1.714  10.425  1.1091  0.2638 -0.4151
21531SOL    HW167035   9.556   1.620  10.425 -2.9771 -0.8704  1.7686
21531SOL    HW267036   9.612   1.756  10.464  2.6833 -2.2485 -0.5942
21532SOL     OW67037   9.833  10.362  10.088  0.1533  0.3561 -0.0921
21532SOL    HW167038   9.836  10.296  10.157 -0.2014  0.0545 -0.3615
21532SOL    HW267039   9.862  10.443  10.131  0.9643 -0.0517  0.1373
21533SOL     OW67040   5.011  10.371   3.294 -0.6026  0.5595 -0.1926
21533SOL    HW167041   5.074  10.308   3.329  0.1471  1.0478 -0.6382
21533SOL    HW267042   5.021  10.364   3.199 -2.1620 -0.2999 -0.3321
21534SOL     OW67043   8.724   5.208   6.468  0.7829  0.6481  0.6557
21534SOL    HW167044   8.747   5.152   6.394 -0.2938  1.9187 -0.7093
21534SOL    HW267045   8.805   5.255   6.489  0.6704  1.6743 -1.0208
21535SOL     OW67046   5.239   6.903   8.935 -0.2862  0.4588 -0.0055
21535SOL    HW167047   5.293   6.963   8.885  1.5689 -0.5685  0.6514
21535SOL    HW267048   5.190   6.959   8.996 -0.4033  1.4591 -0.9998
21536SOL     OW67049   7.688   0.938   9.201 -0.9092  0.6770 -0.3941
21536SOL    HW167050   7.682   1.032   9.217 -0.4829  0.6400 -0.0218
21536SOL    HW267051   7.772   0.925   9.158 -0.7139  0.3956  0.0656
21537SOL     OW67052   0.507   4.428   0.879 -0.0736 -0.1043  0.0523
21537SOL    HW167053   0.550   4.472   0.952  2.4120 -2.1555 -0.0437
21537SOL    HW267054   0.420   4.407   0.912  0.7425 -0.3635  2.1911
21538SOL     OW67055   9.064   6.503  10.001  0.3318 -0.4067  0.3986
21538SOL    HW167056   9.080   6.441   9.929 -1.7845 -0.1038 -0.4257
21538SOL    HW267057   9.033   6.448  10.073 -1.2806 -0.3900 -0.2434
21539SOL     OW67058   2.650   1.901   3.838 -0.6450  0.1644 -0.1846
21539SOL    HW167059   2.667   1.895   3.932 -2.1088  0.8119  0.1651
21539SOL    HW267060   2.593   1.826   3.819  1.2679 -1.1583 -1.0202
21540SOL     OW67061   6.481   0.483   9.924 -0.2373 -0.0610 -0.1196
21540SOL    HW167062   6.397   0.494   9.879 -0.5633 -0.9313  0.2578
21540SOL    HW267063   6.540   0.545   9.881 -1.1463  0.7720 -0.1902
21541SOL     OW67064   4.604   0.346   6.866 -0.5019  0.5236 -0.2266
21541SOL    HW167065   4.623   0.309   6.779 -1.6196  0.4541 -0.4543
21541SOL    HW267066   4.533   0.409   6.850 -2.4025 -1.2054  0.9740
21542SOL     OW67067   8.643   7.774   8.331 -0.0978 -0.0818 -0.1392
21542SOL    HW167068   8.640   7.698   8.388 -1.3076 -1.1091 -1.4982
21542SOL    HW267069   8.731   7.772   8.294  0.3773  0.0602  0.9466
21543SOL     OW67070   0.197   8.801   5.931 -0.8219  0.2235  0.2673
21543SOL    HW167071   0.135   8.741   5.890 -0.3795 -0.6142  0.8145
21543SOL    HW267072   0.181   8.885   5.887 -2.2257 -0.0066  0.2835
21544SOL     OW67073   9.358   1.980   4.841  0.3711  0.3273 -0.2059
21544SOL    HW167074   9.340   2.047   4.907 -4.6056  0.7776 -1.6101
21544SOL    HW267075   9.384   2.030   4.763  0.6247  0.2543 -0.1698
21545SOL     OW67076   4.904  10.098   3.569 -0.3515 -0.1904 -0.1349
21545SOL    HW167077   4.940  10.028   3.514  1.6383  0.7762 -0.1306
21545SOL    HW267078   4.879  10.054   3.650  0.1525 -1.0264 -0.4178
21546SOL     OW67079   5.146   1.403   0.838  0.3110  0.9848 -0.0901
21546SOL    HW167080   5.126   1.367   0.752  1.6483 -0.0771  0.0026
21546SOL    HW267081   5.066   1.448   0.865 -0.8754 -0.5195 -0.9539
21547SOL     OW67082   6.354   3.146   1.799  0.1294  0.4896 -0.0136
21547SOL    HW167083   6.386   3.130   1.711 -1.3654  0.3044 -0.5464
21547SOL    HW267084   6.333   3.059   1.834 -2.6661  0.7502 -0.8372
21548SOL     OW67085   6.603   9.392   4.846  0.6433 -0.3470 -0.1358
21548SOL    HW167086   6.567   9.352   4.925  0.1470  0.1055 -0.1243
21548SOL    HW267087   6.598   9.324   4.779 -0.3173 -0.2743 -0.1521
21549SOL     OW67088   5.707   9.742   8.921  0.2367 -0.2153  0.5631
21549SOL    HW167089   5.779   9.799   8.894 -0.2480  0.0047 -0.3038
21549SOL    HW267090   5.650   9.799   8.974  0.4250 -0.2536  0.8115
21550SOL     OW67091   0.407   0.881   3.541  0.5720 -0.3647  0.0774
21550SOL    HW167092   0.380   0.955   3.488  1.0742 -0.0558  0.2418
21550SOL    HW267093   0.401   0.805   3.482  0.3105 -0.1535 -0.1665
21551SOL     OW67094   2.604   3.192   3.595 -0.1099 -0.1267  0.2976
21551SOL    HW167095   2.590   3.278   3.635  1.2797  0.0251  0.4915
21551SOL    HW267096   2.693   3.168   3.620  0.0800 -0.9143 -1.0714
21552SOL     OW67097   1.763   3.843   4.919 -0.1979 -0.0561  0.5218
21552SOL    HW167098   1.853   3.823   4.944 -0.1549 -0.2112  0.2437
21552SOL    HW267099   1.770   3.915   4.858 -0.2273 -0.3905  0.1211
21553SOL     OW67100   8.260   5.944   5.040 -0.9357  0.1210  0.2348
21553SOL    HW167101   8.170   5.974   5.030 -1.2796 -0.0184  2.3625
21553SOL    HW267102   8.307   6.020   5.074 -0.5124 -0.1337  0.2231
21554SOL     OW67103   1.851   1.853   4.613 -0.1489 -0.0630 -0.0705
21554SOL    HW167104   1.937   1.828   4.648 -0.6218 -1.9760 -0.2153
21554SOL    HW267105   1.820   1.921   4.673  1.3173  0.4299  0.1680
21555SOL     OW67106   4.624   4.450   1.077  0.1689  0.2716 -0.0496
21555SOL    HW167107   4.687   4.445   1.006 -0.0265  0.6416 -0.2537
21555SOL    HW267108   4.540   4.429   1.037 -0.0418  1.1291 -0.0719
21556SOL     OW67109   9.739   0.983   9.395  0.0780 -0.3478  0.4429
21556SOL    HW167110   9.761   0.902   9.348 -0.2505 -0.8662  1.1568
21556SOL    HW267111   9.693   1.036   9.330  2.3612  0.2986 -0.7615
21557SOL     OW67112   2.252  10.240   5.145 -0.1748 -0.1394 -0.0749
21557SOL    HW167113   2.218  10.208   5.228 -0.9726  0.5652 -0.1141
21557SOL    HW267114   2.334  10.192   5.132 -0.0649 -0.2920  1.0890
21558SOL     OW67115   4.287   2.600   7.423  0.6812  0.0721  0.0506
21558SOL    HW167116   4.359   2.563   7.475  0.8382  1.4006  0.8026
21558SOL    HW267117   4.273   2.536   7.353  1.1388 -1.2711  1.1394
21559SOL     OW67118   3.886   4.426   0.916  0.3774  0.3177  0.2030
21559SOL    HW167119   3.814   4.372   0.948  1.9080 -1.4305  0.8815
21559SOL    HW267120   3.909   4.481   0.991 -0.2149  0.8451 -0.0003
21560SOL     OW67121   3.281   8.568   0.858  0.4356 -0.5018  0.0748
21560SOL    HW167122   3.302   8.527   0.942 -0.2293 -1.6201 -0.2736
21560SOL    HW267123   3.186   8.553   0.849  0.3259  0.4763 -0.4206
21561SOL     OW67124   4.750   4.926   7.054 -0.1047  0.1179 -0.1216
21561SOL    HW167125   4.803   4.873   7.115 -1.5610 -0.4691  0.6805
21561SOL    HW267126   4.796   5.010   7.050  0.7792 -0.3003  0.7084
21562SOL     OW67127   6.713   0.295   0.148  0.2404 -0.1920  0.3456
21562SOL    HW167128   6.781   0.316   0.084  0.5482 -0.1267  0.6913
21562SOL    HW267129   6.671   0.216   0.114  0.0405  0.1521 -0.2182
21563SOL     OW67130   5.069   6.828   3.167  0.2256  0.9239  0.2811
21563SOL    HW167131   4.988   6.869   3.135 -0.0524  0.3067  0.1877
21563SOL    HW267132   5.121   6.814   3.088 -0.4746 -0.6303  0.0550
21564SOL     OW67133   9.700   3.776   3.758  0.3571  0.0711 -0.1127
21564SOL    HW167134   9.664   3.855   3.718  0.6234  0.2174 -0.0636
21564SOL    HW267135   9.639   3.707   3.733 -0.4141  0.4569  0.6399
21565SOL     OW67136   0.303   8.182   5.981  0.2928 -0.3649 -0.1728
21565SOL    HW167137   0.393   8.165   5.951  1.3378  0.4129  2.2802
21565SOL    HW267138   0.288   8.117   6.050 -1.5296 -1.2475 -1.3239
21566SOL     OW67139   0.948   9.766   2.700 -0.8178 -0.2371 -0.1417
21566SOL    HW167140   0.925   9.842   2.753  0.7185  0.9859 -1.1272
21566SOL    HW267141   0.866   9.738   2.661 -1.3302  1.3722 -0.2998
21567SOL     OW67142   8.659   6.213   7.197  0.3210  0.1176 -0.1925
21567SOL    HW167143   8.717   6.271   7.245 -0.2713 -0.0178  0.7245
21567SOL    HW267144   8.626   6.152   7.263 -0.1662 -0.3641 -0.8612
21568SOL     OW67145   7.780   6.660   3.589 -0.1737 -0.0543  0.0313
21568SOL    HW167146   7.771   6.754   3.574 -0.7264 -0.0436  0.3997
21568SOL    HW267147   7.692   6.625   3.574 -0.1414 -0.4076  0.6654
21569SOL     OW67148   7.124  10.363   4.281 -0.1195 -0.1050  0.3299
21569SOL    HW167149   7.152  10.427   4.216 -0.1553 -0.3562  0.0648
21569SOL    HW267150   7.062  10.307   4.234 -0.2558 -0.1979  0.6200
21570SOL     OW67151   2.129   1.422   8.343 -0.0226  0.7312  0.4208
21570SOL    HW167152   2.119   1.515   8.366 -1.1243  0.1191  2.6470
21570SOL    HW267153   2.124   1.421   8.247  1.6759  3.1197  0.2150
21571SOL     OW67154   3.766   1.680   8.658  0.1740 -0.2467  0.1649
21571SOL    HW167155   3.720   1.624   8.720 -0.5135 -0.3622 -0.4441
21571SOL    HW267156   3.764   1.632   8.575  0.3982  0.2574 -0.1385
21572SOL     OW67157   1.396   0.773   7.866 -0.4961  0.5375  0.2758
21572SOL    HW167158   1.407   0.681   7.840 -1.2341  0.3828  0.4754
21572SOL    HW267159   1.323   0.804   7.813  0.7877  1.5021 -0.9709
21573SOL     OW67160   4.027   8.049   2.472  0.0893 -0.1474 -0.2869
21573SOL    HW167161   4.025   7.964   2.515 -1.2740 -0.2670 -0.5178
21573SOL    HW267162   3.946   8.092   2.501 -0.3717  0.1546 -1.9082
21574SOL     OW67163   2.260   1.777   7.826 -0.1984 -0.7916  0.2839
21574SOL    HW167164   2.260   1.824   7.909  0.5705 -0.2482 -0.0147
21574SOL    HW267165   2.248   1.845   7.759  0.9184 -1.0062 -0.1501
21575SOL     OW67166   0.706   7.112  10.339 -0.3487 -0.1224 -0.0101
21575SOL    HW167167   0.631   7.076  10.386 -0.0361 -2.2066 -1.0149
21575SOL    HW267168   0.781   7.091  10.394 -0.2534 -0.0952 -0.1307
21576SOL     OW67169   3.337   4.678   8.593  0.2277 -0.2202  0.1628
21576SOL    HW167170   3.344   4.587   8.623  0.8104 -1.2884 -2.8455
21576SOL    HW267171   3.403   4.725   8.643 -0.7521 -1.2044  2.4940
21577SOL     OW67172   4.031   1.547   0.594  0.1975 -0.3719  0.2220
21577SOL    HW167173   4.068   1.532   0.508  1.2706  0.7466  0.4633
21577SOL    HW267174   3.984   1.466   0.615 -1.5199 -0.0614 -2.0978
21578SOL     OW67175   4.401   8.846   1.610 -0.4392  0.3220  0.1481
21578SOL    HW167176   4.341   8.881   1.544 -0.8919  0.9881  0.9020
21578SOL    HW267177   4.344   8.805   1.675 -0.2353  2.3088  1.6783
21579SOL     OW67178  10.299   7.450   4.807 -0.4416  0.2314 -0.1469
21579SOL    HW167179  10.220   7.431   4.857  0.4079 -2.5909  0.3239
21579SOL    HW267180  10.344   7.517   4.858 -1.0484 -0.4075  1.2784
21580SOL     OW67181   2.356   6.491   7.720  0.3930 -0.1657 -0.4085
21580SOL    HW167182   2.424   6.523   7.661 -0.0742 -0.5465 -1.1752
21580SOL    HW267183   2.302   6.434   7.665 -1.4617  1.3230 -0.2471
21581SOL     OW67184   3.067   3.158   9.455 -0.2189  0.0493 -0.6155
21581SOL    HW167185   3.112   3.119   9.380 -0.3834 -2.2132  0.3771
21581SOL    HW267186   3.063   3.251   9.435 -0.1197 -0.4627 -3.3172
21582SOL     OW67187   5.012   4.569   9.517 -0.6117 -0.1127  0.5368
21582SOL    HW167188   5.040   4.509   9.586  0.4784  0.0343  0.2488
21582SOL    HW267189   4.990   4.650   9.562 -1.8098 -0.6282  0.8993
21583SOL     OW67190   6.263   6.388   5.550 -0.3053 -0.0477  0.1815
21583SOL    HW167191   6.230   6.343   5.628  0.5107 -0.5485  0.2473
21583SOL    HW267192   6.285   6.476   5.581  1.5923 -0.7352  0.9455
21584SOL     OW67193   4.224   5.950   2.770  0.1751  0.1773 -0.0314
21584SOL    HW167194   4.318   5.933   2.756  0.0845 -0.4385  0.0877
21584SOL    HW267195   4.220   6.044   2.787  0.8541  0.1060  0.6023
21585SOL     OW67196   0.619   7.975   3.359 -0.0068 -0.0051  0.5150
21585SOL    HW167197   0.617   7.881   3.378 -0.1494  0.1783  1.5047
21585SOL    HW267198   0.694   8.007   3.409  0.0351  0.4116  0.1877
21586SOL     OW67199   4.286   5.961   1.693 -0.4262  0.1398  0.4809
21586SOL    HW167200   4.317   6.040   1.737  0.4438 -0.3739  0.8143
21586SOL    HW267201   4.191   5.963   1.705 -0.4602  1.3285  0.1465
21587SOL     OW67202   5.122   5.797   5.266 -0.1270  0.1009 -0.2778
21587SOL    HW167203   5.186   5.807   5.336 -1.2270  0.0746  0.7642
21587SOL    HW267204   5.060   5.868   5.280 -0.8765 -0.4728 -0.6522
21588SOL     OW67205   5.666   0.710   9.900 -0.5542 -0.0689  0.7709
21588SOL    HW167206   5.623   0.701   9.985  1.6511 -1.1833  1.8579
21588SOL    HW267207   5.759   0.711   9.920  0.0240  1.1267 -1.5463
21589SOL     OW67208   6.937   2.740   7.154 -0.0413 -0.1236 -0.4652
21589SOL    HW167209   7.027   2.771   7.141  0.3413 -1.3321 -0.8309
21589SOL    HW267210   6.884   2.793   7.094  0.2815  1.2235  0.4067
21590SOL     OW67211  10.121   0.867   9.804 -0.0939  0.1373 -0.0552
21590SOL    HW167212  10.117   0.939   9.742  0.4667  0.4505  0.2675
21590SOL    HW267213  10.060   0.891   9.873 -1.2735 -0.5479 -0.8093
21591SOL     OW67214   6.164   3.624   3.345  0.3249  0.2712 -0.3607
21591SOL    HW167215   6.222   3.548   3.346 -0.8848 -0.7015  1.2659
21591SOL    HW267216   6.181   3.668   3.429 -0.8647  0.2897 -0.1134
21592SOL     OW67217   6.759   2.566   2.592 -0.6550 -0.3494 -0.3394
21592SOL    HW167218   6.755   2.484   2.543 -3.5479  1.2930 -3.1768
21592SOL    HW267219   6.825   2.618   2.546 -0.1687 -0.3601  0.3239
21593SOL     OW67220   8.924   4.956   1.886  0.5459  0.1332 -0.2765
21593SOL    HW167221   8.852   4.893   1.873  1.3228 -0.4234 -2.2344
21593SOL    HW267222   8.933   4.961   1.981 -3.2157  1.5782  0.1886
21594SOL     OW67223   6.570   0.710   2.228 -0.0164  0.5135 -0.0706
21594SOL    HW167224   6.520   0.685   2.306  0.6812  3.7797  1.5891
21594SOL    HW267225   6.660   0.722   2.260  1.1286 -1.4212 -2.1936
21595SOL     OW67226   6.421   2.153   6.885  0.2809  0.1384 -0.4466
21595SOL    HW167227   6.330   2.165   6.913  0.0032 -1.9560 -0.2889
21595SOL    HW267228   6.471   2.147   6.967  0.2622 -0.5528 -0.4743
21596SOL     OW67229   3.014   0.025   5.673  0.2035 -0.4224  0.7589
21596SOL    HW167230   3.027   0.113   5.708 -0.8115 -0.1397  0.4733
21596SOL    HW267231   3.057   0.026   5.587 -1.5974  0.4999 -0.1936
21597SOL     OW67232   4.492   0.691   6.385 -0.1490  0.0073  0.3150
21597SOL    HW167233   4.429   0.656   6.447  0.4535 -0.4204  0.6912
21597SOL    HW267234   4.466   0.655   6.300 -2.0405  1.9794 -0.0218
21598SOL     OW67235   2.115   8.551   5.877  0.4624 -0.0458 -0.2327
21598SOL    HW167236   2.030   8.513   5.858  0.4112 -0.2531  0.3876
21598SOL    HW267237   2.154   8.492   5.942  0.5950  0.6850  0.3566
21599SOL     OW67238   6.694   7.675   4.916  0.3048 -0.9364  0.2417
21599SOL    HW167239   6.753   7.643   4.984  0.9282 -0.2857  0.0222
21599SOL    HW267240   6.724   7.764   4.897  1.5131 -1.7847 -2.3613
21600SOL     OW67241   3.307   7.333   5.750  0.3106  0.1053  0.4179
21600SOL    HW167242   3.353   7.312   5.668  2.7169  0.9216  1.4579
21600SOL    HW267243   3.342   7.270   5.813 -0.5456  0.3197  1.1123
21601SOL     OW67244   0.022   8.448   3.258 -0.8063  0.1820  0.1689
21601SOL    HW167245   0.042   8.366   3.214 -1.1012  0.3115 -0.2053
21601SOL    HW267246   0.086   8.452   3.330  0.2498  0.3822 -0.7521
21602SOL     OW67247   2.323   2.163   0.573 -0.2936 -0.1255  0.3288
21602SOL    HW167248   2.328   2.204   0.487 -3.0452  0.6803  0.4549
21602SOL    HW267249   2.267   2.087   0.560 -1.8203  0.7210  1.5972
21603SOL     OW67250   5.045   5.954   8.728  0.0085 -0.2081 -0.0522
21603SOL    HW167251   5.042   5.991   8.817  0.4370 -0.5061  0.0865
21603SOL    HW267252   5.011   5.865   8.738 -1.2498  0.2120 -0.4272
21604SOL     OW67253  10.000   1.248   8.030 -0.1624  0.1154  0.4957
21604SOL    HW167254  10.026   1.292   8.111 -0.6916 -0.6445  1.1022
21604SOL    HW267255   9.913   1.284   8.011 -0.6033 -0.6382  1.0012
21605SOL     OW67256   0.815   9.418   9.739  0.0501  0.3684 -0.4187
21605SOL    HW167257   0.908   9.418   9.763  0.3520 -1.2546 -1.4135
21605SOL    HW267258   0.772   9.465   9.810  1.5508  0.5608  0.4104
21606SOL     OW67259   8.571   9.640   9.426 -0.2729  0.2758  0.2857
21606SOL    HW167260   8.485   9.625   9.387 -0.3712  0.7000  0.3343
21606SOL    HW267261   8.556   9.706   9.493  0.0943  0.3675  0.2796
21607SOL     OW67262   1.468   7.790   0.831 -0.1030 -0.1179  0.0015
21607SOL    HW167263   1.435   7.800   0.741  2.3343 -1.5948 -1.1623
21607SOL    HW267264   1.457   7.697   0.850 -0.0535  0.0788  1.0021
21608SOL     OW67265   8.621   6.555   4.456 -0.4322 -0.0054 -0.2460
21608SOL    HW167266   8.672   6.600   4.524  1.8967 -1.0722 -1.1646
21608SOL    HW267267   8.653   6.592   4.374 -2.4057  0.4705 -0.8399
21609SOL     OW67268   1.650   3.753   5.366 -0.3426 -0.1018  0.1522
21609SOL    HW167269   1.660   3.813   5.292 -2.4748 -0.3396 -0.3752
21609SOL    HW267270   1.631   3.810   5.441  2.0933  0.1631  0.6739
21610SOL     OW67271   8.414   6.684   0.821 -0.0654 -0.3725  0.1205
21610SOL    HW167272   8.355   6.654   0.890 -2.1092 -0.6852 -1.6480
21610SOL    HW267273   8.436   6.606   0.771 -1.6035  0.2765 -1.7061
21611SOL     OW67274   3.971  10.086   5.255  0.1977 -0.5964  0.5320
21611SOL    HW167275   4.008  10.017   5.200  0.4959 -1.8646  2.2306
21611SOL    HW267276   4.028  10.088   5.332 -0.9420  0.2079  1.3911
21612SOL     OW67277   3.280   2.205   2.078 -0.6397 -0.1206  0.2897
21612SOL    HW167278   3.273   2.117   2.040 -0.5073 -0.3143  0.7090
21612SOL    HW267279   3.363   2.204   2.126 -1.4285 -0.3185  1.6969
21613SOL     OW67280   3.226   3.830   9.771 -0.0101 -0.3592  0.3995
21613SOL    HW167281   3.139   3.798   9.794 -0.0411 -0.6620 -0.1240
21613SOL    HW267282   3.213   3.878   9.689 -0.0255  1.2800  1.3037
21614SOL     OW67283   2.019   3.342   9.043  0.4230  0.4451 -0.1272
21614SOL    HW167284   2.012   3.363   9.136 -0.1657  1.5210 -0.3993
21614SOL    HW267285   1.932   3.363   9.007  1.0408  1.3194 -1.1556
21615SOL     OW67286   4.946   6.049   6.089 -0.3160 -0.7078 -0.3199
21615SOL    HW167287   4.981   6.099   6.015  1.6720 -1.5269  0.0103
21615SOL    HW267288   4.915   6.116   6.150  1.2133  0.1270 -0.3955
21616SOL     OW67289  10.213   2.149   4.216 -0.0914 -0.6184  0.5457
21616SOL    HW167290  10.283   2.096   4.179  1.4045  0.9249  1.0544
21616SOL    HW267291  10.191   2.211   4.146 -0.7098 -0.8462  0.5281
21617SOL     OW67292   9.134   1.062   3.638  0.9864  0.0280  0.1404
21617SOL    HW167293   9.073   1.133   3.619  2.0088  1.2251  1.1070
21617SOL    HW267294   9.177   1.045   3.554  0.3308  0.1427 -0.2287
21618SOL     OW67295   3.633   7.294   3.682 -0.4757 -0.0431  0.5641
21618SOL    HW167296   3.721   7.258   3.681 -0.3422  0.2884  0.3114
21618SOL    HW267297   3.644   7.386   3.704 -0.6876  0.1755 -0.1965
21619SOL     OW67298   2.549   4.498   2.352  0.4628 -0.0238 -0.1157
21619SOL    HW167299   2.534   4.591   2.334 -0.0919 -0.0728  0.0731
21619SOL    HW267300   2.515   4.453   2.274  0.4399 -0.0872 -0.0688
21620SOL     OW67301   0.420   6.574   9.330  0.2794 -0.6433 -0.2222
21620SOL    HW167302   0.430   6.500   9.390 -0.7211 -2.0041 -1.6353
21620SOL    HW267303   0.326   6.581   9.315  0.3017  1.3118  0.2966
21621SOL     OW67304   6.652   2.893   4.958  0.0220  0.1524  0.1185
21621SOL    HW167305   6.576   2.895   4.900 -0.8870  0.7726  1.2713
21621SOL    HW267306   6.712   2.958   4.922 -0.0179 -0.2700 -0.7463
21622SOL     OW67307   6.008   5.193   1.793  0.0880 -0.0919 -0.3605
21622SOL    HW167308   5.983   5.281   1.821  1.2783  0.5495 -1.2032
21622SOL    HW267309   6.087   5.207   1.739  2.3341 -1.9607  2.1925
21623SOL     OW67310   9.898   6.403   5.786 -0.4256  0.2016  0.2346
21623SOL    HW167311   9.890   6.312   5.814  0.8151 -0.2824 -0.9000
21623SOL    HW267312   9.978   6.405   5.734 -1.9028  1.3249 -2.1488
21624SOL     OW67313   3.328   6.283   6.646  0.3603 -0.2160  0.2933
21624SOL    HW167314   3.389   6.213   6.624 -0.3639 -0.3677 -1.3880
21624SOL    HW267315   3.242   6.243   6.636 -0.0469  0.6629  0.1778
21625SOL     OW67316   7.954   9.641   0.725 -0.5335  0.5785  0.1015
21625SOL    HW167317   7.945   9.685   0.810 -1.4469  0.6949 -0.0400
21625SOL    HW267318   7.914   9.555   0.739 -1.7094  1.0023 -0.4947
21626SOL     OW67319   5.379   8.646   6.067  0.9143 -0.0335  0.3316
21626SOL    HW167320   5.330   8.583   6.014  1.1121 -0.1707  0.3064
21626SOL    HW267321   5.458   8.663   6.015  0.7897  0.3555  0.2659
21627SOL     OW67322   3.972   1.523   3.671 -0.1435  0.4322 -0.1693
21627SOL    HW167323   4.008   1.434   3.666 -1.3558 -0.0346 -1.0792
21627SOL    HW267324   3.935   1.529   3.760  1.4677  0.6694  0.5204
21628SOL     OW67325   9.769   9.857   2.108  0.0722 -0.0568  0.2754
21628SOL    HW167326   9.776   9.766   2.134  1.4214 -0.0735 -0.0824
21628SOL    HW267327   9.845   9.900   2.148 -0.1439  0.7579 -0.1588
21629SOL     OW67328   6.740   1.022   9.502  0.8597  0.5596  0.2045
21629SOL    HW167329   6.766   1.017   9.410 -1.3715  3.0349 -0.6896
21629SOL    HW267330   6.648   1.048   9.500  0.0703 -1.4026  3.1721
21630SOL     OW67331   7.945   5.622  10.014  0.3618 -0.4393 -0.9614
21630SOL    HW167332   7.879   5.686   9.988 -0.0822 -0.6912 -0.4725
21630SOL    HW267333   8.007   5.620   9.941  0.8759  1.2098 -0.6023
21631SOL     OW67334   6.326   4.974   7.558 -0.5064  0.2208  0.5116
21631SOL    HW167335   6.399   4.917   7.536 -0.7954 -0.1690  0.5412
21631SOL    HW267336   6.249   4.917   7.554 -0.8764  0.7491 -0.0566
21632SOL     OW67337   3.249   1.334   4.246  0.3424 -0.2167  0.0068
21632SOL    HW167338   3.311   1.392   4.202 -0.9286  0.3721 -1.0803
21632SOL    HW267339   3.298   1.254   4.262  1.4376  0.3020 -0.6587
21633SOL     OW67340   7.561   6.113   8.393  0.2277  0.2345  0.1921
21633SOL    HW167341   7.516   6.144   8.314  0.6033 -0.0504 -0.1400
21633SOL    HW267342   7.647   6.084   8.362  0.8947  1.3731  0.9127
21634SOL     OW67343   9.019   2.000   3.609 -0.0191 -0.3859  0.0750
21634SOL    HW167344   8.966   2.017   3.532 -0.0738 -1.5700 -0.1700
21634SOL    HW267345   8.996   1.910   3.635  0.6347 -0.3200  0.9429
21635SOL     OW67346   5.583   4.567   7.725 -0.7794 -0.1916  0.3171
21635SOL    HW167347   5.595   4.629   7.653 -0.1794 -0.3066  0.3093
21635SOL    HW267348   5.639   4.601   7.794 -3.0202  1.1782  1.5787
21636SOL     OW67349   5.918   8.066   9.685  0.2440  0.2843 -0.2015
21636SOL    HW167350   6.010   8.087   9.671 -0.0019  2.1757  0.7137
21636SOL    HW267351   5.917   8.010   9.763  0.6636 -0.4495 -0.7136
21637SOL     OW67352   1.743   6.503   4.824 -0.7193 -0.3349  0.0706
21637SOL    HW167353   1.823   6.472   4.868 -1.3526 -0.2389  1.3215
21637SOL    HW267354   1.700   6.423   4.795  0.4892 -0.3451 -1.8750
21638SOL     OW67355   4.246   7.359   6.349 -0.8330 -0.0141 -0.2393
21638SOL    HW167356   4.178   7.294   6.329  0.3237 -0.3959 -3.7430
21638SOL    HW267357   4.231   7.429   6.285  1.6378  0.1620 -0.7414
21639SOL     OW67358   7.190   7.815   5.278  0.1026 -0.3334  0.3478
21639SOL    HW167359   7.181   7.727   5.313  0.9825 -0.5673  0.0170
21639SOL    HW267360   7.210   7.802   5.185 -1.6204  0.2657 -0.1461
21640SOL     OW67361   0.014  10.223   9.461 -0.2500 -0.1681 -0.5729
21640SOL    HW167362   0.109  10.231   9.457 -0.3483  0.7757 -1.9906
21640SOL    HW267363  -0.017  10.278   9.388 -1.9426  0.7827  0.7927
21641SOL     OW67364   7.409   7.562   5.284  0.3626 -0.4622 -0.4027
21641SOL    HW167365   7.367   7.608   5.357  0.9419  0.2523 -0.5074
21641SOL    HW267366   7.337   7.538   5.225  0.1000  0.8444 -0.6371
21642SOL     OW67367   1.977   8.600   6.683  0.2279  0.0589  0.4847
21642SOL    HW167368   2.006   8.592   6.774 -0.2352  1.9048  0.8377
21642SOL    HW267369   2.050   8.644   6.638  0.7510 -1.4845 -0.2230
21643SOL     OW67370   1.823   7.986   4.351 -0.3855  0.4977 -0.3239
21643SOL    HW167371   1.917   7.968   4.346 -0.3461  0.4297  0.6358
21643SOL    HW267372   1.814   8.076   4.320  0.0979  0.8070  0.4166
21644SOL     OW67373   8.375   9.859   2.808  0.7320 -0.2867 -0.0399
21644SOL    HW167374   8.449   9.887   2.754  0.7802  0.2143  0.2679
21644SOL    HW267375   8.412   9.793   2.866  0.9870  0.0829  0.2267
21645SOL     OW67376   8.527   0.549   2.626 -0.3460 -0.0233 -0.1568
21645SOL    HW167377   8.512   0.464   2.668  1.9726 -0.2613  0.2872
21645SOL    HW267378   8.507   0.614   2.693  2.4750 -0.3824  1.1645
21646SOL     OW67379   1.736   1.642   4.464 -0.0917 -0.1514 -0.2145
21646SOL    HW167380   1.773   1.727   4.487 -1.9062  0.6542 -0.1294
21646SOL    HW267381   1.728   1.644   4.369 -2.5711  0.9073 -0.0604
21647SOL     OW67382  10.275   9.777   4.142 -0.0149 -0.0318 -0.4120
21647SOL    HW167383  10.359   9.749   4.178 -0.4951  0.8607  1.5500
21647SOL    HW267384  10.211   9.719   4.183 -0.6033  1.1456  0.3811
21648SOL     OW67385   4.834   5.929   7.849 -0.0027  0.1931 -0.1409
21648SOL    HW167386   4.806   5.839   7.836  0.3294  0.0366  0.2321
21648SOL    HW267387   4.918   5.922   7.894 -0.1816  0.6992  0.2777
21649SOL     OW67388   1.741   5.136   4.674 -0.0196 -0.7211  0.3126
21649SOL    HW167389   1.778   5.224   4.677  1.8434 -1.4597  0.3952
21649SOL    HW267390   1.687   5.130   4.752 -0.7827  0.5780 -0.0765
21650SOL     OW67391   3.115   2.461   5.753  0.0182 -0.2842  0.2018
21650SOL    HW167392   3.172   2.495   5.684  1.3930  2.3097  2.3967
21650SOL    HW267393   3.027   2.479   5.722  0.5225 -0.4235 -1.4280
21651SOL     OW67394   9.780  10.345   0.649 -0.4003  0.3844 -0.1854
21651SOL    HW167395   9.747  10.287   0.580 -0.3351  0.3718 -0.2063
21651SOL    HW267396   9.706  10.401   0.670 -0.9032 -0.6423  0.8378
21652SOL     OW67397   7.000   8.212  10.162  0.0591 -0.0231  0.2000
21652SOL    HW167398   7.087   8.228  10.125 -1.1899 -0.1728 -3.2095
21652SOL    HW267399   6.978   8.293  10.207  1.3031  0.6495 -0.3373
21653SOL     OW67400   2.189  10.439   9.148 -0.0776  0.0343  0.1561
21653SOL    HW167401   2.227  10.500   9.084 -0.5068 -0.4820 -0.6093
21653SOL    HW267402   2.095  10.454   9.142 -0.2185 -0.9711 -0.3296
21654SOL     OW67403   9.026   3.619   0.032 -0.6711 -0.1011  0.5610
21654SOL    HW167404   9.112   3.582   0.052 -1.0690 -0.1745  2.2898
21654SOL    HW267405   9.016   3.692   0.094 -0.3616  2.3223 -2.0343
21655SOL     OW67406   5.025   2.599   6.411  0.1977  0.1246 -0.1801
21655SOL    HW167407   4.981   2.567   6.490 -0.7594  0.7468 -0.4427
21655SOL    HW267408   5.116   2.611   6.438 -0.4232  1.9765  1.3702
21656SOL     OW67409   4.657   4.635   4.930  0.5753  0.1828 -0.2698
21656SOL    HW167410   4.574   4.587   4.925  0.1067  1.0793 -3.3954
21656SOL    HW267411   4.723   4.573   4.901  1.0177 -0.3897  1.7850
21657SOL     OW67412  10.150   4.947   2.732  0.6719  0.2394  0.0016
21657SOL    HW167413  10.135   4.860   2.694 -0.1091  0.2355  0.2871
21657SOL    HW267414  10.190   4.998   2.661  0.0494 -0.0203 -0.5559
21658SOL     OW67415   9.517   3.265   5.322 -0.3446 -0.3170  0.2523
21658SOL    HW167416   9.430   3.227   5.307  0.6480 -2.5902 -0.1483
21658SOL    HW267417   9.571   3.230   5.251  0.8126  1.5119  0.1555
21659SOL     OW67418   0.259   8.470   1.500 -0.0632 -0.1006  0.5225
21659SOL    HW167419   0.245   8.554   1.457 -0.2949 -0.4012  0.0059
21659SOL    HW267420   0.181   8.457   1.554 -0.2790 -0.2461  0.1727
21660SOL     OW67421   4.054   0.174   0.606  0.2858 -0.1160  0.3563
21660SOL    HW167422   3.998   0.109   0.564  0.0353 -0.3769  1.0974
21660SOL    HW267423   3.993   0.233   0.652  0.6470 -1.0550  2.1133
21661SOL     OW67424   2.709   5.959   3.888 -0.2108 -0.1717  0.5571
21661SOL    HW167425   2.780   5.996   3.941 -0.6551 -1.4283  2.0891
21661SOL    HW267426   2.639   5.941   3.951 -0.4810 -2.4083 -0.3229
21662SOL     OW67427   1.321   3.722   0.342  0.3283 -0.0044  0.1353
21662SOL    HW167428   1.294   3.633   0.319 -1.9188  0.6847 -0.1016
21662SOL    HW267429   1.411   3.728   0.311  0.2855 -1.9358 -0.5337
21663SOL     OW67430   0.752   3.752   5.996 -0.0687  0.1225  0.2290
21663SOL    HW167431   0.660   3.729   5.987  0.1654 -1.2332  0.9793
21663SOL    HW267432   0.794   3.713   5.919 -0.1854  1.2056 -0.3965
21664SOL     OW67433   8.375   1.194   7.138  0.2590  0.7812 -0.6340
21664SOL    HW167434   8.322   1.133   7.189  1.1616  0.3124 -0.2342
21664SOL    HW267435   8.442   1.224   7.198  0.1176  1.8264 -0.9618
21665SOL     OW67436   0.198   7.568   8.554  0.1847  0.1402  0.0179
21665SOL    HW167437   0.122   7.535   8.603  0.0700 -0.1622 -0.3551
21665SOL    HW267438   0.160   7.611   8.477  0.4321 -1.9976 -1.3929
21666SOL     OW67439   5.644   2.949   6.558  0.2082  0.0491  0.3065
21666SOL    HW167440   5.550   2.937   6.574 -0.0908  0.6452 -0.8801
21666SOL    HW267441   5.671   3.014   6.623 -0.0010 -0.7693  1.2286
21667SOL     OW67442   1.435   9.016   7.326  0.1638 -0.0886 -0.6088
21667SOL    HW167443   1.468   9.097   7.288  0.9751  0.2416  0.7048
21667SOL    HW267444   1.464   8.947   7.266  1.4906  0.4032 -0.5749
21668SOL     OW67445   1.389   2.935   4.661 -0.6798  0.2044 -0.3132
21668SOL    HW167446   1.368   2.843   4.641 -0.2038 -0.5184  2.0929
21668SOL    HW267447   1.309   2.983   4.641 -1.7478 -1.1330  0.5383
21669SOL     OW67448   2.723   5.282   2.269  0.2050  0.1889 -0.2334
21669SOL    HW167449   2.786   5.298   2.339  0.8373  0.4378 -0.8500
21669SOL    HW267450   2.642   5.260   2.314  0.4558  0.8918  0.5862
21670SOL     OW67451   9.007   3.085   0.804  0.2527 -0.9217 -0.3422
21670SOL    HW167452   8.958   3.031   0.866  0.5251  1.0154  1.6861
21670SOL    HW267453   8.962   3.170   0.806  1.3144 -0.3052 -1.5091
21671SOL     OW67454   8.806   9.865   7.363  0.5252  0.0425 -0.0117
21671SOL    HW167455   8.868   9.936   7.348  0.9802 -0.2509  0.4312
21671SOL    HW267456   8.735   9.882   7.302  0.3287  1.2265  0.5168
21672SOL     OW67457   7.323  10.431   9.912 -0.0015 -0.9958  0.0475
21672SOL    HW167458   7.254  10.497   9.920  0.4159 -0.5710  0.1581
21672SOL    HW267459   7.404  10.481   9.908  0.6097 -1.5800  3.1205
21673SOL     OW67460   5.887   6.900   4.762  0.2511 -0.1572  0.1192
21673SOL    HW167461   5.806   6.951   4.756  0.2454 -0.1085  0.6012
21673SOL    HW267462   5.952   6.952   4.714  0.0400 -0.1148 -0.1219
21674SOL     OW67463   3.924   9.671   6.717 -0.1103  0.4838  0.1327
21674SOL    HW167464   3.871   9.621   6.655 -0.4454 -0.6688  1.2923
21674SOL    HW267465   3.944   9.609   6.787  0.5617  1.6306  1.0027
21675SOL     OW67466   7.782   5.851   9.921 -0.7788  0.2801  0.3878
21675SOL    HW167467   7.832   5.853   9.840  0.3839 -1.9431  0.9619
21675SOL    HW267468   7.738   5.935   9.925  1.5607  1.6627 -1.0266
21676SOL     OW67469   6.200   3.037   5.741  0.6407 -0.5396 -0.1377
21676SOL    HW167470   6.191   3.128   5.769 -1.1632 -0.8538  0.4912
21676SOL    HW267471   6.270   3.038   5.676  0.2241  1.4075 -0.6288
21677SOL     OW67472   3.197   5.834   9.458  0.7988 -0.3345 -0.8693
21677SOL    HW167473   3.205   5.912   9.513 -0.6138 -0.5688 -0.3013
21677SOL    HW267474   3.204   5.868   9.369 -1.7747  0.8005 -0.7355
21678SOL     OW67475   7.781   3.099   0.967 -0.2609  0.0209  0.1435
21678SOL    HW167476   7.869   3.103   0.930  0.1229 -0.5435  0.9612
21678SOL    HW267477   7.753   3.191   0.972  0.7828  0.3186  1.0189
21679SOL     OW67478   8.834   5.161   1.544 -0.1904 -0.4690 -0.7515
21679SOL    HW167479   8.901   5.147   1.611 -2.1578  1.1520  1.7353
21679SOL    HW267480   8.868   5.232   1.490 -0.1619  0.9164  0.9903
21680SOL     OW67481   3.537   1.711   2.594 -0.3721 -0.3977  0.5589
21680SOL    HW167482   3.616   1.658   2.605 -1.2941 -2.1124 -0.6952
21680SOL    HW267483   3.563   1.798   2.624  1.5263 -1.2658  1.6462
21681SOL     OW67484   7.140   7.193   9.295 -0.4678 -0.5109  0.7674
21681SOL    HW167485   7.064   7.159   9.342 -1.8086  0.6991 -0.3926
21681SOL    HW267486   7.142   7.144   9.213 -1.5748  1.1084 -0.3012
21682SOL     OW67487   3.533   2.071   4.082  0.3438  0.4582 -0.7929
21682SOL    HW167488   3.606   2.084   4.022  0.6669  0.7272 -0.3372
21682SOL    HW267489   3.460   2.047   4.024  1.3033 -2.0130 -1.1015
21683SOL     OW67490   8.862   6.625   2.001 -0.8436 -0.1396 -0.0946
21683SOL    HW167491   8.823   6.560   1.943  0.9625 -1.3438 -0.0660
21683SOL    HW267492   8.795   6.642   2.067 -1.3414 -2.0782 -0.0442
21684SOL     OW67493   6.646   9.568   7.336 -0.8121  0.2275 -0.1803
21684SOL    HW167494   6.697   9.545   7.258  0.1006  0.6811  0.2644
21684SOL    HW267495   6.555   9.550   7.312 -0.4484 -0.5896 -0.9982
21685SOL     OW67496   8.128   5.540   2.481 -0.3455  0.2270 -0.0379
21685SOL    HW167497   8.079   5.458   2.494 -0.7197 -0.2261 -3.4166
21685SOL    HW267498   8.219   5.517   2.502 -0.7433 -0.4442  1.0297
21686SOL     OW67499   6.123   6.860   0.144 -0.0702  0.5766  0.2047
21686SOL    HW167500   6.162   6.948   0.138 -1.9872  1.4702  0.2066
21686SOL    HW267501   6.078   6.859   0.228 -2.2390  0.5636 -0.8996
21687SOL     OW67502   0.642   1.631   7.807 -0.8130 -0.1085 -0.1307
21687SOL    HW167503   0.665   1.577   7.882  0.4481  1.1756  0.4639
21687SOL    HW267504   0.547   1.624   7.799 -0.6963 -2.2372  0.0136
21688SOL     OW67505   4.427   6.069   6.992 -0.4083 -0.1993  0.2410
21688SOL    HW167506   4.510   6.117   6.999 -0.4186 -0.1864  0.2738
21688SOL    HW267507   4.436   6.018   6.911 -0.4652 -0.0094  0.1132
21689SOL     OW67508   9.729   9.038   4.219  0.1161  0.1127 -0.1617
21689SOL    HW167509   9.796   9.087   4.171  1.2146 -0.7457  0.4653
21689SOL    HW267510   9.778   8.979   4.276 -1.1817 -0.6375  0.2145
21690SOL     OW67511   8.373   8.607  10.226 -0.3450  1.0186  0.9462
21690SOL    HW167512   8.468   8.611  10.227 -0.3565  1.2624  1.7062
21690SOL    HW267513   8.346   8.683  10.174 -0.1150  0.6448  0.2777
21691SOL     OW67514   9.199   1.400   8.478  0.3308 -0.0205  0.1210
21691SOL    HW167515   9.245   1.466   8.531  0.5267 -0.5619  0.6306
21691SOL    HW267516   9.183   1.328   8.539 -0.8729  0.0081 -0.1409
21692SOL     OW67517   3.838   9.135   0.093 -0.2386  0.5008  0.1541
21692SOL    HW167518   3.768   9.187   0.053  0.3641  1.6953  0.5703
21692SOL    HW267519   3.836   9.051   0.048 -1.0283  1.0169 -0.7998
21693SOL     OW67520   6.812   3.748   8.002 -0.9623  0.4426  0.0873
21693SOL    HW167521   6.742   3.715   7.945 -0.1537  0.0688 -0.7175
21693SOL    HW267522   6.873   3.791   7.942 -0.3633  0.5251  0.7448
21694SOL     OW67523   7.212   2.855   4.293 -0.7048 -0.0101 -0.1912
21694SOL    HW167524   7.127   2.837   4.253 -0.6127  1.3986 -1.0977
21694SOL    HW267525   7.231   2.945   4.268  0.8814 -0.1752  0.3294
21695SOL     OW67526   3.671   1.891   8.521  0.0747 -0.2623  0.4874
21695SOL    HW167527   3.710   1.813   8.558  0.8305 -0.4688 -0.6786
21695SOL    HW267528   3.709   1.964   8.571  1.5635 -0.4936 -0.2604
21696SOL     OW67529   7.826   3.759   4.983 -0.1835 -0.4617  0.2041
21696SOL    HW167530   7.907   3.714   4.960  0.4184  0.5935  0.1970
21696SOL    HW267531   7.849   3.813   5.059 -0.7405  0.2197 -0.1012
21697SOL     OW67532   1.881   7.863   8.289 -0.2278 -0.0853 -0.0116
21697SOL    HW167533   1.816   7.841   8.356 -0.2842  0.7251  0.2064
21697SOL    HW267534   1.965   7.854   8.333 -0.2452 -0.0053  0.0379
21698SOL     OW67535   4.686   0.162   1.498 -0.4499 -0.0782 -0.0330
21698SOL    HW167536   4.673   0.248   1.457 -0.4358 -0.0686 -0.0179
21698SOL    HW267537   4.776   0.166   1.533 -0.2121 -0.3402 -0.6044
21699SOL     OW67538   7.524   1.991   9.400  0.5140  0.3281  0.1750
21699SOL    HW167539   7.528   2.038   9.483 -0.3221  0.2441  0.2722
21699SOL    HW267540   7.431   1.981   9.383  0.6179 -2.0271  0.5966
21700SOL     OW67541   8.314   7.906   5.473 -0.2331 -0.5418  0.1182
21700SOL    HW167542   8.277   7.973   5.530 -1.8750 -3.4709  2.8097
21700SOL    HW267543   8.403   7.937   5.454 -0.3305  1.5954  2.5730
21701SOL     OW67544   4.041   6.524   7.468  0.0879  0.4241  0.2611
21701SOL    HW167545   3.991   6.458   7.419 -0.3712  0.1634  1.0612
21701SOL    HW267546   4.013   6.608   7.432 -2.8497  0.4664  2.3258
21702SOL     OW67547   8.451   1.275   6.894  0.0406 -0.0856 -0.1040
21702SOL    HW167548   8.409   1.235   6.970  0.1624 -0.0053  0.0054
21702SOL    HW267549   8.524   1.216   6.874  0.4733  0.2992  0.3125
21703SOL     OW67550   7.172   9.338   3.073  0.4192  0.5542 -0.9819
21703SOL    HW167551   7.086   9.321   3.036  0.5939  0.0124 -1.1475
21703SOL    HW267552   7.233   9.318   3.001  0.6321  2.0396 -1.2549
21704SOL     OW67553   5.895   2.515   1.465 -0.4122 -0.5135  0.5791
21704SOL    HW167554   5.880   2.420   1.460 -0.2687 -0.4737 -1.3586
21704SOL    HW267555   5.837   2.552   1.399  0.9135  0.5733 -0.0177
21705SOL     OW67556   2.174   1.046   6.369  0.7654 -0.3831 -0.5882
21705SOL    HW167557   2.208   1.135   6.364  1.6779 -0.7675 -1.5870
21705SOL    HW267558   2.198   1.006   6.286  0.1414 -1.4879 -0.2631
21706SOL     OW67559   6.204   1.813   7.662  0.2919  0.7696 -0.1230
21706SOL    HW167560   6.195   1.823   7.757  0.0742  0.1885 -0.0826
21706SOL    HW267561   6.129   1.862   7.627 -0.7418 -0.6147  0.0785
21707SOL     OW67562   1.900   4.589   5.540 -0.0006  0.0389  0.2646
21707SOL    HW167563   1.926   4.565   5.629 -0.7543  1.3353  0.8557
21707SOL    HW267564   1.807   4.565   5.535  0.1045 -0.2921 -0.2887
21708SOL     OW67565   2.980   2.652   9.080 -0.3443  0.2901  0.4751
21708SOL    HW167566   2.911   2.707   9.116 -0.6772  0.1718  0.0270
21708SOL    HW267567   2.999   2.589   9.149  0.2082  1.1080  1.0908
21709SOL     OW67568   4.471   0.087   1.155 -0.7041  0.3754 -0.0069
21709SOL    HW167569   4.404   0.104   1.088 -1.2458 -1.3403  0.0540
21709SOL    HW267570   4.425   0.102   1.238 -1.4589 -2.0476  0.0764
21710SOL     OW67571   7.907   4.494   5.603 -0.3318  0.0189  0.0439
21710SOL    HW167572   7.890   4.456   5.517  1.0102  0.7242 -0.5705
21710SOL    HW267573   7.920   4.587   5.585  2.9047 -0.2326  0.5134
21711SOL     OW67574  10.433   4.669   2.957  0.5037  0.1701 -0.5514
21711SOL    HW167575  10.517   4.648   3.000  0.1278  0.7423  0.5141
21711SOL    HW267576  10.455   4.739   2.895  0.7442  0.6712  0.0842
21712SOL     OW67577   5.370   0.008   8.026 -0.9177  0.3097 -0.4333
21712SOL    HW167578   5.415  -0.072   7.997 -0.3050  0.2931  0.5250
21712SOL    HW267579   5.280  -0.020   8.041 -1.1879  0.2445 -1.9498
21713SOL     OW67580   7.103   9.994   2.685 -0.6844  0.8413 -0.0165
21713SOL    HW167581   7.039   9.922   2.682 -0.6778  0.8565 -0.6045
21713SOL    HW267582   7.059  10.063   2.734 -1.8449  1.5428 -1.9441
21714SOL     OW67583   9.436   6.140   2.617 -0.7620  0.6016  0.1934
21714SOL    HW167584   9.400   6.229   2.622  0.2469  1.0742 -0.5460
21714SOL    HW267585   9.515   6.144   2.670 -0.5949  0.2062 -0.0262
21715SOL     OW67586   3.592   7.533   4.115 -0.0520  0.3411  0.5176
21715SOL    HW167587   3.550   7.490   4.040 -0.4019  1.6323 -0.0571
21715SOL    HW267588   3.520   7.551   4.175  0.5608 -3.3771  2.6585
21716SOL     OW67589   8.751   5.624   7.923  0.0116 -0.4571  0.0831
21716SOL    HW167590   8.683   5.576   7.971 -0.8534  0.9641  0.3368
21716SOL    HW267591   8.796   5.676   7.989  1.4179 -1.3963 -0.0785
21717SOL     OW67592   2.859   1.889   3.654  0.3001 -0.5746 -0.0293
21717SOL    HW167593   2.850   1.984   3.642 -0.1982 -0.5973  0.1679
21717SOL    HW267594   2.794   1.866   3.720 -0.7030 -1.3068 -1.2232
21718SOL     OW67595   7.890   9.220   8.519  1.2441 -0.0957 -0.1711
21718SOL    HW167596   7.858   9.222   8.429  1.1447  0.7815 -0.1226
21718SOL    HW267597   7.884   9.128   8.545  0.2409 -0.1850 -0.6930
21719SOL     OW67598   5.772   1.514   8.550 -0.1424 -0.1711 -0.0810
21719SOL    HW167599   5.772   1.485   8.641 -1.3445 -1.9228 -0.5827
21719SOL    HW267600   5.848   1.472   8.511  0.5887  0.8833  0.1831
21720SOL     OW67601   3.650   4.754   6.807  0.0533  0.5786 -0.0063
21720SOL    HW167602   3.578   4.800   6.764 -0.1925  0.4197  0.2358
21720SOL    HW267603   3.608   4.699   6.873  0.5220  1.9914  1.5346
21721SOL     OW67604  10.031   0.231   6.668  0.1602 -0.1184  0.2335
21721SOL    HW167605  10.052   0.316   6.707  1.0374 -0.9662  1.7113
21721SOL    HW267606  10.114   0.201   6.630 -0.7244  0.8268 -2.7670
21722SOL     OW67607   4.126   9.899   6.711 -0.1710 -0.2375 -0.1529
21722SOL    HW167608   4.047   9.844   6.706 -0.1103 -0.2921 -0.5450
21722SOL    HW267609   4.092   9.988   6.724 -0.3027 -0.2599 -0.3314
21723SOL     OW67610   7.516   6.209   2.241  0.1142 -0.2225 -0.4806
21723SOL    HW167611   7.459   6.264   2.187 -0.0841 -0.3014 -0.3503
21723SOL    HW267612   7.516   6.252   2.326 -0.9797 -1.0669 -0.0378
21724SOL     OW67613   6.075   4.820   1.340 -0.1585  0.3865  0.0742
21724SOL    HW167614   6.077   4.872   1.260  1.1743 -0.6106 -0.5728
21724SOL    HW267615   6.163   4.828   1.376 -0.4522 -0.0093  0.9154
21725SOL     OW67616   8.175   7.656   8.641  0.2770  0.3963 -0.1176
21725SOL    HW167617   8.105   7.635   8.704  0.2921 -1.3893 -0.6547
21725SOL    HW267618   8.174   7.583   8.579 -0.3563  2.5016 -2.7938
21726SOL     OW67619   7.941   5.696   5.892  0.0389  0.6142 -0.5749
21726SOL    HW167620   7.862   5.692   5.946  0.6772 -0.9187  0.3256
21726SOL    HW267621   7.913   5.736   5.810 -1.1692  2.1638  0.5326
21727SOL     OW67622  10.442   7.537   1.199  0.0355  0.0428 -0.2937
21727SOL    HW167623  10.488   7.606   1.248  0.5457  0.0746 -0.8034
21727SOL    HW267624  10.349   7.559   1.209  0.1217 -0.0204  0.7501
21728SOL     OW67625   9.220  10.139   9.347 -0.1356  0.4716  0.0400
21728SOL    HW167626   9.171  10.217   9.374  0.7416  0.2271  2.6483
21728SOL    HW267627   9.154  10.071   9.336 -0.6791  0.9632  0.2222
21729SOL     OW67628   4.834   6.195   5.496  0.2304 -0.1455 -0.4451
21729SOL    HW167629   4.903   6.165   5.436  1.2986  0.5300  0.4081
21729SOL    HW267630   4.843   6.140   5.573  0.4463  0.5593  0.0470
21730SOL     OW67631   8.671   8.435   1.770 -0.1119  0.3090 -0.1383
21730SOL    HW167632   8.698   8.416   1.680 -1.5254 -0.2466 -0.4815
21730SOL    HW267633   8.576   8.447   1.764 -0.1867  0.5795  1.2393
21731SOL     OW67634   5.261   4.298   9.445  0.5125 -0.1557 -0.5835
21731SOL    HW167635   5.271   4.203   9.448  1.0619 -0.0777  0.0893
21731SOL    HW267636   5.185   4.312   9.388 -0.1479 -1.0315  0.0528
21732SOL     OW67637   3.556   2.029   7.437  0.2026 -0.2347  0.0044
21732SOL    HW167638   3.568   2.114   7.396  0.5466 -1.0838 -1.7375
21732SOL    HW267639   3.638   2.013   7.484 -0.2823  0.8454  1.2821
21733SOL     OW67640   1.099   3.060   0.881  0.5147  0.5657  0.4498
21733SOL    HW167641   1.185   3.020   0.868 -0.0583 -0.7961  0.7166
21733SOL    HW267642   1.058   3.008   0.950 -0.9058  0.5625 -0.3460
21734SOL     OW67643   5.635   6.003   9.280  0.2756  0.3507  0.2888
21734SOL    HW167644   5.675   5.952   9.209  0.3175  0.4077  0.2720
21734SOL    HW267645   5.700   6.003   9.350  0.4689  0.7844  0.1106
21735SOL     OW67646   1.487   0.709   3.304  0.1408  0.0884  0.1172
21735SOL    HW167647   1.508   0.701   3.397  0.4155  0.0299  0.0525
21735SOL    HW267648   1.570   0.689   3.259  0.5314  1.9451 -0.0944
21736SOL     OW67649   8.910   5.990   1.791  0.0473  0.4034 -0.1228
21736SOL    HW167650   8.939   6.049   1.861 -4.1422  0.2707  2.0322
21736SOL    HW267651   8.881   6.049   1.721 -1.0633  0.8578  0.6808
21737SOL     OW67652   5.950   0.775   3.414  0.3090 -0.7832 -0.5545
21737SOL    HW167653   5.995   0.857   3.393  0.7626 -1.7864 -4.1087
21737SOL    HW267654   5.860   0.790   3.388 -0.2564 -0.6360  1.3070
21738SOL     OW67655   7.898   8.643   6.087 -0.5843  0.0194 -0.1803
21738SOL    HW167656   7.860   8.566   6.129 -1.2927  1.1179  1.2972
21738SOL    HW267657   7.824   8.683   6.040 -0.0858 -0.5040 -1.4408
21739SOL     OW67658   0.827   8.060   8.551  0.3134  0.7779 -0.1957
21739SOL    HW167659   0.911   8.098   8.527  0.0995  1.9668  0.8319
21739SOL    HW267660   0.778   8.055   8.469  1.4490 -0.1475 -0.8397
21740SOL     OW67661   2.205   9.895   7.190  0.4462 -0.6035 -0.1998
21740SOL    HW167662   2.124   9.910   7.238  1.2044 -1.3419  1.3863
21740SOL    HW267663   2.205   9.801   7.171  0.0594 -0.2982 -1.9103
21741SOL     OW67664   4.705   7.558   8.016 -0.2375 -0.3740 -0.5136
21741SOL    HW167665   4.723   7.573   7.923 -0.7887 -1.7603 -0.8647
21741SOL    HW267666   4.617   7.595   8.030  0.2516  0.7417 -0.2855
21742SOL     OW67667   6.530   0.456   4.335 -0.6846  0.0082  0.0416
21742SOL    HW167668   6.529   0.383   4.272  0.6528 -0.9466  1.0809
21742SOL    HW267669   6.605   0.509   4.308 -0.8742  0.2882  0.0695
21743SOL     OW67670   5.749   1.691   6.458 -0.1684 -0.1527  0.0897
21743SOL    HW167671   5.701   1.711   6.377  0.1016  1.0634  0.2231
21743SOL    HW267672   5.748   1.772   6.508  2.3136  0.0530 -0.0538
21744SOL     OW67673   2.427   5.303   6.316  0.1803 -0.0129 -0.9073
21744SOL    HW167674   2.462   5.219   6.285  0.5516 -0.5349  0.7871
21744SOL    HW267675   2.386   5.281   6.400 -0.3513  1.3872 -0.7868
21745SOL     OW67676   4.733   3.868   8.755 -0.2335 -0.5391  0.3398
21745SOL    HW167677   4.802   3.805   8.738  1.1639  1.2076 -0.8172
21745SOL    HW267678   4.778   3.949   8.778 -1.9343  0.2884  1.0014
21746SOL     OW67679   2.976   9.693   6.347 -0.8750 -0.1806  0.0962
21746SOL    HW167680   3.014   9.746   6.417 -0.8181  0.2741 -0.2677
21746SOL    HW267681   2.919   9.630   6.391  0.5166 -1.0682  0.6769
21747SOL     OW67682   6.056   4.609   9.265 -0.3077  0.1204  0.3701
21747SOL    HW167683   6.126   4.545   9.280 -0.5548  0.0629  1.3241
21747SOL    HW267684   5.976   4.557   9.267 -0.4854  0.4085  0.8226
21748SOL     OW67685   2.714   3.701   9.587  0.3816 -0.1251  0.3877
21748SOL    HW167686   2.689   3.675   9.499  1.6288 -2.3975  0.6048
21748SOL    HW267687   2.647   3.763   9.615  1.7955  3.5684 -3.3781
21749SOL     OW67688   4.950   5.993   6.808 -0.5538  0.2993  0.0325
21749SOL    HW167689   5.031   6.043   6.822 -0.5649 -0.1417  1.8113
21749SOL    HW267690   4.978   5.917   6.757  0.4417 -0.5236  1.7135
21750SOL     OW67691   7.839   7.005   6.095 -0.0710 -0.3717 -0.0610
21750SOL    HW167692   7.776   7.076   6.107  0.6075  0.5066 -1.4108
21750SOL    HW267693   7.824   6.974   6.005  1.0584 -0.4911 -0.2230
21751SOL     OW67694   5.025   6.051   7.492  0.7038  0.0059  0.3428
21751SOL    HW167695   4.996   5.960   7.490 -0.5582  0.3677  0.8840
21751SOL    HW267696   5.119   6.047   7.477  0.5248 -1.3084 -0.6241
21752SOL     OW67697   4.795   9.582   0.873 -0.2171  0.1954 -0.8500
21752SOL    HW167698   4.785   9.592   0.968  2.3661 -1.6091 -0.2900
21752SOL    HW267699   4.856   9.652   0.848  0.1379 -0.1467 -0.9418
21753SOL     OW67700   5.529  10.089   0.317  0.5403  0.0150  0.2458
21753SOL    HW167701   5.528  10.158   0.384 -0.5362 -0.6430  0.9480
21753SOL    HW267702   5.455  10.032   0.341 -0.2890  0.1103 -1.8974
21754SOL     OW67703   8.788   6.386   2.145  0.7261  0.0081 -0.0268
21754SOL    HW167704   8.748   6.354   2.064 -0.8176 -1.9603  1.3941
21754SOL    HW267705   8.852   6.318   2.168 -0.0383 -0.3329  1.2119
21755SOL     OW67706   9.669   5.169   0.216  0.0943 -0.0382  0.3884
21755SOL    HW167707   9.688   5.190   0.125  0.8791 -0.1088  0.5301
21755SOL    HW267708   9.692   5.076   0.225 -0.8196 -0.2756  0.4427
21756SOL     OW67709   6.598   5.975   7.058  0.6439  0.4326 -1.0641
21756SOL    HW167710   6.515   5.934   7.030  0.1977  0.8681 -0.4082
21756SOL    HW267711   6.662   5.944   6.994  0.4247 -1.6491 -0.3629
21757SOL     OW67712   6.418   7.863   6.931 -0.1668  0.1467  0.4177
21757SOL    HW167713   6.482   7.805   6.890 -0.9765 -0.0286 -0.6468
21757SOL    HW267714   6.462   7.949   6.934 -0.2628  0.2749 -1.2900
21758SOL     OW67715   4.120   7.284   4.673 -0.2645 -0.3362  0.4856
21758SOL    HW167716   4.049   7.260   4.734  0.3049 -0.3111  1.1722
21758SOL    HW267717   4.192   7.311   4.730  0.9565 -2.1313 -0.1442
21759SOL     OW67718   5.868   4.065   7.376 -0.3626  0.0690 -0.3674
21759SOL    HW167719   5.821   4.071   7.292 -1.0826  1.4883  0.0931
21759SOL    HW267720   5.807   4.102   7.440  0.8898  0.7564  0.4745
21760SOL     OW67721  10.263   7.324   4.280 -0.1628  0.5110 -0.2635
21760SOL    HW167722  10.262   7.228   4.277 -0.4878  0.5053 -0.0244
21760SOL    HW267723  10.226   7.345   4.366  1.3513  0.8226  0.3532
21761SOL     OW67724   7.980   3.568   3.794 -0.3351 -0.0037 -0.4112
21761SOL    HW167725   8.075   3.556   3.800 -0.4396 -0.9163 -0.4028
21761SOL    HW267726   7.969   3.660   3.771  0.4997  0.5124  1.1089
21762SOL     OW67727   8.559   8.241   3.484 -0.8804 -0.5011  0.2404
21762SOL    HW167728   8.480   8.263   3.434 -0.1590  1.0968 -0.2693
21762SOL    HW267729   8.627   8.298   3.447 -0.2339  0.5475  2.8246
21763SOL     OW67730   7.889   4.750   4.732 -0.7506 -0.0816  0.3417
21763SOL    HW167731   7.864   4.791   4.650 -3.6722 -0.3874  0.9677
21763SOL    HW267732   7.837   4.670   4.736  0.6510 -0.9874  1.7088
21764SOL     OW67733   3.091   8.323   5.964  0.8287 -0.5488 -0.2266
21764SOL    HW167734   3.027   8.330   6.034 -0.0013 -1.6346 -0.8306
21764SOL    HW267735   3.135   8.240   5.980  0.9503 -0.5832 -0.7126
21765SOL     OW67736   9.312   0.343   0.280  0.3057  0.3562 -0.4027
21765SOL    HW167737   9.345   0.324   0.368  0.4339 -2.2041 -0.9282
21765SOL    HW267738   9.253   0.418   0.293 -1.5837 -1.3964  2.3370
21766SOL     OW67739   0.768   9.073   2.770 -0.0892  0.1001 -0.1130
21766SOL    HW167740   0.795   9.134   2.702 -0.0525  0.9255  0.6145
21766SOL    HW267741   0.675   9.094   2.785  0.0830  0.4266  0.5711
21767SOL     OW67742   3.334   0.873   3.559 -0.1482 -0.3638 -0.2393
21767SOL    HW167743   3.362   0.881   3.468  0.4036 -1.1550 -0.1457
21767SOL    HW267744   3.415   0.855   3.608 -0.6985 -2.0404  0.1262
21768SOL     OW67745   3.615   6.350   9.270 -0.1921  0.3442 -0.6822
21768SOL    HW167746   3.582   6.298   9.197  0.5045 -0.1117 -0.6746
21768SOL    HW267747   3.612   6.290   9.345 -0.5643  0.6991 -0.4078
21769SOL     OW67748   9.325   5.477   0.628  0.2623  0.2069 -0.0770
21769SOL    HW167749   9.299   5.386   0.636 -0.2242  0.2471 -1.0489
21769SOL    HW267750   9.418   5.478   0.653 -0.2333 -0.1987  1.8959
21770SOL     OW67751   9.011   1.977   6.518  0.6992  0.4512 -0.0410
21770SOL    HW167752   8.931   1.989   6.466  0.0448  0.5976  0.9709
21770SOL    HW267753   8.981   1.984   6.609  1.4113 -2.1199  0.4656
21771SOL     OW67754   4.042   0.036   2.757  0.2470  0.3173  0.0235
21771SOL    HW167755   3.970   0.010   2.813 -1.3066  1.0868 -1.5369
21771SOL    HW267756   4.032   0.131   2.747  0.6522  0.2441 -1.2807
21772SOL     OW67757   2.483   4.972   5.915 -0.0878 -0.2063  0.0571
21772SOL    HW167758   2.399   5.007   5.886  0.1684  0.8325  0.5214
21772SOL    HW267759   2.468   4.879   5.927 -1.2012 -0.0095  0.2543
21773SOL     OW67760   2.134   9.817   8.611 -0.3883  1.0476 -0.2926
21773SOL    HW167761   2.179   9.774   8.683 -0.0556  1.7989 -0.0317
21773SOL    HW267762   2.202   9.869   8.568 -0.9481  2.0534 -0.0064
21774SOL     OW67763   7.640   3.524   6.647  0.4354  0.3465  0.5694
21774SOL    HW167764   7.594   3.608   6.647 -0.2787 -0.0376  0.5028
21774SOL    HW267765   7.674   3.515   6.737 -1.4484 -0.3344  1.2566
21775SOL     OW67766   5.195  10.079   6.927  0.2653  0.2604  0.0062
21775SOL    HW167767   5.166  10.163   6.963  1.1617  0.3437  0.5438
21775SOL    HW267768   5.129  10.059   6.860 -0.6298  0.7979  0.6923
21776SOL     OW67769   0.465   6.040   2.478 -0.5700 -0.1942 -0.5425
21776SOL    HW167770   0.526   5.966   2.481  1.6274  1.4690 -1.2858
21776SOL    HW267771   0.380   6.002   2.497  0.9222 -2.3702  2.8095
21777SOL     OW67772   4.615   5.182   7.268  0.3370 -0.0683 -0.3142
21777SOL    HW167773   4.707   5.179   7.292  0.3545  0.6321 -0.2589
21777SOL    HW267774   4.581   5.096   7.290  0.4600  0.3802  1.7695
21778SOL     OW67775   4.967  10.047  10.298 -0.0846  0.0330 -0.4860
21778SOL    HW167776   5.017   9.967  10.287  0.1071  0.1360 -0.3722
21778SOL    HW267777   4.969  10.064  10.392  0.8921  0.8170 -0.6329
21779SOL     OW67778   8.145   6.910   2.032  0.1982  0.4039  0.3658
21779SOL    HW167779   8.095   6.882   2.109  0.8708 -1.0219  0.3093
21779SOL    HW267780   8.110   6.857   1.960 -0.2024  1.4974 -0.2600
21780SOL     OW67781   8.939   5.512   5.395 -0.0463  0.0206  0.2261
21780SOL    HW167782   8.984   5.578   5.341 -0.0554 -0.2332 -0.0983
21780SOL    HW267783   8.873   5.474   5.336  0.2161 -0.5474  0.2955
21781SOL     OW67784   1.425   5.541   6.675  0.2753  0.1930  0.2088
21781SOL    HW167785   1.474   5.562   6.595 -1.6803  4.4924 -0.1690
21781SOL    HW267786   1.491   5.543   6.744  1.7448 -2.0272 -1.0198
21782SOL     OW67787   1.164  10.027   2.732  0.0211 -0.0336  0.4064
21782SOL    HW167788   1.247  10.066   2.703  1.3992 -2.1186  1.3171
21782SOL    HW267789   1.137   9.972   2.658  0.3940 -0.7106  0.7643
21783SOL     OW67790   3.651   4.334   9.070  0.3669 -0.4526  0.0979
21783SOL    HW167791   3.703   4.359   9.146 -1.2006  1.5286  0.5700
21783SOL    HW267792   3.660   4.238   9.066  0.8776 -0.5605  2.4606
21784SOL     OW67793   7.204   9.006   3.071 -0.3860  0.2643 -0.2770
21784SOL    HW167794   7.121   9.049   3.091 -2.4160 -3.6359  0.7083
21784SOL    HW267795   7.271   9.066   3.104 -2.9389  2.1297  1.9133
21785SOL     OW67796   1.345   4.764   3.567  0.0290  0.3898 -0.0047
21785SOL    HW167797   1.341   4.749   3.662  2.6328 -1.2196 -0.0626
21785SOL    HW267798   1.363   4.858   3.558 -0.2169  0.5523  1.0863
21786SOL     OW67799   5.209  10.004   1.758 -0.0713  0.2736 -0.3438
21786SOL    HW167800   5.248   9.962   1.681  0.0403 -0.9625  0.3529
21786SOL    HW267801   5.231   9.946   1.830 -2.0405  0.2426  0.2959
21787SOL     OW67802   4.495  10.066   6.740 -0.0185 -0.0298 -0.1084
21787SOL    HW167803   4.432  10.095   6.674  0.4257  0.0171 -0.5156
21787SOL    HW267804   4.526  10.147   6.781 -2.7349 -0.1141  2.5280
21788SOL     OW67805   2.000  10.364   8.703  0.2138  0.0419  0.4330
21788SOL    HW167806   1.982  10.336   8.792  2.0443 -0.1605  0.7662
21788SOL    HW267807   1.992  10.460   8.706 -0.9262 -0.0393  0.5012
21789SOL     OW67808   4.573   7.821  10.342  0.5718  0.4619  0.1502
21789SOL    HW167809   4.485   7.833  10.377  0.8148  0.5744  0.7320
21789SOL    HW267810   4.561   7.819  10.247 -0.2277 -0.8351  0.2525
21790SOL     OW67811   0.283   2.106   4.184 -0.5726  0.1293 -0.1219
21790SOL    HW167812   0.223   2.151   4.243  0.4426  1.8564 -0.3192
21790SOL    HW267813   0.359   2.163   4.180  0.2286 -0.9714 -1.4900
21791SOL     OW67814   4.131   4.134   5.565  0.0195  0.2270 -0.2271
21791SOL    HW167815   4.038   4.126   5.543 -0.4511 -0.6487  1.8489
21791SOL    HW267816   4.174   4.066   5.514 -0.2142  1.5041 -2.2560
21792SOL     OW67817   7.804   7.646   0.016  0.1249 -0.3554  0.0623
21792SOL    HW167818   7.722   7.625  -0.029 -0.0873  1.8168 -0.6967
21792SOL    HW267819   7.787   7.623   0.108 -1.6914  0.8574  0.0810
21793SOL     OW67820   5.634   7.343   8.843  0.5411 -0.0319 -0.4321
21793SOL    HW167821   5.656   7.409   8.776 -0.7000  1.1472  0.2716
21793SOL    HW267822   5.683   7.370   8.920  1.9769 -1.3977 -0.8071
21794SOL     OW67823   2.592   2.678   0.453 -0.0609 -0.3134 -0.1208
21794SOL    HW167824   2.541   2.609   0.495 -0.8811  0.3866  0.0497
21794SOL    HW267825   2.683   2.655   0.472 -0.4087  0.4278  2.7563
21795SOL     OW67826   3.317   0.301   6.555  0.3200  0.2181 -0.1181
21795SOL    HW167827   3.240   0.273   6.605 -1.1437  1.4563 -1.5778
21795SOL    HW267828   3.369   0.351   6.617 -0.0114 -0.6480  0.9034
21796SOL     OW67829   5.580  10.378   9.938 -0.2224 -0.5238  0.4719
21796SOL    HW167830   5.524  10.303   9.957 -2.5542  1.0677  0.2785
21796SOL    HW267831   5.587  10.425  10.021 -2.2845  1.1953 -0.2283
21797SOL     OW67832  10.398   5.299   9.427  0.3962  0.4575 -0.9011
21797SOL    HW167833  10.340   5.225   9.411 -0.0875  0.7906 -0.7296
21797SOL    HW267834  10.485   5.261   9.431 -0.0182 -0.4708  1.3968
21798SOL     OW67835   1.646   5.102   7.335  0.1954  0.3444 -0.3226
21798SOL    HW167836   1.568   5.105   7.280 -0.3545  0.6595  0.4511
21798SOL    HW267837   1.613   5.120   7.423  0.8095 -1.5378  0.3574
21799SOL     OW67838   0.030   4.279   3.882  0.0118 -0.1426  0.2951
21799SOL    HW167839   0.104   4.273   3.821  0.4803  1.2975  0.6944
21799SOL    HW267840   0.068   4.261   3.968 -0.2065  0.0437  0.4314
21800SOL     OW67841   5.263   1.670   1.476 -0.0949 -0.3707  0.9063
21800SOL    HW167842   5.278   1.675   1.381  0.7331 -0.7390  1.0113
21800SOL    HW267843   5.179   1.624   1.484 -0.7533  0.6779  0.3333
21801SOL     OW67844   0.809   6.184   0.475 -0.3112  0.2800  0.2309
21801SOL    HW167845   0.806   6.201   0.569  4.0285  1.8370  0.3539
21801SOL    HW267846   0.796   6.270   0.435  0.1612  0.0649 -0.3999
21802SOL     OW67847   3.458   1.331   7.956 -0.3119  0.0247 -0.1486
21802SOL    HW167848   3.409   1.413   7.953 -1.6253 -0.7615 -2.3037
21802SOL    HW267849   3.544   1.356   7.989 -1.1902  1.9752  0.8153
21803SOL     OW67850   9.392   3.641  10.389 -0.0488  0.2210 -0.1904
21803SOL    HW167851   9.384   3.546  10.383 -0.5394  0.2710 -0.4051
21803SOL    HW267852   9.354   3.673  10.308  1.4113  0.5505 -0.7667
21804SOL     OW67853   9.213   6.389   9.401 -0.0308  0.1354  0.0062
21804SOL    HW167854   9.168   6.357   9.479  0.5698 -0.2882  0.1844
21804SOL    HW267855   9.283   6.445   9.433  0.4022 -0.2732 -0.2107
21805SOL     OW67856   1.931   1.763   1.423 -0.3431  0.2988 -0.1377
21805SOL    HW167857   1.848   1.728   1.456  0.2458  0.9395  2.1410
21805SOL    HW267858   1.989   1.764   1.498  1.4474  0.8390 -1.4601
21806SOL     OW67859  10.477   1.312   6.051 -0.4946 -0.6483  0.3945
21806SOL    HW167860  10.383   1.320   6.068 -0.3193 -0.8843  1.6240
21806SOL    HW267861  10.518   1.343   6.132  0.4076 -3.9857  1.3543
21807SOL     OW67862  10.481   9.277   1.600 -0.1825  0.8456  0.8293
21807SOL    HW167863  10.418   9.216   1.561 -1.0574  1.4982  1.1805
21807SOL    HW267864  10.501   9.339   1.530  0.4967  0.3280  0.5551
21808SOL     OW67865   7.375  10.037   0.571 -0.1967 -0.1626 -0.2779
21808SOL    HW167866   7.390  10.121   0.615 -0.8594  0.0657 -0.4817
21808SOL    HW267867   7.364   9.975   0.643  0.9956 -0.2199 -0.1193
21809SOL     OW67868   9.246   7.104   7.447 -0.1731  0.3607 -0.1565
21809SOL    HW167869   9.154   7.087   7.426 -0.2384 -0.4065  0.6768
21809SOL    HW267870   9.250   7.096   7.542  0.9419 -0.5761 -0.2680
21810SOL     OW67871   1.832   9.945   8.521 -0.1706  0.1559 -0.0520
21810SOL    HW167872   1.811  10.015   8.459  0.4394  0.8693  0.5207
21810SOL    HW267873   1.782   9.969   8.600  1.4967  1.0056  0.7883
21811SOL     OW67874   6.097   9.184   5.528 -0.2526 -0.9794 -0.0391
21811SOL    HW167875   6.156   9.116   5.562  0.7425  0.1263  0.5383
21811SOL    HW267876   6.015   9.170   5.574  0.4306 -0.8241  1.2655
21812SOL     OW67877   8.108   9.664   7.384 -0.5371 -0.9075  0.0075
21812SOL    HW167878   8.040   9.731   7.388  0.1326 -0.2786  1.7086
21812SOL    HW267879   8.138   9.655   7.474  2.6914 -0.0690 -0.8542
21813SOL     OW67880   7.071   9.116   2.424  0.0298 -0.5155  0.2160
21813SOL    HW167881   7.124   9.195   2.410 -0.2646 -0.3076  0.2574
21813SOL    HW267882   7.134   9.044   2.424  0.1766 -0.3962 -0.9425
21814SOL     OW67883  10.428   5.428   5.502  0.1109  0.3051  0.7979
21814SOL    HW167884  10.363   5.483   5.458  1.5328 -0.5863 -2.7480
21814SOL    HW267885  10.392   5.339   5.496  1.0728 -0.0415 -0.1512
21815SOL     OW67886   7.097  10.352   6.643 -0.2930  0.5244  0.0842
21815SOL    HW167887   7.057  10.280   6.693  0.7331  0.2229  0.4941
21815SOL    HW267888   7.109  10.421   6.708 -0.4452  0.7393 -0.1143
21816SOL     OW67889   2.584   1.883   3.255 -0.0056  0.0579  0.2471
21816SOL    HW167890   2.518   1.913   3.318  0.0831 -0.5030  0.6214
21816SOL    HW267891   2.650   1.840   3.309  1.4410  1.9315  0.0194
21817SOL     OW67892   6.153   2.341   2.497 -0.4155 -0.0961  0.0955
21817SOL    HW167893   6.183   2.259   2.458 -0.2463  0.3462 -0.7434
21817SOL    HW267894   6.083   2.316   2.557  0.6727 -1.0145  1.0348
21818SOL     OW67895   6.071   9.690   3.550  0.1667  0.1365  0.0151
21818SOL    HW167896   6.019   9.676   3.470 -0.0037  0.8544 -0.0042
21818SOL    HW267897   6.151   9.641   3.535  0.0656  0.1350 -0.5358
21819SOL     OW67898   0.395   4.820   7.508 -0.2260  0.1083  0.4023
21819SOL    HW167899   0.424   4.911   7.506 -1.1616  0.4819 -2.9806
21819SOL    HW267900   0.465   4.773   7.462  0.1693 -0.9242  1.9757
21820SOL     OW67901   0.536   3.191   2.514  0.4215  0.4324  0.3596
21820SOL    HW167902   0.526   3.189   2.609  0.0188  2.0652  0.3768
21820SOL    HW267903   0.516   3.281   2.490 -1.1731 -0.3406 -1.4570
21821SOL     OW67904   0.572   2.196   5.559  0.2177 -0.4309  0.4387
21821SOL    HW167905   0.544   2.171   5.647  0.1081 -0.6588  0.3408
21821SOL    HW267906   0.505   2.257   5.528 -0.1119 -0.8823  0.2512
21822SOL     OW67907   4.494  10.319   6.859 -0.0410  0.1083 -0.1904
21822SOL    HW167908   4.402  10.316   6.884 -0.1263 -0.6560 -0.5522
21822SOL    HW267909   4.542  10.308   6.941 -0.3119 -3.3908 -0.3190
21823SOL     OW67910   6.200   3.072   1.362  0.2614 -0.3910 -0.0605
21823SOL    HW167911   6.202   3.027   1.447 -0.5997 -0.1092  0.1202
21823SOL    HW267912   6.146   3.017   1.307 -0.8459  0.4313  0.1764
21824SOL     OW67913   6.525   1.336   7.353 -0.1451 -0.2245  0.4990
21824SOL    HW167914   6.452   1.274   7.357  0.1859 -0.9179 -2.2139
21824SOL    HW267915   6.492   1.408   7.299  1.0708 -0.5120 -0.6983
21825SOL     OW67916   4.255   2.412   5.895  0.0685 -0.2269 -0.0014
21825SOL    HW167917   4.202   2.436   5.971  0.3728 -1.2608  0.5561
21825SOL    HW267918   4.344   2.437   5.918  0.1714 -0.5995  0.0096
21826SOL     OW67919   2.095   3.176   7.751  0.4360  0.3848  0.0143
21826SOL    HW167920   2.024   3.239   7.741 -1.8730 -1.9254  0.5743
21826SOL    HW267921   2.087   3.145   7.842  2.6891  0.5489  0.3412
21827SOL     OW67922   3.569   8.608   2.528 -0.4798 -0.2568  0.1381
21827SOL    HW167923   3.587   8.564   2.612  1.3680 -2.2357 -1.2038
21827SOL    HW267924   3.650   8.655   2.508 -1.2515  1.0042 -0.1238
21828SOL     OW67925   9.706   8.010   0.760 -0.8886 -0.3311  0.0070
21828SOL    HW167926   9.662   7.981   0.680 -0.4728  1.0038 -0.7278
21828SOL    HW267927   9.662   7.962   0.830 -1.4820 -1.2805 -0.9831
21829SOL     OW67928   8.249   3.713   0.370 -0.4670 -0.3298  0.3606
21829SOL    HW167929   8.198   3.785   0.332  0.2286  0.8477  1.6017
21829SOL    HW267930   8.208   3.634   0.334 -1.6148  0.6478 -0.5838
21830SOL     OW67931   1.564   2.699   8.537 -0.2377  0.3474 -0.5303
21830SOL    HW167932   1.599   2.609   8.540 -1.0044 -0.0017 -1.4024
21830SOL    HW267933   1.641   2.755   8.547  0.2218 -0.4037  0.2830
21831SOL     OW67934   7.145   5.734   9.592  0.0845  0.1443 -0.7326
21831SOL    HW167935   7.100   5.766   9.514  1.2446  0.3081 -1.3663
21831SOL    HW267936   7.167   5.813   9.641  0.9230  0.1937 -1.1545
21832SOL     OW67937   5.880   2.724   6.984 -0.0551 -0.4415 -0.5751
21832SOL    HW167938   5.789   2.753   6.990  0.0905 -0.1559  0.5425
21832SOL    HW267939   5.879   2.655   6.918 -0.9182  0.1688 -1.2263
21833SOL     OW67940   0.645   8.958   3.067  0.6975  0.3561 -0.6823
21833SOL    HW167941   0.581   8.944   2.997 -0.0823  1.8392 -0.3064
21833SOL    HW267942   0.698   8.879   3.067 -1.0828 -0.9060 -1.0580
21834SOL     OW67943  10.145   6.752   3.576  0.1977 -0.2666  0.4026
21834SOL    HW167944  10.212   6.747   3.645  0.2370 -0.9665  0.3229
21834SOL    HW267945  10.062   6.752   3.623  0.1801  3.6054  0.7123
21835SOL     OW67946  10.017   3.689   7.818  0.5019 -0.3272  0.2038
21835SOL    HW167947   9.938   3.655   7.775 -0.0344 -0.6238  1.3525
21835SOL    HW267948  10.085   3.625   7.797 -0.0780 -1.2008  0.8793
21836SOL     OW67949   9.205   5.491   2.008  0.3640  0.4031 -0.1783
21836SOL    HW167950   9.168   5.403   1.999  1.3507  0.2048 -3.6235
21836SOL    HW267951   9.137   5.549   1.977  0.6869  0.6079 -0.5094
21837SOL     OW67952   3.430   3.761   9.916  0.2852 -0.5868 -0.8739
21837SOL    HW167953   3.487   3.833   9.890  0.2917 -0.7645 -1.3793
21837SOL    HW267954   3.352   3.771   9.861  0.1708 -0.7991 -0.7528
21838SOL     OW67955   1.384   8.594   6.924 -0.4639 -0.2279  0.1142
21838SOL    HW167956   1.450   8.528   6.904  0.9681  1.2365 -0.2280
21838SOL    HW267957   1.365   8.582   7.017 -0.1720 -1.0641  0.0723
21839SOL     OW67958   1.308   8.321   2.956  0.4698  0.0798  0.0430
21839SOL    HW167959   1.309   8.415   2.972  0.2149  0.5025 -2.0754
21839SOL    HW267960   1.387   8.305   2.905 -0.3122 -0.5532 -1.0117
21840SOL     OW67961   7.343   1.127   2.217 -0.0449  0.1426 -0.7066
21840SOL    HW167962   7.294   1.097   2.142 -0.0098  0.5321 -0.8890
21840SOL    HW267963   7.298   1.207   2.245  0.2395  0.2758 -0.6244
21841SOL     OW67964   8.454   7.740   9.502 -0.2470 -0.1781 -0.3022
21841SOL    HW167965   8.424   7.803   9.568 -1.2562 -0.7265 -0.2320
21841SOL    HW267966   8.538   7.709   9.536 -0.2771  0.2981  0.2263
21842SOL     OW67967   4.658   1.531   3.885 -0.1359  0.0916 -0.8850
21842SOL    HW167968   4.736   1.493   3.925  0.8904  2.4906 -0.3952
21842SOL    HW267969   4.606   1.564   3.959 -0.3180  0.8122 -1.3190
21843SOL     OW67970   5.875   1.365  10.376  0.3476 -0.0108 -0.2095
21843SOL    HW167971   5.871   1.433  10.443 -1.0012  0.1462 -0.4227
21843SOL    HW267972   5.969   1.351  10.361  0.6718  2.1968 -0.5515
21844SOL     OW67973  10.086   6.929   1.553  0.3577 -0.2461 -0.0059
21844SOL    HW167974  10.092   6.839   1.586 -1.3608 -0.7672 -0.9886
21844SOL    HW267975  10.012   6.967   1.600  0.2502  0.2176 -0.5387
21845SOL     OW67976   3.348   8.495   5.612 -0.1346 -0.3256 -0.5755
21845SOL    HW167977   3.358   8.399   5.612 -1.2000 -0.4403 -0.6277
21845SOL    HW267978   3.278   8.512   5.549  1.3362  0.6530 -2.0606
21846SOL     OW67979   4.814   1.925   3.647  0.6762  0.2420 -0.5480
21846SOL    HW167980   4.740   1.946   3.590  1.0459  0.2673 -1.0256
21846SOL    HW267981   4.801   1.833   3.669  1.3027 -0.1903 -1.8678
21847SOL     OW67982   1.013   1.360   9.584  0.0092 -0.0101  1.1976
21847SOL    HW167983   1.093   1.408   9.606  1.4712 -1.3537 -0.7389
21847SOL    HW267984   1.031   1.270   9.610  0.2486 -0.8462 -1.4686
21848SOL     OW67985   4.858   9.587   9.484 -0.5920 -0.1695 -0.2383
21848SOL    HW167986   4.945   9.620   9.462 -0.2900  0.5180  1.7930
21848SOL    HW267987   4.800   9.661   9.468 -0.3701  0.3369  1.1807
21849SOL     OW67988   5.691   4.797   5.438  0.4792 -0.0352 -0.1872
21849SOL    HW167989   5.658   4.880   5.401  1.1156 -0.2712 -1.3192
21849SOL    HW267990   5.625   4.773   5.503  0.5858  1.6706  0.6092
21850SOL     OW67991  10.450   7.258   9.470 -0.3823 -0.2946 -0.4846
21850SOL    HW167992  10.538   7.234   9.442 -0.3272 -0.2452 -0.3546
21850SOL    HW267993  10.392   7.212   9.409 -0.3935 -3.2356  1.5467
21851SOL     OW67994   1.654   9.967   4.839 -0.4505 -0.2090 -0.1525
21851SOL    HW167995   1.647   9.988   4.932 -3.3666  2.2240 -0.7373
21851SOL    HW267996   1.631   9.875   4.833  0.5258 -0.6101  1.5489
21852SOL     OW67997   7.570   9.305   2.511  0.3297 -0.4563 -0.3084
21852SOL    HW167998   7.584   9.222   2.466 -0.7438  0.4165 -2.4122
21852SOL    HW267999   7.607   9.371   2.451  1.5404  0.5846  1.4914
21853SOL     OW68000   8.404   6.616  10.417  0.3992  0.1799  0.3901
21853SOL    HW168001   8.357   6.549  10.369 -0.3225  0.5000  0.6430
21853SOL    HW268002   8.405   6.584  10.508  0.3757  0.3418  0.4472
21854SOL     OW68003   4.946   2.472   7.423 -0.3391  0.1320  0.2874
21854SOL    HW168004   5.013   2.514   7.477  0.3700 -0.8562  0.1999
21854SOL    HW268005   4.905   2.544   7.375  0.7996  0.7417  0.1978
21855SOL     OW68006   7.206   4.382   0.249  0.1980  0.1260  0.4941
21855SOL    HW168007   7.245   4.461   0.284 -0.3170 -0.3310  2.1722
21855SOL    HW268008   7.113   4.402   0.242 -0.1471 -0.7198  2.1811
21856SOL     OW68009   5.769   2.934   5.108 -0.1979  0.0031  0.5471
21856SOL    HW168010   5.687   2.940   5.156 -0.2563 -1.5215  0.6814
21856SOL    HW268011   5.790   3.025   5.085 -1.8326  0.4263  0.6212
21857SOL     OW68012   0.042   5.541   4.883  0.1900  0.6051 -0.1090
21857SOL    HW168013   0.073   5.576   4.799  0.5381  0.3253 -0.1041
21857SOL    HW268014   0.110   5.478   4.908  0.5075  1.2711  0.7833
21858SOL     OW68015   1.464   3.639   3.005 -0.1182  0.5826 -0.3660
21858SOL    HW168016   1.468   3.577   2.932  0.2322  0.8035 -0.5398
21858SOL    HW268017   1.549   3.629   3.049 -0.5763 -0.0299  0.4174
21859SOL     OW68018   4.951   4.385   4.018  0.1058  0.6987 -0.3754
21859SOL    HW168019   5.021   4.319   4.018  0.2654  0.7622 -2.7088
21859SOL    HW268020   4.876   4.341   4.058  0.4919 -0.6091 -1.0101
21860SOL     OW68021   2.250   7.909   6.362 -0.3139  0.1571  0.0340
21860SOL    HW168022   2.189   7.853   6.314  1.1598 -0.8579 -0.7321
21860SOL    HW268023   2.230   7.893   6.454 -1.9426  0.7307 -0.1772
21861SOL     OW68024   6.982   3.739   3.881  0.3498 -0.7252 -0.5666
21861SOL    HW168025   6.903   3.788   3.858  1.3916  1.0581 -0.5271
21861SOL    HW268026   7.048   3.769   3.818  0.9938 -2.2824 -0.6868
21862SOL     OW68027   3.204   2.100   6.713 -0.7629  0.4404  0.2037
21862SOL    HW168028   3.284   2.150   6.729  0.9120 -1.9825 -0.1146
21862SOL    HW268029   3.175   2.129   6.626  1.1978 -0.3804 -0.7800
21863SOL     OW68030   9.303   6.612   9.583 -0.0061 -0.1548 -0.0993
21863SOL    HW168031   9.396   6.603   9.601  0.7262  0.1301 -3.0973
21863SOL    HW268032   9.298   6.678   9.514 -2.5496  0.6314  0.7307
21864SOL     OW68033   8.385   2.503   1.650  0.4500 -0.0663 -0.0883
21864SOL    HW168034   8.477   2.507   1.624  0.6895 -0.6485  0.6261
21864SOL    HW268035   8.380   2.560   1.727  0.2691 -0.2429  0.0299
21865SOL     OW68036   4.214   0.801   8.356 -0.2842  0.3569  0.0857
21865SOL    HW168037   4.124   0.771   8.364  0.1641 -0.7112  1.7036
21865SOL    HW268038   4.234   0.839   8.442  1.2505 -0.8299  0.2986
21866SOL     OW68039   7.552   6.601   7.933 -0.0118  0.2238  0.1558
21866SOL    HW168040   7.592   6.681   7.968  0.0965  0.4572 -0.4929
21866SOL    HW268041   7.533   6.621   7.842 -0.9247 -0.1461  0.2496
21867SOL     OW68042   9.574   0.829   5.280  0.1419 -0.6920 -0.2774
21867SOL    HW168043   9.481   0.816   5.300  0.2732 -0.2566  0.6369
21867SOL    HW268044   9.593   0.763   5.214 -0.6542 -1.2216  0.0053
21868SOL     OW68045   1.363   0.611  10.194  0.8131 -0.5874 -0.0329
21868SOL    HW168046   1.402   0.610  10.107  0.0619 -2.5617 -0.3966
21868SOL    HW268047   1.332   0.522  10.208 -1.4718  0.2820  1.1528
21869SOL     OW68048  10.221   3.382   5.622  0.0983 -0.0450 -0.1322
21869SOL    HW168049  10.196   3.414   5.709 -1.1030  1.0861 -0.8585
21869SOL    HW268050  10.247   3.291   5.636  1.3760  0.5399  1.6467
21870SOL     OW68051  10.479   0.927   0.309  0.2458  0.3282  0.4131
21870SOL    HW168052  10.395   0.900   0.273  0.2884  0.5084  0.1770
21870SOL    HW268053  10.493   0.869   0.383 -0.2596  0.5407  0.6795
21871SOL     OW68054   9.664   9.356   5.409  0.2012 -0.4009 -0.2300
21871SOL    HW168055   9.624   9.310   5.336  0.4536 -0.5394 -0.2830
21871SOL    HW268056   9.613   9.330   5.486 -0.2618 -0.0108 -0.4012
21872SOL     OW68057   8.840   9.738   9.657 -0.4430  0.0594 -0.0072
21872SOL    HW168058   8.892   9.698   9.727 -0.5312 -0.3475 -0.1708
21872SOL    HW268059   8.749   9.723   9.683 -0.4934 -1.3654 -0.9053
21873SOL     OW68060   1.084   3.983   3.323  0.0493  0.3189  0.3407
21873SOL    HW168061   1.101   3.934   3.403  0.1622 -2.0130 -1.0372
21873SOL    HW268062   0.989   3.982   3.313 -0.1378  2.2239  1.3280
21874SOL     OW68063   7.974   3.111   4.851 -0.7815 -0.5301  0.4907
21874SOL    HW168064   8.052   3.163   4.870  0.4060 -1.9542 -0.2813
21874SOL    HW268065   7.939   3.087   4.937 -1.1752  1.2264  0.8554
21875SOL     OW68066   2.010   9.874   2.175 -0.3675  0.2408  0.4008
21875SOL    HW168067   2.030   9.835   2.090  2.2850  0.2793  0.9213
21875SOL    HW268068   2.038   9.965   2.167 -3.1779  1.2132  0.3484
21876SOL     OW68069   9.908   8.935   2.097 -0.2762 -0.4288  0.4014
21876SOL    HW168070   9.898   9.030   2.088  0.2618 -0.4983 -1.2346
21876SOL    HW268071   9.886   8.917   2.189 -0.6892  1.2272  0.6557
21877SOL     OW68072   7.819   7.388   1.546 -0.2985 -0.3514  0.4052
21877SOL    HW168073   7.856   7.437   1.473 -0.6222 -0.6552  0.0367
21877SOL    HW268074   7.860   7.427   1.624 -1.0498  0.9438  0.1742
21878SOL     OW68075   1.715   1.560   1.058 -0.0295 -0.3085  0.4355
21878SOL    HW168076   1.687   1.496   0.993 -2.4017  0.4451  0.6230
21878SOL    HW268077   1.741   1.637   1.008 -1.7041  0.2139  0.2809
21879SOL     OW68078   9.858   2.519  10.244 -0.1240 -0.4045 -0.6317
21879SOL    HW168079   9.936   2.561  10.280  0.4258 -0.6413 -1.5053
21879SOL    HW268080   9.817   2.475  10.319 -0.8822  1.8928  0.3712
21880SOL     OW68081  10.172   8.952   3.245 -0.5133  0.3174 -0.3812
21880SOL    HW168082  10.191   8.858   3.249  1.8138  0.7432  2.3873
21880SOL    HW268083  10.078   8.958   3.258 -0.6546 -1.6301 -0.1460
21881SOL     OW68084   5.759   2.426   3.740  0.5456  0.0784  0.5246
21881SOL    HW168085   5.753   2.473   3.657 -1.4926 -0.1750  0.4986
21881SOL    HW268086   5.681   2.452   3.789  1.4243 -0.2060  2.1557
21882SOL     OW68087   8.595   3.910   6.299  0.3130 -0.4787 -0.6602
21882SOL    HW168088   8.547   3.948   6.373 -0.2138 -0.7946 -0.8344
21882SOL    HW268089   8.554   3.949   6.222 -1.2317 -2.4260 -0.9196
21883SOL     OW68090   8.056   4.934   8.423 -0.2368 -0.5001 -0.2334
21883SOL    HW168091   7.994   4.862   8.435  1.0067 -1.1747  3.0825
21883SOL    HW268092   8.002   5.013   8.430 -1.6284 -0.9217 -3.9707
21884SOL     OW68093   0.673   1.341   7.663  0.3474  0.0550 -0.3259
21884SOL    HW168094   0.751   1.383   7.700  0.6701 -0.5683 -0.2904
21884SOL    HW268095   0.640   1.286   7.734  0.0151  0.1237 -0.4248
21885SOL     OW68096   2.615   2.666   9.744 -0.0794  0.8566  0.3346
21885SOL    HW168097   2.607   2.576   9.714 -0.5095  1.1544 -0.4650
21885SOL    HW268098   2.586   2.719   9.670  1.0170  1.6903  0.4705
21886SOL     OW68099   3.564   5.891  10.450  0.1653 -0.1394 -0.1387
21886SOL    HW168100   3.635   5.920  10.507 -0.8568 -1.7229  2.1210
21886SOL    HW268101   3.484   5.917  10.496 -0.7083 -0.7689 -1.2544
21887SOL     OW68102  10.025   4.454   6.271  0.1633 -0.1965 -0.3295
21887SOL    HW168103  10.102   4.497   6.308 -0.1632  0.8245 -0.8040
21887SOL    HW268104  10.057   4.409   6.193 -0.1531  2.6385 -2.2541
21888SOL     OW68105   2.485   7.094  10.305 -0.0790  0.5002 -0.1783
21888SOL    HW168106   2.505   7.065  10.394 -0.6260 -0.2551 -0.3018
21888SOL    HW268107   2.571   7.104  10.264  0.2242  1.5996  0.6494
21889SOL     OW68108   9.216   3.718   4.368 -0.4360  0.5349  0.2752
21889SOL    HW168109   9.265   3.799   4.385  0.0461  0.2620  0.2084
21889SOL    HW268110   9.262   3.677   4.295 -1.6662  1.0031 -0.7897
21890SOL     OW68111   9.548   7.845   6.537  0.3488  0.1705  0.7424
21890SOL    HW168112   9.574   7.936   6.523 -0.5312  0.3562  0.2468
21890SOL    HW268113   9.631   7.799   6.551  1.4968  0.1201 -4.2414
21891SOL     OW68114   5.751   3.008   7.446  0.2163  0.1754 -0.2489
21891SOL    HW168115   5.734   2.916   7.465  1.3029  0.1433  0.6720
21891SOL    HW268116   5.806   3.007   7.368 -1.5323  0.1629 -1.5319
21892SOL     OW68117   9.716   5.959   4.434 -0.1515  0.4549  0.2664
21892SOL    HW168118   9.715   5.964   4.530  0.6673 -2.2039  0.5020
21892SOL    HW268119   9.809   5.960   4.411 -0.2559 -0.7823 -0.3070
21893SOL     OW68120   5.568   0.304   8.316  0.1595  0.3547  0.1826
21893SOL    HW168121   5.568   0.225   8.261  1.0935  0.4231  0.0660
21893SOL    HW268122   5.509   0.283   8.388  0.3940 -0.4633  0.1521
21894SOL     OW68123   5.828   6.658   0.191  0.6515 -0.4586 -0.1567
21894SOL    HW168124   5.776   6.619   0.121  1.8661 -2.4068 -0.0555
21894SOL    HW268125   5.882   6.724   0.148  1.4399 -1.6831 -1.1034
21895SOL     OW68126   0.042   3.665   7.561  0.2412 -0.3898  0.4970
21895SOL    HW168127  -0.045   3.641   7.529  0.6794 -0.2676 -0.8457
21895SOL    HW268128   0.063   3.747   7.516  1.8935 -1.4778 -0.8628
21896SOL     OW68129   9.369   2.653   1.153 -0.3004 -0.3606 -0.0571
21896SOL    HW168130   9.335   2.693   1.072 -0.5612 -0.7754 -0.1546
21896SOL    HW268131   9.339   2.711   1.223 -2.7276 -1.5814  0.0520
21897SOL     OW68132   3.483   0.485   0.330 -0.3855  0.9025  0.3435
21897SOL    HW168133   3.410   0.548   0.327 -1.4170 -0.2743  0.2231
21897SOL    HW268134   3.450   0.408   0.285  0.4013 -0.2268  1.6465
21898SOL     OW68135   1.727   8.645   6.072  0.6093 -0.0673  0.5594
21898SOL    HW168136   1.713   8.565   6.021  0.8253  0.5865 -0.5566
21898SOL    HW268137   1.639   8.672   6.099  0.2022  0.8940 -1.5562
21899SOL     OW68138   1.625  10.028   6.475 -0.4166 -0.2336 -0.2589
21899SOL    HW168139   1.592   9.983   6.398 -2.5245  0.5911  0.0959
21899SOL    HW268140   1.654  10.113   6.444 -2.2933  0.5288 -0.0366
21900SOL     OW68141   0.370   7.982   0.287  0.3877 -0.6032  0.4123
21900SOL    HW168142   0.461   7.999   0.312  0.5025 -1.0997  0.3345
21900SOL    HW268143   0.321   7.997   0.368  0.6433 -1.2171  0.6832
21901SOL     OW68144   5.460   4.772   6.219  0.2009  0.0800 -0.1336
21901SOL    HW168145   5.504   4.803   6.298 -0.2057  0.1377  0.0745
21901SOL    HW268146   5.513   4.805   6.147 -0.4485  1.6221  0.0735
21902SOL     OW68147   5.550   4.382  10.145 -0.0414 -0.6915 -0.0689
21902SOL    HW168148   5.540   4.296  10.187  0.1221 -0.4279  0.5138
21902SOL    HW268149   5.475   4.389  10.086  0.2095 -1.4466 -0.4905
21903SOL     OW68150   9.822  10.172   1.385 -0.0572  0.0300 -0.3352
21903SOL    HW168151   9.917  10.180   1.384  0.1576 -1.4361  1.5341
21903SOL    HW268152   9.792  10.232   1.316  2.0861  2.0838  0.3587
21904SOL     OW68153   0.934   1.788   8.103  0.3694 -0.1370 -0.1096
21904SOL    HW168154   0.882   1.814   8.179  2.6129  2.1221  0.7687
21904SOL    HW268155   0.959   1.871   8.062  3.5249 -1.0592 -0.2656
21905SOL     OW68156   1.752   2.703   6.928 -0.2496 -0.1700 -0.5081
21905SOL    HW168157   1.750   2.703   6.832 -0.3361 -2.1228 -0.5451
21905SOL    HW268158   1.659   2.703   6.954 -0.3361 -2.8621 -0.5403
21906SOL     OW68159   5.872   0.607   5.548 -0.2718 -0.1025  0.0390
21906SOL    HW168160   5.916   0.682   5.587 -0.1200 -0.6636  0.9681
21906SOL    HW268161   5.832   0.642   5.468  1.0207  0.6406 -0.3272
21907SOL     OW68162   9.626   6.473   5.805 -0.4631 -0.2745 -0.1827
21907SOL    HW168163   9.633   6.482   5.900 -0.9980 -1.9690  0.0468
21907SOL    HW268164   9.710   6.434   5.779  0.0849  1.0933 -0.5679
21908SOL     OW68165   1.442   3.866   6.944 -0.4213  0.1136  0.0975
21908SOL    HW168166   1.354   3.895   6.922 -0.3801  0.3129  0.1907
21908SOL    HW268167   1.499   3.910   6.880 -0.3617  0.2163  0.2204
21909SOL     OW68168   3.974   7.250   2.736  0.0838 -0.3614  0.6658
21909SOL    HW168169   4.057   7.294   2.716 -0.1766 -0.5076 -0.8878
21909SOL    HW268170   3.953   7.202   2.656 -0.8888 -1.3171  1.4748
21910SOL     OW68171   0.663   5.336   2.361  0.4588  0.0736  0.2853
21910SOL    HW168172   0.612   5.296   2.431  1.0782 -1.5483 -0.1542
21910SOL    HW268173   0.754   5.318   2.385  0.8153  1.9203  0.4586
21911SOL     OW68174   5.974   7.776   2.535 -0.0942  0.2459  0.1766
21911SOL    HW168175   5.928   7.853   2.570 -0.3541  0.1698  0.0055
21911SOL    HW268176   5.907   7.708   2.533  0.4036 -0.3165  1.3902
21912SOL     OW68177   6.759   1.545   7.105  0.3989 -0.1250  0.0931
21912SOL    HW168178   6.768   1.591   7.021  2.4135 -0.3994  0.1007
21912SOL    HW268179   6.841   1.497   7.114 -0.1220 -0.7365  1.8618
21913SOL     OW68180   0.049   3.334   3.280 -0.4993 -0.5454  0.1830
21913SOL    HW168181   0.141   3.325   3.303  0.1503  1.1124 -1.5405
21913SOL    HW268182   0.017   3.406   3.333 -0.4739 -0.3281 -0.0946
21914SOL     OW68183   4.156   0.453   1.882 -0.4236  0.1272 -0.0696
21914SOL    HW168184   4.169   0.358   1.886 -2.1819 -0.1984 -1.0921
21914SOL    HW268185   4.115   0.475   1.966  0.6158  0.1273  0.4583
21915SOL     OW68186   2.563   1.706   9.447  0.0748 -0.1565 -0.0238
21915SOL    HW168187   2.654   1.694   9.422  0.5044  1.7334  0.5098
21915SOL    HW268188   2.546   1.638   9.512  1.0461 -0.6435 -0.2692
21916SOL     OW68189   8.134   6.501   2.058  0.7296 -0.4272  0.6910
21916SOL    HW168190   8.172   6.413   2.070 -1.6426 -1.8208 -1.0983
21916SOL    HW268191   8.105   6.502   1.967 -0.8838  1.5710  1.1676
21917SOL     OW68192   7.576   0.884   0.608 -0.2487  0.0975 -0.9213
21917SOL    HW168193   7.653   0.928   0.571  0.5849 -1.2254 -0.8053
21917SOL    HW268194   7.547   0.943   0.678  1.2842  0.1293 -0.2787
21918SOL     OW68195   8.775   5.660   1.774 -0.2275 -0.5810 -0.4676
21918SOL    HW168196   8.863   5.693   1.792 -0.6530  0.1925  0.2546
21918SOL    HW268197   8.737   5.726   1.715 -0.6381 -0.4465 -0.0493
21919SOL     OW68198   0.984   9.076   4.641 -0.1277 -0.2898 -0.0475
21919SOL    HW168199   0.942   9.077   4.727 -0.1893  0.1979 -0.0795
21919SOL    HW268200   1.065   9.126   4.653  0.0781 -0.5907 -0.1694
21920SOL     OW68201   5.162   9.746   7.956  0.3485 -0.5528 -0.2196
21920SOL    HW168202   5.136   9.693   7.881 -3.5742 -1.1956  1.3620
21920SOL    HW268203   5.211   9.685   8.012 -0.0457 -1.1712 -0.5342
21921SOL     OW68204   8.970   3.840   0.224 -0.4559 -0.7438 -0.3028
21921SOL    HW168205   8.887   3.846   0.271 -0.7500  0.9671 -0.9581
21921SOL    HW268206   8.971   3.917   0.167  2.4517  0.3848  1.0861
21922SOL     OW68207   9.782   6.365   2.986  0.2129  0.4804 -0.2845
21922SOL    HW168208   9.733   6.352   2.905 -0.7025 -1.4189  0.4986
21922SOL    HW268209   9.716   6.356   3.055  1.1311  1.1432  0.7189
21923SOL     OW68210   2.920   6.616   1.720  0.6616  0.2463 -0.0539
21923SOL    HW168211   2.836   6.611   1.673  0.4710  0.6293  0.2380
21923SOL    HW268212   2.933   6.528   1.755  0.6022  0.0664 -0.4718
21924SOL     OW68213   5.587   2.160   1.735  0.5913 -0.2240 -0.6400
21924SOL    HW168214   5.633   2.186   1.815 -0.1704  0.9491 -0.5707
21924SOL    HW268215   5.515   2.105   1.766 -0.5505  1.3698 -0.3622
21925SOL     OW68216   8.438   7.055   8.727  0.1236 -0.0401 -0.1694
21925SOL    HW168217   8.484   6.992   8.671  0.3486 -1.6535  1.7260
21925SOL    HW268218   8.493   7.133   8.724  2.6814 -1.6009  1.3058
21926SOL     OW68219  10.214   7.919   8.028 -0.1438 -0.0525  0.3745
21926SOL    HW168220  10.170   7.851   7.978 -0.7293 -0.4831  1.4603
21926SOL    HW268221  10.216   7.887   8.118  1.3815  0.4595  0.5644
21927SOL     OW68222   5.325   9.165   9.324  0.5628 -0.6277 -0.3832
21927SOL    HW168223   5.237   9.128   9.333 -0.1344  0.8738 -0.8000
21927SOL    HW268224   5.377   9.115   9.387 -1.1354  0.1445  1.7793
21928SOL     OW68225   4.383   1.000   0.993  0.5557 -0.0151 -0.4981
21928SOL    HW168226   4.292   1.004   0.967  0.9255  1.8964 -1.7150
21928SOL    HW268227   4.421   0.930   0.940 -0.7012 -2.8923  2.0798
21929SOL     OW68228   0.505   5.875   5.779  0.5025 -0.7136  0.0019
21929SOL    HW168229   0.499   5.779   5.778 -2.9714 -0.6876  1.8428
21929SOL    HW268230   0.507   5.898   5.872  0.9670  0.9985 -0.4001
21930SOL     OW68231   6.738   6.221  10.070  0.0671  0.2981 -0.4686
21930SOL    HW168232   6.765   6.145  10.121 -0.3955  0.9409  0.7687
21930SOL    HW268233   6.795   6.291  10.100 -1.1656  1.0293  0.2237
21931SOL     OW68234   1.094   6.738   2.784 -0.3580 -0.1269 -0.6674
21931SOL    HW168235   1.072   6.817   2.733 -0.8338 -1.2038 -2.1973
21931SOL    HW268236   1.149   6.771   2.855 -0.3892  1.5704 -1.3652
21932SOL     OW68237   9.734   2.013   3.938 -0.0042 -0.2896 -0.4508
21932SOL    HW168238   9.763   1.931   3.977  0.1992  0.1366  0.3093
21932SOL    HW268239   9.674   1.987   3.868  0.1543 -1.0847 -0.2943
21933SOL     OW68240   4.803   2.550   5.446 -0.4890 -0.5104 -0.1451
21933SOL    HW168241   4.750   2.569   5.524  0.2442 -0.5740  0.3747
21933SOL    HW268242   4.888   2.522   5.481 -0.3043 -0.9954 -0.9619
21934SOL     OW68243   1.783   1.587   9.454 -0.3003 -0.0203 -0.4550
21934SOL    HW168244   1.849   1.652   9.428 -1.6973  0.4886 -3.0577
21934SOL    HW268245   1.814   1.505   9.414 -1.5199  0.3708 -2.3143
21935SOL     OW68246   0.178   4.001  10.402 -0.2011 -0.4781  0.4628
21935SOL    HW168247   0.182   3.949  10.482  0.9817 -0.6998  0.2766
21935SOL    HW268248   0.085   4.014  10.386 -0.5505 -2.6956  0.4223
21936SOL     OW68249   5.358   2.463   5.650 -0.1208 -0.0202  0.3683
21936SOL    HW168250   5.329   2.442   5.561 -1.6227 -0.6891  0.9793
21936SOL    HW268251   5.322   2.550   5.668 -0.1260 -0.0378  0.4456
21937SOL     OW68252   4.030   8.844   4.224 -0.2938  0.1927  0.0855
21937SOL    HW168253   4.123   8.821   4.226 -0.5465 -0.8726  2.4230
21937SOL    HW268254   3.986   8.773   4.270 -1.7159  2.7695  3.0446
21938SOL     OW68255   7.299   4.506   3.892 -0.1391  0.1498  0.0564
21938SOL    HW168256   7.336   4.490   3.979  0.9926 -0.3843 -0.5053
21938SOL    HW268257   7.344   4.444   3.835 -0.1934  1.1357 -1.0845
21939SOL     OW68258   1.305   9.818   3.567  0.4261 -0.1739 -0.7942
21939SOL    HW168259   1.259   9.884   3.516  0.0354 -0.4068 -0.7451
21939SOL    HW268260   1.238   9.781   3.625  0.9309  0.3350  0.1467
21940SOL     OW68261   1.296   9.623   2.982  0.1694 -0.0942  0.0612
21940SOL    HW168262   1.224   9.606   2.921  0.4994 -0.3621 -0.2520
21940SOL    HW268263   1.373   9.586   2.939  0.5358  0.3978  0.2934
21941SOL     OW68264   9.265   9.570   7.837 -0.4265  0.1509  0.1957
21941SOL    HW168265   9.356   9.555   7.813 -0.4617  0.8389 -0.3801
21941SOL    HW268266   9.268   9.642   7.900 -0.4521 -0.8066  1.3326
21942SOL     OW68267   0.604   2.954   8.852  0.3084  0.2148  0.7821
21942SOL    HW168268   0.596   3.048   8.868  0.5327  0.3729 -0.0144
21942SOL    HW268269   0.683   2.945   8.800 -0.1803 -0.3231  0.1146
21943SOL     OW68270   9.813   5.891   9.861 -0.1523  0.0173  0.0029
21943SOL    HW168271   9.883   5.838   9.899 -0.5846  0.9638  2.2830
21943SOL    HW268272   9.748   5.898   9.931 -1.0908  1.7469 -0.9822
21944SOL     OW68273   2.293   0.536   1.744  0.0060  0.3762  0.1694
21944SOL    HW168274   2.213   0.545   1.692 -0.7624 -0.3690  1.1916
21944SOL    HW268275   2.357   0.590   1.698 -0.8242  0.2546 -1.1873
21945SOL     OW68276   8.007   8.700   7.942 -0.1641 -0.4869  0.2044
21945SOL    HW168277   8.088   8.648   7.940 -0.3140 -0.7021 -0.4670
21945SOL    HW268278   7.937   8.634   7.941 -0.3732 -0.3645  2.2980
21946SOL     OW68279   0.828   0.494   9.619 -0.0942  0.3126 -0.8880
21946SOL    HW168280   0.852   0.586   9.630  0.0570  0.1458  0.3575
21946SOL    HW268281   0.742   0.487   9.662  0.6341 -0.4548  0.5013
21947SOL     OW68282   4.361   5.997  10.135 -0.1659 -0.1879 -0.4381
21947SOL    HW168283   4.344   5.913  10.092 -0.4614  0.5195 -1.7714
21947SOL    HW268284   4.454   5.994  10.159 -0.0365 -0.6885 -0.9818
21948SOL     OW68285   7.179   0.427  10.390 -0.2292  0.2831 -0.0774
21948SOL    HW168286   7.231   0.472  10.457 -2.9309 -0.5217  2.7990
21948SOL    HW268287   7.225   0.344  10.376  0.5015  0.5430  0.6494
21949SOL     OW68288   0.509  10.420   8.293 -0.2022 -0.1835  0.0498
21949SOL    HW168289   0.445  10.350   8.304 -0.8816  0.8140  4.3394
21949SOL    HW268290   0.594  10.377   8.302 -0.6014 -0.6899  1.9696
21950SOL     OW68291   1.149   6.004   0.950 -0.0536 -0.7689 -0.5410
21950SOL    HW168292   1.066   6.035   0.986 -0.4330 -0.6344 -1.4820
21950SOL    HW268293   1.154   6.045   0.863  0.4939 -1.5996 -0.9166
21951SOL     OW68294   0.269   9.739   0.839  0.1500  0.1873  0.1884
21951SOL    HW168295   0.328   9.732   0.763  0.9686 -0.7053  0.8775
21951SOL    HW268296   0.297   9.819   0.883  2.4523 -1.3479  1.7499
21952SOL     OW68297   3.908  10.083   1.683  0.1610  0.3238 -0.2958
21952SOL    HW168298   4.003  10.075   1.679  0.0877 -0.3609 -1.0723
21952SOL    HW268299   3.882  10.112   1.596 -0.4638 -1.1332 -0.6238
21953SOL     OW68300   7.814   2.834   5.008 -0.4455  0.3534  0.5368
21953SOL    HW168301   7.896   2.806   5.048 -1.0179 -0.2212  1.3384
21953SOL    HW268302   7.749   2.825   5.078 -0.9473  2.1683  0.3575
21954SOL     OW68303   1.091   2.559   7.164 -0.4736 -0.0277 -0.0360
21954SOL    HW168304   1.154   2.488   7.170 -0.8996 -0.4997 -0.8224
21954SOL    HW268305   1.028   2.542   7.234 -1.0763 -0.9726 -0.7640
21955SOL     OW68306   7.015   9.487   5.117  0.0723 -0.4881  0.4459
21955SOL    HW168307   6.948   9.472   5.051  1.9843 -0.6639 -1.5799
21955SOL    HW268308   7.095   9.503   5.067  1.1451  1.9928  2.6669
21956SOL     OW68309   3.476   3.090   4.911  0.3326 -0.2296  0.4858
21956SOL    HW168310   3.416   3.049   4.849  1.1106  0.9103 -1.0971
21956SOL    HW268311   3.423   3.106   4.989 -1.0915 -0.3379 -0.4226
21957SOL     OW68312   1.413   5.710   7.301 -0.8090  0.1185  0.5376
21957SOL    HW168313   1.331   5.712   7.349 -1.3685 -1.7407 -0.2500
21957SOL    HW268314   1.461   5.787   7.331 -1.7123 -0.1985  2.9824
21958SOL     OW68315   2.283   3.869   5.226  1.1357  0.0081 -0.2277
21958SOL    HW168316   2.348   3.927   5.266 -0.9754  2.0414  0.5109
21958SOL    HW268317   2.220   3.929   5.186 -1.5001 -1.7355  1.0412
21959SOL     OW68318  10.042   1.777   1.066  0.0266 -0.3740  0.5776
21959SOL    HW168319  10.044   1.739   1.154 -0.8312 -2.1813 -0.1368
21959SOL    HW268320   9.955   1.817   1.059  0.6315  1.1256  1.0326
21960SOL     OW68321   4.066   7.484   0.552 -0.3591  0.2519 -0.3698
21960SOL    HW168322   3.986   7.529   0.577 -0.7308 -1.1698  1.1792
21960SOL    HW268323   4.039   7.425   0.481 -0.3358  0.8679 -0.8984
21961SOL     OW68324   9.381   0.626   7.153  0.8896  0.1234 -0.0688
21961SOL    HW168325   9.415   0.696   7.097 -0.4760  0.0793 -0.9933
21961SOL    HW268326   9.339   0.672   7.226  0.4590  0.2482 -0.3964
21962SOL     OW68327   8.192   0.927   5.306  0.5324  0.4417  0.5013
21962SOL    HW168328   8.273   0.915   5.355 -0.3192 -2.5013  1.4360
21962SOL    HW268329   8.123   0.909   5.370 -0.7009 -0.7297 -1.0790
21963SOL     OW68330   6.918   0.479   6.991 -0.2971 -0.2275  0.0651
21963SOL    HW168331   6.928   0.479   6.896 -0.6172  2.2618 -0.0352
21963SOL    HW268332   6.855   0.550   7.009  1.2049  0.6748  2.2245
21964SOL     OW68333   3.334   9.551  10.038  0.4745 -0.2771  0.3656
21964SOL    HW168334   3.396   9.610  10.082  0.2274 -0.0640  0.4338
21964SOL    HW268335   3.378   9.467  10.035 -0.8632 -1.3400  4.3854
21965SOL     OW68336   3.845   5.489   0.146 -0.4173  0.3379  0.2803
21965SOL    HW168337   3.890   5.442   0.216 -0.9619 -0.5294  0.0656
21965SOL    HW268338   3.813   5.420   0.088 -0.2052  1.0362 -0.6845
21966SOL     OW68339   4.943   2.645   4.489  0.1319 -0.2609  0.2364
21966SOL    HW168340   4.976   2.591   4.416  0.5748  1.0107 -0.5303
21966SOL    HW268341   4.851   2.620   4.497 -0.4565  0.8389 -2.0046
21967SOL     OW68342   0.785   0.039   9.232 -0.0218 -0.0508  0.1561
21967SOL    HW168343   0.828   0.084   9.304 -0.1125  1.5217 -0.7272
21967SOL    HW268344   0.774   0.106   9.165 -1.3619 -1.0887 -0.7125
21968SOL     OW68345   6.272   8.991   7.966 -0.0013  0.6441 -0.2389
21968SOL    HW168346   6.274   9.015   8.059  0.5949  1.4606 -0.4454
21968SOL    HW268347   6.204   8.925   7.960  0.6136 -0.1475  0.9560
21969SOL     OW68348   8.928   1.034   3.848  0.3095  0.6526 -0.6246
21969SOL    HW168349   9.013   1.027   3.805 -0.2307 -1.5439 -1.4621
21969SOL    HW268350   8.867   0.989   3.789 -1.2733  1.3591  0.3972
21970SOL     OW68351   9.992  10.255   4.182  0.2256  0.0242 -0.0017
21970SOL    HW168352  10.034  10.320   4.238 -0.1665  1.0863 -0.9224
21970SOL    HW268353  10.018  10.278   4.093 -3.3379  1.6429 -0.8016
21971SOL     OW68354   7.301   6.137   6.621 -0.4829  0.4370 -0.0668
21971SOL    HW168355   7.280   6.185   6.541 -1.2009  1.0816  0.4920
21971SOL    HW268356   7.225   6.080   6.634 -0.5253  0.5887  0.3416
21972SOL     OW68357   1.151  10.022   5.041 -0.4474 -0.0842  0.0181
21972SOL    HW168358   1.086  10.001   4.975  1.1215 -0.4546 -1.4950
21972SOL    HW268359   1.174  10.113   5.024 -1.9176  0.6845  1.8156
21973SOL     OW68360   4.834   4.263   0.671 -0.0831  0.6360 -0.0966
21973SOL    HW168361   4.804   4.312   0.747 -1.7788  0.7966 -0.8193
21973SOL    HW268362   4.762   4.203   0.651  0.7539 -0.1173 -0.9654
21974SOL     OW68363   5.848   7.093   8.745  0.2006 -0.5001  0.1201
21974SOL    HW168364   5.891   7.009   8.759  0.5682 -0.5029 -0.9712
21974SOL    HW268365   5.919   7.154   8.724  0.1858  0.5795  2.8089
21975SOL     OW68366   7.564   7.230   8.824 -0.4886  0.4511  0.1418
21975SOL    HW168367   7.627   7.188   8.883  1.0371  2.4094 -0.0039
21975SOL    HW268368   7.599   7.318   8.810 -3.4953  1.8003  0.3818
21976SOL     OW68369  10.467   9.853   4.343  0.2385  0.2982 -0.3985
21976SOL    HW168370  10.389   9.834   4.395  0.9693 -0.1016  0.5887
21976SOL    HW268371  10.519   9.912   4.398  1.5165 -0.9733 -0.1630
21977SOL     OW68372   7.682   6.420   8.082 -0.2384 -0.2410  0.0244
21977SOL    HW168373   7.699   6.437   8.175  1.4471 -0.0917 -0.2642
21977SOL    HW268374   7.639   6.499   8.050  1.9971  1.0883  0.0417
21978SOL     OW68375   6.559   8.155   0.344 -0.3740  0.2395  0.0688
21978SOL    HW168376   6.524   8.179   0.430  1.2434 -0.4744  0.9690
21978SOL    HW268377   6.643   8.113   0.363  0.0334  0.0813 -1.8751
21979SOL     OW68378   6.487   6.035   2.854  0.0355 -0.0480 -0.0902
21979SOL    HW168379   6.422   5.984   2.807 -0.1356 -0.7209  0.8592
21979SOL    HW268380   6.443   6.118   2.873 -0.4492 -0.3873  0.2881
21980SOL     OW68381   7.448   6.132   1.274  0.0878 -0.5144  0.5260
21980SOL    HW168382   7.381   6.067   1.293 -0.8829 -0.3505 -2.0445
21980SOL    HW268383   7.524   6.080   1.245 -1.8468 -0.7766 -5.3017
21981SOL     OW68384   0.860   3.890   2.028  0.4704  0.7041 -0.0824
21981SOL    HW168385   0.770   3.877   2.057  0.4314 -0.4009 -0.6705
21981SOL    HW268386   0.891   3.963   2.081 -0.6004  0.7682  0.4923
21982SOL     OW68387   7.141   6.119   0.771  0.3304 -0.1285 -0.4033
21982SOL    HW168388   7.207   6.177   0.732 -1.0096  1.4837 -0.3639
21982SOL    HW268389   7.115   6.061   0.700  0.0422  0.8464 -1.1194
21983SOL     OW68390   0.580   1.814   4.008 -0.6580 -0.3961  0.2117
21983SOL    HW168391   0.545   1.824   3.919  1.2254 -0.8867 -0.6474
21983SOL    HW268392   0.642   1.887   4.018 -0.1358 -0.8966  0.7304
21984SOL     OW68393   5.875   9.749   2.291 -0.5234 -0.7828 -0.2488
21984SOL    HW168394   5.784   9.739   2.264 -0.5403 -0.9270 -0.1388
21984SOL    HW268395   5.911   9.660   2.288 -0.3081 -0.6848 -0.5702
21985SOL     OW68396   8.833   5.112   1.063  0.2095 -0.1149  0.5534
21985SOL    HW168397   8.836   5.145   0.973 -0.0263  1.9527  1.2483
21985SOL    HW268398   8.893   5.038   1.064  0.9323  0.4089 -1.0777
21986SOL     OW68399  10.308   1.280   2.956  0.0778  0.9610  0.1151
21986SOL    HW168400  10.306   1.319   3.043 -2.2876  2.3364 -0.4871
21986SOL    HW268401  10.227   1.231   2.949  2.0370 -2.6009  0.0759
21987SOL     OW68402   1.223   4.326   7.503  0.3442 -0.3025  0.1242
21987SOL    HW168403   1.277   4.323   7.424  0.2283  0.6981 -0.0001
21987SOL    HW268404   1.238   4.241   7.546  0.3311 -0.8912 -1.0094
21988SOL     OW68405   8.518   9.415   7.138 -0.5751 -0.2205  0.1341
21988SOL    HW168406   8.431   9.450   7.156 -0.3317  0.3916  0.1214
21988SOL    HW268407   8.570   9.491   7.112  0.6334 -0.1148  2.5494
21989SOL     OW68408   3.693   7.279   6.310 -0.0967 -0.4208 -0.2529
21989SOL    HW168409   3.703   7.370   6.339 -0.1262 -0.8628  1.2745
21989SOL    HW268410   3.707   7.228   6.390 -0.9285 -1.7213 -0.9162
21990SOL     OW68411  10.045   1.209   3.271 -0.0774 -0.2823  0.0718
21990SOL    HW168412   9.993   1.144   3.225 -1.4412  0.5589  0.3607
21990SOL    HW268413   9.993   1.231   3.349  0.1036  1.4683 -0.2618
21991SOL     OW68414   8.190   8.057   3.468  0.3611 -0.3146  0.1733
21991SOL    HW168415   8.189   7.962   3.484 -0.6743 -0.1248  1.4844
21991SOL    HW268416   8.278   8.075   3.436 -0.0086 -1.9935 -2.0971
21992SOL     OW68417   4.445   5.238   6.504  0.5158  0.1968 -0.0571
21992SOL    HW168418   4.480   5.291   6.575  3.3797 -0.3312 -0.9359
21992SOL    HW268419   4.404   5.301   6.445 -0.9972  0.7459  1.5241
21993SOL     OW68420   5.790   0.437   7.305 -0.1074  0.1383  0.5498
21993SOL    HW168421   5.726   0.414   7.373  1.7695  0.4274  2.5178
21993SOL    HW268422   5.775   0.529   7.288 -2.5117 -0.5429 -1.6797
21994SOL     OW68423   8.716   3.053   1.913  0.1028  0.6043  0.5263
21994SOL    HW168424   8.623   3.056   1.893  0.1206 -0.1208  0.2978
21994SOL    HW268425   8.729   2.967   1.953  0.7651  0.4786  0.0637
21995SOL     OW68426   9.732   3.505   0.528  0.0596 -0.5774  0.1357
21995SOL    HW168427   9.670   3.470   0.592 -0.0627  0.5320  0.6431
21995SOL    HW268428   9.680   3.566   0.475  0.8058  0.7696  0.9102
21996SOL     OW68429   4.857   1.272   4.854  0.0445 -0.2756 -0.3383
21996SOL    HW168430   4.949   1.245   4.855 -0.2584 -1.3258 -0.0407
21996SOL    HW268431   4.831   1.274   4.946 -0.0470  0.6903 -0.3770
21997SOL     OW68432   7.738   4.097   9.575 -0.2742 -0.4545 -0.2944
21997SOL    HW168433   7.736   4.189   9.601 -0.5677  0.4770 -3.2898
21997SOL    HW268434   7.818   4.088   9.523 -0.5935 -1.7191 -0.6129
21998SOL     OW68435   9.406   2.861   2.270  0.1827 -0.1407  0.6127
21998SOL    HW168436   9.323   2.884   2.311  0.5309 -0.0015  1.2500
21998SOL    HW268437   9.388   2.865   2.176 -0.2855  0.8065  0.7298
21999SOL     OW68438   1.722   8.855   6.545 -0.3304  0.0962 -0.1934
21999SOL    HW168439   1.810   8.831   6.517 -0.5024 -0.6762 -0.0730
21999SOL    HW268440   1.668   8.777   6.529 -0.8483  0.3216  0.3854
22000SOL     OW68441   6.185   6.935   0.976 -0.5353 -0.0312  0.5896
22000SOL    HW168442   6.215   6.959   0.889  0.1988 -1.2087  0.4963
22000SOL    HW268443   6.193   7.016   1.027  0.5265  0.2744 -0.0347
22001SOL     OW68444   4.855   1.769   1.919  0.1069  0.0613  0.2580
22001SOL    HW168445   4.860   1.768   2.014 -1.8310  1.5835  0.4278
22001SOL    HW268446   4.938   1.807   1.891  0.3100  0.4852  1.3858
22002SOL     OW68447   3.280   9.683   3.537  0.3152  0.3118  0.3740
22002SOL    HW168448   3.287   9.596   3.496  0.6518 -0.0957  1.2715
22002SOL    HW268449   3.206   9.724   3.493  0.5896 -0.1558 -0.5574
22003SOL     OW68450   0.485   1.802   9.126  0.5034  0.3905  0.4077
22003SOL    HW168451   0.541   1.799   9.204  0.4243 -0.0826  0.4497
22003SOL    HW268452   0.397   1.785   9.160  0.2757  1.4868  0.3926
22004SOL     OW68453   0.818   7.088   2.479  0.1236 -0.4281  0.0987
22004SOL    HW168454   0.829   7.112   2.571  0.2171 -0.2215  0.0340
22004SOL    HW268455   0.887   7.137   2.433  1.3896 -2.0551  0.1686
22005SOL     OW68456   7.678   6.982   4.340  0.4878  0.4329 -0.6460
22005SOL    HW168457   7.745   6.945   4.283  0.8105  0.6950 -0.4393
22005SOL    HW268458   7.603   6.997   4.282  1.4626  2.5651 -1.4581
22006SOL     OW68459   0.985   5.011   4.807  0.3357 -0.7831 -0.2598
22006SOL    HW168460   1.010   5.094   4.848 -0.7040 -1.0627  1.0277
22006SOL    HW268461   1.067   4.964   4.794  0.7916 -0.2120  0.4995
22007SOL     OW68462   5.739   7.666   9.279 -0.2799 -0.2426 -0.0334
22007SOL    HW168463   5.691   7.609   9.218 -2.3573  0.9064  0.4159
22007SOL    HW268464   5.685   7.745   9.285  1.7332  1.1692  0.5313
22008SOL     OW68465   9.325   8.701   1.670 -0.0352 -0.4457  0.1296
22008SOL    HW168466   9.263   8.629   1.658 -1.3218  0.2267  2.1718
22008SOL    HW268467   9.404   8.673   1.624 -0.3209 -3.3758  1.2434
22009SOL     OW68468   1.625   8.254   4.682  0.3806  0.1403  0.5416
22009SOL    HW168469   1.601   8.262   4.774  1.2940  1.7093  0.6798
22009SOL    HW268470   1.638   8.160   4.669  2.9847  0.0504  2.7917
22010SOL     OW68471   6.871   7.168   5.221 -0.1699 -0.0743 -0.1172
22010SOL    HW168472   6.917   7.084   5.221 -0.1086 -0.0388 -0.2941
22010SOL    HW268473   6.805   7.160   5.152 -0.1841  0.0123 -0.1139
22011SOL     OW68474   2.339   6.136   8.338 -0.2879 -0.4170 -0.6237
22011SOL    HW168475   2.398   6.114   8.267 -0.7941 -1.8449 -0.6268
22011SOL    HW268476   2.373   6.088   8.414  0.7228  1.7070  0.3603
22012SOL     OW68477   6.188   2.611   4.794 -0.4880 -0.0646  0.0180
22012SOL    HW168478   6.213   2.545   4.729  2.3933  0.6869  0.2403
22012SOL    HW268479   6.178   2.692   4.744 -0.7612  0.0094  0.1904
22013SOL     OW68480   4.963   8.047   4.630 -0.2726 -0.0072  0.7773
22013SOL    HW168481   4.961   7.993   4.551 -0.2992 -0.4634  1.0859
22013SOL    HW268482   5.055   8.050   4.655 -0.4166 -0.9835  1.4822
22014SOL     OW68483   4.208   0.772   5.637  0.1324  0.4787  0.0064
22014SOL    HW168484   4.192   0.701   5.700  1.2279 -0.2089 -0.4601
22014SOL    HW268485   4.158   0.747   5.560 -0.1949  0.6817  0.1473
22015SOL     OW68486   4.854   6.202   1.792  0.1363  0.2707 -0.0816
22015SOL    HW168487   4.792   6.187   1.721  1.0240 -0.0354 -0.8158
22015SOL    HW268488   4.826   6.284   1.833 -0.9220 -0.0253 -0.1999
22016SOL     OW68489   5.435   4.663   2.286 -0.4437 -0.0503  0.2356
22016SOL    HW168490   5.396   4.589   2.239 -1.5889  0.8581 -0.2782
22016SOL    HW268491   5.401   4.655   2.376  0.3604 -0.7894  0.4889
22017SOL     OW68492   4.253   4.089   4.168  0.0923 -0.7689  0.1853
22017SOL    HW168493   4.282   4.151   4.101 -3.1989  1.4070  0.4880
22017SOL    HW268494   4.199   4.026   4.120 -0.0512 -0.8251  0.4198
22018SOL     OW68495   5.304   6.056   8.406  0.1587 -0.1246  0.1614
22018SOL    HW168496   5.397   6.063   8.428  0.1944  0.1678 -0.0629
22018SOL    HW268497   5.301   5.997   8.331  0.0582 -0.9574  0.8154
22019SOL     OW68498   9.851   6.176   8.941 -0.1581 -0.6018 -0.5175
22019SOL    HW168499   9.759   6.190   8.919  0.2505 -0.0257 -1.9203
22019SOL    HW268500   9.877   6.099   8.891 -0.1489 -1.4474  0.7398
22020SOL     OW68501   8.488   1.464   7.998 -0.3717  0.1077  0.2947
22020SOL    HW168502   8.554   1.437   7.935 -0.3517 -0.2814  0.4787
22020SOL    HW268503   8.478   1.388   8.057  0.2884  0.7847  1.3179
22021SOL     OW68504   6.100   5.467  10.061  0.0777  0.3929 -0.0019
22021SOL    HW168505   6.182   5.461  10.011 -0.3305 -1.4972 -0.5282
22021SOL    HW268506   6.087   5.560  10.075  2.9592  0.7366  1.1716
22022SOL     OW68507   5.508   2.367   9.711 -0.3625 -0.2100  0.4634
22022SOL    HW168508   5.602   2.382   9.706 -0.2934 -0.8573 -0.5254
22022SOL    HW268509   5.469   2.453   9.702  0.1274  0.0670  0.9120
22023SOL     OW68510   6.302   5.561   6.923 -0.2371  0.3115  0.6467
22023SOL    HW168511   6.291   5.474   6.962 -0.1158  1.3768  3.2584
22023SOL    HW268512   6.213   5.596   6.919 -0.3472 -0.0481 -0.8676
22024SOL     OW68513   6.617   6.989   8.886 -0.0510 -0.7003  0.3819
22024SOL    HW168514   6.621   7.077   8.923 -1.0978 -0.5050  0.0710
22024SOL    HW268515   6.571   7.001   8.802  3.3852 -0.9072 -1.6938
22025SOL     OW68516   7.115   4.080   4.999  0.2581 -0.1363 -0.0037
22025SOL    HW168517   7.205   4.112   5.001  0.8689 -1.7580 -0.2453
22025SOL    HW268518   7.071   4.134   4.933  0.9915  0.8017  0.2671
22026SOL     OW68519   2.580   2.514   3.149  0.4692 -0.1231  0.0685
22026SOL    HW168520   2.547   2.521   3.238 -0.1188  0.5207 -0.1911
22026SOL    HW268521   2.659   2.462   3.157 -0.9053 -2.2502  0.6384
22027SOL     OW68522   0.554   3.274   8.412  0.5010 -0.4709 -0.5383
22027SOL    HW168523   0.483   3.309   8.464  1.0256  0.2486 -0.2919
22027SOL    HW268524   0.626   3.336   8.424  1.2577 -1.3177 -0.5666
22028SOL     OW68525   2.868   2.677   0.543  0.7174  0.1798 -0.0913
22028SOL    HW168526   2.928   2.713   0.609  0.0711 -0.0417  0.6395
22028SOL    HW268527   2.894   2.719   0.461  0.3401  1.9010  0.6339
22029SOL     OW68528   1.212   2.264  10.229  0.3423 -0.8569  0.6736
22029SOL    HW168529   1.292   2.219  10.254  1.8238  0.9973 -0.4935
22029SOL    HW268530   1.235   2.313  10.150 -2.1270 -0.7526 -0.0809
22030SOL     OW68531   3.525   3.799   8.632 -0.3503 -0.2406 -0.1197
22030SOL    HW168532   3.563   3.732   8.689 -2.5535 -0.8664  0.7279
22030SOL    HW268533   3.545   3.770   8.543 -0.3293 -1.4681  0.2669
22031SOL     OW68534   6.695   6.533   9.087 -0.0963 -0.0508 -0.4456
22031SOL    HW168535   6.788   6.511   9.080  0.2305  0.6644  1.1607
22031SOL    HW268536   6.690   6.627   9.068 -0.4952 -0.0820 -0.5179
22032SOL     OW68537   9.011   7.318   7.289  0.3406 -0.1479  0.3363
22032SOL    HW168538   8.998   7.408   7.261  0.0726  0.1156  1.2825
22032SOL    HW268539   9.054   7.275   7.214 -0.6417  0.4444 -0.5884
22033SOL     OW68540   8.100   4.363   0.345  0.0897  0.0425  0.1268
22033SOL    HW168541   8.169   4.299   0.363 -0.3491  0.0833  2.1200
22033SOL    HW268542   8.062   4.383   0.430 -2.1813  0.3025 -0.8655
22034SOL     OW68543   2.325   3.020   4.014 -0.4852 -0.1155 -0.0859
22034SOL    HW168544   2.373   3.038   3.933 -0.5216 -1.1226 -0.3448
22034SOL    HW268545   2.233   3.018   3.987 -0.8543  2.9494  0.6052
22035SOL     OW68546   8.667   4.125   0.755 -0.1571 -0.5235 -0.1100
22035SOL    HW168547   8.753   4.160   0.778 -0.3311  1.0320 -1.6523
22035SOL    HW268548   8.685   4.038   0.719  0.7644 -0.1910 -0.4565
22036SOL     OW68549   1.534   1.725   2.299 -0.1725  0.4059 -0.0910
22036SOL    HW168550   1.629   1.711   2.299 -0.2677 -0.3573  0.9080
22036SOL    HW268551   1.517   1.775   2.379 -0.5979  0.7102 -0.3647
22037SOL     OW68552   2.093  10.446   5.376 -0.3433  0.9244  0.5361
22037SOL    HW168553   2.081  10.352   5.391 -0.8775  1.0177  0.6917
22037SOL    HW268554   2.015  10.472   5.326  0.8190  0.8496 -1.4245
22038SOL     OW68555   2.027   5.471   3.925  0.0476  0.1574  0.4687
22038SOL    HW168556   2.070   5.393   3.888 -0.1860  0.0961  0.3216
22038SOL    HW268557   1.947   5.480   3.873 -0.8490 -0.5743  1.6652
22039SOL     OW68558   8.003   8.283   9.179 -0.4327  0.3886 -0.4502
22039SOL    HW168559   7.955   8.276   9.261 -0.3730  0.3243 -0.4208
22039SOL    HW268560   8.028   8.376   9.174 -0.7726  0.4721 -0.5876
22040SOL     OW68561   7.913   8.076   5.236  0.2120  0.3012 -0.2254
22040SOL    HW168562   7.942   7.991   5.271 -0.8165 -0.0562 -0.2244
22040SOL    HW268563   7.833   8.056   5.188 -0.1785  1.3112 -0.0154
22041SOL     OW68564   2.041   1.015   8.407 -0.3132  0.0567  0.1216
22041SOL    HW168565   2.074   0.926   8.393 -1.0211 -0.3985  1.2371
22041SOL    HW268566   1.962   1.020   8.353  0.1258  0.2714 -0.5161
22042SOL     OW68567   2.150   2.828   1.073 -0.7260 -0.0146  0.2274
22042SOL    HW168568   2.140   2.791   1.161  3.1438 -1.1327  0.3509
22042SOL    HW268569   2.225   2.886   1.079 -1.1527  0.8917 -2.1077
22043SOL     OW68570   3.623   1.084   6.532 -0.5901  0.0328 -0.1623
22043SOL    HW168571   3.678   1.008   6.510 -0.5795 -0.0532  0.1575
22043SOL    HW268572   3.537   1.046   6.549 -0.6191  0.1082 -0.1429
22044SOL     OW68573   2.895   0.296   4.503  0.3472 -0.3648 -0.1240
22044SOL    HW168574   2.855   0.235   4.442  0.8775 -1.4634  0.5913
22044SOL    HW268575   2.973   0.251   4.535  0.8709  0.7684  0.2781
22045SOL     OW68576   0.028   0.338   8.297 -0.2839  0.0674  0.3413
22045SOL    HW168577   0.046   0.404   8.231 -0.1487 -0.0761  0.2344
22045SOL    HW268578  -0.028   0.382   8.361  0.4239  0.5250  0.6684
22046SOL     OW68579   4.842   8.609   2.144 -0.0487 -0.3799  0.1721
22046SOL    HW168580   4.888   8.546   2.089 -0.0884 -0.0892 -0.1990
22046SOL    HW268581   4.884   8.693   2.125 -0.1088 -0.2653  0.5326
22047SOL     OW68582   5.719   6.424   8.905 -0.2222  0.1939 -0.1421
22047SOL    HW168583   5.659   6.449   8.834  1.2595  1.7247 -0.9218
22047SOL    HW268584   5.772   6.354   8.867 -0.7020 -0.3368  0.1462
22048SOL     OW68585   6.899   4.446   8.752  0.1158 -0.2634 -0.0599
22048SOL    HW168586   6.894   4.417   8.843 -0.2785 -2.0163 -0.6002
22048SOL    HW268587   6.822   4.501   8.739 -0.0322 -0.3207  0.5736
22049SOL     OW68588   0.002   8.989   4.469  0.3025 -0.4419 -0.0615
22049SOL    HW168589  -0.029   9.075   4.495  0.5093 -0.7956  1.4782
22049SOL    HW268590  -0.069   8.952   4.417  1.2711  1.6450 -3.1456
22050SOL     OW68591  10.012   3.012   7.579 -0.2539  0.1704 -0.2457
22050SOL    HW168592   9.999   2.989   7.671 -0.2597 -3.8282 -1.0650
22050SOL    HW268593  10.101   3.045   7.575 -0.0974 -0.0205  1.1009
22051SOL     OW68594   5.854   5.436   7.133 -0.2609 -0.3929  0.2775
22051SOL    HW168595   5.788   5.381   7.174  0.1282 -1.5664 -0.6038
22051SOL    HW268596   5.917   5.374   7.096  0.1172  0.6423 -0.8739
22052SOL     OW68597   8.542   0.607   6.295  0.0333  0.3967  0.0283
22052SOL    HW168598   8.463   0.559   6.271  0.2332 -0.2161  0.5617
22052SOL    HW268599   8.541   0.609   6.391  0.5821  0.5219  0.0364
22053SOL     OW68600   1.150   9.316   1.243 -0.0962 -0.0172 -0.0421
22053SOL    HW168601   1.231   9.336   1.197 -0.5677  1.6912 -0.1982
22053SOL    HW268602   1.157   9.223   1.265  1.9546  0.1192  0.0846
22054SOL     OW68603   1.419   5.811   4.025 -0.0715  0.8973 -0.2775
22054SOL    HW168604   1.367   5.891   4.026  0.7732  1.4567 -1.1336
22054SOL    HW268605   1.486   5.824   4.092 -0.6276  0.4271  0.3885
22055SOL     OW68606   6.516   6.590   7.396  0.2906  0.0884 -0.4142
22055SOL    HW168607   6.431   6.622   7.426  0.4062 -0.5476  0.6480
22055SOL    HW268608   6.574   6.666   7.400  0.1068  0.1976  0.2291
22056SOL     OW68609   3.509   4.753   4.716  0.3873  0.1236 -0.2829
22056SOL    HW168610   3.468   4.698   4.650  0.6460  0.3535 -0.6352
22056SOL    HW268611   3.460   4.835   4.713 -0.4299 -0.3001  0.6991
22057SOL     OW68612   1.931  10.014   0.805  0.6323 -0.1013 -0.5263
22057SOL    HW168613   1.996   9.952   0.772 -1.3990 -1.6822 -1.7847
22057SOL    HW268614   1.946  10.094   0.755  0.9488 -0.7826 -1.5547
22058SOL     OW68615   0.469   1.460   4.343  0.0885 -1.1491  0.1109
22058SOL    HW168616   0.479   1.550   4.376 -0.9855 -1.2835  0.8653
22058SOL    HW268617   0.526   1.408   4.399 -0.4925 -1.1483  0.7145
22059SOL     OW68618  10.331   4.270   7.404  0.3939 -0.3392  0.4412
22059SOL    HW168619  10.352   4.193   7.352  0.8477 -0.4931  0.8402
22059SOL    HW268620  10.347   4.345   7.346  0.7261 -0.5136  0.3121
22060SOL     OW68621   6.723  10.409   8.292  0.0728  0.1981  0.2124
22060SOL    HW168622   6.730  10.459   8.373  1.9910 -1.4650  1.1627
22060SOL    HW268623   6.644  10.443   8.250 -1.0352  1.0816  2.7912
22061SOL     OW68624   3.510   5.470   4.816  0.2385  0.1346  0.2478
22061SOL    HW168625   3.502   5.388   4.768 -2.2550 -0.7201  1.9406
22061SOL    HW268626   3.562   5.448   4.893 -2.1874 -0.4917  1.7991
22062SOL     OW68627   2.222   6.390   2.995  0.1760  0.2171  0.4978
22062SOL    HW168628   2.188   6.374   3.083  0.5185  1.0869  0.7930
22062SOL    HW268629   2.290   6.323   2.984 -0.9451 -0.9420  0.2511
22063SOL     OW68630   3.915   2.239   3.595 -0.3628 -0.4448 -0.0494
22063SOL    HW168631   3.986   2.207   3.650  0.8685  1.3182 -0.5202
22063SOL    HW268632   3.950   2.234   3.506 -1.1515 -0.3147 -0.3761
22064SOL     OW68633   0.214   9.317   4.102  0.2070 -0.1892  0.3527
22064SOL    HW168634   0.120   9.316   4.080  0.1735  0.6886  0.4504
22064SOL    HW268635   0.242   9.227   4.085 -0.3763 -0.1676 -0.8862
22065SOL     OW68636  10.243   9.068   5.680 -0.4232  0.0652  0.4196
22065SOL    HW168637  10.290   9.151   5.673 -0.4146  0.3940  3.2822
22065SOL    HW268638  10.278   9.027   5.759 -2.3801 -1.3746  0.6182
22066SOL     OW68639   7.661   9.044   4.435  0.4666 -0.0290 -0.4627
22066SOL    HW168640   7.704   9.100   4.370 -0.2081 -0.0986 -0.9774
22066SOL    HW268641   7.640   8.964   4.387  1.7250 -0.8843  0.3507
22067SOL     OW68642   9.743   9.896   4.527 -0.7640  0.2758 -0.5594
22067SOL    HW168643   9.782   9.910   4.613 -0.6133 -1.1715 -0.3673
22067SOL    HW268644   9.668   9.839   4.543  0.6677 -2.0512 -1.6101
22068SOL     OW68645   5.309   3.396   1.908  0.1199  0.5444  0.3254
22068SOL    HW168646   5.292   3.490   1.910 -1.9106  0.2450 -0.3512
22068SOL    HW268647   5.269   3.362   1.988  0.5484  0.1959  0.4005
22069SOL     OW68648   4.001   5.911   9.734 -0.6584  0.0386 -0.2522
22069SOL    HW168649   3.951   5.903   9.653 -1.2747  1.1070  0.0116
22069SOL    HW268650   3.938   5.892   9.804 -0.3307 -0.0662  0.0236
22070SOL     OW68651   7.793   9.870   0.272 -0.8587  0.1162 -0.3245
22070SOL    HW168652   7.705   9.896   0.299 -1.0112  0.4147 -1.0575
22070SOL    HW268653   7.837   9.844   0.352 -1.7782 -0.5175 -0.0174
22071SOL     OW68654   4.833  10.091   4.511  0.3515  0.2665 -0.1617
22071SOL    HW168655   4.925  10.117   4.522  0.5045 -0.0643 -0.6369
22071SOL    HW268656   4.790  10.168   4.475  0.5031  0.3265 -0.2146
22072SOL     OW68657   4.403   5.323   1.860 -0.0622  0.0440  0.3259
22072SOL    HW168658   4.354   5.403   1.841  1.0391  1.1367  1.8959
22072SOL    HW268659   4.446   5.301   1.777  1.2168  2.2388  0.3212
22073SOL     OW68660   1.007   6.114   3.212 -0.3870 -0.6172 -0.2920
22073SOL    HW168661   1.018   6.020   3.230  0.9734 -0.1970  1.3280
22073SOL    HW268662   0.950   6.145   3.282 -0.3847 -0.1092 -0.5141
22074SOL     OW68663   6.198  10.337   1.401  0.4367  0.4242  0.5985
22074SOL    HW168664   6.261  10.409   1.403  0.3869  0.5441 -1.0214
22074SOL    HW268665   6.248  10.260   1.427  2.0025  0.0415 -2.9584
22075SOL     OW68666   1.100   6.099   3.890  0.0648 -0.1929 -0.2490
22075SOL    HW168667   1.187   6.078   3.859  1.4313  1.7612  1.9070
22075SOL    HW268668   1.041   6.048   3.834  2.5576 -1.8624 -1.5304
22076SOL     OW68669  10.197   4.843   4.923  0.1394  0.2177 -0.3750
22076SOL    HW168670  10.223   4.894   4.846  0.8481  0.3356 -0.0657
22076SOL    HW268671  10.227   4.895   4.998 -0.4040  0.0287 -0.0145
22077SOL     OW68672   1.859   8.841   5.823  0.1208  0.7508  0.2012
22077SOL    HW168673   1.766   8.854   5.841 -0.5164  2.3364 -3.2728
22077SOL    HW268674   1.878   8.753   5.855 -1.7796  1.3640  3.4690
22078SOL     OW68675   9.245   3.858   8.193  0.1844 -0.3610  0.0490
22078SOL    HW168676   9.303   3.934   8.198 -0.1830  0.0899 -1.8497
22078SOL    HW268677   9.274   3.811   8.115  1.0351 -2.7528  1.6805
22079SOL     OW68678   2.920   4.046   2.381  0.2483 -0.3648 -0.0822
22079SOL    HW168679   2.909   3.988   2.305  2.2177 -0.0796 -0.6430
22079SOL    HW268680   2.991   4.105   2.355 -1.4178  2.0715  0.6359
22080SOL     OW68681   1.138   5.294   6.557  0.0628  0.3387  0.2853
22080SOL    HW168682   1.227   5.269   6.582 -0.2766  1.8617  3.5313
22080SOL    HW268683   1.149   5.358   6.486  1.5363  0.4895  0.6262
22081SOL     OW68684   7.418   6.715  10.123 -0.6037 -0.1109 -0.1505
22081SOL    HW168685   7.473   6.642  10.094 -0.7528 -0.5649  0.6667
22081SOL    HW268686   7.359   6.731  10.050 -0.3659 -0.6150 -0.4593
22082SOL     OW68687   4.295   5.209   5.160 -0.1456  0.0506  0.5937
22082SOL    HW168688   4.209   5.251   5.164 -0.0989  0.1469  0.5882
22082SOL    HW268689   4.276   5.115   5.151 -0.2769  0.2270 -1.5363
22083SOL     OW68690   0.453   1.187   2.052  0.3717 -0.2238 -0.0833
22083SOL    HW168691   0.451   1.224   1.964  0.1338 -0.1492 -0.0467
22083SOL    HW268692   0.426   1.096   2.041 -3.1483  0.6319  0.3375
22084SOL     OW68693   1.676   9.192   8.182 -0.4771 -0.2018 -0.2777
22084SOL    HW168694   1.586   9.160   8.180 -0.5084 -0.3986  1.7486
22084SOL    HW268695   1.710   9.163   8.267  1.0098  1.1619 -0.3496
22085SOL     OW68696   1.954   3.791  10.334 -0.0812  0.1155  0.3696
22085SOL    HW168697   1.983   3.850  10.264  0.7286 -0.5872  0.0950
22085SOL    HW268698   1.951   3.705  10.293 -0.0024 -0.2391  1.0899
22086SOL     OW68699   5.197   8.296   3.242  0.7826 -0.4123  0.4995
22086SOL    HW168700   5.290   8.308   3.260  1.1504  1.1722 -1.8962
22086SOL    HW268701   5.154   8.364   3.294  1.6091  2.6109 -2.3689
22087SOL     OW68702   2.720   4.489   5.825 -0.3827  0.4893 -0.5315
22087SOL    HW168703   2.790   4.428   5.850  0.3822  1.3510 -0.5139
22087SOL    HW268704   2.643   4.433   5.813  0.4290 -0.5502 -1.0691
22088SOL     OW68705   9.728   0.339   5.775  0.3670 -0.3958 -0.2076
22088SOL    HW168706   9.734   0.432   5.798 -0.2369 -0.2640 -0.5440
22088SOL    HW268707   9.710   0.295   5.858 -0.4785 -0.0769 -0.2083
22089SOL     OW68708   9.087   9.940   1.393 -0.5105 -0.7339  0.5297
22089SOL    HW168709   9.166   9.964   1.441 -0.1283 -1.5200  0.2973
22089SOL    HW268710   9.046  10.024   1.372  0.2471 -0.3190  0.6732
22090SOL     OW68711   6.721   5.189   5.878  0.1874  0.2222 -0.4479
22090SOL    HW168712   6.791   5.252   5.895  0.8276  0.1401 -2.5432
22090SOL    HW268713   6.676   5.222   5.800 -2.0079  0.1477  0.7144
22091SOL     OW68714   4.647  10.479   9.444 -0.2533  0.3292 -0.1506
22091SOL    HW168715   4.595  10.439   9.514  1.6011  0.7093  1.5181
22091SOL    HW268716   4.669  10.566   9.477  1.5874  0.1121 -0.7053
22092SOL     OW68717   6.259   5.567   1.161  0.0727  0.7831 -0.6836
22092SOL    HW168718   6.199   5.493   1.172 -0.1422  0.9393 -0.7976
22092SOL    HW268719   6.279   5.568   1.067 -0.0517  0.9667 -0.7089
22093SOL     OW68720   3.790   6.249   7.147 -0.7235 -0.2556 -0.1462
22093SOL    HW168721   3.729   6.230   7.218  0.1847  0.7671  0.9656
22093SOL    HW268722   3.744   6.313   7.092 -0.9054 -0.0034  0.2976
22094SOL     OW68723   2.912   6.806   1.101 -0.7125 -0.3242 -0.0869
22094SOL    HW168724   2.849   6.735   1.083 -2.4756  0.9324  0.7910
22094SOL    HW268725   2.992   6.779   1.057 -1.7278 -2.2352 -0.8802
22095SOL     OW68726   3.452   6.668   3.096 -0.3536 -0.3997  0.1162
22095SOL    HW168727   3.434   6.678   3.189 -0.8973 -0.7266  0.0518
22095SOL    HW268728   3.420   6.749   3.057  2.2672  0.9099  0.5112
22096SOL     OW68729   5.355   3.735   3.912  0.4927 -0.0397  0.7862
22096SOL    HW168730   5.284   3.683   3.875  0.8562 -0.1570  0.2386
22096SOL    HW268731   5.415   3.749   3.838  1.3369 -0.4541  1.3829
22097SOL     OW68732   7.427   4.278   3.053 -0.2450 -0.1969 -0.1958
22097SOL    HW168733   7.367   4.216   3.011  0.5312  0.4828 -2.3924
22097SOL    HW268734   7.373   4.355   3.072 -0.8383 -0.8912  1.0956
22098SOL     OW68735   3.384   4.468   4.155  0.0765  0.5967  0.1216
22098SOL    HW168736   3.313   4.514   4.199 -0.4156  0.6480 -0.6912
22098SOL    HW268737   3.464   4.510   4.186 -0.3007  1.1844  0.3152
22099SOL     OW68738   8.040   9.482  10.174  0.0229  0.5118 -0.1201
22099SOL    HW168739   8.059   9.576  10.177 -3.2152  1.2752  1.2581
22099SOL    HW268740   8.011   9.467  10.084  3.2065  0.0641 -1.2112
22100SOL     OW68741  10.076  10.066   1.859 -1.0083 -0.1390  0.2135
22100SOL    HW168742  10.140  10.062   1.788 -1.6721 -2.5483 -0.3426
22100SOL    HW268743  10.129  10.069   1.939 -0.2547  2.2634 -0.2971
22101SOL     OW68744  10.209   8.660   8.490  0.4828  0.4890 -0.3630
22101SOL    HW168745  10.202   8.577   8.443  0.7901  0.2016  0.0830
22101SOL    HW268746  10.119   8.693   8.495 -0.1714 -1.3620  2.1475
22102SOL     OW68747   1.317   1.277   1.383  0.4234 -0.0948 -0.0711
22102SOL    HW168748   1.271   1.261   1.465  0.2177 -0.5969 -0.2854
22102SOL    HW268749   1.275   1.220   1.319  1.7480 -1.0453 -0.1363
22103SOL     OW68750   1.681   4.561   7.782  0.2164 -0.3020 -0.6383
22103SOL    HW168751   1.592   4.529   7.798  0.3811 -0.5145 -0.1365
22103SOL    HW268752   1.725   4.490   7.737 -0.0553  0.0502 -1.4793
22104SOL     OW68753   5.612   3.883   0.223  0.1830  0.6102 -0.5647
22104SOL    HW168754   5.703   3.906   0.242  0.3968 -1.0000  0.4770
22104SOL    HW268755   5.564   3.915   0.299 -0.0714  1.0689 -0.9150
22105SOL     OW68756   7.011   0.437   2.021 -0.0991  0.0022 -0.4226
22105SOL    HW168757   7.028   0.348   2.050 -1.4436 -0.6019 -1.3680
22105SOL    HW268758   7.024   0.491   2.099  0.5723 -1.0420  0.1962
22106SOL     OW68759   4.392   3.043   5.144  0.2109 -0.6412 -0.8580
22106SOL    HW168760   4.352   3.104   5.206 -0.2006 -1.2346 -0.5280
22106SOL    HW268761   4.384   2.958   5.186  0.5026 -0.9672 -1.4513
22107SOL     OW68762   0.409   0.222   7.396  0.0132  0.0783  0.1619
22107SOL    HW168763   0.337   0.279   7.371  0.8242  1.3361  0.5989
22107SOL    HW268764   0.394   0.204   7.489 -0.0233 -0.0772  0.1254
22108SOL     OW68765   5.535   3.912   5.295 -0.5116 -0.2448  0.0737
22108SOL    HW168766   5.598   3.891   5.364 -0.5385 -1.9131 -0.3663
22108SOL    HW268767   5.467   3.844   5.304 -2.1695  1.3782  0.4239
22109SOL     OW68768   2.329   5.407   0.918 -0.4279  0.8667 -0.2172
22109SOL    HW168769   2.248   5.357   0.910  1.1736 -1.6309 -3.8255
22109SOL    HW268770   2.303   5.498   0.905 -2.7067  0.2390 -0.4590
22110SOL     OW68771   2.127   0.479   3.131 -0.1102 -0.4765  0.1091
22110SOL    HW168772   2.160   0.394   3.163 -0.8472 -0.5994  0.5631
22110SOL    HW268773   2.151   0.541   3.199  0.6070 -0.2709 -0.3157
22111SOL     OW68774   9.268   8.239   0.212 -0.2741  0.1992 -0.1457
22111SOL    HW168775   9.329   8.263   0.142 -0.6832 -2.3225 -1.4738
22111SOL    HW268776   9.190   8.208   0.167 -0.1095 -2.6644  1.3055
22112SOL     OW68777   0.778   6.623   3.491 -0.3293  0.4056 -0.1082
22112SOL    HW168778   0.723   6.632   3.568 -0.0300  0.3733  0.1120
22112SOL    HW268779   0.717   6.607   3.419 -0.5969  0.2353  0.1555
22113SOL     OW68780  10.291   7.941   5.634  0.4715 -0.3895  0.7575
22113SOL    HW168781  10.319   8.013   5.577  1.2135  0.4126  2.0788
22113SOL    HW268782  10.357   7.938   5.703  0.0992 -1.9329  1.0953
22114SOL     OW68783   5.427  10.006   8.115  0.2377  0.3444 -0.3449
22114SOL    HW168784   5.371   9.928   8.120  1.8296 -0.8367 -0.1324
22114SOL    HW268785   5.445  10.029   8.206  2.0983 -0.8518 -0.3438
22115SOL     OW68786   0.798   1.754   8.985 -0.0403  0.0947  0.2265
22115SOL    HW168787   0.792   1.722   9.076  0.2677  0.9952  0.5748
22115SOL    HW268788   0.887   1.790   8.978 -0.1137  0.1613 -0.3893
22116SOL     OW68789   1.548   5.327   9.261 -0.4048  0.4362 -0.6720
22116SOL    HW168790   1.529   5.290   9.175  0.8502 -0.2324 -0.6847
22116SOL    HW268791   1.610   5.398   9.244 -2.1481  2.0424 -0.5573
22117SOL     OW68792   3.301   8.201   1.021  0.2314 -0.1974 -0.5478
22117SOL    HW168793   3.270   8.123   0.975  0.2688 -0.3173 -0.3730
22117SOL    HW268794   3.315   8.171   1.111 -1.5977  0.4611  0.0049
22118SOL     OW68795   9.405  10.121   3.874 -0.2171 -0.1933  0.5251
22118SOL    HW168796   9.339  10.070   3.827  1.5381 -1.9662 -0.1485
22118SOL    HW268797   9.395  10.096   3.966 -1.3717  0.6156  0.6306
22119SOL     OW68798   5.471   3.593   7.881 -0.3589  0.3460  0.1183
22119SOL    HW168799   5.482   3.512   7.931 -0.5929 -0.5480 -1.2488
22119SOL    HW268800   5.510   3.661   7.937  0.5280 -0.8124  0.9461
22120SOL     OW68801   4.237   5.931   9.600  0.2078  0.4489 -0.2833
22120SOL    HW168802   4.281   6.014   9.618 -2.9219  3.2059 -3.7009
22120SOL    HW268803   4.166   5.928   9.664  0.4329  0.2664 -0.0378
22121SOL     OW68804   2.046   8.962   3.514 -0.3240  0.1473 -0.2180
22121SOL    HW168805   2.116   8.923   3.566 -0.9061  0.1974  0.6223
22121SOL    HW268806   1.965   8.934   3.558 -0.8368  0.0460 -1.1959
22122SOL     OW68807   5.139   1.533   9.437 -0.0257 -0.0286  0.0432
22122SOL    HW168808   5.224   1.499   9.408  1.5595  2.9214  0.7809
22122SOL    HW268809   5.107   1.585   9.363 -0.4480  0.0614  0.2818
22123SOL     OW68810   0.951   3.248   9.153  0.3806  0.4263 -0.5876
22123SOL    HW168811   0.861   3.218   9.136  0.5214 -1.2186  1.2416
22123SOL    HW268812   1.006   3.180   9.115  0.8006  0.6187 -0.3259
22124SOL     OW68813   7.762   0.554   7.033  0.0469  0.1593 -0.2949
22124SOL    HW168814   7.709   0.519   7.105  1.5350  0.5132  1.0157
22124SOL    HW268815   7.852   0.543   7.062  0.6577  1.1757 -1.7156
22125SOL     OW68816   9.762   7.200   7.013  0.4370  0.1908 -0.8786
22125SOL    HW168817   9.855   7.211   6.997  0.4566 -1.1372 -1.8881
22125SOL    HW268818   9.728   7.166   6.930 -0.6274 -1.0458  0.0260
22126SOL     OW68819   8.387   1.672   4.771 -0.1666 -0.3144  0.3714
22126SOL    HW168820   8.310   1.719   4.802  0.1885 -1.3969  3.1090
22126SOL    HW268821   8.437   1.653   4.850  2.7450 -0.0168 -1.2739
22127SOL     OW68822   5.283  10.030   7.415  0.4428 -0.2027 -0.4773
22127SOL    HW168823   5.319   9.945   7.437 -0.1477 -0.4759 -0.5329
22127SOL    HW268824   5.191  10.012   7.394  0.0467  0.5813  0.4842
22128SOL     OW68825   5.070   8.933   0.923  0.5789 -0.2260 -0.1599
22128SOL    HW168826   5.151   8.959   0.966  0.0982 -0.9307  1.2314
22128SOL    HW268827   5.098   8.907   0.835  1.6446  0.8501 -0.1773
22129SOL     OW68828   4.127   3.319   5.955  0.0062  0.4294 -0.6156
22129SOL    HW168829   4.101   3.253   5.891 -0.7252  1.1820 -1.1189
22129SOL    HW268830   4.060   3.314   6.023  0.4263  0.0681 -0.2293
22130SOL     OW68831   6.240   7.382   3.123  0.3910  0.1204 -0.1570
22130SOL    HW168832   6.151   7.365   3.155  0.8658 -1.9720  0.2568
22130SOL    HW268833   6.296   7.337   3.187  1.9629  3.4335  1.0068
22131SOL     OW68834   5.612   4.888   7.194 -0.8176 -0.9435  0.8236
22131SOL    HW168835   5.624   4.867   7.101  1.3366  3.5030 -0.1798
22131SOL    HW268836   5.690   4.854   7.237 -0.7697 -1.1002  0.6141
22132SOL     OW68837   8.030   1.229   5.641  0.0166  0.3796 -0.4206
22132SOL    HW168838   7.958   1.252   5.700  0.4599 -2.4410  1.4603
22132SOL    HW268839   8.102   1.286   5.666  0.3664 -1.1128  2.3043
22133SOL     OW68840   9.752   3.715   1.807  0.0206  0.1195 -0.2986
22133SOL    HW168841   9.674   3.767   1.788  0.3400  0.6280 -0.2552
22133SOL    HW268842   9.771   3.733   1.899 -0.0620 -0.3476 -0.1872
22134SOL     OW68843   9.822   4.301  10.302 -0.2629 -0.5364 -0.4655
22134SOL    HW168844   9.764   4.268  10.370  0.7560 -0.9369  0.2448
22134SOL    HW268845   9.903   4.322  10.349 -0.2074  1.0992 -1.2354
22135SOL     OW68846   8.998  10.276   5.436  0.3646 -0.0505  0.4071
22135SOL    HW168847   9.011  10.181   5.428 -0.5012 -0.1498  0.0519
22135SOL    HW268848   8.942  10.286   5.513  0.4768  0.1792  0.4601
22136SOL     OW68849   0.176   8.355   8.092  0.0688  0.2089 -0.1740
22136SOL    HW168850   0.130   8.272   8.085 -0.1144  0.3096 -0.1623
22136SOL    HW268851   0.265   8.331   8.118 -0.3826  0.0920  1.4113
22137SOL     OW68852   9.157   4.606   2.051  0.5184 -0.0132  0.5645
22137SOL    HW168853   9.225   4.583   2.114  0.8914  0.0233  0.1783
22137SOL    HW268854   9.121   4.522   2.022  0.3155 -0.0286  0.8548
22138SOL     OW68855   2.220   0.905  10.271 -0.9231  0.2127  0.3795
22138SOL    HW168856   2.261   0.818  10.265 -0.3296  0.5247 -0.2056
22138SOL    HW268857   2.293   0.966  10.280 -1.2868  0.7318 -0.0905
22139SOL     OW68858   5.146   6.512   5.115  0.1150 -0.4883 -0.4201
22139SOL    HW168859   5.123   6.598   5.081 -1.9895 -0.9390 -0.2789
22139SOL    HW268860   5.238   6.519   5.139  0.2720  1.3786 -1.4159
22140SOL     OW68861   2.063   4.981   6.513 -0.5714 -0.1837  0.3585
22140SOL    HW168862   2.080   5.066   6.553 -1.8645 -0.2771  1.1465
22140SOL    HW268863   2.085   4.994   6.420 -0.8781  1.0464  0.4409
22141SOL     OW68864   1.586   5.520   1.915  0.0454  0.0966  0.1433
22141SOL    HW168865   1.629   5.482   1.991  0.4164 -1.1919 -0.6793
22141SOL    HW268866   1.504   5.555   1.950  0.9361  1.0233  1.4090
22142SOL     OW68867   4.751   8.495   0.282  0.2482 -0.0222 -0.3965
22142SOL    HW168868   4.692   8.421   0.273 -1.0900  0.6828  1.7911
22142SOL    HW268869   4.814   8.468   0.349 -0.5032  0.9246  0.7291
22143SOL     OW68870   1.807   9.040   4.481 -0.2090 -0.4172  0.7972
22143SOL    HW168871   1.805   8.990   4.400 -0.0832 -1.4442  1.4164
22143SOL    HW268872   1.718   9.032   4.516 -0.4826  0.6597  0.4023
22144SOL     OW68873   5.753   3.010   1.418 -0.0455 -0.3393 -0.0551
22144SOL    HW168874   5.805   3.089   1.432  0.9277 -1.0312  0.3114
22144SOL    HW268875   5.760   2.962   1.500 -1.7047 -0.2199  0.1926
22145SOL     OW68876   3.987   2.122  10.466 -0.1150 -0.0633  0.1862
22145SOL    HW168877   4.021   2.168  10.389  0.7572  1.3142  1.3599
22145SOL    HW268878   3.894   2.147  10.470 -0.3578 -0.7256 -0.7958
22146SOL     OW68879   3.655   6.712   7.331  0.2174  0.1000 -0.1405
22146SOL    HW168880   3.705   6.666   7.264  1.8171  1.2834  0.1914
22146SOL    HW268881   3.707   6.703   7.411 -0.5090  0.6579  0.4155
22147SOL     OW68882   6.178   3.354   0.183  0.2994  0.3596  0.1334
22147SOL    HW168883   6.169   3.421   0.251 -0.4141  0.4825 -0.0794
22147SOL    HW268884   6.139   3.394   0.105  1.1382  0.2300 -0.3589
22148SOL     OW68885   5.606   0.425   1.558  0.2569 -0.4735  0.7437
22148SOL    HW168886   5.665   0.407   1.484  0.3981 -0.6119  0.8881
22148SOL    HW268887   5.615   0.348   1.615  1.4463  0.3630  1.7444
22149SOL     OW68888   3.029   7.607   1.283  0.5856  0.1537  0.9094
22149SOL    HW168889   2.968   7.560   1.340 -1.2825  1.9825  0.5525
22149SOL    HW268890   2.973   7.667   1.233  2.5706  1.0567 -0.3379
22150SOL     OW68891   4.288   5.445   7.058 -0.3615 -0.1750 -0.3455
22150SOL    HW168892   4.381   5.436   7.037  0.0846  0.1022  1.3349
22150SOL    HW268893   4.264   5.362   7.098 -0.5492  0.1382  0.2024
22151SOL     OW68894  10.177   0.088   6.103  0.1660 -0.2958 -0.3243
22151SOL    HW168895  10.104   0.049   6.055 -0.5208 -0.1505  0.5687
22151SOL    HW268896  10.229   0.013   6.132  0.2484 -0.4130 -0.7756
22152SOL     OW68897   5.753   7.017   2.057  0.2410  0.5866 -0.0213
22152SOL    HW168898   5.702   6.950   2.012 -0.4771  1.1639 -0.0642
22152SOL    HW268899   5.713   7.100   2.033  0.2050  0.9476  1.2097
22153SOL     OW68900   8.800   0.285   4.069 -0.2935  0.5835  0.2394
22153SOL    HW168901   8.885   0.249   4.096 -0.0125  0.4977 -0.7355
22153SOL    HW268902   8.792   0.366   4.120  1.2691  1.6003 -1.0079
22154SOL     OW68903   7.404   0.613   6.233  1.0760  0.1161 -0.6822
22154SOL    HW168904   7.361   0.528   6.226  0.3120  0.4642 -0.3705
22154SOL    HW268905   7.398   0.650   6.145  2.4617 -0.6324 -1.1114
22155SOL     OW68906   9.974   4.147   2.621 -0.3554  0.0115  0.2098
22155SOL    HW168907   9.945   4.234   2.647  0.4549  0.3555 -0.0099
22155SOL    HW268908   9.894   4.094   2.621 -1.0953  1.0689 -0.9684
22156SOL     OW68909   7.589   7.960   0.061  0.2307 -0.5548 -0.3894
22156SOL    HW168910   7.639   7.904   0.002 -0.5181 -0.7923 -0.8192
22156SOL    HW268911   7.499   7.926   0.055 -0.7526  2.1101 -2.4739
22157SOL     OW68912   5.574   7.836   0.799 -0.3199 -0.0755  0.0737
22157SOL    HW168913   5.521   7.763   0.829  0.0552  0.2992  1.7499
22157SOL    HW268914   5.658   7.796   0.776  0.6341 -0.0252  2.9921
22158SOL     OW68915   6.034   2.387   8.801  0.1247 -0.2875  0.0964
22158SOL    HW168916   6.011   2.412   8.711 -1.6186 -2.6956 -0.2098
22158SOL    HW268917   6.101   2.319   8.791 -0.5970 -1.0821  0.5709
22159SOL     OW68918   9.210   2.378  10.300  0.1661  0.0920 -0.4586
22159SOL    HW168919   9.259   2.308  10.257  1.8593  1.8842 -1.6416
22159SOL    HW268920   9.275   2.419  10.358 -0.2598  1.7190 -1.0838
22160SOL     OW68921   0.337   5.103   9.781  0.0283 -0.5597 -0.1956
22160SOL    HW168922   0.309   5.062   9.700  1.5369 -0.0356 -1.0196
22160SOL    HW268923   0.353   5.194   9.758  0.0648 -0.3074  0.7854
22161SOL     OW68924   9.062   7.269   7.916  0.0923  0.2738 -0.2699
22161SOL    HW168925   9.011   7.278   7.835  0.4055 -1.7686 -0.7596
22161SOL    HW268926   9.007   7.308   7.984 -0.4715  1.4142 -1.3422
22162SOL     OW68927   2.774   3.475   1.370  0.0929 -0.2369  0.1822
22162SOL    HW168928   2.843   3.541   1.362  0.1978 -0.2956  0.5661
22162SOL    HW268929   2.766   3.460   1.464  0.3926 -1.1075  0.0740
22163SOL     OW68930   1.516   1.644   0.784 -0.0521 -0.0399 -0.3910
22163SOL    HW168931   1.488   1.649   0.693  0.1002 -3.4230 -0.7255
22163SOL    HW268932   1.601   1.688   0.786  0.8554 -1.5771 -2.3442
22164SOL     OW68933   6.585   7.221   9.554  0.5139  0.1582 -0.6132
22164SOL    HW168934   6.665   7.228   9.606  0.5780  1.2335 -0.8386
22164SOL    HW268935   6.552   7.133   9.573  0.2698  0.6671  1.6355
22165SOL     OW68936   7.371   0.100   3.684  0.3645 -0.0069 -0.0650
22165SOL    HW168937   7.400   0.148   3.606  1.7662 -0.4493  0.1543
22165SOL    HW268938   7.335   0.018   3.649  1.7228 -0.5598 -0.2434
22166SOL     OW68939   8.305   4.850   8.524 -0.4936  0.2089  0.2751
22166SOL    HW168940   8.281   4.781   8.586 -1.7010  1.6947  1.5845
22166SOL    HW268941   8.222   4.895   8.507 -0.0161  0.3928 -1.7792
22167SOL     OW68942   6.593   4.148   8.927  0.2547 -0.1348  0.8299
22167SOL    HW168943   6.572   4.076   8.986  2.6961  0.2855  2.3349
22167SOL    HW268944   6.633   4.106   8.851 -1.0423 -0.5239  0.3269
22168SOL     OW68945   3.078   6.742   0.207 -0.6911  0.2534  0.1997
22168SOL    HW168946   3.126   6.812   0.162 -0.7648  0.1022 -0.1121
22168SOL    HW268947   3.011   6.715   0.145  0.3129 -1.1866 -0.3189
22169SOL     OW68948   2.482   6.148   6.674  0.1155  0.6038 -0.2182
22169SOL    HW168949   2.480   6.108   6.761  3.4290  2.0816  0.6925
22169SOL    HW268950   2.403   6.202   6.670 -1.0718 -0.9746  1.0675
22170SOL     OW68951   7.377   0.626   8.880  0.7164 -0.4383  0.5274
22170SOL    HW168952   7.335   0.616   8.966  1.6273  0.6368  1.1156
22170SOL    HW268953   7.360   0.717   8.855  4.3762  0.7664  1.7797
22171SOL     OW68954   1.140   9.774   1.258  0.1914 -0.4326 -0.1129
22171SOL    HW168955   1.207   9.752   1.322  1.2073  0.6779 -0.7414
22171SOL    HW268956   1.186   9.770   1.174 -0.9092 -1.0737 -0.7032
22172SOL     OW68957   5.252   5.386   9.639 -0.4858  0.0281 -0.0194
22172SOL    HW168958   5.286   5.329   9.709  0.5401  0.0305 -0.5017
22172SOL    HW268959   5.316   5.377   9.568 -1.6817 -0.2223 -1.0911
22173SOL     OW68960   4.957   7.884   3.645 -0.1633  0.0608 -0.2799
22173SOL    HW168961   4.995   7.798   3.625  2.2764  1.3256 -1.4819
22173SOL    HW268962   4.914   7.911   3.564 -0.6737  0.1149  0.0042
22174SOL     OW68963   4.126   5.754   4.247 -0.3652  0.2542  0.0476
22174SOL    HW168964   4.174   5.830   4.214 -0.1873 -0.1805 -0.7315
22174SOL    HW268965   4.121   5.695   4.172 -2.5066  0.4551 -0.0123
22175SOL     OW68966   9.819   4.633   5.959 -0.4007 -0.3717 -0.1772
22175SOL    HW168967   9.739   4.620   6.009 -0.5306  1.2873  0.1050
22175SOL    HW268968   9.874   4.687   6.015  0.2146 -0.0557 -1.0530
22176SOL     OW68969   2.171   5.947   0.290 -0.3495  0.3966  0.1734
22176SOL    HW168970   2.201   6.037   0.283  1.3772 -0.0164  1.5729
22176SOL    HW268971   2.092   5.944   0.236 -0.5953  2.7872  0.2929
22177SOL     OW68972   2.342   3.542   9.909 -0.3558 -0.3374 -0.3108
22177SOL    HW168973   2.257   3.523   9.948 -0.6708 -1.4136 -1.4693
22177SOL    HW268974   2.397   3.468   9.936  0.6380  0.9977  1.5394
22178SOL     OW68975   6.093   7.440   0.136  0.5877 -0.1774  0.2587
22178SOL    HW168976   6.111   7.534   0.142  0.8147 -0.2200  0.2524
22178SOL    HW268977   6.061   7.428   0.046  1.1303 -0.2022  0.0676
22179SOL     OW68978   4.036   0.281   1.155  0.3505  0.4227  0.0796
22179SOL    HW168979   3.947   0.263   1.187  0.3047  2.9687  1.7143
22179SOL    HW268980   4.025   0.355   1.096  1.3480  0.4742 -0.0498
22180SOL     OW68981   9.615   1.304   5.858 -0.5912  0.0280 -1.4203
22180SOL    HW168982   9.578   1.364   5.793 -0.3245  2.2107  0.3416
22180SOL    HW268983   9.703   1.286   5.826 -0.1774  1.7068 -1.3134
22181SOL     OW68984   7.508   8.010   7.490 -0.1801 -0.1039  0.4092
22181SOL    HW168985   7.527   7.916   7.496  0.5194  0.0574  0.8294
22181SOL    HW268986   7.436   8.024   7.551  1.0858 -0.0226  1.9733
22182SOL     OW68987   9.010   3.713   2.309  0.1917  0.0333  0.2952
22182SOL    HW168988   9.092   3.670   2.285  0.6022  0.2857  1.1983
22182SOL    HW268989   8.987   3.676   2.395 -1.1069 -0.6772 -0.3206
22183SOL     OW68990   8.886   3.921   7.629  0.5425  0.1884  0.0413
22183SOL    HW168991   8.911   3.948   7.540 -0.8917  2.6853  0.3065
22183SOL    HW268992   8.969   3.910   7.675  1.2810 -0.0351 -1.2910
22184SOL     OW68993   9.494  10.276   1.412 -0.7195 -0.6456 -0.0861
22184SOL    HW168994   9.496  10.259   1.318 -1.0069 -2.1015  0.1527
22184SOL    HW268995   9.586  10.281   1.438 -0.6321  0.2792 -0.5059
22185SOL     OW68996   6.773   4.684   7.111  0.5711 -0.5269 -0.2746
22185SOL    HW168997   6.732   4.750   7.055 -0.9047 -0.6860  0.5577
22185SOL    HW268998   6.701   4.629   7.140  1.6587 -2.0018 -0.2471
22186SOL     OW68999   6.221   2.758   8.109  0.2255 -0.0154 -0.2041
22186SOL    HW169000   6.293   2.748   8.170 -0.2966 -0.1132  0.4040
22186SOL    HW269001   6.181   2.671   8.103  0.4747 -0.0885 -0.9487
22187SOL     OW69002   4.047   7.986   7.672 -0.1634  0.4948 -0.0572
22187SOL    HW169003   3.961   7.946   7.686  0.3796 -1.6563 -2.1886
22187SOL    HW269004   4.029   8.080   7.664 -2.3718  0.0745 -0.6204
22188SOL     OW69005  10.255   4.304   7.689  0.0594  0.0592 -0.0641
22188SOL    HW169006  10.178   4.248   7.680 -0.6258  1.1083 -0.9516
22188SOL    HW269007  10.304   4.291   7.608  1.2554 -1.1898  0.8140
22189SOL     OW69008   5.112   9.442   6.848 -0.0732  0.3286  0.0619
22189SOL    HW169009   5.090   9.392   6.769 -1.3625  1.5688 -0.4056
22189SOL    HW269010   5.203   9.419   6.867 -0.0462 -0.7160 -1.2347
22190SOL     OW69011   9.394   0.493   8.843 -0.0031 -0.0797  0.3080
22190SOL    HW169012   9.370   0.544   8.920 -0.5399  1.3275 -0.7496
22190SOL    HW269013   9.328   0.424   8.837 -0.2167  0.0781  0.8459
22191SOL     OW69014  10.348   4.155   5.794 -0.4143  0.2931 -0.2595
22191SOL    HW169015  10.391   4.110   5.722  1.6544 -0.5130  1.3689
22191SOL    HW269016  10.403   4.232   5.810 -0.5096  0.1502  0.8081
22192SOL     OW69017  10.024   9.298   5.084  0.1652 -0.6900  0.1966
22192SOL    HW169018   9.977   9.248   5.151  3.0508 -1.9038  1.5135
22192SOL    HW269019  10.025   9.387   5.118  0.5164 -1.0514  1.1813
22193SOL     OW69020   4.689   7.559  10.153  0.3001  0.0368 -0.3513
22193SOL    HW169021   4.732   7.607  10.082  0.4002  4.6677  2.4261
22193SOL    HW269022   4.745   7.575  10.230 -2.5281  0.0159  1.8759
22194SOL     OW69023   3.087   8.627   0.658  0.1040 -0.3145 -0.5241
22194SOL    HW169024   3.087   8.668   0.571 -0.9079  0.1301 -0.3358
22194SOL    HW269025   3.179   8.627   0.684  0.2118  1.4137 -0.7503
22195SOL     OW69026   8.136   2.997   3.300  0.0954  0.1935 -0.6196
22195SOL    HW169027   8.206   2.998   3.366 -0.7688 -2.4255  0.4585
22195SOL    HW269028   8.179   2.966   3.220  0.7783  1.6427 -0.8409
22196SOL     OW69029   0.657   5.420  10.265 -0.2878  0.2849 -0.2113
22196SOL    HW169030   0.742   5.397  10.302 -1.3938  0.1871  2.4425
22196SOL    HW269031   0.659   5.382  10.177  2.4201  0.3945 -0.3119
22197SOL     OW69032   3.281  10.281   6.958 -0.0153 -0.3313  0.4156
22197SOL    HW169033   3.243  10.357   6.915  1.2405 -0.0736 -0.2978
22197SOL    HW269034   3.234  10.206   6.921  1.2952 -0.1533 -1.8141
22198SOL     OW69035   0.032   0.955   7.072  0.6110  0.1580  0.6008
22198SOL    HW169036  -0.062   0.973   7.062  0.3367 -1.4413 -0.0085
22198SOL    HW269037   0.035   0.872   7.118  1.7409 -0.0000  0.2571
22199SOL     OW69038   1.189   9.463   5.576 -0.2794  0.2827  0.3384
22199SOL    HW169039   1.124   9.428   5.636 -0.9824  3.5285  1.6366
22199SOL    HW269040   1.264   9.485   5.631  0.8301 -0.6723 -0.7108
22200SOL     OW69041   6.109   5.759   8.563  0.3193  0.2193  0.4228
22200SOL    HW169042   6.062   5.843   8.556  0.2017 -0.0175 -2.5003
22200SOL    HW269043   6.040   5.696   8.584 -0.6395  0.0584 -2.7424
22201SOL     OW69044   2.245   9.310   5.505  0.0779 -0.4820 -0.4825
22201SOL    HW169045   2.334   9.332   5.532  0.1400  0.3399 -1.3124
22201SOL    HW269046   2.228   9.225   5.545  0.3521  0.4212  1.6459
22202SOL     OW69047   5.991   4.525   9.939 -0.2847  0.0295 -0.2466
22202SOL    HW169048   5.987   4.620   9.952  0.2154  0.0196  0.0362
22202SOL    HW269049   5.922   4.490   9.996  0.8261  0.1027  1.2222
22203SOL     OW69050   5.821   8.223   5.344  0.1556 -0.0597 -0.1207
22203SOL    HW169051   5.902   8.273   5.333  0.5502 -0.8192 -0.8542
22203SOL    HW269052   5.779   8.226   5.258 -0.8898  0.7949  0.4007
22204SOL     OW69053   1.116   9.968   4.552 -0.3989  0.2604  0.1331
22204SOL    HW169054   1.079   9.978   4.639 -0.2969  1.7447  0.0231
22204SOL    HW269055   1.208   9.948   4.567 -0.5683 -0.3584  0.3661
22205SOL     OW69056   0.879  10.044   6.809 -0.1744  0.0168  0.0632
22205SOL    HW169057   0.962  10.088   6.827 -0.7600  0.7738  1.0218
22205SOL    HW269058   0.857  10.069   6.719  0.4971  0.0146 -0.1063
22206SOL     OW69059   9.730   2.556   6.307  0.0362 -0.1201 -0.3048
22206SOL    HW169060   9.823   2.543   6.323  0.7056  1.3072 -2.6250
22206SOL    HW269061   9.719   2.651   6.306 -1.4796 -0.2593 -0.0291
22207SOL     OW69062   6.292   0.799   1.865 -0.7909 -0.2075 -0.4978
22207SOL    HW169063   6.350   0.831   1.935  1.3269  0.4146 -2.3955
22207SOL    HW269064   6.262   0.714   1.896  0.4743 -0.1667  0.9812
22208SOL     OW69065   0.757   7.190   6.256  0.5027 -0.2764  0.2114
22208SOL    HW169066   0.715   7.147   6.331  0.2733 -0.2437  0.1022
22208SOL    HW269067   0.743   7.129   6.184  0.6793 -0.2844  0.1848
22209SOL     OW69068   0.264   6.134   8.043  0.2034 -0.2130  0.2825
22209SOL    HW169069   0.314   6.070   7.993  0.9624 -0.1296  0.9246
22209SOL    HW269070   0.230   6.085   8.117  0.7650  0.1146  0.7618
22210SOL     OW69071   3.219   4.847   2.397  0.8049  0.2419  0.2648
22210SOL    HW169072   3.141   4.897   2.422  1.1972  0.3917  1.1981
22210SOL    HW269073   3.261   4.824   2.479  1.1650 -0.7952 -0.1905
22211SOL     OW69074   2.926   3.705  10.128  0.2504 -0.1807 -0.0246
22211SOL    HW169075   2.959   3.749  10.049  0.5681 -0.9858 -0.3517
22211SOL    HW269076   2.899   3.618  10.097 -2.2756  0.4407  0.1958
22212SOL     OW69077   3.008   4.929   5.309  0.2158 -0.3786  0.6961
22212SOL    HW169078   2.991   4.903   5.399  0.0467  1.3865  1.2091
22212SOL    HW269079   2.925   4.967   5.280  0.6417  0.1804  0.2065
22213SOL     OW69080   8.706   0.757   7.972 -0.3989 -0.4618 -0.6844
22213SOL    HW169081   8.720   0.678   8.025  0.5239  0.0639 -0.1208
22213SOL    HW269082   8.792   0.798   7.967 -0.8861  0.5707 -0.8806
22214SOL     OW69083   4.333   0.766   7.526 -0.0617 -0.2318  0.2886
22214SOL    HW169084   4.354   0.771   7.619  2.1017  1.6684 -0.1854
22214SOL    HW269085   4.249   0.810   7.518 -0.0996 -0.0890  1.3158
22215SOL     OW69086   4.014   5.123   0.269  0.3804  0.0796 -0.3598
22215SOL    HW169087   3.936   5.086   0.226 -0.6652  1.8222 -0.0696
22215SOL    HW269088   4.045   5.053   0.327 -0.6630 -0.8350 -0.8603
22216SOL     OW69089   2.169   1.573   4.938  0.8213  0.0853  0.3532
22216SOL    HW169090   2.182   1.536   4.851 -0.6055  0.6837 -0.1595
22216SOL    HW269091   2.184   1.500   4.998  0.0965 -0.8123 -0.5069
22217SOL     OW69092   1.081   3.756   6.876  0.0082  0.1289  0.2528
22217SOL    HW169093   1.101   3.662   6.884  0.0972  0.0218 -1.0433
22217SOL    HW269094   0.998   3.767   6.922  1.0922 -0.1473  2.3864
22218SOL     OW69095   6.551   1.829   3.255 -0.3052  0.3739  0.0131
22218SOL    HW169096   6.532   1.902   3.195 -0.8577  0.5833  0.4274
22218SOL    HW269097   6.574   1.756   3.198  0.0130  0.8053 -0.4203
22219SOL     OW69098   1.808  10.405   5.302 -0.2418 -0.2055  0.2881
22219SOL    HW169099   1.735  10.353   5.337 -0.6594  0.3107  0.1992
22219SOL    HW269100   1.767  10.463   5.239  0.5111 -1.2017 -1.1780
22220SOL     OW69101   4.003   1.410   0.873  0.3081  0.1508 -0.1547
22220SOL    HW169102   3.962   1.385   0.791 -0.1231  0.7325 -0.1207
22220SOL    HW269103   4.097   1.403   0.856  0.2356  0.7054 -0.8441
22221SOL     OW69104   4.025   7.841   3.832  0.4999  0.1054 -0.5631
22221SOL    HW169105   4.107   7.795   3.813 -1.0461 -2.3786 -1.7812
22221SOL    HW269106   4.003   7.815   3.922  0.7045  0.1881 -0.4893
22222SOL     OW69107   2.351   4.148   0.132  0.4622 -1.1290 -0.4095
22222SOL    HW169108   2.423   4.195   0.173  1.4508 -1.1317 -2.0785
22222SOL    HW269109   2.369   4.055   0.149  0.7485 -1.1169 -0.6445
22223SOL     OW69110   5.347   6.269   2.723  0.2722  0.0473  0.3498
22223SOL    HW169111   5.415   6.215   2.762 -1.1642 -1.9345  0.2533
22223SOL    HW269112   5.383   6.295   2.639  1.2433 -0.2355  0.6589
22224SOL     OW69113   5.595   8.417   7.014  0.1768 -0.1230 -0.2562
22224SOL    HW169114   5.526   8.467   6.970  0.3030 -0.9997 -1.5233
22224SOL    HW269115   5.649   8.483   7.058 -1.9006  0.5308  1.4601
22225SOL     OW69116   8.376   8.346   5.988 -0.0095  0.1411  0.6094
22225SOL    HW169117   8.317   8.355   5.913  0.1345  3.1832  0.7264
22225SOL    HW269118   8.442   8.283   5.958 -0.7410  0.2009 -1.2969
22226SOL     OW69119   1.262   8.827  10.176  0.1198 -0.0930  0.3205
22226SOL    HW169120   1.304   8.782  10.102  2.4172  1.6416  0.4417
22226SOL    HW269121   1.318   8.807  10.251  0.0253  1.2492  0.7839
22227SOL     OW69122   5.825   8.255   9.909  0.4895  0.3825 -0.0701
22227SOL    HW169123   5.908   8.207   9.918  0.1384  0.0438  1.7501
22227SOL    HW269124   5.848   8.346   9.929  0.3677  0.2079  0.9498
22228SOL     OW69125   3.432   2.117   1.811  0.5587 -0.2790  0.2769
22228SOL    HW169126   3.341   2.127   1.785  0.7120 -0.0484 -0.1890
22228SOL    HW269127   3.476   2.194   1.775  0.6662  0.3918  1.7963
22229SOL     OW69128   7.294  10.384   4.828  0.3290 -0.6629  0.0866
22229SOL    HW169129   7.379  10.342   4.841  1.0514 -1.1170 -4.4608
22229SOL    HW269130   7.312  10.477   4.823  0.5197 -0.7243 -0.4250
22230SOL     OW69131   0.489  10.053   8.366  0.5983  0.3185 -0.3885
22230SOL    HW169132   0.570  10.059   8.314  1.4519 -1.0520  0.7275
22230SOL    HW269133   0.518  10.036   8.455 -0.9343 -2.3531 -0.3027
22231SOL     OW69134   8.801   8.848   4.709 -0.1126 -0.1886 -0.4052
22231SOL    HW169135   8.820   8.940   4.688 -0.0040 -0.2942 -0.7745
22231SOL    HW269136   8.707   8.840   4.693  0.0486 -0.3833 -1.3144
22232SOL     OW69137   7.646  10.425   6.589  0.5489  0.2775 -0.4779
22232SOL    HW169138   7.580  10.414   6.658  0.7071 -0.5015 -0.4404
22232SOL    HW269139   7.602  10.396   6.509  0.2524  1.5012 -0.7866
22233SOL     OW69140   1.987   0.453   8.550 -0.4208  0.1214  0.1073
22233SOL    HW169141   1.972   0.461   8.644  0.7690  1.8353  0.1948
22233SOL    HW269142   2.077   0.422   8.542 -0.6049 -0.2889 -0.4704
22234SOL     OW69143   3.821   4.890   1.571  0.7891 -0.5312 -0.3233
22234SOL    HW169144   3.814   4.845   1.486 -0.0673 -0.8309 -0.1022
22234SOL    HW269145   3.735   4.929   1.584  1.6580  1.6998 -0.7775
22235SOL     OW69146   6.809   1.682   2.969  0.1675 -0.2510  0.5931
22235SOL    HW169147   6.832   1.610   3.028 -1.1980 -1.2395 -0.0305
22235SOL    HW269148   6.817   1.645   2.881  1.4949  1.0003  0.1464
22236SOL     OW69149   8.756   1.155   8.539  0.0294  0.0464  0.2041
22236SOL    HW169150   8.711   1.143   8.455  0.0403  0.0814  0.1927
22236SOL    HW269151   8.729   1.242   8.568 -0.6635 -0.3106  0.6550
22237SOL     OW69152   4.020   2.624   9.957 -0.2999 -0.0188 -0.3633
22237SOL    HW169153   3.947   2.684   9.973 -0.5941 -0.1482 -1.1763
22237SOL    HW269154   3.986   2.538   9.980 -0.3088 -0.0423 -0.4639
22238SOL     OW69155   8.958   6.737   8.352 -0.0649  0.1237 -0.4504
22238SOL    HW169156   8.977   6.779   8.436 -0.8919  2.3656 -1.3298
22238SOL    HW269157   8.908   6.659   8.377 -1.2689  1.3179  1.1275
22239SOL     OW69158   2.582   2.235   1.290  0.1747 -0.8417 -0.3465
22239SOL    HW169159   2.561   2.179   1.215  2.4159 -0.5127 -1.2910
22239SOL    HW269160   2.612   2.317   1.251  0.3196 -0.2651  0.9467
22240SOL     OW69161   3.762   0.061   2.154 -0.7131 -0.5696  0.2919
22240SOL    HW169162   3.855   0.042   2.167 -0.8404 -0.4576  1.5080
22240SOL    HW269163   3.744   0.033   2.064  0.3802 -1.0491  0.2047
22241SOL     OW69164   9.246   8.454   6.649  0.1963 -0.1235  0.0167
22241SOL    HW169165   9.233   8.393   6.576 -0.8422  1.1857 -0.9658
22241SOL    HW269166   9.159   8.492   6.663  0.5239  0.0898  1.5555
22242SOL     OW69167   0.093   9.320   6.947  0.2422 -0.1760  0.5088
22242SOL    HW169168   0.007   9.308   6.988  0.2168  0.7609  0.7610
22242SOL    HW269169   0.082   9.286   6.858 -0.5216  0.3126  0.4033
22243SOL     OW69170   7.705   9.923   9.979 -0.6293  0.2726 -0.7064
22243SOL    HW169171   7.799   9.917   9.964 -0.8588 -0.9479 -1.7556
22243SOL    HW269172   7.682  10.012   9.953  0.4101  1.0097  0.7443
22244SOL     OW69173   8.712   8.493   2.419 -0.1469 -0.4015 -0.3147
22244SOL    HW169174   8.684   8.520   2.507 -1.2892 -0.0623 -0.7598
22244SOL    HW269175   8.647   8.533   2.361  2.6908  2.7712 -1.6874
22245SOL     OW69176   9.013   1.692   1.455  0.2481  0.4794 -0.0182
22245SOL    HW169177   8.924   1.676   1.486  0.9375 -3.3049  0.5078
22245SOL    HW269178   9.061   1.722   1.533  0.2675 -1.4488  0.7526
22246SOL     OW69179   7.669   2.876   5.232 -0.1035 -0.1729  0.0883
22246SOL    HW169180   7.656   2.871   5.326  0.1312  0.6497  0.1773
22246SOL    HW269181   7.666   2.970   5.213  3.1611 -0.0386 -0.2369
22247SOL     OW69182   1.780   4.597   2.007 -0.0362  0.5617 -0.5170
22247SOL    HW169183   1.692   4.587   2.041  0.4224 -0.0588  0.5194
22247SOL    HW269184   1.786   4.531   1.938 -0.3002  0.4387 -0.4247
22248SOL     OW69185   4.229   1.914   2.979 -0.1166  0.5387  0.6616
22248SOL    HW169186   4.173   1.911   3.057 -1.0625  1.7358  0.0586
22248SOL    HW269187   4.309   1.869   3.005 -1.0295 -0.4899  1.8197
22249SOL     OW69188   3.245   9.592   4.271 -0.0016 -0.3063  0.3841
22249SOL    HW169189   3.310   9.524   4.259  1.5658  1.1393  0.3379
22249SOL    HW269190   3.274   9.664   4.215 -1.5654  0.4398  0.4708
22250SOL     OW69191   2.882   1.030   0.316 -0.2265  0.1178 -0.0786
22250SOL    HW169192   2.843   1.023   0.229  1.4143 -1.9565 -0.7422
22250SOL    HW269193   2.836   0.965   0.369  0.1042 -0.0246  0.0386
22251SOL     OW69194   2.131   9.356   7.288  0.2639 -0.3635 -0.1525
22251SOL    HW169195   2.226   9.357   7.278  0.4546  0.3166  1.4128
22251SOL    HW269196   2.116   9.319   7.375 -0.7307  1.8402  0.7043
22252SOL     OW69197   3.558   5.257   7.873  0.4473  0.1211 -0.0096
22252SOL    HW169198   3.620   5.259   7.946  0.3319 -1.5872  0.1744
22252SOL    HW269199   3.483   5.308   7.904  1.3484  1.3684  0.1481
22253SOL     OW69200   2.050   3.683   8.207 -0.1691  0.1190  0.4914
22253SOL    HW169201   2.096   3.623   8.148 -1.7997 -0.6046 -0.1135
22253SOL    HW269202   2.059   3.643   8.293  0.0911 -0.1527  0.3439
22254SOL     OW69203   9.278   5.216   0.678  0.1250 -0.3388  0.0101
22254SOL    HW169204   9.369   5.189   0.667  0.3534 -0.7313  2.3057
22254SOL    HW269205   9.228   5.135   0.673 -0.1395 -0.1131 -1.3343
22255SOL     OW69206   9.027   8.803   3.163  0.0895 -0.2898 -0.1201
22255SOL    HW169207   9.070   8.751   3.231  1.5434 -0.6124 -1.2367
22255SOL    HW269208   8.945   8.830   3.203  1.0654 -0.1169  1.9180
22256SOL     OW69209   2.420   7.721   5.307 -0.4311 -0.1281  0.5815
22256SOL    HW169210   2.357   7.711   5.379 -0.5984  2.7658  0.9272
22256SOL    HW269211   2.498   7.758   5.349  0.6742 -1.4386 -0.2483
22257SOL     OW69212   1.456   9.187   5.902 -0.0912 -0.3191 -0.2345
22257SOL    HW169213   1.369   9.189   5.943  0.3885 -1.4418  0.8988
22257SOL    HW269214   1.517   9.194   5.975  0.7942 -1.3369 -0.8511
22258SOL     OW69215   7.229   9.187   6.931  0.0922 -0.2111 -0.0297
22258SOL    HW169216   7.224   9.251   6.860  1.3831 -0.3888 -0.3143
22258SOL    HW269217   7.148   9.198   6.979 -0.2828  0.7403 -0.8426
22259SOL     OW69218   3.599   6.046   8.032  0.0676 -0.2936 -0.5536
22259SOL    HW169219   3.580   5.961   8.071  0.0679  0.3032  0.7897
22259SOL    HW269220   3.519   6.069   7.984 -0.2478 -0.6479 -0.1963
22260SOL     OW69221   2.536   6.534   7.239 -0.2379  0.5692  0.0874
22260SOL    HW169222   2.603   6.592   7.202 -0.5287  0.9932  0.2168
22260SOL    HW269223   2.496   6.493   7.162  1.6095 -1.3538  0.0799
22261SOL     OW69224   4.798   0.187   9.578  0.8592 -0.3772  0.0352
22261SOL    HW169225   4.812   0.260   9.638  1.2320 -0.7878  0.4556
22261SOL    HW269226   4.880   0.138   9.580  2.1488  1.3022 -3.2430
22262SOL     OW69227   7.742   9.151  10.155 -0.0475  0.1905  0.0739
22262SOL    HW169228   7.695   9.230  10.181 -1.2445 -0.9411  1.5583
22262SOL    HW269229   7.707   9.083  10.212  2.9062 -0.8955  0.7801
22263SOL     OW69230  10.037   1.213   1.682  0.0718  0.3707 -0.2132
22263SOL    HW169231  10.001   1.271   1.615 -0.8703 -0.3610 -0.3638
22263SOL    HW269232  10.102   1.160   1.636  2.1122  2.3273  0.2526
22264SOL     OW69233   1.323   0.745   5.351  0.1359 -0.1789  0.4987
22264SOL    HW169234   1.393   0.809   5.342  1.0433 -0.6376  3.3211
22264SOL    HW269235   1.348   0.692   5.427 -1.7242 -2.4066 -0.3184
22265SOL     OW69236   0.141   6.737   0.012  0.3733 -0.5876  0.0314
22265SOL    HW169237   0.226   6.695   0.024  1.5381  0.2102 -3.8868
22265SOL    HW269238   0.087   6.671  -0.032 -0.0977 -0.2054  0.0230
22266SOL     OW69239   5.321   8.098   6.153  0.1682  0.6023  0.6359
22266SOL    HW169240   5.330   8.158   6.079 -0.7507  0.0639  0.0640
22266SOL    HW269241   5.330   8.011   6.114  0.9701  0.3449  1.3751
22267SOL     OW69242   7.553   6.242   2.694 -0.0677 -0.3836 -0.0225
22267SOL    HW169243   7.482   6.178   2.681  0.0924 -0.9527  1.6967
22267SOL    HW269244   7.508   6.327   2.697 -0.6860 -0.7256  0.8775
22268SOL     OW69245   0.481   0.454   4.417 -0.0781  0.1402 -0.3582
22268SOL    HW169246   0.546   0.434   4.349 -1.3829 -1.0063 -1.3011
22268SOL    HW269247   0.525   0.431   4.498  1.7786  2.1835 -0.6670
22269SOL     OW69248   4.041  10.135   2.815 -0.8547  0.1538 -0.7113
22269SOL    HW169249   4.127  10.092   2.813 -0.1656  1.3915  0.3360
22269SOL    HW269250   4.039  10.187   2.735 -0.0383  1.1464 -0.1127
22270SOL     OW69251   0.348   5.413   9.852 -0.1270  0.0917  0.0887
22270SOL    HW169252   0.424   5.373   9.894  0.3607 -0.0788 -0.9332
22270SOL    HW269253   0.384   5.465   9.780 -0.7946  1.8500  0.9661
22271SOL     OW69254   8.897   4.612   9.147  0.3800 -0.3579 -0.3879
22271SOL    HW169255   8.982   4.575   9.173  1.5096  0.4031 -2.7056
22271SOL    HW269256   8.833   4.558   9.192  2.0657 -0.2100  2.4499
22272SOL     OW69257   8.763   8.333   8.159 -0.8780 -0.9393  0.1765
22272SOL    HW169258   8.727   8.418   8.136 -2.6138 -1.5128  0.6287
22272SOL    HW269259   8.749   8.325   8.253  0.6517 -1.1152  0.4134
22273SOL     OW69260   4.978  10.241  10.091  0.2539 -0.3708 -0.0283
22273SOL    HW169261   4.965  10.213  10.181  1.0235 -4.2462 -0.9292
22273SOL    HW269262   5.051  10.302  10.094 -0.4217  0.4070  2.0341
22274SOL     OW69263   4.578   8.171   6.267 -0.3587 -0.2192  0.4384
22274SOL    HW169264   4.630   8.220   6.203  1.8435  1.0682  2.9867
22274SOL    HW269265   4.542   8.097   6.218  2.6675 -0.3328 -1.9053
22275SOL     OW69266   1.508   9.424   3.747  0.2362  0.5510 -0.5122
22275SOL    HW169267   1.483   9.436   3.838  0.6582  3.2370 -0.6679
22275SOL    HW269268   1.456   9.349   3.717  0.3194 -0.5966  1.9693
22276SOL     OW69269   4.362   6.450   1.320  0.2303  0.1623  0.5156
22276SOL    HW169270   4.346   6.484   1.408  0.4346  0.1401  0.5606
22276SOL    HW269271   4.316   6.511   1.262  1.0985  0.8615  0.5487
22277SOL     OW69272   2.389   5.384   4.124 -0.9565 -0.4120 -0.2585
22277SOL    HW169273   2.355   5.337   4.048 -1.3952  2.1576 -1.7685
22277SOL    HW269274   2.484   5.373   4.118 -0.9037  0.6429 -1.8664
22278SOL     OW69275   7.624   6.747   4.787  0.3701 -0.2362  0.4525
22278SOL    HW169276   7.692   6.814   4.797  1.5843 -1.3714  0.0191
22278SOL    HW269277   7.561   6.786   4.726  1.9691 -0.1344 -1.2288
22279SOL     OW69278   4.253   7.993   1.946 -0.0744  0.0631  0.5052
22279SOL    HW169279   4.209   8.062   1.897  1.7301  1.2137  0.4099
22279SOL    HW269280   4.319   8.038   1.998 -0.5796 -1.3408  2.4877
22280SOL     OW69281   0.972   8.394   3.580 -0.6677  0.0374  0.3072
22280SOL    HW169282   1.007   8.431   3.661  2.0573 -1.5925  0.0187
22280SOL    HW269283   0.899   8.340   3.608  1.1443 -1.6993  1.9911
22281SOL     OW69284   2.421   7.633   1.355 -0.1753  0.3510  0.4540
22281SOL    HW169285   2.332   7.659   1.334  0.1732  1.1861 -0.0574
22281SOL    HW269286   2.467   7.636   1.271  0.4397  0.3858  0.7823
22282SOL     OW69287   4.584   2.278   3.479  0.1293 -0.1930  0.2202
22282SOL    HW169288   4.518   2.327   3.526 -0.1014 -0.5734  0.2973
22282SOL    HW269289   4.613   2.337   3.409  0.5448  0.4027  0.8929
22283SOL     OW69290   1.305   8.768   1.056  0.1772  0.0120 -0.0172
22283SOL    HW169291   1.247   8.694   1.038 -0.1881 -0.0049  1.1054
22283SOL    HW269292   1.249   8.845   1.048  0.5214  0.1693 -1.0368
22284SOL     OW69293   6.937   9.073   4.351 -0.3980 -0.1924  0.2401
22284SOL    HW169294   7.031   9.065   4.334 -0.4657 -0.2723 -0.1066
22284SOL    HW269295   6.911   8.989   4.387 -0.2541 -0.0231  0.7485
22285SOL     OW69296   5.763   6.171   6.686 -0.5034 -0.5234  0.0625
22285SOL    HW169297   5.752   6.101   6.622  0.0538 -0.9029  0.3745
22285SOL    HW269298   5.851   6.158   6.721 -0.7102 -0.1748  0.7269
22286SOL     OW69299   4.714   0.030   4.629  0.3805  0.3440 -0.4813
22286SOL    HW169300   4.682   0.069   4.710 -1.5269  0.3828 -1.1918
22286SOL    HW269301   4.758   0.101   4.583 -2.1445  1.5175 -1.2851
22287SOL     OW69302   2.523   1.778   6.004 -0.1424  0.0111  0.2785
22287SOL    HW169303   2.473   1.697   6.010 -0.7843  0.4905  1.9572
22287SOL    HW269304   2.505   1.811   5.916 -0.3029 -1.3856 -0.2289
22288SOL     OW69305   4.753   8.169   7.467 -0.7370  0.4254 -0.2877
22288SOL    HW169306   4.698   8.175   7.545  0.8643 -0.7682  1.0134
22288SOL    HW269307   4.824   8.231   7.483 -0.6283  0.4870 -0.9973
22289SOL     OW69308   6.442   2.968   5.945 -0.0577 -0.0349 -0.0470
22289SOL    HW169309   6.427   2.889   5.892  1.8263 -1.7626  1.8226
22289SOL    HW269310   6.489   3.027   5.887  0.5385 -1.2152 -0.8124
22290SOL     OW69311   0.870   3.566   9.455  0.1350 -0.1242  0.5915
22290SOL    HW169312   0.847   3.647   9.411 -1.5714 -0.2209  1.2315
22290SOL    HW269313   0.924   3.593   9.529  2.2343  0.1116 -0.9494
22291SOL     OW69314   4.967   7.398   7.316  0.0685 -0.1869 -0.3427
22291SOL    HW169315   4.980   7.364   7.405 -0.5249  1.8066  0.5752
22291SOL    HW269316   5.029   7.349   7.262  1.8716 -0.0998  1.5267
22292SOL     OW69317   1.078   4.050   8.328 -0.4701 -0.4530  0.1701
22292SOL    HW169318   1.024   4.044   8.407  0.8239 -1.4960  1.0199
22292SOL    HW269319   1.161   4.086   8.359 -0.7981  1.7234 -1.2158
22293SOL     OW69320   6.487   5.422   3.889  0.2365  0.3689 -0.0283
22293SOL    HW169321   6.410   5.381   3.926 -0.7650  2.2042  0.0258
22293SOL    HW269322   6.556   5.356   3.897 -1.0977 -0.9781  0.7331
22294SOL     OW69323   7.896   8.433   8.227  0.3799  0.4901 -0.4540
22294SOL    HW169324   7.853   8.463   8.148  1.6174  1.0744 -0.9381
22294SOL    HW269325   7.901   8.338   8.218  1.1198  0.6004 -1.4279
22295SOL     OW69326   6.808   1.106   3.070  0.3311 -0.3616 -0.0385
22295SOL    HW169327   6.726   1.091   3.023 -0.4923  4.3053 -0.6254
22295SOL    HW269328   6.784   1.097   3.162  0.1069 -2.3605 -0.2452
22296SOL     OW69329   3.446   1.387  10.295  0.1361  0.4037 -0.0593
22296SOL    HW169330   3.523   1.382  10.351 -0.0019 -0.7217  0.0669
22296SOL    HW269331   3.444   1.303  10.248 -0.1430  1.0354 -1.2358
22297SOL     OW69332   8.849   1.617   7.221 -0.2250  0.4250 -0.5522
22297SOL    HW169333   8.864   1.670   7.299 -1.7982 -0.9110  0.7365
22297SOL    HW269334   8.890   1.666   7.150 -2.0626  3.6868  0.4337
22298SOL     OW69335   5.598   6.348   8.472 -0.0758 -0.0085 -0.3131
22298SOL    HW169336   5.615   6.276   8.411 -0.7523  0.1341 -0.6808
22298SOL    HW269337   5.572   6.305   8.553  3.5578 -0.3347  0.8835
22299SOL     OW69338   4.370   7.759   6.923 -0.5645 -0.3704 -0.2377
22299SOL    HW169339   4.324   7.743   7.005 -1.3862  1.9663 -0.1422
22299SOL    HW269340   4.305   7.803   6.868  0.7960  0.7712 -1.0119
22300SOL     OW69341   1.661   6.543   3.289 -0.2009 -0.0157  0.4464
22300SOL    HW169342   1.720   6.513   3.221 -1.0811  1.2343 -0.9439
22300SOL    HW269343   1.629   6.628   3.257 -1.3208  0.1960  2.0055
22301SOL     OW69344  10.146   7.797   0.169 -0.2696 -0.5411  0.1376
22301SOL    HW169345  10.078   7.738   0.137 -1.4676  0.1758  1.2896
22301SOL    HW269346  10.162   7.768   0.259 -0.7819  0.7834  0.6755
22302SOL     OW69347   3.900   0.758   8.111  0.2444  0.3304 -0.1463
22302SOL    HW169348   3.817   0.729   8.074 -0.1196 -0.4121  1.1686
22302SOL    HW269349   3.914   0.845   8.073 -0.8733  0.2588 -0.7807
22303SOL     OW69350  10.438   0.049   8.242  0.0163 -0.1564  0.4121
22303SOL    HW169351  10.475   0.137   8.241  0.5544 -0.3806  0.1915
22303SOL    HW269352  10.510  -0.007   8.271 -0.1566 -0.5947  0.0070
22304SOL     OW69353   8.718   4.440   5.019 -0.2172 -0.4535  0.3183
22304SOL    HW169354   8.669   4.359   5.030  2.6878 -2.3400  0.3370
22304SOL    HW269355   8.809   4.417   5.040  1.1617  2.2002 -2.0370
22305SOL     OW69356   5.750   6.213   5.064  0.0555 -0.2348 -0.0794
22305SOL    HW169357   5.752   6.248   5.154 -1.7760 -1.3160  0.4321
22305SOL    HW269358   5.677   6.258   5.022  0.2649 -0.4747 -0.7126
22306SOL     OW69359   9.260   7.431   5.073  0.0451  0.9487 -0.2633
22306SOL    HW169360   9.310   7.449   4.993  1.2573 -0.8323  0.0438
22306SOL    HW269361   9.315   7.465   5.143  0.6878 -0.6895  0.0521
22307SOL     OW69362   1.172   0.992   1.889  0.2691  0.9928 -0.8645
22307SOL    HW169363   1.172   0.921   1.825 -0.5769 -1.5313  1.7282
22307SOL    HW269364   1.081   1.002   1.916  0.6238  1.7637  0.1529
22308SOL     OW69365   2.256   2.814   6.222 -0.5715 -0.2977 -0.6838
22308SOL    HW169366   2.220   2.883   6.165 -2.7091  1.6654  2.7266
22308SOL    HW269367   2.301   2.862   6.291  0.8537 -2.5322  0.0135
22309SOL     OW69368   3.635   1.480   2.373 -0.0857  0.5031 -0.0876
22309SOL    HW169369   3.604   1.566   2.403  0.4343  0.6199  0.1232
22309SOL    HW269370   3.712   1.462   2.427 -0.0172  0.0383 -0.3362
22310SOL     OW69371  10.146   9.224   2.192 -0.5401  0.7849  0.7136
22310SOL    HW169372  10.068   9.191   2.146  0.5660  1.2745 -1.6545
22310SOL    HW269373  10.113   9.298   2.243 -1.3756  2.5053 -2.0698
22311SOL     OW69374   7.883   7.283   9.738 -0.1229  0.2460  0.2604
22311SOL    HW169375   7.966   7.330   9.736  1.7789 -2.6811  1.6066
22311SOL    HW269376   7.884   7.228   9.660 -1.3499  0.9523 -0.2803
22312SOL     OW69377   1.242   3.113   0.057 -0.6138 -0.0471 -0.1541
22312SOL    HW169378   1.199   3.039   0.013 -0.6040  0.1410 -0.4844
22312SOL    HW269379   1.174   3.180   0.063 -0.6841 -0.1588  0.3391
22313SOL     OW69380   3.434   3.296   0.090 -0.2730 -0.0996 -0.2687
22313SOL    HW169381   3.458   3.271   0.001  0.4313  2.4028 -0.8717
22313SOL    HW269382   3.365   3.362   0.078 -0.0397  0.4141  1.0123
22314SOL     OW69383   9.414   8.230   0.719  0.4709  0.6829  0.1077
22314SOL    HW169384   9.447   8.237   0.809  0.6655 -1.0900  0.2026
22314SOL    HW269385   9.486   8.260   0.664  0.9895  0.1210  0.4703
22315SOL     OW69386   0.568   5.729   8.508 -0.3161  0.4956 -0.0378
22315SOL    HW169387   0.552   5.777   8.590  2.2314  2.0972 -0.3673
22315SOL    HW269388   0.627   5.786   8.458  0.8017 -1.8827 -1.5925
22316SOL     OW69389   8.554   5.042   0.117 -0.2093 -0.4073 -0.2887
22316SOL    HW169390   8.596   4.967   0.075  2.5176 -1.0804  3.1784
22316SOL    HW269391   8.571   5.029   0.210 -1.2210  3.6381  0.6290
22317SOL     OW69392   3.857   7.991   6.523  0.3018 -0.1492 -0.3726
22317SOL    HW169393   3.861   7.972   6.617  1.3760  0.0121 -0.3720
22317SOL    HW269394   3.829   7.909   6.483 -1.8441  0.2420  0.2203
22318SOL     OW69395   2.762   2.397   2.635 -0.2507 -0.1032  0.3585
22318SOL    HW169396   2.856   2.403   2.652 -0.0671 -0.8487 -0.2973
22318SOL    HW269397   2.739   2.480   2.593  0.1811 -0.0461  0.2333
22319SOL     OW69398   0.940   6.603   1.353  0.6396  0.3251 -0.3896
22319SOL    HW169399   0.974   6.637   1.270 -0.9564  0.1987 -1.1494
22319SOL    HW269400   0.999   6.638   1.420  3.1368 -1.1263 -1.6781
22320SOL     OW69401   3.310   2.542   1.624  0.4947 -0.1208  0.5850
22320SOL    HW169402   3.272   2.611   1.568 -0.5318 -1.4944 -0.4792
22320SOL    HW269403   3.365   2.491   1.565  0.7340 -0.6056  1.2178
22321SOL     OW69404   8.312   4.877   4.524  0.4451  0.2395  0.1724
22321SOL    HW169405   8.251   4.864   4.596 -0.0005 -0.7508 -0.3619
22321SOL    HW269406   8.396   4.895   4.566  0.6856 -2.3817  1.0143
22322SOL     OW69407  10.195   3.633   8.209 -0.1198 -0.0215 -0.5665
22322SOL    HW169408  10.234   3.710   8.248 -1.4256  0.2431  0.2813
22322SOL    HW269409  10.187   3.570   8.281 -0.2374 -0.4783 -0.9703
22323SOL     OW69410   2.637   8.509   1.199 -0.4894  0.0188 -0.8379
22323SOL    HW169411   2.713   8.462   1.165 -0.2320 -0.5395  0.4548
22323SOL    HW269412   2.567   8.444   1.200 -0.3722 -0.1004  0.1150
22324SOL     OW69413   3.046   0.499   0.015 -0.0532 -0.1361  0.1761
22324SOL    HW169414   3.098   0.427  -0.020  1.3080  0.0066  1.7333
22324SOL    HW269415   3.071   0.575  -0.038  1.5597 -0.0254  1.0239
22325SOL     OW69416   1.059   5.295   5.908 -1.0592  0.3504 -0.2488
22325SOL    HW169417   1.044   5.203   5.930 -0.4219 -0.2308 -2.0725
22325SOL    HW269418   0.981   5.321   5.859  0.1444 -0.2632 -2.6371
22326SOL     OW69419   8.153   2.811   0.066 -0.4151  0.1488  0.2150
22326SOL    HW169420   8.110   2.826  -0.018 -1.2532  1.8394  0.9128
22326SOL    HW269421   8.131   2.721   0.089 -0.7094 -0.1209 -1.0527
22327SOL     OW69422  10.421   5.561   7.147 -0.1982 -0.6883 -0.0798
22327SOL    HW169423  10.363   5.490   7.118 -2.0694 -0.2989  2.4197
22327SOL    HW269424  10.362   5.635   7.164  1.4199  0.7129 -0.2670
22328SOL     OW69425   0.548   4.052   1.046 -0.6488  0.1333 -0.2119
22328SOL    HW169426   0.465   4.099   1.039 -1.0546 -0.6900 -1.1291
22328SOL    HW269427   0.535   3.973   0.995 -0.1934 -1.2844  1.7328
22329SOL     OW69428  10.286   7.241   8.762 -0.5172 -0.1743 -0.1506
22329SOL    HW169429  10.299   7.276   8.673  0.9704  0.3611  0.2521
22329SOL    HW269430  10.270   7.148   8.748  2.7016 -0.7483 -0.8942
22330SOL     OW69431  10.232   9.979   3.439 -0.4907 -0.4753 -0.2204
22330SOL    HW169432  10.168   9.979   3.368  0.6005 -0.6423 -1.2362
22330SOL    HW269433  10.192   9.924   3.507 -1.5875 -0.2470 -0.6621
22331SOL     OW69434   8.523   3.948   7.925  0.4314 -0.1809  0.3176
22331SOL    HW169435   8.616   3.929   7.938  0.5218  1.3524  2.3296
22331SOL    HW269436   8.487   3.955   8.013 -1.7529 -1.3176 -0.4237
22332SOL     OW69437   2.158   1.298   1.723 -0.5176  0.0542  0.4285
22332SOL    HW169438   2.179   1.221   1.775  1.1335 -0.1412 -0.4557
22332SOL    HW269439   2.127   1.264   1.639  2.4060  0.2140 -0.8420
22333SOL     OW69440   1.891   3.814   7.392 -0.1825 -0.3942 -0.0622
22333SOL    HW169441   1.808   3.779   7.426  0.8663 -3.2966 -0.2142
22333SOL    HW269442   1.950   3.813   7.467  0.2997 -0.4263 -0.4400
22334SOL     OW69443   4.035   3.667   1.424 -0.1440  0.5472  0.5949
22334SOL    HW169444   4.044   3.756   1.456  0.3548  0.8877 -0.4698
22334SOL    HW269445   4.048   3.673   1.330  1.2796 -0.8393  0.6597
22335SOL     OW69446   0.495   5.636   2.764  0.2473 -0.3980 -0.0655
22335SOL    HW169447   0.430   5.584   2.811  1.3713 -0.3837  1.6174
22335SOL    HW269448   0.447   5.711   2.730 -0.2616  1.0345  3.3891
22336SOL     OW69449   9.063   0.200   2.209  0.2914 -0.1090  0.2103
22336SOL    HW169450   8.978   0.216   2.169 -0.5199  0.9272  2.1957
22336SOL    HW269451   9.087   0.112   2.181  0.6550  1.0537 -3.8757
22337SOL     OW69452   8.842   4.790   3.081  0.2972 -0.4674  0.3028
22337SOL    HW169453   8.782   4.804   3.007 -1.5766 -2.3809  1.3629
22337SOL    HW269454   8.894   4.714   3.056 -0.5879 -1.3423  1.0563
22338SOL     OW69455   2.031   6.997   7.439 -0.0367  0.2267 -0.4956
22338SOL    HW169456   2.054   7.079   7.394 -1.3818  0.9636  0.0998
22338SOL    HW269457   2.082   6.930   7.394  0.8037  1.3410 -1.2535
22339SOL     OW69458   4.379   7.972   3.719  0.2216  0.1507  0.4953
22339SOL    HW169459   4.396   8.039   3.786  0.6293 -1.0476  1.6372
22339SOL    HW269460   4.329   8.018   3.652 -0.0206  1.4592  1.5148
22340SOL     OW69461   5.380  10.197   6.100 -0.6388  0.3760 -0.5916
22340SOL    HW169462   5.346  10.109   6.082  2.6469 -1.2505  0.2861
22340SOL    HW269463   5.326  10.229   6.172 -2.4304 -0.5365 -1.4702
22341SOL     OW69464   1.024   8.822   5.984 -0.6545  0.8918  0.1257
22341SOL    HW169465   0.941   8.782   6.008  0.4284 -2.3037 -0.9272
22341SOL    HW269466   1.050   8.777   5.904  1.4103  2.8634 -0.4161
22342SOL     OW69467   7.553   0.348   0.746 -0.6554 -0.1714 -0.2495
22342SOL    HW169468   7.461   0.330   0.724 -0.8446  0.6003 -0.1140
22342SOL    HW269469   7.574   0.427   0.697 -1.1032  1.6720  2.3248
22343SOL     OW69470   6.001   1.080   4.909 -0.6794 -0.1985 -0.0456
22343SOL    HW169471   5.993   1.002   4.853  0.5407 -1.2460  1.1710
22343SOL    HW269472   6.088   1.072   4.948 -0.5909  1.7352  0.2089
22344SOL     OW69473   8.896   7.158   0.434  0.3404 -0.1769 -0.3349
22344SOL    HW169474   8.948   7.116   0.502  1.6977  0.3490 -1.0108
22344SOL    HW269475   8.845   7.087   0.395 -0.4097 -0.4915  1.1699
22345SOL     OW69476  10.085   8.865   4.731 -0.3313  0.7183  0.0390
22345SOL    HW169477  10.169   8.835   4.766 -0.9261  0.5816  1.3869
22345SOL    HW269478  10.044   8.912   4.803 -1.5949  0.4417 -0.4833
22346SOL     OW69479   8.713   4.703   5.964 -0.2077  0.2749 -0.3438
22346SOL    HW169480   8.784   4.730   6.023 -0.0812  0.6690 -0.6761
22346SOL    HW269481   8.750   4.631   5.913 -0.4715 -0.4006  0.3786
22347SOL     OW69482   1.109   6.100   1.712  0.5608  0.0042 -0.2520
22347SOL    HW169483   1.106   6.020   1.764 -0.7534 -0.3150 -0.7609
22347SOL    HW269484   1.018   6.130   1.709  1.0810  1.7952  0.3182
22348SOL     OW69485   4.536   7.538   6.871 -0.0715  0.3938 -0.2094
22348SOL    HW169486   4.613   7.591   6.851 -0.0491  0.7370  0.7589
22348SOL    HW269487   4.475   7.598   6.913 -0.9111  0.1430 -1.0182
22349SOL     OW69488   2.406   3.327   6.753 -0.5617  0.0111  0.2921
22349SOL    HW169489   2.341   3.258   6.761  0.3563 -0.7696  1.2766
22349SOL    HW269490   2.490   3.281   6.748 -0.0348  1.0028 -0.5986
22350SOL     OW69491   1.583   2.210   8.350 -0.9292 -0.0925  0.3352
22350SOL    HW169492   1.600   2.285   8.293 -0.2465  0.5366  1.3372
22350SOL    HW269493   1.488   2.209   8.361 -0.7985  2.0695  2.1849
22351SOL     OW69494   7.565  10.085   3.227  0.2382 -0.0206 -0.0947
22351SOL    HW169495   7.528  10.009   3.271 -1.0026 -0.0245 -1.0995
22351SOL    HW269496   7.585  10.147   3.298  1.2446 -1.2380  0.7328
22352SOL     OW69497  10.415   8.740   5.295  0.7144 -0.5891  0.3038
22352SOL    HW169498  10.412   8.770   5.386  1.4847  0.7549 -0.0694
22352SOL    HW269499  10.325   8.748   5.263  0.5458 -0.5289  0.7898
22353SOL     OW69500   9.568   0.924   3.352 -0.0264  0.2132  0.0932
22353SOL    HW169501   9.538   0.961   3.270 -1.8144 -1.7092 -0.2003
22353SOL    HW269502   9.663   0.918   3.342 -0.1467  0.6477 -1.5459
22354SOL     OW69503   7.099   1.264   0.009  0.1772 -0.6688  0.2249
22354SOL    HW169504   7.168   1.233  -0.049  0.2187  0.4652 -0.3711
22354SOL    HW269505   7.033   1.301  -0.050 -0.0472 -0.0205  0.8639
22355SOL     OW69506  10.395   6.815   1.341 -0.6187  0.2600 -0.3885
22355SOL    HW169507  10.316   6.764   1.324  0.3527 -0.5000 -2.9694
22355SOL    HW269508  10.379   6.900   1.300 -0.2708  0.2678 -0.5141
22356SOL     OW69509   4.974   6.193   1.511  0.5357 -0.3351 -0.6612
22356SOL    HW169510   4.928   6.275   1.531 -0.2031 -1.2693  1.9747
22356SOL    HW269511   5.002   6.160   1.597  0.7989 -2.8280 -1.6250
22357SOL     OW69512   6.712   5.225   8.591  0.0771  0.0107  0.3928
22357SOL    HW169513   6.786   5.281   8.568 -0.0178  0.2385  0.6361
22357SOL    HW269514   6.696   5.172   8.513 -1.5346  2.1533 -0.8300
22358SOL     OW69515   3.543   1.036   8.900 -0.0503  0.5918 -0.1567
22358SOL    HW169516   3.487   1.042   8.977  0.0097  0.0077 -0.0632
22358SOL    HW269517   3.557   1.127   8.873  1.1267  0.9034  1.3747
22359SOL     OW69518  10.432   4.508   7.714  0.1091  0.2574 -0.4709
22359SOL    HW169519  10.440   4.580   7.776  0.3897  1.6529 -2.0427
22359SOL    HW269520  10.356   4.459   7.745 -1.2420  2.2804 -0.3280
22360SOL     OW69521   6.138   9.068   7.548  0.1990 -0.0925 -0.3367
22360SOL    HW169522   6.166   9.129   7.480  0.4088 -0.5118 -0.6291
22360SOL    HW269523   6.111   8.990   7.500 -1.6717  0.3455 -0.0999
22361SOL     OW69524   4.950   0.100   6.777 -0.1342 -0.1667  0.0633
22361SOL    HW169525   4.915   0.023   6.820 -0.8806 -0.5316 -1.1360
22361SOL    HW269526   5.042   0.081   6.764 -0.3509 -0.9413 -0.3789
22362SOL     OW69527   5.044   5.913   4.989 -0.0110  0.0353 -0.0981
22362SOL    HW169528   5.109   5.883   5.052 -0.6467 -0.9298  0.1158
22362SOL    HW269529   4.973   5.949   5.042 -0.1477  0.0651 -0.2986
22363SOL     OW69530   0.396   5.442  10.366 -0.0420  0.2711 -0.3168
22363SOL    HW169531   0.383   5.384  10.441 -1.1227 -0.1518 -0.8122
22363SOL    HW269532   0.474   5.407  10.322  2.4059  2.2256  2.1429
22364SOL     OW69533   6.332   1.493   8.616  0.6536 -0.5102 -0.2023
22364SOL    HW169534   6.373   1.532   8.693 -0.0362 -3.6315  1.9429
22364SOL    HW269535   6.252   1.544   8.604  0.1613 -0.6679  1.9467
22365SOL     OW69536   6.891   8.941   1.110 -0.0142  0.0791 -0.2931
22365SOL    HW169537   6.831   9.015   1.114 -1.9415 -1.4364  0.7316
22365SOL    HW269538   6.974   8.979   1.081 -0.3333  2.9852  2.0943
22366SOL     OW69539   2.496   9.348   5.599 -0.1634  0.0795  0.9512
22366SOL    HW169540   2.546   9.410   5.545  0.7866 -0.8189  0.7483
22366SOL    HW269541   2.501   9.383   5.687 -0.4413  0.7837  0.6903
22367SOL     OW69542   4.084  10.079   0.611 -0.7291  0.1127 -0.3314
22367SOL    HW169543   4.114  10.075   0.520  0.9008 -0.6767  0.1892
22367SOL    HW269544   4.040   9.995   0.625  0.4953 -0.4932  0.0475
22368SOL     OW69545   5.735   0.435   0.736  0.4369 -0.0947 -0.7320
22368SOL    HW169546   5.744   0.389   0.820  0.8252  0.6813 -0.3393
22368SOL    HW269547   5.752   0.526   0.757 -2.6152  0.6683 -1.0198
22369SOL     OW69548   7.568   6.691   7.064 -0.8265 -0.1934 -0.6376
22369SOL    HW169549   7.554   6.661   6.974 -0.1058  2.8873 -1.8805
22369SOL    HW269550   7.566   6.786   7.059  2.8160  0.2347  1.9736
22370SOL     OW69551   0.758   0.596   1.881  0.4342  0.3896 -0.2372
22370SOL    HW169552   0.679   0.566   1.836 -0.4015 -0.7952  1.8348
22370SOL    HW269553   0.737   0.685   1.910 -0.6542 -0.2835  1.2214
22371SOL     OW69554   4.396   4.463  10.199  0.0768  0.1519  0.5564
22371SOL    HW169555   4.365   4.545  10.160  1.8310  0.5836 -0.0061
22371SOL    HW269556   4.406   4.404  10.125 -0.1431 -0.2362  0.8345
22372SOL     OW69557   6.920   4.384   7.338 -0.0650  0.7214 -0.8422
22372SOL    HW169558   6.872   4.302   7.333 -0.2038  0.7346  0.1254
22372SOL    HW269559   7.012   4.358   7.343 -0.0018  0.6771 -1.9031
22373SOL     OW69560   5.031   3.917   8.595 -0.3317 -0.3092 -0.0871
22373SOL    HW169561   5.106   3.876   8.639 -1.0440 -0.6717  0.8358
22373SOL    HW269562   4.997   3.849   8.537  0.0740 -0.1310 -0.5364
22374SOL     OW69563   0.183   1.393   6.244  0.7000 -0.0737  0.0256
22374SOL    HW169564   0.181   1.415   6.338 -0.3522  0.7228 -0.1617
22374SOL    HW269565   0.220   1.470   6.202 -1.3188  0.7099 -0.4536
22375SOL     OW69566   2.314   1.637   6.696 -1.0635 -0.5552 -0.1204
22375SOL    HW169567   2.360   1.721   6.695 -0.4430 -0.8496  1.0510
22375SOL    HW269568   2.384   1.572   6.688 -1.3359 -0.9941  0.9642
22376SOL     OW69569   9.650   0.670   3.768 -0.3812  0.3784 -0.2171
22376SOL    HW169570   9.703   0.730   3.715  0.2430 -0.2561 -0.3135
22376SOL    HW269571   9.621   0.603   3.707 -0.4597  0.1712  0.0466
22377SOL     OW69572   4.591   5.175   6.009  0.2056  0.4777 -0.4871
22377SOL    HW169573   4.653   5.248   6.014 -0.3079  0.8463  1.1814
22377SOL    HW269574   4.595   5.134   6.096 -2.3111  0.9043 -0.0932
22378SOL     OW69575   5.976   2.820   9.739 -0.3935  0.3561  0.1237
22378SOL    HW169576   6.047   2.766   9.775  0.1295  1.9822  1.6820
22378SOL    HW269577   5.909   2.757   9.714  0.8038 -1.1119  0.4179
22379SOL     OW69578   7.224   3.497   8.744 -0.2935  0.3337 -0.0816
22379SOL    HW169579   7.316   3.517   8.728 -0.7674  1.3961 -1.7594
22379SOL    HW269580   7.198   3.555   8.815  0.2315  0.3303  0.1133
22380SOL     OW69581   3.280   3.644   2.055 -0.0331 -0.5696  0.0308
22380SOL    HW169582   3.289   3.549   2.068 -1.6772 -1.1572 -2.3173
22380SOL    HW269583   3.327   3.661   1.973 -0.5105  0.4724 -0.0462
22381SOL     OW69584   6.453   4.968   4.279  0.4649  0.0037 -0.5239
22381SOL    HW169585   6.468   5.000   4.190 -1.2263  0.1767 -0.7799
22381SOL    HW269586   6.462   5.046   4.334  0.1505  0.1673 -0.7040
22382SOL     OW69587   6.313   3.007   0.279 -0.0908  0.3349  0.3415
22382SOL    HW169588   6.230   3.012   0.326  0.3314  2.3982  0.9662
22382SOL    HW269589   6.379   3.001   0.348  0.3458 -0.1383 -0.1132
22383SOL     OW69590   0.183   8.457   2.959 -0.3672 -0.6716  0.0031
22383SOL    HW169591   0.220   8.427   3.042 -0.9071  0.2651  0.6005
22383SOL    HW269592   0.141   8.541   2.980  0.0267 -0.1109 -1.3451
22384SOL     OW69593   6.542   1.759   6.288  0.0389 -0.1889  0.2599
22384SOL    HW169594   6.494   1.755   6.205  0.3492 -1.1388  0.1158
22384SOL    HW269595   6.586   1.844   6.286  3.0266 -1.5979 -2.2778
22385SOL     OW69596   2.812   8.299   2.019  0.0902 -0.0121 -0.1883
22385SOL    HW169597   2.737   8.358   2.007 -0.1450  0.3970  2.5845
22385SOL    HW269598   2.779   8.230   2.077  1.8598  0.2952  1.2858
22386SOL     OW69599   9.598   2.955   2.445 -0.0246  0.1801 -0.3122
22386SOL    HW169600   9.561   2.934   2.359  1.7495  1.5593 -1.5070
22386SOL    HW269601   9.523   2.960   2.504 -1.1794 -2.0059 -1.4904
22387SOL     OW69602   2.410   1.501  10.032  0.0618  0.1198  0.0689
22387SOL    HW169603   2.484   1.504   9.971 -0.0311  0.3973 -0.0297
22387SOL    HW269604   2.448   1.470  10.114 -0.2342 -2.6666 -0.7513
22388SOL     OW69605   7.771   9.202   4.253  0.4054  0.1243 -0.0864
22388SOL    HW169606   7.821   9.122   4.236 -1.8833 -1.2802 -0.7330
22388SOL    HW269607   7.799   9.263   4.184  0.9418 -0.7550 -0.6715
22389SOL     OW69608  10.395   0.291   4.974 -0.2827 -0.1043  0.2353
22389SOL    HW169609  10.350   0.228   4.917 -1.8775  1.3322 -0.1890
22389SOL    HW269610  10.438   0.237   5.040  0.3104 -1.7340 -1.3983
22390SOL     OW69611   3.399   2.707   0.882 -0.1596 -0.4243 -0.6549
22390SOL    HW169612   3.468   2.714   0.816  0.9486 -1.1257  0.3990
22390SOL    HW269613   3.352   2.627   0.859  0.0853 -0.5493 -0.7257
22391SOL     OW69614   7.976   1.898   5.040  0.4112 -0.1479  0.2844
22391SOL    HW169615   8.007   1.853   5.118 -0.9859 -1.8688 -0.0926
22391SOL    HW269616   7.948   1.984   5.071 -0.5086 -0.9489  1.7702
22392SOL     OW69617   8.095   4.046   5.032  0.2958 -0.1290 -0.2306
22392SOL    HW169618   8.025   3.990   5.067  0.2007 -0.1258 -0.4164
22392SOL    HW269619   8.157   3.984   4.994  0.3151 -0.1214 -0.2122
22393SOL     OW69620   3.348   0.391   5.325 -0.1171  0.2252 -0.3668
22393SOL    HW169621   3.439   0.403   5.297 -0.3207 -0.2686 -1.2448
22393SOL    HW269622   3.355   0.376   5.420  0.7167  0.1076 -0.4365
22394SOL     OW69623   2.612   4.135   7.457 -0.4393  0.9810 -0.1625
22394SOL    HW169624   2.623   4.191   7.534  0.4128  2.3966 -1.2588
22394SOL    HW269625   2.530   4.164   7.417  0.0340  1.5396 -0.7646
22395SOL     OW69626   4.836   4.094   6.441 -0.2122 -0.6547 -0.7049
22395SOL    HW169627   4.822   4.184   6.410 -1.9994 -0.9098 -0.7566
22395SOL    HW269628   4.884   4.105   6.523 -2.0960  0.5404  0.3342
22396SOL     OW69629   2.757   5.486   3.588 -0.1736 -0.5539  0.1864
22396SOL    HW169630   2.666   5.464   3.567 -0.5484  2.1849 -1.5184
22396SOL    HW269631   2.751   5.545   3.663  0.1939 -0.3344  0.0434
22397SOL     OW69632   7.926   3.425   5.228 -0.6703 -0.5004 -0.3373
22397SOL    HW169633   7.833   3.441   5.215 -0.3029  0.4473 -1.9784
22397SOL    HW269634   7.938   3.334   5.201 -0.7955 -0.0217 -2.1147
22398SOL     OW69635   6.746   2.815   5.420 -0.7650  0.1090  0.4217
22398SOL    HW169636   6.718   2.740   5.472  0.9518 -0.2104  0.9449
22398SOL    HW269637   6.672   2.833   5.362 -2.0815 -0.5692  1.8229
22399SOL     OW69638   2.196   6.479  10.487  0.1567 -0.2673 -0.3795
22399SOL    HW169639   2.239   6.423  10.423 -2.0490  0.3147 -2.5463
22399SOL    HW269640   2.131   6.422  10.528  0.3742 -0.2012  0.0539
22400SOL     OW69641   4.220   4.839   8.204 -0.5010 -0.4697  0.1359
22400SOL    HW169642   4.188   4.796   8.125 -1.0818 -0.8691  0.5783
22400SOL    HW269643   4.241   4.768   8.264  0.6706 -0.1957  0.0850
22401SOL     OW69644   0.939   8.649   3.438 -0.2497 -0.1020  0.1326
22401SOL    HW169645   0.957   8.558   3.462 -1.8397 -0.0562  1.6991
22401SOL    HW269646   0.851   8.666   3.472 -0.8106  1.4281 -1.8939
22402SOL     OW69647   9.404  10.352   8.742 -0.4153  0.1141 -0.2714
22402SOL    HW169648   9.479  10.293   8.752 -0.8207 -0.2210  1.0246
22402SOL    HW269649   9.417  10.392   8.656 -0.1923 -1.9527 -1.2756
22403SOL     OW69650   5.710   2.661   9.683  0.3239  0.2803 -0.5666
22403SOL    HW169651   5.678   2.725   9.620 -0.8428 -0.4543 -0.7447
22403SOL    HW269652   5.641   2.656   9.749  0.3482 -0.8602 -0.6083
22404SOL     OW69653   3.396   3.028   1.180  0.2475  0.1508  0.4159
22404SOL    HW169654   3.341   3.106   1.173 -2.4617 -1.5052  1.3864
22404SOL    HW269655   3.480   3.060   1.212 -1.0653  2.5738  1.7595
22405SOL     OW69656   5.357   9.679   7.440 -0.3114 -0.1769  0.5906
22405SOL    HW169657   5.423   9.676   7.510 -0.9095  0.6549  1.2081
22405SOL    HW269658   5.284   9.627   7.474 -0.7332  0.4961  0.7375
22406SOL     OW69659   9.696   0.735   1.666  0.4823 -0.4256  0.1882
22406SOL    HW169660   9.775   0.776   1.701 -0.5184  0.6069  1.3650
22406SOL    HW269661   9.677   0.786   1.586  1.1891 -0.9195 -0.3060
22407SOL     OW69662   5.869  10.354   6.418 -0.4539 -0.3434  0.8486
22407SOL    HW169663   5.797  10.352   6.354  0.0985 -1.6623  0.2317
22407SOL    HW269664   5.939  10.401   6.373  0.2795 -2.0985  0.0351
22408SOL     OW69665  10.343   8.785   4.774  0.2938  0.3244 -0.2618
22408SOL    HW169666  10.402   8.758   4.845 -2.0399  0.1898  1.7417
22408SOL    HW269667  10.318   8.704   4.731  1.4198  0.3770 -1.0885
22409SOL     OW69668   1.615   2.146   4.170  0.0460  0.0205 -0.3134
22409SOL    HW169669   1.562   2.222   4.146  0.1969  0.1746 -0.1555
22409SOL    HW269670   1.626   2.098   4.088  0.5769  0.5585 -0.5616
22410SOL     OW69671   4.574   8.120   2.406  0.5841  0.2426 -0.3730
22410SOL    HW169672   4.648   8.166   2.445  0.2462  0.3596  0.1354
22410SOL    HW269673   4.558   8.165   2.324 -0.2294  1.5344  0.4627
22411SOL     OW69674   6.677   3.278   4.601 -0.3531 -0.5834 -0.0754
22411SOL    HW169675   6.690   3.223   4.524  1.6261 -0.7386  0.3060
22411SOL    HW269676   6.756   3.331   4.607  0.4120 -1.8301  2.8046
22412SOL     OW69677   0.429   9.814   2.658 -0.5348  0.1909  0.1939
22412SOL    HW169678   0.487   9.856   2.722 -0.6124  2.8322 -1.3300
22412SOL    HW269679   0.486   9.793   2.584 -0.6365 -1.9229  0.6513
22413SOL     OW69680   9.515   9.482   6.307 -0.1225  0.2485 -0.0354
22413SOL    HW169681   9.602   9.475   6.344  0.8479  1.4052 -1.9184
22413SOL    HW269682   9.502   9.399   6.260 -0.9527 -0.8026  1.9530
22414SOL     OW69683   9.388   0.439   5.460  0.6159 -0.3082  0.3257
22414SOL    HW169684   9.301   0.454   5.496  1.2437 -0.1576  1.8861
22414SOL    HW269685   9.445   0.499   5.509  1.5381 -0.0890 -0.9586
22415SOL     OW69686   2.581   5.937   0.262 -0.1386  0.2948 -0.2862
22415SOL    HW169687   2.635   5.888   0.324 -0.8345  0.4091  0.4359
22415SOL    HW269688   2.565   6.021   0.306  0.8116  1.0751 -1.3855
22416SOL     OW69689   8.927   5.560   8.572  0.2010  0.0618  0.0523
22416SOL    HW169690   9.016   5.532   8.549  0.8189  2.3860 -0.6843
22416SOL    HW269691   8.934   5.589   8.663 -0.3367 -1.6541  0.6754
22417SOL     OW69692   8.927   7.881  10.234  0.1943 -0.9723 -0.3553
22417SOL    HW169693   8.855   7.884  10.297  1.6468 -0.3086  1.3472
22417SOL    HW269694   8.907   7.951  10.171 -0.3911 -0.4588  0.3880
22418SOL     OW69695   2.615   7.931   4.020 -0.3312  0.0928 -0.1751
22418SOL    HW169696   2.546   7.928   3.953 -1.1668 -0.2726  0.6749
22418SOL    HW269697   2.640   8.023   4.023  0.6465 -0.0750 -1.8803
22419SOL     OW69698   9.788   9.299   6.389  0.0402  0.0616 -0.3634
22419SOL    HW169699   9.811   9.374   6.333 -0.7143 -0.3148 -1.1971
22419SOL    HW269700   9.752   9.234   6.329  0.4585 -0.8904  0.3880
22420SOL     OW69701   6.231   8.742   4.652  0.1057  0.1072  0.3082
22420SOL    HW169702   6.302   8.680   4.635  0.0187  0.4328 -1.4568
22420SOL    HW269703   6.157   8.709   4.600 -0.5424  0.6465  0.8602
22421SOL     OW69704   7.209   2.079  10.201 -0.3044 -0.3256 -0.1785
22421SOL    HW169705   7.289   2.132  10.199  0.1246 -0.9637 -2.1025
22421SOL    HW269706   7.153   2.124  10.264  0.4027  1.8819 -1.0002
22422SOL     OW69707   4.934   6.641   7.121  0.7272 -0.1671  0.5666
22422SOL    HW169708   4.919   6.552   7.152  1.1688 -0.8496 -1.0985
22422SOL    HW269709   5.029   6.652   7.125  1.1839 -1.3407 -3.0701
22423SOL     OW69710   4.627   2.001   1.214 -0.3578  0.4824  0.3697
22423SOL    HW169711   4.611   1.995   1.120 -0.5217  0.9965  0.3615
22423SOL    HW269712   4.557   1.950   1.254  0.0468 -0.2332  0.1990
22424SOL     OW69713   0.456   3.661   2.117 -0.0640 -0.1758 -0.1953
22424SOL    HW169714   0.473   3.706   2.034 -1.0933 -0.2008 -0.4385
22424SOL    HW269715   0.445   3.569   2.092  0.9462 -0.4013  0.1564
22425SOL     OW69716   9.068   6.733   9.285  0.6963  0.2896  0.3154
22425SOL    HW169717   9.156   6.748   9.319  2.0556  0.1239 -2.7968
22425SOL    HW269718   9.050   6.809   9.230 -0.0577 -0.7846 -0.9917
22426SOL     OW69719   5.000   7.568   6.826 -0.1162  0.1582  0.4171
22426SOL    HW169720   5.049   7.486   6.825  0.1944  0.3431  0.5472
22426SOL    HW269721   5.045   7.623   6.890  0.9674  1.2227 -1.2116
22427SOL     OW69722   5.855   0.428   9.918  0.1015 -0.4299  0.1128
22427SOL    HW169723   5.948   0.413   9.938  0.1524  0.7022  0.7751
22427SOL    HW269724   5.820   0.340   9.900  0.7130 -1.1811  2.3417
22428SOL     OW69725   9.931   9.142   2.931 -0.3385  0.6005  0.3006
22428SOL    HW169726   9.930   9.211   2.998  3.6946 -0.2359  1.5374
22428SOL    HW269727   9.909   9.062   2.978 -0.1876  0.3763 -0.0072
22429SOL     OW69728   8.151   6.742   2.490 -0.2914 -0.3110  0.4708
22429SOL    HW169729   8.098   6.665   2.470 -0.9249  0.4039 -0.7264
22429SOL    HW269730   8.088   6.813   2.500  0.3930  0.5229 -0.8170
22430SOL     OW69731   8.232  10.256   6.876  0.4014  0.1458  0.1554
22430SOL    HW169732   8.216  10.333   6.931  0.4121 -1.2600  2.2564
22430SOL    HW269733   8.170  10.191   6.908  1.0956 -1.0642 -0.8668
22431SOL     OW69734   5.791   7.769   9.975  0.3570 -0.2419 -0.1622
22431SOL    HW169735   5.720   7.732   9.922  0.2454  0.3323 -0.4163
22431SOL    HW269736   5.849   7.810   9.912  0.6623 -0.2796  0.0932
22432SOL     OW69737   0.876   2.236   0.449  0.4924 -0.4099  0.2829
22432SOL    HW169738   0.786   2.243   0.416  0.9506 -1.6133 -1.3802
22432SOL    HW269739   0.888   2.315   0.502 -1.7783 -0.6090  1.2017
22433SOL     OW69740   8.240   8.923   6.495  0.1178 -0.1729 -0.6676
22433SOL    HW169741   8.151   8.897   6.519  0.3215 -0.2727  0.0007
22433SOL    HW269742   8.271   8.851   6.439  0.7061 -1.4756  1.2457
22434SOL     OW69743   9.667   4.279   0.529 -0.3636 -0.3981  0.7217
22434SOL    HW169744   9.600   4.347   0.530 -1.7482 -1.7046  0.9191
22434SOL    HW269745   9.744   4.320   0.567 -0.8661  1.3249 -0.0308
22435SOL     OW69746  10.248   3.358   1.111  0.0085 -0.1637 -0.2234
22435SOL    HW169747  10.161   3.345   1.073  0.5173 -1.5553 -0.9854
22435SOL    HW269748  10.233   3.418   1.184 -1.6717 -0.7748 -0.0184
22436SOL     OW69749   3.917   4.884   4.934 -0.1223  0.3368 -0.5119
22436SOL    HW169750   3.866   4.859   4.857 -0.7245  0.3459 -0.1237
22436SOL    HW269751   3.974   4.809   4.950 -1.8342 -0.8069  0.5764
22437SOL     OW69752   8.590   9.089   6.180 -0.0088 -0.6074  0.3109
22437SOL    HW169753   8.532   9.019   6.148  1.5772 -1.5187 -0.7202
22437SOL    HW269754   8.664   9.087   6.120 -0.1228  2.3354 -0.0367
22438SOL     OW69755   1.301   5.279   2.861 -0.2228  0.6996 -0.5057
22438SOL    HW169756   1.232   5.343   2.881 -0.0601  0.6236  0.3315
22438SOL    HW269757   1.257   5.195   2.866 -0.1461  0.6709 -0.2891
22439SOL     OW69758   3.325   3.635   9.299  0.0551  0.0138  0.9075
22439SOL    HW169759   3.369   3.635   9.214 -0.4412 -0.1054  0.6401
22439SOL    HW269760   3.363   3.708   9.346 -0.8637  1.1817 -0.0776
22440SOL     OW69761   3.485   2.756   2.922 -0.1266  0.8507  0.0677
22440SOL    HW169762   3.440   2.672   2.934  1.4665  0.0286  0.6787
22440SOL    HW269763   3.514   2.755   2.831  0.2697  0.5133  0.1917
22441SOL     OW69764   7.547   2.545   3.770  0.7421 -0.0011  0.1835
22441SOL    HW169765   7.539   2.572   3.861 -0.6848  1.1621 -0.2374
22441SOL    HW269766   7.463   2.503   3.750 -0.4450  2.9107 -1.5214
22442SOL     OW69767   0.089   5.326   5.984 -0.3120 -0.1044 -0.1632
22442SOL    HW169768   0.183   5.328   5.967  0.1114 -2.3760  1.4214
22442SOL    HW269769   0.050   5.366   5.906  1.9575  1.4892 -0.5889
22443SOL     OW69770   5.735   9.264   2.546 -0.2951  0.5329  0.3949
22443SOL    HW169771   5.665   9.317   2.584 -0.6078  0.2809  0.1712
22443SOL    HW269772   5.802   9.327   2.521 -0.1292  0.7155  1.2685
22444SOL     OW69773   9.210   8.589   4.545  0.2354 -0.3136  0.0927
22444SOL    HW169774   9.264   8.592   4.624  0.6957  0.5646 -0.2481
22444SOL    HW269775   9.142   8.654   4.560 -0.2110 -0.7739  0.1282
22445SOL     OW69776   1.022   9.232   7.086 -0.5122  0.0946 -0.3900
22445SOL    HW169777   1.059   9.219   7.173 -0.4732  2.4039 -0.0002
22445SOL    HW269778   0.927   9.227   7.099 -0.5247  1.0240 -0.0933
22446SOL     OW69779   1.233  10.224   2.342  0.0544 -0.7199  0.1272
22446SOL    HW169780   1.289  10.210   2.418  1.2256  1.1476 -0.3422
22446SOL    HW269781   1.154  10.265   2.378  0.3357 -0.4231  0.4120
22447SOL     OW69782   9.717   7.372   3.762 -0.0821  0.5151 -0.4739
22447SOL    HW169783   9.807   7.348   3.742 -0.1109  0.9535 -1.1821
22447SOL    HW269784   9.679   7.294   3.802  0.9911  0.7801  1.1198
22448SOL     OW69785   5.619   8.505   5.009  0.1484  0.0986 -0.2429
22448SOL    HW169786   5.554   8.482   5.075 -0.5958 -0.6498 -1.2069
22448SOL    HW269787   5.570   8.509   4.927  1.2370 -0.0930 -0.9294
22449SOL     OW69788   7.613   6.228   9.241 -0.3312  0.1427 -0.8552
22449SOL    HW169789   7.695   6.240   9.289  0.3434  1.1709 -2.1787
22449SOL    HW269790   7.588   6.137   9.258  1.8188 -0.6355 -1.4562
22450SOL     OW69791   7.724   3.814   7.307 -0.0722  0.2174 -0.0034
22450SOL    HW169792   7.686   3.768   7.382 -2.2097  0.7764 -0.6695
22450SOL    HW269793   7.762   3.894   7.345 -0.9387  0.3910  0.5520
22451SOL     OW69794   2.141   9.547   2.429  0.3320  0.2958 -0.3860
22451SOL    HW169795   2.073   9.529   2.364 -0.1469  2.0249 -0.4120
22451SOL    HW269796   2.213   9.585   2.378  1.2307 -1.2277 -0.3141
22452SOL     OW69797   5.066   2.164   9.738  0.8930 -0.4371  0.4294
22452SOL    HW169798   5.156   2.137   9.721  0.7063 -1.2317  0.6654
22452SOL    HW269799   5.065   2.258   9.721  2.1163 -0.1447  1.8125
22453SOL     OW69800  10.066   3.774   6.224  0.0125  0.1020  0.4007
22453SOL    HW169801  10.043   3.839   6.158 -2.4231  0.0577  1.1035
22453SOL    HW269802  10.143   3.810   6.269 -0.6277  1.9742  0.0685
22454SOL     OW69803   1.262   1.467   8.234  0.3765 -0.0330 -0.0462
22454SOL    HW169804   1.230   1.547   8.276  0.6676 -0.1164  0.3420
22454SOL    HW269805   1.333   1.437   8.292  1.0976  0.1042 -0.8430
22455SOL     OW69806   1.959   3.492   7.496 -0.0091 -0.4053  0.1717
22455SOL    HW169807   2.006   3.513   7.415 -1.0922  1.1683 -0.1034
22455SOL    HW269808   1.879   3.449   7.466 -0.6489  0.6274  0.3276
22456SOL     OW69809   6.668   7.627   4.359 -0.0885  0.1915 -0.0500
22456SOL    HW169810   6.591   7.676   4.332  0.1574 -0.0270 -1.2043
22456SOL    HW269811   6.633   7.552   4.407 -0.7746 -1.0778 -2.3698
22457SOL     OW69812   5.563   8.210   5.527  0.0860  0.5316  0.5522
22457SOL    HW169813   5.655   8.216   5.500  0.3624  0.0202  1.3296
22457SOL    HW269814   5.525   8.146   5.467  0.1928  0.8735  0.1167
22458SOL     OW69815   3.618   6.557   6.533 -0.1044 -0.5949 -0.1545
22458SOL    HW169816   3.639   6.593   6.446 -0.8772  0.3589  0.0341
22458SOL    HW269817   3.703   6.530   6.568  0.1936 -1.2227 -1.3008
22459SOL     OW69818   3.334   2.858   5.548 -0.1024 -0.0545  0.0577
22459SOL    HW169819   3.407   2.872   5.487  1.7243 -1.2456  1.8400
22459SOL    HW269820   3.362   2.900   5.629 -2.3114  1.1657  0.2548
22460SOL     OW69821   8.882   1.097   9.866  0.6100  0.0845  0.2547
22460SOL    HW169822   8.858   1.167   9.927  0.5081  0.8676 -0.6626
22460SOL    HW269823   8.799   1.060   9.837  0.6312  0.2073  0.0348
22461SOL     OW69824   7.756   4.917   9.015 -0.0945  0.4311  0.7371
22461SOL    HW169825   7.736   4.996   8.965  0.1750 -0.6816 -1.2043
22461SOL    HW269826   7.670   4.883   9.041 -0.5307 -0.8722 -2.0818
22462SOL     OW69827   6.400   9.178   3.111  0.0283  0.1858 -0.0811
22462SOL    HW169828   6.361   9.177   3.024  0.7493 -0.5543 -0.4064
22462SOL    HW269829   6.483   9.133   3.101  0.6182  1.0448  0.7698
22463SOL     OW69830   1.459   2.311   9.049  0.0454  0.0111  0.0180
22463SOL    HW169831   1.505   2.387   9.085  0.1261 -0.4800  0.9847
22463SOL    HW269832   1.368   2.324   9.075 -0.3797  0.8967 -1.7501
22464SOL     OW69833   9.991   7.427   5.844  0.6182  0.1660 -0.2368
22464SOL    HW169834  10.016   7.357   5.784  0.9802 -0.1513  0.2767
22464SOL    HW269835   9.899   7.410   5.865  0.6638 -0.0656 -0.2315
22465SOL     OW69836   2.467   9.670   1.283  0.0188 -0.0748  0.0404
22465SOL    HW169837   2.511   9.658   1.199  1.3505 -2.0509  0.9443
22465SOL    HW269838   2.516   9.739   1.327  0.7202 -0.5773  0.0599
22466SOL     OW69839   7.780   3.961   3.133  0.0161  0.0510 -0.0111
22466SOL    HW169840   7.737   3.919   3.058 -0.2910  1.7268 -0.8272
22466SOL    HW269841   7.776   3.896   3.202 -0.7585 -1.1178 -1.1034
22467SOL     OW69842   2.546   1.212   8.217 -0.0313 -0.0567 -0.1486
22467SOL    HW169843   2.463   1.179   8.251  0.0142  1.2338  1.3239
22467SOL    HW269844   2.528   1.303   8.193 -0.1123 -0.9278 -3.9367
22468SOL     OW69845   2.754   7.811   5.011  0.2088  0.1761 -0.3510
22468SOL    HW169846   2.669   7.826   5.053 -0.6310 -3.7629 -0.3094
22468SOL    HW269847   2.733   7.794   4.919  1.3083  1.7611 -0.9424
22469SOL     OW69848   3.205   7.994   5.322 -0.3814  0.3248 -0.4785
22469SOL    HW169849   3.154   8.047   5.383 -2.1945 -2.0678  0.2707
22469SOL    HW269850   3.145   7.975   5.250  0.7384  0.5663 -1.5056
22470SOL     OW69851   3.650   6.686   7.841  0.0754  0.4336 -0.2131
22470SOL    HW169852   3.695   6.606   7.868  0.9701 -0.2912 -3.3684
22470SOL    HW269853   3.719   6.751   7.835 -0.2167  0.7572 -0.0666
22471SOL     OW69854   1.925   4.666  10.301  0.2826  0.1236 -0.4076
22471SOL    HW169855   1.987   4.623  10.361  0.3392 -0.4238 -0.8505
22471SOL    HW269856   1.928   4.613  10.222  0.0885  0.7518 -0.8432
22472SOL     OW69857   3.063   2.193   8.782 -0.2254  0.4907 -0.1596
22472SOL    HW169858   3.046   2.233   8.696 -0.7430  0.4937 -0.0603
22472SOL    HW269859   3.018   2.251   8.844 -1.4594 -0.5333 -0.0606
22473SOL     OW69860   6.575   0.025   4.230 -0.3857  0.0905 -0.1494
22473SOL    HW169861   6.656   0.058   4.269 -0.0775  0.3888 -1.0345
22473SOL    HW269862   6.554   0.087   4.161 -0.1393 -1.2108 -1.4328
22474SOL     OW69863  10.223   0.819   4.114 -0.1555  0.2729 -0.1362
22474SOL    HW169864  10.163   0.874   4.062 -0.6725  0.6618  0.8526
22474SOL    HW269865  10.278   0.882   4.161  1.3984 -0.0714 -1.3852
22475SOL     OW69866   6.212   0.220   5.024 -0.0809  0.2810  0.1955
22475SOL    HW169867   6.215   0.292   5.087  0.9348 -0.4543  1.0250
22475SOL    HW269868   6.171   0.148   5.072 -0.1656  0.0007 -0.2924
22476SOL     OW69869   4.854   5.124   1.700 -0.7600 -0.0075  0.3457
22476SOL    HW169870   4.898   5.105   1.783 -0.8636  1.1587  0.6904
22476SOL    HW269871   4.819   5.212   1.712 -0.0040  0.5344 -1.2783
22477SOL     OW69872   9.470   0.008   8.514 -0.2428 -0.1828 -0.2975
22477SOL    HW169873   9.520   0.087   8.495 -1.2030  0.3947 -0.4580
22477SOL    HW269874   9.518  -0.062   8.471  1.2070  0.1378  0.7246
22478SOL     OW69875   1.165   5.283   0.960  0.3095 -0.4651  0.5366
22478SOL    HW169876   1.221   5.342   0.909  0.7370 -0.8358  0.5776
22478SOL    HW269877   1.225   5.237   1.018 -0.3059  1.0244  2.4700
22479SOL     OW69878   0.058   4.356   9.017  0.3070 -0.9881 -0.3779
22479SOL    HW169879   0.049   4.297   8.942 -2.5607  1.4183 -2.1828
22479SOL    HW269880   0.116   4.426   8.986 -0.2968 -0.3628 -0.1361
22480SOL     OW69881   2.829   9.320   6.838 -0.3851 -0.1165  0.1848
22480SOL    HW169882   2.767   9.304   6.909 -0.7078  1.1899  0.2151
22480SOL    HW269883   2.892   9.382   6.874 -1.0630  1.2645 -0.9301
22481SOL     OW69884   6.607   6.555   7.844  0.1121 -0.3292  0.0120
22481SOL    HW169885   6.677   6.593   7.791  0.4238 -0.9902 -0.0691
22481SOL    HW269886   6.544   6.520   7.780 -1.5698  2.4030  0.0338
22482SOL     OW69887   3.456   6.701   5.377 -0.6034 -0.4660  0.1872
22482SOL    HW169888   3.535   6.682   5.326  0.5842  0.3971  1.6184
22482SOL    HW269889   3.418   6.777   5.335 -0.2681 -0.4410 -0.0815
22483SOL     OW69890   4.293   1.635   9.660  0.2703 -0.1032 -0.8538
22483SOL    HW169891   4.296   1.706   9.723 -1.8099 -1.0498  0.4009
22483SOL    HW269892   4.385   1.617   9.640  1.1487 -0.7745  3.0720
22484SOL     OW69893   4.273   0.728   5.015 -0.1938 -0.3083  0.0573
22484SOL    HW169894   4.316   0.764   5.092 -0.3059  0.9015 -0.4181
22484SOL    HW269895   4.335   0.663   4.981  0.5971  0.3350  0.2300
22485SOL     OW69896  10.058   9.901   9.252 -0.0954 -0.2106 -0.3828
22485SOL    HW169897  10.001   9.953   9.196  1.6531 -0.1142 -2.1859
22485SOL    HW269898  10.082   9.825   9.198  2.2128  0.2343 -0.0804
22486SOL     OW69899  10.111  10.277   6.687 -0.3428 -0.0270 -0.3087
22486SOL    HW169900  10.071  10.358   6.719 -0.1632  0.0643 -0.3166
22486SOL    HW269901  10.065  10.208   6.734 -0.8799  0.0505 -0.7051
22487SOL     OW69902   1.178   4.554  10.097  0.1949 -0.4391  0.3931
22487SOL    HW169903   1.264   4.518  10.078  0.0703 -0.4681 -0.1168
22487SOL    HW269904   1.124   4.478  10.119  0.1865 -0.4636  0.2873
22488SOL     OW69905  10.387   7.449   2.746  0.2827 -0.4094 -0.4270
22488SOL    HW169906  10.462   7.508   2.756  0.5260 -0.6216 -0.9813
22488SOL    HW269907  10.383   7.402   2.830 -1.2749  1.9104  0.9106
22489SOL     OW69908   6.381   4.193   9.760  0.0615  0.3015 -0.3841
22489SOL    HW169909   6.322   4.219   9.830 -0.8144 -1.2614 -0.4957
22489SOL    HW269910   6.452   4.258   9.762  0.4870 -0.1515  2.4499
22490SOL     OW69911   1.289   3.160   2.095  0.0868  0.2242  0.7406
22490SOL    HW169912   1.257   3.182   2.182  0.0897  0.3068  0.7209
22490SOL    HW269913   1.289   3.064   2.093  0.0914  0.2221  0.8325
22491SOL     OW69914   4.265   3.164   8.772 -0.8001 -0.4599 -0.6873
22491SOL    HW169915   4.316   3.118   8.838 -1.3954  1.8717  1.5338
22491SOL    HW269916   4.185   3.112   8.763 -0.1654 -1.4874 -0.5601
22492SOL     OW69917   5.796   1.999   2.189 -0.1132 -0.0923  0.1458
22492SOL    HW169918   5.887   2.016   2.167  0.0481 -0.6097  0.4037
22492SOL    HW269919   5.769   2.074   2.242  0.3681 -0.2653  0.6488
22493SOL     OW69920   6.457   5.943   1.906  0.7864  0.3223 -0.0251
22493SOL    HW169921   6.414   5.935   1.991  0.5146  0.3423 -0.1587
22493SOL    HW269922   6.450   6.036   1.884  0.8727  0.3205 -0.0583
22494SOL     OW69923   1.818   7.007   3.478  0.4534  0.4448 -0.0865
22494SOL    HW169924   1.749   6.967   3.425 -0.6900  0.5963  1.2507
22494SOL    HW269925   1.852   7.078   3.422 -0.0048 -0.0430 -1.0128
22495SOL     OW69926   4.336   1.378   5.795 -0.4329  0.0117  0.3217
22495SOL    HW169927   4.431   1.384   5.788 -0.2793 -0.7845  1.5525
22495SOL    HW269928   4.304   1.430   5.721  0.9371  1.3823  0.6370
22496SOL     OW69929   1.238   5.513   3.087 -0.2390  0.1393 -0.7842
22496SOL    HW169930   1.207   5.477   3.170 -0.1571 -0.4595 -1.0015
22496SOL    HW269931   1.333   5.520   3.097 -0.0622 -1.1749 -1.2639
22497SOL     OW69932   2.855   0.846   5.845  0.4300  0.4478 -0.3022
22497SOL    HW169933   2.792   0.845   5.772 -0.5144  0.4963  0.4874
22497SOL    HW269934   2.857   0.937   5.873  2.2622  0.8128 -1.4727
22498SOL     OW69935   8.297   8.659   3.359 -0.4333  0.1377  0.5809
22498SOL    HW169936   8.338   8.744   3.375 -1.6820  0.8342  0.1751
22498SOL    HW269937   8.267   8.663   3.268  1.6873 -1.6971 -0.2989
22499SOL     OW69938   6.804   3.295   3.639  0.4348  0.1016 -0.5048
22499SOL    HW169939   6.857   3.254   3.569 -1.0594 -0.4502 -1.3624
22499SOL    HW269940   6.717   3.258   3.627 -0.2229  1.2029  0.7048
22500SOL     OW69941   5.227   9.423   3.343 -0.6263 -0.0905 -0.4209
22500SOL    HW169942   5.237   9.445   3.436 -0.9239 -1.0809 -0.1455
22500SOL    HW269943   5.317   9.424   3.309 -0.2390 -2.0585  0.4363
22501SOL     OW69944   7.860   1.676   4.779 -0.3827 -0.3575  0.4004
22501SOL    HW169945   7.923   1.642   4.843  1.2739 -0.3592 -1.1608
22501SOL    HW269946   7.829   1.758   4.817  0.6846 -0.2785  1.1489
22502SOL     OW69947   2.125   4.653   6.981 -0.1713 -0.3323  0.1283
22502SOL    HW169948   2.092   4.613   6.901 -1.1094  0.1487  0.2569
22502SOL    HW269949   2.219   4.659   6.968 -0.4445  1.1551 -1.6133
22503SOL     OW69950   3.764   5.736   5.714  0.5872 -0.1527  0.1795
22503SOL    HW169951   3.792   5.823   5.686 -0.9327  0.7095  1.2332
22503SOL    HW269952   3.714   5.751   5.794  0.1992 -1.9930  0.3233
22504SOL     OW69953   0.268   1.940   2.035  0.5494 -0.0597 -0.4503
22504SOL    HW169954   0.183   1.899   2.053  1.4208 -1.5249  0.4726
22504SOL    HW269955   0.250   2.034   2.042 -1.3253 -0.2314 -1.8433
22505SOL     OW69956   7.577   8.976   1.104  0.2817  0.5827  0.5600
22505SOL    HW169957   7.672   8.969   1.099  0.3008  0.1276  1.4483
22505SOL    HW269958   7.560   9.035   1.178 -0.1465 -0.4193  1.2769
22506SOL     OW69959   0.462   0.801   1.681  0.2405 -0.0024 -0.4461
22506SOL    HW169960   0.380   0.851   1.678  0.0208 -0.3611 -0.4419
22506SOL    HW269961   0.509   0.837   1.756 -0.1812 -0.2120 -0.0767
22507SOL     OW69962   9.700   3.818   5.031 -0.4518  0.5185 -0.0890
22507SOL    HW169963   9.664   3.906   5.019 -1.5090 -0.1556 -2.4703
22507SOL    HW269964   9.654   3.784   5.107 -2.7463  0.8019 -1.2538
22508SOL     OW69965   4.206   4.900   8.654 -0.0175 -0.1164 -0.5058
22508SOL    HW169966   4.218   4.943   8.739 -2.3145 -0.3630 -0.0064
22508SOL    HW269967   4.247   4.814   8.665  0.5111  0.1885  0.0249
22509SOL     OW69968   8.322   5.171   9.623  0.1882 -0.7592 -0.5563
22509SOL    HW169969   8.323   5.264   9.601  0.4596 -0.8662 -1.0155
22509SOL    HW269970   8.280   5.129   9.548  1.8577 -1.2246 -1.2782
22510SOL     OW69971  10.035   9.335   9.706  0.5523  0.4425 -0.1874
22510SOL    HW169972   9.977   9.400   9.746  2.4725  1.1747  1.6347
22510SOL    HW269973  10.123   9.372   9.716  1.5647 -1.6385 -0.7203
22511SOL     OW69974   4.273  10.218   1.167  0.5342  0.6389  0.4164
22511SOL    HW169975   4.328  10.158   1.116 -1.1176  0.1903 -0.9302
22511SOL    HW269976   4.290  10.304   1.128 -1.8475  0.1120 -2.1005
22512SOL     OW69977   3.849   1.828   7.266 -0.0378  0.5262  0.5635
22512SOL    HW169978   3.902   1.749   7.279 -0.5176  0.2447  0.8387
22512SOL    HW269979   3.870   1.857   7.177 -0.0310 -0.0349  0.3820
22513SOL     OW69980   7.272   9.074   1.271  0.0504  0.6104  0.1546
22513SOL    HW169981   7.332   9.127   1.218  0.0474  2.1736  1.6317
22513SOL    HW269982   7.271   8.989   1.228  1.6377  1.2012 -1.1526
22514SOL     OW69983   5.935   0.849   7.232  0.3881 -0.1890  0.3082
22514SOL    HW169984   6.017   0.880   7.270  1.3410 -1.3847 -0.6851
22514SOL    HW269985   5.962   0.789   7.163 -1.3210 -0.0014 -0.5793
22515SOL     OW69986   5.405   5.784   9.017  0.4761 -0.0298 -0.4254
22515SOL    HW169987   5.406   5.729   9.096 -0.4069  0.4854 -0.0350
22515SOL    HW269988   5.313   5.790   8.993  0.4409  1.9281  0.0193
22516SOL     OW69989   8.665   9.689   5.119 -0.1002 -0.2117 -0.0110
22516SOL    HW169990   8.634   9.779   5.127 -0.1043 -0.1576 -0.5717
22516SOL    HW269991   8.711   9.687   5.035 -0.1332 -0.7417 -0.0190
22517SOL     OW69992   7.870   8.768   1.399  0.6002  0.1770  0.1903
22517SOL    HW169993   7.955   8.740   1.435  1.2847 -0.3195 -1.6902
22517SOL    HW269994   7.890   8.850   1.354 -0.2227  0.7483  0.8438
22518SOL     OW69995   6.011   9.065   3.665  0.1286 -0.3309 -0.7737
22518SOL    HW169996   5.956   8.987   3.655  0.1274 -0.2979 -1.0094
22518SOL    HW269997   6.044   9.083   3.577 -0.0886  0.0985 -0.7681
22519SOL     OW69998   8.395   5.183   2.191 -0.6282 -0.9766 -0.3176
22519SOL    HW169999   8.399   5.162   2.284  0.6330 -2.3451 -0.6470
22519SOL    HW270000   8.486   5.185   2.163 -1.0035 -0.9505 -1.6044
22520SOL     OW70001   1.568   0.338  10.398  0.1610 -0.6269 -0.5530
22520SOL    HW170002   1.624   0.285  10.341 -0.2400 -3.0722  1.1495
22520SOL    HW270003   1.480   0.305  10.381 -0.0074 -1.1191  1.1355
22521SOL     OW70004   4.033   9.719   3.381  0.0674  0.1510 -0.1993
22521SOL    HW170005   4.016   9.807   3.415  1.7409  0.0662  0.9907
22521SOL    HW270006   4.037   9.730   3.286  0.7701  1.4664 -0.0385
22522SOL     OW70007   9.003   8.845   6.962 -0.3105 -0.2059  0.3697
22522SOL    HW170008   9.018   8.851   7.057 -1.4138  0.3734  0.5249
22522SOL    HW270009   9.035   8.928   6.928  0.4478 -0.5699  0.1652
22523SOL     OW70010   9.363   2.141   7.322 -0.3682  0.4368 -0.4907
22523SOL    HW170011   9.403   2.070   7.273 -0.4338 -0.0333  0.1223
22523SOL    HW270012   9.436   2.186   7.364 -0.3824  0.3148 -0.3349
22524SOL     OW70013   7.191   7.817   2.798 -0.1002  0.2261 -0.5131
22524SOL    HW170014   7.133   7.820   2.874  1.7657  0.1924  0.9890
22524SOL    HW270015   7.235   7.732   2.805  0.3423  0.3717 -1.4324
22525SOL     OW70016   8.316   2.340   7.885  0.3134 -0.6088  0.2768
22525SOL    HW170017   8.259   2.375   7.953  0.2349  2.5261 -1.2143
22525SOL    HW270018   8.257   2.292   7.827 -0.5037  0.7972 -0.1033
22526SOL     OW70019   7.072   5.165  10.087 -0.5531  0.2087 -0.1417
22526SOL    HW170020   7.024   5.132  10.011 -0.0900  0.5900 -0.6101
22526SOL    HW270021   7.050   5.258  10.091 -0.6298  0.1762  0.2324
22527SOL     OW70022   1.894   5.516   5.902 -0.2076  0.2769  0.0571
22527SOL    HW170023   1.903   5.539   5.994 -1.4618 -1.9035  0.7887
22527SOL    HW270024   1.799   5.509   5.888 -0.0964  1.6470 -1.7159
22528SOL     OW70025   8.180   9.625   1.250 -0.3151 -0.4839 -0.1286
22528SOL    HW170026   8.096   9.670   1.253 -1.0032 -1.7576  1.0746
22528SOL    HW270027   8.245   9.695   1.251 -1.3399  0.5082  1.1007
22529SOL     OW70028   5.968   5.005   5.391  0.3651 -0.0842  0.3517
22529SOL    HW170029   5.992   4.992   5.299  0.2050 -1.9992  0.5477
22529SOL    HW270030   6.045   4.978   5.440 -0.6079 -2.1130  0.8473
22530SOL     OW70031   1.174   5.281   4.928  0.3288  0.7427  0.2732
22530SOL    HW170032   1.176   5.249   5.018 -0.7634  0.3103  0.1628
22530SOL    HW270033   1.251   5.337   4.921  1.4437 -0.6483  0.9213
22531SOL     OW70034   5.285  10.224   3.902  0.1211 -0.2248  0.0182
22531SOL    HW170035   5.364  10.235   3.849  0.3983 -0.9150  0.2667
22531SOL    HW270036   5.303  10.275   3.981 -0.1692  0.5602 -0.4091
22532SOL     OW70037   6.788   3.455   2.006 -0.7167 -0.2137 -0.0324
22532SOL    HW170038   6.697   3.468   2.030 -0.7054 -1.4885  0.7974
22532SOL    HW270039   6.823   3.544   1.995 -2.2509  0.2675 -1.2176
22533SOL     OW70040   1.608   3.533   0.983 -0.1910 -0.0420 -0.5437
22533SOL    HW170041   1.570   3.475   0.917  2.2480 -1.0157 -1.2061
22533SOL    HW270042   1.699   3.542   0.957 -0.0228  2.5525  0.6701
22534SOL     OW70043   0.026   0.410   9.624 -0.0527 -0.5659  0.5654
22534SOL    HW170044  -0.058   0.456   9.620  0.7718  0.9315 -1.3527
22534SOL    HW270045   0.003   0.318   9.634 -1.8170  0.0432  3.1489
22535SOL     OW70046   6.092   9.068   6.522  0.0180  0.1024 -0.0429
22535SOL    HW170047   6.129   9.152   6.549  0.2169 -0.1539  0.5113
22535SOL    HW270048   6.168   9.012   6.506 -0.0912  0.2770 -1.2926
22536SOL     OW70049   0.608   2.632   1.224 -0.7781  0.4158 -0.2908
22536SOL    HW170050   0.676   2.574   1.257 -1.5360 -0.1720  0.2682
22536SOL    HW270051   0.648   2.719   1.226  0.7011 -0.1491 -1.9961
22537SOL     OW70052  10.254   9.275   0.080 -0.5031  0.2873 -0.9345
22537SOL    HW170053  10.293   9.205   0.028 -0.3145 -1.1051  0.9835
22537SOL    HW270054  10.165   9.246   0.099 -0.2989  0.3392  0.2078
22538SOL     OW70055   2.239   6.877   7.298 -0.0189 -0.0597 -0.1555
22538SOL    HW170056   2.223   6.838   7.212 -0.7915  0.2044 -0.1414
22538SOL    HW270057   2.308   6.941   7.283 -0.7864  0.6397 -0.7772
22539SOL     OW70058   2.121   2.454   5.411 -0.0356 -0.3525 -0.0114
22539SOL    HW170059   2.176   2.498   5.477  0.7874  0.4228 -1.1816
22539SOL    HW270060   2.035   2.450   5.452  0.5319 -0.2342  1.2732
22540SOL     OW70061   3.006   9.626   0.320 -0.2857  0.3574  0.5084
22540SOL    HW170062   2.973   9.713   0.297  1.6040  0.5545 -1.8484
22540SOL    HW270063   2.932   9.582   0.362 -2.0760  2.2618 -0.5118
22541SOL     OW70064   2.695   8.813   5.786  0.4562 -0.0606 -0.1247
22541SOL    HW170065   2.617   8.782   5.830  0.8584 -0.4542  0.3166
22541SOL    HW270066   2.747   8.856   5.854  0.3849  0.6815 -0.5192
22542SOL     OW70067   1.800   7.607   5.791 -0.1194  0.0120 -0.5757
22542SOL    HW170068   1.749   7.551   5.732 -0.3969 -2.3783  1.7258
22542SOL    HW270069   1.745   7.683   5.806 -1.1689 -0.5509 -1.3852
22543SOL     OW70070   7.361   6.958   7.484  0.0056  0.4443  0.5948
22543SOL    HW170071   7.312   7.028   7.441 -0.8531 -0.7636 -0.4786
22543SOL    HW270072   7.436   6.941   7.426  1.2012  1.6137  1.7326
22544SOL     OW70073   8.824   3.180   4.788  0.3782  0.3525 -0.0161
22544SOL    HW170074   8.772   3.218   4.859  2.1330  2.1733  0.3833
22544SOL    HW270075   8.882   3.118   4.832  0.3285  0.2498 -0.0966
22545SOL     OW70076   4.492   6.058   5.620  0.5800  0.0320 -0.2369
22545SOL    HW170077   4.534   6.144   5.618 -1.7519  1.2736  0.5075
22545SOL    HW270078   4.511   6.023   5.707 -0.3453  0.8215  0.2909
22546SOL     OW70079   7.642   6.636   5.297 -0.3439  0.3084 -0.6445
22546SOL    HW170080   7.603   6.691   5.229 -0.8032  0.9737  0.1440
22546SOL    HW270081   7.702   6.695   5.343 -0.1450 -0.0993 -0.3775
22547SOL     OW70082   1.750   8.533   9.363 -0.1940  0.1436  0.2811
22547SOL    HW170083   1.736   8.537   9.268  0.2471 -1.0328  0.1497
22547SOL    HW270084   1.753   8.624   9.390  1.0865  0.5565 -1.0671
22548SOL     OW70085   7.695   3.366  10.147  0.2215 -0.4216 -0.2391
22548SOL    HW170086   7.642   3.358  10.067  0.0653 -1.4287 -0.0526
22548SOL    HW270087   7.659   3.442  10.192  0.8651  0.7017 -1.5260
22549SOL     OW70088   0.868   3.882   1.673 -0.1479  0.6771 -0.1489
22549SOL    HW170089   0.914   3.838   1.745  2.6490  0.1464 -2.1149
22549SOL    HW270090   0.815   3.813   1.632  0.5841  0.2657 -0.4052
22550SOL     OW70091   6.989   8.347   2.683 -0.1614  0.0469  0.2341
22550SOL    HW170092   6.942   8.345   2.767  0.9275 -0.1519  0.8557
22550SOL    HW270093   7.079   8.369   2.707  0.5188 -1.5439 -0.7097
22551SOL     OW70094   7.379   9.202   1.834 -0.2435 -0.1338  0.0007
22551SOL    HW170095   7.402   9.132   1.772 -0.9188  0.6535 -1.1959
22551SOL    HW270096   7.283   9.201   1.835 -0.2595  0.7622 -0.0403
22552SOL     OW70097   4.043   9.852   7.775 -0.3089  0.0727 -0.2370
22552SOL    HW170098   4.025   9.933   7.822 -0.9753  0.8960 -1.8630
22552SOL    HW270099   4.139   9.849   7.769 -0.3097  1.1664 -0.8858
22553SOL     OW70100   2.721   0.072   4.034  0.1767 -0.4084 -0.3814
22553SOL    HW170101   2.788   0.101   3.972  1.6610 -1.1566  0.7940
22553SOL    HW270102   2.686  -0.008   3.995  0.5356 -0.4396 -0.6476
22554SOL     OW70103   2.556   2.025   5.067 -0.2420 -0.3043  0.2879
22554SOL    HW170104   2.504   1.985   4.997 -1.1930 -0.3686  1.0040
22554SOL    HW270105   2.531   1.978   5.146  2.2836 -1.5673  0.4287
22555SOL     OW70106   6.969   2.683   8.319 -0.1382 -0.7015  0.1987
22555SOL    HW170107   6.943   2.767   8.356  0.6204  0.2298 -1.2635
22555SOL    HW270108   7.057   2.699   8.285  0.1694 -2.2059  0.2265
22556SOL     OW70109   5.726   2.119   0.319 -0.1789 -0.2008  0.4688
22556SOL    HW170110   5.642   2.121   0.364  0.4289  2.6127  1.6827
22556SOL    HW270111   5.710   2.163   0.236  0.0225  0.1716  0.6225
22557SOL     OW70112   9.671   2.727  10.133  0.0457  0.3512 -0.1663
22557SOL    HW170113   9.584   2.729  10.171  0.4297 -1.4760  0.9408
22557SOL    HW270114   9.707   2.641  10.159  1.5646  0.3869 -1.9358
22558SOL     OW70115   7.859   8.984   1.055  0.2250 -0.7534 -0.2075
22558SOL    HW170116   7.907   9.039   0.993  0.0947  0.7091  0.9298
22558SOL    HW270117   7.927   8.935   1.102  0.5128  0.1405  0.3237
22559SOL     OW70118   8.319   9.037   7.039  0.1681 -0.2665 -0.1437
22559SOL    HW170119   8.282   9.055   6.952  0.4032 -0.7678 -0.3514
22559SOL    HW270120   8.243   9.025   7.095 -0.0201 -1.7286 -0.6608
22560SOL     OW70121   0.441   6.505   5.029 -0.0548 -0.0594  0.0029
22560SOL    HW170122   0.357   6.484   4.989 -0.4421  0.3172  0.5986
22560SOL    HW270123   0.432   6.477   5.120 -0.1812  1.5713  0.5225
22561SOL     OW70124   4.728   3.118   2.916 -0.1771  0.8098 -1.0792
22561SOL    HW170125   4.657   3.056   2.930 -0.4465  0.9695 -1.7150
22561SOL    HW270126   4.690   3.187   2.862  0.8960  0.0462 -2.8747
22562SOL     OW70127   4.114   1.594   9.101 -0.1062 -0.2170  0.1538
22562SOL    HW170128   4.163   1.607   9.182  0.4692 -0.8989 -0.0676
22562SOL    HW270129   4.173   1.541   9.046 -0.5308  0.1449 -0.6631
22563SOL     OW70130   3.164   0.195   4.560  0.0791  0.2212 -0.2215
22563SOL    HW170131   3.221   0.251   4.507  0.8482 -0.0757  0.2741
22563SOL    HW270132   3.156   0.242   4.643  0.8199 -0.4454  0.2383
22564SOL     OW70133   3.156   4.278  10.194  0.6885  0.5183 -0.2669
22564SOL    HW170134   3.187   4.368  10.178  1.2295  0.3620 -0.1442
22564SOL    HW270135   3.179   4.261  10.286 -0.9922  0.8628  0.2392
22565SOL     OW70136   7.412   3.269   0.230  0.0741 -0.5809 -0.3025
22565SOL    HW170137   7.431   3.229   0.315  1.5750  1.9928  0.7031
22565SOL    HW270138   7.350   3.338   0.249  1.2616  0.7519 -1.0467
22566SOL     OW70139   8.216   7.928   2.763 -0.1596  0.2236  0.4192
22566SOL    HW170140   8.246   7.887   2.682 -1.8633 -0.0807 -0.1057
22566SOL    HW270141   8.244   8.019   2.755 -0.3587  0.2122 -0.5552
22567SOL     OW70142   1.393   9.862   2.243  0.3340 -0.5438  0.2324
22567SOL    HW170143   1.461   9.811   2.288 -1.7248 -3.1544  0.6551
22567SOL    HW270144   1.335   9.893   2.313  0.0041 -0.0297 -0.2543
22568SOL     OW70145   6.859   0.212   2.635 -0.2507 -0.2716  0.4448
22568SOL    HW170146   6.820   0.226   2.721 -0.4654  0.9438  0.1628
22568SOL    HW270147   6.932   0.152   2.651  0.4095  0.8193  1.6503
22569SOL     OW70148   3.778   3.561   3.677  0.5969  0.7159  0.2581
22569SOL    HW170149   3.716   3.574   3.748 -0.1909 -0.1116 -0.2592
22569SOL    HW270150   3.734   3.597   3.600  0.4918 -0.4095 -0.2282
22570SOL     OW70151   1.713   3.373   4.385  0.2040 -0.0408 -0.2023
22570SOL    HW170152   1.679   3.298   4.435 -0.2159  0.2847  0.0013
22570SOL    HW270153   1.737   3.336   4.300  0.9516 -0.6093  0.2394
22571SOL     OW70154   0.296   0.553   9.984 -0.0749  0.4871  0.2272
22571SOL    HW170155   0.234   0.506  10.040 -0.1149 -2.0491 -1.7383
22571SOL    HW270156   0.382   0.536  10.023 -0.1722 -0.5607  0.0114
22572SOL     OW70157   5.692   8.007   8.998 -0.2113 -0.4351  0.0028
22572SOL    HW170158   5.604   8.032   8.969  0.8668  0.5819 -2.6462
22572SOL    HW270159   5.698   7.914   8.978 -0.7327 -0.5643  0.4080
22573SOL     OW70160   4.278   5.009   6.443 -0.2104  0.1443 -0.5878
22573SOL    HW170161   4.264   4.953   6.519  0.9063  0.2533 -0.2825
22573SOL    HW270162   4.302   5.094   6.479 -0.9768  0.5757 -1.0607
22574SOL     OW70163   4.780   8.023   9.415 -0.2637 -0.2717  0.2469
22574SOL    HW170164   4.689   7.994   9.423  0.0719 -1.6054 -0.3980
22574SOL    HW270165   4.831   7.942   9.414  0.6960  0.2840 -2.3009
22575SOL     OW70166   5.665   0.051   8.165 -0.3332  0.6774 -0.3157
22575SOL    HW170167   5.694  -0.033   8.201 -0.2691  0.7033 -0.3068
22575SOL    HW270168   5.584   0.030   8.118 -0.3217  0.6126 -0.3064
22576SOL     OW70169   0.769   4.899   3.191  0.0968 -0.2751 -0.6310
22576SOL    HW170170   0.786   4.984   3.230 -1.3594 -0.2776  0.0488
22576SOL    HW270171   0.795   4.836   3.258  1.0884 -0.3964 -1.0990
22577SOL     OW70172   8.267   3.385   3.972  0.0970  0.1679 -0.1147
22577SOL    HW170173   8.333   3.355   3.909  0.4194  0.5681  0.0299
22577SOL    HW270174   8.283   3.479   3.981 -0.8115  0.3669 -0.4507
22578SOL     OW70175   9.754   3.936   7.618 -0.4240 -0.4691  0.0827
22578SOL    HW170176   9.695   3.868   7.586 -0.3553  0.4787 -2.3280
22578SOL    HW270177   9.839   3.915   7.579  0.1036 -0.1489  1.0251
22579SOL     OW70178   3.788   2.527   0.650 -0.0321  0.2739  0.6566
22579SOL    HW170179   3.877   2.535   0.686  0.6401  1.5580 -1.0986
22579SOL    HW270180   3.802   2.518   0.556 -1.7611 -0.3685  0.4403
22580SOL     OW70181   8.540   5.802   6.387 -0.1807 -0.3942 -0.1659
22580SOL    HW170182   8.484   5.787   6.464  2.5742 -0.2313  2.0288
22580SOL    HW270183   8.529   5.896   6.368  2.3876  0.7319  3.0186
22581SOL     OW70184   6.172   5.182   7.471  0.0642  0.1309 -0.3585
22581SOL    HW170185   6.236   5.114   7.489 -1.4911 -1.6082 -1.1194
22581SOL    HW270186   6.135   5.205   7.557  1.5843  1.1141  0.0785
22582SOL     OW70187   3.071   7.142   4.591  0.1644 -0.1022 -0.2625
22582SOL    HW170188   3.138   7.103   4.534  0.1747 -1.4108  0.6050
22582SOL    HW270189   3.036   7.068   4.640 -0.4683  0.8774  0.7975
22583SOL     OW70190   2.572   5.814   4.070 -0.0851  0.5393  0.4012
22583SOL    HW170191   2.613   5.732   4.099 -0.7782 -0.3798 -1.0810
22583SOL    HW270192   2.508   5.835   4.138  0.1477 -0.1197  0.8286
22584SOL     OW70193   0.482   6.252   3.336 -0.7010  0.0372 -0.4533
22584SOL    HW170194   0.497   6.304   3.257  0.1129  1.2873  0.4742
22584SOL    HW270195   0.469   6.163   3.305 -0.2709  0.4881 -1.9891
22585SOL     OW70196   5.672   8.569   3.223 -0.5877  0.6277 -0.0374
22585SOL    HW170197   5.641   8.606   3.140  0.0112  0.7008 -0.2272
22585SOL    HW270198   5.764   8.591   3.227  0.0530 -1.6156 -0.6235
22586SOL     OW70199   3.141   0.511   7.445  0.2194  0.1072  0.7924
22586SOL    HW170200   3.061   0.560   7.428  0.7988  0.4855 -1.0595
22586SOL    HW270201   3.120   0.421   7.420  0.1885  0.0879  0.8884
22587SOL     OW70202   8.795   6.029   2.138  0.0558  0.0664 -0.1200
22587SOL    HW170203   8.756   6.076   2.064 -1.6973 -1.7427 -0.4381
22587SOL    HW270204   8.883   6.007   2.108 -0.6870 -0.8284 -1.8368
22588SOL     OW70205   9.777   3.162   5.144  0.3735 -0.0859  0.0548
22588SOL    HW170206   9.751   3.238   5.093 -1.0442 -0.7715 -0.2882
22588SOL    HW270207   9.849   3.193   5.199 -0.3486  1.5691  0.1196
22589SOL     OW70208   3.924   1.749   0.132  0.0064 -0.2964  0.5455
22589SOL    HW170209   4.012   1.783   0.114  0.1600 -0.2419  1.3624
22589SOL    HW270210   3.926   1.659   0.099 -0.0806  0.1380 -0.7034
22590SOL     OW70211   2.359   5.431   8.105 -0.2155 -0.7010 -0.1536
22590SOL    HW170212   2.451   5.407   8.097 -0.3214 -0.6281 -1.9882
22590SOL    HW270213   2.311   5.353   8.078 -0.8647 -1.8209  3.6187
22591SOL     OW70214   5.802   2.595   2.769  0.1797  0.4129  0.0784
22591SOL    HW170215   5.719   2.642   2.773 -0.8983 -1.3167 -0.7914
22591SOL    HW270216   5.817   2.564   2.859  0.7778  2.1265  0.6039
22592SOL     OW70217   4.750   1.699   2.854  0.7344  0.3386 -0.5780
22592SOL    HW170218   4.800   1.713   2.934 -1.4815  1.0782  0.7690
22592SOL    HW270219   4.740   1.786   2.815  2.4416 -0.0988 -2.1620
22593SOL     OW70220   0.644   1.808   5.588 -0.5761 -0.0688 -0.2515
22593SOL    HW170221   0.683   1.894   5.574  1.7724 -1.1381 -0.9545
22593SOL    HW270222   0.562   1.809   5.539  0.1423  1.2931 -1.4956
22594SOL     OW70223   6.251   1.256   6.576 -0.7422 -0.5359  0.0852
22594SOL    HW170224   6.216   1.288   6.659 -1.2574 -2.1095  0.5200
22594SOL    HW270225   6.173   1.245   6.521 -0.5324 -0.6228 -0.1903
22595SOL     OW70226   6.936   9.380   4.303 -0.1788 -0.2819  0.1904
22595SOL    HW170227   6.909   9.397   4.212 -0.3360 -1.2412  0.0462
22595SOL    HW270228   7.027   9.409   4.307  0.5580 -2.2889 -0.9095
22596SOL     OW70229   6.775   8.303   2.257 -0.0442 -0.3202 -0.6558
22596SOL    HW170230   6.767   8.218   2.299 -2.3383  0.2961  0.3592
22596SOL    HW270231   6.849   8.295   2.198  1.6243 -2.1065  1.5102
22597SOL     OW70232   7.418   1.455   2.225 -0.3147  0.1162  0.3945
22597SOL    HW170233   7.324   1.470   2.231 -0.0427  1.5299  1.9561
22597SOL    HW270234   7.449   1.520   2.162 -0.0989  1.4306  1.7830
22598SOL     OW70235   2.999   4.993   9.195 -0.1208 -0.1312  0.5365
22598SOL    HW170236   2.967   5.066   9.143  1.6729  0.2715 -0.0868
22598SOL    HW270237   3.054   5.033   9.263 -0.3178 -0.8150  1.1245
22599SOL     OW70238   0.612   9.929   6.576  0.1094 -0.4978 -0.1011
22599SOL    HW170239   0.573   9.842   6.578 -1.2336  0.0850  0.3680
22599SOL    HW270240   0.556   9.981   6.634  1.0582  0.6011 -0.1531
22600SOL     OW70241   7.503   8.475   9.578  0.0139 -0.0136  0.1246
22600SOL    HW170242   7.450   8.493   9.656  0.0437 -2.9620  0.9426
22600SOL    HW270243   7.593   8.490   9.607 -0.1018  1.5542 -0.2218
22601SOL     OW70244   3.138   2.210   3.302  0.1172  0.3934 -0.2341
22601SOL    HW170245   3.071   2.177   3.242 -0.2868  0.8566 -0.0394
22601SOL    HW270246   3.216   2.221   3.246 -0.3888  1.2870 -0.7854
22602SOL     OW70247  10.390   2.536   4.745 -1.1331  0.1000 -0.4286
22602SOL    HW170248  10.461   2.474   4.763 -1.6036 -0.3329 -0.0253
22602SOL    HW270249  10.358   2.512   4.658 -1.1584 -0.0791 -0.3716
22603SOL     OW70250   8.235   9.891   4.342 -0.3447  0.1952 -0.5159
22603SOL    HW170251   8.327   9.917   4.341  0.4733 -2.3791  0.1918
22603SOL    HW270252   8.193   9.956   4.398  1.4384  0.2858  0.8144
22604SOL     OW70253   1.355   3.411  10.007  0.1213 -0.6145 -0.3649
22604SOL    HW170254   1.406   3.435   9.930  0.2995 -0.5753 -0.2333
22604SOL    HW270255   1.327   3.321   9.989  1.2619 -1.0843  0.1068
22605SOL     OW70256   4.106   6.585   5.260  0.5208  0.7385 -0.1034
22605SOL    HW170257   4.136   6.666   5.218  1.3506 -0.1687 -1.3292
22605SOL    HW270258   4.027   6.561   5.212  0.5226  0.5841 -0.0287
22606SOL     OW70259   0.019   1.782   5.980  0.2499  0.2134  0.4399
22606SOL    HW170260   0.106   1.806   5.948  0.4931  1.3827  1.8706
22606SOL    HW270261   0.001   1.697   5.939  0.9404  1.1416 -1.9080
22607SOL     OW70262   4.451   7.154   1.633  0.6921 -0.7386  0.5910
22607SOL    HW170263   4.420   7.076   1.678  0.6676 -0.5528  0.8965
22607SOL    HW270264   4.397   7.225   1.668  0.5856 -0.6127  0.1799
22608SOL     OW70265   7.451   1.245   7.578  0.1513  0.6046  0.4404
22608SOL    HW170266   7.525   1.189   7.554 -1.0868 -0.2025 -1.7343
22608SOL    HW270267   7.378   1.184   7.590 -1.0348  1.6276 -1.1840
22609SOL     OW70268   5.381   3.380   8.990 -0.3004 -0.4121 -0.4475
22609SOL    HW170269   5.435   3.425   9.055  0.3824 -0.6447 -0.8387
22609SOL    HW270270   5.291   3.400   9.016 -0.0300  0.2024  0.0675
22610SOL     OW70271   9.774   2.935   8.038  0.4398  0.6394  0.0700
22610SOL    HW170272   9.739   2.988   7.966  1.3452  1.1753  0.0087
22610SOL    HW270273   9.865   2.918   8.013  0.5930  0.3404  0.8192
22611SOL     OW70274  10.357   1.512   1.393  0.0603  0.1255 -0.1546
22611SOL    HW170275  10.372   1.496   1.300  0.6049  0.6227 -0.1582
22611SOL    HW270276  10.408   1.591   1.413 -0.3513  0.2445  0.4791
22612SOL     OW70277   5.383   7.135   9.958 -0.1216 -0.2706 -0.3992
22612SOL    HW170278   5.427   7.166   9.879 -1.2624  1.7375 -0.3457
22612SOL    HW270279   5.388   7.209  10.019 -2.1920 -0.4851  0.1311
22613SOL     OW70280   9.125   0.295   7.675  0.2227  0.1629  0.2354
22613SOL    HW170281   9.189   0.225   7.688  1.4070  0.9532 -1.0144
22613SOL    HW270282   9.121   0.339   7.760  0.2429 -0.7761  0.7343
22614SOL     OW70283   2.301   6.357   3.781 -0.0188  0.0367  0.2060
22614SOL    HW170284   2.393   6.351   3.806  0.6855  0.1879 -2.1549
22614SOL    HW270285   2.302   6.367   3.686 -2.5112 -1.1947 -0.0365
22615SOL     OW70286   0.076   5.998   3.557  0.1298 -0.3928 -0.0610
22615SOL    HW170287   0.151   6.002   3.498  1.9873  2.2280  2.1952
22615SOL    HW270288   0.018   6.069   3.528  0.3934  0.0268  0.4194
22616SOL     OW70289   6.223   8.074   2.308  0.7587 -0.4499  0.1570
22616SOL    HW170290   6.153   8.104   2.366  1.2415 -0.6946  0.8900
22616SOL    HW270291   6.266   8.004   2.357 -0.6270 -2.7385 -1.6898
22617SOL     OW70292   8.023   9.522   6.703 -0.4781  0.0614  0.2675
22617SOL    HW170293   8.046   9.531   6.796 -2.0860  2.8926  0.5156
22617SOL    HW270294   7.929   9.504   6.704 -0.6306  0.7429 -0.8003
22618SOL     OW70295  10.179   8.275  10.220  0.0846 -0.1581 -0.5347
22618SOL    HW170296  10.258   8.261  10.273 -0.3830 -2.4023 -0.3529
22618SOL    HW270297  10.107   8.253  10.278 -0.5369 -0.7683 -1.5210
22619SOL     OW70298   9.338   1.347   8.218 -0.1246  0.3425  0.1979
22619SOL    HW170299   9.335   1.369   8.311 -0.2122  0.1168  0.2508
22619SOL    HW270300   9.429   1.322   8.202 -0.3060 -0.5042  0.4361
22620SOL     OW70301  10.004   7.827   8.490 -0.3871  0.2160 -0.2568
22620SOL    HW170302  10.008   7.735   8.517  0.1788  0.5921  0.9841
22620SOL    HW270303  10.085   7.865   8.522 -1.2824  1.4870  0.5612
22621SOL     OW70304   0.290   3.491   1.003 -0.5419 -0.2839 -0.3694
22621SOL    HW170305   0.318   3.582   1.008 -2.2720  0.2493  0.3086
22621SOL    HW270306   0.329   3.459   0.922  1.5694  0.4930  0.2600
22622SOL     OW70307   8.949   8.611   2.144  0.0747 -0.0335 -0.0183
22622SOL    HW170308   8.999   8.537   2.108 -0.0079 -0.0778 -0.0432
22622SOL    HW270309   9.016   8.668   2.183  0.0479 -0.6436  0.9480
22623SOL     OW70310   6.385   0.527   5.381  0.1201  0.0781  0.1600
22623SOL    HW170311   6.343   0.612   5.371 -1.9151 -0.6007  1.9422
22623SOL    HW270312   6.478   0.546   5.390 -0.4340  2.3623  2.4110
22624SOL     OW70313   0.930   9.584   6.075 -0.4727  0.1549  0.3887
22624SOL    HW170314   0.851   9.581   6.022 -3.1837  0.5392  4.0606
22624SOL    HW270315   0.953   9.677   6.079  0.4933  0.0019 -1.0186
22625SOL     OW70316   5.466   4.352   7.586  0.3568 -0.6522 -0.3080
22625SOL    HW170317   5.414   4.307   7.653 -1.4471 -0.4732 -1.5200
22625SOL    HW270318   5.524   4.409   7.636 -0.2509 -1.2438  1.1380
22626SOL     OW70319   9.531   6.465   9.656  0.3677 -0.0818  0.4884
22626SOL    HW170320   9.563   6.512   9.733 -1.0677  0.1867  0.9613
22626SOL    HW270321   9.572   6.508   9.582 -0.8327  1.9284  0.9044
22627SOL     OW70322   3.336   5.293   6.383 -0.3008  0.4649 -0.3419
22627SOL    HW170323   3.295   5.307   6.468  0.7737 -1.3683  0.5281
22627SOL    HW270324   3.295   5.214   6.349 -0.3523  0.8951 -1.3104
22628SOL     OW70325   9.919  10.174   7.117 -0.4944  0.1480  0.2637
22628SOL    HW170326   9.999  10.201   7.162  0.2112 -0.9528 -0.2787
22628SOL    HW270327   9.878  10.110   7.175 -0.3100 -0.2310 -0.0177
22629SOL     OW70328   4.187   6.904  10.467 -1.0550 -0.0760  0.1792
22629SOL    HW170329   4.150   6.986  10.499 -0.7762 -0.6473  2.0790
22629SOL    HW270330   4.112   6.853  10.436 -1.1808  1.0339 -1.4680
22630SOL     OW70331   6.760   8.557   7.097 -0.2435  0.8868  0.7437
22630SOL    HW170332   6.822   8.581   7.165  1.4636 -1.0545 -0.0368
22630SOL    HW270333   6.692   8.507   7.142  0.2209  0.6513  1.1835
22631SOL     OW70334   6.856  10.199   6.554 -0.3790 -0.0899  0.0319
22631SOL    HW170335   6.780  10.156   6.593 -0.4651  0.1739  0.1647
22631SOL    HW270336   6.869  10.277   6.609 -0.8552  0.5968 -0.8016
22632SOL     OW70337   8.746   6.070   3.196 -0.8675  0.0547 -0.5438
22632SOL    HW170338   8.801   6.120   3.137  0.2496 -0.2917  0.1809
22632SOL    HW270339   8.701   6.136   3.249  2.1107  0.4013  1.8087
22633SOL     OW70340   2.761   3.873   0.481  0.8398  0.0270  0.3624
22633SOL    HW170341   2.679   3.923   0.482  0.5695 -0.3980 -0.1920
22633SOL    HW270342   2.782   3.860   0.574  0.7288  0.8610  0.5123
22634SOL     OW70343   8.044   9.866   9.960  0.0770 -0.0206 -0.2671
22634SOL    HW170344   8.006   9.800  10.018  2.7437  0.0676  1.7762
22634SOL    HW270345   8.104   9.817   9.904 -1.6512  0.0589 -2.2719
22635SOL     OW70346   8.524   1.559   4.573 -0.4452  1.0534  0.0471
22635SOL    HW170347   8.541   1.629   4.511  1.8567  1.0144  0.5561
22635SOL    HW270348   8.461   1.597   4.635  0.8385  2.7615  0.3818
22636SOL     OW70349   8.698   4.099   4.505 -0.1435  0.6712  0.0419
22636SOL    HW170350   8.765   4.132   4.564  0.3574  1.0885 -0.7400
22636SOL    HW270351   8.681   4.172   4.445  1.9090 -0.7804 -2.5475
22637SOL     OW70352   1.666   9.272   6.071  0.3208  0.0954 -0.2802
22637SOL    HW170353   1.720   9.204   6.112 -1.0079 -0.5387  0.5163
22637SOL    HW270354   1.701   9.354   6.105  0.2224 -0.3460  0.9518
22638SOL     OW70355   6.380   4.353  10.109  0.5514 -0.1421  0.5509
22638SOL    HW170356   6.441   4.410  10.157 -2.3855  1.4449  2.7480
22638SOL    HW270357   6.348   4.407  10.037  2.1865 -1.2404 -1.0764
22639SOL     OW70358   1.184   5.477   6.321  0.4775 -0.0408  0.1334
22639SOL    HW170359   1.230   5.521   6.249 -0.2750  0.1427 -0.2481
22639SOL    HW270360   1.178   5.544   6.390  0.7847 -0.0676  0.1870
22640SOL     OW70361   9.089   0.192   0.602 -0.2286 -0.0339  0.3540
22640SOL    HW170362   9.063   0.283   0.588  0.4436  0.1320  0.1463
22640SOL    HW270363   9.168   0.197   0.656 -0.3196 -0.5006  0.5381
22641SOL     OW70364   1.528   4.814   0.179  0.5355 -0.3456  0.0320
22641SOL    HW170365   1.476   4.895   0.179 -0.1153 -0.7345  1.1338
22641SOL    HW270366   1.556   4.803   0.089  2.3353  2.1856  0.1648
22642SOL     OW70367   2.882   5.586   4.642 -0.5713 -0.1412  0.2740
22642SOL    HW170368   2.846   5.502   4.614 -2.3321  0.5709  0.2885
22642SOL    HW270369   2.958   5.563   4.695  0.9738 -1.6428 -2.3408
22643SOL     OW70370   6.432   5.927   3.721  0.2276 -0.5757  0.2423
22643SOL    HW170371   6.428   5.831   3.731 -0.5604 -0.9556 -2.8019
22643SOL    HW270372   6.524   5.946   3.708  0.2262 -1.1230 -0.6164
22644SOL     OW70373   9.917   3.157   6.436  0.2507  0.1128 -0.1016
22644SOL    HW170374   9.854   3.155   6.364 -0.2304  0.2820  0.2984
22644SOL    HW270375   9.885   3.091   6.498  1.4794 -1.0685 -0.6877
22645SOL     OW70376   6.629   9.530   4.119  0.3444 -0.3735  0.1670
22645SOL    HW170377   6.588   9.614   4.142 -0.7747 -1.0665  0.7833
22645SOL    HW270378   6.692   9.552   4.051 -1.7796  0.6021 -1.5797
22646SOL     OW70379   1.529   4.817   5.393  0.1612 -0.3667 -0.0253
22646SOL    HW170380   1.499   4.727   5.386 -5.7376  0.9789  1.9653
22646SOL    HW270381   1.498   4.859   5.313  1.0617  0.3278 -0.0280
22647SOL     OW70382   0.936   2.490   3.191 -0.2430  1.0618 -0.0556
22647SOL    HW170383   0.871   2.448   3.247 -0.4499  0.7614 -0.5128
22647SOL    HW270384   1.015   2.438   3.202 -0.3138  0.9392 -0.1192
22648SOL     OW70385   9.841   0.554   7.855 -0.2160 -0.2717 -0.1736
22648SOL    HW170386   9.902   0.487   7.887 -0.1213 -0.5495 -0.9087
22648SOL    HW270387   9.769   0.504   7.817 -0.7636  0.0568  0.4312
22649SOL     OW70388   2.549   5.154   3.763 -0.1599  0.4259 -0.2069
22649SOL    HW170389   2.571   5.095   3.835 -0.2424  0.5177 -0.1067
22649SOL    HW270390   2.632   5.195   3.740  0.0854 -0.4323 -0.9106
22650SOL     OW70391   4.013   5.680   9.927 -0.5718 -0.0202  0.6744
22650SOL    HW170392   4.046   5.591   9.938 -0.2125  0.0409  0.1392
22650SOL    HW270393   4.091   5.733   9.913 -0.8894  0.0794 -0.9226
22651SOL     OW70394   6.742   6.893   2.450 -0.3381 -0.4748  0.5574
22651SOL    HW170395   6.686   6.970   2.441  0.3359 -0.0901 -0.5813
22651SOL    HW270396   6.794   6.891   2.369 -0.1292 -1.9612  0.6955
22652SOL     OW70397   7.438   4.658  10.080  0.8801 -0.1122 -0.3722
22652SOL    HW170398   7.402   4.602  10.148  0.4680  1.4117  0.7253
22652SOL    HW270399   7.389   4.635  10.001  0.0054 -0.5613  0.2882
22653SOL     OW70400   8.582   6.917   9.167  0.3270  0.5148 -0.2510
22653SOL    HW170401   8.608   6.841   9.115 -0.3829  0.3634 -0.3994
22653SOL    HW270402   8.614   6.899   9.255 -1.8259 -1.0922  0.3056
22654SOL     OW70403   7.426   4.329   3.716 -0.0833  0.3199 -0.4282
22654SOL    HW170404   7.421   4.334   3.620 -0.0658  0.0937 -0.4416
22654SOL    HW270405   7.517   4.305   3.733 -0.7678 -2.7474 -0.4912
22655SOL     OW70406   1.180   6.431   2.938 -0.9275  0.2003 -0.4624
22655SOL    HW170407   1.259   6.476   2.969  0.4208 -2.0060 -0.4960
22655SOL    HW270408   1.196   6.415   2.845 -0.3308 -2.2684  0.0060
22656SOL     OW70409   0.835   4.428  10.459 -0.0751  0.1615 -0.6121
22656SOL    HW170410   0.897   4.500  10.465  1.1483 -0.9602  1.9167
22656SOL    HW270411   0.815   4.421  10.365  3.4798  0.7336 -1.5800
22657SOL     OW70412   3.846   6.953   2.183 -0.6286 -1.0975 -0.1438
22657SOL    HW170413   3.891   6.873   2.211 -0.6817 -1.6511 -1.5827
22657SOL    HW270414   3.770   6.959   2.241 -0.7294 -2.2087 -0.1355
22658SOL     OW70415   4.963   5.480   6.219 -0.4519  0.4996 -0.1353
22658SOL    HW170416   4.993   5.535   6.291  1.1682  0.4778 -0.7410
22658SOL    HW270417   5.035   5.419   6.204 -0.7227  0.5424 -1.8022
22659SOL     OW70418   0.962   0.961   8.745  0.5422  0.2571  0.8694
22659SOL    HW170419   0.898   0.890   8.748  1.4273 -0.6475 -0.4032
22659SOL    HW270420   0.953   1.006   8.829 -0.6525 -0.8120  1.3383
22660SOL     OW70421   6.356   5.501   5.301 -0.2086 -0.5380  0.1980
22660SOL    HW170422   6.409   5.476   5.226  1.6621  0.5534  1.0759
22660SOL    HW270423   6.388   5.445   5.372 -0.5893 -0.2076  0.6332
22661SOL     OW70424   5.152   9.033   2.959  0.0749 -0.4957 -0.2027
22661SOL    HW170425   5.180   8.958   3.011  0.4880 -0.1442  0.0820
22661SOL    HW270426   5.125   9.099   3.023  0.6507 -0.0351 -0.4232
22662SOL     OW70427   4.979   6.033   2.442 -0.0656  0.2250  0.3270
22662SOL    HW170428   5.027   6.066   2.367 -0.5484  2.2369  0.8562
22662SOL    HW270429   5.047   6.006   2.504  0.4153  1.8857  0.5729
22663SOL     OW70430   9.194   9.305   2.807  0.4286  0.7902 -0.3560
22663SOL    HW170431   9.153   9.352   2.879 -0.2357  1.5086 -1.1716
22663SOL    HW270432   9.186   9.212   2.831  0.1569  1.0147  0.4496
22664SOL     OW70433   8.909   2.228   4.450 -0.5010  0.2208  0.0964
22664SOL    HW170434   8.983   2.231   4.390  0.0995 -1.3348  0.6854
22664SOL    HW270435   8.875   2.139   4.441  1.2609 -1.0583  3.8715
22665SOL     OW70436   8.729   9.962  10.142  0.1136 -0.4172 -0.1617
22665SOL    HW170437   8.804  10.020  10.139  0.6471 -1.0984 -0.1602
22665SOL    HW270438   8.673  10.000  10.210  0.5677 -0.0537  0.0159
22666SOL     OW70439   8.597   0.972   0.050 -0.0580  0.7941  0.4312
22666SOL    HW170440   8.575   0.902   0.111  0.6719  0.9374  0.8595
22666SOL    HW270441   8.663   0.934  -0.008  0.0838  1.0195  0.4428
22667SOL     OW70442   4.006   2.284   1.010 -0.2278 -0.4458 -0.3000
22667SOL    HW170443   4.020   2.374   1.041 -2.1544 -0.5739  1.1094
22667SOL    HW270444   3.925   2.288   0.960  0.4548 -1.1553 -1.5166
22668SOL     OW70445   1.954   4.280  10.121 -0.3786 -0.6065  0.2369
22668SOL    HW170446   1.999   4.250  10.201 -0.7215 -1.4619  0.1183
22668SOL    HW270447   1.889   4.212  10.103 -0.3532 -0.3859 -0.7356
22669SOL     OW70448   0.004   1.781   1.458  0.3936 -0.0373  0.1491
22669SOL    HW170449  -0.083   1.821   1.451  0.6209  0.8300  1.8558
22669SOL    HW270450   0.056   1.827   1.391 -0.6691 -1.3233 -1.6656
22670SOL     OW70451   5.526   1.371   9.573 -0.2839  0.0288 -0.1695
22670SOL    HW170452   5.596   1.307   9.581  1.6912  2.2005  0.8273
22670SOL    HW270453   5.521   1.413   9.659 -2.9364 -0.0969 -0.1551
22671SOL     OW70454   2.151   0.787   2.670  0.2620  0.2737  0.0891
22671SOL    HW170455   2.179   0.735   2.594 -1.3835 -0.3215 -0.1595
22671SOL    HW270456   2.222   0.850   2.684  0.6789  0.2953 -1.8477
22672SOL     OW70457   9.677   2.682   4.153  0.2844  0.1093 -0.6563
22672SOL    HW170458   9.609   2.720   4.209 -0.8165 -1.8522 -0.6006
22672SOL    HW270459   9.757   2.730   4.177 -0.3946  0.1499  1.7515
22673SOL     OW70460  10.399   5.879   1.246  0.8084 -0.4810 -0.3381
22673SOL    HW170461  10.313   5.921   1.252  1.3266  0.4195  1.0008
22673SOL    HW270462  10.431   5.903   1.159 -0.6307 -1.5578 -1.2247
22674SOL     OW70463   7.033  10.095   7.472 -0.2500 -0.4278  0.4790
22674SOL    HW170464   7.118  10.076   7.432 -0.1013 -0.4026  0.7789
22674SOL    HW270465   6.987  10.148   7.408  0.6179  1.0044  1.0065
22675SOL     OW70466   8.184   2.168   5.418 -0.1086  0.0027  0.2365
22675SOL    HW170467   8.139   2.241   5.376 -0.5445 -1.2513 -1.5747
22675SOL    HW270468   8.254   2.144   5.357 -0.1384 -1.2520  0.6680
22676SOL     OW70469   1.311   7.542   2.653 -0.2444 -0.4853  0.2955
22676SOL    HW170470   1.357   7.486   2.715 -0.2368 -2.8183 -1.6574
22676SOL    HW270471   1.220   7.544   2.685  0.3355  0.9792  2.0331
22677SOL     OW70472   5.627   2.062   3.127  0.1038  0.7124 -0.1888
22677SOL    HW170473   5.680   1.982   3.126  2.9756  2.4893 -0.2485
22677SOL    HW270474   5.552   2.039   3.182  1.4380 -1.6606  0.8259
22678SOL     OW70475   5.157   5.560   3.513  0.6452 -1.2340  0.1378
22678SOL    HW170476   5.091   5.506   3.469 -0.3361  1.9352 -2.6910
22678SOL    HW270477   5.211   5.594   3.441  1.8142  0.7631  1.8615
22679SOL     OW70478   9.847   7.905   0.334 -0.6065  0.5395  0.0289
22679SOL    HW170479   9.912   7.974   0.316 -1.1574  0.9770 -0.2909
22679SOL    HW270480   9.884   7.857   0.408  1.3104 -0.7923 -1.6715
22680SOL     OW70481   6.548   7.276   7.927  0.3665  0.3210 -0.3357
22680SOL    HW170482   6.577   7.338   7.994 -0.0698 -0.1461  0.2986
22680SOL    HW270483   6.604   7.294   7.851  0.5196  1.2061 -0.0222
22681SOL     OW70484   1.385   5.727   8.859  0.1663 -0.1719 -0.1992
22681SOL    HW170485   1.443   5.793   8.821 -0.3567  0.0558 -0.6178
22681SOL    HW270486   1.369   5.665   8.788 -0.1818 -0.1757 -0.1195
22682SOL     OW70487   8.655   2.254  10.107 -0.0860 -0.4369  0.6763
22682SOL    HW170488   8.705   2.172  10.101  1.6709  0.6819 -1.3194
22682SOL    HW270489   8.640   2.279  10.016 -1.1279  1.1534  1.2510
22683SOL     OW70490   9.642   7.520   2.131  0.2876  0.1104 -0.0975
22683SOL    HW170491   9.613   7.537   2.220  1.0448  2.0060 -0.1623
22683SOL    HW270492   9.736   7.507   2.138  0.6963  2.2665 -0.7851
22684SOL     OW70493   5.890   1.653   3.119 -0.2107  0.1952 -0.9317
22684SOL    HW170494   5.850   1.646   3.032 -0.0574  1.5686 -1.1377
22684SOL    HW270495   5.984   1.657   3.102 -0.2593  2.5385 -0.8959
22685SOL     OW70496   4.291   9.350   9.170  0.6008 -0.3604  0.1803
22685SOL    HW170497   4.267   9.380   9.257  0.6461  1.8398 -0.5095
22685SOL    HW270498   4.301   9.255   9.179 -1.0651 -0.4103  2.1619
22686SOL     OW70499   8.823   2.341   5.305 -0.4456 -0.3741  0.0486
22686SOL    HW170500   8.871   2.258   5.307  0.3926  0.1120  1.4549
22686SOL    HW270501   8.863   2.394   5.374 -0.1895  1.6401 -1.5351
22687SOL     OW70502   3.985   9.146   4.430 -0.4335 -0.5578  0.1439
22687SOL    HW170503   3.984   9.104   4.345  0.8683 -1.4465  0.5516
22687SOL    HW270504   3.997   9.075   4.493 -1.1467  0.1036  1.0695
22688SOL     OW70505   8.182  10.146   6.623 -0.5792  0.1387  0.4572
22688SOL    HW170506   8.189  10.167   6.716 -0.2141 -0.6892  0.6231
22688SOL    HW270507   8.249  10.080   6.608 -1.7117 -0.9213 -0.0324
22689SOL     OW70508   5.905   0.230   4.828 -0.0869 -0.2105 -0.5005
22689SOL    HW170509   5.909   0.160   4.893 -1.5872  0.7550  0.7033
22689SOL    HW270510   5.950   0.303   4.869  0.4759 -0.1034 -1.2867
22690SOL     OW70511   0.772   0.070   7.767  0.4360 -0.9111 -0.0396
22690SOL    HW170512   0.749   0.067   7.860  0.2473  1.5172  0.0492
22690SOL    HW270513   0.688   0.059   7.722  0.1136  0.5054  0.1625
22691SOL     OW70514   6.883   1.385   6.831 -0.2117 -0.1653 -0.1191
22691SOL    HW170515   6.827   1.414   6.759 -2.4419 -0.7873  1.2637
22691SOL    HW270516   6.935   1.462   6.853 -1.7962  1.0199 -0.3160
22692SOL     OW70517   8.279   5.490   4.367 -0.0588 -0.2687  0.3980
22692SOL    HW170518   8.244   5.579   4.360 -0.4772 -0.5757 -2.0526
22692SOL    HW270519   8.203   5.436   4.388 -0.7166 -0.5813 -2.4208
22693SOL     OW70520  10.282   6.378   1.277 -0.7454 -0.1024 -0.0412
22693SOL    HW170521  10.363   6.374   1.328 -1.0580  1.4180  0.6342
22693SOL    HW270522  10.231   6.449   1.318 -2.0384 -0.4406 -0.9909
22694SOL     OW70523   7.958   4.423   2.848  0.0297  0.0094  0.0554
22694SOL    HW170524   7.900   4.357   2.885 -1.9127  0.1709 -2.4837
22694SOL    HW270525   8.024   4.373   2.800  0.4900 -0.0951  0.7649
22695SOL     OW70526   3.475   4.588  10.233 -0.4251  0.6272  0.3515
22695SOL    HW170527   3.443   4.595  10.322  0.8213  1.8230  0.7533
22695SOL    HW270528   3.476   4.678  10.200 -1.1833  0.1780 -1.0054
22696SOL     OW70529   7.995   6.056   9.333  0.7467  0.3294 -0.2358
22696SOL    HW170530   8.061   6.019   9.392 -1.1020 -1.4201  0.8954
22696SOL    HW270531   7.987   5.991   9.263 -0.7692 -0.2627  0.4380
22697SOL     OW70532   5.018   7.567   6.524  0.5410 -0.4209  0.3377
22697SOL    HW170533   4.950   7.547   6.588 -0.5882  0.7654 -0.4347
22697SOL    HW270534   5.072   7.634   6.566 -0.5330  0.7730 -0.1138
22698SOL     OW70535   8.657   1.265   3.165 -0.1317 -0.4021 -0.0324
22698SOL    HW170536   8.666   1.171   3.177  0.2850 -0.2588  0.8094
22698SOL    HW270537   8.678   1.280   3.073  0.0928 -1.0923 -0.0915
22699SOL     OW70538   5.476   7.013   0.204  0.4249  0.0299 -0.7253
22699SOL    HW170539   5.396   7.040   0.249  0.0325 -0.6841 -0.9761
22699SOL    HW270540   5.541   7.004   0.274 -0.3902 -1.8720 -0.1287
22700SOL     OW70541   1.816   3.812   9.553  0.0197 -0.3486 -0.3041
22700SOL    HW170542   1.825   3.798   9.648  1.8954  0.7932 -0.2633
22700SOL    HW270543   1.906   3.809   9.521 -0.7019 -2.8718 -2.4181
22701SOL     OW70544   6.499   5.612   5.044 -0.5050  0.8384 -0.2911
22701SOL    HW170545   6.412   5.648   5.026 -0.2076  1.0362 -1.3692
22701SOL    HW270546   6.541   5.678   5.099 -1.3196  0.3606  0.9579
22702SOL     OW70547   0.136   8.701   3.200  0.0063 -0.4221  0.6362
22702SOL    HW170548   0.069   8.749   3.249 -1.6109 -1.6701 -0.2170
22702SOL    HW270549   0.106   8.609   3.203  2.5050 -1.2746  1.4792
22703SOL     OW70550   1.023  10.456   2.062 -0.0869  0.6037  0.4759
22703SOL    HW170551   0.965  10.382   2.080 -0.2314  0.8612  1.0834
22703SOL    HW270552   1.112  10.420   2.068 -0.1678  0.0146 -1.2806
22704SOL     OW70553   9.422   6.814   5.229  0.1602 -0.1229  0.1658
22704SOL    HW170554   9.418   6.910   5.225  3.0343  0.1199  1.0382
22704SOL    HW270555   9.497   6.791   5.175 -0.2333 -1.8751  0.3270
22705SOL     OW70556   7.831   2.864   8.161  0.3740  0.5593 -0.2884
22705SOL    HW170557   7.795   2.815   8.087  0.7414 -0.9973  0.5122
22705SOL    HW270558   7.761   2.924   8.187  0.1797  1.0202 -1.7632
22706SOL     OW70559   9.861   3.963   0.385 -0.1615  0.3739  0.5724
22706SOL    HW170560   9.768   3.971   0.408 -0.2677  0.5636  0.0900
22706SOL    HW270561   9.873   4.027   0.314  0.6478  1.3308  1.5376
22707SOL     OW70562   6.543  10.042   1.787  0.3495 -0.1263 -0.4170
22707SOL    HW170563   6.599   9.989   1.843 -0.7063 -1.4337 -0.5665
22707SOL    HW270564   6.570  10.020   1.698  0.7434  0.5292 -0.4652
22708SOL     OW70565   9.942   2.407   3.455 -0.0338 -0.2441 -0.2719
22708SOL    HW170566   9.855   2.417   3.418 -0.3742 -2.1596 -0.0889
22708SOL    HW270567  10.002   2.432   3.385 -0.7060  0.0738 -0.7382
22709SOL     OW70568   5.612   2.770   6.996 -0.7912  0.3671  0.1089
22709SOL    HW170569   5.614   2.745   6.903 -1.9830  0.7020 -0.0230
22709SOL    HW270570   5.553   2.846   6.999 -1.2506 -0.0175  1.2272
22710SOL     OW70571   5.321   3.774   1.690 -0.3355 -0.2603 -0.0069
22710SOL    HW170572   5.325   3.737   1.779 -1.9538 -0.8057 -0.1162
22710SOL    HW270573   5.322   3.868   1.703  0.4642 -0.3343  0.5222
22711SOL     OW70574   4.119  10.102   0.315  0.0358 -0.1634 -0.0591
22711SOL    HW170575   4.149  10.016   0.287 -1.1998  0.0880 -2.3767
22711SOL    HW270576   4.160  10.163   0.253  1.5113  1.0642  1.9898
22712SOL     OW70577   7.671   9.549   0.858  0.6065  0.6265 -0.1019
22712SOL    HW170578   7.632   9.470   0.896  0.2134  0.8765  0.0233
22712SOL    HW270579   7.624   9.621   0.899  0.9962  0.9297 -0.1801
22713SOL     OW70580   4.893   2.195   5.608  0.2895 -0.3613 -0.4986
22713SOL    HW170581   4.876   2.245   5.528 -0.6113  0.1703  0.0098
22713SOL    HW270582   4.845   2.241   5.676  2.2164  0.0283  0.6538
22714SOL     OW70583   3.916   2.502   5.856 -0.0799 -0.1414  0.0673
22714SOL    HW170584   3.829   2.542   5.856 -0.5989 -1.1540 -1.6684
22714SOL    HW270585   3.972   2.568   5.896 -1.1468  1.7969 -1.4127
22715SOL     OW70586   1.944   1.837   2.937  0.6882  0.1222  0.2183
22715SOL    HW170587   1.937   1.771   2.868 -0.6798  0.5078 -0.0544
22715SOL    HW270588   1.993   1.908   2.897  2.3953 -0.7931  0.5956
22716SOL     OW70589   5.527   9.798   6.612 -0.0565 -0.2196 -0.4441
22716SOL    HW170590   5.519   9.767   6.702 -0.0282  0.5927 -0.1615
22716SOL    HW270591   5.569   9.725   6.566  1.7298  0.0859  0.6119
22717SOL     OW70592   9.021   9.352   7.593  0.0746  0.9362 -0.1357
22717SOL    HW170593   8.951   9.286   7.596  0.3348  0.6537 -0.2551
22717SOL    HW270594   8.985   9.427   7.640  0.2782  0.2188  1.2140
22718SOL     OW70595   9.513  10.180   9.831  0.3005  0.0113  0.0241
22718SOL    HW170596   9.475  10.209   9.748  0.9816 -2.7024 -1.3724
22718SOL    HW270597   9.604  10.207   9.826  0.5162 -0.7905 -0.4649
22719SOL     OW70598   7.909   1.703   3.048 -0.3503 -1.0245 -0.0035
22719SOL    HW170599   7.953   1.620   3.028  0.5206 -0.2002 -1.7748
22719SOL    HW270600   7.957   1.768   2.997 -1.1917  0.5490  1.1215
22720SOL     OW70601   1.436   1.955   9.980 -0.4259  0.0048 -0.2935
22720SOL    HW170602   1.404   1.902   9.907 -1.3644 -0.4406  0.4253
22720SOL    HW270603   1.527   1.926   9.993 -0.6210 -0.7274 -0.5412
22721SOL     OW70604   4.468   0.460   3.302  0.6105  0.3625  0.1754
22721SOL    HW170605   4.491   0.385   3.247 -1.0459 -1.0362  1.2525
22721SOL    HW270606   4.482   0.428   3.392  1.4443  1.9279  0.6242
22722SOL     OW70607   6.625  10.411   6.065  0.1045  0.1037  0.2446
22722SOL    HW170608   6.668  10.449   6.141  0.1357 -0.5981  0.5929
22722SOL    HW270609   6.533  10.407   6.089  0.1690 -0.5014  0.4268
22723SOL     OW70610   6.136   6.304   9.388  0.2605 -0.2697  0.0011
22723SOL    HW170611   6.091   6.389   9.386 -0.3004 -0.5635  0.0340
22723SOL    HW270612   6.123   6.268   9.301 -0.9048 -1.0371  0.4671
22724SOL     OW70613   8.736   1.808   1.014 -0.4688 -0.1447  0.1146
22724SOL    HW170614   8.728   1.759   1.097  2.7400 -0.4006  0.4210
22724SOL    HW270615   8.690   1.754   0.950 -0.9717 -1.1907  1.3096
22725SOL     OW70616   5.327   7.694   9.926  0.4216 -0.0955 -0.3855
22725SOL    HW170617   5.368   7.780   9.929 -0.5594  0.3552  2.0874
22725SOL    HW270618   5.234   7.710   9.945  0.4889 -1.7856  1.8279
22726SOL     OW70619   1.409   8.658   4.146 -0.2913 -0.0897  0.4918
22726SOL    HW170620   1.419   8.730   4.209 -0.4973  0.3167  0.0739
22726SOL    HW270621   1.477   8.673   4.081 -0.6708  0.0360  0.1175
22727SOL     OW70622   6.802   6.282   3.411  0.5192 -0.4792  0.0445
22727SOL    HW170623   6.806   6.294   3.506  1.4549  0.0236 -0.0487
22727SOL    HW270624   6.808   6.187   3.399  0.0952 -0.5701  0.4963
22728SOL     OW70625   2.973   9.730   5.874 -0.3484  0.0664 -0.1691
22728SOL    HW170626   2.981   9.753   5.967  0.6149 -1.3429  0.1389
22728SOL    HW270627   3.020   9.798   5.827 -1.0086  0.8984  0.3558
22729SOL     OW70628   2.836  10.112   1.260  0.3211 -0.1218 -0.5274
22729SOL    HW170629   2.781  10.152   1.193  0.6152  0.1606 -0.6010
22729SOL    HW270630   2.900  10.061   1.211 -0.7486 -1.6325 -0.4186
22730SOL     OW70631   9.328   8.011   0.995 -0.4242 -0.0870 -0.0764
22730SOL    HW170632   9.247   8.033   1.039  0.9697 -0.2941  2.7859
22730SOL    HW270633   9.370   8.095   0.979 -0.8318 -0.0266 -0.9137
22731SOL     OW70634   0.772   3.948   8.766 -0.1899 -0.2263  0.0988
22731SOL    HW170635   0.767   4.009   8.839  2.4514 -2.0930  2.0276
22731SOL    HW270636   0.833   3.988   8.704  0.1744 -0.1092  0.5284
22732SOL     OW70637   5.004   8.950   7.427  0.0095  0.2565  0.0731
22732SOL    HW170638   5.065   8.877   7.427  0.3570  0.4928 -1.9869
22732SOL    HW270639   4.932   8.921   7.483 -0.1442 -1.9207 -1.1501
22733SOL     OW70640   6.937   5.402   4.045 -0.2343 -0.1604 -0.5929
22733SOL    HW170641   7.012   5.439   4.092  0.4670 -2.4757  0.2635
22733SOL    HW270642   6.868   5.468   4.053  1.7178  2.0960 -1.5317
22734SOL     OW70643   6.052   4.978   8.793  0.8137  0.4765 -0.2269
22734SOL    HW170644   6.113   5.048   8.816  1.3696 -0.0955  0.0682
22734SOL    HW270645   6.097   4.897   8.818 -0.8171  0.0951  1.8586
22735SOL     OW70646   0.036   2.641   6.551 -0.2837  0.0622 -0.0866
22735SOL    HW170647   0.021   2.577   6.620 -1.9707  1.0451  0.5236
22735SOL    HW270648   0.117   2.613   6.509  0.2859 -1.0853  1.6859
22736SOL     OW70649   1.142   2.604   8.653 -0.8497  0.1703 -0.0866
22736SOL    HW170650   1.143   2.621   8.559  0.6849  0.5012 -0.0448
22736SOL    HW270651   1.121   2.688   8.693 -1.3638  0.0622 -0.1311
22737SOL     OW70652   9.195   3.902   3.374  0.1892  0.0473  0.0372
22737SOL    HW170653   9.258   3.847   3.421  0.4764  0.2664 -0.0880
22737SOL    HW270654   9.206   3.989   3.413 -0.0591  0.0788  0.0358
22738SOL     OW70655  10.407   1.930   3.236  0.3522  0.1086 -0.4120
22738SOL    HW170656  10.468   1.986   3.283 -1.1103  2.6381 -1.3490
22738SOL    HW270657  10.342   1.904   3.301  1.2636 -0.9310  0.1215
22739SOL     OW70658   1.350   8.911   9.899  0.2533 -0.2407  0.3485
22739SOL    HW170659   1.256   8.926   9.908  0.1959  1.3111 -1.9127
22739SOL    HW270660   1.391   8.976   9.954  0.0976 -2.1090  2.8332
22740SOL     OW70661   1.288   3.425   7.623 -0.0044  1.2083  0.3064
22740SOL    HW170662   1.225   3.360   7.655  1.2424  0.3506  1.1330
22740SOL    HW270663   1.350   3.374   7.571  0.5061  1.8921  0.2326
22741SOL     OW70664   0.494   5.797   5.037  0.0583 -0.0704 -0.2573
22741SOL    HW170665   0.547   5.780   4.960 -0.4694 -0.3510 -0.5626
22741SOL    HW270666   0.444   5.717   5.051  0.2449 -0.0706  0.4547
22742SOL     OW70667   6.324   6.506   2.757  0.1661 -0.7639 -0.1630
22742SOL    HW170668   6.343   6.589   2.800 -2.4821 -0.2799  0.2384
22742SOL    HW270669   6.314   6.528   2.665  1.2393 -0.9975 -0.3536
22743SOL     OW70670   9.579   6.086   5.419  0.1271  0.2445 -0.6799
22743SOL    HW170671   9.596   6.179   5.434 -0.2221  0.1613  0.3001
22743SOL    HW270672   9.665   6.049   5.398  0.3348  0.7083 -0.6599
22744SOL     OW70673   4.495   8.405   2.684 -0.3835 -0.2687 -0.5904
22744SOL    HW170674   4.505   8.330   2.742  0.5315 -0.9001 -1.5194
22744SOL    HW270675   4.585   8.432   2.664 -0.6677 -0.1247 -1.7616
22745SOL     OW70676   4.526   1.053   2.808 -0.6231 -0.1763 -0.5129
22745SOL    HW170677   4.588   0.983   2.830 -0.2971  0.0346 -0.7629
22745SOL    HW270678   4.472   1.062   2.887  0.1008  0.1096 -0.0397
22746SOL     OW70679   2.739   9.337   7.538  0.4889 -0.6897 -0.3781
22746SOL    HW170680   2.660   9.289   7.561  0.2713  0.5494  1.6295
22746SOL    HW270681   2.739   9.414   7.595  1.4802  1.0658 -2.5845
22747SOL     OW70682   4.756   5.757   3.208 -0.6213  0.0844 -0.0430
22747SOL    HW170683   4.789   5.838   3.246 -1.0527 -0.7841  2.3513
22747SOL    HW270684   4.832   5.699   3.204 -0.4725  0.3404 -1.0166
22748SOL     OW70685   3.116   2.245   0.512  0.6490  0.1958 -0.3841
22748SOL    HW170686   3.029   2.276   0.537  0.4023  0.0213 -1.0075
22748SOL    HW270687   3.130   2.283   0.425  1.3261  0.4805 -0.1577
22749SOL     OW70688   5.353  10.048   2.874  0.0511 -0.3260 -0.4866
22749SOL    HW170689   5.379  10.060   2.783 -1.4448  1.8399 -0.6855
22749SOL    HW270690   5.262  10.021   2.869  0.3310 -1.5337  0.3768
22750SOL     OW70691   3.009   2.702   7.852  0.0100 -0.6984  0.2229
22750SOL    HW170692   3.071   2.632   7.875 -0.6093 -1.1786  0.4520
22750SOL    HW270693   2.928   2.656   7.830 -0.9349  0.0225  2.0272
22751SOL     OW70694   1.471   4.868   5.119  0.0510 -0.2487  0.1996
22751SOL    HW170695   1.385   4.875   5.079 -0.0749  1.7193  0.6937
22751SOL    HW270696   1.507   4.786   5.085 -2.0546 -1.1848  0.1107
22752SOL     OW70697   2.791   0.948   3.605 -0.3084  0.3108 -0.4994
22752SOL    HW170698   2.757   1.026   3.649  0.2582 -0.1786  0.8523
22752SOL    HW270699   2.882   0.969   3.584 -0.1193 -0.0218 -0.0285
22753SOL     OW70700   7.292  10.374   7.529  0.0581  0.1768  0.1709
22753SOL    HW170701   7.333  10.381   7.615 -0.3679 -0.1006  0.4005
22753SOL    HW270702   7.364  10.357   7.469  0.3211  0.0808  0.5145
22754SOL     OW70703   2.929   9.767   9.507  0.1182  0.7036 -0.0469
22754SOL    HW170704   2.899   9.697   9.565 -0.4780  0.0866 -1.0749
22754SOL    HW270705   2.859   9.832   9.510 -0.0517  0.5347 -0.2987
22755SOL     OW70706   4.595   2.640   1.095 -0.5659  0.0617  0.0710
22755SOL    HW170707   4.634   2.593   1.021 -2.7189 -1.3164 -0.3046
22755SOL    HW270708   4.615   2.587   1.171 -0.2024  0.3037  0.1432
22756SOL     OW70709   7.001   9.047  10.086  0.4192  0.3404 -0.3889
22756SOL    HW170710   6.997   9.049   9.990  3.0129  0.4610 -0.5628
22756SOL    HW270711   6.914   9.078  10.114 -0.8137 -0.8370 -2.6509
22757SOL     OW70712   3.562   9.338   5.200 -0.2504 -0.1410  0.0254
22757SOL    HW170713   3.475   9.313   5.167 -0.9618  0.2389  1.5329
22757SOL    HW270714   3.599   9.256   5.233 -0.5929 -0.0759  0.5839
22758SOL     OW70715   1.954   0.397   2.589 -0.2976  0.1373  0.3447
22758SOL    HW170716   2.049   0.412   2.591  0.3922 -3.1969 -1.0092
22758SOL    HW270717   1.938   0.336   2.661 -0.9674 -1.1364 -0.8405
22759SOL     OW70718   0.205   5.203   9.378  0.1662  0.0731 -0.4784
22759SOL    HW170719   0.268   5.131   9.376  0.2412  0.1402 -0.5082
22759SOL    HW270720   0.166   5.198   9.465 -0.6231 -0.6954 -0.8612
22760SOL     OW70721   1.900   0.319   1.053  0.3729 -0.5765  0.5214
22760SOL    HW170722   1.879   0.278   1.137 -1.4539 -0.0764  0.3655
22760SOL    HW270723   1.872   0.256   0.987  1.5818 -0.8686  0.2637
22761SOL     OW70724   5.482   6.607   8.040  0.5394 -0.0643  0.5250
22761SOL    HW170725   5.454   6.561   8.119  2.6876 -1.3104  0.6337
22761SOL    HW270726   5.524   6.687   8.072  0.0456  0.1896  0.5451
22762SOL     OW70727   3.204   8.900   1.984 -0.2513  0.0869  0.0748
22762SOL    HW170728   3.192   8.839   2.056 -2.1064  0.1374 -0.1596
22762SOL    HW270729   3.147   8.974   2.005 -0.4500  0.3175 -1.2027
22763SOL     OW70730   3.705   7.770   5.647  0.5120  0.1287 -0.3443
22763SOL    HW170731   3.766   7.742   5.579 -0.3203 -1.6360 -0.4235
22763SOL    HW270732   3.621   7.731   5.621 -0.3413  1.3420  0.4837
22764SOL     OW70733   9.745   3.572   1.152  0.7043  0.6120  0.0536
22764SOL    HW170734   9.703   3.594   1.236 -2.9240 -1.4236 -1.0028
22764SOL    HW270735   9.680   3.597   1.086  1.3056 -2.2538 -1.7921
22765SOL     OW70736   7.442   3.079   5.502  0.8078  0.4488 -0.1369
22765SOL    HW170737   7.432   3.014   5.432 -0.4074  0.3224  0.1339
22765SOL    HW270738   7.527   3.120   5.485  0.7724  0.0431 -1.3645
22766SOL     OW70739   2.604   7.502   7.132 -0.1253  0.5070  0.2525
22766SOL    HW170740   2.626   7.480   7.042  1.6156  1.1869  0.4854
22766SOL    HW270741   2.675   7.466   7.185 -0.2622  1.5315  1.1915
22767SOL     OW70742   0.358   4.131   1.490  0.1099 -0.2635 -0.0978
22767SOL    HW170743   0.363   4.185   1.411 -1.3017 -0.0582 -0.0714
22767SOL    HW270744   0.264   4.124   1.508  0.3562 -1.3223  0.8702
22768SOL     OW70745   8.616   7.864   1.740  0.1929  0.4145 -0.2437
22768SOL    HW170746   8.587   7.944   1.696 -0.8844  0.5590  0.6599
22768SOL    HW270747   8.620   7.889   1.833  1.2623 -0.1931 -0.1123
22769SOL     OW70748   5.296   5.156   3.897 -0.0985  0.1201 -0.1445
22769SOL    HW170749   5.377   5.108   3.882  0.9842  1.9360 -0.4735
22769SOL    HW270750   5.297   5.226   3.832 -0.4957  1.8822  1.6211
22770SOL     OW70751   8.784   6.266   3.561  0.8372  0.9171  0.0681
22770SOL    HW170752   8.739   6.306   3.487 -0.9784  0.5826  0.9315
22770SOL    HW270753   8.839   6.335   3.596 -0.2245  1.8742 -0.0696
22771SOL     OW70754   3.832   9.412   5.482 -0.1753  0.3018  0.3628
22771SOL    HW170755   3.840   9.390   5.575 -0.6331  0.2499  0.3953
22771SOL    HW270756   3.748   9.458   5.475 -0.2611  0.0937 -0.0596
22772SOL     OW70757   6.024   3.315   9.365  0.0727 -0.1930  0.0403
22772SOL    HW170758   6.047   3.404   9.392 -1.2266 -0.5518  2.6672
22772SOL    HW270759   6.080   3.259   9.419 -1.6120 -0.9516  1.0849
22773SOL     OW70760   4.607   5.279   0.401  0.2436 -0.6857 -0.3479
22773SOL    HW170761   4.548   5.271   0.476  0.7396  0.1294  0.1456
22773SOL    HW270762   4.672   5.210   0.413  1.2577  0.4218  0.8651
22774SOL     OW70763   8.870   3.317   0.755 -0.3072  0.3058  0.3493
22774SOL    HW170764   8.794   3.360   0.793 -0.4219 -0.3473  0.8722
22774SOL    HW270765   8.927   3.389   0.726 -1.3866  0.8008 -0.6086
22775SOL     OW70766   6.598   1.346   5.804  0.4296  0.4796  0.2214
22775SOL    HW170767   6.566   1.356   5.894  0.1833  1.5302  0.0321
22775SOL    HW270768   6.583   1.254   5.783 -1.2684  0.6343  0.6023
22776SOL     OW70769   3.669   6.616   5.243  0.2778 -0.3101 -0.5984
22776SOL    HW170770   3.611   6.541   5.251 -0.4913  0.4548  1.5909
22776SOL    HW270771   3.756   6.578   5.233 -0.1977 -1.4783 -0.4213
22777SOL     OW70772  10.489   6.960   5.700  0.5792 -0.1211  0.3586
22777SOL    HW170773  10.418   7.005   5.746  0.2427  1.9955 -1.9945
22777SOL    HW270774  10.450   6.932   5.617  1.8223 -1.4221  0.1775
22778SOL     OW70775   3.821   0.041   1.686  0.0966  0.0171 -0.3564
22778SOL    HW170776   3.798   0.097   1.611  0.9134  0.3259 -0.3853
22778SOL    HW270777   3.764  -0.035   1.676  0.0084  0.1699 -1.1507
22779SOL     OW70778   9.238   1.019   1.392 -0.0847  0.2453  0.1298
22779SOL    HW170779   9.221   1.005   1.299 -0.6677 -1.1781  0.4186
22779SOL    HW270780   9.155   0.997   1.435  0.5215 -0.2923  1.0676
22780SOL     OW70781   6.864   6.401   0.858  0.1741  0.4772 -0.4755
22780SOL    HW170782   6.937   6.415   0.797 -0.8453 -0.2818 -1.9041
22780SOL    HW270783   6.839   6.310   0.845 -1.1736  0.7882 -0.1574
22781SOL     OW70784   0.723   2.985   3.419 -0.3222 -0.2516 -0.0267
22781SOL    HW170785   0.709   2.898   3.381 -0.4155 -1.1004  1.8509
22781SOL    HW270786   0.806   2.978   3.467  0.2973  1.0723 -0.8298
22782SOL     OW70787   8.979   7.770   5.367  0.2195 -0.7781  0.4366
22782SOL    HW170788   8.903   7.792   5.313  0.5398  0.2530  0.3730
22782SOL    HW270789   8.972   7.828   5.443  1.9300  0.7740 -0.4869
22783SOL     OW70790   9.352   4.548   5.447 -0.1303 -0.0415 -0.1816
22783SOL    HW170791   9.347   4.643   5.435  0.8205  0.1948  1.0944
22783SOL    HW270792   9.315   4.533   5.535 -0.5697 -0.8996 -0.4998
22784SOL     OW70793   2.879  10.239  10.131  0.0101 -0.3004 -0.2963
22784SOL    HW170794   2.933  10.293  10.189 -0.1829  0.8938 -1.1913
22784SOL    HW270795   2.936  10.166  10.108  0.0402 -0.9048  1.4965
22785SOL     OW70796   7.435   0.816   1.463  0.3549  0.4671  0.5847
22785SOL    HW170797   7.342   0.834   1.452 -0.3863 -0.9709  3.5664
22785SOL    HW270798   7.461   0.869   1.538  1.4311 -0.6285  1.0145
22786SOL     OW70799   9.056  10.079   4.150  0.0557  0.1380 -0.1289
22786SOL    HW170800   9.008  10.004   4.185 -2.6391  0.4009 -2.8085
22786SOL    HW270801   9.030  10.153   4.204  0.5400 -0.3604  0.8075
22787SOL     OW70802   1.692   5.832   6.084 -0.0390 -0.0936 -0.0637
22787SOL    HW170803   1.723   5.756   6.133 -2.3301 -1.4905 -0.6579
22787SOL    HW270804   1.731   5.822   5.997 -0.0765 -0.4087 -0.0446
22788SOL     OW70805   4.664   6.287   1.600 -0.2574  0.0692  0.2900
22788SOL    HW170806   4.627   6.261   1.515  0.5883 -0.8831  0.1949
22788SOL    HW270807   4.699   6.375   1.585  0.0148 -0.1494 -0.3866
22789SOL     OW70808   4.858   5.147   7.647  0.2444 -0.2998  0.2893
22789SOL    HW170809   4.860   5.235   7.610 -1.4015 -0.2671  0.2175
22789SOL    HW270810   4.802   5.155   7.724  1.5289 -0.9259  1.3275
22790SOL     OW70811   9.236   0.397   3.834 -0.7625  1.1267 -0.6327
22790SOL    HW170812   9.286   0.386   3.753  1.6262  1.4480  0.6806
22790SOL    HW270813   9.284   0.465   3.882  0.9683 -2.2757  3.0988
22791SOL     OW70814   3.840   6.388   4.498  0.2450 -0.1682 -0.2257
22791SOL    HW170815   3.793   6.321   4.549  1.0336  0.2527  1.0966
22791SOL    HW270816   3.778   6.460   4.489  0.3583  0.0670  0.8330
22792SOL     OW70817   7.622   7.178   6.966  0.3634  0.3857 -0.3155
22792SOL    HW170818   7.645   7.126   6.889  0.4398  0.9550 -0.6819
22792SOL    HW270819   7.578   7.255   6.931 -1.1919 -0.1818  0.3173
22793SOL     OW70820  10.364   8.918   3.679 -0.1925  0.4312  0.2159
22793SOL    HW170821  10.456   8.914   3.704 -0.4342 -0.3883  1.0247
22793SOL    HW270822  10.336   9.006   3.707  0.4015  0.7855 -0.2853
22794SOL     OW70823   4.914  10.195   2.296 -0.2112 -0.0060 -0.4747
22794SOL    HW170824   4.910  10.264   2.230 -0.4217  0.0060 -0.4516
22794SOL    HW270825   4.923  10.114   2.245  1.5943  0.1510 -0.4575
22795SOL     OW70826   1.411   7.079   0.485 -0.4478 -0.5302 -0.2532
22795SOL    HW170827   1.401   7.031   0.404  0.0101  0.5439 -0.9691
22795SOL    HW270828   1.421   7.171   0.458 -1.1126 -0.0390  1.0500
22796SOL     OW70829   0.406  10.272   1.530 -0.3524 -0.1059  0.9318
22796SOL    HW170830   0.419  10.189   1.575  1.1106 -1.2774 -1.4874
22796SOL    HW270831   0.453  10.336   1.584  0.4139 -1.2516  1.6585
22797SOL     OW70832   8.393   8.858   4.925 -0.8363 -0.1046 -0.1213
22797SOL    HW170833   8.372   8.767   4.907 -1.6494  0.2591 -1.1144
22797SOL    HW270834   8.381   8.903   4.842 -1.5982  1.0980  0.5956
22798SOL     OW70835   4.393   4.905   3.116 -0.5360 -0.3796 -0.4191
22798SOL    HW170836   4.432   4.854   3.188  2.0239  2.4500  0.3885
22798SOL    HW270837   4.399   4.847   3.040  0.5835 -1.9461  0.7828
22799SOL     OW70838   0.993   5.073   7.597  0.3293 -0.1043  0.0693
22799SOL    HW170839   1.048   5.030   7.532  0.0219  0.8444 -0.8383
22799SOL    HW270840   0.976   5.160   7.561 -0.1547  0.3098  1.2489
22800SOL     OW70841   9.775   0.179   0.037  0.0135  0.5638 -0.8359
22800SOL    HW170842   9.850   0.141  -0.009  1.1437  1.9272 -0.2077
22800SOL    HW270843   9.797   0.271   0.047  0.1559  0.2948  2.9245
22801SOL     OW70844   5.082   5.515   6.776 -0.3479 -0.2943  0.4763
22801SOL    HW170845   5.142   5.441   6.765 -2.3158 -1.8286 -0.5502
22801SOL    HW270846   5.025   5.488   6.848 -0.7648  0.4761  0.4390
22802SOL     OW70847   9.855   0.601   2.272 -0.1318  0.5311 -0.1775
22802SOL    HW170848   9.761   0.613   2.285  0.1008 -0.0669  2.9674
22802SOL    HW270849   9.893   0.622   2.357  2.6275  0.9211 -1.4198
22803SOL     OW70850   8.462   8.442   4.287 -0.2836 -0.7457 -0.2560
22803SOL    HW170851   8.379   8.445   4.239 -0.8502 -0.1821  0.7419
22803SOL    HW270852   8.448   8.377   4.356  0.9555 -2.5248 -1.5724
22804SOL     OW70853   1.965   9.698   1.972  0.1978  0.4677 -0.3118
22804SOL    HW170854   2.005   9.756   1.907  1.0122  0.9586  0.6089
22804SOL    HW270855   2.014   9.616   1.965  0.3217  0.5389 -0.2716
22805SOL     OW70856   0.299   0.937   9.953  0.4788 -0.2878  0.2538
22805SOL    HW170857   0.298   1.031   9.967 -0.9273 -0.2924  0.2935
22805SOL    HW270858   0.269   0.900  10.036 -0.9377 -0.6598 -0.4051
22806SOL     OW70859   4.498   0.976   7.105 -0.4528 -0.0132  0.1559
22806SOL    HW170860   4.462   0.994   7.018  0.0373 -1.1521 -0.2926
22806SOL    HW270861   4.585   0.941   7.089 -0.4755 -0.5313  1.0950
22807SOL     OW70862   5.792   4.301   4.814  0.4205  0.0314 -0.4003
22807SOL    HW170863   5.872   4.353   4.812  0.3238  0.1814 -0.3548
22807SOL    HW270864   5.823   4.211   4.826  0.5198  0.2933  1.7745
22808SOL     OW70865   0.142   8.694   9.865 -0.0847 -0.2383 -0.7081
22808SOL    HW170866   0.160   8.788   9.868  0.1238 -0.2737 -0.7857
22808SOL    HW270867   0.221   8.656   9.825 -0.6709 -0.3110 -1.8331
22809SOL     OW70868   3.009   1.046   2.471 -0.4621 -0.2849  1.3159
22809SOL    HW170869   2.978   0.993   2.397 -0.1582  0.4100  0.6737
22809SOL    HW270870   2.933   1.098   2.497 -0.7064 -0.8806  1.8211
22810SOL     OW70871   2.108   5.578   7.477 -0.5694  0.0509  0.5986
22810SOL    HW170872   2.173   5.577   7.408  0.1884 -1.0693  1.3058
22810SOL    HW270873   2.159   5.579   7.558 -1.4279 -0.0889  1.1522
22811SOL     OW70874   4.734   3.883   2.945  0.0004  0.6610 -0.5404
22811SOL    HW170875   4.759   3.967   2.906 -0.3154  1.2569  0.4911
22811SOL    HW270876   4.652   3.859   2.902  1.3463 -0.4288 -2.6848
22812SOL     OW70877   9.632   6.931   3.958 -0.0450 -0.3268 -0.1204
22812SOL    HW170878   9.675   6.873   4.022  0.4736 -1.0497 -1.0950
22812SOL    HW270879   9.578   6.872   3.905 -0.9717  0.3594  0.0551
22813SOL     OW70880   1.193   8.375   5.593  0.1062  0.0853  0.1842
22813SOL    HW170881   1.256   8.447   5.592  2.9835 -2.2527 -0.8435
22813SOL    HW270882   1.176   8.357   5.501 -0.9319 -0.2689  0.4332
22814SOL     OW70883   2.865   0.383   0.737 -0.1727  0.1825  0.3665
22814SOL    HW170884   2.837   0.319   0.803 -0.5891 -0.5283 -0.4679
22814SOL    HW270885   2.787   0.395   0.682  0.1366  0.8412  0.0676
22815SOL     OW70886   0.756   4.613   0.637 -0.3132 -0.0648 -0.0815
22815SOL    HW170887   0.677   4.660   0.609  0.5384  0.5264 -1.6836
22815SOL    HW270888   0.816   4.622   0.562  0.1533 -3.1482 -0.2004
22816SOL     OW70889   4.718   0.097   5.376 -0.5703  0.6101 -0.0595
22816SOL    HW170890   4.640   0.068   5.329 -0.9510  0.2708  0.7529
22816SOL    HW270891   4.790   0.082   5.315 -1.0396  0.1078 -0.5007
22817SOL     OW70892   7.421   6.800   2.753 -0.4364 -0.0763 -0.0165
22817SOL    HW170893   7.459   6.785   2.666 -1.0851 -0.0482 -0.3102
22817SOL    HW270894   7.343   6.744   2.755  0.6352 -1.5849  1.2920
22818SOL     OW70895   9.949   4.667   8.127 -0.1907 -0.1635  0.2101
22818SOL    HW170896   9.911   4.680   8.214 -0.2286 -1.2016  0.3610
22818SOL    HW270897  10.037   4.633   8.144 -0.0418  0.0306 -0.1579
22819SOL     OW70898   6.955   1.524   0.449 -0.2003  0.3216  0.3365
22819SOL    HW170899   6.873   1.476   0.459 -0.0547  0.0714  0.3627
22819SOL    HW270900   7.005   1.502   0.527  0.3675 -0.5006 -0.2298
22820SOL     OW70901   0.434   2.289   4.874  0.2037 -0.0141 -0.5987
22820SOL    HW170902   0.362   2.349   4.894  0.4091 -0.0716  0.3218
22820SOL    HW270903   0.512   2.344   4.877  0.5718 -0.5907  1.7689
22821SOL     OW70904  10.097   6.162   7.566 -0.8772  0.1750 -0.0556
22821SOL    HW170905  10.063   6.073   7.575 -0.0381 -0.1838 -0.3652
22821SOL    HW270906  10.132   6.183   7.653 -2.0773  0.6418  0.3372
22822SOL     OW70907   1.919   9.711   7.126  0.5610  0.3730 -0.2178
22822SOL    HW170908   1.867   9.642   7.168 -0.4753  0.9585 -0.5129
22822SOL    HW270909   1.990   9.663   7.083  0.3668 -0.4349  0.3309
22823SOL     OW70910   2.241   0.247   8.530 -0.0108  0.1539  0.1758
22823SOL    HW170911   2.331   0.253   8.499 -0.0864 -0.6249 -0.2096
22823SOL    HW270912   2.244   0.287   8.617  0.1958  2.3492 -0.7894
22824SOL     OW70913   0.168   4.561   9.815 -0.4438 -0.2910  0.3473
22824SOL    HW170914   0.248   4.609   9.838 -0.8580  1.8219 -2.1396
22824SOL    HW270915   0.190   4.469   9.831  1.4819  0.4091  2.3635
22825SOL     OW70916   5.540   3.988   5.666  0.3852  0.3204 -0.8515
22825SOL    HW170917   5.606   4.052   5.639  0.4344  0.3767 -0.6019
22825SOL    HW270918   5.466   4.003   5.607  0.7669 -0.0526 -1.4345
22826SOL     OW70919   6.673   3.471   7.803 -0.0544 -0.3107 -0.1953
22826SOL    HW170920   6.670   3.477   7.707  0.6937  2.0404 -0.1283
22826SOL    HW270921   6.764   3.486   7.825 -0.4798  0.7464  0.9429
22827SOL     OW70922   1.760   3.161   9.275  0.2433 -0.0806 -0.0795
22827SOL    HW170923   1.765   3.113   9.192 -0.8933 -1.3195  0.5394
22827SOL    HW270924   1.692   3.228   9.260 -0.6575 -0.9258  0.1303
22828SOL     OW70925   7.144   4.607   0.535 -0.5678 -0.4340 -0.0645
22828SOL    HW170926   7.092   4.671   0.488  0.0996  0.0194 -0.1955
22828SOL    HW270927   7.148   4.640   0.625 -0.8557 -0.6848  0.0405
22829SOL     OW70928   7.330   7.637   1.010  0.0174 -0.3110 -0.4136
22829SOL    HW170929   7.315   7.670   0.922  0.7619 -0.1364 -0.4867
22829SOL    HW270930   7.421   7.660   1.029 -0.2679  0.0690  0.5756
22830SOL     OW70931   9.735   4.474   5.448  0.2550 -0.1722  0.2137
22830SOL    HW170932   9.760   4.513   5.532  0.2087 -0.5879  0.4217
22830SOL    HW270933   9.744   4.545   5.385  0.5165  0.0801  0.5333
22831SOL     OW70934   5.589   9.524   2.611  0.5999 -0.0202 -0.0485
22831SOL    HW170935   5.615   9.569   2.531 -0.3255 -0.7666 -0.7927
22831SOL    HW270936   5.541   9.590   2.661 -1.2776 -0.2787 -1.4059
22832SOL     OW70937   8.353   1.511   3.173  0.5237 -0.2493  0.1575
22832SOL    HW170938   8.294   1.559   3.115  1.5917 -0.0193 -0.7728
22832SOL    HW270939   8.404   1.579   3.218 -0.0670 -0.4361  1.1344
22833SOL     OW70940   9.300   4.419   2.678  0.6076 -0.0548 -0.0984
22833SOL    HW170941   9.291   4.413   2.583 -0.5376 -0.5052  0.0216
22833SOL    HW270942   9.288   4.512   2.697 -3.9826 -0.4275 -0.0377
22834SOL     OW70943   7.357   0.173   7.263  0.6557  0.2032 -0.3703
22834SOL    HW170944   7.380   0.262   7.289 -0.5017  0.0028  1.5587
22834SOL    HW270945   7.279   0.152   7.314 -0.0964 -1.3429 -2.0155
22835SOL     OW70946   8.470   7.338   4.703  0.3414  0.1755  0.1324
22835SOL    HW170947   8.526   7.372   4.773 -0.8610  1.7940  0.3768
22835SOL    HW270948   8.451   7.415   4.648 -2.5836  0.0242  0.7453
22836SOL     OW70949   9.863   6.693   6.126  0.4692 -0.1218 -0.2796
22836SOL    HW170950   9.859   6.762   6.191 -2.5133 -1.2880  0.9704
22836SOL    HW270951   9.942   6.644   6.147  1.2311  1.3530  0.4265
22837SOL     OW70952   2.766   3.113   5.206 -0.4360  0.1747 -0.0354
22837SOL    HW170953   2.730   3.063   5.133 -0.7014  0.4680 -0.1085
22837SOL    HW270954   2.695   3.116   5.270  0.7267 -2.6171  1.5511
22838SOL     OW70955   8.564   4.081   6.079  0.6921 -0.0786  0.6668
22838SOL    HW170956   8.583   4.171   6.103 -0.0612  0.8993 -2.0732
22838SOL    HW270957   8.471   4.080   6.059  0.2589 -1.9678  2.4256
22839SOL     OW70958   8.752   4.077   1.487  0.1188  0.0976  0.2336
22839SOL    HW170959   8.776   4.025   1.564  0.1956 -0.1519  0.0426
22839SOL    HW270960   8.685   4.025   1.443  0.3741  0.0449 -0.0913
22840SOL     OW70961   6.206   7.208   5.159 -0.0814 -0.3039  0.2039
22840SOL    HW170962   6.259   7.223   5.237  1.4450 -2.0201 -0.4254
22840SOL    HW270963   6.230   7.278   5.099  0.9765 -0.6562  0.1981
22841SOL     OW70964   2.759   4.812   3.091  0.0698 -0.4043 -0.1409
22841SOL    HW170965   2.745   4.898   3.052  0.1101 -0.1488  0.4018
22841SOL    HW270966   2.682   4.762   3.066 -0.2346 -0.0286  0.0327
22842SOL     OW70967   8.809   3.803   2.580  0.1168  0.0380  0.1496
22842SOL    HW170968   8.806   3.832   2.489  3.5246 -0.0242 -0.1041
22842SOL    HW270969   8.723   3.764   2.596 -1.5484  2.4003 -2.1731
22843SOL     OW70970   2.741   9.876   5.317 -0.2708 -0.4722 -0.2691
22843SOL    HW170971   2.733   9.880   5.413 -2.3429 -0.9799 -0.3583
22843SOL    HW270972   2.824   9.831   5.302  0.0152 -0.5364  1.3023
22844SOL     OW70973   6.632   9.339   4.316 -0.2207  0.3354 -0.0785
22844SOL    HW170974   6.629   9.389   4.235 -0.8943  1.6708  0.7327
22844SOL    HW270975   6.542   9.307   4.327 -0.0585 -0.1053 -0.0025
22845SOL     OW70976   7.325   5.458   3.215  0.0743 -0.5247 -0.1148
22845SOL    HW170977   7.338   5.466   3.310 -0.0380 -0.6981 -0.0831
22845SOL    HW270978   7.404   5.494   3.176 -0.3171  0.5286  0.0223
22846SOL     OW70979  10.489   9.151   0.613 -0.9582  0.1971  0.0268
22846SOL    HW170980  10.573   9.154   0.660 -0.3395 -2.9446 -0.6048
22846SOL    HW270981  10.425   9.134   0.682 -0.3495 -2.1472  0.1107
22847SOL     OW70982   7.993   0.577   3.613  0.0035 -0.1061  0.0331
22847SOL    HW170983   7.926   0.582   3.545 -0.0425 -0.1424  0.0750
22847SOL    HW270984   8.034   0.663   3.613 -0.9433  0.3659  0.9234
22848SOL     OW70985   5.873   1.427   1.199 -0.1168 -0.2213 -0.3514
22848SOL    HW170986   5.955   1.395   1.237 -1.2453 -1.7485  0.9328
22848SOL    HW270987   5.816   1.443   1.275 -1.3905 -0.2981 -1.2541
22849SOL     OW70988   3.471   2.984   5.781  0.4637  0.2268 -0.2850
22849SOL    HW170989   3.443   3.058   5.726  0.5517 -2.0614 -3.6409
22849SOL    HW270990   3.555   3.012   5.817  1.3702  1.1897 -2.8892
22850SOL     OW70991   9.880   7.409   2.171  0.3763 -0.0856  0.2738
22850SOL    HW170992   9.882   7.313   2.174  0.6599 -0.1971 -1.8911
22850SOL    HW270993   9.902   7.436   2.260 -0.6698 -2.0101  1.1960
22851SOL     OW70994   6.304   1.505   8.164  0.0448  0.1964  0.3293
22851SOL    HW170995   6.310   1.585   8.216 -0.8464 -1.0109  2.4362
22851SOL    HW270996   6.326   1.435   8.226  0.0470 -1.2578 -1.2395
22852SOL     OW70997   1.642   0.761   5.687  0.3616 -0.1816  0.1860
22852SOL    HW170998   1.582   0.741   5.759  2.5071  0.9608  2.4211
22852SOL    HW270999   1.605   0.840   5.647 -1.3477 -1.3419 -0.6623
22853SOL     OW71000   9.530   1.097   5.301  0.4782  0.2708 -0.1461
22853SOL    HW171001   9.589   1.121   5.229 -0.2241  0.7103 -0.5898
22853SOL    HW271002   9.534   1.002   5.305  0.3996  0.2312 -0.8895
22854SOL     OW71003   0.909   9.449   0.839 -0.2730  0.4191  0.3107
22854SOL    HW171004   0.970   9.523   0.842  0.0229  0.1605  0.7288
22854SOL    HW271005   0.834   9.482   0.790  1.4893 -0.2049 -3.1283
22855SOL     OW71006   6.338   4.416   0.152 -0.7372  0.3264  0.2327
22855SOL    HW171007   6.297   4.431   0.067  0.4004 -0.7404 -0.5529
22855SOL    HW271008   6.267   4.427   0.216 -1.7671  0.4790 -0.9018
22856SOL     OW71009   4.522   4.836   1.666  0.2465  0.5331  0.0514
22856SOL    HW171010   4.524   4.816   1.760 -0.5356 -0.7959 -0.1863
22856SOL    HW271011   4.455   4.903   1.657 -0.7596 -0.4040  0.2905
22857SOL     OW71012   6.468  10.185  10.179  0.2840  0.0501  0.0155
22857SOL    HW171013   6.445  10.270  10.217 -1.7538  0.2372 -1.4414
22857SOL    HW271014   6.534  10.149  10.238  1.0288  2.5188  0.8150
22858SOL     OW71015   6.336   9.639   5.696 -0.2531 -0.1766  0.0557
22858SOL    HW171016   6.374   9.621   5.782 -0.0559 -0.6453 -0.1237
22858SOL    HW271017   6.403   9.691   5.650 -0.3933  0.1440  0.2136
22859SOL     OW71018   3.406   6.508   3.674  0.1569  0.3604 -0.1343
22859SOL    HW171019   3.442   6.502   3.762 -1.2816  1.9630  0.6167
22859SOL    HW271020   3.334   6.445   3.672  0.1337  0.3873 -0.1429
22860SOL     OW71021   4.569   1.690   1.881 -0.2562  0.2212  0.0781
22860SOL    HW171022   4.662   1.711   1.870 -0.3136  0.5153  0.1408
22860SOL    HW271023   4.546   1.639   1.803  0.0921 -0.3151  0.3240
22861SOL     OW71024   6.707   1.651   1.280 -0.3286 -0.3625  0.0167
22861SOL    HW171025   6.787   1.704   1.279  0.0693 -0.9518  0.4186
22861SOL    HW271026   6.642   1.709   1.321  0.8818 -1.2269  3.5391
22862SOL     OW71027   9.527   9.194   0.545 -0.4017 -0.2427 -0.1770
22862SOL    HW171028   9.608   9.202   0.496 -0.2301 -1.9943 -0.2519
22862SOL    HW271029   9.465   9.250   0.498  0.7739  1.2285 -0.0331
22863SOL     OW71030   5.531   8.769   0.870  0.3499 -0.3719  0.7634
22863SOL    HW171031   5.592   8.726   0.929 -1.4681 -0.4762  2.7067
22863SOL    HW271032   5.455   8.711   0.866 -0.8838  1.1302  0.9337
22864SOL     OW71033   8.993   4.634   0.566  0.3258 -0.0947  0.3257
22864SOL    HW171034   9.028   4.674   0.486 -0.6496 -0.4065 -0.2652
22864SOL    HW271035   8.938   4.702   0.604  1.1249  0.2080  0.9818
22865SOL     OW71036   8.203   0.364   9.274  0.3395  0.3778 -0.3062
22865SOL    HW171037   8.134   0.391   9.335  0.8460  1.1624 -0.0687
22865SOL    HW271038   8.232   0.445   9.233  0.0647 -0.1278 -1.5473
22866SOL     OW71039   2.764   0.760   2.021 -0.0590 -0.2260  0.3398
22866SOL    HW171040   2.709   0.813   2.079 -0.4117 -0.2619  0.0463
22866SOL    HW271041   2.843   0.813   2.008 -1.2054  1.1656 -1.5107
22867SOL     OW71042   4.124   9.468   3.853 -0.4271  0.3847 -0.3684
22867SOL    HW171043   4.126   9.503   3.764  2.8893 -0.9154 -0.9685
22867SOL    HW271044   4.109   9.374   3.841  1.0699  0.0278  0.2661
22868SOL     OW71045   6.593   4.440   2.455  0.1750  0.1691 -0.3636
22868SOL    HW171046   6.515   4.471   2.409  0.2954  1.5713  0.3363
22868SOL    HW271047   6.581   4.469   2.546  0.7472 -1.0394  0.1168
22869SOL     OW71048   4.189   5.774   7.677  0.2207  0.0967  0.3252
22869SOL    HW171049   4.220   5.683   7.679 -0.0264 -0.0191 -0.7027
22869SOL    HW271050   4.158   5.791   7.766  0.4716 -0.7511  0.5813
22870SOL     OW71051   7.183   2.043   9.858  0.6508  0.6300  0.0799
22870SOL    HW171052   7.177   2.138   9.849  1.0169  1.0083  2.7907
22870SOL    HW271053   7.101   2.019   9.903  1.7663  0.1338  1.9632
22871SOL     OW71054   8.448   1.818   5.474 -0.0691 -0.4907 -0.8617
22871SOL    HW171055   8.443   1.811   5.379 -1.1242  0.5043 -0.9016
22871SOL    HW271056   8.501   1.897   5.489 -0.1012 -0.5138 -0.6236
22872SOL     OW71057   5.930   2.679  10.209 -0.3631 -1.0039  1.0178
22872SOL    HW171058   5.975   2.634  10.137 -0.9246  0.8673 -0.5726
22872SOL    HW271059   5.999   2.693  10.274  0.7218 -0.7058 -0.1505
22873SOL     OW71060   4.137   5.467   2.004  0.3591  0.0637 -0.4208
22873SOL    HW171061   4.181   5.532   1.949  2.0871 -0.7010 -0.0172
22873SOL    HW271062   4.208   5.409   2.033 -0.9623 -1.3043  0.1768
22874SOL     OW71063   4.227  10.025   2.536  0.5735  0.0956  0.4421
22874SOL    HW171064   4.162  10.094   2.525  1.2093  0.5726 -0.3924
22874SOL    HW271065   4.194   9.952   2.484  1.7528  1.0849 -1.8059
22875SOL     OW71066   4.318   3.873   6.052  0.0016 -0.3096 -0.1948
22875SOL    HW171067   4.389   3.937   6.054 -0.5827  0.3975 -1.0581
22875SOL    HW271068   4.358   3.793   6.019  0.5603 -0.1448  0.0766
22876SOL     OW71069   3.949   8.490   8.681  0.2777  0.0640 -0.0407
22876SOL    HW171070   3.990   8.576   8.689 -0.1194  0.1742  0.9724
22876SOL    HW271071   3.892   8.483   8.757 -2.9045  0.6065 -2.1764
22877SOL     OW71072   4.056   2.059   9.283 -0.7394 -0.4242 -0.1207
22877SOL    HW171073   4.112   2.132   9.253  0.5666 -1.2599  0.1942
22877SOL    HW271074   4.114   2.006   9.339 -1.8359 -1.3884  0.1375
22878SOL     OW71075   7.657   0.590   6.773 -0.1269 -0.1398 -0.6694
22878SOL    HW171076   7.679   0.575   6.865  1.4784  0.9926 -0.8238
22878SOL    HW271077   7.606   0.671   6.772  1.1993  0.7330 -0.8735
22879SOL     OW71078  10.208  10.059   8.649 -0.2429 -0.5645 -0.7065
22879SOL    HW171079  10.222  10.035   8.741 -0.0167 -0.5282 -0.7287
22879SOL    HW271080  10.116  10.042   8.633 -0.4578  0.1444 -0.2590
22880SOL     OW71081   7.742   4.630   8.701 -0.0022 -0.1394 -0.1132
22880SOL    HW171082   7.674   4.568   8.675 -1.9182  2.1034 -0.8248
22880SOL    HW271083   7.764   4.605   8.791 -1.0869 -1.4961 -0.1966
22881SOL     OW71084  10.296   2.922  10.284 -0.6105 -0.4082  0.4841
22881SOL    HW171085  10.381   2.896  10.250  0.0625  0.7303  1.2416
22881SOL    HW271086  10.233   2.877  10.227  0.4475 -2.9371  1.2015
22882SOL     OW71087   2.205   4.596   1.386 -0.1811 -0.0797 -0.1356
22882SOL    HW171088   2.175   4.679   1.424  1.9393  0.0210  1.4692
22882SOL    HW271089   2.289   4.618   1.345 -0.2811 -1.1737 -0.9714
22883SOL     OW71090   0.264   4.801   5.440  0.0468 -0.1299 -0.4984
22883SOL    HW171091   0.317   4.770   5.367  0.0998  1.3275 -1.1256
22883SOL    HW271092   0.217   4.724   5.471 -0.1616 -0.7533 -2.2379
22884SOL     OW71093   2.602   0.680   7.245  0.3415  0.0593 -0.0492
22884SOL    HW171094   2.593   0.775   7.239  1.6352  0.1483 -1.0292
22884SOL    HW271095   2.512   0.647   7.236 -0.3737  1.2212  2.2027
22885SOL     OW71096   1.167   0.358   2.619  0.3605  0.3752 -0.0734
22885SOL    HW171097   1.099   0.308   2.573  1.1065  0.3900 -1.2229
22885SOL    HW271098   1.119   0.408   2.685 -0.8063  0.6416 -1.0762
22886SOL     OW71099   1.347   2.484   3.974  0.1092  0.1246 -0.0756
22886SOL    HW171100   1.259   2.445   3.965  0.3736 -0.0627 -2.5001
22886SOL    HW271101   1.382   2.445   4.054 -2.6547  1.5851  1.9994
22887SOL     OW71102   0.193   0.755   3.936 -0.7029  0.0903 -0.1446
22887SOL    HW171103   0.167   0.786   3.849  0.3445  0.8275 -0.2094
22887SOL    HW271104   0.152   0.817   3.996  1.0196  1.4045 -0.2567
22888SOL     OW71105   7.002   1.059   7.366  0.6457 -1.0238 -0.2275
22888SOL    HW171106   6.930   1.100   7.413  2.4895  1.5502  0.5799
22888SOL    HW271107   6.976   1.063   7.274 -0.0442  0.3424  0.0017
22889SOL     OW71108   9.845   6.598   6.565  0.2807  0.0446  0.1111
22889SOL    HW171109   9.823   6.574   6.655 -0.2118  1.3635  0.3643
22889SOL    HW271110   9.763   6.631   6.528  1.4174  4.1413  0.7652
22890SOL     OW71111   6.810   7.899   6.922  0.5368  0.1596 -0.2544
22890SOL    HW171112   6.899   7.915   6.894  0.1274  1.3450 -0.9032
22890SOL    HW271113   6.765   7.983   6.913 -0.1885  0.0721  1.8313
22891SOL     OW71114   2.687   8.898   3.775  0.2406 -0.2257  0.8461
22891SOL    HW171115   2.753   8.898   3.845  0.3033  1.9832  0.8550
22891SOL    HW271116   2.631   8.973   3.795 -1.1940 -0.9647 -0.1937
22892SOL     OW71117   2.393   2.316   3.071 -0.3372 -0.5865  0.0291
22892SOL    HW171118   2.470   2.367   3.093 -1.0180  0.5850 -0.2246
22892SOL    HW271119   2.427   2.228   3.054  0.8113 -0.3270  0.8209
22893SOL     OW71120   3.421   4.155   0.070 -0.0516 -0.4253 -0.0423
22893SOL    HW171121   3.444   4.168   0.162  2.2032 -2.6647 -0.1887
22893SOL    HW271122   3.488   4.203   0.021 -0.5285 -0.2532 -0.5470
22894SOL     OW71123   7.921   2.267   8.132  0.3564 -0.2556 -0.2851
22894SOL    HW171124   7.988   2.335   8.132 -0.3951  0.5039  0.5057
22894SOL    HW271125   7.908   2.245   8.040 -0.5874  1.8711 -0.7095
22895SOL     OW71126  10.054   4.581   0.494  0.1027  0.4130 -0.8521
22895SOL    HW171127  10.118   4.524   0.453 -0.9062 -0.9675 -0.6208
22895SOL    HW271128  10.077   4.669   0.466  1.2559 -0.1846 -1.8601
22896SOL     OW71129   5.453   9.136   7.135 -0.0228 -0.1983  0.0819
22896SOL    HW171130   5.390   9.170   7.199  0.3944  0.1915  0.2885
22896SOL    HW271131   5.509   9.211   7.114  2.6457 -1.2977  2.5852
22897SOL     OW71132   8.025   3.746   2.907  0.2029 -0.2126 -0.5152
22897SOL    HW171133   8.086   3.819   2.919  0.9482 -0.6396 -1.5151
22897SOL    HW271134   8.021   3.703   2.992  1.0909 -0.0149 -0.3655
22898SOL     OW71135   3.678   2.449   2.995 -0.3585 -0.6675 -0.7947
22898SOL    HW171136   3.751   2.509   3.009  0.2239 -1.3366 -0.9382
22898SOL    HW271137   3.673   2.439   2.900 -0.2271 -1.1283 -0.7518
22899SOL     OW71138   0.146   3.914   7.424 -0.0684 -0.3952 -0.4107
22899SOL    HW171139   0.192   3.983   7.376  0.9776 -0.2267  0.7944
22899SOL    HW271140   0.202   3.837   7.415 -0.1062 -0.4897  0.1451
22900SOL     OW71141   4.997   9.122   2.525 -0.3114 -0.0521  0.1046
22900SOL    HW171142   4.965   9.095   2.612 -0.8812 -2.8944 -0.8623
22900SOL    HW271143   4.950   9.065   2.464  0.6186  1.3527 -2.0477
22901SOL     OW71144   0.359   2.345  10.112 -0.2194  0.0823  0.4857
22901SOL    HW171145   0.416   2.270  10.097 -0.0887  0.2880 -0.0446
22901SOL    HW271146   0.399   2.417  10.064  0.0592  0.6893  1.5789
22902SOL     OW71147   6.653   2.452   1.186 -0.1970  0.1958  0.3050
22902SOL    HW171148   6.571   2.431   1.231 -0.4713  0.2596 -0.1572
22902SOL    HW271149   6.645   2.407   1.101 -0.0771  0.8068 -0.0354
22903SOL     OW71150   9.413   0.371   6.389 -0.3196  0.6018 -0.8936
22903SOL    HW171151   9.501   0.404   6.406  0.2788 -0.9227 -0.9105
22903SOL    HW271152   9.373   0.362   6.476  0.3093 -0.6929 -0.7144
22904SOL     OW71153   9.699   7.327   5.933 -0.0889 -0.0464 -0.5207
22904SOL    HW171154   9.695   7.315   6.028  0.2349  2.3863 -0.1530
22904SOL    HW271155   9.625   7.382   5.912  1.3182  1.6562 -1.2524
22905SOL     OW71156   6.272   2.101   9.589 -0.0564  0.4889  0.2530
22905SOL    HW171157   6.333   2.118   9.662 -1.2403 -0.7685  1.5939
22905SOL    HW271158   6.186   2.096   9.630 -0.9100  0.7596 -1.4103
22906SOL     OW71159   0.318   0.235   6.122  0.1089 -0.0346  0.5010
22906SOL    HW171160   0.344   0.312   6.071 -0.3626 -1.0962 -1.4356
22906SOL    HW271161   0.296   0.169   6.056 -1.9884 -1.0192  2.0733
22907SOL     OW71162   2.129   1.329   2.691 -0.0581 -0.2519  0.1176
22907SOL    HW171163   2.059   1.363   2.745 -0.2401 -0.2040 -0.1448
22907SOL    HW271164   2.092   1.327   2.602  0.1494 -0.5645  0.0358
22908SOL     OW71165   2.314   3.682   5.009 -0.1409 -0.3010 -0.3572
22908SOL    HW171166   2.296   3.603   5.060 -2.0657  0.5362  0.3665
22908SOL    HW271167   2.314   3.753   5.074  1.2347  0.3593 -1.0347
22909SOL     OW71168   5.685   7.210   2.546 -0.3166 -0.0137 -0.5488
22909SOL    HW171169   5.740   7.182   2.619 -1.6540 -1.2306  0.0467
22909SOL    HW271170   5.632   7.281   2.582 -0.9025 -0.5444 -0.3376
22910SOL     OW71171   4.521   0.824   3.639 -0.3229  0.5195  0.1713
22910SOL    HW171172   4.525   0.893   3.705  0.8055  2.1254 -1.4785
22910SOL    HW271173   4.611   0.814   3.609 -0.8254 -0.0664 -1.2232
22911SOL     OW71174   2.391  10.177   0.251  0.1188  0.0691 -0.0052
22911SOL    HW171175   2.339  10.178   0.170  0.4372 -0.0229 -0.2089
22911SOL    HW271176   2.381  10.266   0.287 -0.1356  0.0684 -0.0706
22912SOL     OW71177   7.731   2.284   2.143  0.4748 -0.2392 -0.2401
22912SOL    HW171178   7.780   2.223   2.198  0.0185  0.9017  1.5074
22912SOL    HW271179   7.765   2.370   2.166  0.0114  0.3038 -1.5022
22913SOL     OW71180   1.914   4.685   4.931  0.5528 -0.2498 -0.2537
22913SOL    HW171181   1.922   4.617   4.864  1.3701  0.4946 -0.9415
22913SOL    HW271182   1.978   4.660   4.998 -0.3976 -1.0981  0.3806
22914SOL     OW71183   0.765   4.326   4.233 -0.5075 -0.3170  0.5019
22914SOL    HW171184   0.831   4.394   4.249 -1.5445  1.2718 -1.5152
22914SOL    HW271185   0.755   4.282   4.318  0.7388  1.5655  1.6965
22915SOL     OW71186   0.182   7.242   4.047  0.0343 -0.4224  0.0060
22915SOL    HW171187   0.214   7.303   4.114  3.1740 -1.1952 -0.6126
22915SOL    HW271188   0.156   7.299   3.975 -1.6561  0.3322  1.1400
22916SOL     OW71189   6.973   0.581   2.258 -0.1955  0.1800 -0.5128
22916SOL    HW171190   6.954   0.515   2.324 -0.7688  1.1357  0.3015
22916SOL    HW271191   7.044   0.634   2.296  0.9025 -0.4862 -1.5388
22917SOL     OW71192   9.502   5.874   0.227  0.2198  0.6806  0.0117
22917SOL    HW171193   9.593   5.879   0.258  0.8158  0.9216 -1.6630
22917SOL    HW271194   9.454   5.932   0.285  1.1304  0.5217  0.9562
22918SOL     OW71195   1.451   5.154   3.088 -0.2448  0.0763 -0.4249
22918SOL    HW171196   1.453   5.074   3.140  0.3001 -0.1501 -0.7808
22918SOL    HW271197   1.534   5.153   3.039 -0.6277  0.4123 -1.0951
22919SOL     OW71198   9.850   2.543   6.628  0.5457  0.0818 -0.0337
22919SOL    HW171199   9.868   2.467   6.572  1.6941  0.7468 -0.5901
22919SOL    HW271200   9.754   2.545   6.635  0.4935 -1.4311  0.0285
22920SOL     OW71201   2.843   4.138   5.726 -0.3529  0.4733  0.3769
22920SOL    HW171202   2.843   4.067   5.790  2.6984 -0.4347 -0.5039
22920SOL    HW271203   2.864   4.216   5.777 -0.7569  0.2439  0.8991
22921SOL     OW71204   3.124   8.149   6.675  0.3319 -0.5346 -0.3334
22921SOL    HW171205   3.100   8.089   6.604  1.5444 -1.5862  0.1056
22921SOL    HW271206   3.073   8.228   6.658  1.4557 -0.3153 -3.0373
22922SOL     OW71207   7.374   6.954   3.986 -0.3934  0.3748  0.2091
22922SOL    HW171208   7.452   7.010   3.994  0.1149 -0.2232 -0.4418
22922SOL    HW271209   7.401   6.884   3.927 -0.8562 -0.8681  1.4207
22923SOL     OW71210   2.328   3.490   5.541  0.2941 -0.1396 -0.4317
22923SOL    HW171211   2.410   3.527   5.507  0.0067 -0.6761 -1.7601
22923SOL    HW271212   2.260   3.551   5.513  0.3264  0.9839  1.7567
22924SOL     OW71213   7.553   0.216   9.506 -0.0402  0.4609  0.3414
22924SOL    HW171214   7.504   0.251   9.432 -0.7365  0.9825  1.0412
22924SOL    HW271215   7.565   0.124   9.485  0.4610  0.7749 -0.7914
22925SOL     OW71216   6.226   9.242   9.937  0.3481  0.0803 -0.1904
22925SOL    HW171217   6.231   9.214   9.845  0.9290 -0.3506 -0.0369
22925SOL    HW271218   6.315   9.231   9.970  0.3987  1.3009  0.1256
22926SOL     OW71219   4.726   8.884   2.977  0.0102 -0.3401 -0.2272
22926SOL    HW171220   4.654   8.840   3.022 -1.5227  1.4288 -0.8028
22926SOL    HW271221   4.749   8.825   2.904 -0.0196 -1.4755  0.6539
22927SOL     OW71222   3.022   3.037   5.744  0.1185  0.5986 -0.2269
22927SOL    HW171223   2.937   2.999   5.764  0.8346 -0.0765  1.8026
22927SOL    HW271224   3.081   2.961   5.737  0.6981  1.0957 -0.8460
22928SOL     OW71225  10.167   8.130   1.348 -0.3481  0.3546 -0.2266
22928SOL    HW171226  10.121   8.176   1.278 -1.2462 -0.7361 -0.3825
22928SOL    HW271227  10.108   8.134   1.423  0.2759  0.8527  0.2547
22929SOL     OW71228   2.774   2.344   6.212  0.6111  0.2502 -1.0721
22929SOL    HW171229   2.703   2.326   6.150 -0.8055 -0.2941  0.6190
22929SOL    HW271230   2.810   2.258   6.232  0.2722  0.2851 -0.2777
22930SOL     OW71231   8.427   2.373   3.576  0.5532 -0.4449 -0.4600
22930SOL    HW171232   8.408   2.402   3.487 -1.8374  0.7247  0.3313
22930SOL    HW271233   8.468   2.449   3.618  0.2042 -0.4363 -0.1316
22931SOL     OW71234   1.315   4.480   8.336 -0.1977 -0.2627 -0.6093
22931SOL    HW171235   1.405   4.464   8.366  0.9197  3.1165 -1.7222
22931SOL    HW271236   1.319   4.464   8.241 -0.2714  1.4951 -0.9413
22932SOL     OW71237   0.606   9.264   4.563  0.3009 -0.1796  0.4623
22932SOL    HW171238   0.631   9.197   4.627  2.1097  1.9073  2.0806
22932SOL    HW271239   0.573   9.337   4.616  1.3360  1.4010 -0.9850
22933SOL     OW71240   8.188   0.239   7.069  0.1658  0.1463 -0.6222
22933SOL    HW171241   8.151   0.253   7.156 -0.6468  1.6114 -1.1748
22933SOL    HW271242   8.252   0.309   7.058 -0.2844  0.4508 -1.4756
22934SOL     OW71243   1.834   6.725   8.031  0.1170  0.0264  0.1967
22934SOL    HW171244   1.903   6.761   8.087 -1.7674  0.7367  2.1561
22934SOL    HW271245   1.834   6.783   7.954  1.1624  0.4924  0.5275
22935SOL     OW71246   9.037   7.838   0.135  0.3674  0.0565  0.1990
22935SOL    HW171247   9.079   7.752   0.126 -0.7392 -0.6838  1.6385
22935SOL    HW271248   9.055   7.864   0.225 -0.6094  0.6066  0.2464
22936SOL     OW71249   6.974   8.550   3.693 -0.3728 -0.1838 -0.2702
22936SOL    HW171250   6.880   8.535   3.698 -0.7093  2.0225  2.6097
22936SOL    HW271251   7.008   8.518   3.777  1.5623 -1.3326 -1.4230
22937SOL     OW71252   3.980   9.040   6.104 -0.2283 -0.2967 -0.0715
22937SOL    HW171253   4.007   9.032   6.013  1.1105 -1.5711  0.3982
22937SOL    HW271254   3.974   9.134   6.119  0.6440 -0.0477 -1.1733
22938SOL     OW71255   6.376   9.986  10.015  0.0061 -0.0209  0.0294
22938SOL    HW171256   6.401  10.068  10.058 -0.2780  0.0887 -0.0065
22938SOL    HW271257   6.452   9.962   9.961  0.7554 -0.6823  1.3304
22939SOL     OW71258   6.241   1.603   0.265  0.1689  0.2465  0.4104
22939SOL    HW171259   6.247   1.635   0.355 -0.1686 -0.4164  0.6794
22939SOL    HW271260   6.221   1.681   0.213 -2.3034  0.2636  1.2492
22940SOL     OW71261   0.507   3.937   9.690  0.2667  0.1099  0.1472
22940SOL    HW171262   0.488   4.018   9.738  0.3446 -0.1871  0.6881
22940SOL    HW271263   0.549   3.880   9.754 -0.2730 -0.5643 -0.0776
22941SOL     OW71264   0.942   1.629   4.899  0.4158  0.4872  0.2655
22941SOL    HW171265   1.016   1.571   4.916 -0.5613 -0.6374  0.7665
22941SOL    HW271266   0.947   1.647   4.805  0.5399 -0.6820  0.0328
22942SOL     OW71267   9.644   9.399   8.865  0.2323  0.3498  0.0613
22942SOL    HW171268   9.623   9.372   8.775  1.9431  0.4500 -0.4124
22942SOL    HW271269   9.625   9.322   8.918  2.5498 -0.9878 -0.9077
22943SOL     OW71270   4.062   4.394   4.909 -0.7355  0.2773 -0.0477
22943SOL    HW171271   4.049   4.372   4.816  0.2368  0.8498 -0.3378
22943SOL    HW271272   4.110   4.320   4.944 -1.3214 -0.0539  0.0671
22944SOL     OW71273   1.035   1.421   9.314 -0.5104  0.4341  0.6724
22944SOL    HW171274   0.988   1.351   9.269  0.1596  0.4371 -0.0656
22944SOL    HW271275   1.026   1.401   9.407  0.3095 -1.0581  0.4592
22945SOL     OW71276   9.213   6.150   3.583  0.3905 -0.2938 -0.2335
22945SOL    HW171277   9.203   6.197   3.665  0.6851  0.6028 -0.6957
22945SOL    HW271278   9.130   6.104   3.572  0.1203  0.0638  0.2684
22946SOL     OW71279   3.956   5.509   5.319 -0.3877  0.2749 -0.1017
22946SOL    HW171280   4.000   5.591   5.342  0.3328 -0.1390  0.0296
22946SOL    HW271281   3.891   5.496   5.388 -0.7416  0.9023 -0.3065
22947SOL     OW71282   0.454   9.039   6.962  0.0081  0.4736  0.3193
22947SOL    HW171283   0.403   9.098   7.018 -0.7796  0.1141 -0.0035
22947SOL    HW271284   0.465   9.087   6.880  0.5958  0.7341  0.5417
22948SOL     OW71285   8.875   8.708   0.734 -0.3433  0.3242  0.1392
22948SOL    HW171286   8.892   8.652   0.659 -0.0729  1.2825 -0.5298
22948SOL    HW271287   8.938   8.780   0.725 -0.6072  0.6830  1.0356
22949SOL     OW71288   9.643   7.603   9.178 -0.1484 -0.5149  0.0593
22949SOL    HW171289   9.599   7.655   9.246  1.4169 -0.0047  0.7438
22949SOL    HW271290   9.579   7.536   9.153 -0.9160 -0.4586  1.7480
22950SOL     OW71291   9.422   1.269   3.808 -0.2730 -0.4940  0.3139
22950SOL    HW171292   9.466   1.215   3.742 -0.4796 -1.3650  0.8800
22950SOL    HW271293   9.349   1.216   3.838 -1.5520  0.8164 -0.3854
22951SOL     OW71294   2.794   4.152   2.016  0.3507 -0.5982 -0.1353
22951SOL    HW171295   2.797   4.071   2.066  1.4034 -0.8346 -0.5660
22951SOL    HW271296   2.879   4.194   2.032  0.2221 -0.0836 -0.7396
22952SOL     OW71297  10.425   4.063   2.257  0.0008  0.4749  0.2760
22952SOL    HW171298  10.442   3.978   2.297 -0.0227  1.0684  1.6121
22952SOL    HW271299  10.350   4.097   2.306 -1.7254  0.1532 -1.9860
22953SOL     OW71300  10.158   1.299   6.703  0.1520 -0.0272 -0.0664
22953SOL    HW171301  10.104   1.221   6.717  2.0350 -1.0423  2.2064
22953SOL    HW271302  10.159   1.311   6.608 -1.2230 -1.9953 -0.3918
22954SOL     OW71303   2.643   6.229   0.110 -0.0701  0.0156  0.1383
22954SOL    HW171304   2.569   6.251   0.167  0.1482 -0.6221  0.6801
22954SOL    HW271305   2.609   6.242   0.021 -0.0973  2.0131  0.3948
22955SOL     OW71306   1.566   4.952   3.266 -0.1415 -0.5456 -0.4568
22955SOL    HW171307   1.630   4.903   3.318 -1.5536 -2.7386 -0.6711
22955SOL    HW271308   1.533   4.889   3.202 -1.7397  0.8118 -1.0522
22956SOL     OW71309   5.047   1.357   7.748  0.0483 -0.3807  0.3309
22956SOL    HW171310   5.038   1.431   7.807  1.0138 -0.7853  1.0036
22956SOL    HW271311   5.057   1.281   7.805 -0.1722 -0.9371 -0.3522
22957SOL     OW71312   4.608   6.767   0.655 -0.5286  0.2965 -0.4510
22957SOL    HW171313   4.594   6.685   0.608  2.2184 -0.0166 -0.9296
22957SOL    HW271314   4.525   6.785   0.697 -1.2494 -2.7926 -0.2633
22958SOL     OW71315   8.034   0.291   1.551 -0.1727 -0.5841  0.1972
22958SOL    HW171316   8.053   0.310   1.643  0.0534 -0.7512  0.1870
22958SOL    HW271317   8.104   0.231   1.524  2.3325  2.6951 -1.2493
22959SOL     OW71318   1.720   9.719   1.470  0.1810  0.0474  0.2537
22959SOL    HW171319   1.625   9.708   1.474  0.4237 -2.5093  0.7340
22959SOL    HW271320   1.748   9.725   1.561  0.5594 -0.1650  0.1548
22960SOL     OW71321   2.425   5.852   9.463  0.1208  0.3018 -0.2725
22960SOL    HW171322   2.405   5.944   9.481 -0.5327  0.4033 -1.4228
22960SOL    HW271323   2.506   5.835   9.511  0.1548  1.4263  0.0894
22961SOL     OW71324   7.638   0.945   2.779 -0.2638  0.3135  0.0080
22961SOL    HW171325   7.689   0.869   2.805 -1.5546 -0.3160  0.7900
22961SOL    HW271326   7.643   1.005   2.853 -0.2366  0.4803 -0.1263
22962SOL     OW71327   8.072   6.427   9.397 -0.3665  0.3495  0.0120
22962SOL    HW171328   8.054   6.516   9.428  0.3888  0.2512  0.7654
22962SOL    HW271329   8.100   6.379   9.475 -0.7000 -0.5353 -0.3974
22963SOL     OW71330   6.943   9.335   0.348  0.0062 -0.7937  0.3543
22963SOL    HW171331   6.881   9.294   0.289 -0.1148 -0.9333  0.5778
22963SOL    HW271332   6.890   9.393   0.403  0.2342  0.0432 -0.2805
22964SOL     OW71333   0.178   2.772   7.223  0.0334  0.0572 -0.1989
22964SOL    HW171334   0.250   2.727   7.180 -1.5123 -0.3274 -2.6402
22964SOL    HW271335   0.099   2.726   7.193 -1.2852  0.6482  2.0757
22965SOL     OW71336   9.996   5.203   7.679 -0.1254 -0.3181  1.1668
22965SOL    HW171337   9.945   5.284   7.682  0.7388  0.2305  1.3576
22965SOL    HW271338  10.073   5.226   7.628 -0.7247 -1.5282 -0.3396
22966SOL     OW71339   7.997  10.278   2.831 -0.2836 -0.1900 -0.2990
22966SOL    HW171340   7.944  10.220   2.777 -0.8760 -1.4168  1.4841
22966SOL    HW271341   8.083  10.236   2.835  0.4914  1.1130 -2.1148
22967SOL     OW71342   2.930   8.242   5.034  0.2866 -0.4657  1.0373
22967SOL    HW171343   2.919   8.156   5.073  0.2262  0.0532  2.1958
22967SOL    HW271344   3.018   8.239   4.994 -0.6204 -1.8235 -1.0137
22968SOL     OW71345   1.647   7.991   1.218  0.6995  0.5593  0.1363
22968SOL    HW171346   1.663   7.945   1.300  0.0192 -1.6832 -0.8878
22968SOL    HW271347   1.718   7.964   1.161  0.9223  1.7462 -0.1790
22969SOL     OW71348   5.190   7.599   5.947 -0.4208  0.0722  0.6756
22969SOL    HW171349   5.158   7.513   5.976 -0.4706 -0.6012 -1.2303
22969SOL    HW271350   5.119   7.633   5.892  1.3127 -0.7129 -2.2658
22970SOL     OW71351   5.110   2.202   2.290 -0.7984  0.3047 -0.1812
22970SOL    HW171352   5.084   2.247   2.210 -2.4691 -0.6907 -0.2501
22970SOL    HW271353   5.189   2.153   2.265 -0.5481  1.0353 -0.8473
22971SOL     OW71354   1.263   6.678   0.710 -0.3982 -0.0019  0.1547
22971SOL    HW171355   1.264   6.673   0.806  2.3677 -0.7335  0.1683
22971SOL    HW271356   1.250   6.588   0.681 -1.0337  0.1910 -0.1809
22972SOL     OW71357   0.161   4.857   2.298  0.2045 -0.2490  0.3049
22972SOL    HW171358   0.162   4.906   2.380 -0.9838 -0.9985  0.7900
22972SOL    HW271359   0.203   4.773   2.319 -0.1684 -0.4726  0.1663
22973SOL     OW71360   4.935   7.074   1.572 -0.0254 -0.6660  0.4301
22973SOL    HW171361   4.875   7.141   1.605 -0.5572 -1.6931  1.6131
22973SOL    HW271362   5.022   7.105   1.596 -0.3524 -1.0138  2.1835
22974SOL     OW71363  10.231   9.328   5.383 -0.3530  0.6151  0.8004
22974SOL    HW171364  10.190   9.242   5.381 -0.3667  0.5819 -2.0284
22974SOL    HW271365  10.169   9.385   5.338  0.4024  1.7386  1.1448
22975SOL     OW71366   3.494   8.238   5.563  0.2099  0.2872 -0.9370
22975SOL    HW171367   3.538   8.200   5.638  1.3370  1.2575 -1.0717
22975SOL    HW271368   3.402   8.215   5.574  0.2808  0.7686  0.9682
22976SOL     OW71369   6.732   9.462   6.145 -0.6866 -0.3449  0.9209
22976SOL    HW171370   6.713   9.373   6.176  1.6763 -0.7171  1.4891
22976SOL    HW271371   6.745   9.513   6.225 -1.5460  0.4302  0.5894
22977SOL     OW71372   6.245   0.523   2.185 -0.4899  0.5818  0.0038
22977SOL    HW171373   6.219   0.440   2.226  0.0543  0.7940  0.7914
22977SOL    HW271374   6.183   0.534   2.113 -1.0015 -0.1674  0.3155
22978SOL     OW71375   0.219   2.517   8.522 -0.0271  0.2404 -0.0417
22978SOL    HW171376   0.169   2.580   8.574  0.0686  0.7041 -0.5014
22978SOL    HW271377   0.235   2.444   8.581  0.5471  0.9894  0.7591
22979SOL     OW71378   5.958   5.412   4.011  0.3515 -0.1915  0.0855
22979SOL    HW171379   5.962   5.474   4.084 -0.1258 -0.4026  0.2931
22979SOL    HW271380   5.866   5.411   3.985  0.2993 -1.0425  0.2847
22980SOL     OW71381   7.544   1.670   9.294 -0.3524 -0.1918 -0.2019
22980SOL    HW171382   7.470   1.611   9.291 -0.9506  0.4087  1.6012
22980SOL    HW271383   7.525   1.736   9.227 -0.9370 -0.6079 -0.4502
22981SOL     OW71384   4.272   3.625   7.024 -0.2129  0.2262 -0.2548
22981SOL    HW171385   4.368   3.620   7.025 -0.2298 -0.1848 -0.3100
22981SOL    HW271386   4.245   3.552   7.080 -0.4852  0.6172  0.1210
22982SOL     OW71387  10.150   0.998   2.270  0.1654  0.4648  0.7259
22982SOL    HW171388  10.063   1.030   2.242  0.3885 -0.2355 -0.9215
22982SOL    HW271389  10.172   0.932   2.205  1.5148 -0.0845  1.7137
22983SOL     OW71390   4.888   2.337   7.788 -0.1131  0.1564  0.1739
22983SOL    HW171391   4.934   2.300   7.864 -1.7065 -1.5769  0.3725
22983SOL    HW271392   4.896   2.432   7.799  2.5951 -0.0438  0.6448
22984SOL     OW71393   9.651   0.620   9.582 -0.7241 -0.1884 -0.2584
22984SOL    HW171394   9.701   0.693   9.618  1.2536 -1.6561  0.1853
22984SOL    HW271395   9.564   0.627   9.622 -0.5264  1.7663 -0.0830
22985SOL     OW71396   3.062   2.434   2.335 -0.2199  0.0156 -0.0830
22985SOL    HW171397   3.127   2.416   2.267 -0.2874 -0.2424 -0.0794
22985SOL    HW271398   3.107   2.413   2.417 -0.0047  0.7037 -0.0168
22986SOL     OW71399   1.072   0.279   0.047  0.5107  0.3088 -0.3805
22986SOL    HW171400   1.093   0.262   0.139  0.3985 -0.5280 -0.4959
22986SOL    HW271401   1.089   0.196   0.003  0.5161  0.6890 -1.1102
22987SOL     OW71402   5.105   1.520   2.071  0.6605 -0.1925 -0.0726
22987SOL    HW171403   5.194   1.541   2.043  0.6532  2.5036  1.6096
22987SOL    HW271404   5.051   1.540   1.995  1.2230  0.9199 -0.1972
22988SOL     OW71405   0.054   2.068   1.810 -0.3667  0.0687 -0.4157
22988SOL    HW171406   0.054   2.137   1.744  1.0359  0.1935 -0.3176
22988SOL    HW271407   0.106   2.105   1.882  0.3791 -1.0590 -0.3498
22989SOL     OW71408   3.416   8.223   0.068  0.1977 -0.1515  0.1904
22989SOL    HW171409   3.491   8.282   0.069  0.8938 -1.0297  0.8065
22989SOL    HW271410   3.424   8.175  -0.015 -1.4784  1.9537 -1.3054
22990SOL     OW71411   4.198   8.217   9.020  0.5584 -0.1652  0.3499
22990SOL    HW171412   4.198   8.285   8.953  0.2102  0.5637  1.0755
22990SOL    HW271413   4.220   8.136   8.972  0.6409  0.3899 -0.5748
22991SOL     OW71414   0.806   3.437   8.295  0.0072 -0.0493 -0.0990
22991SOL    HW171415   0.823   3.343   8.292 -1.0976 -0.2525 -0.7579
22991SOL    HW271416   0.846   3.471   8.216 -0.2539 -0.0936 -0.2520
22992SOL     OW71417   2.097   8.780   2.525  0.0707 -0.1568 -0.3254
22992SOL    HW171418   2.091   8.685   2.510 -0.1526 -0.2064  0.0853
22992SOL    HW271419   2.188   8.801   2.504  1.4052 -1.1976  3.6585
22993SOL     OW71420   6.480   1.362   7.690  0.2609 -0.0290 -0.1334
22993SOL    HW171421   6.561   1.392   7.648 -0.2171  1.6373  0.0721
22993SOL    HW271422   6.412   1.420   7.656 -0.6302 -0.5231  0.7434
22994SOL     OW71423   8.605   0.115   0.980 -0.2204  0.2406  0.2226
22994SOL    HW171424   8.642   0.141   0.895 -0.0104  0.8466  0.4902
22994SOL    HW271425   8.639   0.027   0.995 -0.1565  0.1772 -0.2628
22995SOL     OW71426   8.392   3.346   6.991  0.1283  0.6748  0.2445
22995SOL    HW171427   8.481   3.314   7.006  0.0314 -0.4426 -1.3464
22995SOL    HW271428   8.402   3.438   6.968  0.8034  0.7318  0.7613
22996SOL     OW71429   6.860   2.234   8.767 -0.1681  0.1291  0.0431
22996SOL    HW171430   6.936   2.292   8.771  0.0795 -0.1991  0.0828
22996SOL    HW271431   6.796   2.274   8.826 -0.7175  1.3954 -1.3467
22997SOL     OW71432   7.449   4.032   4.447 -0.4173 -0.3945 -0.1354
22997SOL    HW171433   7.385   4.017   4.516 -0.5067 -1.4694 -0.4453
22997SOL    HW271434   7.472   3.945   4.416  0.5645  0.0210 -0.6068
22998SOL     OW71435   3.717   1.616   7.584 -0.2645 -0.4388  0.4544
22998SOL    HW171436   3.649   1.683   7.593 -0.1961 -0.4848  1.4788
22998SOL    HW271437   3.679   1.551   7.524 -0.0827  0.7868 -1.0401
22999SOL     OW71438   6.790   7.204   8.663 -0.1395 -0.1377 -0.4693
22999SOL    HW171439   6.790   7.226   8.757  0.5264  2.0163 -0.9112
22999SOL    HW271440   6.772   7.110   8.661  0.2568 -0.3454  1.8359
23000SOL     OW71441   4.131   2.457   2.615  0.1561 -0.1560  0.0252
23000SOL    HW171442   4.223   2.431   2.605  0.8042  2.4537 -2.1399
23000SOL    HW271443   4.135   2.545   2.653 -1.4124  0.2198 -0.5985
23001SOL     OW71444   4.765   0.903   4.582  0.4815 -0.4702 -0.5137
23001SOL    HW171445   4.708   0.828   4.596 -0.0667 -0.1697 -1.0540
23001SOL    HW271446   4.753   0.957   4.660  1.5763 -1.3669  0.2987
23002SOL     OW71447  10.123   4.469   4.734  0.0039  0.5320 -0.3260
23002SOL    HW171448  10.156   4.379   4.735 -1.5608 -0.0764 -0.3019
23002SOL    HW271449  10.041   4.464   4.685 -0.1530  1.9306 -0.2424
23003SOL     OW71450   0.646   4.625   3.018 -0.2953 -0.3501 -0.4035
23003SOL    HW171451   0.607   4.603   2.933  0.1279  0.2358 -0.7618
23003SOL    HW271452   0.688   4.710   3.004  0.8237 -0.7971  0.0460
23004SOL     OW71453   5.317   1.174   2.975 -0.0273 -0.5010 -0.6044
23004SOL    HW171454   5.357   1.202   3.058 -0.4169 -1.6952  0.0134
23004SOL    HW271455   5.324   1.251   2.918  0.6477  0.2049  0.3851
23005SOL     OW71456   7.439   2.196   8.079 -0.0487  0.4457  0.2413
23005SOL    HW171457   7.499   2.169   8.149 -0.5068 -0.6044  0.2455
23005SOL    HW271458   7.496   2.210   8.003  0.1410 -1.4551 -0.0144
23006SOL     OW71459   9.295   8.858   1.865 -0.1229 -0.2934 -0.5783
23006SOL    HW171460   9.317   8.799   1.793  1.4712 -0.3880 -0.0560
23006SOL    HW271461   9.358   8.837   1.933 -0.0016  1.4917 -0.0868
23007SOL     OW71462   4.974   6.594   1.258 -0.2390 -0.8726 -0.1524
23007SOL    HW171463   4.886   6.569   1.231  1.2984 -3.4809 -3.4832
23007SOL    HW271464   5.007   6.648   1.186  0.7328  0.6211  1.3250
23008SOL     OW71465   8.569   7.698   7.922 -0.1959  0.4873  0.0855
23008SOL    HW171466   8.650   7.721   7.877  0.6873 -1.7028  0.4389
23008SOL    HW271467   8.570   7.751   8.001  0.0575  1.6736 -0.6850
23009SOL     OW71468   3.987   9.606   8.255  0.0475 -0.8022 -0.2839
23009SOL    HW171469   3.966   9.658   8.333  0.1846 -0.0598 -0.7239
23009SOL    HW271470   4.056   9.547   8.283  0.4525 -0.1916  0.0339
23010SOL     OW71471   5.651  10.464   6.251 -0.8811  0.1275  0.1524
23010SOL    HW171472   5.630  10.527   6.320 -1.3110  1.4214 -1.1149
23010SOL    HW271473   5.668  10.517   6.174 -0.2725 -1.2783 -0.7257
23011SOL     OW71474   4.475   7.596   7.467  0.1634  0.8034 -0.4581
23011SOL    HW171475   4.570   7.588   7.476 -0.0727 -0.6422  1.3897
23011SOL    HW271476   4.447   7.512   7.429 -0.5107  0.5191  0.6174
23012SOL     OW71477   6.457   3.778   7.682  0.2345  0.2629 -0.3943
23012SOL    HW171478   6.428   3.688   7.668  1.3620  0.0092 -1.2138
23012SOL    HW271479   6.383   3.820   7.726  1.2792 -2.1480  4.2555
23013SOL     OW71480   1.294   2.834   0.206 -0.0960  0.7123 -0.2402
23013SOL    HW171481   1.331   2.921   0.191  0.8075  0.3061 -0.4719
23013SOL    HW271482   1.248   2.813   0.125 -1.9266  1.7169  0.4833
23014SOL     OW71483   8.228   8.052   4.958  0.3586  0.0010  0.5236
23014SOL    HW171484   8.222   8.146   4.980 -2.4914 -0.1554  0.7888
23014SOL    HW271485   8.214   8.008   5.042 -0.9538 -0.6257 -0.0047
23015SOL     OW71486   4.141   0.590   4.724  0.0001  0.3290 -0.3021
23015SOL    HW171487   4.067   0.631   4.680  1.4512  1.2345 -2.0142
23015SOL    HW271488   4.108   0.505   4.752 -2.8640  2.2084  2.6756
23016SOL     OW71489   9.992   3.913   7.485 -0.3742 -0.6118  0.3018
23016SOL    HW171490  10.070   3.875   7.526 -0.9738 -0.9050  1.2116
23016SOL    HW271491   9.978   3.862   7.405  0.0612 -0.9059  0.4119
23017SOL     OW71492   2.670   5.004   4.903  0.3051 -0.0638  0.4185
23017SOL    HW171493   2.611   4.990   4.828  0.0797 -3.0573  1.0363
23017SOL    HW271494   2.617   5.052   4.966 -1.4607 -2.2578  0.7531
23018SOL     OW71495   1.040   4.903   7.838  0.1112 -0.1356  0.0517
23018SOL    HW171496   0.976   4.939   7.776 -0.3604 -0.5754  0.2843
23018SOL    HW271497   1.004   4.819   7.865  0.4507 -0.0753  0.7218
23019SOL     OW71498   8.422   0.962   6.680  0.1090 -0.3968  0.7245
23019SOL    HW171499   8.370   0.896   6.725  1.1820 -0.5926  1.7433
23019SOL    HW271500   8.364   0.998   6.613 -0.5253 -2.3095  0.1833
23020SOL     OW71501   3.172   0.022   5.457 -0.4422  0.3942  0.0626
23020SOL    HW171502   3.169  -0.073   5.452  1.5750  0.2268  1.0570
23020SOL    HW271503   3.262   0.045   5.432 -0.5061  1.9192  1.0769
23021SOL     OW71504   9.145   7.168   5.080  0.4478 -0.4582 -0.1036
23021SOL    HW171505   9.104   7.216   5.009 -0.8591 -0.1769  0.8006
23021SOL    HW271506   9.198   7.233   5.126 -0.4405 -0.1059  0.4563
23022SOL     OW71507   8.325   8.035   9.305 -0.2040  0.1082 -0.4288
23022SOL    HW171508   8.300   8.090   9.232 -0.1292  1.2173  0.3555
23022SOL    HW271509   8.292   8.081   9.382 -0.0841 -0.9142  0.2525
23023SOL     OW71510   2.294   5.600   7.706 -0.1254 -0.5473 -0.3333
23023SOL    HW171511   2.376   5.649   7.716  0.0656 -1.0352  0.5753
23023SOL    HW271512   2.247   5.614   7.788  1.7198 -5.1045  1.8951
23024SOL     OW71513   4.313   8.261   6.983  0.2317  0.2987 -0.2562
23024SOL    HW171514   4.384   8.290   7.040 -0.2195  0.3749  0.2701
23024SOL    HW271515   4.284   8.341   6.939 -1.8811  0.9912  2.1506
23025SOL     OW71516   5.693   0.269   2.855  0.5697  0.3735 -0.3415
23025SOL    HW171517   5.701   0.322   2.776  1.0964 -1.3516 -1.4954
23025SOL    HW271518   5.619   0.211   2.838  1.7716 -1.2244 -0.3454
23026SOL     OW71519   5.722   1.402   7.808 -0.3143 -0.7837  0.4870
23026SOL    HW171520   5.700   1.352   7.729  3.0743 -0.0601 -1.0871
23026SOL    HW271521   5.776   1.342   7.859 -2.3885 -1.2058  2.3492
23027SOL     OW71522   5.544   0.992   0.469 -0.0722 -0.3032  0.1898
23027SOL    HW171523   5.499   0.908   0.479  4.7177 -3.3454 -0.5494
23027SOL    HW271524   5.588   1.007   0.552  1.2612  0.0218 -0.5419
23028SOL     OW71525   6.199   1.842   7.949 -0.7393 -0.1975  0.5290
23028SOL    HW171526   6.105   1.856   7.960 -0.4596  1.0731  1.4528
23028SOL    HW271527   6.231   1.823   8.037 -0.0335  0.0321  0.3307
23029SOL     OW71528   8.962   9.700   6.937 -0.1223  0.3695  0.1343
23029SOL    HW171529   9.018   9.628   6.967  0.3046 -0.8574 -3.2317
23029SOL    HW271530   8.985   9.774   6.993  1.9387 -1.1748  1.4576
23030SOL     OW71531   6.934   6.489   6.363  0.1627 -0.5498 -0.2352
23030SOL    HW171532   6.890   6.418   6.411  0.4324  0.1194  1.0416
23030SOL    HW271533   6.864   6.530   6.311 -0.2562 -0.9243  0.0279
23031SOL     OW71534   8.279   9.769   0.534 -0.3107  0.0645  0.4255
23031SOL    HW171535   8.343   9.824   0.490  0.2225  0.1991  1.3381
23031SOL    HW271536   8.331   9.713   0.592 -1.0488  0.7131  1.7542
23032SOL     OW71537   3.541   5.786   8.156 -0.1963  0.1375 -0.1587
23032SOL    HW171538   3.599   5.746   8.221  1.3966 -0.1644 -1.6894
23032SOL    HW271539   3.544   5.726   8.081 -1.3795  0.8549 -0.8028
23033SOL     OW71540   3.108   8.836   1.509 -0.4108  0.2672 -0.5161
23033SOL    HW171541   3.160   8.913   1.488 -1.4171  1.3117  0.6401
23033SOL    HW271542   3.171   8.764   1.513  1.1148  1.5860  1.4948
23034SOL     OW71543   6.885   3.242   9.649 -0.0336  0.0065  0.0580
23034SOL    HW171544   6.846   3.295   9.718  0.0373  0.4230 -0.2198
23034SOL    HW271545   6.820   3.242   9.579 -0.3648 -0.9045  0.3385
23035SOL     OW71546   3.576   5.626   4.430  0.1315 -0.2618  0.3244
23035SOL    HW171547   3.644   5.563   4.452  0.7662  0.6304  0.9727
23035SOL    HW271548   3.593   5.647   4.338  0.5249 -0.3105  0.3815
23036SOL     OW71549   9.306   0.648   3.954 -0.0598 -0.4693  0.3185
23036SOL    HW171550   9.247   0.674   4.026 -2.4473 -0.9763 -1.3192
23036SOL    HW271551   9.286   0.710   3.884  1.8695 -0.2810 -0.0975
23037SOL     OW71552   2.627   1.613   4.223  0.5914 -0.5097  0.1264
23037SOL    HW171553   2.561   1.546   4.240  0.4664 -0.3735  0.1810
23037SOL    HW271554   2.698   1.567   4.179  1.1191 -0.9760  1.4119
23038SOL     OW71555   0.131   0.340   1.464  0.0407  0.4141 -0.5810
23038SOL    HW171556   0.038   0.330   1.482  0.3510  1.0992  1.6925
23038SOL    HW271557   0.175   0.281   1.526  1.1369  0.1734 -1.5453
23039SOL     OW71558   0.229   5.086   8.089 -0.1838  0.2694 -0.3362
23039SOL    HW171559   0.244   5.107   7.997 -0.2677  0.8280 -0.2269
23039SOL    HW271560   0.155   5.025   8.088 -1.4666  1.7532 -0.5411
23040SOL     OW71561   2.221   4.553   0.575  0.4023  0.2194  0.3563
23040SOL    HW171562   2.288   4.492   0.545  0.2456  0.4532 -0.5066
23040SOL    HW271563   2.248   4.638   0.539  0.5343  0.6438  1.4072
23041SOL     OW71564   3.567   5.339   2.354 -0.8164 -0.1925 -0.5931
23041SOL    HW171565   3.622   5.362   2.279 -1.2627  1.3457 -0.4943
23041SOL    HW271566   3.546   5.247   2.342  0.1518 -0.2944 -1.6819
23042SOL     OW71567   6.099   7.669   1.562 -0.0045 -0.1421 -0.1317
23042SOL    HW171568   6.146   7.745   1.527  2.4689 -0.8309  1.3806
23042SOL    HW271569   6.035   7.706   1.623 -0.1272  0.7844 -0.8055
23043SOL     OW71570   0.597   1.917   6.573 -0.0256  0.6054 -0.4982
23043SOL    HW171571   0.583   1.874   6.657  0.0748  0.4496 -0.5617
23043SOL    HW271572   0.597   1.846   6.509 -0.5318  0.7616 -0.6818
23044SOL     OW71573   6.405   4.896   0.677  0.8529  0.1712  0.1082
23044SOL    HW171574   6.418   4.897   0.772  1.4161  0.7203  0.0298
23044SOL    HW271575   6.450   4.817   0.647  1.2825  0.3671  0.2233
23045SOL     OW71576   9.175   7.382   8.326 -0.3590 -0.4617  0.2702
23045SOL    HW171577   9.211   7.335   8.251 -0.5132 -1.1696  0.6266
23045SOL    HW271578   9.236   7.362   8.398 -1.8579 -2.3497  1.0834
23046SOL     OW71579   5.294   9.961   0.421 -0.5490 -0.5855  0.3847
23046SOL    HW171580   5.271   9.934   0.510 -0.5332  0.8852  0.8568
23046SOL    HW271581   5.230   9.916   0.365  0.4986 -2.9182  0.9345
23047SOL     OW71582   0.349   6.857   0.953 -0.2899 -0.2584  0.2040
23047SOL    HW171583   0.409   6.799   0.907  1.3153  0.9232  0.6888
23047SOL    HW271584   0.362   6.837   1.046  0.8036  1.2627  0.4271
23048SOL     OW71585   2.901   8.559   7.021  0.3815 -0.0100  0.6365
23048SOL    HW171586   2.888   8.574   7.114 -1.0552 -0.6072  0.5542
23048SOL    HW271587   2.895   8.464   7.010 -1.6010  0.1747 -0.3183
23049SOL     OW71588   5.391   9.138  10.038  0.0845 -0.4017 -0.0614
23049SOL    HW171589   5.454   9.065  10.033  1.7321  1.0034 -0.9214
23049SOL    HW271590   5.317   9.109   9.984  0.6590 -1.4716 -0.3194
23050SOL     OW71591   3.460   4.974   9.264 -0.2676  0.1698  0.1894
23050SOL    HW171592   3.414   4.928   9.193  1.3153  0.2115 -0.9305
23050SOL    HW271593   3.461   5.066   9.236 -0.7333  0.3996  0.9090
23051SOL     OW71594   7.622   3.704   5.927 -0.0029 -0.2219  0.8211
23051SOL    HW171595   7.601   3.653   5.849  1.1350  0.8271 -0.2304
23051SOL    HW271596   7.707   3.670   5.955 -0.1155 -0.1657  1.2399
23052SOL     OW71597   4.014   6.421   6.909 -0.0932  0.5596  1.0179
23052SOL    HW171598   3.964   6.419   6.991 -0.9298 -0.7590  0.5048
23052SOL    HW271599   3.961   6.474   6.850  0.3584  1.2509  1.2215
23053SOL     OW71600   6.093   6.819   8.513 -0.9663  0.4547 -0.6601
23053SOL    HW171601   6.080   6.730   8.546  0.8736  0.1901 -0.5525
23053SOL    HW271602   6.062   6.875   8.584 -1.4472 -0.0878 -0.4297
23054SOL     OW71603   0.831   3.659   7.993  0.0997  0.0460 -0.4187
23054SOL    HW171604   0.913   3.619   8.021 -0.0547 -1.1778 -1.6200
23054SOL    HW271605   0.833   3.747   8.031  1.6768 -0.1688  0.0694
23055SOL     OW71606   2.672   0.452   2.722  0.0391  0.1154 -0.3570
23055SOL    HW171607   2.638   0.541   2.727 -1.3125 -0.1904 -2.5827
23055SOL    HW271608   2.740   0.448   2.789 -1.9228  1.8626  1.8931
23056SOL     OW71609   5.543   7.312   3.829 -0.5523 -0.1458 -0.1968
23056SOL    HW171610   5.569   7.401   3.849 -2.1593  0.2296  0.3536
23056SOL    HW271611   5.609   7.281   3.767  0.9364  0.8496  0.8372
23057SOL     OW71612   9.298   9.202   9.708 -0.9240  0.3853  0.1264
23057SOL    HW171613   9.230   9.195   9.641 -1.5097  0.2758  0.7179
23057SOL    HW271614   9.286   9.289   9.746  0.2157  0.9452 -0.7489
23058SOL     OW71615   6.767  10.358   2.978 -0.4321 -0.4090 -0.1453
23058SOL    HW171616   6.784  10.433   2.920  0.3582 -1.4626 -1.3541
23058SOL    HW271617   6.793  10.389   3.065 -0.0700  0.7102 -0.6246
23059SOL     OW71618   9.353   6.463   0.684  0.0380 -0.4804  0.3698
23059SOL    HW171619   9.263   6.431   0.680  0.4629 -1.6241 -1.2883
23059SOL    HW271620   9.398   6.401   0.741  0.3035 -1.4275 -0.8306
23060SOL     OW71621   5.014   4.568   0.473 -0.1818  0.1857  0.1669
23060SOL    HW171622   4.963   4.518   0.410  2.0943  1.8198 -3.2968
23060SOL    HW271623   4.955   4.637   0.502 -0.8083  0.4828 -1.6919
23061SOL     OW71624   3.064   6.571   7.406 -0.5869 -0.5545 -0.4382
23061SOL    HW171625   3.093   6.491   7.449  3.3433  0.8776 -0.0191
23061SOL    HW271626   3.111   6.572   7.322 -2.3310  0.3023 -1.4773
23062SOL     OW71627  10.163   3.557   0.711  0.0919  0.2371 -0.2192
23062SOL    HW171628  10.116   3.628   0.668  0.0536  0.9292  0.9225
23062SOL    HW271629  10.231   3.602   0.762  1.3602 -0.6732 -1.0249
23063SOL     OW71630   5.574   5.107   2.634  0.2163  0.1907 -0.3407
23063SOL    HW171631   5.590   5.140   2.545  0.5239  2.4084  0.4552
23063SOL    HW271632   5.658   5.117   2.679 -0.0375 -0.5402  0.3182
23064SOL     OW71633   0.337   5.570   1.526 -0.0639  0.0584 -0.1754
23064SOL    HW171634   0.317   5.654   1.569 -0.6435 -0.7433  1.1669
23064SOL    HW271635   0.403   5.592   1.460  1.2744  1.2522  1.4862
23065SOL     OW71636   5.260   0.226   8.158 -0.5016 -0.1772  0.1109
23065SOL    HW171637   5.332   0.162   8.163  1.3663  1.9030  3.9225
23065SOL    HW271638   5.185   0.180   8.196  0.6367 -0.4520  2.1959
23066SOL     OW71639   7.913   8.787   0.814  0.3933  0.4917 -0.8828
23066SOL    HW171640   7.849   8.737   0.864  0.5710  0.9845 -0.1450
23066SOL    HW271641   7.889   8.879   0.830  1.8431  0.7175  0.2080
23067SOL     OW71642   8.063   9.395   1.573  0.3027 -0.1986  0.2966
23067SOL    HW171643   8.133   9.342   1.535  0.3173 -0.1912  0.3130
23067SOL    HW271644   7.988   9.380   1.516 -0.0940 -1.3428  1.0900
23068SOL     OW71645   8.511   9.285  10.122 -0.0119  0.1279 -0.5014
23068SOL    HW171646   8.583   9.240  10.166 -1.2503 -0.2327  1.2822
23068SOL    HW271647   8.521   9.263  10.030  0.9023 -1.7306  0.0020
23069SOL     OW71648   8.993   4.563   5.379 -0.3268  0.1701  0.1196
23069SOL    HW171649   8.971   4.486   5.326  1.6338  0.3200 -0.9755
23069SOL    HW271650   9.008   4.527   5.467 -2.1435 -0.2764  0.2978
23070SOL     OW71651   2.457   5.220   7.100 -0.0878  0.1610 -0.2458
23070SOL    HW171652   2.456   5.220   7.196 -1.3276  0.7936 -0.2352
23070SOL    HW271653   2.459   5.312   7.076 -0.4718  0.0236 -0.8263
23071SOL     OW71654   2.382   1.061   5.568 -0.0814 -0.6902  0.7596
23071SOL    HW171655   2.299   1.098   5.537  1.1633  0.3621 -1.5901
23071SOL    HW271656   2.387   0.975   5.528  0.1804 -0.5463  0.4797
23072SOL     OW71657   1.155   1.093   2.301  0.1994  0.0672 -0.6239
23072SOL    HW171658   1.181   1.003   2.317 -2.0227 -0.6981 -1.0009
23072SOL    HW271659   1.210   1.122   2.229 -0.1950 -1.5741 -1.6168
23073SOL     OW71660   0.220   0.509   0.800 -0.2698 -0.0548 -0.1845
23073SOL    HW171661   0.279   0.568   0.753  0.5852 -0.8504 -0.1230
23073SOL    HW271662   0.133   0.531   0.766  0.0385  1.1443 -0.2579
23074SOL     OW71663   1.652   4.466   5.522 -0.0137  0.3401 -0.2257
23074SOL    HW171664   1.641   4.539   5.583  2.5045  2.9719 -2.5718
23074SOL    HW271665   1.589   4.483   5.453  0.4237  0.1794 -0.6725
23075SOL     OW71666   8.638   0.413   8.844  0.5275  0.1520  0.3749
23075SOL    HW171667   8.715   0.453   8.803  0.6777 -1.2213 -0.7920
23075SOL    HW271668   8.645   0.320   8.821 -1.2596 -0.0774  0.5959
23076SOL     OW71669   4.964   6.597   6.289  0.3074 -0.1326  0.1850
23076SOL    HW171670   5.017   6.657   6.340  0.4543  0.5501 -0.7423
23076SOL    HW271671   4.913   6.548   6.354  1.2534 -0.0322  1.0188
23077SOL     OW71672   7.847   3.462   9.175  0.4497  0.1738  0.1289
23077SOL    HW171673   7.918   3.525   9.161  0.8944 -0.6604 -1.8647
23077SOL    HW271674   7.891   3.386   9.213  0.5507 -0.1370 -0.5880
23078SOL     OW71675  10.252   0.485   8.102 -0.2415  0.0416 -0.1787
23078SOL    HW171676  10.289   0.546   8.166 -0.6345  2.1057 -1.8102
23078SOL    HW271677  10.324   0.467   8.042 -0.5848  0.3275 -0.6875
23079SOL     OW71678   6.903   7.315   6.692  0.1152  0.0250  0.2780
23079SOL    HW171679   6.935   7.380   6.630  0.4560  0.2693  0.7072
23079SOL    HW271680   6.977   7.299   6.751 -0.4954  0.4969  1.1993
23080SOL     OW71681   7.703   3.814   3.689 -0.2076 -0.2657 -0.6169
23080SOL    HW171682   7.784   3.791   3.734 -0.6032  0.8232  0.7540
23080SOL    HW271683   7.713   3.906   3.667 -1.7824  0.4509  1.3418
23081SOL     OW71684   6.392   3.645   8.526 -0.1204  0.0296  0.2427
23081SOL    HW171685   6.405   3.738   8.545 -1.5695  0.1758  0.6239
23081SOL    HW271686   6.439   3.631   8.443 -1.5295  1.5784 -0.8749
23082SOL     OW71687   6.227   3.830   0.243  0.0078 -0.1931  0.2034
23082SOL    HW171688   6.281   3.877   0.306 -1.4423 -0.6715  1.8797
23082SOL    HW271689   6.231   3.884   0.163  1.4205  0.7381  0.8666
23083SOL     OW71690   7.880   2.301   9.964  0.6274  0.0388 -0.8465
23083SOL    HW171691   7.883   2.377   9.905 -0.9038  1.0147  0.2553
23083SOL    HW271692   7.946   2.320  10.031  0.8828 -0.0341 -1.0798
23084SOL     OW71693   3.898   1.461   2.268 -0.6725  0.4757  0.5772
23084SOL    HW171694   3.989   1.466   2.299  0.5335  1.2774 -2.6704
23084SOL    HW271695   3.863   1.549   2.279 -0.3708  0.6654  0.0622
23085SOL     OW71696   6.481   3.102   8.776  0.0039 -0.5035 -0.3356
23085SOL    HW171697   6.563   3.122   8.730 -0.6610 -0.0595 -1.3600
23085SOL    HW271698   6.465   3.178   8.832 -0.9633  0.5675 -1.9848
23086SOL     OW71699   5.722   1.192   8.452  0.2960 -0.1078  0.2523
23086SOL    HW171700   5.672   1.140   8.515 -1.2483 -0.0845 -0.8911
23086SOL    HW271701   5.655   1.234   8.398  1.5493  1.6003 -0.0329
23087SOL     OW71702   6.202   8.300   0.102  0.4285 -0.6990 -0.2573
23087SOL    HW171703   6.117   8.342   0.117  1.4779  0.8251  1.9260
23087SOL    HW271704   6.219   8.314   0.009 -0.7040  1.0226 -0.2602
23088SOL     OW71705   1.645   3.350   9.806  0.3770  0.2229 -0.3613
23088SOL    HW171706   1.626   3.317   9.718 -1.8595 -1.0888  0.5397
23088SOL    HW271707   1.606   3.438   9.807 -0.8319 -0.2879 -0.2968
23089SOL     OW71708   5.932   7.190  10.161  0.4957 -0.1250  0.6447
23089SOL    HW171709   5.931   7.231  10.075  1.2444  0.4584  0.8983
23089SOL    HW271710   6.024   7.170  10.177  0.2237 -1.2888  0.8287
23090SOL     OW71711   5.505   5.934   5.691 -0.0146  0.0621  0.3121
23090SOL    HW171712   5.538   6.023   5.689  1.4594 -0.4593 -0.3967
23090SOL    HW271713   5.577   5.883   5.728 -0.4298 -0.9713 -0.2548
23091SOL     OW71714   7.662   4.261   2.247  0.0140  0.3032  0.6752
23091SOL    HW171715   7.705   4.260   2.162  1.5976  1.4479  1.4251
23091SOL    HW271716   7.573   4.291   2.228 -0.2499 -1.2314 -0.7810
23092SOL     OW71717   7.797  10.032   3.082  0.4441 -0.4317 -0.1861
23092SOL    HW171718   7.724  10.062   3.136 -0.7509 -2.1144 -0.7882
23092SOL    HW271719   7.826   9.951   3.123 -0.1423 -1.4590 -1.7026
23093SOL     OW71720   4.331   1.985   4.568  0.1233 -0.0053  0.2971
23093SOL    HW171721   4.271   1.912   4.554 -0.0940  0.4686 -1.4700
23093SOL    HW271722   4.388   1.985   4.491  0.9942  0.8656  0.9161
23094SOL     OW71723   8.901   8.252   6.840  0.2178 -0.4682  0.3198
23094SOL    HW171724   8.892   8.159   6.818 -0.2998 -0.5533  0.8767
23094SOL    HW271725   8.847   8.264   6.918  1.8052 -0.1153  1.4282
23095SOL     OW71726   8.997   3.988   5.760  0.2949  0.3788 -0.7812
23095SOL    HW171727   8.933   3.961   5.826  0.6549  0.5073 -0.3753
23095SOL    HW271728   9.055   3.913   5.752  1.8790  1.3369  1.0596
23096SOL     OW71729   2.280   0.092   0.509  0.2153 -0.2180  0.2242
23096SOL    HW171730   2.250   0.065   0.595 -0.8231  1.9032  0.5889
23096SOL    HW271731   2.329   0.173   0.525  1.2162 -0.5376 -1.0416
23097SOL     OW71732   7.829   7.450   0.234  0.8367  0.9752 -0.5408
23097SOL    HW171733   7.791   7.508   0.299  0.9725  0.9651 -0.4513
23097SOL    HW271734   7.756   7.398   0.202 -0.1575  3.8715 -3.5565
23098SOL     OW71735   9.498   7.066   6.317 -0.0311  0.2276 -0.0120
23098SOL    HW171736   9.481   7.026   6.402  0.2864 -1.5879 -0.7468
23098SOL    HW271737   9.576   7.120   6.330 -0.3912  0.5179  0.9916
23099SOL     OW71738   9.532  10.182   4.809 -0.1985 -0.0822 -0.4961
23099SOL    HW171739   9.623  10.209   4.797 -0.4484  1.5169  0.9366
23099SOL    HW271740   9.484  10.263   4.824 -1.4641 -1.0710  1.1151
23100SOL     OW71741   9.267   0.015   8.150 -0.3573 -0.7439  0.4799
23100SOL    HW171742   9.260   0.008   8.245 -1.6763 -0.5152  0.4154
23100SOL    HW271743   9.304  -0.068   8.122  0.9659 -0.4378  1.2698
23101SOL     OW71744   1.032   1.233   5.552  0.0597 -0.3795 -0.0542
23101SOL    HW171745   0.945   1.195   5.539 -0.5350  0.9500 -0.0657
23101SOL    HW271746   1.017   1.327   5.560  1.7226  0.2417 -2.7212
23102SOL     OW71747   3.304  10.280   4.854  0.3074  1.0810  0.3943
23102SOL    HW171748   3.246  10.345   4.893 -0.4602  0.7685 -0.2014
23102SOL    HW271749   3.336  10.322   4.774 -1.1589  0.3040 -0.6484
23103SOL     OW71750   3.323   2.198   0.707  0.0772 -0.3739 -0.3350
23103SOL    HW171751   3.307   2.279   0.757 -2.3331 -1.8446  1.5058
23103SOL    HW271752   3.252   2.196   0.643 -1.9459 -2.4695  1.7621
23104SOL     OW71753   1.190   4.314  10.384  0.3754 -0.0522 -0.1348
23104SOL    HW171754   1.215   4.406  10.377 -0.4289  0.5575  3.1418
23104SOL    HW271755   1.111   4.306  10.330  0.0295  1.4047  0.1099
23105SOL     OW71756   5.066   2.196   1.364  0.1511  0.2378 -0.2315
23105SOL    HW171757   5.020   2.211   1.447  1.4467  2.0910  0.2045
23105SOL    HW271758   5.052   2.275   1.313  1.1358 -0.0023 -0.9222
23106SOL     OW71759   3.743   9.155   7.463 -0.3804 -0.1371 -0.1912
23106SOL    HW171760   3.670   9.215   7.445  0.2699  0.5585 -0.5514
23106SOL    HW271761   3.702   9.081   7.506 -1.5019 -0.3082 -1.4677
23107SOL     OW71762   3.387   4.601   0.636 -0.1627 -0.6064 -0.4005
23107SOL    HW171763   3.293   4.619   0.641 -0.0523 -0.2897  0.9826
23107SOL    HW271764   3.398   4.548   0.557 -1.6425 -1.5261 -0.0158
23108SOL     OW71765   0.622  10.256   6.250  0.3727 -0.2552  0.3490
23108SOL    HW171766   0.625  10.342   6.293  0.0563 -0.8974  1.7145
23108SOL    HW271767   0.696  10.256   6.191  1.7194  0.1568  1.9638
23109SOL     OW71768   2.316   5.029   1.175  0.2236 -0.7796  0.2638
23109SOL    HW171769   2.240   4.982   1.142  1.3167 -1.5375 -1.2473
23109SOL    HW271770   2.310   5.020   1.270 -2.5156  0.7136  0.3497
23110SOL     OW71771   4.438   4.884   5.242 -0.6856 -0.2092  0.2422
23110SOL    HW171772   4.357   4.910   5.287  1.4157  1.0366  3.7740
23110SOL    HW271773   4.424   4.793   5.217 -2.7408 -0.4229  1.9157
23111SOL     OW71774   9.083   8.501   8.352 -0.5562 -0.1459 -0.4008
23111SOL    HW171775   9.081   8.588   8.393 -2.5203 -0.0367 -0.6402
23111SOL    HW271776   9.000   8.495   8.304 -0.8823 -2.5107  0.3367
23112SOL     OW71777   2.330   2.932   8.474  0.0813 -0.4896  0.3133
23112SOL    HW171778   2.417   2.929   8.432  0.0316  0.1258  0.1550
23112SOL    HW271779   2.347   2.908   8.565  0.7702  1.6050  0.8079
23113SOL     OW71780   2.107   0.575  10.031 -0.2366 -0.6965 -0.2207
23113SOL    HW171781   2.085   0.493  10.076 -2.7095 -0.7300 -1.3378
23113SOL    HW271782   2.023   0.614  10.011  0.7803  0.1472 -3.2922
23114SOL     OW71783   2.675   6.131   8.536 -0.3422 -0.0566 -0.0078
23114SOL    HW171784   2.686   6.219   8.573 -0.3426 -0.1307  0.1687
23114SOL    HW271785   2.685   6.143   8.442 -0.4875  0.1570  0.0038
23115SOL     OW71786   6.586   7.149   6.352  0.0609 -0.2901  0.4437
23115SOL    HW171787   6.496   7.138   6.323  0.4668  0.3739 -1.2354
23115SOL    HW271788   6.583   7.221   6.414 -0.6614 -0.8271  1.0518
23116SOL     OW71789   5.733   2.383   4.736  0.0639 -0.1320 -0.4491
23116SOL    HW171790   5.786   2.415   4.664 -0.1503  1.7181  0.1593
23116SOL    HW271791   5.781   2.408   4.815 -0.6728 -0.3366  0.0850
23117SOL     OW71792   2.484   7.093   5.925 -0.4691 -0.3773 -0.0662
23117SOL    HW171793   2.409   7.047   5.888  0.3794 -1.5713 -0.3479
23117SOL    HW271794   2.552   7.087   5.859  0.4025 -0.7229  0.8298
23118SOL     OW71795   9.367   1.437   1.181  0.4813 -0.0414  0.1363
23118SOL    HW171796   9.463   1.441   1.182  0.6470 -2.2695 -0.8759
23118SOL    HW271797   9.340   1.501   1.246  2.7039 -0.2528  1.3678
23119SOL     OW71798   7.132  10.429  10.205 -0.4748 -0.1915  0.3247
23119SOL    HW171799   7.125  10.485  10.128 -2.4280  0.1022  0.6630
23119SOL    HW271800   7.162  10.344  10.171 -1.0364  0.0155 -0.7197
23120SOL     OW71801   9.140   2.930   1.851 -0.0311  0.1660  0.5419
23120SOL    HW171802   9.118   2.978   1.931  0.9975  0.3998  0.7007
23120SOL    HW271803   9.064   2.941   1.795  0.0976  1.8818  0.6360
23121SOL     OW71804   0.904   9.311   3.857  0.3090 -0.0680  0.1587
23121SOL    HW171805   0.978   9.275   3.906  0.7654  1.1747  0.4221
23121SOL    HW271806   0.827   9.272   3.897  0.7883 -0.9265  0.2718
23122SOL     OW71807   8.865   3.640   7.756 -0.0561 -0.0325  0.0361
23122SOL    HW171808   8.828   3.691   7.684  1.0711  0.7564 -0.0124
23122SOL    HW271809   8.799   3.645   7.825  0.1943  1.9134  0.1979
23123SOL     OW71810   7.335   1.672   0.844 -0.1074 -0.2947  0.3200
23123SOL    HW171811   7.251   1.698   0.883 -0.6155  0.0007 -0.8921
23123SOL    HW271812   7.355   1.587   0.882 -1.9077 -1.2328 -0.7006
23124SOL     OW71813   6.460   7.962   0.733 -0.3809  0.4876 -0.9821
23124SOL    HW171814   6.457   7.981   0.640 -1.1439 -0.4076 -1.1620
23124SOL    HW271815   6.446   8.046   0.776 -0.7216  0.7955 -1.6873
23125SOL     OW71816   7.926   1.071   3.158 -0.3137  0.2658 -0.0234
23125SOL    HW171817   7.881   1.110   3.233 -2.4667 -2.5457  0.3019
23125SOL    HW271818   8.007   1.036   3.195 -1.1132 -0.6303  0.9354
23126SOL     OW71819  10.434   8.497   4.444 -0.3077 -0.0948 -0.1090
23126SOL    HW171820  10.504   8.442   4.481  2.0745  1.4256 -2.0323
23126SOL    HW271821  10.438   8.578   4.495 -0.6376  0.0142 -0.2564
23127SOL     OW71822   7.831   2.074   1.756  0.4212 -0.1495 -0.6510
23127SOL    HW171823   7.875   2.149   1.716  0.2951 -0.3809 -1.2260
23127SOL    HW271824   7.757   2.112   1.804  0.4978  0.1141 -0.7399
23128SOL     OW71825   7.259   3.785   3.311 -0.1507  0.0854  0.0119
23128SOL    HW171826   7.334   3.796   3.369 -1.5574  1.1542  1.7148
23128SOL    HW271827   7.249   3.869   3.267 -0.3077 -0.0614 -0.2374
23129SOL     OW71828   4.869   3.448   7.444  0.1272  0.8791  0.0934
23129SOL    HW171829   4.940   3.433   7.506  0.2356  1.3991  0.1044
23129SOL    HW271830   4.913   3.480   7.364  0.0332 -0.2597 -0.4293
23130SOL     OW71831   0.808   4.706   9.411 -0.3034 -0.7751  0.1355
23130SOL    HW171832   0.763   4.622   9.403 -0.8372 -0.4087 -0.7970
23130SOL    HW271833   0.774   4.744   9.492 -0.2734 -1.3182  0.4082
23131SOL     OW71834   6.487   0.581   0.884 -0.4924 -0.3601 -0.3757
23131SOL    HW171835   6.426   0.639   0.838 -0.5514 -0.1285 -0.0055
23131SOL    HW271836   6.563   0.575   0.826  0.5036  1.9295  0.6087
23132SOL     OW71837   7.657   4.453   3.029 -0.0085 -0.2911  0.1318
23132SOL    HW171838   7.601   4.376   3.038 -0.3089  0.0927  2.0926
23132SOL    HW271839   7.621   4.501   2.955  1.4851 -3.0025 -2.6342
23133SOL     OW71840   1.973   2.741   6.557 -0.1653  0.5372 -0.0724
23133SOL    HW171841   2.054   2.734   6.609 -0.5795 -1.0007  0.4185
23133SOL    HW271842   1.998   2.711   6.470 -0.3467 -0.6284  0.2611
23134SOL     OW71843   9.761   4.993   1.665  0.1655 -0.3962 -0.5557
23134SOL    HW171844   9.699   4.925   1.638 -0.1631  0.1556 -1.2435
23134SOL    HW271845   9.806   5.018   1.584  0.9259 -0.4384 -0.1433
23135SOL     OW71846   6.126   0.954   1.719 -0.9801 -0.1557  0.3900
23135SOL    HW171847   6.046   0.932   1.765 -1.2685  0.5696  0.2417
23135SOL    HW271848   6.196   0.930   1.780 -1.3427  0.3631  1.0271
23136SOL     OW71849   8.413   1.988   9.479 -0.1142 -0.1562 -0.5079
23136SOL    HW171850   8.404   2.048   9.404  1.4648  0.4131 -0.2678
23136SOL    HW271851   8.459   1.913   9.443  1.7865  0.6548  0.1291
23137SOL     OW71852   6.225   9.468   2.121 -0.1348 -0.1666  0.0899
23137SOL    HW171853   6.183   9.383   2.106 -0.8793 -0.0867  1.5159
23137SOL    HW271854   6.187   9.525   2.054  0.8869 -1.0899 -1.3223
23138SOL     OW71855   6.524   2.528   2.390 -0.3370 -0.6572  0.2746
23138SOL    HW171856   6.588   2.464   2.360  0.2278  0.2431 -0.5123
23138SOL    HW271857   6.514   2.511   2.484 -1.0886 -2.6454 -0.1249
23139SOL     OW71858   8.801   0.139   4.695  0.4802  0.0427  0.8753
23139SOL    HW171859   8.728   0.126   4.635  0.6738 -0.1398  0.6792
23139SOL    HW271860   8.789   0.228   4.728  0.2754  0.0818  0.6995
23140SOL     OW71861   0.800   6.224   8.489 -0.4360  0.1835 -0.2333
23140SOL    HW171862   0.808   6.265   8.403  2.5372  0.5738  0.1120
23140SOL    HW271863   0.738   6.280   8.537 -3.0935 -0.7032 -2.3726
23141SOL     OW71864   3.895   5.029   5.324 -0.0319  0.2698 -0.3794
23141SOL    HW171865   3.906   4.935   5.305 -1.7609  0.3137 -1.9431
23141SOL    HW271866   3.823   5.033   5.386  0.7039  0.5319  0.4712
23142SOL     OW71867   1.036   4.747  10.002 -0.3328 -0.1858  0.4171
23142SOL    HW171868   1.106   4.692  10.036 -0.3159 -0.9220 -0.7455
23142SOL    HW271869   0.956   4.708  10.038 -0.2323 -0.1140  0.7223
23143SOL     OW71870  10.305   9.788  10.280  0.5701 -0.3096  0.4924
23143SOL    HW171871  10.267   9.792  10.193  0.4680  0.4961  0.5644
23143SOL    HW271872  10.296   9.697  10.307 -1.4683 -0.1358  0.5668
23144SOL     OW71873   1.615   1.903   3.542 -0.0402 -0.6223  0.2789
23144SOL    HW171874   1.558   1.895   3.465  1.0158  1.6520 -0.8336
23144SOL    HW271875   1.569   1.964   3.599  1.7894  2.4778 -1.3122
23145SOL     OW71876   6.649   5.959   8.779 -0.3905  0.2543  0.1610
23145SOL    HW171877   6.567   5.913   8.795  0.4002 -0.9984  0.7852
23145SOL    HW271878   6.663   5.952   8.685 -1.5635  1.5169 -0.1433
23146SOL     OW71879   0.007   4.808   8.867 -0.0629 -0.2143 -0.3314
23146SOL    HW171880   0.046   4.833   8.784 -0.4465 -0.5624 -0.6177
23146SOL    HW271881  -0.081   4.778   8.845 -0.6703  0.9756  0.3580
23147SOL     OW71882   2.834   4.266   0.237  0.0272  0.5398 -0.2606
23147SOL    HW171883   2.862   4.200   0.301 -1.3837  1.0373  0.9410
23147SOL    HW271884   2.863   4.232   0.153 -0.0519 -1.2765  0.4048
23148SOL     OW71885   7.522   9.676   6.701  0.0583  0.2747  0.4846
23148SOL    HW171886   7.505   9.635   6.616  0.4796 -1.7057  1.2962
23148SOL    HW271887   7.607   9.720   6.689  0.9167 -1.3629  0.3112
23149SOL     OW71888   8.724   2.664   5.184 -0.1097  0.7778 -0.2354
23149SOL    HW171889   8.742   2.689   5.274  2.7969  0.3716 -0.5939
23149SOL    HW271890   8.688   2.576   5.190 -0.9826  1.1660  0.5358
23150SOL     OW71891   4.486   6.121   0.859  0.6379 -0.2589 -0.2582
23150SOL    HW171892   4.394   6.147   0.851  0.5877  0.1280  1.3032
23150SOL    HW271893   4.505   6.130   0.952  1.4790 -3.0631 -0.0889
23151SOL     OW71894   3.339   5.859   1.690 -0.6766 -0.2064 -0.1186
23151SOL    HW171895   3.421   5.810   1.698 -0.0521  1.0213  1.4233
23151SOL    HW271896   3.279   5.797   1.648  0.9864 -1.1725 -1.2105
23152SOL     OW71897   8.168   5.998   1.105 -0.5250  0.2801  0.5015
23152SOL    HW171898   8.073   6.009   1.109 -1.1776 -3.8627  1.9877
23152SOL    HW271899   8.200   6.023   1.192 -0.7779 -1.2222  1.0526
23153SOL     OW71900   7.671   1.268   5.811 -0.0060  0.0369  0.0115
23153SOL    HW171901   7.653   1.328   5.738 -0.3347  0.5402  0.4919
23153SOL    HW271902   7.667   1.181   5.772  0.8327  0.3344 -0.7747
23154SOL     OW71903   1.331   2.853   1.063  0.4060  0.2824 -0.2858
23154SOL    HW171904   1.290   2.867   0.978  2.1476  1.7279 -0.9729
23154SOL    HW271905   1.319   2.936   1.109  0.6497 -0.0299  0.3536
23155SOL     OW71906   2.249   3.186   0.400 -0.3659  0.0979 -0.0660
23155SOL    HW171907   2.276   3.146   0.483 -0.0653 -1.0089 -0.6843
23155SOL    HW271908   2.330   3.216   0.359 -0.6016  1.6190  0.4912
23156SOL     OW71909   6.805   8.596   7.537  0.4643  0.2581  0.4946
23156SOL    HW171910   6.789   8.689   7.556 -0.5180  0.1516  0.2273
23156SOL    HW271911   6.742   8.549   7.593  0.1059 -0.1938 -0.2740
23157SOL     OW71912   1.718   1.840  10.020 -0.2571  0.5137 -0.4547
23157SOL    HW171913   1.749   1.845   9.930 -0.1633 -1.2577 -0.5629
23157SOL    HW271914   1.745   1.754  10.050 -2.6264 -0.0372  0.3731
23158SOL     OW71915   0.193   3.810   5.730  0.5589  0.4268  0.7226
23158SOL    HW171916   0.281   3.800   5.766  0.8563 -0.5035 -0.2351
23158SOL    HW271917   0.135   3.779   5.800  1.0627 -0.1682  0.8813
23159SOL     OW71918   7.817   1.095   5.465 -0.6771 -0.6203  0.5256
23159SOL    HW171919   7.872   1.155   5.515 -1.3724  1.8653 -1.4813
23159SOL    HW271920   7.873   1.064   5.394 -1.5914  1.5723 -1.2650
23160SOL     OW71921   8.376   4.684   1.074 -0.2813  0.1954  0.1392
23160SOL    HW171922   8.393   4.777   1.057 -1.1475  0.6405  1.5264
23160SOL    HW271923   8.435   4.661   1.146 -2.8934  0.8584  2.6761
23161SOL     OW71924   0.182   3.698   3.113 -0.0966  0.0119 -0.1092
23161SOL    HW171925   0.256   3.640   3.092 -0.1127  0.4690 -1.5574
23161SOL    HW271926   0.218   3.761   3.176  0.6512 -0.0082 -0.4950
23162SOL     OW71927   4.153   8.796   6.557  0.2010 -0.4849  0.4158
23162SOL    HW171928   4.134   8.716   6.508 -1.8668 -0.3275  0.8885
23162SOL    HW271929   4.229   8.834   6.512  0.3390 -1.9641 -0.6815
23163SOL     OW71930   6.771   7.129   6.140 -0.1174  0.0925  0.3724
23163SOL    HW171931   6.726   7.114   6.223  0.3547  0.1477  0.6413
23163SOL    HW271932   6.862   7.105   6.157 -0.2144 -0.9024 -0.4182
23164SOL     OW71933   5.600   3.230   0.913 -0.1788  0.7922 -0.1937
23164SOL    HW171934   5.535   3.267   0.853  0.0488 -0.0883 -1.0155
23164SOL    HW271935   5.548   3.181   0.977 -0.4277  1.8108  0.4069
23165SOL     OW71936   9.549   9.070   9.683 -0.0695 -0.2804 -0.1770
23165SOL    HW171937   9.499   9.144   9.718 -0.4271 -0.9295  0.6815
23165SOL    HW271938   9.508   8.993   9.720  0.4402 -0.9123 -0.9067
23166SOL     OW71939   0.486   9.050   8.997 -0.0288  0.5223  0.0256
23166SOL    HW171940   0.525   8.990   9.061 -0.3861 -0.1345 -0.3593
23166SOL    HW271941   0.560   9.095   8.957  0.2444  0.3542  0.3427
23167SOL     OW71942   5.775   1.040   2.753  0.5190  0.1990  0.1633
23167SOL    HW171943   5.752   1.116   2.806  2.5355  0.6520  0.4838
23167SOL    HW271944   5.800   1.076   2.668  0.0087 -0.2513 -0.1803
23168SOL     OW71945   2.532   7.408   5.929 -0.2112 -0.0242 -0.5839
23168SOL    HW171946   2.448   7.441   5.961 -1.1802 -0.7411 -2.2326
23168SOL    HW271947   2.514   7.316   5.906  0.8754 -0.0336 -1.4626
23169SOL     OW71948   5.484   5.021  10.051  0.3334 -0.3519  0.0582
23169SOL    HW171949   5.450   4.963  10.120  0.3497 -0.2847  0.1229
23169SOL    HW271950   5.455   4.980   9.970  1.8503 -1.4492  0.0256
23170SOL     OW71951  10.234   3.533   6.460  0.4569 -0.2947 -0.0448
23170SOL    HW171952  10.304   3.537   6.395  0.0013 -2.6849 -0.7633
23170SOL    HW271953  10.182   3.456   6.436 -1.8136  0.7571  1.0939
23171SOL     OW71954   1.816   8.894   5.369 -0.1705  0.1851  0.6209
23171SOL    HW171955   1.841   8.982   5.340  2.1282 -0.4220  0.5647
23171SOL    HW271956   1.855   8.835   5.305  0.2882 -0.9584  1.9141
23172SOL     OW71957   2.743   7.543   2.484 -0.2767  0.8388 -0.4329
23172SOL    HW171958   2.683   7.602   2.438 -1.2812 -1.0550 -1.7423
23172SOL    HW271959   2.830   7.578   2.468 -0.8086  1.6545 -1.6309
23173SOL     OW71960   4.134   7.312   4.364  0.3584 -0.0331 -0.0064
23173SOL    HW171961   4.084   7.356   4.433 -0.7021 -1.8962  0.4989
23173SOL    HW271962   4.088   7.229   4.351  2.0737 -0.8686 -1.1129
23174SOL     OW71963   9.873   1.917   5.879 -0.1965 -0.5809  0.4844
23174SOL    HW171964   9.823   1.851   5.927 -0.8545 -0.0811  0.5155
23174SOL    HW271965   9.897   1.981   5.945 -0.0646 -0.4988  0.3570
23175SOL     OW71966   1.714   6.420   5.181 -0.4308  0.4407  0.1912
23175SOL    HW171967   1.649   6.462   5.238  0.0089  2.6676 -0.8337
23175SOL    HW271968   1.663   6.388   5.106 -0.3837  2.2352 -0.6412
23176SOL     OW71969   3.664   3.164   7.511  0.5694 -0.3654 -0.4079
23176SOL    HW171970   3.614   3.092   7.472 -0.6557 -0.3650  1.0569
23176SOL    HW271971   3.753   3.130   7.519 -0.1703 -2.1294  1.1398
23177SOL     OW71972   4.404  10.384   0.856  0.0231 -0.3608  0.3471
23177SOL    HW171973   4.326  10.439   0.858  0.9451  0.9650  1.6872
23177SOL    HW271974   4.378  10.308   0.804 -1.2863  1.3020 -1.5497
23178SOL     OW71975   3.478   2.447   0.609  0.2609  0.4098 -0.1406
23178SOL    HW171976   3.471   2.428   0.516  0.7456  1.0089 -0.3038
23178SOL    HW271977   3.542   2.518   0.615  1.9686 -1.1057  0.8162
23179SOL     OW71978   3.101   1.061   8.480 -0.3584  0.1713 -0.8653
23179SOL    HW171979   3.013   1.040   8.510  0.7573 -3.9406  0.2012
23179SOL    HW271980   3.103   1.031   8.389  0.1800 -0.7878 -0.5537
23180SOL     OW71981   0.666   7.996   5.357  0.2501 -0.1075  0.2496
23180SOL    HW171982   0.575   7.978   5.337 -0.2794  2.3830  0.1188
23180SOL    HW271983   0.704   8.026   5.275  1.1456 -0.8319  0.3727
23181SOL     OW71984   7.643   2.788   2.987 -0.3175  0.8113 -0.3559
23181SOL    HW171985   7.644   2.841   3.067 -0.8815  2.2152 -1.2323
23181SOL    HW271986   7.580   2.833   2.930 -0.4167 -0.5276 -1.3492
23182SOL     OW71987   3.666   0.082   2.742 -1.2371 -0.7760 -0.2827
23182SOL    HW171988   3.582   0.099   2.784 -1.6665 -0.4270 -1.2498
23182SOL    HW271989   3.713   0.165   2.747 -1.7815 -0.3610 -1.5440
23183SOL     OW71990   9.017   7.893   1.194  0.0635 -0.3674  0.7050
23183SOL    HW171991   8.978   7.810   1.165 -0.6978  0.0877  0.3810
23183SOL    HW271992   8.955   7.926   1.260  0.1592  0.1235  0.5541
23184SOL     OW71993   0.632   3.390   5.778 -0.2546 -0.4863 -0.1373
23184SOL    HW171994   0.658   3.413   5.867 -0.5517 -1.1969  0.1417
23184SOL    HW271995   0.696   3.433   5.722  0.8118 -1.2267  0.4779
23185SOL     OW71996   2.184   2.224   8.748 -0.1010  0.1844  0.6529
23185SOL    HW171997   2.109   2.169   8.771  0.9354 -1.3108  0.6540
23185SOL    HW271998   2.226   2.243   8.832  0.1737 -0.0015  0.5626
23186SOL     OW71999  10.399   8.688   2.199 -0.3486  0.1000  0.2876
23186SOL    HW172000  10.426   8.597   2.187 -0.7313 -0.1965  1.4829
23186SOL    HW272001  10.319   8.696   2.146 -1.2080 -0.7417  1.3921
23187SOL     OW72002   6.677   0.356   9.239  0.1051  0.6139 -0.0286
23187SOL    HW172003   6.658   0.351   9.333 -0.9555 -2.0317 -0.2894
23187SOL    HW272004   6.766   0.324   9.231 -0.4100 -0.9113 -0.0228
23188SOL     OW72005   6.152   7.686   0.204 -0.3163 -0.1122 -0.3985
23188SOL    HW172006   6.239   7.714   0.175  0.0313 -0.9190 -0.1830
23188SOL    HW272007   6.147   7.714   0.296  0.3186 -1.3566  0.0336
23189SOL     OW72008   4.767   7.999   0.674  0.7897  0.3487  0.4881
23189SOL    HW172009   4.811   7.920   0.706  0.6588  0.0251 -0.1173
23189SOL    HW272010   4.688   8.006   0.729  0.5512 -0.2165  0.2258
23190SOL     OW72011   8.412   1.080   8.807 -0.3132  0.1288 -0.5346
23190SOL    HW172012   8.325   1.115   8.825 -0.5444 -0.5100 -0.3978
23190SOL    HW272013   8.401   0.985   8.809  0.2525  0.0430 -1.1751
23191SOL     OW72014   5.537   5.073   8.901 -0.6279 -0.1132  0.4285
23191SOL    HW172015   5.540   5.035   8.989 -0.7832  1.3128  1.0869
23191SOL    HW272016   5.490   5.009   8.848  1.4565 -2.0699  0.8043
23192SOL     OW72017   3.726   6.185   7.817  0.0850 -0.6522  0.1062
23192SOL    HW172018   3.708   6.157   7.907  0.4033 -0.1464  0.3330
23192SOL    HW272019   3.707   6.108   7.763  2.2390 -1.7517  0.8343
23193SOL     OW72020   7.935   2.303   1.035  0.4691 -0.4575  0.5097
23193SOL    HW172021   8.024   2.270   1.043  0.8019  0.5695  1.3358
23193SOL    HW272022   7.945   2.387   0.988 -0.4091 -1.6826 -2.0850
23194SOL     OW72023   7.025   9.710   6.569 -0.5164 -0.9880 -0.1231
23194SOL    HW172024   7.056   9.688   6.481 -1.2448  0.5607 -0.8137
23194SOL    HW272025   7.105   9.718   6.621  0.1721  0.7929 -1.3470
23195SOL     OW72026   6.173   2.993   9.676 -0.3921  0.0318 -1.0820
23195SOL    HW172027   6.183   2.995   9.581  1.3455  0.4291 -0.9263
23195SOL    HW272028   6.119   2.915   9.692 -1.0577  0.1806 -2.3944
23196SOL     OW72029   0.110   3.859   0.866 -0.1704 -0.6714  0.3147
23196SOL    HW172030   0.144   3.893   0.784  0.4048  0.6855  1.0854
23196SOL    HW272031   0.020   3.833   0.846  0.0415 -0.5892 -0.7886
23197SOL     OW72032   3.440   8.168   8.665 -0.4031  0.4096  0.2793
23197SOL    HW172033   3.345   8.162   8.653 -0.3661  0.7073 -0.2028
23197SOL    HW272034   3.458   8.115   8.742 -1.0309  0.8041  0.7060
23198SOL     OW72035   2.601   8.493   1.847  0.1770 -0.9057 -0.0284
23198SOL    HW172036   2.579   8.417   1.793  1.4465 -0.8227 -0.7119
23198SOL    HW272037   2.652   8.549   1.788 -0.7896  0.5214  0.4332
23199SOL     OW72038   2.879   2.952   3.447 -0.2197 -0.5560 -0.3506
23199SOL    HW172039   2.948   2.986   3.391 -1.0757  0.4807 -0.8067
23199SOL    HW272040   2.844   2.876   3.400 -1.1652  0.5060 -1.4436
23200SOL     OW72041   9.586   2.857   6.552 -0.1234  0.0050 -0.1670
23200SOL    HW172042   9.665   2.909   6.565 -0.4670  0.6082 -0.4598
23200SOL    HW272043   9.595   2.820   6.464 -1.5045  2.4964 -1.4614
23201SOL     OW72044   1.745   4.326   4.944 -0.2363  0.0524  0.6781
23201SOL    HW172045   1.836   4.325   4.973 -0.2464 -0.0685  0.7088
23201SOL    HW272046   1.714   4.415   4.962 -0.0051  0.2139  0.2829
23202SOL     OW72047   8.860   9.800   5.443 -0.5147 -0.3555 -0.1050
23202SOL    HW172048   8.822   9.869   5.389 -2.5526 -1.9390 -0.8645
23202SOL    HW272049   8.788   9.770   5.498  1.2403  0.4876  2.8543
23203SOL     OW72050   9.963   2.149   9.427  0.0868 -0.0978 -0.1504
23203SOL    HW172051   9.987   2.163   9.336  0.2363  0.4519 -0.0325
23203SOL    HW272052   9.868   2.135   9.426 -0.1108  1.1751 -0.2602
23204SOL     OW72053   2.376   0.988   4.585 -0.1234  0.3102 -1.1737
23204SOL    HW172054   2.449   0.978   4.646  0.7307  0.8651 -2.0676
23204SOL    HW272055   2.306   1.026   4.638 -0.1117 -1.0976 -0.0812
23205SOL     OW72056   8.359   4.957   6.547  0.2682  0.0198 -0.0242
23205SOL    HW172057   8.424   4.895   6.514  0.0354 -0.0562 -0.3480
23205SOL    HW272058   8.284   4.947   6.488  0.1912  0.5364 -0.0221
23206SOL     OW72059   3.794   6.441   7.851 -0.2922 -0.3275  0.4654
23206SOL    HW172060   3.745   6.371   7.808 -0.7087 -0.0012  0.4025
23206SOL    HW272061   3.834   6.490   7.780 -0.1069 -0.4241  0.5030
23207SOL     OW72062   0.608   3.911   7.873 -0.0984  0.1482  0.2114
23207SOL    HW172063   0.526   3.931   7.919  0.4235  0.3718  1.0672
23207SOL    HW272064   0.665   3.874   7.940  0.3572 -0.4207 -0.4739
23208SOL     OW72065  10.005   2.273   0.505  0.2518 -0.2226 -0.1258
23208SOL    HW172066   9.960   2.265   0.421  0.4476 -0.7816 -0.1804
23208SOL    HW272067  10.003   2.367   0.524  0.8882  0.0220 -1.1440
23209SOL     OW72068   7.933   9.621   5.365  0.2494  0.4410 -0.6315
23209SOL    HW172069   7.844   9.613   5.332 -0.0379 -1.2984  0.4229
23209SOL    HW272070   7.984   9.558   5.313 -0.1330 -2.0416  1.7589
23210SOL     OW72071   7.485   2.809   0.091  0.3011 -0.3547  0.0766
23210SOL    HW172072   7.488   2.751   0.015  1.9937  0.2822 -0.4009
23210SOL    HW272073   7.557   2.871   0.076 -2.2730  2.8210 -0.1935
23211SOL     OW72074   6.917   4.947   7.650 -0.0997 -0.4707 -0.1261
23211SOL    HW172075   6.828   4.978   7.635 -0.3684 -1.3775 -0.4181
23211SOL    HW272076   6.914   4.853   7.634  0.8039 -0.5957  0.3290
23212SOL     OW72077   3.139   4.849   1.739  0.1893 -0.3670  0.2239
23212SOL    HW172078   3.119   4.937   1.771 -1.4888 -0.5967 -0.1033
23212SOL    HW272079   3.068   4.795   1.772  2.3111 -2.0947  2.2720
23213SOL     OW72080   9.159   7.411   4.376  0.6246  0.2709 -0.0879
23213SOL    HW172081   9.153   7.499   4.412 -0.6795  0.1943 -0.0798
23213SOL    HW272082   9.218   7.365   4.436  0.0576  0.7023  0.8196
23214SOL     OW72083   7.897   3.728   0.450 -0.4035  0.2969  0.0389
23214SOL    HW172084   7.818   3.676   0.433  0.5653 -0.9623 -0.7954
23214SOL    HW272085   7.925   3.701   0.538 -0.7738  0.5952  0.2532
23215SOL     OW72086   5.540   8.303   6.727 -0.4781  0.1657  0.1535
23215SOL    HW172087   5.596   8.337   6.796  3.1019 -1.1425 -1.8654
23215SOL    HW272088   5.518   8.214   6.756 -0.1340  0.1003  0.2193
23216SOL     OW72089   6.014  10.047   2.237 -0.2512 -0.1864  0.2328
23216SOL    HW172090   6.020  10.012   2.148 -2.0278 -0.4523  0.1710
23216SOL    HW272091   5.957   9.985   2.283  0.2371  0.2186  1.4282
23217SOL     OW72092   4.846   8.469   7.510  0.3391  0.5947 -0.6884
23217SOL    HW172093   4.856   8.562   7.527  1.8218  0.7546 -2.1068
23217SOL    HW272094   4.761   8.461   7.467  0.0267  1.2261 -0.2005
23218SOL     OW72095   8.286   7.344   9.944  0.1469  0.0438 -0.3728
23218SOL    HW172096   8.217   7.382   9.889  0.9622  0.3703 -1.1786
23218SOL    HW272097   8.264   7.372  10.033 -1.1069 -0.3664 -0.5314
23219SOL     OW72098   2.894   2.021   0.954 -0.4314  0.2443  0.1142
23219SOL    HW172099   2.849   2.044   1.036  0.3355  0.2302  0.5443
23219SOL    HW272100   2.831   2.044   0.885 -1.0962  0.2294  0.7042
23220SOL     OW72101   3.338  10.222   1.781  0.2058  0.1140  0.1115
23220SOL    HW172102   3.252  10.236   1.821  0.3687 -1.8141  1.2233
23220SOL    HW272103   3.344  10.292   1.715 -0.1836  3.3164  3.1565
23221SOL     OW72104   8.860   7.498   2.265  0.0202 -0.1808  0.1865
23221SOL    HW172105   8.812   7.522   2.344  0.1297 -0.1608  0.2475
23221SOL    HW272106   8.921   7.570   2.250  0.0260 -0.2022  0.1052
23222SOL     OW72107   5.029   9.585   5.953  0.2053  0.4869 -0.4070
23222SOL    HW172108   5.072   9.576   5.868  1.4004  1.5416  0.0539
23222SOL    HW272109   4.994   9.673   5.953  0.9344  0.7984  0.4881
23223SOL     OW72110   5.048   1.192   7.106 -0.1199  0.3273 -0.4133
23223SOL    HW172111   4.972   1.137   7.126  0.1313  0.6830  1.6851
23223SOL    HW272112   5.123   1.136   7.126  0.1373  1.2301  1.3520
23224SOL     OW72113   6.919   0.061   7.297 -0.1049  0.0421 -0.8360
23224SOL    HW172114   7.015   0.066   7.299 -0.0397 -0.9278 -1.2523
23224SOL    HW272115   6.897  -0.002   7.365 -0.4875  0.6882 -0.3567
23225SOL     OW72116   0.722   8.340   1.347  0.1171  0.1094 -0.5497
23225SOL    HW172117   0.775   8.285   1.405 -1.2680 -1.1409 -0.4348
23225SOL    HW272118   0.687   8.409   1.404  0.9887  0.5205 -0.4866
23226SOL     OW72119   7.354   1.543   5.636 -0.3727  0.0498  0.7179
23226SOL    HW172120   7.448   1.556   5.646 -0.2358 -1.2112  1.3042
23226SOL    HW272121   7.320   1.630   5.615  0.9656  0.4496  0.0725
23227SOL     OW72122   9.959   1.969   7.807  0.3157  0.0869  0.7214
23227SOL    HW172123   9.977   2.048   7.757 -0.5972 -1.1512 -1.7282
23227SOL    HW272124   9.873   1.983   7.845 -0.7026 -0.3794 -1.2688
23228SOL     OW72125   0.375   1.531   7.739  0.1751  0.9314 -0.1509
23228SOL    HW172126   0.401   1.476   7.665  1.4604 -1.8942  2.1894
23228SOL    HW272127   0.315   1.476   7.790  0.9497  1.9460  1.9679
23229SOL     OW72128   5.912   2.781   5.365 -0.2067 -0.4580 -0.0857
23229SOL    HW172129   5.827   2.740   5.379 -0.4834  0.4531  1.1120
23229SOL    HW272130   5.969   2.740   5.430 -0.0045 -0.2956 -0.1597
23230SOL     OW72131   4.386   4.537   2.172  0.9228 -0.0902 -0.0012
23230SOL    HW172132   4.442   4.539   2.094 -0.4933 -0.1895 -1.0556
23230SOL    HW272133   4.383   4.628   2.201  1.4524 -0.0521 -0.0404
23231SOL     OW72134   3.779   0.897   1.119  0.1209 -0.4666  0.0064
23231SOL    HW172135   3.691   0.881   1.155 -0.3019  1.8252  0.1391
23231SOL    HW272136   3.781   0.991   1.101  2.4617 -0.5134 -0.2923
23232SOL     OW72137   5.555   9.843   9.181  0.2053  0.0205 -0.3275
23232SOL    HW172138   5.538   9.937   9.182  0.6777  0.1625  2.3128
23232SOL    HW272139   5.486   9.806   9.237  0.4300 -1.1369 -0.7852
23233SOL     OW72140   0.303   2.681   8.228  0.0365  0.9613  0.4499
23233SOL    HW172141   0.297   2.619   8.155 -2.7387 -0.5637  1.7956
23233SOL    HW272142   0.256   2.758   8.198 -1.0196  0.3746  0.5606
23234SOL     OW72143   9.671   1.362   4.100 -0.3422 -0.3753  0.7304
23234SOL    HW172144   9.603   1.396   4.158 -0.7442 -1.7773  1.1061
23234SOL    HW272145   9.751   1.407   4.129 -1.2323  2.1618 -0.4774
23235SOL     OW72146   7.781   8.984   1.625  0.5417  0.2097 -0.3197
23235SOL    HW172147   7.850   8.921   1.647 -0.4455 -0.6499  0.4110
23235SOL    HW272148   7.779   9.043   1.701  0.9946  0.7112 -0.6927
23236SOL     OW72149   8.738   8.196   4.801 -0.4497 -0.0878 -0.1873
23236SOL    HW172150   8.760   8.187   4.708  1.2795 -0.9849  0.2680
23236SOL    HW272151   8.804   8.255   4.836  0.7981 -2.0985  1.0368
23237SOL     OW72152   4.933   8.419   1.953  0.2487 -0.5112 -0.2250
23237SOL    HW172153   5.017   8.390   1.988  0.8473  0.0197 -1.1702
23237SOL    HW272154   4.922   8.370   1.872 -1.3152 -2.0355  0.8284
23238SOL     OW72155  10.264   3.106   3.685 -0.1595  0.0823 -0.4736
23238SOL    HW172156  10.299   3.037   3.740 -0.6249  0.9272  0.9219
23238SOL    HW272157  10.184   3.134   3.729 -1.0291  0.1855 -2.0473
23239SOL     OW72158   6.892   1.070   1.958  0.1391  0.1765  0.2010
23239SOL    HW172159   6.927   1.146   1.912  1.0846 -0.5191 -0.2880
23239SOL    HW272160   6.856   1.104   2.039 -0.2692  1.2552 -0.4224
23240SOL     OW72161   8.853   6.323   6.326  0.1149 -0.4068 -0.5022
23240SOL    HW172162   8.801   6.317   6.246  0.2567 -0.8701 -0.5622
23240SOL    HW272163   8.789   6.320   6.397  0.0199 -0.4027 -0.5886
23241SOL     OW72164   0.643   2.563   2.258  0.0154 -0.2945 -0.0977
23241SOL    HW172165   0.666   2.642   2.209  1.0923 -0.6488 -0.1920
23241SOL    HW272166   0.567   2.528   2.212  0.6863 -0.3315 -1.2150
23242SOL     OW72167   6.656   1.904   7.308  0.4656 -0.1376  0.0272
23242SOL    HW172168   6.570   1.933   7.279 -0.1901 -1.6540  0.3566
23242SOL    HW272169   6.690   1.977   7.360 -0.4951  0.5833 -0.3245
23243SOL     OW72170   6.419   8.385   0.239  0.1680  0.0267 -0.0262
23243SOL    HW172171   6.480   8.317   0.268  0.0914  0.3369  0.9003
23243SOL    HW272172   6.341   8.337   0.210  0.1806 -0.2915  0.4584
23244SOL     OW72173   1.850   5.436   3.664  0.5203 -0.0927  0.2336
23244SOL    HW172174   1.788   5.438   3.592  0.9063  2.3942 -0.1399
23244SOL    HW272175   1.929   5.397   3.628  0.0831 -0.6770 -0.0995
23245SOL     OW72176   4.330   2.915   6.664  0.0812 -0.0763  0.1232
23245SOL    HW172177   4.273   2.867   6.724  1.6514 -2.5784 -0.2248
23245SOL    HW272178   4.404   2.943   6.718  0.7601 -0.9979 -0.3005
23246SOL     OW72179   8.929   6.050   1.153 -0.2044  0.0906  0.0883
23246SOL    HW172180   8.895   5.978   1.207 -1.1260  0.6609  0.2963
23246SOL    HW272181   8.909   6.025   1.063 -1.1462  0.3834  0.2043
23247SOL     OW72182   1.028   4.482   8.724 -0.0652  0.4434  0.2788
23247SOL    HW172183   0.979   4.491   8.806 -1.6328  0.7484 -0.6633
23247SOL    HW272184   0.974   4.526   8.658  1.3581  0.5529 -0.8623
23248SOL     OW72185   4.462  10.181  10.253  0.3851  0.0439 -0.2933
23248SOL    HW172186   4.509  10.236  10.191  2.0753  0.4884  1.2825
23248SOL    HW272187   4.527  10.116  10.281 -0.6996 -0.9184  0.0822
23249SOL     OW72188   8.009   3.293   1.781 -0.3831  0.7459  0.0911
23249SOL    HW172189   7.963   3.377   1.777 -1.0780  0.3194 -1.0110
23249SOL    HW272190   7.940   3.227   1.775  0.3217  0.1010 -1.3887
23250SOL     OW72191   2.445   0.395   6.778 -0.1609 -0.1444  0.0020
23250SOL    HW172192   2.404   0.313   6.749  0.5175 -0.3174 -0.5040
23250SOL    HW272193   2.539   0.377   6.775 -0.0306  0.2993  0.9780
23251SOL     OW72194   3.630   1.513   0.664  0.0806 -0.5324 -0.6744
23251SOL    HW172195   3.674   1.595   0.638  2.1678 -0.9814  1.1208
23251SOL    HW272196   3.560   1.541   0.722 -0.0041  0.0435 -1.0396
23252SOL     OW72197   4.336   4.507   6.828  0.3753 -0.1102  0.0835
23252SOL    HW172198   4.370   4.442   6.889  0.3539 -0.3760 -0.1854
23252SOL    HW272199   4.243   4.487   6.820 -0.2084  1.5280  1.9660
23253SOL     OW72200   9.610   6.014   0.535  0.2644  0.1822  0.0245
23253SOL    HW172201   9.609   6.103   0.571 -0.7606  0.9525 -1.7336
23253SOL    HW272202   9.540   5.969   0.580 -1.9035  1.5336 -1.7804
23254SOL     OW72203   9.261   9.129   4.287  0.0656  0.0093 -0.2989
23254SOL    HW172204   9.255   9.145   4.193 -0.8507  1.7918  0.0174
23254SOL    HW272205   9.354   9.127   4.306  0.3305 -2.4724 -1.5232
23255SOL     OW72206   2.138   1.243   0.720  0.2768 -0.4542  0.3964
23255SOL    HW172207   2.111   1.155   0.744 -0.5055  0.0746  1.5425
23255SOL    HW272208   2.085   1.265   0.643  0.9642 -1.2175 -0.3140
23256SOL     OW72209   7.768   2.195   9.729 -0.2588 -0.2023 -0.2010
23256SOL    HW172210   7.848   2.168   9.684 -0.3896  0.4383 -0.8295
23256SOL    HW272211   7.797   2.226   9.814  0.1338 -0.2316 -0.3209
23257SOL     OW72212   1.875   5.306   6.233 -0.7280  0.4516  0.2089
23257SOL    HW172213   1.847   5.216   6.217 -0.0190  0.2501  0.0375
23257SOL    HW272214   1.845   5.325   6.322  1.7538 -1.0582  1.4938
23258SOL     OW72215   4.611   2.982   6.373  0.5436  0.5665 -0.3974
23258SOL    HW172216   4.559   2.962   6.295 -0.6565 -1.8104  0.9058
23258SOL    HW272217   4.702   2.977   6.343  0.1220 -0.8991 -1.5392
23259SOL     OW72218   2.377   0.814   5.432 -0.3022  0.2696  0.0194
23259SOL    HW172219   2.324   0.765   5.494  1.0136  0.9651  1.7647
23259SOL    HW272220   2.426   0.747   5.384 -1.2450 -0.2636 -0.2328
23260SOL     OW72221   7.487   8.139   4.908 -0.3148  0.2291 -0.3248
23260SOL    HW172222   7.479   8.166   4.816 -1.2234  0.5493 -0.1656
23260SOL    HW272223   7.427   8.198   4.955  0.8524  0.7148  0.6128
23261SOL     OW72224   8.153   5.962   7.705 -0.5167 -0.5824 -0.2752
23261SOL    HW172225   8.245   5.980   7.718 -0.4254 -1.1792 -0.0611
23261SOL    HW272226   8.128   6.015   7.629  0.0222 -0.4933 -0.3889
23262SOL     OW72227   8.801   5.120   6.812  0.2687  0.3846  1.1425
23262SOL    HW172228   8.725   5.172   6.839  0.7099  1.2261  0.8034
23262SOL    HW272229   8.876   5.174   6.838  0.7400 -0.2811  1.1641
23263SOL     OW72230   4.372   7.709   1.860  0.0164  0.4561 -0.4445
23263SOL    HW172231   4.381   7.704   1.765 -0.3092 -0.0829 -0.4518
23263SOL    HW272232   4.295   7.764   1.873  0.0958  0.5792 -0.4875
23264SOL     OW72233   4.747   3.365   9.978  0.1608  0.2657  0.2136
23264SOL    HW172234   4.756   3.459   9.992  0.0880  0.4682 -1.0153
23264SOL    HW272235   4.690   3.336  10.049 -0.6914  1.3384  0.0008
23265SOL     OW72236   1.858   7.245   7.487  0.0125  0.4189 -0.7909
23265SOL    HW172237   1.863   7.212   7.577 -1.8955  0.2673 -0.7144
23265SOL    HW272238   1.946   7.230   7.451  1.0530  1.1938  1.2653
23266SOL     OW72239   8.512   9.257   9.254 -0.4390  0.4085 -0.0687
23266SOL    HW172240   8.472   9.241   9.168 -1.1298  2.5231 -0.1893
23266SOL    HW272241   8.485   9.345   9.277  0.1798  0.0806  2.1125
23267SOL     OW72242   4.254   0.887   8.634  0.3974 -0.2680  0.0778
23267SOL    HW172243   4.264   0.931   8.719  0.9662  0.5815 -0.4067
23267SOL    HW272244   4.336   0.906   8.589  0.2691 -1.0712 -0.5072
23268SOL     OW72245   9.776   6.339   4.013 -0.6905 -0.2062 -0.3012
23268SOL    HW172246   9.695   6.287   4.014 -1.1651  0.5217 -0.2958
23268SOL    HW272247   9.748   6.427   3.987  0.0205  0.1781  0.1940
23269SOL     OW72248   7.649   2.539   5.256 -0.4895 -0.8005 -0.3830
23269SOL    HW172249   7.572   2.594   5.238  0.5222  0.5295 -0.8098
23269SOL    HW272250   7.724   2.598   5.244  0.5370 -1.2298  2.9624
23270SOL     OW72251   6.323   9.386   3.317 -0.1736 -0.7154  0.2146
23270SOL    HW172252   6.349   9.350   3.232  0.9312 -0.1592  0.2937
23270SOL    HW272253   6.245   9.336   3.342  0.4254 -2.0020 -0.3759
23271SOL     OW72254   6.555   5.673   9.798  0.1377 -0.4609  0.1065
23271SOL    HW172255   6.604   5.745   9.758 -0.7135  1.4724  2.2975
23271SOL    HW272256   6.464   5.692   9.778 -0.1069 -0.9036  0.7529
23272SOL     OW72257   0.643   0.231   5.374 -0.4085 -0.4773  0.3203
23272SOL    HW172258   0.709   0.298   5.393 -1.2453  0.7113 -0.8560
23272SOL    HW272259   0.612   0.203   5.460  0.2495  0.3520  0.8392
23273SOL     OW72260   4.496   3.677   4.539 -0.2653  0.2905 -0.1830
23273SOL    HW172261   4.523   3.603   4.485  0.7166  0.0229  0.6474
23273SOL    HW272262   4.577   3.706   4.582 -1.0053  0.5091  1.1204
23274SOL     OW72263   3.950   9.509   9.264 -0.2651 -0.0358 -0.1445
23274SOL    HW172264   3.935   9.560   9.344  2.5977  1.0447 -0.1923
23274SOL    HW272265   3.992   9.570   9.204  0.9668 -1.7669 -1.1371
23275SOL     OW72266   4.493   7.301   6.748 -0.6629 -0.2040 -0.2598
23275SOL    HW172267   4.486   7.387   6.790 -0.8076 -0.6616  0.6994
23275SOL    HW272268   4.572   7.305   6.696  0.1651  0.0309  0.9701
23276SOL     OW72269   9.859   8.292   2.479 -0.0667 -0.6461 -0.0126
23276SOL    HW172270   9.921   8.323   2.545 -0.4344  0.4175 -0.1441
23276SOL    HW272271   9.913   8.250   2.413  0.8148  2.2590 -1.2799
23277SOL     OW72272   2.147   7.472   3.453 -0.3927 -0.0058  0.3369
23277SOL    HW172273   2.190   7.395   3.490  3.8200  1.4592 -0.9149
23277SOL    HW272274   2.117   7.522   3.529  2.0742 -0.1904  1.5139
23278SOL     OW72275   2.938   0.523   1.583 -0.1147  0.3676 -0.3821
23278SOL    HW172276   2.863   0.576   1.556 -0.0464  0.8177  0.3009
23278SOL    HW272277   2.904   0.466   1.652  0.2895  0.9618  0.3247
23279SOL     OW72278   6.366   5.946   6.565 -0.1386  0.7316  0.1541
23279SOL    HW172279   6.414   6.029   6.554  0.7864  0.2445  0.3710
23279SOL    HW272280   6.305   5.943   6.492  3.9641 -1.2043 -3.6709
23280SOL     OW72281   0.572  10.378   9.565 -1.0107 -0.5440  0.3593
23280SOL    HW172282   0.652  10.331   9.588 -1.5877 -1.2053  1.0795
23280SOL    HW272283   0.573  10.383   9.470  0.0706 -0.1959  0.3697
23281SOL     OW72284   0.789   9.984   3.030  0.3240  0.0500  0.7013
23281SOL    HW172285   0.873  10.004   3.072 -0.9614  1.8957  2.5865
23281SOL    HW272286   0.746   9.924   3.091 -0.0448 -0.2978  0.1086
23282SOL     OW72287   3.651   6.776   9.410  0.3940 -0.5310 -0.0624
23282SOL    HW172288   3.746   6.763   9.412  0.5607  0.4238 -1.2661
23282SOL    HW272289   3.622   6.730   9.331  0.6171  3.5759 -2.7877
23283SOL     OW72290   5.748   8.154   3.041  0.2269  0.3004  0.2928
23283SOL    HW172291   5.732   8.062   3.057  1.2490  0.2178  0.9534
23283SOL    HW272292   5.666   8.198   3.063 -0.7375 -0.5649 -1.3875
23284SOL     OW72293   8.094   9.470   4.071  0.1336 -0.5905  0.3020
23284SOL    HW172294   8.093   9.565   4.061 -1.0997 -0.6443 -0.3237
23284SOL    HW272295   8.010   9.441   4.035  0.6877 -1.9619  0.0331
23285SOL     OW72296   3.879   9.339   5.151  0.6021  0.3431 -0.2168
23285SOL    HW172297   3.829   9.303   5.224 -0.3567  0.0769 -0.9963
23285SOL    HW272298   3.957   9.376   5.192 -0.3748  1.0618  1.0499
23286SOL     OW72299   1.016   0.605   3.030 -0.5860  0.0556 -0.3128
23286SOL    HW172300   1.085   0.667   3.054 -0.4172  0.2677 -1.2680
23286SOL    HW272301   1.059   0.543   2.970 -0.8643 -0.7166  0.2737
23287SOL     OW72302   9.757   5.304  10.465  0.1173  0.0834 -0.2619
23287SOL    HW172303   9.774   5.260  10.382 -0.2881  0.1783 -0.4012
23287SOL    HW272304   9.682   5.361  10.447 -1.2418 -1.3213  0.6464
23288SOL     OW72305   5.458   2.537   2.619 -0.5165 -0.6895  0.2014
23288SOL    HW172306   5.411   2.538   2.702  0.7050 -1.6631  0.9444
23288SOL    HW272307   5.429   2.456   2.576 -1.3953 -0.0250 -0.5018
23289SOL     OW72308   6.837   2.109   4.095 -0.1965  0.2436  0.2763
23289SOL    HW172309   6.871   2.021   4.080  1.5711  0.9638 -0.0812
23289SOL    HW272310   6.757   2.113   4.043  0.4379 -0.6887 -0.8029
23290SOL     OW72311   9.324   8.511   4.212  0.0701 -0.5842 -0.0020
23290SOL    HW172312   9.363   8.435   4.168  0.8232  0.7617 -1.7994
23290SOL    HW272313   9.389   8.580   4.201 -1.8803  1.1717 -1.1997
23291SOL     OW72314   1.203   4.273   1.467 -0.0016  0.0645 -0.2520
23291SOL    HW172315   1.230   4.197   1.519  0.3552  0.0653 -0.4328
23291SOL    HW272316   1.130   4.311   1.517  0.1084 -0.1362  0.0694
23292SOL     OW72317   6.144   1.336   6.814  0.0083  0.4714 -1.0263
23292SOL    HW172318   6.184   1.350   6.900  0.2901  0.2756 -1.1216
23292SOL    HW272319   6.053   1.316   6.832  0.1252  0.1729 -0.7550
23293SOL     OW72320   5.997   1.869  10.094  0.1100  0.1334 -0.1059
23293SOL    HW172321   6.071   1.866  10.035  0.9895  1.5363  0.8694
23293SOL    HW272322   5.963   1.959  10.087 -1.4798 -0.4520 -0.4866
23294SOL     OW72323   1.417   9.747   1.980 -0.1264  0.5172 -0.2986
23294SOL    HW172324   1.513   9.746   1.984 -0.1579 -0.9844  1.2954
23294SOL    HW272325   1.390   9.777   2.067 -1.1112  0.7041 -0.6571
23295SOL     OW72326   7.101   0.442   7.639  0.2573 -0.1779  0.0472
23295SOL    HW172327   7.132   0.439   7.549 -0.8688  1.0016 -0.4237
23295SOL    HW272328   7.123   0.531   7.669  1.1945 -0.7601  1.1700
23296SOL     OW72329   6.807   6.347   6.104  0.0632  0.2287 -0.6004
23296SOL    HW172330   6.733   6.402   6.129 -1.2657 -1.3605 -0.9364
23296SOL    HW272331   6.789   6.321   6.014 -0.4149 -2.3729  0.1670
23297SOL     OW72332   3.246   7.608   5.777 -0.3748 -0.3428 -0.2578
23297SOL    HW172333   3.271   7.516   5.773  0.8624 -0.0184 -0.2360
23297SOL    HW272334   3.166   7.614   5.724 -0.1267 -1.3100 -0.7506
23298SOL     OW72335  10.026   6.559  10.397  0.1209  0.2785  0.4686
23298SOL    HW172336   9.960   6.492  10.383  0.0027  0.3253  0.7954
23298SOL    HW272337   9.977   6.636  10.425  0.4500 -0.2216  2.5453
23299SOL     OW72338   9.111   9.249   7.367  0.0834  0.2456  0.7912
23299SOL    HW172339   9.197   9.239   7.409  0.5987 -0.3210 -0.3473
23299SOL    HW272340   9.067   9.316   7.419  1.4720  1.0288  1.0205
23300SOL     OW72341   8.163   9.279   5.957  0.1837 -0.2510 -0.6683
23300SOL    HW172342   8.240   9.289   6.012  0.1121  1.0484 -0.7777
23300SOL    HW272343   8.193   9.226   5.883  0.7624 -0.4073 -0.3254
23301SOL     OW72344   3.721   0.905   4.837  0.2730 -0.2849 -0.6635
23301SOL    HW172345   3.631   0.923   4.861 -0.0736  0.9569 -2.6846
23301SOL    HW272346   3.765   0.887   4.920 -1.6752 -0.3136  0.4117
23302SOL     OW72347   9.029  10.374   9.142  0.1957  0.1135 -0.5501
23302SOL    HW172348   8.951  10.321   9.157  0.5770  0.0431  1.6296
23302SOL    HW272349   9.084  10.322   9.084  1.1082 -2.5723  2.4528
23303SOL     OW72350   8.936   5.773   5.707  0.1259 -0.2078 -0.2898
23303SOL    HW172351   8.976   5.841   5.762  0.9649 -0.8049 -0.1517
23303SOL    HW272352   8.870   5.820   5.656 -0.0036  0.5286  0.5328
23304SOL     OW72353   4.819   8.044   3.835 -0.1097  0.3182  0.1968
23304SOL    HW172354   4.858   7.989   3.767 -0.4189 -1.4314  1.3987
23304SOL    HW272355   4.884   8.112   3.851  0.9182 -0.5264 -0.2962
23305SOL     OW72356   6.081   7.342   4.381 -0.5399  0.1138  0.2125
23305SOL    HW172357   6.115   7.401   4.313  0.4853  1.1499  1.5861
23305SOL    HW272358   6.016   7.394   4.428 -0.7041 -0.3485  0.5013
23306SOL     OW72359   1.844   7.080   0.851  0.0485  0.0140 -0.2331
23306SOL    HW172360   1.822   7.160   0.804 -1.6254 -0.6346 -0.6267
23306SOL    HW272361   1.843   7.012   0.784  2.4628 -0.2416 -0.0898
23307SOL     OW72362   1.925   4.672   4.525 -0.5227 -0.1072 -0.5285
23307SOL    HW172363   1.951   4.597   4.579 -0.5909 -0.4076 -0.9035
23307SOL    HW272364   1.925   4.637   4.435  0.2523  0.5582 -0.7990
23308SOL     OW72365   7.246   9.976   1.019  0.1309  0.0666  0.0552
23308SOL    HW172366   7.321  10.035   1.008  0.2734 -0.0639  0.2982
23308SOL    HW272367   7.188  10.022   1.079 -1.0226  1.1320 -1.7982
23309SOL     OW72368   6.917  10.340   2.567  0.3635  0.1915  0.1739
23309SOL    HW172369   6.899  10.249   2.589  1.6291 -0.0948  0.0836
23309SOL    HW272370   6.958  10.376   2.646  3.1944 -0.3332 -0.9622
23310SOL     OW72371   2.167   4.137   2.487 -0.1028  0.4383 -0.3681
23310SOL    HW172372   2.136   4.227   2.494  1.7237  1.0456  0.4490
23310SOL    HW272373   2.219   4.123   2.566 -0.7679 -1.5199 -0.2216
23311SOL     OW72374   2.780   9.399   6.012  0.0978 -0.5997  0.2375
23311SOL    HW172375   2.819   9.410   5.925  1.1610  1.1644  0.8878
23311SOL    HW272376   2.821   9.321   6.047 -0.1414 -1.1795 -0.7135
23312SOL     OW72377   5.259   1.464   8.459 -0.1820 -0.1366  0.6603
23312SOL    HW172378   5.250   1.486   8.367 -2.2371 -2.7681  0.1128
23312SOL    HW272379   5.335   1.514   8.489 -1.0167  2.8179 -1.7384
23313SOL     OW72380   2.938   5.196   9.592  0.1908  0.1386 -0.1788
23313SOL    HW172381   3.010   5.254   9.567 -0.4475  0.9222 -0.2381
23313SOL    HW272382   2.896   5.239   9.666  0.1652 -0.6312  0.2700
23314SOL     OW72383   4.678   4.565   8.435 -0.2312  0.0212  0.3095
23314SOL    HW172384   4.596   4.562   8.386  0.7685 -0.7369 -1.3985
23314SOL    HW272385   4.653   4.546   8.525 -2.2738  2.4460  0.3590
23315SOL     OW72386   3.028   9.587   2.652  0.3989 -0.2529  0.3908
23315SOL    HW172387   2.948   9.634   2.630  0.5469  0.2230  0.8398
23315SOL    HW272388   3.042   9.527   2.578  1.6985  2.3269 -1.6610
23316SOL     OW72389   1.652   3.133   2.607  0.0114  0.4486  0.2304
23316SOL    HW172390   1.631   3.226   2.604  2.2773  1.0244  0.2734
23316SOL    HW272391   1.619   3.098   2.524  1.6110  1.9228 -1.1230
23317SOL     OW72392   7.756   9.170   8.283  0.0133  0.1015 -0.5001
23317SOL    HW172393   7.672   9.139   8.248  1.0934 -2.7342 -0.8727
23317SOL    HW272394   7.810   9.186   8.205 -0.5801  3.6034 -0.3524
23318SOL     OW72395   2.734  10.231   4.075 -0.1005 -0.0609 -0.6571
23318SOL    HW172396   2.647  10.270   4.064  0.0290  0.4302 -0.0115
23318SOL    HW272397   2.752  10.189   3.991 -1.6101 -1.4912 -0.3272
23319SOL     OW72398   5.869   9.312   3.531 -0.3028 -0.4593 -0.5853
23319SOL    HW172399   5.925   9.321   3.454 -0.0825 -0.7666 -0.4655
23319SOL    HW272400   5.881   9.221   3.558 -0.7711 -0.4959 -0.4873
23320SOL     OW72401   2.748   5.104   7.891  0.1985  0.3714  0.2181
23320SOL    HW172402   2.764   5.021   7.936 -0.8192 -1.4085 -2.4384
23320SOL    HW272403   2.828   5.120   7.841  0.0661  0.5145  0.0516
23321SOL     OW72404   5.770   4.807   0.202  0.4750  0.1767 -0.2892
23321SOL    HW172405   5.768   4.756   0.283 -0.4243 -0.8087 -0.8990
23321SOL    HW272406   5.817   4.751   0.140  3.0738  1.8101  0.0702
23322SOL     OW72407   2.182   8.200   6.802 -0.6484 -0.0083 -0.0121
23322SOL    HW172408   2.119   8.203   6.874 -0.1222  0.8806  0.4300
23322SOL    HW272409   2.159   8.276   6.748  0.2886  0.5719  0.3815
23323SOL     OW72410   4.962   2.698   0.830 -0.7626 -0.1642  0.2492
23323SOL    HW172411   5.042   2.647   0.824 -1.1672 -0.7127 -0.9092
23323SOL    HW272412   4.989   2.783   0.862  0.6454  0.3746 -2.1170
23324SOL     OW72413   7.770   1.648   4.283  0.1282 -0.2697  0.2912
23324SOL    HW172414   7.747   1.555   4.288  0.9184 -0.4713  0.2404
23324SOL    HW272415   7.791   1.662   4.191 -1.5190  0.3413 -0.0311
23325SOL     OW72416   7.717   4.949   2.387  1.3599 -0.0634  0.5081
23325SOL    HW172417   7.624   4.950   2.366  1.5534 -1.3054 -0.5286
23325SOL    HW272418   7.751   5.031   2.349  0.9319 -0.2499 -0.2976
23326SOL     OW72419   7.414   0.751  10.296  0.1525 -0.5208  0.3049
23326SOL    HW172420   7.345   0.736  10.360  2.1398 -2.9654  2.0622
23326SOL    HW272421   7.492   0.768  10.348  1.6264 -1.4615 -1.4632
23327SOL     OW72422   6.239   1.584   2.797 -0.9942  0.4899 -0.2460
23327SOL    HW172423   6.294   1.511   2.824 -0.6041  0.7233 -0.4007
23327SOL    HW272424   6.200   1.555   2.714  0.1363  0.9299 -0.9612
23328SOL     OW72425   1.664   6.890   6.458  0.1581  0.5548  0.5448
23328SOL    HW172426   1.634   6.972   6.418 -0.6229 -1.3340 -3.2501
23328SOL    HW272427   1.752   6.877   6.422 -0.4097 -1.0457 -0.3617
23329SOL     OW72428   9.118   7.407  10.304  0.0661 -0.1067  0.1440
23329SOL    HW172429   9.086   7.359  10.381 -0.3567  0.5461  0.3869
23329SOL    HW272430   9.211   7.384  10.298  0.1120 -0.1237  0.8750
23330SOL     OW72431   1.516   1.141   7.095  0.2497  0.0136  0.3084
23330SOL    HW172432   1.601   1.098   7.085  0.4056  0.3921 -0.0546
23330SOL    HW272433   1.538   1.230   7.123  0.0549  0.5323 -1.1017
23331SOL     OW72434   9.130   4.023   6.982 -0.1960 -0.8691 -0.1940
23331SOL    HW172435   9.042   4.024   7.019  0.3677  1.3051  1.2897
23331SOL    HW272436   9.150   3.931   6.969 -1.8978 -1.5202  1.4364
23332SOL     OW72437   9.811   4.961   7.672  0.3341  0.3246 -0.2982
23332SOL    HW172438   9.872   5.027   7.708  0.4285  0.9303 -1.5147
23332SOL    HW272439   9.786   4.996   7.587 -0.8787 -0.4623 -0.2817
23333SOL     OW72440   3.029   0.036   6.061 -0.9659 -0.0001 -0.3044
23333SOL    HW172441   3.062   0.096   5.994 -1.0982  0.1502 -0.2358
23333SOL    HW272442   2.962   0.086   6.108 -1.2977 -0.3032 -0.4466
23334SOL     OW72443   2.403  10.002   6.999  0.4014  0.3428  0.1487
23334SOL    HW172444   2.372   9.988   7.089  0.7042  0.9397  0.3547
23334SOL    HW272445   2.443   9.919   6.974 -2.0328 -0.7603 -0.4314
23335SOL     OW72446   0.681   9.008   0.519  0.1969 -0.2689  0.7088
23335SOL    HW172447   0.621   8.942   0.484  0.5075 -2.0170  3.2255
23335SOL    HW272448   0.766   8.966   0.518  0.3830  0.0085  2.5158
23336SOL     OW72449   3.587   1.781   7.348  0.9069 -0.3658 -0.2072
23336SOL    HW172450   3.570   1.875   7.346 -1.2210 -0.7077 -1.8462
23336SOL    HW272451   3.679   1.773   7.323  0.2891  1.2203 -3.5730
23337SOL     OW72452   9.302   0.030   7.189 -0.0678  0.1101  0.3605
23337SOL    HW172453   9.343   0.111   7.220 -1.0722  0.7654  0.0140
23337SOL    HW272454   9.269   0.051   7.102 -1.7751 -0.1458  0.9002
23338SOL     OW72455   4.590   6.124   8.263  0.5852  0.1062  0.5451
23338SOL    HW172456   4.653   6.148   8.195  0.2176  0.3070  0.2716
23338SOL    HW272457   4.601   6.192   8.329 -0.3092  0.9353 -0.1370
23339SOL     OW72458   7.218   8.595   7.412  0.1396 -0.0974  0.8190
23339SOL    HW172459   7.251   8.653   7.343 -0.6884 -0.9649 -0.3512
23339SOL    HW272460   7.123   8.605   7.409  0.0571 -0.6429  1.3886
23340SOL     OW72461   7.348   5.167   2.335  0.8778 -0.1743 -0.4676
23340SOL    HW172462   7.368   5.201   2.247  1.4335 -1.1214 -0.7218
23340SOL    HW272463   7.321   5.244   2.384  0.8594  0.4280 -1.3852
23341SOL     OW72464  10.092  10.086   4.569  0.5360 -0.5338 -0.0720
23341SOL    HW172465  10.068  10.003   4.529 -0.1932  0.0283 -0.8353
23341SOL    HW272466  10.182  10.101   4.539  0.7454 -1.1352  0.2380
23342SOL     OW72467   6.059   5.963   2.583 -0.1868  0.1145  0.2540
23342SOL    HW172468   6.043   5.979   2.490  1.9408  1.5051  0.0589
23342SOL    HW272469   6.002   6.025   2.628  0.7863  1.4618 -0.2665
23343SOL     OW72470   4.847   8.305   0.942  0.1802 -0.2975 -0.2702
23343SOL    HW172471   4.757   8.331   0.964  0.1485  2.4811 -3.0591
23343SOL    HW272472   4.839   8.213   0.915 -2.0943  0.1922 -1.5181
23344SOL     OW72473   4.600   4.482   8.059 -0.2547 -0.2347 -0.2985
23344SOL    HW172474   4.514   4.463   8.096  0.7577 -0.0312  2.4171
23344SOL    HW272475   4.628   4.400   8.020 -0.9588 -0.8110  0.3748
23345SOL     OW72476   4.962   1.133  10.367 -0.7406  0.1510  0.1285
23345SOL    HW172477   4.896   1.184  10.320 -1.5334 -1.2916 -0.3829
23345SOL    HW272478   4.925   1.045  10.372  0.8656 -0.5376  0.4177
23346SOL     OW72479   0.077   7.172   5.085  0.0138  0.0827  0.1686
23346SOL    HW172480   0.071   7.236   5.156  0.6970  0.0712  0.2444
23346SOL    HW272481   0.070   7.225   5.005  2.4161  0.5400  0.1744
23347SOL     OW72482   3.023   5.488   9.842  0.7042  0.0565  0.1184
23347SOL    HW172483   2.973   5.421   9.796  1.1555  0.1142 -0.4588
23347SOL    HW272484   3.048   5.448   9.925 -0.9413  0.2718  0.7663
23348SOL     OW72485   6.946   1.782   4.336  0.3925 -0.0483 -0.0118
23348SOL    HW172486   6.865   1.827   4.312  0.3795  0.8163  1.4945
23348SOL    HW272487   6.997   1.778   4.255 -1.1752 -0.6712 -0.9893
23349SOL     OW72488   0.834   9.448   5.544 -0.0658  0.4209  0.0975
23349SOL    HW172489   0.870   9.382   5.604 -0.4126  0.3352  0.2137
23349SOL    HW272490   0.910   9.479   5.494  0.1723  0.2553  0.3515
23350SOL     OW72491   1.838   3.671   4.016 -0.1979  0.0246  0.5565
23350SOL    HW172492   1.786   3.740   4.059  0.8131  2.3190 -1.6154
23350SOL    HW272493   1.895   3.719   3.956  2.3362 -2.6089  0.6772
23351SOL     OW72494   9.105   7.087   6.383 -0.6795  0.0665 -0.0004
23351SOL    HW172495   9.025   7.038   6.401  0.3109 -1.2745  1.0189
23351SOL    HW272496   9.175   7.031   6.417  0.5967  1.8371  0.4278
23352SOL     OW72497  10.141   5.486   5.423 -0.6925 -0.6331 -0.0997
23352SOL    HW172498  10.075   5.461   5.359 -2.6058  1.0067  1.1018
23352SOL    HW272499  10.117   5.439   5.502 -0.7804  0.3901  0.5081
23353SOL     OW72500   6.482   4.940   4.839 -0.5369 -0.3730 -0.0853
23353SOL    HW172501   6.531   4.982   4.769 -0.2156  0.0344  0.3754
23353SOL    HW272502   6.421   5.007   4.870 -0.6640 -0.5440  0.0355
23354SOL     OW72503   5.774   3.036   8.570  0.0894  0.2067 -0.3422
23354SOL    HW172504   5.718   3.103   8.530 -0.9868 -0.0738  0.6375
23354SOL    HW272505   5.745   3.032   8.661 -0.7103 -2.4115 -0.6383
23355SOL     OW72506   9.496   6.858   4.351 -0.3109 -0.2268  0.0622
23355SOL    HW172507   9.556   6.812   4.292  0.5518  0.0973  0.6616
23355SOL    HW272508   9.483   6.798   4.424  1.6566  0.8179  1.3615
23356SOL     OW72509   9.356   6.998   7.677  0.4654  0.2665 -0.3345
23356SOL    HW172510   9.372   6.948   7.757  3.0663 -0.8122 -1.4359
23356SOL    HW272511   9.349   6.932   7.608  0.6118  1.2728 -1.3460
23357SOL     OW72512   8.522   3.196   4.665  0.4556 -0.1675 -0.3810
23357SOL    HW172513   8.498   3.112   4.625  0.9887 -0.3298 -0.3597
23357SOL    HW272514   8.499   3.186   4.758  0.0501 -0.1075 -0.4729
23358SOL     OW72515   5.226   4.240   6.298  0.3811  0.4799 -0.1042
23358SOL    HW172516   5.247   4.155   6.258  0.5360  0.6981 -0.4871
23358SOL    HW272517   5.204   4.218   6.389 -4.5169 -0.6655 -1.2782
23359SOL     OW72518   8.219   6.875   2.932 -0.1563 -0.6491  0.2288
23359SOL    HW172519   8.135   6.889   2.975 -0.4391  1.3764 -0.8610
23359SOL    HW272520   8.213   6.785   2.897 -1.6190 -0.7542  0.6691
23360SOL     OW72521   0.292   6.786   6.460 -0.1472  0.2441  0.1739
23360SOL    HW172522   0.288   6.842   6.537 -1.3488 -0.3887  0.6022
23360SOL    HW272523   0.210   6.737   6.462  0.2434 -0.4980 -0.9695
23361SOL     OW72524   9.520   0.653   8.095 -0.1187  0.2895 -0.1511
23361SOL    HW172525   9.519   0.574   8.042  0.9364 -0.0811  0.3400
23361SOL    HW272526   9.429   0.681   8.099 -0.3256 -0.1169 -1.4778
23362SOL     OW72527   8.628   1.155   4.765 -0.4180  0.0709  0.0730
23362SOL    HW172528   8.604   1.137   4.674 -1.6094  0.7014  0.2374
23362SOL    HW272529   8.630   1.251   4.770 -0.8497  0.0449  0.8300
23363SOL     OW72530   5.915   3.648   3.854 -0.0288 -0.1565 -0.5451
23363SOL    HW172531   5.928   3.622   3.762  0.7792 -0.9346 -0.2171
23363SOL    HW272532   5.962   3.731   3.862 -0.2561  0.0108 -0.8711
23364SOL     OW72533   9.006   5.682   1.925  0.6326  0.6725 -0.2609
23364SOL    HW172534   9.040   5.741   1.858  2.1812  0.6274  0.4283
23364SOL    HW272535   8.987   5.740   1.999  1.5703  0.4156  0.2012
23365SOL     OW72536   5.637   3.120   4.752 -0.0886 -0.0843  0.5492
23365SOL    HW172537   5.663   3.056   4.818 -0.1451 -0.6478  0.0370
23365SOL    HW272538   5.663   3.080   4.668 -0.5163  0.3673  0.1928
23366SOL     OW72539  10.455   6.190   6.096  0.2457  0.1276 -0.0365
23366SOL    HW172540  10.534   6.164   6.142 -1.0133 -1.2992  1.4689
23366SOL    HW272541  10.420   6.108   6.060 -0.8198  0.6313 -0.2030
23367SOL     OW72542   4.754   5.054   9.866  0.0285  0.1155  0.4434
23367SOL    HW172543   4.791   5.114   9.931  0.7787 -2.3142  2.4075
23367SOL    HW272544   4.752   4.969   9.910 -0.4197 -1.4683 -2.4003
23368SOL     OW72545   5.640   1.916   1.982  0.6814  0.4255 -0.4158
23368SOL    HW172546   5.697   1.945   1.911  1.5564  0.1936  0.1761
23368SOL    HW272547   5.679   1.953   2.061 -0.8184  1.4859 -0.1214
23369SOL     OW72548   8.305   1.370   6.679  0.7678  0.1636  0.1528
23369SOL    HW172549   8.235   1.314   6.646 -1.3604  2.4226  0.5422
23369SOL    HW272550   8.357   1.313   6.736 -1.7491 -1.2198  1.1983
23370SOL     OW72551   3.177   1.633   4.442 -0.3805  0.1766  0.2869
23370SOL    HW172552   3.228   1.653   4.363  2.4521 -2.5781  1.1962
23370SOL    HW272553   3.206   1.698   4.506 -1.8903  1.7519 -0.5642
23371SOL     OW72554   6.248   0.872   5.829 -0.5561  0.2611  0.1519
23371SOL    HW172555   6.337   0.859   5.861  0.1370  0.7647 -1.4466
23371SOL    HW272556   6.203   0.790   5.848  0.8622 -0.8003 -0.8745
23372SOL     OW72557   5.713   2.676   2.394  0.7725 -0.2318 -0.7684
23372SOL    HW172558   5.743   2.742   2.331  1.1812  0.9161  0.5841
23372SOL    HW272559   5.618   2.690   2.400  1.0489  1.3617  0.6859
23373SOL     OW72560   1.301   2.170   8.320 -0.4004 -0.1782 -0.1878
23373SOL    HW172561   1.284   2.202   8.408  1.8695 -1.1792  0.6936
23373SOL    HW272562   1.234   2.103   8.304 -0.6424 -0.2004  0.8972
23374SOL     OW72563   4.214   2.219   4.634  0.0608  0.4353  0.8745
23374SOL    HW172564   4.262   2.137   4.624 -0.3732  0.1493  1.1105
23374SOL    HW272565   4.219   2.238   4.728 -1.2876 -0.2217  1.0999
23375SOL     OW72566   1.796   0.099   8.730  0.3938 -0.5013  0.4867
23375SOL    HW172567   1.746   0.159   8.785  1.3396 -0.0121  0.8305
23375SOL    HW272568   1.761   0.013   8.751 -3.5049  0.0629 -2.5746
23376SOL     OW72569   2.928   5.005  10.403 -0.5030 -0.1689  0.0646
23376SOL    HW172570   2.922   4.954  10.322  2.7191  0.1166 -0.4745
23376SOL    HW272571   2.888   5.089  10.381 -0.3081 -0.3380 -1.0108
23377SOL     OW72572   2.184   6.638   6.623 -0.2218  0.1538 -0.9116
23377SOL    HW172573   2.270   6.678   6.635 -0.3444  0.0044  0.7665
23377SOL    HW272574   2.159   6.609   6.711 -1.0791 -1.6765 -1.7044
23378SOL     OW72575   3.383   8.778   2.276 -0.1379  0.3051 -0.0048
23378SOL    HW172576   3.413   8.853   2.328 -1.6741  0.9257  0.0366
23378SOL    HW272577   3.292   8.766   2.302 -0.1622 -1.0436 -0.6556
23379SOL     OW72578   6.721   9.430   0.425 -0.1082 -0.0189  0.1431
23379SOL    HW172579   6.673   9.482   0.490 -2.2823  0.2383 -1.5510
23379SOL    HW272580   6.675   9.346   0.423  0.4372 -0.3073 -0.4740
23380SOL     OW72581   0.709   3.516   7.715 -0.1562 -0.1521  0.2614
23380SOL    HW172582   0.629   3.479   7.752 -1.3558  0.3847 -1.6376
23380SOL    HW272583   0.779   3.482   7.771 -1.6838 -0.6281  1.9943
23381SOL     OW72584   3.079   3.027   2.075  0.2095  0.3439  0.2382
23381SOL    HW172585   3.167   2.997   2.053  1.0158  2.2621  0.6600
23381SOL    HW272586   3.048   2.965   2.141  1.1720 -0.4282 -0.0135
23382SOL     OW72587   4.178   6.241   2.822  0.3932 -0.0564  0.2778
23382SOL    HW172588   4.235   6.266   2.749 -0.6234 -0.7744 -0.7923
23382SOL    HW272589   4.151   6.325   2.860  1.2909  0.3158  0.1296
23383SOL     OW72590   3.117   1.669   0.287 -0.3432 -0.4265 -0.0731
23383SOL    HW172591   3.042   1.618   0.318  0.3250 -1.0204  0.5993
23383SOL    HW272592   3.157   1.704   0.366 -0.4390  0.6726 -0.4928
23384SOL     OW72593   2.160   9.458   4.416 -0.5998 -0.2676  0.0842
23384SOL    HW172594   2.074   9.475   4.455 -0.5847 -2.2900  1.1172
23384SOL    HW272595   2.142   9.417   4.332 -0.6140  1.2539 -0.6891
23385SOL     OW72596   5.606   5.628   9.667 -0.7967 -0.8926 -0.0888
23385SOL    HW172597   5.635   5.689   9.735  0.0041 -1.5181  0.1469
23385SOL    HW272598   5.519   5.659   9.643  0.2009  1.3115 -1.1193
23386SOL     OW72599   8.460   8.387   1.354  0.1685 -0.0441 -0.2876
23386SOL    HW172600   8.370   8.417   1.344 -0.5758 -2.5590 -1.9161
23386SOL    HW272601   8.510   8.440   1.291 -0.7845 -0.8819 -1.7955
23387SOL     OW72602   4.302   6.641  10.336 -0.3596  0.0656  0.0140
23387SOL    HW172603   4.210   6.641  10.310 -0.6495  1.3734  0.9378
23387SOL    HW272604   4.322   6.732  10.355  0.5860 -0.4360  1.6780
23388SOL     OW72605   8.700   7.912   3.059  0.2709 -0.0356  0.7822
23388SOL    HW172606   8.638   7.846   3.027 -0.5500  1.7971 -1.6953
23388SOL    HW272607   8.756   7.864   3.120 -0.7974 -2.8153 -0.2549
23389SOL     OW72608   3.931   4.295   6.489  0.3393 -0.4516 -0.2493
23389SOL    HW172609   3.919   4.208   6.451  0.2232  0.2107 -1.8344
23389SOL    HW272610   3.917   4.355   6.415 -0.5622  0.9648  1.0026
23390SOL     OW72611   3.425   5.246   2.716  0.0820  0.4712  0.0671
23390SOL    HW172612   3.347   5.301   2.731 -0.0160  0.0016  1.4219
23390SOL    HW272613   3.398   5.185   2.647 -1.1630 -0.3960  1.2527
23391SOL     OW72614   7.303   9.598   7.116  0.1345 -0.2309 -0.5813
23391SOL    HW172615   7.357   9.654   7.061  2.6960 -0.8743  1.1290
23391SOL    HW272616   7.330   9.509   7.093 -2.2129 -0.7663 -1.5923
23392SOL     OW72617   9.100   7.261   4.771  0.0587 -0.4059 -0.6174
23392SOL    HW172618   9.171   7.326   4.777  0.8024 -0.6239 -4.5060
23392SOL    HW272619   9.021   7.311   4.790  0.9889  0.3544  1.6329
23393SOL     OW72620   5.142   7.207   7.949 -0.1968  0.0825 -0.5042
23393SOL    HW172621   5.213   7.167   7.899  1.1563  1.5095  0.2194
23393SOL    HW272622   5.184   7.241   8.028 -1.8871 -0.0302  0.4981
23394SOL     OW72623   6.552   6.476   3.708 -0.1023  0.5209 -0.0810
23394SOL    HW172624   6.505   6.549   3.750  0.2872  1.1547 -0.7130
23394SOL    HW272625   6.498   6.454   3.633 -0.5307 -0.2620  0.4482
23395SOL     OW72626   1.455   9.879   6.679 -0.1124 -0.5493 -0.1609
23395SOL    HW172627   1.482   9.887   6.587  0.7136  0.0466  0.1234
23395SOL    HW272628   1.424   9.966   6.702  1.8571 -0.0519  0.7832
23396SOL     OW72629   9.244   8.171   8.248 -0.2790 -0.0859 -0.2944
23396SOL    HW172630   9.238   8.097   8.188  2.5702  1.1371 -2.3177
23396SOL    HW272631   9.166   8.164   8.303 -1.2846 -3.2290 -1.8919
23397SOL     OW72632  10.392   1.990   4.112  0.1771 -0.0131 -0.2442
23397SOL    HW172633  10.444   1.916   4.142  1.0801  0.6369 -0.1799
23397SOL    HW272634  10.435   2.020   4.032 -0.4815  0.1276 -0.5554
23398SOL     OW72635   7.738   1.176   1.089  0.0625 -0.1196 -0.2385
23398SOL    HW172636   7.752   1.254   1.036 -0.2358 -0.9690 -1.6437
23398SOL    HW272637   7.747   1.205   1.179  1.0350  1.3067 -0.7645
23399SOL     OW72638   4.768   5.905   2.335  0.1601 -0.3016  0.3090
23399SOL    HW172639   4.827   5.961   2.385  0.4930  0.7918 -1.2281
23399SOL    HW272640   4.821   5.873   2.262 -1.0597  0.6222 -1.0499
23400SOL     OW72641   2.226   2.504   8.652  0.3760 -0.2911  0.4823
23400SOL    HW172642   2.148   2.556   8.671  0.2419  0.6279 -2.2445
23400SOL    HW272643   2.193   2.415   8.636  0.0585 -0.2141  0.6999
23401SOL     OW72644   8.460   6.760   0.497  0.2358  0.3991 -0.3987
23401SOL    HW172645   8.538   6.710   0.524  0.4409  0.5424 -0.7206
23401SOL    HW272646   8.386   6.704   0.522  0.4654 -0.1121 -0.8352
23402SOL     OW72647   7.681   0.942   4.502 -0.3941 -0.0079 -0.0986
23402SOL    HW172648   7.669   1.016   4.444 -0.0886  0.1411  0.0283
23402SOL    HW272649   7.665   0.865   4.446 -2.0659  0.1660  0.0800
23403SOL     OW72650   4.745   0.101  10.166 -0.2059 -0.7504  0.9487
23403SOL    HW172651   4.824   0.076  10.215  0.3566  1.7964  1.4621
23403SOL    HW272652   4.765   0.187  10.130 -2.2170 -0.6995 -0.1986
23404SOL     OW72653   3.877   0.093   3.602  0.0633  0.1073  0.5467
23404SOL    HW172654   3.945   0.057   3.545  1.8846  0.8576  2.1345
23404SOL    HW272655   3.902   0.185   3.615 -1.0749  0.3211  1.4319
23405SOL     OW72656   6.045   7.696   0.984  0.2424  0.0903 -0.5087
23405SOL    HW172657   6.094   7.772   0.953 -0.0385  0.5139  0.0751
23405SOL    HW272658   6.012   7.722   1.070 -1.5695  0.0691 -1.1514
23406SOL     OW72659   3.445   1.208   6.148 -0.2325 -0.1553  0.1256
23406SOL    HW172660   3.457   1.238   6.058  2.0400  0.2650  0.5048
23406SOL    HW272661   3.358   1.239   6.173 -0.9868 -0.4635 -1.9702
23407SOL     OW72662   2.897   8.646   1.184 -0.0027  0.8485  0.2975
23407SOL    HW172663   2.804   8.625   1.195 -0.3594  0.7634 -2.3619
23407SOL    HW272664   2.933   8.573   1.134  0.7022  2.4046 -1.5885
23408SOL     OW72665   1.117   6.158   2.961  0.6419  0.2539 -0.1577
23408SOL    HW172666   1.121   6.254   2.954 -0.4964  0.3377  0.1408
23408SOL    HW272667   1.080   6.142   3.048  1.7730 -0.4824  0.1970
23409SOL     OW72668   8.639   4.656   0.128 -0.4614 -0.6702 -0.1438
23409SOL    HW172669   8.625   4.685   0.218  0.1077 -0.4738 -0.1116
23409SOL    HW272670   8.608   4.729   0.074  3.6135  1.4639 -0.0569
23410SOL     OW72671  10.420   5.759   1.486 -0.4319  0.3831  0.0312
23410SOL    HW172672  10.430   5.667   1.461  3.1616  0.0584  2.0496
23410SOL    HW272673  10.395   5.803   1.404 -0.9222 -2.1490 -1.2875
23411SOL     OW72674  10.144   3.800   6.857 -0.2041  0.4906 -0.2225
23411SOL    HW172675  10.063   3.764   6.820 -0.3003  0.4451  0.0276
23411SOL    HW272676  10.211   3.735   6.834 -0.3350  0.2661  0.0222
23412SOL     OW72677  10.223   2.117   6.587  0.3651 -0.0096  0.4277
23412SOL    HW172678  10.172   2.091   6.510  2.1898 -1.6837 -0.3311
23412SOL    HW272679  10.159   2.149   6.650 -1.3325  0.0863 -1.2729
23413SOL     OW72680   6.914   3.979   2.392  0.6053 -0.1583 -0.1414
23413SOL    HW172681   6.906   3.990   2.487  0.3379 -1.3659 -0.0101
23413SOL    HW272682   6.856   4.047   2.356 -0.7731 -0.8782  0.6130
23414SOL     OW72683   7.240   8.182   8.061  0.8430  0.0461  0.5343
23414SOL    HW172684   7.249   8.087   8.072 -0.1118  0.1582  2.8952
23414SOL    HW272685   7.228   8.194   7.967  1.5105 -2.1175  0.1171
23415SOL     OW72686   6.275   3.994   3.735 -0.1324  0.4846  0.5435
23415SOL    HW172687   6.295   3.966   3.824  1.1237  2.2578  0.8792
23415SOL    HW272688   6.204   4.057   3.746  0.3895  1.1120  0.3654
23416SOL     OW72689   0.947   0.198   2.167 -0.4603  0.3824  0.0125
23416SOL    HW172690   0.965   0.120   2.114  0.4584  0.0663  0.7768
23416SOL    HW272691   1.015   0.260   2.142  0.0399  0.1985  0.8626
23417SOL     OW72692   1.488   7.730   4.984  0.0756 -0.2844  0.1342
23417SOL    HW172693   1.538   7.780   5.048  0.2851  2.5269 -2.0793
23417SOL    HW272694   1.534   7.646   4.978  0.4156 -0.4218  3.1025
23418SOL     OW72695   9.363   0.971   7.044 -0.2417  0.4693 -0.3649
23418SOL    HW172696   9.276   0.934   7.058 -0.3533  0.2024 -1.6351
23418SOL    HW272697   9.417   0.896   7.018 -0.0026  0.8700 -1.0405
23419SOL     OW72698   6.618   9.951   1.538  0.0168 -0.2360 -0.8986
23419SOL    HW172699   6.641   9.858   1.545 -0.4653 -0.3120 -0.1434
23419SOL    HW272700   6.699   9.994   1.513  0.0746 -0.9464 -1.9746
23420SOL     OW72701   7.924   8.761   1.777  0.0543 -0.0223 -0.4525
23420SOL    HW172702   7.868   8.772   1.853 -1.3987  0.2127 -1.5179
23420SOL    HW272703   8.000   8.712   1.810 -0.4076  0.2877  1.1715
23421SOL     OW72704   1.727   3.529   9.094 -0.1935  0.2060 -0.1982
23421SOL    HW172705   1.684   3.477   9.162 -1.8740  1.4793 -0.2126
23421SOL    HW272706   1.772   3.464   9.039 -0.9350 -1.0830  0.6539
23422SOL     OW72707  10.404   5.862   9.556  0.1293 -0.7651  0.1062
23422SOL    HW172708  10.332   5.871   9.619 -0.0339  0.1005 -0.1942
23422SOL    HW272709  10.372   5.799   9.492 -1.0407  0.7932 -0.9165
23423SOL     OW72710   4.340   0.780   7.792  0.3858 -0.5521 -0.1278
23423SOL    HW172711   4.249   0.753   7.805  0.6410 -1.1670  0.4578
23423SOL    HW272712   4.351   0.853   7.854 -0.0536  0.3464 -1.0837
23424SOL     OW72713   7.475   2.157   0.322 -0.0506  0.1752 -0.5801
23424SOL    HW172714   7.416   2.152   0.396  0.3251 -0.1490 -0.2970
23424SOL    HW272715   7.524   2.075   0.324  0.1124  0.2531 -1.0605
23425SOL     OW72716   5.100   2.611   8.106  0.7664  0.2876  0.0068
23425SOL    HW172717   5.123   2.529   8.064  1.0014  2.3686 -4.4993
23425SOL    HW272718   5.004   2.617   8.098  0.9579  1.4708 -2.1522
23426SOL     OW72719  10.322   6.117   3.099  0.4418 -0.0220  0.1199
23426SOL    HW172720  10.289   6.060   3.168 -1.0043 -1.1406 -1.4171
23426SOL    HW272721  10.280   6.085   3.019 -2.1015  4.3262 -0.6419
23427SOL     OW72722   6.422   4.246   9.167 -0.2909 -0.3990 -0.0545
23427SOL    HW172723   6.448   4.232   9.076 -2.1382  0.2235 -0.7162
23427SOL    HW272724   6.416   4.158   9.204  1.0691 -0.6353 -0.3184
23428SOL     OW72725   5.171   7.259   4.286  0.0038  0.2523  0.5089
23428SOL    HW172726   5.172   7.202   4.209  1.1326 -0.5973  1.1266
23428SOL    HW272727   5.078   7.267   4.309 -0.3885  0.8064 -1.1216
23429SOL     OW72728   4.902   6.661   2.982  0.3388  0.4767 -0.3635
23429SOL    HW172729   4.812   6.632   2.970 -0.3946  2.7755 -1.0570
23429SOL    HW272730   4.931   6.618   3.062 -0.7417 -1.6531 -1.0539
23430SOL     OW72731   8.980   6.158   8.614 -1.0245  0.1120 -0.0757
23430SOL    HW172732   8.979   6.078   8.667 -2.2905  0.5049  0.5568
23430SOL    HW272733   8.898   6.203   8.638 -1.6059  0.3657 -2.2985
23431SOL     OW72734   0.021   8.014   6.142  0.0761 -0.7730  0.2779
23431SOL    HW172735   0.106   8.041   6.177 -0.8832  1.3094  1.1690
23431SOL    HW272736  -0.031   7.995   6.220 -1.1810  0.9775 -0.0936
23432SOL     OW72737   0.708   1.440   8.013 -0.8206  0.2782 -0.2292
23432SOL    HW172738   0.746   1.406   8.094 -2.0081  1.6555  0.9877
23432SOL    HW272739   0.765   1.408   7.944  0.6753 -0.3426  1.2209
23433SOL     OW72740   4.682   6.209   2.195  0.4887  0.5261  0.4100
23433SOL    HW172741   4.668   6.229   2.287 -0.5090  0.6828  0.2351
23433SOL    HW272742   4.641   6.281   2.148 -0.8863 -0.5894 -0.1842
23434SOL     OW72743   3.263   1.345   9.931  0.6135 -0.4782  0.0525
23434SOL    HW172744   3.243   1.416   9.870  2.0686 -0.5719 -0.5848
23434SOL    HW272745   3.305   1.278   9.877 -0.0298 -1.4903  0.7872
23435SOL     OW72746   1.187   8.632   5.247 -0.5077 -0.6759 -0.3093
23435SOL    HW172747   1.129   8.640   5.171 -1.2464 -1.5716  0.1325
23435SOL    HW272748   1.225   8.544   5.239  1.0738  0.0228 -0.7693
23436SOL     OW72749   1.138   5.983   4.468 -0.4648  0.1659 -0.1113
23436SOL    HW172750   1.121   5.893   4.495 -1.2658 -0.1016 -1.4183
23436SOL    HW272751   1.071   6.035   4.513 -0.2482  0.0666  0.3333
23437SOL     OW72752   4.458   1.068   6.108 -0.0914 -0.0846 -0.7828
23437SOL    HW172753   4.421   1.023   6.184 -1.2618 -2.0399 -2.4164
23437SOL    HW272754   4.547   1.090   6.134 -0.2242 -1.3770  0.9114
23438SOL     OW72755   4.378   4.359   8.227  0.4692  0.0299  0.1680
23438SOL    HW172756   4.455   4.302   8.224  0.9004  0.6148 -0.3478
23438SOL    HW272757   4.308   4.304   8.261  1.0067 -0.6478  0.1993
23439SOL     OW72758   9.082   7.859   6.579  0.4212 -0.3791 -0.0903
23439SOL    HW172759   9.067   7.917   6.504 -1.5730 -1.1116 -0.3138
23439SOL    HW272760   9.170   7.824   6.565 -0.0340 -0.7933 -2.3136
23440SOL     OW72761   0.388   0.675   3.308 -0.1665 -0.1328  0.1391
23440SOL    HW172762   0.481   0.697   3.318 -0.3139 -0.0719  1.6680
23440SOL    HW272763   0.361   0.719   3.228  1.5862 -1.7628 -1.4573
23441SOL     OW72764   2.153   3.046   7.158  0.0167 -0.4568  0.0097
23441SOL    HW172765   2.103   3.002   7.089 -0.1279 -0.4931  0.1378
23441SOL    HW272766   2.133   2.997   7.238  1.3091 -1.3116 -0.1585
23442SOL     OW72767   6.882   6.048   8.012  0.0543 -0.1255 -0.4821
23442SOL    HW172768   6.952   5.991   7.981  1.1467  0.5209  0.6994
23442SOL    HW272769   6.852   6.095   7.935 -0.0065 -1.3582 -1.2446
23443SOL     OW72770   6.522   3.474   8.020 -0.2492 -0.2439 -0.1506
23443SOL    HW172771   6.460   3.547   8.022 -2.5359 -2.0622 -1.1529
23443SOL    HW272772   6.566   3.482   7.935  0.6992  0.8385  0.4116
23444SOL     OW72773   5.912   0.758   9.984 -0.5618  0.3076  0.2077
23444SOL    HW172774   5.914   0.854   9.981 -0.0219  0.2755 -1.6071
23444SOL    HW272775   5.989   0.731   9.935 -1.2386 -1.0591 -0.1493
23445SOL     OW72776   8.808   2.467   0.922  0.5922 -0.2033 -0.7111
23445SOL    HW172777   8.818   2.472   0.827  0.8511  0.3656 -0.6575
23445SOL    HW272778   8.856   2.388   0.947 -0.5809 -1.1091 -1.1898
23446SOL     OW72779   8.542   7.419   0.048 -0.1948  0.1092  0.0339
23446SOL    HW172780   8.470   7.481   0.060  1.6924  2.5520 -0.4480
23446SOL    HW272781   8.500   7.342   0.008 -2.6186  1.1113  0.4409
23447SOL     OW72782   7.690   3.004   0.052 -0.2339 -0.4558  0.2539
23447SOL    HW172783   7.708   3.092   0.019  0.8969 -0.3952  0.9772
23447SOL    HW272784   7.765   2.984   0.109 -0.1736 -2.1231 -0.3667
23448SOL     OW72785   4.666   1.357   2.863  0.1115  0.2482  0.7606
23448SOL    HW172786   4.583   1.405   2.858  0.3210  0.5002 -0.7419
23448SOL    HW272787   4.659   1.290   2.795  0.5275 -0.7350  1.6659
23449SOL     OW72788   5.047   3.083   3.581  0.4706 -0.4295  0.0482
23449SOL    HW172789   5.086   3.131   3.508 -0.1568  0.2663  0.1597
23449SOL    HW272790   5.047   3.146   3.653 -0.3333 -0.6003  0.2085
23450SOL     OW72791   5.815   8.863   9.193 -0.4651  0.1313 -0.0013
23450SOL    HW172792   5.868   8.942   9.181 -2.3300  1.2842 -1.3834
23450SOL    HW272793   5.754   8.886   9.263 -0.0055 -0.6759  0.6689
23451SOL     OW72794   3.354   2.046   0.313  0.4091  0.1304  0.0723
23451SOL    HW172795   3.402   2.092   0.382  0.6520 -0.8023  0.5399
23451SOL    HW272796   3.278   2.102   0.295 -0.1399 -0.0329  1.7196
23452SOL     OW72797   7.670   1.975   4.804 -0.6375 -0.1726  0.0016
23452SOL    HW172798   7.621   2.049   4.840 -1.6072 -0.8878  0.1848
23452SOL    HW272799   7.640   1.967   4.714 -1.8858 -1.4188  0.4826
23453SOL     OW72800   4.999   0.173   7.109 -0.2412 -0.5286 -0.0492
23453SOL    HW172801   4.914   0.163   7.153 -0.4307 -0.2976 -0.3672
23453SOL    HW272802   5.026   0.083   7.091 -0.3685 -0.6080  0.1467
23454SOL     OW72803   8.235   0.708   7.215 -0.2733 -0.0945 -0.0036
23454SOL    HW172804   8.188   0.787   7.186 -0.7763  0.0987  1.2694
23454SOL    HW272805   8.326   0.724   7.189 -0.0004  1.7755  1.8301
23455SOL     OW72806   1.198   9.916   8.503  0.7841  0.3794  0.1693
23455SOL    HW172807   1.271   9.881   8.452  0.7101  2.0589 -1.1859
23455SOL    HW272808   1.121   9.874   8.466  0.8936  0.0370  0.3208
23456SOL     OW72809   7.650   7.635   8.077  0.4109 -0.3401 -0.2546
23456SOL    HW172810   7.595   7.642   8.156 -0.3148 -0.5686 -0.7280
23456SOL    HW272811   7.696   7.718   8.073 -0.3895  0.1200 -0.1959
23457SOL     OW72812   7.992   8.358   7.348 -0.3351  0.4282  0.2429
23457SOL    HW172813   8.030   8.272   7.365  0.2322  0.2468 -1.6941
23457SOL    HW272814   7.947   8.348   7.264 -1.1358  1.7581  0.4907
23458SOL     OW72815   2.073   2.045   3.431 -0.3246  0.0054  0.2856
23458SOL    HW172816   2.035   1.965   3.394  1.4898 -0.8830  0.2248
23458SOL    HW272817   2.113   2.016   3.513 -1.1007  1.2162  1.1212
23459SOL     OW72818   3.784   8.974   4.994 -0.1219  0.7158  0.9736
23459SOL    HW172819   3.744   8.989   4.908 -1.6740 -0.2206  1.4833
23459SOL    HW272820   3.846   8.903   4.979 -2.8103 -1.8652  1.1643
23460SOL     OW72821   8.870   0.845   6.136  0.1474 -0.3394 -0.4282
23460SOL    HW172822   8.839   0.782   6.071  0.3116 -0.3150 -0.5315
23460SOL    HW272823   8.882   0.793   6.216 -1.3814 -0.1136 -0.0158
23461SOL     OW72824   9.456   3.874   9.416 -0.1038  0.3254  0.3314
23461SOL    HW172825   9.431   3.874   9.324 -1.5855 -0.1627  0.7081
23461SOL    HW272826   9.484   3.784   9.433  1.5882  0.7595  0.0256
23462SOL     OW72827   1.006   9.827   8.294 -0.1803 -0.0258 -0.5645
23462SOL    HW172828   1.031   9.910   8.254  1.6085 -0.0602  0.3629
23462SOL    HW272829   0.912   9.822   8.281 -0.0359  1.1150 -2.5285
23463SOL     OW72830   3.296   5.881   9.025  0.3477 -0.3219 -0.0301
23463SOL    HW172831   3.288   5.786   9.031 -0.0204 -0.4409 -1.9075
23463SOL    HW272832   3.391   5.897   9.028  0.3936 -0.6634  0.9110
23464SOL     OW72833   1.157   2.666   8.389  0.1292 -0.2184 -0.2612
23464SOL    HW172834   1.121   2.749   8.360  0.9195  0.5551  0.8674
23464SOL    HW272835   1.249   2.668   8.362  0.5518 -0.0234  1.0809
23465SOL     OW72836   6.738   6.334   5.843 -0.2799 -0.7469 -0.0120
23465SOL    HW172837   6.814   6.355   5.789  0.2953 -1.1589  0.6064
23465SOL    HW272838   6.722   6.241   5.826 -0.6450 -0.6630 -0.1352
23466SOL     OW72839   6.378   4.554   7.769 -0.3400 -0.1679 -0.2017
23466SOL    HW172840   6.451   4.493   7.772 -0.9952 -0.9574  0.1268
23466SOL    HW272841   6.332   4.532   7.688 -0.4692  0.0100 -0.1767
23467SOL     OW72842   1.516   1.861   8.182 -0.8497 -0.1529  0.0307
23467SOL    HW172843   1.444   1.851   8.119 -0.6911 -0.5575 -0.0869
23467SOL    HW272844   1.561   1.777   8.181 -0.8198 -0.1489  0.6569
23468SOL     OW72845   5.973   2.497   4.909 -0.0454 -0.1208  0.2003
23468SOL    HW172846   5.931   2.553   4.975 -3.8939  0.4385 -2.3961
23468SOL    HW272847   6.048   2.547   4.880 -1.1964  2.0023  0.6366
23469SOL     OW72848   6.047   7.079   7.412 -0.5967 -0.5356  0.2744
23469SOL    HW172849   5.983   7.150   7.407 -2.0544 -1.7816  0.6733
23469SOL    HW272850   6.038   7.044   7.500  1.1703 -0.3085  0.5983
23470SOL     OW72851   1.806   3.800   1.894  0.4715 -0.2857  0.4604
23470SOL    HW172852   1.825   3.785   1.801  0.0981 -1.2350  0.5213
23470SOL    HW272853   1.881   3.848   1.927  1.5648 -1.6863  0.1164
23471SOL     OW72854   3.885   4.058   9.753  0.2159  0.4817 -0.7760
23471SOL    HW172855   3.846   4.144   9.738  1.0602  0.7137 -1.7113
23471SOL    HW272856   3.933   4.068   9.835  1.1656  1.2279 -1.3969
23472SOL     OW72857   3.867  10.259   8.780  0.2211  0.3493  0.7249
23472SOL    HW172858   3.911  10.266   8.696  1.1599 -0.0402  1.1780
23472SOL    HW272859   3.810  10.182   8.771 -0.8581  1.2063 -0.0639
23473SOL     OW72860   3.066   0.213   6.644  0.5325 -0.0737 -0.4040
23473SOL    HW172861   3.024   0.262   6.715 -0.4264  0.0924 -1.0646
23473SOL    HW272862   3.027   0.249   6.564  1.4630 -0.3798 -1.0089
23474SOL     OW72863   8.971   6.769   3.425  0.3742  0.3486 -0.3186
23474SOL    HW172864   8.998   6.692   3.375  1.0084 -0.2627  0.9378
23474SOL    HW272865   8.877   6.757   3.437  0.3580  0.0937 -0.6636
23475SOL     OW72866   2.454   9.946   3.115 -0.5329  0.1507  0.5146
23475SOL    HW172867   2.433   9.875   3.175 -0.1877 -0.9962 -0.6572
23475SOL    HW272868   2.549   9.954   3.120 -0.5368  0.2840  0.3762
23476SOL     OW72869   8.369   5.236   4.408 -0.0920  1.3887  0.4328
23476SOL    HW172870   8.331   5.165   4.357  1.5169  0.2313  0.8041
23476SOL    HW272871   8.350   5.315   4.356 -1.2633  0.6309 -0.3377
23477SOL     OW72872   5.829   5.206   6.058  0.0959  0.5872  0.3757
23477SOL    HW172873   5.878   5.129   6.084  0.3541  0.3843 -0.6558
23477SOL    HW272874   5.872   5.278   6.104  0.5065  0.2417  0.5446
23478SOL     OW72875   2.288   2.029   6.890 -0.0656 -0.5005 -0.1778
23478SOL    HW172876   2.383   2.035   6.903  0.4851 -1.4530 -3.1005
23478SOL    HW272877   2.271   1.935   6.884 -1.4464 -0.4033  1.4952
23479SOL     OW72878   0.534   9.271   4.289 -0.1884  0.4476 -0.0337
23479SOL    HW172879   0.507   9.363   4.285 -1.7103  0.0757  0.8565
23479SOL    HW272880   0.559   9.257   4.380 -2.0610 -0.5160  0.3928
23480SOL     OW72881   9.716   5.591   5.828 -0.7170 -0.0691 -0.2738
23480SOL    HW172882   9.643   5.542   5.792 -0.6402 -0.4041  0.0139
23480SOL    HW272883   9.685   5.622   5.913 -0.4916 -0.3037 -0.1038
23481SOL     OW72884   0.370   6.159  10.453  0.1599 -0.9861 -0.0924
23481SOL    HW172885   0.352   6.189  10.364 -2.1906 -1.7239  0.0614
23481SOL    HW272886   0.444   6.213  10.482  0.2758  0.0223 -2.0870
23482SOL     OW72887  10.309   1.233   8.769  0.3572  0.2149 -0.0822
23482SOL    HW172888  10.369   1.167   8.735 -1.1219 -0.6604 -1.0769
23482SOL    HW272889  10.243   1.184   8.818  1.1455  1.2678  2.1921
23483SOL     OW72890   9.797   2.955  10.469  0.2944  0.1781 -0.1500
23483SOL    HW172891   9.703   2.968  10.458  0.4052  1.0844 -0.1283
23483SOL    HW272892   9.816   2.995  10.554  1.1733  2.6930 -1.4482
23484SOL     OW72893   1.545   4.447   0.623  0.0228  0.1662  0.3443
23484SOL    HW172894   1.557   4.537   0.656 -1.1466  0.8477 -0.9549
23484SOL    HW272895   1.582   4.449   0.535  0.5745 -0.8245  0.5498
23485SOL     OW72896   4.071   0.063   6.067 -0.3426 -0.4212 -0.3382
23485SOL    HW172897   4.144   0.001   6.063  0.2591  0.0164  1.9746
23485SOL    HW272898   4.113   0.148   6.081 -1.2508 -0.1655  1.0723
23486SOL     OW72899   3.985   9.061   5.178  0.3169 -0.0000 -0.2705
23486SOL    HW172900   3.910   9.026   5.130 -0.0712 -1.4670  1.2818
23486SOL    HW272901   3.967   9.040   5.269  2.4402 -0.0484  0.1992
23487SOL     OW72902   3.769   3.019   6.860 -0.7627  0.1512 -0.1579
23487SOL    HW172903   3.811   3.102   6.837  0.4761 -0.6445 -0.8745
23487SOL    HW272904   3.701   3.043   6.922  0.4023  1.5800  0.6375
23488SOL     OW72905   2.222   2.358   2.565 -0.2717 -0.4557 -0.5327
23488SOL    HW172906   2.278   2.328   2.637 -0.5299 -0.0349 -0.1585
23488SOL    HW272907   2.141   2.385   2.607 -0.4163 -0.1944 -0.9817
23489SOL     OW72908   6.681   5.510   6.192 -0.1258 -0.0363  0.0051
23489SOL    HW172909   6.657   5.598   6.221 -0.0698  0.4580 -1.4003
23489SOL    HW272910   6.687   5.516   6.097  1.7844 -1.0877  0.0131
23490SOL     OW72911   7.711   7.793   3.439 -0.2130  0.1210 -0.0318
23490SOL    HW172912   7.715   7.888   3.447 -0.5765  0.1415 -0.0604
23490SOL    HW272913   7.710   7.761   3.530  1.7264  0.0454  0.0036
23491SOL     OW72914   7.819   3.782   9.474 -0.3232 -0.3617 -0.2355
23491SOL    HW172915   7.766   3.838   9.530 -0.8384 -2.0855  1.0810
23491SOL    HW272916   7.758   3.748   9.409 -0.2880 -0.3906 -0.2535
23492SOL     OW72917   2.562   0.854   0.860  0.5182  0.1922  0.3995
23492SOL    HW172918   2.611   0.800   0.922 -0.1936 -1.7458 -0.6542
23492SOL    HW272919   2.627   0.880   0.795  0.8129  0.3755  0.7653
23493SOL     OW72920   8.963   4.866   3.882  0.4422 -0.3701 -0.2369
23493SOL    HW172921   8.908   4.931   3.927  1.0133 -1.1393  1.6439
23493SOL    HW272922   8.983   4.907   3.798 -2.3458  0.2761 -0.6931
23494SOL     OW72923   2.878   6.421  10.015 -0.1284 -0.3869  0.4472
23494SOL    HW172924   2.872   6.428   9.920  1.5372  1.3649  0.3979
23494SOL    HW272925   2.847   6.333  10.035 -0.8772 -0.6515 -1.6704
23495SOL     OW72926   1.155   0.543   8.484  0.3491 -0.3778 -0.1001
23495SOL    HW172927   1.073   0.561   8.530  1.0473 -0.6684  1.3258
23495SOL    HW272928   1.154   0.449   8.469  0.7320 -0.5075  0.6052
23496SOL     OW72929   8.223   5.106   1.992 -0.5542  0.6512 -0.5794
23496SOL    HW172930   8.273   5.126   2.071  2.2932 -2.0182 -1.5034
23496SOL    HW272931   8.162   5.037   2.020 -0.1590  0.3166 -0.5467
23497SOL     OW72932   5.951   3.714   0.067  0.4098 -0.3795  0.4774
23497SOL    HW172933   6.033   3.711   0.017 -0.3360 -0.7297 -0.7806
23497SOL    HW272934   5.969   3.773   0.140  1.2794  0.8662 -0.7056
23498SOL     OW72935   8.655   8.124   2.881 -0.4468 -0.2090  0.3615
23498SOL    HW172936   8.672   8.043   2.928  0.0479 -0.6781 -0.5814
23498SOL    HW272937   8.707   8.190   2.926 -2.8503  0.2081  2.7680
23499SOL     OW72938   2.939   8.534   4.699  0.0027  0.1000  0.1819
23499SOL    HW172939   3.017   8.581   4.727 -0.2009 -0.1494  1.2100
23499SOL    HW272940   2.885   8.600   4.655  0.7421  0.2928 -0.4552
23500SOL     OW72941   3.812   8.527   0.556  0.5781  0.3901  0.4588
23500SOL    HW172942   3.875   8.455   0.562  1.8851  1.0511 -3.0525
23500SOL    HW272943   3.847   8.594   0.614  2.6007  0.3114 -0.5705
23501SOL     OW72944   8.212   0.107   6.331 -0.1003  0.2824  0.0271
23501SOL    HW172945   8.194   0.176   6.395 -1.4186  0.0441 -0.0659
23501SOL    HW272946   8.182   0.027   6.374  0.2878 -0.0650 -0.3514
23502SOL     OW72947   0.526   2.772   4.848  0.3031  0.2570 -0.0480
23502SOL    HW172948   0.476   2.808   4.920  0.6388  2.7123 -0.9299
23502SOL    HW272949   0.466   2.774   4.773  0.7125  0.0831 -0.3865
23503SOL     OW72950   2.096   1.783   3.858  0.0930  0.2092 -0.2645
23503SOL    HW172951   2.030   1.828   3.807 -0.8763 -2.0093 -1.0929
23503SOL    HW272952   2.093   1.825   3.944 -2.4756  0.1259 -0.2533
23504SOL     OW72953   4.696   3.958   8.458 -0.8887  0.1536  0.2611
23504SOL    HW172954   4.693   3.925   8.548  0.3486  0.3061  0.3832
23504SOL    HW272955   4.605   3.955   8.428 -1.2943 -0.0908  1.4460
23505SOL     OW72956   5.410   4.797   9.289  0.3130  0.2305  0.0742
23505SOL    HW172957   5.373   4.708   9.297 -0.4596  0.6358  1.1946
23505SOL    HW272958   5.339   4.855   9.317  2.1025  1.0085  3.5847
23506SOL     OW72959   1.150   0.203   4.686  0.1437 -0.0949  0.1792
23506SOL    HW172960   1.192   0.193   4.601  0.4826 -1.3808  0.4735
23506SOL    HW272961   1.072   0.256   4.669 -0.0592 -0.7490 -1.0255
23507SOL     OW72962   9.811   0.830   9.637 -0.8289  0.6919 -0.6288
23507SOL    HW172963   9.784   0.879   9.714 -1.8529 -0.4046 -0.2662
23507SOL    HW272964   9.825   0.897   9.570 -2.3497  1.4832 -0.1938
23508SOL     OW72965   9.995   2.259   7.949 -0.1116 -0.1627 -0.3076
23508SOL    HW172966  10.016   2.246   7.857  1.1554 -0.3482 -0.0119
23508SOL    HW272967  10.036   2.185   7.994 -1.3944 -0.5265  0.3393
23509SOL     OW72968   9.443   7.558   5.254  0.2882  0.0027  0.0067
23509SOL    HW172969   9.520   7.568   5.311  0.3630 -0.1900 -0.0593
23509SOL    HW272970   9.402   7.645   5.254 -0.0723 -0.1603  0.8644
23510SOL     OW72971   2.653   6.847   6.070  0.5450  0.0427 -0.4752
23510SOL    HW172972   2.619   6.936   6.068 -1.4359 -0.5875  1.2189
23510SOL    HW272973   2.590   6.796   6.019 -0.1948 -0.8563  1.2263
23511SOL     OW72974   7.803   7.461   5.534 -0.3913  0.1180  0.1424
23511SOL    HW172975   7.754   7.508   5.466  0.8570 -0.2022 -1.0249
23511SOL    HW272976   7.883   7.513   5.546  0.2525 -0.8259  0.0074
23512SOL     OW72977   2.135   2.206   9.788 -0.0539  0.0790  0.0927
23512SOL    HW172978   2.121   2.298   9.767 -1.9572 -0.1637  0.1800
23512SOL    HW272979   2.069   2.159   9.737  1.5514 -1.3619 -0.7731
23513SOL     OW72980   2.128   1.776   1.236 -0.1059  0.1011 -0.0914
23513SOL    HW172981   2.059   1.783   1.303 -0.1040  1.4592 -0.2065
23513SOL    HW272982   2.208   1.803   1.282 -0.0663  0.8242 -0.5772
23514SOL     OW72983   4.656  10.235   2.659 -0.2721  0.1023 -0.0441
23514SOL    HW172984   4.598  10.190   2.598  0.2846 -0.9054  0.1410
23514SOL    HW272985   4.659  10.325   2.628 -1.0788 -0.0849 -0.6893
23515SOL     OW72986   7.721   7.816   9.665  0.4001 -0.1159  0.3818
23515SOL    HW172987   7.683   7.904   9.668 -0.9963 -0.7027  1.3329
23515SOL    HW272988   7.771   7.814   9.584  0.3543  1.5047  0.2702
23516SOL     OW72989   8.448   6.666   8.006  0.4211  0.1389  0.1105
23516SOL    HW172990   8.528   6.718   7.996 -0.1496  1.3208  1.5189
23516SOL    HW272991   8.473   6.579   7.974  2.0038  0.7169 -0.3180
23517SOL     OW72992   9.319   2.208   6.837 -0.5895  0.0114  0.0941
23517SOL    HW172993   9.293   2.123   6.801  0.4648 -0.3221  0.0931
23517SOL    HW272994   9.408   2.221   6.806 -0.8661  1.2988 -0.2009
23518SOL     OW72995   7.716   8.324  10.298  0.3828 -0.4340  0.4822
23518SOL    HW172996   7.656   8.295  10.367 -0.6288 -2.9769 -1.2972
23518SOL    HW272997   7.710   8.419  10.298 -0.0088 -0.3804  3.4510
23519SOL     OW72998   8.489  10.425   8.810 -0.4885 -0.1920  0.0483
23519SOL    HW172999   8.496  10.390   8.898  0.0810  1.2884  0.6286
23519SOL    HW273000   8.415  10.486   8.815 -1.0089 -0.7451 -0.7334
23520SOL     OW73001   2.546   6.264   5.049  0.2466 -0.0691 -0.3126
23520SOL    HW173002   2.551   6.311   4.965  1.8710  0.1341 -0.1500
23520SOL    HW273003   2.563   6.172   5.025  0.0537 -0.1118 -0.2840
23521SOL     OW73004   5.684   8.773   4.255  0.2746 -0.4117 -0.2814
23521SOL    HW173005   5.748   8.721   4.304  2.4726  1.8169 -0.5985
23521SOL    HW273006   5.604   8.767   4.307  1.1948 -1.8835  1.0844
23522SOL     OW73007   6.540   2.872   9.445  0.5981 -0.6830  0.2533
23522SOL    HW173008   6.504   2.784   9.455 -2.8064  0.5293  0.2790
23522SOL    HW273009   6.559   2.901   9.534  1.2564 -1.2151  0.2857
23523SOL     OW73010   2.574   4.950   1.091 -0.0089 -0.3014  0.2662
23523SOL    HW173011   2.483   4.978   1.105  0.1231 -0.9318  3.0586
23523SOL    HW273012   2.599   4.990   1.008 -1.7593  2.7480  1.0390
23524SOL     OW73013   0.518   3.807   1.893 -0.2258 -0.0094 -0.1283
23524SOL    HW173014   0.580   3.753   1.843 -0.2321 -0.3712  0.2443
23524SOL    HW273015   0.520   3.892   1.851  0.6179  0.0170 -0.0522
23525SOL     OW73016   0.843   2.726   6.757 -0.4824 -0.1596  0.0638
23525SOL    HW173017   0.857   2.819   6.736 -1.3780 -0.2700 -1.1080
23525SOL    HW273018   0.749   2.712   6.743 -0.1690 -1.5054 -0.8394
23526SOL     OW73019   7.348   1.217   8.577 -0.3258 -0.1994 -0.4982
23526SOL    HW173020   7.416   1.172   8.526 -0.5522  0.2643 -1.2245
23526SOL    HW273021   7.266   1.180   8.544 -0.4349 -0.6855  0.3044
23527SOL     OW73022   2.912   8.361   3.363  0.3219  0.0244  0.1682
23527SOL    HW173023   2.874   8.344   3.278  2.2062 -0.9159 -0.5570
23527SOL    HW273024   2.978   8.429   3.347 -0.6838  1.3066  1.2815
23528SOL     OW73025   5.790   1.670   9.470 -0.0767  0.0547 -0.0346
23528SOL    HW173026   5.788   1.637   9.560 -1.7418  0.8187  0.2534
23528SOL    HW273027   5.872   1.719   9.464 -0.2631  0.5890  1.3147
23529SOL     OW73028   1.172   9.484   6.385 -0.0923  0.3777  0.4990
23529SOL    HW173029   1.182   9.494   6.480 -0.3040 -1.7679  0.7886
23529SOL    HW273030   1.082   9.454   6.373  0.2521 -0.3993 -0.2679
23530SOL     OW73031   2.961   1.265   7.630 -0.3242 -0.1618  0.6451
23530SOL    HW173032   2.982   1.357   7.644  0.7707 -0.2336 -0.3458
23530SOL    HW273033   3.010   1.218   7.698  1.5311 -0.1992 -0.6356
23531SOL     OW73034   6.280   5.103   1.113  0.1125  0.3182  0.2902
23531SOL    HW173035   6.298   5.082   1.205  0.3584  1.3794  0.4920
23531SOL    HW273036   6.247   5.193   1.115 -2.0953 -0.4181 -0.4206
23532SOL     OW73037   2.660   8.003   3.643 -0.3447  0.3027  0.6887
23532SOL    HW173038   2.614   8.084   3.661 -0.0006  0.7173 -0.2025
23532SOL    HW273039   2.750   8.029   3.625 -0.8013  0.1417 -2.5072
23533SOL     OW73040   9.010   5.474   3.554 -0.2648  0.1067 -0.4557
23533SOL    HW173041   8.980   5.395   3.510 -0.6001  0.2794 -0.5398
23533SOL    HW273042   9.012   5.451   3.647  0.4211 -0.2507 -0.5521
23534SOL     OW73043   9.946   1.002   3.124  0.6284  0.3412 -0.3891
23534SOL    HW173044  10.019   0.941   3.133  0.4481  0.0714 -0.7417
23534SOL    HW273045   9.973   1.060   3.053  0.3678  0.0509 -0.7266
23535SOL     OW73046   7.025   7.850  10.101  0.4855  0.1646  0.5185
23535SOL    HW173047   7.107   7.851  10.052  0.8813  1.1032  1.1684
23535SOL    HW273048   7.041   7.906  10.177 -0.3901 -0.5744  1.2813
23536SOL     OW73049   2.687   2.126   0.028 -0.2799  0.0849 -0.2208
23536SOL    HW173050   2.734   2.197  -0.016  0.6168 -1.6124 -2.1735
23536SOL    HW273051   2.645   2.077  -0.043 -0.2415 -1.7476  0.9411
23537SOL     OW73052   3.044   6.634  10.057  0.3180 -0.1695 -0.7115
23537SOL    HW173053   2.980   6.566  10.040  0.8366 -0.7246 -0.4815
23537SOL    HW273054   3.005   6.714  10.022 -0.3070 -0.5792 -0.9541
23538SOL     OW73055   3.659   1.436   8.118  0.0992 -0.0252 -0.5501
23538SOL    HW173056   3.620   1.449   8.204  1.8140 -0.3218  0.2996
23538SOL    HW273057   3.667   1.341   8.108 -0.9252 -0.0423 -1.4550
23539SOL     OW73058   7.646   3.099   3.571  0.4611  0.5460  0.4027
23539SOL    HW173059   7.687   3.034   3.514 -2.0526 -0.5405 -0.3017
23539SOL    HW273060   7.664   3.067   3.660  1.3905  0.2931  0.1349
23540SOL     OW73061  10.427   0.034   1.150 -0.1341  0.4367  0.3349
23540SOL    HW173062  10.439   0.083   1.231 -0.3765  0.4827  0.3441
23540SOL    HW273063  10.516   0.021   1.116 -0.0387  0.4886  0.5650
23541SOL     OW73064   6.321   1.273   1.460  0.1789 -0.1538 -0.7136
23541SOL    HW173065   6.298   1.194   1.509 -2.2750  1.7052  1.4206
23541SOL    HW273066   6.411   1.291   1.485  0.0460 -1.0557  0.5519
23542SOL     OW73067   1.239   5.177   9.824  0.6638  0.4214 -0.5725
23542SOL    HW173068   1.250   5.270   9.846  0.2834  0.1921  0.6994
23542SOL    HW273069   1.147   5.169   9.801  0.6869  0.3495 -0.6375
23543SOL     OW73070   9.355   6.876   7.932 -0.2979  0.1419 -0.1129
23543SOL    HW173071   9.310   6.792   7.930 -0.2198 -0.1119  3.3697
23543SOL    HW273072   9.444   6.855   7.960  0.3985  1.2198 -1.3698
23544SOL     OW73073   9.934   6.557   3.726  0.3901 -0.7304 -0.0249
23544SOL    HW173074   9.883   6.486   3.765 -2.0503 -0.0992 -1.7915
23544SOL    HW273075  10.017   6.516   3.702  0.5669 -1.9706  2.4441
23545SOL     OW73076   9.321   6.909   3.334 -0.4388 -0.7962  0.7837
23545SOL    HW173077   9.365   6.903   3.249 -0.7937 -2.2356  0.6700
23545SOL    HW273078   9.348   6.830   3.381 -3.0843 -1.9382  0.5815
23546SOL     OW73079   0.076   2.830   9.487  0.4732 -0.1662 -0.1704
23546SOL    HW173080   0.035   2.744   9.488  0.4540 -0.1932 -1.4839
23546SOL    HW273081   0.004   2.892   9.497  0.3285 -0.2700 -0.5500
23547SOL     OW73082   7.493   6.098   1.713 -0.0474 -0.0181  0.3910
23547SOL    HW173083   7.499   6.003   1.722 -0.2015  0.0590  1.3826
23547SOL    HW273084   7.525   6.133   1.796 -0.6553  0.7808  0.3071
23548SOL     OW73085   7.643   5.950   1.182 -0.0597 -0.2584  0.3778
23548SOL    HW173086   7.642   5.921   1.091 -0.3716  0.2230  0.2217
23548SOL    HW273087   7.643   5.870   1.233 -2.4267 -0.5723 -0.0227
23549SOL     OW73088   2.746   0.114   9.633  0.2691 -0.6136  0.0482
23549SOL    HW173089   2.777   0.203   9.614  0.6004 -1.0539 -1.6244
23549SOL    HW273090   2.775   0.097   9.723 -2.4149  2.0479  1.6000
23550SOL     OW73091   0.489   2.418   1.455  0.0811  0.2259  0.5927
23550SOL    HW173092   0.448   2.499   1.484 -0.7772 -0.4221  1.2537
23550SOL    HW273093   0.471   2.356   1.526  3.2890  0.2067  1.5223
23551SOL     OW73094   0.314   5.358   3.684  0.2581  0.5112 -0.7022
23551SOL    HW173095   0.271   5.350   3.599 -2.5541  1.4377  0.5231
23551SOL    HW273096   0.322   5.268   3.716  0.9475  0.1923 -1.7288
23552SOL     OW73097   9.191   4.713   7.624 -0.1930 -0.0618 -0.3891
23552SOL    HW173098   9.120   4.658   7.660 -1.0078  0.8048 -0.6351
23552SOL    HW273099   9.228   4.756   7.701  0.2353 -0.6946 -0.2321
23553SOL     OW73100   7.535   4.867   7.705  0.3107  0.1820 -0.7875
23553SOL    HW173101   7.448   4.856   7.744  0.6839  0.3899  0.1400
23553SOL    HW273102   7.527   4.943   7.648  0.7020  2.3553  1.8833
23554SOL     OW73103   9.189   7.575   2.877 -0.3707 -0.3343  0.2719
23554SOL    HW173104   9.097   7.550   2.880  0.1072 -2.5294 -1.0799
23554SOL    HW273105   9.226   7.520   2.808  2.0671  0.1496  1.1104
23555SOL     OW73106   0.749   0.447   1.002 -0.0306 -0.0040 -0.5499
23555SOL    HW173107   0.749   0.368   1.057 -0.4299  1.3937  1.5967
23555SOL    HW273108   0.686   0.505   1.045  1.1779  1.9630 -1.3141
23556SOL     OW73109   5.182   3.624   1.280 -0.3332 -0.5698  0.0992
23556SOL    HW173110   5.151   3.539   1.249 -0.2903 -0.4847 -0.1805
23556SOL    HW273111   5.131   3.641   1.359 -0.9524 -0.4600 -0.3159
23557SOL     OW73112   2.057   7.390   7.670  0.1661 -0.5693 -0.4523
23557SOL    HW173113   2.118   7.417   7.601 -0.3130 -1.5462 -1.2836
23557SOL    HW273114   2.024   7.472   7.706  1.6638 -0.0255 -0.2518
23558SOL     OW73115   3.507   8.617   8.101 -0.1544  0.0617 -0.0620
23558SOL    HW173116   3.446   8.690   8.084  0.5426  0.8824  0.8304
23558SOL    HW273117   3.543   8.636   8.188 -1.9409 -2.7853  1.4675
23559SOL     OW73118   2.859   4.899   1.726  0.2492  0.2150 -0.3551
23559SOL    HW173119   2.930   4.962   1.723 -0.8763  1.5033 -2.2180
23559SOL    HW273120   2.789   4.943   1.774  0.1015 -0.3460 -0.0452
23560SOL     OW73121   8.890   0.938   7.350 -0.9929  0.8180  0.3481
23560SOL    HW173122   8.823   0.918   7.285  0.8123  1.9481 -2.0390
23560SOL    HW273123   8.895   1.033   7.352  1.4552  0.8046 -0.7216
23561SOL     OW73124   4.188   0.333   4.533  0.3812  0.2801  0.6145
23561SOL    HW173125   4.190   0.428   4.526  3.8251  0.4567  1.9271
23561SOL    HW273126   4.198   0.301   4.443  0.2830  1.1857  0.2810
23562SOL     OW73127   1.354   6.085   5.909 -0.0730  0.7071  0.0262
23562SOL    HW173128   1.409   6.014   5.875 -2.2303 -1.2647  0.4075
23562SOL    HW273129   1.283   6.093   5.845 -0.9457  1.1367  1.0229
23563SOL     OW73130   4.993   3.646   4.069 -0.1417  0.1825 -0.4610
23563SOL    HW173131   5.074   3.605   4.100 -0.1574 -0.2422 -0.9721
23563SOL    HW273132   4.959   3.585   4.003 -0.4248  0.7780 -0.8734
23564SOL     OW73133  10.438   6.839   0.569  0.0366  0.2360 -0.0812
23564SOL    HW173134  10.364   6.780   0.584 -0.6723  1.3377  0.9234
23564SOL    HW273135  10.397   6.922   0.544  0.8945  1.0832  1.2467
23565SOL     OW73136   3.477   4.647   9.782  0.0195 -0.7255 -0.1812
23565SOL    HW173137   3.481   4.675   9.691  0.1740  2.2158  0.6266
23565SOL    HW273138   3.465   4.552   9.778 -0.8864 -0.5718 -3.2365
23566SOL     OW73139   4.876   5.164   7.055  0.4725 -0.2449 -0.2098
23566SOL    HW173140   4.922   5.220   7.118  1.4560 -0.6409 -0.5525
23566SOL    HW273141   4.826   5.225   7.001  0.0696  0.1414  0.5926
23567SOL     OW73142   4.881   3.571   4.978 -0.6837  0.4859 -0.0957
23567SOL    HW173143   4.944   3.633   5.017 -0.0228 -0.6535  0.7107
23567SOL    HW273144   4.804   3.624   4.960  0.6836  2.0585 -1.6469
23568SOL     OW73145   2.391   1.831   8.494 -0.3027 -0.4595  0.3829
23568SOL    HW173146   2.425   1.916   8.467 -0.1609 -1.4025 -2.7680
23568SOL    HW273147   2.324   1.851   8.559  0.1896  1.9859  0.2307
23569SOL     OW73148   1.442   9.979   6.224  1.0846 -0.1288  0.2927
23569SOL    HW173149   1.352   9.992   6.254  1.1138 -1.3599  0.9982
23569SOL    HW273150   1.436   9.909   6.159  1.4938  0.0659  0.0367
23570SOL     OW73151   3.005   5.185   2.087  0.0141  0.1328  0.1654
23570SOL    HW173152   2.987   5.233   2.167 -2.2435 -1.5117  0.7712
23570SOL    HW273153   3.077   5.126   2.109 -1.6651 -1.4970  1.6265
23571SOL     OW73154   7.364   1.554   0.031 -0.1928  0.3980 -0.2264
23571SOL    HW173155   7.323   1.529   0.113  1.4530  2.7815  1.4627
23571SOL    HW273156   7.290   1.576  -0.027 -1.3743  0.5086  1.2559
23572SOL     OW73157   9.995   4.779   0.760  0.1734  0.1238  0.6165
23572SOL    HW173158   9.901   4.800   0.754  0.4632  1.1097 -2.6640
23572SOL    HW273159  10.003   4.694   0.715  0.9837  0.6535 -0.2638
23573SOL     OW73160   1.699   6.530   7.282  0.3520  0.3681 -0.6070
23573SOL    HW173161   1.689   6.461   7.216 -0.0341 -0.3868  0.2219
23573SOL    HW273162   1.773   6.501   7.335  0.1758  0.5814 -0.2452
23574SOL     OW73163   3.003   8.760   5.676  0.5641 -0.0986 -0.1646
23574SOL    HW173164   3.036   8.678   5.713 -1.2746 -0.5607  0.6261
23574SOL    HW273165   2.909   8.757   5.695  0.4418  2.1483 -0.2211
23575SOL     OW73166   2.507   8.894   4.429  0.4980 -0.3629  0.1618
23575SOL    HW173167   2.569   8.944   4.376  0.8350 -0.3748  0.5442
23575SOL    HW273168   2.511   8.806   4.394  1.2841 -0.5490  0.6895
23576SOL     OW73169   2.565   2.784   6.695 -0.1727 -0.0691  0.9472
23576SOL    HW173170   2.506   2.813   6.765 -0.6409 -0.5189  0.7398
23576SOL    HW273171   2.645   2.833   6.711 -0.1980 -0.3223  1.9285
23577SOL     OW73172   5.456   7.373   1.183 -0.6859  0.3154  0.7472
23577SOL    HW173173   5.536   7.423   1.201 -0.4582 -0.4106  1.8820
23577SOL    HW273174   5.482   7.308   1.119 -0.5665  0.5742  0.5296
23578SOL     OW73175   1.137   1.508   1.697 -0.3608 -0.6295  0.6643
23578SOL    HW173176   1.130   1.488   1.791 -0.6132  0.5431  0.9123
23578SOL    HW273177   1.227   1.537   1.685 -0.5695  0.0539  0.7210
23579SOL     OW73178   6.921   2.467   4.891 -0.2100 -0.2934 -0.0802
23579SOL    HW173179   6.997   2.468   4.832 -1.6854 -1.0580 -2.1056
23579SOL    HW273180   6.913   2.558   4.921  2.0410 -0.3832  0.9815
23580SOL     OW73181   9.052   5.821  10.234  0.0197 -0.1102 -0.1072
23580SOL    HW173182   9.086   5.822  10.144  0.2709  2.9863 -0.0988
23580SOL    HW273183   9.121   5.863  10.286 -1.1371  0.4051  1.0645
23581SOL     OW73184   7.276   2.191   9.186 -0.1524  0.5637  0.1305
23581SOL    HW173185   7.274   2.286   9.180 -1.2019  0.4861 -1.7325
23581SOL    HW273186   7.292   2.162   9.096 -0.8525 -1.0216  0.4818
23582SOL     OW73187   1.943   1.058   3.722 -0.1783  0.2408 -0.0430
23582SOL    HW173188   2.011   1.083   3.658 -0.4563  1.2674  0.0442
23582SOL    HW273189   1.990   1.050   3.805  0.7840 -3.9736 -0.7293
23583SOL     OW73190  10.350   3.416   8.029 -0.4902 -0.0688 -0.6739
23583SOL    HW173191  10.281   3.477   8.057 -0.6238 -1.3200  2.1433
23583SOL    HW273192  10.313   3.371   7.953 -1.6239  1.2080 -0.9136
23584SOL     OW73193   6.251   0.965   6.468  0.7381 -0.5970  0.1091
23584SOL    HW173194   6.225   0.892   6.524  0.7079  0.1375  1.0712
23584SOL    HW273195   6.346   0.955   6.459  0.7165 -0.8295  0.1198
23585SOL     OW73196   2.487   9.076  10.334  0.0696 -0.3851  0.1267
23585SOL    HW173197   2.538   9.103  10.411  0.3615 -0.2228 -0.1206
23585SOL    HW273198   2.552   9.036  10.275 -0.0298  0.1000 -0.3216
23586SOL     OW73199   1.639   5.724   7.616 -0.3662 -0.3413  0.3231
23586SOL    HW173200   1.559   5.772   7.592 -0.7139 -1.2167 -0.3500
23586SOL    HW273201   1.617   5.683   7.700 -0.4623 -0.2019  0.3667
23587SOL     OW73202   1.466   7.937   7.374  0.2756 -0.0018  0.5817
23587SOL    HW173203   1.406   7.967   7.443  0.7202  0.8123  0.6294
23587SOL    HW273204   1.488   7.847   7.399 -1.3680 -0.5339  0.2478
23588SOL     OW73205   0.048   0.368   5.272  0.3630 -0.2847 -0.4859
23588SOL    HW173206   0.132   0.359   5.316  0.7680  0.2561 -1.1335
23588SOL    HW273207   0.058   0.445   5.216 -1.3162  1.2252  1.1363
23589SOL     OW73208   4.094   1.050   5.699 -0.1454  0.3133 -0.8173
23589SOL    HW173209   4.149   1.090   5.767  1.0893  0.5874 -1.9228
23589SOL    HW273210   4.123   0.959   5.695 -0.8810  0.0555 -0.3292
23590SOL     OW73211   6.859   7.701   1.415 -0.3506 -0.0149  0.1526
23590SOL    HW173212   6.855   7.792   1.384 -0.8177  1.0317  2.9460
23590SOL    HW273213   6.949   7.674   1.398  0.1324  1.4030  0.2907
23591SOL     OW73214   8.291  10.341   3.948  0.4161  0.5505 -0.2298
23591SOL    HW173215   8.268  10.367   3.859 -1.3075 -0.4953 -0.1163
23591SOL    HW273216   8.365  10.281   3.937 -0.6253 -0.6285 -1.0857
23592SOL     OW73217   0.070   9.723   7.468  0.6120  0.7770 -0.0956
23592SOL    HW173218   0.114   9.655   7.417  0.6828 -1.0094  2.1789
23592SOL    HW273219   0.140   9.782   7.496  1.1292 -0.2041  0.7655
23593SOL     OW73220   4.723   5.682   1.342 -0.2952 -1.1020 -0.2007
23593SOL    HW173221   4.751   5.774   1.336 -1.2226 -0.8279 -0.4951
23593SOL    HW273222   4.657   5.673   1.273  1.6749 -2.7174 -1.9847
23594SOL     OW73223   0.328   3.865   1.391  0.1400 -0.2252  0.2828
23594SOL    HW173224   0.248   3.847   1.439  0.6466  0.5174  1.4443
23594SOL    HW273225   0.348   3.956   1.411  0.5851 -0.0048 -1.0375
23595SOL     OW73226   3.679   5.755  10.242  0.6678 -0.3433 -0.3737
23595SOL    HW173227   3.641   5.799  10.317 -0.4711 -2.8032  0.6081
23595SOL    HW273228   3.771   5.781  10.242  1.1163 -1.4924  2.9109
23596SOL     OW73229   5.508   0.725   0.973  0.1333 -0.1720  0.3315
23596SOL    HW173230   5.510   0.663   1.046 -0.3935  0.6884  1.0970
23596SOL    HW273231   5.459   0.800   1.007  0.8472  0.7124 -0.5339
23597SOL     OW73232   5.450   8.735   7.278 -0.6946  0.0514 -0.3549
23597SOL    HW173233   5.484   8.824   7.278  1.5226 -0.7398 -0.7989
23597SOL    HW273234   5.482   8.696   7.359 -3.4083  0.2158  0.8886
23598SOL     OW73235   7.155   2.134   0.334 -0.3999 -0.0787  0.0021
23598SOL    HW173236   7.144   2.159   0.243  0.1661  0.8477  0.1767
23598SOL    HW273237   7.204   2.052   0.331 -1.8784 -0.9960 -0.5644
23599SOL     OW73238   9.150   1.823   0.004  0.2611 -0.7115 -0.3472
23599SOL    HW173239   9.198   1.864   0.076 -0.1679 -2.3392  0.9181
23599SOL    HW273240   9.145   1.730   0.028 -1.0253 -1.0682 -1.8499
23600SOL     OW73241   8.863   9.413   5.036  0.0132  0.0584 -0.2346
23600SOL    HW173242   8.935   9.447   5.089  1.3207 -3.0052  0.2024
23600SOL    HW273243   8.900   9.405   4.948 -0.4880  0.3757 -0.4787
23601SOL     OW73244   9.781   3.403   3.668 -0.5456  0.1076  0.2465
23601SOL    HW173245   9.861   3.415   3.616 -0.0043  0.1751  1.0844
23601SOL    HW273246   9.784   3.312   3.696 -0.5027  0.2436  0.6930
23602SOL     OW73247   5.009   5.327   0.886 -0.4589  0.4276  0.0352
23602SOL    HW173248   5.099   5.321   0.853 -0.6415  1.9102 -0.8147
23602SOL    HW273249   4.988   5.237   0.913  0.8554 -0.1839 -0.8367
23603SOL     OW73250   6.201   8.423   2.214  0.0964  0.5271  0.1365
23603SOL    HW173251   6.214   8.368   2.137  1.8180 -0.8439  1.3468
23603SOL    HW273252   6.249   8.504   2.195  3.4809 -1.1188  1.0368
23604SOL     OW73253  10.157   2.580   9.334 -0.0446 -0.0117 -0.5036
23604SOL    HW173254  10.154   2.493   9.373  0.5530 -0.4242 -1.3711
23604SOL    HW273255  10.073   2.588   9.288 -0.3914  0.1508  0.1343
23605SOL     OW73256   6.101  10.337   2.219 -0.0059 -0.9657  0.1385
23605SOL    HW173257   6.178  10.333   2.276 -0.5443  0.1970  0.9922
23605SOL    HW273258   6.086  10.246   2.192  1.5276 -1.2422  0.1235
23606SOL     OW73259   8.978   6.303  10.226 -0.0494 -0.1047  0.0714
23606SOL    HW173260   9.039   6.247  10.274  0.1332 -0.1629 -0.2286
23606SOL    HW273261   8.910   6.324  10.290 -0.1373 -0.6914  0.1801
23607SOL     OW73262   3.587   2.442   5.648 -0.1235 -0.0258 -0.5992
23607SOL    HW173263   3.661   2.389   5.617  0.9566  0.4834  0.9408
23607SOL    HW273264   3.538   2.464   5.569  2.2720  0.9401 -1.9489
23608SOL     OW73265   6.510   5.049   0.042  0.5874 -0.0067 -0.5236
23608SOL    HW173266   6.458   4.995  -0.019  0.7560 -0.3720 -0.3477
23608SOL    HW273267   6.534   5.126  -0.009 -0.5738  0.4206 -0.4479
23609SOL     OW73268   3.041   3.616   4.726  0.3091 -0.1211 -0.1430
23609SOL    HW173269   3.019   3.560   4.651  0.9779 -1.2000  0.4343
23609SOL    HW273270   2.959   3.660   4.748  0.3551  1.1073 -2.2027
23610SOL     OW73271   9.504   1.322   1.645  0.6556  0.0738  0.0639
23610SOL    HW173272   9.481   1.278   1.726  0.1322 -1.1423 -0.7164
23610SOL    HW273273   9.594   1.293   1.627  0.7240  0.2374  0.1443
23611SOL     OW73274   9.347   8.008   4.435  0.5181  0.0011 -0.3522
23611SOL    HW173275   9.268   8.063   4.443  0.9066  0.5159  0.0058
23611SOL    HW273276   9.415   8.068   4.404  0.5018 -0.6941 -1.8053
23612SOL     OW73277   8.824   2.261   9.584  0.5323  0.4334 -0.0689
23612SOL    HW173278   8.786   2.337   9.628  2.4435  0.7937  1.0695
23612SOL    HW273279   8.799   2.271   9.492 -0.4243  1.6810  0.3045
23613SOL     OW73280   2.096   7.012   3.316 -0.0340  0.2329  0.9776
23613SOL    HW173281   2.070   6.922   3.335 -1.0719  0.3856  0.3673
23613SOL    HW273282   2.032   7.042   3.253  2.5999  0.1059 -1.9789
23614SOL     OW73283   7.872   4.728   8.432 -0.2453 -0.0663  0.8120
23614SOL    HW173284   7.782   4.740   8.402  0.4498  1.0697 -0.9862
23614SOL    HW273285   7.864   4.677   8.513 -2.4660 -0.2161  0.5560
23615SOL     OW73286   8.263   2.370   5.771  0.5037 -0.5316  0.2553
23615SOL    HW173287   8.307   2.318   5.704 -0.1479 -0.3677 -0.3084
23615SOL    HW273288   8.203   2.309   5.814  0.3676 -0.4517  0.1782
23616SOL     OW73289   1.997   6.471   4.107 -0.1465 -0.3454  0.1552
23616SOL    HW173290   1.930   6.512   4.161  0.5052 -0.2673  0.9254
23616SOL    HW273291   2.009   6.531   4.034  0.7915  0.8654  1.2613
23617SOL     OW73292   2.312   8.180   0.895  0.2244 -0.3631 -0.3276
23617SOL    HW173293   2.223   8.146   0.900  0.3878 -0.6941  0.5453
23617SOL    HW273294   2.314   8.251   0.959  0.5853 -0.3647 -0.3345
23618SOL     OW73295   5.718   8.039   4.506 -0.2396  0.2652  0.1504
23618SOL    HW173296   5.778   8.054   4.433 -2.0329  0.3577 -1.3906
23618SOL    HW273297   5.774   8.015   4.579  1.6153 -0.0894 -1.3204
23619SOL     OW73298   3.224   8.604   1.489 -0.1536  0.3232 -0.7263
23619SOL    HW173299   3.170   8.527   1.472  1.7555 -1.2736 -0.0143
23619SOL    HW273300   3.262   8.588   1.575  0.9582  1.6621 -0.9289
23620SOL     OW73301   9.362   3.617   7.482 -0.1914 -0.1027  0.0929
23620SOL    HW173302   9.312   3.559   7.539 -0.5441 -0.0868 -0.1981
23620SOL    HW273303   9.377   3.566   7.402 -1.0938  0.4366 -0.4368
23621SOL     OW73304   8.417   5.164   2.513  0.0227  0.1547  0.3110
23621SOL    HW173305   8.432   5.250   2.472  0.4154 -0.6445 -1.3167
23621SOL    HW273306   8.485   5.158   2.580  0.4696  0.8091 -0.0624
23622SOL     OW73307   2.359   4.175   5.593  0.1363  0.0188 -0.6165
23622SOL    HW173308   2.267   4.193   5.569  0.1553  0.1823 -0.5670
23622SOL    HW273309   2.368   4.080   5.581 -0.0556 -0.0076 -0.5666
23623SOL     OW73310   5.639   0.277   0.507 -0.2607 -0.2581 -0.1217
23623SOL    HW173311   5.675   0.356   0.548 -0.2217 -1.3179  2.0461
23623SOL    HW273312   5.703   0.208   0.526 -1.8481 -1.5112  1.0396
23624SOL     OW73313   4.513   9.176   0.202 -0.2751  0.1382  0.0771
23624SOL    HW173314   4.551   9.259   0.172 -0.6399  0.6698  1.0260
23624SOL    HW273315   4.444   9.202   0.263 -0.6350 -0.8623  0.1157
23625SOL     OW73316   2.625   9.307   6.430  0.4094 -0.7658  0.3350
23625SOL    HW173317   2.580   9.239   6.379 -0.7206 -0.4749  0.9183
23625SOL    HW273318   2.627   9.383   6.371  0.5991 -0.9303  0.1246
23626SOL     OW73319   4.624   3.549   6.492 -0.2926 -0.2317  0.2686
23626SOL    HW173320   4.530   3.562   6.502 -0.0779 -0.1906  2.8243
23626SOL    HW273321   4.661   3.637   6.495 -0.1106 -0.2913 -0.1090
23627SOL     OW73322   9.333   8.286  10.252  0.7055 -0.8748 -0.1232
23627SOL    HW173323   9.407   8.299  10.193 -0.8039 -0.3540 -1.9906
23627SOL    HW273324   9.263   8.341  10.216 -0.3653 -0.6809  2.0570
23628SOL     OW73325   1.118   4.971   3.366  0.4435  0.3230  0.4293
23628SOL    HW173326   1.193   4.970   3.425  0.4428  0.1674  0.4282
23628SOL    HW273327   1.044   4.944   3.420 -0.1531  3.0444  1.1310
23629SOL     OW73328   9.141   4.898   4.590 -0.5692  0.2235 -0.4945
23629SOL    HW173329   9.231   4.897   4.557 -0.8662 -0.2234 -1.3030
23629SOL    HW273330   9.135   4.980   4.639  0.3785  0.1036 -0.1443
23630SOL     OW73331   2.492   7.190   6.802 -0.2233  0.0315 -0.4702
23630SOL    HW173332   2.480   7.199   6.707 -0.6502  0.6614 -0.3622
23630SOL    HW273333   2.442   7.263   6.839  0.6587  0.3083  0.2028
23631SOL     OW73334   9.100   5.908   9.676  0.4686 -0.5637 -0.0762
23631SOL    HW173335   9.170   5.972   9.691  0.6346 -0.8486  0.3850
23631SOL    HW273336   9.055   5.939   9.597  2.0860 -1.2089 -1.3128
23632SOL     OW73337   1.641   5.575   8.242 -0.2365 -0.0396 -0.7590
23632SOL    HW173338   1.662   5.669   8.238  0.6200 -0.0613  1.5112
23632SOL    HW273339   1.719   5.532   8.206  1.4164  0.0775  2.2912
23633SOL     OW73340   1.945  10.031   9.845 -0.0944  0.1907 -0.1922
23633SOL    HW173341   1.990  10.039   9.929 -0.8538 -0.0388  0.2471
23633SOL    HW273342   1.907  10.118   9.830 -1.1872 -0.1494  0.4349
23634SOL     OW73343   9.999   2.762   6.508 -0.5019 -0.5970 -0.1828
23634SOL    HW173344   9.949   2.691   6.548 -0.7000 -0.3887 -0.0535
23634SOL    HW273345  10.088   2.729   6.503 -0.4780 -0.6398  0.4062
23635SOL     OW73346   8.506   0.492   1.372  0.4425  0.1396  0.3017
23635SOL    HW173347   8.464   0.576   1.353 -0.9577 -0.4930  0.4630
23635SOL    HW273348   8.435   0.428   1.365  1.6209 -1.1224 -0.5072
23636SOL     OW73349   1.171   9.007   8.805  0.3390 -0.0149 -0.3785
23636SOL    HW173350   1.236   8.949   8.843  0.1334 -1.1386 -1.6591
23636SOL    HW273351   1.111   8.949   8.758  0.0542  1.2132 -1.6174
23637SOL     OW73352   0.077   6.399  10.291  0.2907  0.0674  0.2315
23637SOL    HW173353  -0.016   6.382  10.300 -0.0467  1.6334 -0.0464
23637SOL    HW273354   0.107   6.421  10.379  0.9994 -2.8742  0.8577
23638SOL     OW73355   3.555   9.985   6.988  0.1044 -0.4849  0.1001
23638SOL    HW173356   3.482   9.950   7.039  0.3962 -1.2009  0.0360
23638SOL    HW273357   3.606   9.908   6.963  0.8420 -0.0012  0.0830
23639SOL     OW73358   2.431   5.496   2.416 -0.7253  0.0875 -0.2433
23639SOL    HW173359   2.375   5.506   2.493 -1.6563  0.5299 -0.9688
23639SOL    HW273360   2.446   5.401   2.409 -0.4300  0.0613  0.6099
23640SOL     OW73361   7.750   0.441   9.401  0.1908  0.2270 -0.0062
23640SOL    HW173362   7.768   0.500   9.327 -1.1526 -0.4737 -0.9345
23640SOL    HW273363   7.664   0.404   9.381  0.8141 -1.7204  0.7701
23641SOL     OW73364   5.694   5.958   4.404  0.1025  0.6607  1.0082
23641SOL    HW173365   5.756   6.016   4.360  1.3292  0.0071  1.8147
23641SOL    HW273366   5.738   5.873   4.408 -1.2049 -0.0659  0.8362
23642SOL     OW73367   0.308   1.451   9.856  0.2263 -0.0369 -0.5436
23642SOL    HW173368   0.336   1.543   9.863 -0.0881  0.0593 -0.5062
23642SOL    HW273369   0.268   1.432   9.941  0.8220 -0.3936 -0.3404
23643SOL     OW73370   2.067   6.480   1.946 -0.0230  0.4583  0.1556
23643SOL    HW173371   2.085   6.398   1.993 -0.2834  0.1492 -0.2825
23643SOL    HW273372   2.153   6.509   1.915 -0.1020 -0.4215 -0.9523
23644SOL     OW73373   0.147   3.473   0.721 -0.0651 -0.5954 -0.1581
23644SOL    HW173374   0.106   3.468   0.807  0.7495 -1.0137  0.2112
23644SOL    HW273375   0.076   3.455   0.659 -0.6457 -0.3227  0.4242
23645SOL     OW73376   6.158   9.026   2.979 -0.8042  0.3983 -0.3287
23645SOL    HW173377   6.247   9.049   2.953 -0.5291 -1.8031 -1.5327
23645SOL    HW273378   6.143   8.939   2.942 -2.6531 -0.2732  1.7500
23646SOL     OW73379   8.671  10.428   4.367  0.0097 -0.7621  0.0847
23646SOL    HW173380   8.666  10.333   4.378  0.1099 -1.1311 -2.3432
23646SOL    HW273381   8.580  10.458   4.369 -0.1348 -1.1377 -0.5499
23647SOL     OW73382   8.867   1.796   7.420  0.0603 -0.2868 -0.0433
23647SOL    HW173383   8.860   1.761   7.509  0.6606 -0.5595 -0.0956
23647SOL    HW273384   8.946   1.851   7.423  0.8432 -1.3305 -0.7331
23648SOL     OW73385  10.036   6.271  10.127 -0.0424  0.3807 -0.0334
23648SOL    HW173386  10.099   6.242  10.061  0.2692 -0.8250  0.7577
23648SOL    HW273387  10.089   6.285  10.206 -0.8165 -1.3500  0.8484
23649SOL     OW73388   5.008   5.788   2.190  0.5892  0.1436  0.3088
23649SOL    HW173389   5.087   5.812   2.142  1.3328  1.4024  2.0544
23649SOL    HW273390   5.040   5.757   2.275 -0.7434 -0.6381  0.5503
23650SOL     OW73391   6.038   9.727   3.854 -0.1511 -0.1549 -0.3466
23650SOL    HW173392   6.126   9.727   3.816 -0.2413 -1.3296 -0.5914
23650SOL    HW273393   5.993   9.656   3.809 -1.2893  0.5554 -0.3532
23651SOL     OW73394   5.281   7.560   4.958  0.1508  0.2401 -0.0577
23651SOL    HW173395   5.344   7.490   4.941  0.4015  0.4278  0.0984
23651SOL    HW273396   5.334   7.635   4.983 -0.0647  0.7157 -0.9541
23652SOL     OW73397   7.453   9.207   5.466  0.6504 -0.2880 -0.2600
23652SOL    HW173398   7.362   9.200   5.439  0.1771 -0.9292  1.3612
23652SOL    HW273399   7.503   9.164   5.395 -0.3530 -0.4375 -0.8881
23653SOL     OW73400   3.899   2.153   3.152  0.2524 -0.2244  0.2758
23653SOL    HW173401   3.947   2.233   3.134 -0.4627  0.1243 -0.1063
23653SOL    HW273402   3.918   2.134   3.244  0.7712  0.1410  0.2482
23654SOL     OW73403   6.930  10.176   9.935 -0.3622  0.6248 -0.7304
23654SOL    HW173404   6.918  10.082   9.922 -1.4259  0.6496 -0.0498
23654SOL    HW273405   7.024  10.191   9.919  0.4808 -1.0497  1.9875
23655SOL     OW73406   9.312   2.615   4.256  0.3696 -0.4946  0.9897
23655SOL    HW173407   9.217   2.605   4.257  0.4153 -1.3052 -0.0482
23655SOL    HW273408   9.341   2.573   4.337 -0.0182 -2.4443  0.1841
23656SOL     OW73409   2.753   9.798   6.627 -0.1404 -0.4566 -0.1420
23656SOL    HW173410   2.686   9.806   6.695 -0.3517 -0.9451 -0.2845
23656SOL    HW273411   2.711   9.831   6.548 -0.3169 -1.0367 -0.2940
23657SOL     OW73412   0.676   9.228   0.663  0.2530  0.2160 -0.0089
23657SOL    HW173413   0.689   9.147   0.614  1.0044  0.6108 -0.4802
23657SOL    HW273414   0.677   9.200   0.755 -0.5772 -0.4486 -0.1918
23658SOL     OW73415   0.439   8.283   8.102 -0.0435 -0.3291 -0.5402
23658SOL    HW173416   0.452   8.378   8.091 -1.4935  0.0026  0.3251
23658SOL    HW273417   0.481   8.245   8.025  0.2324  1.0482 -1.1181
23659SOL     OW73418   5.683   6.916   7.221  0.1709 -0.0098 -0.4966
23659SOL    HW173419   5.741   6.840   7.223  1.6241  1.0676  2.1024
23659SOL    HW273420   5.709   6.965   7.144  1.6778 -0.3525 -0.2266
23660SOL     OW73421  10.490   3.227   4.547  0.0371 -0.2354  0.3917
23660SOL    HW173422  10.494   3.305   4.603 -1.7413  1.2695 -1.3834
23660SOL    HW273423  10.422   3.173   4.585 -0.0435 -0.0023  0.5803
23661SOL     OW73424   8.602   8.169   2.612 -0.3519 -0.0799  0.5147
23661SOL    HW173425   8.619   8.263   2.611 -0.3845 -0.0684  0.8117
23661SOL    HW273426   8.646   8.138   2.691 -1.2422 -0.1343  0.9998
23662SOL     OW73427  10.183   3.995   1.434  0.3821  0.0242 -0.0084
23662SOL    HW173428  10.230   4.078   1.435 -1.8334  1.3833 -0.8233
23662SOL    HW273429  10.094   4.018   1.461 -1.1375 -1.4704 -3.2686
23663SOL     OW73430   8.527   0.428   5.159 -0.1599  0.1431 -0.3573
23663SOL    HW173431   8.477   0.362   5.208  0.8121  0.1400  0.6739
23663SOL    HW273432   8.515   0.404   5.067 -3.2944  1.0185 -0.2909
23664SOL     OW73433   7.484   2.890   0.369 -0.0241 -0.4391 -0.3327
23664SOL    HW173434   7.477   2.885   0.274  0.6386 -0.6164 -0.3791
23664SOL    HW273435   7.425   2.822   0.401  0.1162 -0.7040 -0.6324
23665SOL     OW73436   8.214   5.914   8.061  0.0195  0.0970  0.4549
23665SOL    HW173437   8.171   5.991   8.024  0.8105  0.9094  1.1753
23665SOL    HW273438   8.150   5.844   8.051 -0.1161  0.4624 -1.6488
23666SOL     OW73439  10.095   9.430   1.477  0.2878  0.2343  0.2513
23666SOL    HW173440  10.026   9.481   1.518 -1.6083 -1.9745  0.0013
23666SOL    HW273441  10.175   9.456   1.523 -0.9584  1.5924  1.7515
23667SOL     OW73442   1.359   8.306   0.219  0.3113  0.2217 -0.2211
23667SOL    HW173443   1.382   8.327   0.310 -1.6105 -2.1574  0.9237
23667SOL    HW273444   1.280   8.358   0.203 -1.2498 -1.7407  0.6972
23668SOL     OW73445   0.807   8.810   5.677 -0.1800 -0.5095  0.0957
23668SOL    HW173446   0.764   8.804   5.762 -0.3270 -2.6004 -0.0790
23668SOL    HW273447   0.837   8.721   5.659  2.6847  0.4855 -0.6072
23669SOL     OW73448   0.778   4.453   2.379  0.3175  0.4679  0.1067
23669SOL    HW173449   0.756   4.525   2.439  0.5063  1.1674 -0.6394
23669SOL    HW273450   0.869   4.432   2.399 -0.5304 -1.5653  2.3177
23670SOL     OW73451   7.269   3.149   1.747  0.2463 -0.1006  0.3091
23670SOL    HW173452   7.231   3.230   1.712  1.7683  0.6867  0.3962
23670SOL    HW273453   7.291   3.097   1.670 -2.6569 -1.4431  0.2549
23671SOL     OW73454   3.479   7.759   3.273  0.0075  0.1036  0.3875
23671SOL    HW173455   3.557   7.776   3.326 -0.2788  0.6488  0.6483
23671SOL    HW273456   3.435   7.687   3.317  0.0426  0.2063  0.5898
23672SOL     OW73457   2.301   2.552   6.169  0.0165 -0.1403  0.0357
23672SOL    HW173458   2.326   2.516   6.254 -0.5961  0.6962  0.5811
23672SOL    HW273459   2.289   2.645   6.185 -3.1136 -0.4022 -0.2345
23673SOL     OW73460   5.642   8.908   9.389  0.4337  0.2336 -0.1478
23673SOL    HW173461   5.552   8.913   9.422  0.5516  0.2047  0.1781
23673SOL    HW273462   5.697   8.934   9.464  0.8126 -1.6183  0.2521
23674SOL     OW73463   0.740   6.536   5.089  0.1030 -0.2556  0.3534
23674SOL    HW173464   0.727   6.594   5.164  0.8744  1.1528 -0.5644
23674SOL    HW273465   0.654   6.531   5.048  0.1025  0.5484  0.2382
23675SOL     OW73466   6.905   7.294   4.640 -0.0562  0.1959  0.0062
23675SOL    HW173467   6.827   7.349   4.637 -0.4951 -0.4609 -1.2457
23675SOL    HW273468   6.880   7.220   4.695 -0.9461 -0.8793 -1.7526
23676SOL     OW73469   1.832   2.950   6.223  0.0639 -0.0186  0.3285
23676SOL    HW173470   1.742   2.934   6.252  0.6421 -0.3800  2.0389
23676SOL    HW273471   1.836   3.045   6.208 -1.4543 -0.3266 -3.0624
23677SOL     OW73472   8.434   1.059   2.832 -0.0153  0.2485 -0.3114
23677SOL    HW173473   8.355   1.013   2.859  0.1944 -0.1293 -0.3336
23677SOL    HW273474   8.436   1.138   2.887  0.0338 -0.1585  0.2891
23678SOL     OW73475   3.379   8.166   4.091 -0.0363 -0.6267 -0.2555
23678SOL    HW173476   3.306   8.170   4.029 -2.2263  0.0537  2.2016
23678SOL    HW273477   3.435   8.240   4.068 -1.1503  0.0006 -1.0013
23679SOL     OW73478  10.401   2.403   8.015 -0.1056  0.5838 -0.1102
23679SOL    HW173479  10.377   2.495   8.024  1.5500  1.2108 -1.5565
23679SOL    HW273480  10.461   2.387   8.089 -0.1949  0.7303 -0.0050
23680SOL     OW73481   4.702   3.954  10.394 -0.2105  0.0508 -0.1554
23680SOL    HW173482   4.625   3.901  10.376  0.0907 -1.0619  1.5353
23680SOL    HW273483   4.775   3.904  10.357 -0.1974  0.6358 -0.9311
23681SOL     OW73484   1.898   7.358   6.164  0.4082 -0.1469 -0.2666
23681SOL    HW173485   1.884   7.449   6.141 -1.9771 -0.1596  0.8007
23681SOL    HW273486   1.843   7.309   6.102 -0.3733 -0.6409  0.7823
23682SOL     OW73487   0.301   3.531   4.388  0.2299 -0.1292  0.1096
23682SOL    HW173488   0.209   3.549   4.411 -0.1477 -1.1175 -0.5836
23682SOL    HW273489   0.347   3.611   4.412 -1.1415  1.1939 -1.3968
23683SOL     OW73490   5.399   8.315   6.514 -0.4094  0.0256  0.3431
23683SOL    HW173491   5.445   8.312   6.598 -1.4742 -1.3862  0.9082
23683SOL    HW273492   5.452   8.262   6.456  0.3071  0.9706  0.1070
23684SOL     OW73493   9.893   2.102   6.653 -0.4775  0.8732 -1.0218
23684SOL    HW173494   9.936   2.152   6.722 -0.2348  0.4119 -0.8350
23684SOL    HW273495   9.907   2.011   6.677 -1.8259  0.7077 -0.7937
23685SOL     OW73496   6.907   3.554   1.475  0.6672 -0.8182 -0.2183
23685SOL    HW173497   6.956   3.568   1.394  1.1190 -0.5564  0.0911
23685SOL    HW273498   6.945   3.617   1.537 -0.6027 -0.0522 -0.1864
23686SOL     OW73499   6.897   3.737   2.519  0.1574 -0.1487  0.5152
23686SOL    HW173500   6.974   3.686   2.545  0.9085  0.9913  0.6475
23686SOL    HW273501   6.931   3.801   2.456 -0.8014  0.0104  0.1384
23687SOL     OW73502   7.188   1.566   6.442 -0.5239 -0.0618  0.1819
23687SOL    HW173503   7.199   1.524   6.357 -1.3064  0.5243 -0.2261
23687SOL    HW273504   7.240   1.513   6.502 -0.7487 -1.0697 -0.4821
23688SOL     OW73505   1.178   7.607   0.822  0.2745  0.2541 -0.2319
23688SOL    HW173506   1.215   7.664   0.755 -2.3023  1.1660 -0.9814
23688SOL    HW273507   1.118   7.549   0.775 -0.5441 -0.0371  1.0943
23689SOL     OW73508   4.439   8.651   4.369  0.4036 -0.2955  0.3433
23689SOL    HW173509   4.443   8.713   4.441 -0.5482 -0.0995  0.2440
23689SOL    HW273510   4.489   8.575   4.400 -0.4012 -0.4161  1.4207
23690SOL     OW73511   9.162   8.938   2.976 -0.2183 -0.2253 -0.0675
23690SOL    HW173512   9.102   8.883   3.025  0.6515 -0.1807  1.0853
23690SOL    HW273513   9.117   8.955   2.893 -1.2293 -1.2355  0.2545
23691SOL     OW73514   5.274  10.169   4.863 -0.0567  0.7767 -0.3714
23691SOL    HW173515   5.186  10.192   4.895 -0.1782 -0.4428  0.2269
23691SOL    HW273516   5.262  10.086   4.817  0.6472  1.0217 -1.0145
23692SOL     OW73517   4.548   9.444   0.106  0.2729  0.3658  0.0793
23692SOL    HW173518   4.567   9.484   0.021 -2.2600 -1.8115 -1.6530
23692SOL    HW273519   4.490   9.507   0.150 -0.5807  0.3505 -0.9929
23693SOL     OW73520   1.454   4.475   1.567 -0.2833 -0.6251 -0.2365
23693SOL    HW173521   1.412   4.502   1.649  1.1983  1.3441 -0.0390
23693SOL    HW273522   1.397   4.512   1.499 -0.2320 -0.1389 -0.0247
23694SOL     OW73523   4.973   2.454   4.993 -0.0418  0.2644  0.0156
23694SOL    HW173524   4.954   2.498   4.910  0.5411  0.7662  0.1405
23694SOL    HW273525   4.922   2.502   5.058  0.8977  1.0222  0.2110
23695SOL     OW73526   8.554   1.759   4.164 -0.1492  0.5390  0.3738
23695SOL    HW173527   8.543   1.771   4.070 -1.2150 -0.5256  0.3278
23695SOL    HW273528   8.477   1.799   4.203 -1.6150 -2.1226  0.4827
23696SOL     OW73529   7.086   7.719   0.220  0.3474 -0.2907 -0.2325
23696SOL    HW173530   7.179   7.728   0.239  0.6369  0.6301 -1.8124
23696SOL    HW273531   7.069   7.625   0.223  1.4980 -0.5220 -0.5930
23697SOL     OW73532   4.470   6.733   3.645  0.0044 -0.2392 -0.0368
23697SOL    HW173533   4.408   6.705   3.712 -3.9059 -0.5796 -3.4236
23697SOL    HW273534   4.441   6.821   3.621 -0.1997 -0.9368 -2.6869
23698SOL     OW73535   9.612   1.094   2.667  0.3669  0.3180 -0.3878
23698SOL    HW173536   9.564   1.069   2.746  1.6812  2.2703  1.1170
23698SOL    HW273537   9.578   1.180   2.645  0.5609  0.1209 -1.5318
23699SOL     OW73538   2.585   3.321   8.891 -0.0942  0.2132 -0.0654
23699SOL    HW173539   2.546   3.351   8.809 -0.4935 -0.0501  0.0243
23699SOL    HW273540   2.541   3.239   8.910  1.9727 -1.2088 -1.0433
23700SOL     OW73541   4.737   4.507   8.989  0.6606  0.0206 -0.2531
23700SOL    HW173542   4.760   4.525   9.080 -0.3086  0.8884 -0.1499
23700SOL    HW273543   4.656   4.455   8.994  0.3377  0.4766 -0.6068
23701SOL     OW73544   9.650   4.438   9.615 -0.9700 -0.3574  0.8225
23701SOL    HW173545   9.581   4.398   9.668 -0.4762  0.6071  2.2435
23701SOL    HW273546   9.636   4.532   9.625  0.3996 -0.1520  0.9372
23702SOL     OW73547   0.497   3.311   3.747  0.1901  0.2664  0.0432
23702SOL    HW173548   0.406   3.309   3.779  0.3521 -1.0866  0.4974
23702SOL    HW273549   0.544   3.364   3.812 -0.2365  0.8050 -0.0846
23703SOL     OW73550   8.234   0.619   6.643  0.3887  0.1866  0.2289
23703SOL    HW173551   8.170   0.557   6.680  0.1083 -0.5986 -1.4521
23703SOL    HW273552   8.264   0.670   6.718 -0.8265 -0.6864  1.3670
23704SOL     OW73553   1.366   8.662   8.664 -0.1403  0.5641  0.1098
23704SOL    HW173554   1.390   8.577   8.701  2.0571 -0.1151 -2.5041
23704SOL    HW273555   1.271   8.659   8.654 -0.1748 -1.3122  0.6825
23705SOL     OW73556  10.219   8.162   3.029  0.0175 -0.0961 -0.5727
23705SOL    HW173557  10.206   8.218   3.105 -0.0110  0.5656 -1.0545
23705SOL    HW273558  10.301   8.192   2.990 -1.2334  1.3586 -2.2759
23706SOL     OW73559   6.830   2.995   6.084  0.2805  0.6069 -0.0770
23706SOL    HW173560   6.889   2.980   6.158  0.2967 -2.2827 -0.5470
23706SOL    HW273561   6.745   3.013   6.125  0.8605  1.8563  0.6084
23707SOL     OW73562   8.745   7.250   0.737 -0.1351  0.1558  0.0658
23707SOL    HW173563   8.711   7.334   0.766  0.7413 -0.2283  2.3743
23707SOL    HW273564   8.739   7.194   0.814  1.4973 -1.2194 -0.7535
23708SOL     OW73565   6.317   0.244   1.312 -0.5750  0.0330 -0.0205
23708SOL    HW173566   6.364   0.166   1.281 -0.4831  0.1038 -0.0611
23708SOL    HW273567   6.294   0.291   1.233 -0.7758 -0.0356 -0.0029
23709SOL     OW73568   7.781   2.607   6.031 -0.5169  0.2382 -0.9020
23709SOL    HW173569   7.861   2.602   5.979  0.5745  0.8377  0.6379
23709SOL    HW273570   7.744   2.694   6.011  0.7089  1.1007  0.3850
23710SOL     OW73571   5.309   5.754   0.928 -1.2098 -0.3734  0.2991
23710SOL    HW173572   5.397   5.769   0.895 -1.5021 -1.3861 -1.0225
23710SOL    HW273573   5.298   5.818   0.999  0.9961 -1.0282  1.2946
23711SOL     OW73574   7.147   2.379  10.104  0.2009 -0.2245  0.3672
23711SOL    HW173575   7.086   2.382  10.177 -0.7864 -0.4899 -0.4164
23711SOL    HW273576   7.227   2.342  10.140 -0.7917 -1.8812  0.9790
23712SOL     OW73577   8.580   1.641   5.751 -0.4155  0.2244 -0.0294
23712SOL    HW173578   8.549   1.731   5.752 -1.3378 -0.0659 -0.9422
23712SOL    HW273579   8.511   1.592   5.796 -0.2099 -0.1236 -0.0883
23713SOL     OW73580   8.412   0.004   3.313 -0.4008 -0.0698  0.5344
23713SOL    HW173581   8.328  -0.039   3.296 -0.0690 -0.0213 -1.4260
23713SOL    HW273582   8.462  -0.060   3.364 -0.6922 -1.1797 -0.5376
23714SOL     OW73583   9.890   1.370   1.525  0.2963 -0.0587  0.5178
23714SOL    HW173584   9.832   1.323   1.464  0.7036  0.5983 -0.4041
23714SOL    HW273585   9.956   1.410   1.468  1.3049 -0.2937  1.4953
23715SOL     OW73586   7.045   9.056   8.812  0.2491  0.2527  0.1443
23715SOL    HW173587   7.104   9.017   8.747 -1.3131 -1.2516 -0.4500
23715SOL    HW273588   6.972   8.994   8.818 -0.3206  1.0500  2.3358
23716SOL     OW73589   4.117   8.890   9.147 -0.7596  0.3345 -0.1022
23716SOL    HW173590   4.138   8.832   9.074  0.3053  0.7208 -0.1212
23716SOL    HW273591   4.184   8.958   9.144 -1.2943  0.9153  0.6314
23717SOL     OW73592   7.380   8.584   9.364  0.3933 -0.4198 -0.4674
23717SOL    HW173593   7.421   8.653   9.311  2.6836 -1.7952 -0.6669
23717SOL    HW273594   7.448   8.559   9.427 -1.2944 -0.7446  1.2883
23718SOL     OW73595   8.306   8.664   2.540 -0.3882 -0.2533  0.3337
23718SOL    HW173596   8.214   8.688   2.527 -0.0092  2.8330  2.2220
23718SOL    HW273597   8.324   8.688   2.631  2.2905 -0.7816  0.0200
23719SOL     OW73598   8.290   1.917   1.891 -0.3091 -0.2019 -0.2239
23719SOL    HW173599   8.322   2.007   1.890 -1.7327  0.3243  0.2888
23719SOL    HW273600   8.356   1.869   1.942  0.4646  0.5296 -0.5152
23720SOL     OW73601   4.173   7.480   5.232  0.0196 -0.0686  0.2275
23720SOL    HW173602   4.265   7.498   5.254 -0.1548  0.9590  0.1604
23720SOL    HW273603   4.137   7.565   5.207 -0.5489 -0.7202 -1.2909
23721SOL     OW73604   6.998   6.872   1.437  0.1247  0.7525 -0.1819
23721SOL    HW173605   7.044   6.822   1.369  0.0654 -0.2957  0.5309
23721SOL    HW273606   7.039   6.844   1.519  0.5589  2.4003  0.1989
23722SOL     OW73607   7.207   0.862   5.078  0.2464  0.1319 -0.0792
23722SOL    HW173608   7.272   0.850   5.148 -0.2059  0.9647  0.4926
23722SOL    HW273609   7.134   0.805   5.104 -0.6738  1.7714  1.0997
23723SOL     OW73610   6.248   0.281   8.929 -0.0496 -0.2948  0.7657
23723SOL    HW173611   6.295   0.311   8.851  0.1614 -2.2472  0.0750
23723SOL    HW273612   6.191   0.354   8.952  0.5074  0.6652 -0.6990
23724SOL     OW73613   8.535   1.988   3.170  0.0080 -0.0394 -0.1779
23724SOL    HW173614   8.470   2.046   3.130 -0.5419 -1.1668 -0.9646
23724SOL    HW273615   8.607   1.986   3.107 -0.9313 -1.9550 -1.2588
23725SOL     OW73616   1.665   8.703   1.233  0.4228 -0.5042 -0.0984
23725SOL    HW173617   1.687   8.780   1.180  0.2867  0.9146  1.8046
23725SOL    HW273618   1.570   8.699   1.232  0.4274 -2.3347 -2.3883
23726SOL     OW73619   5.012   3.944   3.255 -0.0317 -0.0797  0.0637
23726SOL    HW173620   5.036   4.036   3.265 -1.2217  0.5514 -2.2760
23726SOL    HW273621   5.003   3.912   3.345 -0.4905  2.3428  0.9548
23727SOL     OW73622   8.112   4.005   7.254 -0.6917 -0.0634 -0.2993
23727SOL    HW173623   8.150   3.917   7.249  1.9531  1.0215 -1.0596
23727SOL    HW273624   8.187   4.064   7.252 -2.3757  2.2460  0.2450
23728SOL     OW73625   3.931   9.092   9.620 -0.1026 -0.2852 -0.1513
23728SOL    HW173626   4.007   9.036   9.607  0.3857  0.2268  0.4409
23728SOL    HW273627   3.926   9.144   9.540  1.3269  1.0097  0.5376
23729SOL     OW73628   2.484   5.537   3.826 -0.2767  0.2532 -0.7069
23729SOL    HW173629   2.438   5.621   3.818  0.9854  1.0895  0.2705
23729SOL    HW273630   2.420   5.478   3.866 -0.4836  1.4363  0.7944
23730SOL     OW73631   6.743   5.781   2.210  0.9174  0.0876 -0.0743
23730SOL    HW173632   6.795   5.726   2.268 -0.1043  0.1857  0.9702
23730SOL    HW273633   6.666   5.805   2.262 -0.8993 -1.2159 -2.0117
23731SOL     OW73634   2.068   4.164   2.019 -0.4432 -0.3823  0.4359
23731SOL    HW173635   2.149   4.208   2.046  0.4989 -1.9819  0.3459
23731SOL    HW273636   2.050   4.199   1.932  1.1832 -1.2879 -0.3141
23732SOL     OW73637   3.336   7.281   0.309  0.7109 -0.0655 -0.2503
23732SOL    HW173638   3.285   7.207   0.341 -0.1841  0.3751 -0.6211
23732SOL    HW273639   3.420   7.275   0.355 -0.5552  0.6368  2.3036
23733SOL     OW73640   5.681  10.213   7.203 -0.0157 -0.1196  0.3323
23733SOL    HW173641   5.629  10.283   7.162 -0.6132 -1.4364 -1.2575
23733SOL    HW273642   5.771  10.244   7.198 -0.4337  1.5600  1.8242
23734SOL     OW73643   4.430   4.250   0.666 -0.0296  0.1268  0.4455
23734SOL    HW173644   4.442   4.295   0.750  1.5068 -0.8775  0.8086
23734SOL    HW273645   4.355   4.192   0.680 -0.8974  1.2392  0.5400
23735SOL     OW73646   8.788   4.234   3.093 -0.1680 -0.0984 -0.2303
23735SOL    HW173647   8.858   4.248   3.156 -1.5298 -0.0878  1.3589
23735SOL    HW273648   8.738   4.315   3.094 -0.9405 -0.5634 -0.3420
23736SOL     OW73649   1.999   3.360   5.356 -0.0871  0.3765 -0.5107
23736SOL    HW173650   1.944   3.430   5.391 -2.7841 -1.8997  0.1579
23736SOL    HW273651   1.946   3.319   5.288  0.7245 -1.9181  0.1193
23737SOL     OW73652   6.295   7.860   1.492  0.0745 -0.2532  0.7076
23737SOL    HW173653   6.384   7.832   1.473  0.0674 -0.3197  0.7729
23737SOL    HW273654   6.296   7.881   1.586 -0.2971 -1.4612  0.9942
23738SOL     OW73655   4.308   0.625   6.584 -0.8800 -0.4281 -0.2797
23738SOL    HW173656   4.240   0.558   6.581 -2.8375  1.4241  0.5407
23738SOL    HW273657   4.358   0.606   6.664 -0.6824 -1.5365 -0.6542
23739SOL     OW73658   0.524   5.954   1.301  0.6067  0.5476 -0.2599
23739SOL    HW173659   0.455   5.923   1.244 -0.0583 -0.3194  0.9640
23739SOL    HW273660   0.532   5.886   1.368  2.3012  0.8688 -0.0916
23740SOL     OW73661   6.385   9.072   6.134  0.5817  0.3115 -0.5226
23740SOL    HW173662   6.339   9.142   6.089 -0.3763 -0.4561 -0.7721
23740SOL    HW273663   6.316   9.018   6.172  1.3347  0.6016  1.3975
23741SOL     OW73664   2.796   0.701   8.585  0.1501  0.9685 -0.0098
23741SOL    HW173665   2.759   0.660   8.507 -1.5021 -0.4818  1.4543
23741SOL    HW273666   2.725   0.754   8.621  0.5016  0.6854  1.1424
23742SOL     OW73667   1.732   3.818   4.434  0.0149  0.0288  0.7367
23742SOL    HW173668   1.816   3.790   4.397 -1.1476  1.5127 -3.7400
23742SOL    HW273669   1.696   3.740   4.476  2.6844 -1.1862  0.9769
23743SOL     OW73670   4.917   0.023   7.504 -0.0195  0.3312 -0.3942
23743SOL    HW173671   5.011   0.027   7.486  0.0590 -1.5865 -0.6250
23743SOL    HW273672   4.908   0.055   7.594  0.8114  0.7947 -0.4689
23744SOL     OW73673   8.091   2.975   1.503 -0.0042 -0.3420 -0.1969
23744SOL    HW173674   8.009   3.009   1.466  0.2803  0.8613  0.2222
23744SOL    HW273675   8.078   2.880   1.507 -0.8397 -0.3019 -1.4077
23745SOL     OW73676   9.195   4.406   2.925 -0.7578  0.4238  0.2423
23745SOL    HW173677   9.184   4.315   2.953  1.0056  0.5526  1.5033
23745SOL    HW273678   9.253   4.401   2.849 -1.5648  0.4275 -0.3817
23746SOL     OW73679   0.251   6.407   2.201  0.1186  0.8300 -0.3486
23746SOL    HW173680   0.311   6.332   2.209  2.2133  2.4356 -0.3231
23746SOL    HW273681   0.220   6.403   2.111 -0.3495 -0.4240 -0.1655
23747SOL     OW73682   7.608   4.890   2.037  1.0994 -0.4108  0.3021
23747SOL    HW173683   7.648   4.904   1.951 -1.7390  2.0087 -0.8379
23747SOL    HW273684   7.650   4.954   2.093  2.1387 -1.1924  0.4403
23748SOL     OW73685   3.132   9.223  10.275 -0.1956  0.1023  0.1439
23748SOL    HW173686   3.225   9.208  10.258 -0.0300  0.3268  0.8306
23748SOL    HW273687   3.095   9.136  10.288  0.3229  0.1148  1.8877
23749SOL     OW73688   5.075   9.820   0.359  0.1862  0.2629 -0.0236
23749SOL    HW173689   5.109   9.744   0.407 -1.0586  0.3558  1.0394
23749SOL    HW273690   4.982   9.804   0.350  0.1431  0.9838 -1.1188
23750SOL     OW73691   0.796   3.296   3.939 -0.4257  0.1446 -0.1229
23750SOL    HW173692   0.824   3.277   3.850  0.0382 -0.1295  0.0767
23750SOL    HW273693   0.877   3.307   3.988 -0.6633 -0.3537  0.3995
23751SOL     OW73694   8.969   1.735   9.992 -0.2156  0.4733  0.3472
23751SOL    HW173695   9.010   1.661   9.947  0.2776  1.9000 -1.7285
23751SOL    HW273696   9.036   1.765  10.053 -0.0155 -0.1539  0.4452
23752SOL     OW73697   6.281   3.352   9.121  0.0018 -0.1060 -0.4038
23752SOL    HW173698   6.295   3.259   9.140  0.4130  0.1142  0.4051
23752SOL    HW273699   6.194   3.370   9.156  1.2806  0.6323  2.7709
23753SOL     OW73700   4.832   2.041   3.909 -0.2904  0.3531  0.6212
23753SOL    HW173701   4.832   2.026   3.815  1.3909 -0.1299  0.6580
23753SOL    HW273702   4.803   1.959   3.947  1.2112 -0.2376  0.5653
23754SOL     OW73703   9.922  10.333   3.527 -0.0952 -0.6471  0.3369
23754SOL    HW173704   9.869  10.268   3.481 -0.2138 -1.4184  1.5197
23754SOL    HW273705  10.001  10.342   3.473 -0.3297 -1.3489 -0.1403
23755SOL     OW73706   7.891   8.059   4.076  0.5031  0.3187 -0.6469
23755SOL    HW173707   7.941   8.024   4.150  0.0725  1.3390  0.1447
23755SOL    HW273708   7.869   7.982   4.024  1.6869 -0.3076 -0.2711
23756SOL     OW73709   3.331   4.065   4.636  0.5852  0.2404 -0.3347
23756SOL    HW173710   3.398   4.125   4.602 -0.0667  0.4705 -1.2661
23756SOL    HW273711   3.262   4.123   4.668  0.1471  0.0044 -0.8318
23757SOL     OW73712   4.610   7.795   1.562 -0.2294  0.4792 -0.2726
23757SOL    HW173713   4.706   7.792   1.564 -0.2195 -0.1121 -1.1110
23757SOL    HW273714   4.589   7.885   1.587  0.4876  0.3184  1.0684
23758SOL     OW73715   4.224   7.045   3.295 -0.5044  0.5785  0.0394
23758SOL    HW173716   4.180   7.036   3.210 -0.8124  1.4211  0.1001
23758SOL    HW273717   4.268   7.130   3.290  1.5398 -0.4260 -0.2054
23759SOL     OW73718   8.379   2.186   1.783  0.1865 -0.8105 -0.2298
23759SOL    HW173719   8.387   2.266   1.834  1.2352 -1.0097 -0.0515
23759SOL    HW273720   8.368   2.217   1.692 -1.5167 -0.4625  0.0545
23760SOL     OW73721   9.329   3.378   8.228 -0.2952 -0.1379 -0.2999
23760SOL    HW173722   9.280   3.312   8.276  1.0746  0.3790  1.9476
23760SOL    HW273723   9.418   3.344   8.224  0.3597  1.3664  0.6170
23761SOL     OW73724   5.850   2.438   9.012 -0.4392  0.0752 -0.1189
23761SOL    HW173725   5.903   2.449   8.933  1.1713  2.1857  1.1248
23761SOL    HW273726   5.809   2.352   9.002  1.7152 -0.8528 -2.0796
23762SOL     OW73727   8.274   2.359   0.424 -0.3573 -0.0363 -0.1114
23762SOL    HW173728   8.364   2.376   0.453 -0.1377 -1.5425  0.1742
23762SOL    HW273729   8.221   2.368   0.503 -0.2386 -0.6759  0.0443
23763SOL     OW73730   5.233   1.898   7.864  0.5997  0.1585 -0.4960
23763SOL    HW173731   5.154   1.918   7.814  0.9062 -0.0380 -1.0812
23763SOL    HW273732   5.203   1.888   7.954  0.4494  3.4963 -0.0491
23764SOL     OW73733   2.376   6.098   4.045  0.7165 -0.4888 -0.1289
23764SOL    HW173734   2.332   6.034   4.101 -1.5803  1.2697  0.2294
23764SOL    HW273735   2.307   6.159   4.019  2.4132  0.7538 -2.0357
23765SOL     OW73736   9.208   9.880   7.004 -0.2834  0.0448 -0.9729
23765SOL    HW173737   9.168   9.916   7.083 -1.7006 -0.0688 -1.6076
23765SOL    HW273738   9.238   9.793   7.030  1.9292  1.0765  0.1991
23766SOL     OW73739   4.754   5.361   2.200 -0.7887 -0.0122 -0.2481
23766SOL    HW173740   4.751   5.289   2.263 -0.9946  0.3783  0.1953
23766SOL    HW273741   4.681   5.417   2.224  0.7728  1.6428  0.9910
23767SOL     OW73742   7.708   3.903   1.472 -0.5702 -0.1521  0.1325
23767SOL    HW173743   7.680   3.836   1.409 -1.0912 -1.4694  1.6935
23767SOL    HW273744   7.649   3.977   1.455 -0.1236 -0.1317 -1.4827
23768SOL     OW73745   1.719   4.607   8.989  0.2999  0.7635 -0.1774
23768SOL    HW173746   1.638   4.647   9.022  0.1912 -0.3742  1.0396
23768SOL    HW273747   1.726   4.637   8.899 -1.4341  0.9810 -0.2735
23769SOL     OW73748   7.702   6.161   4.451 -0.3748 -0.7541  0.3665
23769SOL    HW173749   7.788   6.126   4.469 -0.3145 -0.0000  1.7037
23769SOL    HW273750   7.682   6.216   4.527 -1.4231  0.2197 -0.5627
23770SOL     OW73751   9.843   9.615   4.145  0.6473 -0.3806 -0.0943
23770SOL    HW173752   9.782   9.590   4.076 -0.5517  0.4419  0.6313
23770SOL    HW273753   9.823   9.555   4.218 -1.0386  1.4210  1.0214
23771SOL     OW73754   5.580   3.674   7.620  0.3191 -0.3086  0.7369
23771SOL    HW173755   5.532   3.645   7.697 -0.9291 -0.3371 -0.0249
23771SOL    HW273756   5.639   3.602   7.600  0.2335 -0.5472  1.3243
23772SOL     OW73757   7.622   5.970   2.329 -0.1311  0.1681 -0.2057
23772SOL    HW173758   7.593   6.061   2.319 -1.3305 -0.1924 -0.0843
23772SOL    HW273759   7.685   5.973   2.401  1.0652  1.1506 -1.2383
23773SOL     OW73760  10.245   2.908   9.529  0.5526 -0.1641 -0.3971
23773SOL    HW173761  10.226   2.943   9.616 -0.5060  1.3163 -1.1605
23773SOL    HW273762  10.177   2.843   9.513 -0.2335  0.7146 -0.7159
23774SOL     OW73763   5.173   0.717   8.049  0.4388  0.0516 -0.2433
23774SOL    HW173764   5.126   0.634   8.040  0.6753 -0.1839  0.6503
23774SOL    HW273765   5.242   0.699   8.113  0.3111  1.0095  0.1744
23775SOL     OW73766   9.698   5.620  10.155  0.3793  0.1156 -0.1728
23775SOL    HW173767   9.690   5.700  10.103 -0.5773  0.1695  0.0396
23775SOL    HW273768   9.791   5.614  10.176  0.5068  1.0059 -0.4524
23776SOL     OW73769   2.722   2.137   4.841  0.2725 -0.6050 -0.3598
23776SOL    HW173770   2.724   2.167   4.932  1.8538  1.2697 -0.9421
23776SOL    HW273771   2.737   2.042   4.847  0.9646 -0.4258  1.2969
23777SOL     OW73772   2.531   6.557   0.150  0.3391  0.2698 -0.6853
23777SOL    HW173773   2.517   6.542   0.056 -2.1829  0.6353 -0.4109
23777SOL    HW273774   2.517   6.651   0.162  2.0059  0.4838 -0.1033
23778SOL     OW73775   1.970   1.018   6.831 -0.3588 -0.4102  0.1318
23778SOL    HW173776   1.903   1.019   6.900 -0.7843  0.7963 -0.2807
23778SOL    HW273777   1.930   0.968   6.760  0.3295 -2.2274  0.9636
23779SOL     OW73778   7.560   3.411   4.259  0.2884 -0.4386 -0.4650
23779SOL    HW173779   7.465   3.398   4.259  0.3890 -1.4591  0.8991
23779SOL    HW273780   7.589   3.374   4.343  1.8339  0.3210 -0.6266
23780SOL     OW73781   3.598   0.939  10.047  0.5733  0.0037  0.1072
23780SOL    HW173782   3.559   0.914   9.963 -0.5694  0.8846  0.3430
23780SOL    HW273783   3.674   0.883  10.056  0.5015 -0.3662 -1.3483
23781SOL     OW73784   0.436   7.938   8.467  0.0630  0.2734 -0.2189
23781SOL    HW173785   0.484   7.867   8.510 -0.4284  0.3704  0.5083
23781SOL    HW273786   0.456   8.015   8.519 -1.1299  0.2569  0.2864
23782SOL     OW73787   6.182   9.331   9.626  0.3465 -0.0109  0.2938
23782SOL    HW173788   6.106   9.291   9.668  1.0969  1.0922  2.9868
23782SOL    HW273789   6.246   9.260   9.619  0.5246 -0.0852  2.0361
23783SOL     OW73790   6.337   0.731   2.703 -0.3539  0.0031 -0.2448
23783SOL    HW173791   6.357   0.798   2.768  2.2524  0.8178 -1.7360
23783SOL    HW273792   6.293   0.778   2.632  0.3003 -0.0883 -0.7230
23784SOL     OW73793   5.500   6.163  10.036 -0.7455 -0.0546  0.2274
23784SOL    HW173794   5.470   6.092  10.092 -0.4141 -0.4480 -0.0838
23784SOL    HW273795   5.557   6.216  10.092  1.5665 -1.7928 -0.3269
23785SOL     OW73796  10.359   9.856   5.408 -0.7796 -0.3048  0.3615
23785SOL    HW173797  10.340   9.770   5.445  3.9113 -1.7902 -0.0824
23785SOL    HW273798  10.339   9.848   5.315 -1.2559 -0.5326  0.4766
23786SOL     OW73799   1.809   4.938   6.584  0.3179 -0.2851 -0.1246
23786SOL    HW173800   1.813   4.968   6.675 -1.2652  2.2527 -0.8105
23786SOL    HW273801   1.897   4.952   6.550  0.1579  1.7338  0.1912
23787SOL     OW73802   4.508   9.492   6.379  0.3796 -0.2379 -0.2233
23787SOL    HW173803   4.416   9.493   6.403  0.1119  1.5312 -1.1730
23787SOL    HW273804   4.555   9.493   6.463 -0.4083 -2.2355  0.2866
23788SOL     OW73805   5.170   4.821   2.532  0.1701 -0.0055  0.0125
23788SOL    HW173806   5.160   4.841   2.625 -2.4110 -0.3047 -0.1091
23788SOL    HW273807   5.200   4.730   2.531  1.3118  0.3517  0.5369
23789SOL     OW73808   6.125   7.849   8.823  0.0424  0.1251 -0.5234
23789SOL    HW173809   6.195   7.867   8.761  0.4870  2.2198  0.4821
23789SOL    HW273810   6.045   7.863   8.773  0.3515 -0.1842 -1.1214
23790SOL     OW73811  10.010   0.861   4.615 -0.8955  0.0247  0.4317
23790SOL    HW173812  10.067   0.794   4.653  1.0225  0.8685 -0.8257
23790SOL    HW273813   9.965   0.817   4.543  1.9370  0.4754 -1.7745
23791SOL     OW73814   0.208   3.181   8.314  0.3231 -0.0007  0.4754
23791SOL    HW173815   0.276   3.186   8.247  0.7884 -1.2017  0.8402
23791SOL    HW273816   0.238   3.241   8.382  0.7334 -0.1070  0.3908
23792SOL     OW73817   6.558   2.267   3.481  0.0854  0.0075  0.2124
23792SOL    HW173818   6.637   2.290   3.433  1.1512 -2.0440  0.8641
23792SOL    HW273819   6.508   2.213   3.420 -1.4488  2.2241 -0.6154
23793SOL     OW73820   8.825   4.562   2.332  0.1616 -0.5440  0.3531
23793SOL    HW173821   8.736   4.531   2.311  0.2539 -0.0735 -0.7831
23793SOL    HW273822   8.880   4.485   2.318 -0.1043 -0.9615  1.4889
23794SOL     OW73823   4.893   3.211   1.550 -0.2518  0.2240  0.8029
23794SOL    HW173824   4.938   3.203   1.465 -1.4215  2.1266 -0.0573
23794SOL    HW273825   4.835   3.135   1.554  1.3424 -1.0440  0.9156
23795SOL     OW73826   3.976   8.581   1.546 -0.4568  0.5240  0.2995
23795SOL    HW173827   3.917   8.532   1.603  1.1941  1.5760  3.1243
23795SOL    HW273828   4.063   8.565   1.583  0.5163  2.5232 -0.9868
23796SOL     OW73829   0.433   3.600   9.132 -0.0778  0.2549 -0.4695
23796SOL    HW173830   0.409   3.676   9.079 -0.6667  1.1783  1.0646
23796SOL    HW273831   0.351   3.551   9.143  0.2091 -0.3898 -1.0697
23797SOL     OW73832   6.671   5.220   3.873 -0.2738  0.1042 -0.4094
23797SOL    HW173833   6.638   5.141   3.829  0.6497 -1.9039  2.2276
23797SOL    HW273834   6.766   5.215   3.865 -0.1901  0.8127  0.0037
23798SOL     OW73835   6.494   0.015   5.788  0.0109  0.0457  0.1429
23798SOL    HW173836   6.492   0.069   5.709 -0.5655 -1.2894 -0.8008
23798SOL    HW273837   6.403   0.014   5.819 -0.2609 -1.3825 -0.6022
23799SOL     OW73838   0.172   6.926   5.893 -0.1593 -0.1272 -0.0577
23799SOL    HW173839   0.101   6.923   5.828 -0.8230 -0.6036  0.6645
23799SOL    HW273840   0.250   6.902   5.844 -0.7489 -1.0838 -0.5641
23800SOL     OW73841   6.850   4.960   4.096  0.6242  0.3608 -0.5551
23800SOL    HW173842   6.933   4.976   4.141 -0.5859 -1.5400  2.6876
23800SOL    HW273843   6.854   4.868   4.072 -0.7555  0.0800  0.2145
23801SOL     OW73844   0.679   7.902   4.917 -0.4879  0.1379 -0.4423
23801SOL    HW173845   0.668   7.997   4.911 -2.1913 -0.0380 -0.4063
23801SOL    HW273846   0.597   7.870   4.955  0.0135 -1.3655 -0.5604
23802SOL     OW73847   9.277  10.054   9.934  0.7230 -0.6767 -0.1106
23802SOL    HW173848   9.193  10.074   9.893  0.4275  0.4149  0.9476
23802SOL    HW273849   9.336  10.123   9.902  1.0736 -1.1336 -0.4467
23803SOL     OW73850   0.364   6.299   8.422  0.3879  0.3391  0.0885
23803SOL    HW173851   0.435   6.235   8.416 -0.6302 -0.7535 -0.5726
23803SOL    HW273852   0.311   6.271   8.496  1.5612  2.1764  1.7403
23804SOL     OW73853   8.317   7.639   5.543 -0.0162 -0.0238 -0.1288
23804SOL    HW173854   8.410   7.616   5.543  0.2644  1.0344 -1.6167
23804SOL    HW273855   8.313   7.725   5.501 -1.7807 -0.5076 -1.0189
23805SOL     OW73856   3.669   5.358   2.086 -0.4851 -0.4118  0.0276
23805SOL    HW173857   3.594   5.320   2.041 -1.9417  1.1174  1.0416
23805SOL    HW273858   3.678   5.446   2.049 -1.7084  0.8839  2.5582
23806SOL     OW73859   4.055   6.031   3.516 -0.0419  0.4006  0.3333
23806SOL    HW173860   4.026   6.104   3.571 -0.9693  0.2694  0.0459
23806SOL    HW273861   4.147   6.018   3.538 -0.3071  0.5758  1.6069
23807SOL     OW73862   1.689   5.381   6.923 -0.0952  0.0497  0.0389
23807SOL    HW173863   1.686   5.468   6.884 -1.1052 -0.6097 -1.4447
23807SOL    HW273864   1.740   5.392   7.003  0.2356  1.8873 -0.3886
23808SOL     OW73865   2.419   3.538   4.161  0.1195 -0.7290  0.3703
23808SOL    HW173866   2.334   3.544   4.205  0.8023  0.1936  1.6238
23808SOL    HW273867   2.397   3.512   4.072 -1.8121  2.4727 -0.2807
23809SOL     OW73868   6.012   5.036   2.096  0.2450 -0.0735 -0.7527
23809SOL    HW173869   6.036   5.115   2.145  1.9448 -0.3228 -1.1251
23809SOL    HW273870   6.078   4.971   2.122 -0.9337 -1.2884 -0.6939
23810SOL     OW73871   0.126   9.980   6.354  0.3961 -0.1755 -0.2250
23810SOL    HW173872   0.126   9.958   6.261 -0.5926 -0.2436 -0.2173
23810SOL    HW273873   0.085  10.067   6.358  0.0737 -0.3435  0.1790
23811SOL     OW73874  10.378   7.086   4.643  0.3812 -0.1547  0.4049
23811SOL    HW173875  10.434   7.105   4.567  0.8453 -0.7207  0.5978
23811SOL    HW273876  10.291   7.117   4.617  0.2727 -1.4083 -0.8344
23812SOL     OW73877   5.103  10.276   1.890  0.3333  0.0341  0.5466
23812SOL    HW173878   5.063  10.230   1.816 -0.2044  1.9388 -0.4132
23812SOL    HW273879   5.179  10.320   1.853 -0.0014  1.1056  1.0613
23813SOL     OW73880   9.435   4.858   5.907  0.1905  0.1709  0.4342
23813SOL    HW173881   9.467   4.778   5.868 -1.0226  0.7525 -1.9369
23813SOL    HW273882   9.391   4.830   5.987  1.2296 -1.2884  0.5235
23814SOL     OW73883   4.633   8.302   6.864  0.0715 -0.3400  0.1814
23814SOL    HW173884   4.637   8.379   6.806 -2.1280 -0.8730 -0.8023
23814SOL    HW273885   4.637   8.338   6.952  1.4726  0.6805 -0.2666
23815SOL     OW73886   8.806   0.951   4.847  0.0007  0.2606  0.8970
23815SOL    HW173887   8.786   0.920   4.759  0.1174 -2.1658  1.6283
23815SOL    HW273888   8.769   1.039   4.852  0.8579  0.8545 -1.8467
23816SOL     OW73889   3.322   4.282   4.959 -0.7686  0.2559  0.4201
23816SOL    HW173890   3.367   4.208   4.919  0.3797  1.4466 -0.5625
23816SOL    HW273891   3.230   4.270   4.935 -0.4797 -0.4242 -0.3836
23817SOL     OW73892   0.899   1.891   1.498  0.0392  0.2790 -0.3379
23817SOL    HW173893   0.877   1.972   1.545  1.8189 -0.6344  2.2923
23817SOL    HW273894   0.814   1.848   1.484 -0.8393  2.0691 -0.8557
23818SOL     OW73895   4.214   8.907   9.967 -0.7723  0.2999  0.1507
23818SOL    HW173896   4.277   8.889  10.037  0.6223  0.0962 -1.0918
23818SOL    HW273897   4.198   8.822   9.927 -2.0581  0.3131  0.5961
23819SOL     OW73898   3.763   1.825   8.901 -0.4883 -0.0416 -0.4054
23819SOL    HW173899   3.682   1.876   8.894  0.1889  0.8744 -3.0583
23819SOL    HW273900   3.784   1.802   8.810  3.6019  2.0828 -0.2230
23820SOL     OW73901   1.123   5.533   1.213  0.3057 -0.0856  0.2254
23820SOL    HW173902   1.087   5.508   1.128 -0.9566  0.9967  0.3982
23820SOL    HW273903   1.218   5.528   1.202  0.1342 -1.5958 -0.7145
23821SOL     OW73904   1.471   5.976   2.231 -0.6402  0.3429  0.1208
23821SOL    HW173905   1.463   5.919   2.154  0.5383  0.2942  0.0121
23821SOL    HW273906   1.426   5.928   2.301 -3.5409  1.2915 -0.9306
23822SOL     OW73907   4.659   4.344   1.381  0.0872  0.7497  0.3247
23822SOL    HW173908   4.686   4.360   1.291  3.4990  0.8564  1.2185
23822SOL    HW273909   4.720   4.395   1.434 -0.7225 -0.6087  2.7318
23823SOL     OW73910   2.347   4.605   6.086  0.8597 -0.2491  0.7496
23823SOL    HW173911   2.385   4.645   6.008  0.8410  0.2869  1.0092
23823SOL    HW273912   2.338   4.677   6.148 -2.4716  0.1435  0.0159
23824SOL     OW73913   7.033   0.861   6.888  0.1097 -0.4917 -0.3594
23824SOL    HW173914   6.965   0.834   6.826 -1.0984  0.2286  0.6188
23824SOL    HW273915   6.996   0.937   6.933  1.1702 -0.6862  0.8830
23825SOL     OW73916   5.340   5.209   4.216  0.4272  0.1718  0.0919
23825SOL    HW173917   5.261   5.219   4.268  1.2756  1.8852  1.1487
23825SOL    HW273918   5.309   5.184   4.129 -1.2611  0.6573  0.5220
23826SOL     OW73919   9.908   2.407   8.310 -0.3164 -0.0579  0.6160
23826SOL    HW173920   9.949   2.349   8.374 -0.0068 -0.2111  0.2832
23826SOL    HW273921   9.971   2.412   8.238 -0.5677  0.2793  0.4141
23827SOL     OW73922   3.715   4.819   8.582  0.5065  0.7600  0.1801
23827SOL    HW173923   3.808   4.835   8.601  0.0754  4.4224 -0.1424
23827SOL    HW273924   3.709   4.821   8.487  0.2542 -1.0141  0.1268
23828SOL     OW73925   3.998   5.278   5.192 -0.1782  0.4588  0.7738
23828SOL    HW173926   3.993   5.357   5.246  1.0495 -0.0439  1.6719
23828SOL    HW273927   3.936   5.217   5.234 -0.7452  0.7530  0.3814
23829SOL     OW73928   8.828   2.822   6.294  0.2481 -0.6725  0.1505
23829SOL    HW173929   8.856   2.889   6.231  1.4869 -0.0883  1.2672
23829SOL    HW273930   8.739   2.799   6.267  0.2612  0.5286 -1.0028
23830SOL     OW73931  10.418   3.668   5.182 -0.0126  0.6536 -0.2669
23830SOL    HW173932  10.380   3.642   5.099  0.0930  0.2993 -0.2074
23830SOL    HW273933  10.510   3.687   5.162 -0.1264  1.1446 -0.3404
23831SOL     OW73934   6.836   8.858   6.780 -0.3565  0.0783  0.6008
23831SOL    HW173935   6.746   8.886   6.801 -0.9843 -1.8519  0.7139
23831SOL    HW273936   6.857   8.902   6.698 -2.0919 -0.7582 -0.3422
23832SOL     OW73937   6.450   2.110   7.563  0.2742 -0.2561 -0.6527
23832SOL    HW173938   6.408   2.098   7.648 -1.8775  0.3169 -1.5801
23832SOL    HW273939   6.425   2.199   7.536  1.7157 -0.0689 -1.4857
23833SOL     OW73940   9.412   1.311   6.761 -0.6895  0.1863  0.1318
23833SOL    HW173941   9.353   1.263   6.702  1.2852 -0.8149 -1.1059
23833SOL    HW273942   9.448   1.245   6.819  0.6392  0.4271 -0.3777
23834SOL     OW73943  10.286   1.264   8.438  0.4161 -0.0262  0.4317
23834SOL    HW173944  10.349   1.336   8.450  2.1697 -1.3669 -0.3258
23834SOL    HW273945  10.326   1.189   8.482 -0.6922 -0.9165 -0.0259
23835SOL     OW73946   2.675   1.719   6.820 -0.2680 -0.4503 -0.1899
23835SOL    HW173947   2.700   1.629   6.841  1.5997  0.0935  0.0902
23835SOL    HW273948   2.621   1.747   6.894 -0.5210 -1.2032 -0.0876
23836SOL     OW73949   5.599   4.411   6.620 -0.3156 -0.2244  0.0956
23836SOL    HW173950   5.568   4.350   6.554 -0.7785 -0.7538  0.7908
23836SOL    HW273951   5.655   4.472   6.572  0.4254 -1.3791 -0.5595
23837SOL     OW73952   0.779   1.468   1.881 -0.4167  0.3453 -0.2392
23837SOL    HW173953   0.713   1.538   1.881 -1.5310 -0.6401  1.2990
23837SOL    HW273954   0.755   1.413   1.807 -1.8355 -0.4211  0.7478
23838SOL     OW73955   5.977   0.905   2.221  0.3254  0.2094  0.1864
23838SOL    HW173956   5.914   0.845   2.259  1.0734 -1.6890 -1.4173
23838SOL    HW273957   6.062   0.868   2.242  0.7918  0.1689 -1.5767
23839SOL     OW73958   1.611   9.659   0.004 -0.2134  0.3997  0.3546
23839SOL    HW173959   1.517   9.644  -0.009  0.0593 -0.8746 -0.2669
23839SOL    HW273960   1.643   9.577   0.042  0.3313  1.4769  2.3812
23840SOL     OW73961   6.554   1.579   6.800 -0.3645  0.0032  0.1988
23840SOL    HW173962   6.648   1.591   6.811 -0.5637  0.7756  1.2437
23840SOL    HW273963   6.534   1.623   6.717  0.0408  0.7705  0.4935
23841SOL     OW73964   4.926   7.324   1.000  0.0131 -0.1297  0.0510
23841SOL    HW173965   4.968   7.404   1.034  2.0765 -1.8415  1.8068
23841SOL    HW273966   4.877   7.354   0.923 -2.0848  3.3784  2.4944
23842SOL     OW73967   1.334   4.549   3.191 -0.3877 -0.0900  0.2103
23842SOL    HW173968   1.254   4.534   3.140 -0.4985 -0.2250  0.4202
23842SOL    HW273969   1.352   4.642   3.180 -0.1319 -0.2159 -0.4725
23843SOL     OW73970   2.968   4.725  10.073 -0.0903  0.2394  0.0337
23843SOL    HW173971   2.959   4.679   9.990  0.7285 -1.1218  0.6667
23843SOL    HW273972   3.048   4.690  10.112 -0.2931  1.0702  1.2659
23844SOL     OW73973   4.967   7.315   2.204  0.0499  0.1167 -0.5718
23844SOL    HW173974   4.947   7.395   2.157 -2.2412  0.2904  0.5164
23844SOL    HW273975   4.885   7.265   2.201 -0.0177 -0.1708  2.5038
23845SOL     OW73976   9.769   4.412   6.901 -0.4165  0.1782 -0.8510
23845SOL    HW173977   9.744   4.334   6.850 -0.9223 -0.1418 -0.1187
23845SOL    HW273978   9.781   4.379   6.990  0.2396  0.7824 -0.7119
23846SOL     OW73979   3.120   7.653   3.811  0.4520 -0.5320 -0.0541
23846SOL    HW173980   3.071   7.694   3.882  1.3569 -0.2156  0.4089
23846SOL    HW273981   3.206   7.694   3.815  0.7256 -0.9922 -0.9175
23847SOL     OW73982   7.191   0.116   5.038 -0.4647  0.5570 -0.0649
23847SOL    HW173983   7.232   0.132   4.953  0.2231  0.8340  0.3035
23847SOL    HW273984   7.115   0.173   5.039  0.4870  1.8831  0.1820
23848SOL     OW73985   3.092   3.766   8.560  0.0411  0.0711  0.1692
23848SOL    HW173986   3.037   3.819   8.617 -1.7982 -2.1634  0.5915
23848SOL    HW273987   3.052   3.773   8.473  1.2934  1.3549 -0.3376
23849SOL     OW73988   1.169   5.953   7.228  0.5746 -0.1960 -0.0366
23849SOL    HW173989   1.232   6.010   7.184  0.1544  0.1131 -0.2501
23849SOL    HW273990   1.107   6.013   7.269  1.2056 -0.4774  1.3592
23850SOL     OW73991  10.420  10.293   0.693  0.0082 -0.0438 -0.2600
23850SOL    HW173992  10.446  10.382   0.671 -2.6970  0.5462 -1.5747
23850SOL    HW273993  10.382  10.300   0.781 -0.8297  0.2842 -0.6361
23851SOL     OW73994   0.360   9.608   6.786  0.1770 -0.3161  0.5974
23851SOL    HW173995   0.363   9.584   6.693  1.2736 -1.0725  0.7998
23851SOL    HW273996   0.339   9.701   6.787 -1.2904 -0.6141 -0.3505
23852SOL     OW73997   2.812   5.277   9.819 -0.0310 -0.2811  0.0970
23852SOL    HW173998   2.777   5.198   9.861  0.0939 -0.5492 -0.2991
23852SOL    HW273999   2.735   5.333   9.807  0.0944  0.2719  1.6843
23853SOL     OW74000   0.941   6.457   4.329 -0.1737 -0.2929  0.1638
23853SOL    HW174001   0.991   6.447   4.410 -1.5583  3.2366  1.6073
23853SOL    HW274002   0.851   6.438   4.353 -0.6060  0.7969 -0.5372
23854SOL     OW74003   9.606   5.558   1.027  0.5119 -0.1698 -0.5611
23854SOL    HW174004   9.674   5.492   1.046  0.7584  0.4603  0.8899
23854SOL    HW274005   9.646   5.615   0.962  0.2336 -1.5318 -1.9656
23855SOL     OW74006   9.296   2.797   0.067 -0.0701  1.1330 -0.4946
23855SOL    HW174007   9.249   2.750   0.136  0.1626  0.2832 -0.9107
23855SOL    HW274008   9.229   2.851   0.025 -0.6082  0.2150 -0.8353
23856SOL     OW74009   3.351   2.919   2.089  0.1348  0.0651  0.0698
23856SOL    HW174010   3.400   2.895   2.168  1.3201  1.7338 -0.1077
23856SOL    HW274011   3.384   3.005   2.065 -2.7268  1.1622 -0.2727
23857SOL     OW74012   5.531   3.566   4.427 -0.0650  0.0464 -0.0917
23857SOL    HW174013   5.620   3.588   4.454 -0.1962  0.1169  0.2911
23857SOL    HW274014   5.530   3.471   4.420 -0.0079  0.0355  0.0653
23858SOL     OW74015   7.413   4.880   7.021 -0.0311  0.0438  0.1077
23858SOL    HW174016   7.386   4.961   6.976 -0.7508 -0.1017  0.2668
23858SOL    HW274017   7.339   4.858   7.077  1.0921  0.5889  1.9172
23859SOL     OW74018   8.043   7.586   7.278  0.2423  0.2534  0.4506
23859SOL    HW174019   8.050   7.560   7.186 -1.4486  1.2722 -0.0185
23859SOL    HW274020   8.000   7.671   7.276 -0.8668 -0.1945  2.2193
23860SOL     OW74021   3.275   7.232   1.403 -0.2295 -0.3657  0.2931
23860SOL    HW174022   3.307   7.161   1.348 -0.3762  0.1575 -0.4702
23860SOL    HW274023   3.234   7.294   1.343  0.5962  0.7574  0.8428
23861SOL     OW74024   7.617  10.136   4.143  0.1564 -0.1677  0.7693
23861SOL    HW174025   7.623  10.040   4.147 -0.9800 -0.2200  2.4798
23861SOL    HW274026   7.523  10.153   4.132  0.5271  0.7581 -1.4584
23862SOL     OW74027   1.769   3.758   2.460  0.0168  0.6156  0.1232
23862SOL    HW174028   1.766   3.726   2.550 -0.0230 -2.0738 -0.7604
23862SOL    HW274029   1.862   3.756   2.438 -0.1246 -0.3939 -0.4216
23863SOL     OW74030  10.082   0.960   3.663  1.0070  0.3016  0.4649
23863SOL    HW174031  10.054   0.875   3.697 -0.3370  0.7920  0.6592
23863SOL    HW274032  10.173   0.947   3.637  0.4570 -1.5859 -0.7692
23864SOL     OW74033   6.279   9.533   2.766  0.1671  0.5704  0.0473
23864SOL    HW174034   6.196   9.555   2.724  0.8950  1.2746 -1.0676
23864SOL    HW274035   6.344   9.588   2.722  1.0698  0.8772  1.6735
23865SOL     OW74036   1.936   9.932   1.828 -0.2849 -0.2385  0.1593
23865SOL    HW174037   1.999   9.927   1.756 -1.3025 -0.8266 -0.7195
23865SOL    HW274038   1.941  10.023   1.858  0.1200  0.0275 -0.6851
23866SOL     OW74039   9.341   6.964   7.248  0.0861 -0.2696 -0.1056
23866SOL    HW174040   9.252   6.951   7.216  0.0570  0.2754 -0.2567
23866SOL    HW274041   9.330   7.017   7.328  0.1505 -1.6941  0.8863
23867SOL     OW74042   0.861   8.558   5.571  0.2301  1.0244 -0.2691
23867SOL    HW174043   0.858   8.489   5.505  0.4491 -1.4583  2.1250
23867SOL    HW274044   0.773   8.557   5.609  0.9342  0.2868  1.4186
23868SOL     OW74045   2.735   1.311   0.552 -0.4832 -0.1747  0.5923
23868SOL    HW174046   2.699   1.222   0.549 -1.7162  0.3196 -0.8640
23868SOL    HW274047   2.680   1.357   0.615 -0.5811 -0.1623  0.4989
23869SOL     OW74048   7.656   2.383   9.530 -0.3095 -0.4490  0.2763
23869SOL    HW174049   7.687   2.309   9.583 -0.5601 -0.7591 -0.0044
23869SOL    HW274050   7.637   2.344   9.445  0.7682  0.1745 -0.2593
23870SOL     OW74051   4.216   4.271   7.259  0.4152 -0.5366 -0.6408
23870SOL    HW174052   4.158   4.209   7.214  1.1102 -0.6221 -1.4208
23870SOL    HW274053   4.190   4.356   7.226 -2.1078 -0.0520  2.0710
23871SOL     OW74054   8.585   9.959   5.067 -0.4515 -0.0286 -0.0304
23871SOL    HW174055   8.569  10.053   5.054  0.1390 -0.0491 -0.9872
23871SOL    HW274056   8.519   9.916   5.013  0.2721 -0.1396 -0.8496
23872SOL     OW74057   3.368   7.731   2.575  0.3936 -0.1115 -0.4763
23872SOL    HW174058   3.382   7.681   2.494 -0.0510 -0.6162 -0.2519
23872SOL    HW274059   3.278   7.763   2.567 -0.0975 -1.2013  0.3488
23873SOL     OW74060   8.927   0.310   6.194  0.3664 -0.0476  0.4649
23873SOL    HW174061   8.964   0.380   6.141  0.7827 -0.7528 -0.1862
23873SOL    HW274062   8.837   0.300   6.162  0.6505 -0.5453 -0.1948
23874SOL     OW74063   3.812   5.927   8.426  0.1448  0.0190  0.2112
23874SOL    HW174064   3.834   5.974   8.346 -0.9962  0.6678  0.2558
23874SOL    HW274065   3.781   5.842   8.396  1.6096 -0.4962  0.0940
23875SOL     OW74066   8.115   3.635   5.249 -0.2550 -0.4094  0.7840
23875SOL    HW174067   8.049   3.572   5.219  0.5196 -0.6821 -0.4127
23875SOL    HW274068   8.128   3.614   5.342 -1.8569 -0.3195  1.0526
23876SOL     OW74069   1.468   3.821   2.619  0.5103  0.0778 -0.0009
23876SOL    HW174070   1.541   3.834   2.679  0.8454  2.2769 -0.7902
23876SOL    HW274071   1.396   3.872   2.657  0.7478  1.5525 -1.4286
23877SOL     OW74072   1.551   2.727  10.220 -0.0816 -0.4293  0.0849
23877SOL    HW174073   1.487   2.768  10.162 -0.7830 -1.3658  0.1572
23877SOL    HW274074   1.498   2.669  10.276  1.0265 -3.3693 -1.6557
23878SOL     OW74075  10.312   9.125   9.318 -0.3682 -0.2181 -0.0517
23878SOL    HW174076  10.318   9.167   9.231 -1.4176 -1.2751 -0.6522
23878SOL    HW274077  10.306   9.199   9.379 -0.5197  0.5382 -0.9510
23879SOL     OW74078   2.279   8.221   4.956 -0.6522  0.4392  0.6074
23879SOL    HW174079   2.273   8.256   5.045 -1.1365 -0.6947  1.0434
23879SOL    HW274080   2.351   8.270   4.916 -0.8604  1.4317  1.3982
23880SOL     OW74081   2.211  10.005   8.948  0.6008 -0.1321 -0.4128
23880SOL    HW174082   2.214  10.088   8.900 -0.8787  0.4370  0.4175
23880SOL    HW274083   2.130  10.009   8.998  2.6591 -0.1257  3.1963
23881SOL     OW74084   5.965   1.219   5.830 -0.0596 -0.0241  0.1352
23881SOL    HW174085   5.891   1.170   5.793 -0.0363 -0.0622  0.1385
23881SOL    HW274086   5.981   1.290   5.767 -0.3263  0.1951  0.3140
23882SOL     OW74087   1.829   8.802  10.478 -0.5880  0.9130  0.1007
23882SOL    HW174088   1.810   8.889  10.513 -1.9158 -0.2256  2.4824
23882SOL    HW274089   1.915   8.780  10.514 -0.4931  1.0184 -0.0599
23883SOL     OW74090   7.264   0.751   7.114  0.3398 -0.3222  0.0771
23883SOL    HW174091   7.299   0.826   7.163 -3.0108  0.5583  1.3569
23883SOL    HW274092   7.273   0.677   7.174  1.9319 -0.6419 -0.4848
23884SOL     OW74093   0.507   1.310   6.457  0.1227 -0.0506 -0.3710
23884SOL    HW174094   0.585   1.363   6.443 -0.4539  0.6756 -0.9178
23884SOL    HW274095   0.456   1.359   6.521 -0.4040  0.0555 -0.8618
23885SOL     OW74096   1.641   5.300   1.744 -0.9021 -0.2617 -0.1486
23885SOL    HW174097   1.718   5.349   1.714 -2.0411  0.9435 -1.2006
23885SOL    HW274098   1.596   5.359   1.804 -1.8057 -0.3427 -0.7276
23886SOL     OW74099  10.323   4.331   8.499 -0.2495  0.4229  0.1764
23886SOL    HW174100  10.341   4.412   8.452 -1.1230  0.3876 -0.2452
23886SOL    HW274101  10.274   4.277   8.436  3.0326 -1.7915 -0.7745
23887SOL     OW74102   9.706   1.666   4.129 -0.1711  0.0956 -0.0804
23887SOL    HW174103   9.736   1.619   4.207  0.8779  2.5323  1.1092
23887SOL    HW274104   9.648   1.734   4.163 -1.1472  0.0956 -1.6598
23888SOL     OW74105   2.681   6.958   1.435 -0.3245 -0.1213 -0.7699
23888SOL    HW174106   2.680   6.925   1.345 -2.0020 -3.1394  0.2179
23888SOL    HW274107   2.591   6.944   1.466  0.1860  0.9340  1.3589
23889SOL     OW74108   8.447   5.829   2.116 -0.0705 -0.1340 -0.5162
23889SOL    HW174109   8.491   5.795   2.038 -0.9552  0.6928 -1.4099
23889SOL    HW274110   8.358   5.849   2.086 -0.2976  0.6125  0.5951
23890SOL     OW74111   3.781   4.536  10.339  0.3555 -0.3592 -0.1241
23890SOL    HW174112   3.818   4.519  10.252  0.5412 -1.9684  0.2254
23890SOL    HW274113   3.687   4.539  10.325  0.3054 -1.7662 -0.2499
23891SOL     OW74114   4.601   3.545   8.850 -0.5962 -0.3339  0.0738
23891SOL    HW174115   4.531   3.484   8.826  0.4213 -1.2258 -0.7503
23891SOL    HW274116   4.625   3.587   8.767  0.8346 -1.1331  0.0550
23892SOL     OW74117   4.066   5.469   2.717 -0.1018  0.7543  0.3157
23892SOL    HW174118   4.134   5.531   2.693  1.0031 -0.6136 -0.2439
23892SOL    HW274119   4.113   5.396   2.757 -1.1933 -0.3555 -0.3341
23893SOL     OW74120   1.828   6.488  10.353  0.2355  0.4054 -0.0661
23893SOL    HW174121   1.763   6.543  10.309  1.1879  0.3018 -1.6452
23893SOL    HW274122   1.898   6.549  10.377  0.6554  0.1181 -0.5535
23894SOL     OW74123   6.490   1.415   5.566 -0.4975  0.7586 -0.1462
23894SOL    HW174124   6.457   1.495   5.606 -0.6205 -0.5355  2.5748
23894SOL    HW274125   6.535   1.369   5.637  5.1238  1.1621 -2.8711
23895SOL     OW74126   2.606   4.061   0.631 -0.2399  0.0346  0.2387
23895SOL    HW174127   2.697   4.067   0.659 -0.0753  0.9066 -0.4226
23895SOL    HW274128   2.555   4.090   0.706 -0.0155 -0.9943  0.8029
23896SOL     OW74129   3.002   0.036  10.387  0.0060  0.4172  0.9530
23896SOL    HW174130   3.046  -0.044  10.360 -0.4822  0.2607  0.5999
23896SOL    HW274131   2.909   0.014  10.386 -0.0255  0.0809  3.8026
23897SOL     OW74132   2.533   3.971   4.288  0.3102 -0.1356 -0.1797
23897SOL    HW174133   2.522   3.997   4.196 -0.7790  3.5827  0.7970
23897SOL    HW274134   2.627   3.984   4.305  0.2277  0.8118 -0.3871
23898SOL     OW74135   1.372   7.091   3.890  0.1858  0.3533  0.2970
23898SOL    HW174136   1.355   7.183   3.908  2.6265  1.1390 -1.0081
23898SOL    HW274137   1.343   7.078   3.800  2.5378  0.6993 -0.5739
23899SOL     OW74138   1.283   0.293   7.045 -0.2676  0.4435 -0.3589
23899SOL    HW174139   1.312   0.381   7.070  0.8310 -0.5636  2.2385
23899SOL    HW274140   1.363   0.248   7.020 -0.4593 -0.4849  0.6239
23900SOL     OW74141   0.222   7.704   2.579 -0.1198 -0.4009  0.2431
23900SOL    HW174142   0.250   7.777   2.633 -0.6302  0.7425 -0.9823
23900SOL    HW274143   0.149   7.664   2.628 -0.1888  0.2398  0.6701
23901SOL     OW74144   9.450   6.290   3.799  0.2936  0.6372  0.5033
23901SOL    HW174145   9.426   6.200   3.779  0.8498  0.1234  2.0245
23901SOL    HW274146   9.486   6.286   3.888 -1.3380  2.6342  1.3346
23902SOL     OW74147   3.603   2.646   8.938  0.2144  0.0332 -0.0706
23902SOL    HW174148   3.651   2.670   9.017 -0.3134  0.3565  0.1578
23902SOL    HW274149   3.565   2.561   8.957 -0.9473  0.6546  0.5113
23903SOL     OW74150   2.178   3.722   7.416  0.0210 -0.0001 -0.0584
23903SOL    HW174151   2.207   3.631   7.408 -0.9232 -0.2543 -0.7253
23903SOL    HW274152   2.173   3.736   7.511 -1.5179 -1.2308  0.0971
23904SOL     OW74153   7.844   5.065   9.284 -0.1361 -0.2213 -0.3726
23904SOL    HW174154   7.819   5.157   9.295  1.3449  0.0147  1.4997
23904SOL    HW274155   7.829   5.047   9.191 -3.2382  1.0290 -0.2420
23905SOL     OW74156   8.952   9.194   5.711 -0.4767  0.0442 -0.0084
23905SOL    HW174157   8.995   9.137   5.775 -1.8640  0.7789  1.6575
23905SOL    HW274158   8.888   9.137   5.668  2.0434 -1.0834 -2.5782
23906SOL     OW74159   1.874   6.747   0.873  0.6440 -0.1479 -0.3995
23906SOL    HW174160   1.892   6.664   0.829  0.1192 -1.2073  1.2795
23906SOL    HW274161   1.834   6.721   0.956 -0.5594  1.8305 -0.3125
23907SOL     OW74162   3.751   4.387   0.189 -0.1427  0.1037 -0.4123
23907SOL    HW174163   3.680   4.390   0.125 -0.1395 -0.3345 -0.4414
23907SOL    HW274164   3.823   4.435   0.148 -1.0415  2.2522  0.4161
23908SOL     OW74165   3.558   4.425   6.182 -0.3142  0.4314 -0.0536
23908SOL    HW174166   3.592   4.399   6.267  0.7224 -0.2946 -0.6643
23908SOL    HW274167   3.469   4.391   6.179  0.3623 -1.4133 -0.0748
23909SOL     OW74168   1.865   2.468   9.016  0.1691  0.1351 -0.7111
23909SOL    HW174169   1.776   2.491   9.042  0.4655  0.7458 -0.2176
23909SOL    HW274170   1.860   2.457   8.921 -0.2679  0.9419 -0.7866
23910SOL     OW74171   8.887   4.857   7.335  0.3194  0.1894  0.5472
23910SOL    HW174172   8.906   4.763   7.341  0.6944  0.2593  0.4420
23910SOL    HW274173   8.865   4.882   7.424 -0.6221 -0.1751  0.4340
23911SOL     OW74174   1.729   8.077   8.194 -0.1258 -0.1732  0.3534
23911SOL    HW174175   1.750   7.996   8.241  0.8038 -0.4649 -0.5289
23911SOL    HW274176   1.814   8.116   8.173 -0.5237  0.1739 -0.6852
23912SOL     OW74177   0.325   2.028   4.532 -0.6234 -0.0883 -0.3326
23912SOL    HW174178   0.327   2.026   4.627  1.3944 -1.0359 -0.3647
23912SOL    HW274179   0.414   2.052   4.506 -1.5434  1.9309 -1.9847
23913SOL     OW74180   7.079   4.724   8.695  0.1919  0.1124 -0.1158
23913SOL    HW174181   7.157   4.672   8.715  0.4633  0.2424 -0.8194
23913SOL    HW274182   7.013   4.694   8.758  0.3890 -0.9739 -0.4008
23914SOL     OW74183   0.980   2.538   9.325 -0.5406  0.1972  0.0773
23914SOL    HW174184   0.920   2.464   9.319  0.8399 -0.9732  0.2388
23914SOL    HW274185   0.970   2.584   9.241  0.1366 -1.4333 -0.9402
23915SOL     OW74186   2.918   9.412   0.128  0.1143  0.2842  0.6562
23915SOL    HW174187   2.982   9.431   0.059 -0.1224  1.0406  0.6436
23915SOL    HW274188   2.971   9.388   0.204  0.3921  0.1979  0.4397
23916SOL     OW74189   1.398   1.024   8.204 -0.0122 -0.4057  0.0715
23916SOL    HW174190   1.389   0.929   8.196  1.4963 -0.5325 -0.5065
23916SOL    HW274191   1.412   1.055   8.114 -4.0159  0.8681 -0.3087
23917SOL     OW74192   1.385   2.803   8.233 -0.7263 -0.0078 -0.1857
23917SOL    HW174193   1.399   2.757   8.150 -2.2128  0.0128 -0.4760
23917SOL    HW274194   1.415   2.892   8.217  1.0508 -0.5435  0.0069
23918SOL     OW74195   1.426   9.660   2.453 -0.8222 -0.2616  0.1852
23918SOL    HW174196   1.400   9.573   2.423 -1.5011 -0.6436  1.7751
23918SOL    HW274197   1.348   9.714   2.439 -0.4620  0.0554 -0.6282
23919SOL     OW74198   3.188   3.997   8.325 -0.3849 -0.2763  0.2502
23919SOL    HW174199   3.096   4.003   8.298 -0.8280  1.7866  1.9420
23919SOL    HW274200   3.187   4.016   8.418  1.6509 -1.7404  0.6334
23920SOL     OW74201   7.023   9.822   0.730  0.5082  0.0735 -0.6098
23920SOL    HW174202   7.115   9.848   0.722  0.9937 -0.8613  1.1991
23920SOL    HW274203   7.021   9.731   0.701  0.7620 -0.7927  1.8314
23921SOL     OW74204   0.504   4.925   2.320  0.5105 -0.0158 -0.0309
23921SOL    HW174205   0.532   4.894   2.233 -1.8164 -0.0134 -0.8348
23921SOL    HW274206   0.442   4.995   2.301 -0.1054 -0.0823  1.6541
23922SOL     OW74207   1.653   9.703   2.634  0.3779  0.0393 -0.4103
23922SOL    HW174208   1.586   9.686   2.568  1.1083 -0.8584 -0.9489
23922SOL    HW274209   1.692   9.617   2.650  0.3797  0.2880  1.0177
23923SOL     OW74210   1.617   5.406  10.160 -0.4923 -0.1586 -0.0447
23923SOL    HW174211   1.635   5.379  10.250  2.1545 -0.1319 -0.4873
23923SOL    HW274212   1.591   5.325  10.115  0.9095 -0.7299  0.1369
23924SOL     OW74213  10.051   7.759   7.190 -0.1921  0.9580  0.2419
23924SOL    HW174214  10.034   7.683   7.134 -0.4519  1.1858  0.0066
23924SOL    HW274215   9.964   7.795   7.209 -0.1656  0.5132  1.3220
23925SOL     OW74216   8.151   8.100   6.661 -0.1650  0.7889 -0.0518
23925SOL    HW174217   8.205   8.156   6.716  3.0033 -0.7842 -1.2940
23925SOL    HW274218   8.188   8.111   6.573 -1.2174 -1.1572 -0.7956
23926SOL     OW74219   9.550   9.121   2.953  0.0090  0.8509  0.0070
23926SOL    HW174220   9.564   9.203   3.001 -0.9489  0.5701  0.8040
23926SOL    HW274221   9.462   9.094   2.978  0.4230 -0.5794 -0.0216
23927SOL     OW74222   6.803   8.095   8.155 -0.0333  0.0175  0.5821
23927SOL    HW174223   6.847   8.052   8.228  0.1547 -0.1556  0.3690
23927SOL    HW274224   6.710   8.090   8.176 -0.0236 -0.6275  0.4928
23928SOL     OW74225   1.379   3.134   7.818 -0.0615  0.1918  0.0764
23928SOL    HW174226   1.289   3.159   7.796  0.2126  0.5624 -0.6691
23928SOL    HW274227   1.405   3.197   7.885 -0.5743 -0.3304  0.7800
23929SOL     OW74228   1.011   2.889   0.406 -0.6531 -0.5976  0.5586
23929SOL    HW174229   1.003   2.899   0.501  0.4875  1.1611  0.5132
23929SOL    HW274230   1.062   2.809   0.395  0.3168 -0.1449  1.5087
23930SOL     OW74231   6.426   0.897   2.090  0.0459 -0.0020  0.8223
23930SOL    HW174232   6.484   0.841   2.142 -0.6793  0.2152  1.8866
23930SOL    HW274233   6.485   0.963   2.052  0.7658 -0.9247  0.3140
23931SOL     OW74234   8.866   0.956   4.384  0.3999 -0.3456  0.2834
23931SOL    HW174235   8.948   1.001   4.364  0.8541 -0.9432  0.7510
23931SOL    HW274236   8.850   0.898   4.310 -0.0819  0.4183 -0.2271
23932SOL     OW74237   0.400   0.490   1.472 -0.0997 -0.4477 -0.2044
23932SOL    HW174238   0.467   0.433   1.434  0.5311 -1.3875  2.1532
23932SOL    HW274239   0.318   0.457   1.435  0.5732 -0.1172 -2.1256
23933SOL     OW74240   5.050   1.750   5.347  0.0096 -0.3409  0.1356
23933SOL    HW174241   5.111   1.717   5.281 -0.1460  1.8797 -1.2630
23933SOL    HW274242   5.098   1.746   5.429  1.4058 -0.2987 -0.6462
23934SOL     OW74243   4.476   9.737   3.576 -0.3180 -0.0827  0.4767
23934SOL    HW174244   4.552   9.777   3.620  0.6351 -1.4075  0.0762
23934SOL    HW274245   4.412   9.725   3.647 -0.3829  1.4796  0.7341
23935SOL     OW74246   9.298   0.364   6.161  0.4293 -0.1021  0.3392
23935SOL    HW174247   9.263   0.453   6.159 -0.1996 -0.3562 -1.0994
23935SOL    HW274248   9.355   0.363   6.238  0.7198  1.6431  0.1977
23936SOL     OW74249   7.356   0.525   6.706 -0.0526  0.3430  0.0383
23936SOL    HW174250   7.294   0.568   6.764 -0.9835 -2.0124  0.9321
23936SOL    HW274251   7.389   0.595   6.650 -3.0838  1.8154 -0.1075
23937SOL     OW74252   1.835   5.506   9.445  0.3838 -0.3328 -0.0506
23937SOL    HW174253   1.930   5.516   9.454  0.0806  2.6319  1.3379
23937SOL    HW274254   1.813   5.432   9.501  1.8084 -0.5671  0.2403
23938SOL     OW74255   8.749   5.770   7.676  0.2928  0.1702 -0.5984
23938SOL    HW174256   8.795   5.732   7.750 -0.2101  0.6553 -0.0211
23938SOL    HW274257   8.708   5.696   7.632 -1.7598  0.1187  1.2635
23939SOL     OW74258   5.673   6.798   2.699  1.0601 -0.3378 -0.3257
23939SOL    HW174259   5.714   6.849   2.769  1.1225 -0.9475  0.0806
23939SOL    HW274260   5.606   6.857   2.663 -0.4393 -0.7652  1.6329
23940SOL     OW74261  10.123   7.189   0.463  0.6186  0.0478  0.0762
23940SOL    HW174262  10.035   7.177   0.500  0.2496  1.0748 -0.4315
23940SOL    HW274263  10.107   7.221   0.374  1.5020 -1.2206 -0.5749
23941SOL     OW74264   6.178   6.114   3.237 -0.6914  0.1703 -0.2206
23941SOL    HW174265   6.251   6.052   3.231  0.9378  2.0551 -1.6194
23941SOL    HW274266   6.104   6.062   3.269  0.6515 -2.3691 -0.9532
23942SOL     OW74267   9.868   7.178   9.121 -0.5327  0.1896  0.5429
23942SOL    HW174268   9.881   7.160   9.028  0.2416  0.6210  0.5556
23942SOL    HW274269   9.860   7.274   9.126  0.2318  0.2430  0.9996
23943SOL     OW74270   3.067   1.870   8.980 -0.1449  0.1236 -0.0854
23943SOL    HW174271   3.072   1.784   9.021 -0.9555 -0.3547 -0.9457
23943SOL    HW274272   3.154   1.908   8.993  0.3076 -0.9378  0.0732
23944SOL     OW74273   3.468  10.272   9.702  0.1188 -0.3824 -0.0522
23944SOL    HW174274   3.474  10.201   9.638  0.6154  2.5266 -3.5463
23944SOL    HW274275   3.375  10.277   9.723  0.0258 -1.7770 -0.0265
23945SOL     OW74276   0.888   2.029   3.524  0.2889 -0.1832  0.1986
23945SOL    HW174277   0.938   1.956   3.560  0.0216  0.3184  1.6678
23945SOL    HW274278   0.817   1.988   3.474  2.4709 -0.9218 -2.5474
23946SOL     OW74279   6.174  10.466   5.160 -0.3948 -0.7420 -0.1260
23946SOL    HW174280   6.243  10.488   5.222 -0.3634 -1.3081  0.0444
23946SOL    HW274281   6.199  10.381   5.125 -1.1278 -1.0577  0.1059
23947SOL     OW74282   3.460   5.260  10.454 -0.1203 -0.0850 -0.0258
23947SOL    HW174283   3.470   5.271  10.548 -2.2856 -0.3373  0.2946
23947SOL    HW274284   3.499   5.338  10.416 -0.5949  0.7713  1.1870
23948SOL     OW74285   8.441   8.951  10.182  0.0774  0.4337 -0.0568
23948SOL    HW174286   8.481   8.929  10.098 -1.4258 -0.8014 -0.4846
23948SOL    HW274287   8.351   8.976  10.160 -0.6686 -0.9386  1.2479
23949SOL     OW74288   8.513  10.111   1.836 -0.3700  0.0053 -0.6262
23949SOL    HW174289   8.431  10.144   1.798 -0.8926 -0.4805  0.0728
23949SOL    HW274290   8.517  10.020   1.807 -0.3980 -0.1520 -0.1365
23950SOL     OW74291   3.233   0.596   0.356 -0.3874  0.0041 -0.4012
23950SOL    HW174292   3.203   0.575   0.268  1.0775  0.3622 -1.0155
23950SOL    HW274293   3.188   0.677   0.378 -0.5376  0.0741 -0.9504
23951SOL     OW74294   2.076   1.815   4.766  0.4352 -0.2558 -0.8323
23951SOL    HW174295   2.142   1.798   4.699  1.0268 -1.0501 -0.0794
23951SOL    HW274296   2.121   1.872   4.829 -0.1262  0.5179 -1.1107
23952SOL     OW74297   0.622   7.184   7.846 -0.3897 -0.1483  0.1247
23952SOL    HW174298   0.682   7.258   7.842  0.1207 -0.5446  0.4133
23952SOL    HW274299   0.572   7.189   7.764 -0.4562  0.5916  0.2075
23953SOL     OW74300  10.413   4.541   2.199  0.2207 -0.0044  0.0094
23953SOL    HW174301  10.440   4.555   2.109 -0.0736 -2.4933 -0.5188
23953SOL    HW274302  10.354   4.466   2.196  0.4325 -0.3527  2.2980
23954SOL     OW74303   2.177   7.276   4.230  0.5393  0.2796  0.1705
23954SOL    HW174304   2.258   7.325   4.220 -0.1674  1.2506 -1.1620
23954SOL    HW274305   2.202   7.184   4.218  1.7643  0.3336  1.9649
23955SOL     OW74306   3.040   5.432   7.221  0.7116 -0.1212 -0.6502
23955SOL    HW174307   3.063   5.340   7.238  0.7549  0.1735  1.0751
23955SOL    HW274308   3.059   5.477   7.304  0.7713  1.4713 -1.4955
23956SOL     OW74309   5.106   9.402   9.101  0.4132  0.2705  0.0493
23956SOL    HW174310   5.083   9.493   9.082 -0.0188  0.2740  0.5524
23956SOL    HW274311   5.030   9.367   9.148  0.8132 -0.1771  0.3788
23957SOL     OW74312   0.771   6.871   3.828 -0.1044  0.2641 -0.0333
23957SOL    HW174313   0.807   6.850   3.742 -1.1628  0.8685 -0.6477
23957SOL    HW274314   0.692   6.817   3.834 -1.6185  2.3003 -0.6829
23958SOL     OW74315   5.500   5.511   8.682 -0.1874  0.1113  0.2147
23958SOL    HW174316   5.428   5.503   8.619  0.8503 -2.4608 -0.7607
23958SOL    HW274317   5.498   5.603   8.708 -2.9977  0.4179 -0.7343
23959SOL     OW74318   4.950   3.762   1.421  0.2499  0.4329 -0.0491
23959SOL    HW174319   4.889   3.700   1.462  0.4130  1.9028  2.6672
23959SOL    HW274320   4.895   3.814   1.362 -0.4925 -0.2849 -0.0098
23960SOL     OW74321   9.115   8.902   5.833 -0.1688 -0.5920 -0.1639
23960SOL    HW174322   9.146   8.919   5.922 -2.9419 -1.5704  1.1127
23960SOL    HW274323   9.167   8.827   5.804  0.5256 -0.4962  0.7796
23961SOL     OW74324   4.400   3.253   9.517  0.0440 -0.4385  0.1728
23961SOL    HW174325   4.307   3.251   9.492 -0.0785  0.3348  0.5363
23961SOL    HW274326   4.410   3.335   9.565  0.2267 -1.8805  2.7895
23962SOL     OW74327   2.012   4.500   4.745 -0.0329  0.3507 -0.7170
23962SOL    HW174328   2.073   4.487   4.819  0.6832  1.3419 -1.1150
23962SOL    HW274329   1.974   4.413   4.731 -0.7685  0.2909  1.3110
23963SOL     OW74330   8.562   5.527   3.324 -0.9009  0.3012 -0.1986
23963SOL    HW174331   8.603   5.486   3.400 -0.0219  0.7403 -0.4153
23963SOL    HW274332   8.517   5.603   3.359 -1.6837 -0.2714  0.0648
23964SOL     OW74333   8.809   8.319   9.963  0.0215 -0.3045  0.0716
23964SOL    HW174334   8.898   8.305   9.931 -0.1086 -0.8454 -0.0624
23964SOL    HW274335   8.820   8.351  10.052  0.3366 -1.8110  0.6056
23965SOL     OW74336  10.275   5.949   5.789 -0.2641  0.7550  0.2718
23965SOL    HW174337  10.225   5.886   5.841  0.1015  0.8522  0.7504
23965SOL    HW274338  10.239   6.034   5.815  0.9436  0.9178  1.5291
23966SOL     OW74339   8.529   3.790   6.729  0.2100  0.5050 -0.3914
23966SOL    HW174340   8.602   3.777   6.790  0.6514  1.2805 -0.7383
23966SOL    HW274341   8.552   3.870   6.682 -0.0123 -0.2058 -1.7464
23967SOL     OW74342  10.255   1.785   4.793 -0.2056 -0.6521 -0.3239
23967SOL    HW174343  10.300   1.782   4.877 -1.3503 -0.5150  0.3153
23967SOL    HW274344  10.178   1.729   4.804 -1.4794  0.9559 -0.5883
23968SOL     OW74345   9.520   4.817   3.906 -0.3215 -0.4252 -0.1650
23968SOL    HW174346   9.574   4.745   3.873 -0.4045 -0.4847 -0.1719
23968SOL    HW274347   9.432   4.797   3.874 -0.2912 -0.1692 -0.4114
23969SOL     OW74348   7.359   6.632   6.366 -0.2964  0.1047  0.2470
23969SOL    HW174349   7.391   6.710   6.320  0.5243 -1.8483 -2.7879
23969SOL    HW274350   7.283   6.663   6.415  0.0469  2.8214 -0.7392
23970SOL     OW74351   2.365   5.216   8.813 -0.8503 -0.1034  0.4165
23970SOL    HW174352   2.371   5.248   8.903 -0.8692 -0.9368  0.7278
23970SOL    HW274353   2.283   5.252   8.780 -0.2442  1.2116  0.3119
23971SOL     OW74354   5.805   7.045   6.993 -0.4674 -0.4048 -0.0788
23971SOL    HW174355   5.879   7.106   7.007  1.7505 -2.8193 -0.5060
23971SOL    HW274356   5.792   7.045   6.898 -1.8184  0.7792  0.0621
23972SOL     OW74357   6.654   7.820   8.982 -0.4848  0.1272  0.1322
23972SOL    HW174358   6.605   7.796   8.903  1.2432  0.6871 -1.1702
23972SOL    HW274359   6.746   7.820   8.954  0.3087 -0.8420  2.4601
23973SOL     OW74360   5.986   7.875   6.709  0.1576  0.0297  0.2447
23973SOL    HW174361   5.983   7.780   6.718 -0.7158 -0.0277 -0.4927
23973SOL    HW274362   6.078   7.898   6.719  0.3587 -0.8798  0.5384
23974SOL     OW74363   7.015   2.320   3.991 -0.4468  0.3089 -0.3619
23974SOL    HW174364   6.993   2.314   3.898 -2.3234 -0.7391  0.0970
23974SOL    HW274365   6.948   2.267   4.035 -0.9638  2.5302  1.7634
23975SOL     OW74366   6.810   3.646   4.744  0.4850  0.4342  0.2113
23975SOL    HW174367   6.756   3.628   4.821 -0.3028  1.4319 -0.0893
23975SOL    HW274368   6.825   3.560   4.705 -1.7246  0.1935 -0.2339
23976SOL     OW74369   3.467   1.557  10.061  0.5394  0.2094  0.0702
23976SOL    HW174370   3.443   1.480  10.112 -0.4154  0.6539  0.3107
23976SOL    HW274371   3.386   1.609  10.055  0.8930  0.6762 -0.9938
23977SOL     OW74372   6.533   7.889   3.278 -0.2261  0.6148  0.0966
23977SOL    HW174373   6.513   7.846   3.362 -1.2827 -1.3980 -1.1085
23977SOL    HW274374   6.448   7.918   3.245  0.2620  1.9845 -0.0096
23978SOL     OW74375   3.816   2.049   2.844  0.2024 -0.1079 -0.6222
23978SOL    HW174376   3.866   1.997   2.907 -0.3570  0.3039  0.1842
23978SOL    HW274377   3.832   2.140   2.869  1.0185  0.1253 -1.9058
23979SOL     OW74378   5.083   9.474   0.874 -0.2637  0.4215 -0.1562
23979SOL    HW174379   5.104   9.478   0.967 -1.5167  1.3017  0.1074
23979SOL    HW274380   5.085   9.565   0.845 -0.6029  0.2223 -0.8241
23980SOL     OW74381   5.369   1.840   3.044 -0.5224 -0.2287 -0.0714
23980SOL    HW174382   5.320   1.819   3.124  2.7468 -3.1589  1.3934
23980SOL    HW274383   5.367   1.759   2.993  2.8904 -0.6338  0.2330
23981SOL     OW74384   4.543   8.750   3.611 -0.0819  0.3553  0.1772
23981SOL    HW174385   4.475   8.689   3.638  0.7487 -0.7347 -0.1278
23981SOL    HW274386   4.496   8.830   3.587 -1.3087 -0.5649 -0.5735
23982SOL     OW74387   0.515   3.242   4.646 -0.2368  0.2426  0.6638
23982SOL    HW174388   0.495   3.270   4.735 -0.6376 -1.2030  1.0583
23982SOL    HW274389   0.438   3.269   4.595  0.8868  3.0023  0.2515
23983SOL     OW74390   0.714   2.324  10.194 -0.2741  0.0071 -0.4096
23983SOL    HW174391   0.800   2.283  10.182 -0.8761 -0.8676 -2.0745
23983SOL    HW274392   0.703   2.329  10.289  0.8245 -1.5656 -0.1611
23984SOL     OW74393   3.265   3.483   3.300 -0.4097  0.1095  0.0166
23984SOL    HW174394   3.276   3.450   3.211  0.5238  0.4699 -0.0121
23984SOL    HW274395   3.348   3.462   3.344 -0.7428  0.2133  0.7098
23985SOL     OW74396   2.051   4.940   3.655  0.2401  0.1176  0.2390
23985SOL    HW174397   2.053   4.968   3.747 -3.1026 -0.0339  0.4983
23985SOL    HW274398   2.094   4.855   3.655  1.2131  0.5764  1.4507
23986SOL     OW74399   9.554   2.205   9.163  0.2500 -0.5284  1.0133
23986SOL    HW174400   9.549   2.153   9.082  1.2927 -1.4919  1.5458
23986SOL    HW274401   9.479   2.264   9.157  0.6369 -0.1483 -0.9492
23987SOL     OW74402   8.281   8.106   9.009  0.4619  0.5694 -0.2544
23987SOL    HW174403   8.344   8.177   8.993  0.2740  0.7550 -0.1830
23987SOL    HW274404   8.322   8.029   8.972 -0.5512  1.2108 -2.9171
23988SOL     OW74405   9.316   2.943   7.206  0.2642 -0.1391  0.1453
23988SOL    HW174406   9.311   2.908   7.117 -1.7276 -2.7656  1.1872
23988SOL    HW274407   9.410   2.943   7.226  0.6099 -1.1651 -1.3299
23989SOL     OW74408   8.024   5.794   7.256  0.0372 -0.4616  0.3363
23989SOL    HW174409   8.088   5.727   7.235 -0.7438 -1.1181  0.0078
23989SOL    HW274410   8.024   5.799   7.352  0.7228 -0.3012  0.3314
23990SOL     OW74411   8.638   5.125   4.855  0.8115 -0.5093  0.0080
23990SOL    HW174412   8.705   5.143   4.790 -0.3783 -2.5629 -1.9505
23990SOL    HW274413   8.581   5.059   4.813 -3.5281  2.3629  0.7175
23991SOL     OW74414   4.081   9.576   7.062  0.3063  0.0584 -0.2002
23991SOL    HW174415   4.008   9.559   7.002 -0.9142  0.3977  1.1316
23991SOL    HW274416   4.074   9.507   7.128  1.1069  0.1818  0.0180
23992SOL     OW74417  10.018   6.330   2.536  0.4948 -0.1091 -0.5227
23992SOL    HW174418  10.113   6.340   2.536  0.5019 -0.0375  0.6453
23992SOL    HW274419   9.989   6.380   2.612 -0.5281  0.2572 -1.1358
23993SOL     OW74420   8.087   2.068   3.788  0.5978 -0.3244 -0.4929
23993SOL    HW174421   8.074   1.976   3.765  2.1177 -1.4666  2.6590
23993SOL    HW274422   8.118   2.066   3.878  0.3600  3.3462 -0.1825
23994SOL     OW74423   2.916   0.375   7.343 -0.0656 -0.5690 -0.3908
23994SOL    HW174424   2.973   0.398   7.270 -0.3194  0.7888 -0.1906
23994SOL    HW274425   2.844   0.439   7.338  1.7552  2.1515  3.1844
23995SOL     OW74426   2.122   6.198   5.348 -0.2699 -0.3049 -0.6719
23995SOL    HW174427   2.045   6.142   5.338 -0.6797  0.6414 -3.9873
23995SOL    HW274428   2.192   6.152   5.303 -0.2791  1.1356 -2.2656
23996SOL     OW74429   9.008   7.878   7.368 -0.0373  1.3050  0.7417
23996SOL    HW174430   9.013   7.868   7.463  0.5264  1.1149  0.6907
23996SOL    HW274431   9.047   7.964   7.351 -1.6476  2.1093  0.8307
23997SOL     OW74432   2.087   8.464   4.388 -0.0648  0.2196  0.2860
23997SOL    HW174433   2.068   8.416   4.468 -0.6320  0.9823  0.6127
23997SOL    HW274434   2.027   8.538   4.389  1.1706  1.2612  0.0678
23998SOL     OW74435   4.807   3.570  10.439  0.4961 -0.3849  0.0245
23998SOL    HW174436   4.864   3.569  10.516  0.4699  1.1145  0.0909
23998SOL    HW274437   4.759   3.488  10.444  1.6403 -1.0361  0.7316
23999SOL     OW74438   3.847   9.793   9.738  0.2029  0.2008  0.4508
23999SOL    HW174439   3.769   9.808   9.685  0.5706 -1.2130 -0.5227
23999SOL    HW274440   3.906   9.865   9.714 -0.6990  1.1826  1.0728
24000SOL     OW74441   7.573   3.705   1.273  0.4162  0.4617  0.1561
24000SOL    HW174442   7.515   3.759   1.220  1.6047  0.6307 -1.0226
24000SOL    HW274443   7.530   3.619   1.276  1.1205 -0.0846 -2.6205
24001SOL     OW74444   5.698   3.709   9.913 -0.0389  0.3420  0.2562
24001SOL    HW174445   5.760   3.745   9.851  0.3279  2.2890  1.6782
24001SOL    HW274446   5.613   3.719   9.870  0.2943  0.8233 -0.3049
24002SOL     OW74447   4.907   0.227   5.976  0.2684 -0.0819  0.1834
24002SOL    HW174448   4.835   0.283   5.948  2.0483  2.9843  1.2606
24002SOL    HW274449   4.886   0.203   6.066 -0.2778 -0.8380 -0.1317
24003SOL     OW74450   5.087   7.603   3.585 -0.0117  0.0118 -0.1885
24003SOL    HW174451   5.134   7.525   3.556  1.1514 -0.1777  1.9471
24003SOL    HW274452   5.024   7.571   3.649 -0.9217  0.6237 -0.7562
24004SOL     OW74453   3.851   7.556   3.958 -0.1483  0.3678 -0.1221
24004SOL    HW174454   3.797   7.635   3.957 -0.4838  0.2685  2.9458
24004SOL    HW274455   3.838   7.518   4.045  1.1394 -2.3100 -0.9772
24005SOL     OW74456   1.534   4.941   4.374  0.1538 -0.5542 -0.3763
24005SOL    HW174457   1.465   4.884   4.341 -1.4787  1.8185 -1.3416
24005SOL    HW274458   1.533   4.927   4.469 -1.8519 -0.4333 -0.3428
24006SOL     OW74459   4.103   6.853  10.086  1.2054  0.0829  0.6183
24006SOL    HW174460   4.022   6.802  10.096  1.8748 -1.3146 -0.6113
24006SOL    HW274461   4.077   6.943  10.103 -0.2914 -0.5176  1.7098
24007SOL     OW74462   0.335   5.296   0.519  0.1706 -1.0257  0.5842
24007SOL    HW174463   0.358   5.294   0.426  2.0861 -0.7478  1.0235
24007SOL    HW274464   0.251   5.342   0.522 -0.2787 -1.6901 -1.0649
24008SOL     OW74465   9.744   7.572   0.846  0.0322  0.3632  0.0308
24008SOL    HW174466   9.825   7.610   0.881 -0.5427  0.2532  1.5679
24008SOL    HW274467   9.715   7.634   0.779  1.8239 -0.0320 -1.1808
24009SOL     OW74468   7.433   8.793   2.878 -0.5662 -0.7176 -0.0259
24009SOL    HW174469   7.424   8.769   2.970  0.6914 -0.0100  0.3174
24009SOL    HW274470   7.500   8.862   2.878 -0.8303 -0.4226 -1.4298
24010SOL     OW74471   9.117   7.459   6.806 -0.5884  0.0800 -0.3476
24010SOL    HW174472   9.148   7.373   6.779 -0.1201  0.1815 -0.1398
24010SOL    HW274473   9.157   7.473   6.892 -0.9453  0.3543 -0.2216
24011SOL     OW74474   2.535   4.691   3.036 -0.3486 -0.4043  0.2525
24011SOL    HW174475   2.515   4.629   2.966  0.3531 -3.1933  2.3279
24011SOL    HW274476   2.474   4.667   3.106 -1.0202  2.2748  0.6868
24012SOL     OW74477   8.878   7.852   9.632 -0.1382 -0.5041 -0.0947
24012SOL    HW174478   8.822   7.809   9.697 -1.2429 -0.0045 -0.6764
24012SOL    HW274479   8.947   7.789   9.614  0.7757 -0.2550  2.2905
24013SOL     OW74480   9.150   3.749   5.666  0.0930  0.3833  0.2679
24013SOL    HW174481   9.214   3.787   5.725  0.0563  1.8953 -0.6383
24013SOL    HW274482   9.163   3.794   5.583 -0.2987 -1.2398 -0.7181
24014SOL     OW74483  10.353   5.044   8.907  0.7595  0.4502  0.0408
24014SOL    HW174484  10.266   5.058   8.870 -0.5558 -0.0127  2.6932
24014SOL    HW274485  10.385   4.965   8.864  0.5522  1.4321 -2.0276
24015SOL     OW74486  10.023   6.828   1.877  0.4262  0.4432 -0.5110
24015SOL    HW174487  10.110   6.868   1.870  0.8769 -0.5378 -0.6942
24015SOL    HW274488  10.014   6.777   1.797 -0.3996  0.6770 -0.5695
24016SOL     OW74489   5.319   4.708   3.055 -0.8811 -0.5800  0.3014
24016SOL    HW174490   5.391   4.730   3.114 -0.3828  0.4989 -0.6603
24016SOL    HW274491   5.362   4.692   2.971 -1.9029  2.5984 -0.9518
24017SOL     OW74492   6.414   1.322   6.040  0.5703 -0.3133 -0.6755
24017SOL    HW174493   6.397   1.228   6.027  0.0666 -0.4536  0.7522
24017SOL    HW274494   6.409   1.333   6.135 -0.1832  1.3206 -0.8807
24018SOL     OW74495   8.965   0.558   0.099  0.3350 -1.0066  0.1878
24018SOL    HW174496   9.028   0.487   0.087 -0.1716 -1.4521  0.1548
24018SOL    HW274497   8.905   0.550   0.025 -0.5309 -1.3954  0.9123
24019SOL     OW74498   6.862   2.013   1.990  0.0841 -0.4978 -0.3154
24019SOL    HW174499   6.837   2.018   2.082 -0.6632 -1.4226 -0.4500
24019SOL    HW274500   6.827   2.093   1.952 -1.6555 -1.1814 -0.2391
24020SOL     OW74501   7.676   6.561   7.548 -0.6725 -0.1495  0.9009
24020SOL    HW174502   7.652   6.627   7.613 -0.3178 -0.4042  1.2913
24020SOL    HW274503   7.772   6.564   7.545 -0.7161  1.3325 -1.1287
24021SOL     OW74504   9.482   8.836   8.950  0.4027 -0.0043  0.2000
24021SOL    HW174505   9.567   8.843   8.906  0.2758  0.8247  0.0683
24021SOL    HW274506   9.449   8.749   8.926  0.7284  0.0946 -0.6195
24022SOL     OW74507   5.655   3.073   3.005  0.0105 -0.2484 -0.4763
24022SOL    HW174508   5.702   2.993   2.982 -0.7215 -2.2779  4.0958
24022SOL    HW274509   5.721   3.142   3.000  2.2383 -2.1510  0.7997
24023SOL     OW74510   7.284   9.751   8.754 -0.5232 -0.0807  0.4818
24023SOL    HW174511   7.224   9.687   8.713 -1.2655 -0.0794  1.5255
24023SOL    HW274512   7.344   9.775   8.684 -1.3079 -0.6291 -0.4110
24024SOL     OW74513   9.772   0.087   6.753 -0.5585  0.4045  0.1069
24024SOL    HW174514   9.750  -0.002   6.727  1.2609 -0.9094  2.6756
24024SOL    HW274515   9.862   0.099   6.724 -0.3368  0.8814  0.9491
24025SOL     OW74516   1.468   2.667   3.829 -0.0414  0.0974  0.0824
24025SOL    HW174517   1.556   2.661   3.868  0.6862 -3.3909 -1.7289
24025SOL    HW274518   1.416   2.603   3.878 -0.5254 -0.5714 -1.2747
24026SOL     OW74519   7.358  10.202  10.145 -0.0557  0.1264 -0.5155
24026SOL    HW174520   7.448  10.210  10.112  0.1092 -0.9772 -0.3789
24026SOL    HW274521   7.305  10.194  10.066  0.0286  0.2016 -0.5807
24027SOL     OW74522   3.833   1.104  10.334  0.2758 -0.2775  0.3176
24027SOL    HW174523   3.818   1.193  10.302  0.2395  0.0733  1.2682
24027SOL    HW274524   3.827   1.112  10.429  0.0068 -1.3520  0.4015
24028SOL     OW74525   1.987   1.460   1.443  0.3745 -0.6846  0.2758
24028SOL    HW174526   1.922   1.436   1.378 -1.6450  1.1351  1.5030
24028SOL    HW274527   2.050   1.515   1.395  0.0865 -1.0656 -0.5541
24029SOL     OW74528   7.570   0.729   2.182  0.1137  0.4383  0.3501
24029SOL    HW174529   7.575   0.825   2.188 -1.1074  0.4347  1.9245
24029SOL    HW274530   7.564   0.700   2.273  1.2516 -1.2137 -0.0570
24030SOL     OW74531   8.379   8.734   2.821  0.0679 -0.0361 -0.4900
24030SOL    HW174532   8.392   8.748   2.914  0.6591 -1.4076 -0.3390
24030SOL    HW274533   8.305   8.790   2.798  1.3702  2.1048  0.2834
24031SOL     OW74534   0.948   2.738   3.648 -0.4945 -0.0211  0.1385
24031SOL    HW174535   1.024   2.681   3.632 -0.6703 -0.2095 -0.0327
24031SOL    HW274536   0.876   2.696   3.600 -0.7414  0.0791  0.4185
24032SOL     OW74537   0.170   0.288   0.577 -0.4046  0.2000 -0.1773
24032SOL    HW174538   0.081   0.323   0.565 -0.6439 -0.1455  0.5600
24032SOL    HW274539   0.202   0.332   0.655  0.1823  0.5235 -0.5941
24033SOL     OW74540   0.914   9.525   1.593 -0.1056 -0.0198 -0.7068
24033SOL    HW174541   0.970   9.474   1.651  0.7462  2.2305  0.5706
24033SOL    HW274542   0.941   9.499   1.505  1.5393 -0.4706 -0.1060
24034SOL     OW74543   0.718   8.334   7.814  0.2900 -0.0565  0.9022
24034SOL    HW174544   0.800   8.316   7.860  0.8391  0.1246  0.0100
24034SOL    HW274545   0.729   8.423   7.779 -0.4249  0.1047  1.0702
24035SOL     OW74546   9.542   5.782   7.354 -0.0165  0.2847 -0.0503
24035SOL    HW174547   9.632   5.811   7.339 -0.1071  2.3973  2.6676
24035SOL    HW274548   9.522   5.724   7.280  4.2691 -2.0746  0.3300
24036SOL     OW74549   7.796   8.136   0.194 -0.0460 -0.5274 -0.0830
24036SOL    HW174550   7.742   8.087   0.132  0.2508  1.2245 -1.8503
24036SOL    HW274551   7.886   8.122   0.164  0.0722  0.6455 -0.3393
24037SOL     OW74552   4.325   2.230   9.563 -0.2549 -0.4518 -0.2750
24037SOL    HW174553   4.378   2.153   9.540  1.0938  0.1673  0.5995
24037SOL    HW274554   4.262   2.198   9.627  1.2942 -0.5800  1.2635
24038SOL     OW74555   3.381   5.161   7.383 -0.2631 -0.5572  0.4066
24038SOL    HW174556   3.420   5.205   7.458  0.0288 -1.6954  0.9394
24038SOL    HW274557   3.449   5.162   7.316 -0.7042  0.9209 -0.0468
24039SOL     OW74558   9.813   9.906   9.100 -0.0378 -0.6707  0.2220
24039SOL    HW174559   9.728   9.864   9.083 -1.4399  0.2857  4.0076
24039SOL    HW274560   9.795  10.000   9.099  0.6617 -0.4698  2.1157
24040SOL     OW74561   5.306   4.758   5.940  0.3446 -0.7240  0.1283
24040SOL    HW174562   5.227   4.735   5.989 -0.0489  0.2510 -0.0139
24040SOL    HW274563   5.319   4.685   5.880 -1.0807 -0.4485 -0.5745
24041SOL     OW74564   0.980   1.420   2.777  0.3937 -0.5050 -0.3180
24041SOL    HW174565   0.957   1.396   2.687 -0.2771 -0.3510 -0.1977
24041SOL    HW274566   0.895   1.424   2.822  0.7199 -0.5076  0.3000
24042SOL     OW74567   3.566   6.302   8.412  0.4704  0.4707  0.5995
24042SOL    HW174568   3.565   6.207   8.401 -0.1838  0.6045 -0.6463
24042SOL    HW274569   3.627   6.317   8.485  0.4980 -0.8972  0.8872
24043SOL     OW74570   8.918   9.164   9.540 -0.1921  0.2360 -0.1240
24043SOL    HW174571   8.843   9.221   9.525 -1.6984 -1.0930  1.6999
24043SOL    HW274572   8.913   9.143   9.633  1.6403 -1.0320 -0.2591
24044SOL     OW74573   7.315   6.308   0.684  0.2693  0.6190 -0.4733
24044SOL    HW174574   7.366   6.318   0.764  0.5186 -1.7634 -0.2616
24044SOL    HW274575   7.381   6.307   0.614  0.1736  1.2674 -0.5774
24045SOL     OW74576   5.282   4.497   5.853 -0.1581 -0.2835 -0.2991
24045SOL    HW174577   5.260   4.475   5.763 -0.0257 -1.8375  0.0087
24045SOL    HW274578   5.239   4.428   5.905  1.2053 -0.4308  0.6787
24046SOL     OW74579   2.589   1.285   6.395 -0.1206  0.6890 -0.1635
24046SOL    HW174580   2.574   1.339   6.317 -1.2488 -2.1587 -2.0990
24046SOL    HW274581   2.565   1.341   6.468 -0.4780  3.0309 -1.9596
24047SOL     OW74582   5.587   6.532   6.375  0.3924 -0.5518  0.5049
24047SOL    HW174583   5.605   6.518   6.282 -1.4106  1.4941 -0.2407
24047SOL    HW274584   5.653   6.595   6.403 -1.5390  2.1388 -0.5982
24048SOL     OW74585   9.532   5.071   6.040 -0.1791 -0.1951  0.1199
24048SOL    HW174586   9.594   5.025   6.096  0.0636 -1.5159 -1.1510
24048SOL    HW274587   9.495   5.002   5.984 -1.1637  0.9038 -0.6346
24049SOL     OW74588   5.479   4.756   0.340 -0.9432  0.0267 -0.1432
24049SOL    HW174589   5.391   4.720   0.334 -0.6556 -0.4970 -1.4682
24049SOL    HW274590   5.504   4.776   0.250  0.0566  0.7622  0.2713
24050SOL     OW74591   9.468   7.504   9.968 -0.3434  0.0685 -0.4296
24050SOL    HW174592   9.479   7.542  10.055 -1.4470 -1.3276  0.3564
24050SOL    HW274593   9.389   7.450   9.975 -0.2764 -0.3149 -2.2121
24051SOL     OW74594   1.694   2.572   4.416 -0.4400  0.2709 -0.0832
24051SOL    HW174595   1.661   2.649   4.370  2.2062  0.6481 -1.5759
24051SOL    HW274596   1.777   2.601   4.455  0.4686 -1.6867 -0.4307
24052SOL     OW74597   2.999   3.194   4.551  0.3456 -0.4323  0.1057
24052SOL    HW174598   3.065   3.247   4.505  0.8363 -0.5237  0.6938
24052SOL    HW274599   3.003   3.109   4.508  1.8513 -0.9820  1.2263
24053SOL     OW74600   9.001   1.835   2.327 -0.1714 -0.3572  0.3303
24053SOL    HW174601   9.075   1.878   2.285 -0.3598 -2.0197 -1.9358
24053SOL    HW274602   9.017   1.741   2.312 -0.7417 -1.0346  3.3180
24054SOL     OW74603   5.879  10.316   4.609 -0.2459 -0.1795  0.1315
24054SOL    HW174604   5.955  10.338   4.663 -1.3384  1.0278  1.2480
24054SOL    HW274605   5.886  10.374   4.533 -0.5802  0.6717  0.7387
24055SOL     OW74606   9.071   4.527   6.139 -0.0420  0.0578  0.2275
24055SOL    HW174607   9.120   4.552   6.217 -1.5054  1.3303  0.7905
24055SOL    HW274608   8.980   4.527   6.168 -0.7037  1.4200 -1.6861
24056SOL     OW74609   3.568   5.429   8.674  0.2672 -0.6953 -0.1246
24056SOL    HW174610   3.521   5.453   8.593  0.7312  1.3398  0.1477
24056SOL    HW274611   3.561   5.334   8.678 -4.5125 -0.5708  0.2831
24057SOL     OW74612   9.763   7.088   0.835 -0.1526  0.1961 -0.2839
24057SOL    HW174613   9.782   7.179   0.854  1.6435 -0.0400 -0.8319
24057SOL    HW274614   9.839   7.056   0.787 -1.5907 -1.0608 -1.8553
24058SOL     OW74615   7.361   2.686   8.557 -0.1836 -0.3757  0.0837
24058SOL    HW174616   7.303   2.684   8.481 -1.8705 -1.2120  1.3393
24058SOL    HW274617   7.430   2.624   8.536 -0.5357 -0.4793 -0.8212
24059SOL     OW74618   2.975   9.674   3.285  0.3582  0.1965 -0.2296
24059SOL    HW174619   2.980   9.595   3.340 -0.8290  0.3652  0.1456
24059SOL    HW274620   2.931   9.645   3.205  1.9265 -0.0077 -1.0465
24060SOL     OW74621   1.685   4.311   6.485 -0.0065 -0.0566  0.0758
24060SOL    HW174622   1.780   4.308   6.481 -0.0066 -0.0444  0.0630
24060SOL    HW274623   1.665   4.343   6.573 -0.0297 -1.4945  0.6190
24061SOL     OW74624   8.657   6.980   8.601 -0.7107 -0.2726 -0.3315
24061SOL    HW174625   8.660   6.927   8.522  3.4465  0.7518 -1.1122
24061SOL    HW274626   8.667   7.070   8.570  0.8835  0.1649  1.2589
24062SOL     OW74627   3.261  10.227   2.158  0.2406  0.6315  0.1938
24062SOL    HW174628   3.225  10.215   2.070  2.2794 -0.7998 -0.5299
24062SOL    HW274629   3.239  10.146   2.204  1.7295  0.0830 -0.0042
24063SOL     OW74630   4.122   0.620   5.418  0.2701 -0.1056  0.2381
24063SOL    HW174631   4.162   0.588   5.337  0.3567  0.2127  0.1544
24063SOL    HW274632   4.039   0.574   5.424 -0.6926  1.3741 -1.1021
24064SOL     OW74633   1.184   7.571   5.428 -0.5039 -0.1189  0.4839
24064SOL    HW174634   1.272   7.544   5.452  0.3205  0.1422 -1.9661
24064SOL    HW274635   1.152   7.501   5.372 -1.4847  0.2508  0.5686
24065SOL     OW74636   1.676   5.265   8.577  0.6604  0.2058 -0.4052
24065SOL    HW174637   1.612   5.275   8.507  0.0387 -4.1210 -0.7127
24065SOL    HW274638   1.759   5.291   8.538  0.1632 -1.0860 -2.4955
24066SOL     OW74639  10.352   6.055   5.140 -0.3856  0.8715  0.3073
24066SOL    HW174640  10.359   6.016   5.052  0.4567 -0.6766  1.0080
24066SOL    HW274641  10.430   6.110   5.147 -0.8959  1.6824 -0.2065
24067SOL     OW74642   4.031   2.161   2.524  0.2128  0.1493  0.1643
24067SOL    HW174643   4.083   2.241   2.520  1.5992 -0.5734  2.1473
24067SOL    HW274644   4.056   2.120   2.607 -1.6724 -1.5288 -0.0188
24068SOL     OW74645   7.996   2.524   5.327  0.3427 -0.4483  0.0139
24068SOL    HW174646   8.065   2.499   5.389 -0.2290  0.1627  0.9126
24068SOL    HW274647   7.918   2.536   5.381 -0.2749 -0.3006 -0.8835
24069SOL     OW74648   6.281   9.377   8.209  0.0720  0.0753 -0.7903
24069SOL    HW174649   6.368   9.361   8.246  0.3041 -0.2514 -1.4528
24069SOL    HW274650   6.250   9.455   8.255 -0.4235 -1.3024  1.3763
24070SOL     OW74651   8.803   3.022   1.477  0.2309 -0.6168  0.2173
24070SOL    HW174652   8.800   3.118   1.472 -2.4073 -0.5392  1.7348
24070SOL    HW274653   8.807   2.993   1.386  0.2317  0.9097 -0.2927
24071SOL     OW74654   8.026   0.995   9.180 -0.5021 -0.4107 -0.8088
24071SOL    HW174655   8.056   0.914   9.222 -2.6941 -0.4344  0.8739
24071SOL    HW274656   8.038   1.063   9.247 -0.4117  0.3138 -1.5439
24072SOL     OW74657   2.030   5.858   7.617  0.5488  0.4766  0.3098
24072SOL    HW174658   2.041   5.763   7.622 -0.2209  0.3101 -0.8111
24072SOL    HW274659   2.119   5.891   7.605  0.5319 -0.4278 -3.2795
24073SOL     OW74660   4.802   5.392   8.685 -0.5581  0.4124  0.2543
24073SOL    HW174661   4.804   5.356   8.597 -2.0492 -0.7105  0.6262
24073SOL    HW274662   4.749   5.330   8.735 -0.9971  1.7852  1.5795
24074SOL     OW74663   4.249   3.008   0.482  0.0255 -0.4394 -0.8103
24074SOL    HW174664   4.339   2.988   0.509  0.0036  1.0472  0.4838
24074SOL    HW274665   4.259   3.059   0.401  0.3567 -0.1040 -0.5600
24075SOL     OW74666   8.515  10.477   9.281 -0.0108  0.0521 -0.1882
24075SOL    HW174667   8.420  10.488   9.288  0.0112 -0.1700  0.5254
24075SOL    HW274668   8.547  10.494   9.370  0.6753  0.6856 -0.5489
24076SOL     OW74669   8.833   8.156   0.369  0.5441  0.7990 -0.3840
24076SOL    HW174670   8.789   8.075   0.343 -1.3614  1.6120  0.1005
24076SOL    HW274671   8.792   8.180   0.452  1.7815  1.7484 -0.0233
24077SOL     OW74672   2.087   5.390   3.519  0.2221  0.2628  0.3067
24077SOL    HW174673   2.134   5.467   3.551  1.1477  0.0306 -0.4133
24077SOL    HW274674   2.154   5.341   3.471 -0.5244 -0.6347  0.1699
24078SOL     OW74675   1.710   9.270   9.932 -0.2136  0.3487  0.0753
24078SOL    HW174676   1.752   9.205   9.876  0.6691 -0.1750  1.3188
24078SOL    HW274677   1.683   9.221  10.010  0.5481  1.4786  1.0711
24079SOL     OW74678   4.789  10.168   2.026  0.7864  0.2349  0.3328
24079SOL    HW174679   4.837  10.251   2.020  0.3309  0.3985 -2.0413
24079SOL    HW274680   4.832  10.111   1.961  0.6820 -1.1970  1.4645
24080SOL     OW74681   5.270   2.412   0.453 -0.3981 -0.4061  0.5715
24080SOL    HW174682   5.351   2.434   0.407 -0.8860 -1.3333 -0.8332
24080SOL    HW274683   5.220   2.494   0.453 -0.4479 -0.4131 -0.7418
24081SOL     OW74684   6.720   9.501   7.731 -0.7320  0.3407 -0.4208
24081SOL    HW174685   6.632   9.539   7.727 -0.7821  0.2572 -0.1285
24081SOL    HW274686   6.722   9.454   7.815 -0.6120 -0.1616 -0.7047
24082SOL     OW74687   3.996   6.899   3.175 -0.1144 -0.1726  0.7161
24082SOL    HW174688   4.014   6.849   3.095  0.5583  1.3045 -0.1007
24082SOL    HW274689   4.005   6.835   3.245  0.3158 -1.2902 -0.3073
24083SOL     OW74690   9.693   3.644   9.401 -0.3087 -0.2171 -0.4475
24083SOL    HW174691   9.771   3.699   9.391 -1.0128  0.8458 -0.2507
24083SOL    HW274692   9.689   3.624   9.495  0.3049 -1.1719 -0.6085
24084SOL     OW74693   9.347  10.343   5.476 -0.3827  0.5563 -0.8218
24084SOL    HW174694   9.327  10.265   5.527 -0.9899  0.5921 -1.0056
24084SOL    HW274695   9.441  10.358   5.492 -0.5409  0.5267  0.2173
24085SOL     OW74696   6.272   4.110   2.716  0.1511  0.7060 -0.2468
24085SOL    HW174697   6.300   4.019   2.732 -2.1659 -0.1630 -0.7800
24085SOL    HW274698   6.352   4.162   2.728  1.5798 -1.4065 -0.0688
24086SOL     OW74699   8.169   9.494  10.429 -0.2023  0.4444  0.7538
24086SOL    HW174700   8.205   9.582  10.444  0.5743  0.1662  0.5818
24086SOL    HW274701   8.135   9.498  10.340  1.1959  0.1442  0.1794
24087SOL     OW74702   1.391   4.300   4.975 -0.6862  0.3183 -0.8338
24087SOL    HW174703   1.386   4.331   4.884  0.7234  0.6992 -0.8158
24087SOL    HW274704   1.448   4.364   5.018  0.4839 -1.0630 -0.2408
24088SOL     OW74705   1.898   7.129   3.190 -0.1902  0.0008 -0.4154
24088SOL    HW174706   1.830   7.097   3.131 -0.2791  0.5760 -0.6340
24088SOL    HW274707   1.876   7.222   3.203  0.0687 -0.0204  0.1858
24089SOL     OW74708   9.072   0.266   8.165  0.2074  0.3195  0.6572
24089SOL    HW174709   8.976   0.270   8.160  0.1764  0.5726  1.2632
24089SOL    HW274710   9.099   0.229   8.082 -0.3031  2.0881 -0.3552
24090SOL     OW74711   3.659   9.921   2.736  0.4373 -0.2147  0.0041
24090SOL    HW174712   3.688   9.945   2.648  2.6887  0.0126  0.7408
24090SOL    HW274713   3.706   9.840   2.756 -0.4297 -0.5353  0.8229
24091SOL     OW74714   5.851   6.713   9.915  0.5547  0.2176 -0.1527
24091SOL    HW174715   5.904   6.684   9.989  0.4270  0.5959  0.0952
24091SOL    HW274716   5.890   6.797   9.889 -0.4883  0.9807  0.6534
24092SOL     OW74717  10.076   6.528   6.149  0.0266  0.1772  0.5087
24092SOL    HW174718  10.114   6.610   6.117  2.2656 -0.6182  0.9279
24092SOL    HW274719  10.150   6.467   6.151 -1.3897 -1.5990  1.0854
24093SOL     OW74720   6.841   9.004   8.103 -0.0434  0.1766 -0.1509
24093SOL    HW174721   6.762   8.952   8.091 -0.3728  0.6543 -0.0926
24093SOL    HW274722   6.898   8.980   8.030  1.2311 -2.7808  1.6375
24094SOL     OW74723   9.300   4.075   0.509 -0.1212  0.4321  0.2259
24094SOL    HW174724   9.286   4.064   0.603 -2.6226 -1.8967 -0.2811
24094SOL    HW274725   9.237   4.143   0.483  0.5412  1.0474  0.1985
24095SOL     OW74726   6.654   4.130   8.236 -0.5825  0.1993 -0.4492
24095SOL    HW174727   6.717   4.174   8.294 -0.4606  0.9239 -1.1093
24095SOL    HW274728   6.666   4.037   8.253 -1.5254  0.4303  1.6862
24096SOL     OW74729   6.839   8.497   9.582 -0.0713 -0.1113  0.1019
24096SOL    HW174730   6.836   8.430   9.514 -0.0861 -1.0848  1.0364
24096SOL    HW274731   6.747   8.513   9.604 -0.1229  0.9682 -0.8142
24097SOL     OW74732   4.543   1.244   1.386  0.3529 -0.1932  0.3504
24097SOL    HW174733   4.528   1.323   1.333  1.7399 -1.1239 -1.5611
24097SOL    HW274734   4.464   1.191   1.373  0.2592  0.0247  0.0172
24098SOL     OW74735   6.762   3.703   5.634  0.1385  0.3625  0.0962
24098SOL    HW174736   6.667   3.693   5.626  0.2455  0.2104 -1.3116
24098SOL    HW274737   6.798   3.616   5.617  0.7091  1.2330 -4.6862
24099SOL     OW74738  10.259   2.312   4.553  0.9436  0.2182 -0.4722
24099SOL    HW174739  10.207   2.256   4.610 -0.1150  1.0251 -0.6173
24099SOL    HW274740  10.333   2.257   4.527 -0.9247 -1.7722 -2.0343
24100SOL     OW74741  10.399  10.266   7.025  0.1441 -0.2341 -0.2774
24100SOL    HW174742  10.333  10.263   7.095 -2.3607 -2.6527 -2.4968
24100SOL    HW274743  10.353  10.308   6.952  1.6440 -0.5054 -1.4081
24101SOL     OW74744   3.282   4.790   6.270 -0.4895 -0.4636 -0.4187
24101SOL    HW174745   3.274   4.752   6.182 -2.6939  0.9512 -0.9272
24101SOL    HW274746   3.254   4.720   6.329 -1.4180 -0.6564 -1.0638
24102SOL     OW74747   2.303   2.122   7.342  0.5114 -0.0445  0.0479
24102SOL    HW174748   2.283   2.135   7.434 -1.9922 -0.6990 -0.3183
24102SOL    HW274749   2.381   2.174   7.326  2.3562 -1.6731  3.0156
24103SOL     OW74750   7.755   3.773   1.804  0.4035 -0.2295  0.3525
24103SOL    HW174751   7.732   3.846   1.861  0.1456  1.6791 -2.0189
24103SOL    HW274752   7.680   3.764   1.745  1.2397 -1.1661 -0.6146
24104SOL     OW74753  10.023   5.632   9.623 -0.1039  0.2965  0.1858
24104SOL    HW174754  10.017   5.674   9.537 -1.0799 -1.1500 -0.4893
24104SOL    HW274755  10.091   5.565   9.612  0.5407  0.8184  0.8770
24105SOL     OW74756   7.924  10.293   0.165  0.1182 -0.2067 -0.0485
24105SOL    HW174757   7.912  10.198   0.170  0.1473 -0.1561  1.2934
24105SOL    HW274758   7.996  10.312   0.225 -1.6897  0.9408  1.9122
24106SOL     OW74759   0.809   1.992   7.566  0.6731  0.5579  0.7928
24106SOL    HW174760   0.748   1.943   7.623  0.5652  1.7610  1.7489
24106SOL    HW274761   0.866   1.924   7.529  0.4802 -0.3187  2.0160
24107SOL     OW74762   6.977   7.700   7.690  0.2191 -0.2234  0.1746
24107SOL    HW174763   7.040   7.687   7.620  0.5176 -1.1621  0.5995
24107SOL    HW274764   6.892   7.690   7.648  0.3780 -0.0500 -0.1907
24108SOL     OW74765   2.411   5.728   1.447  0.1143  0.2219  0.6879
24108SOL    HW174766   2.430   5.774   1.528  0.3720  1.3609 -0.0027
24108SOL    HW274767   2.490   5.677   1.429  0.7366  1.2941  0.2801
24109SOL     OW74768   4.193   6.984   5.650 -0.8870  0.3185  0.1940
24109SOL    HW174769   4.174   6.980   5.744 -1.1306  0.8186  0.1689
24109SOL    HW274770   4.136   6.917   5.611  0.0517 -0.7139  0.5196
24110SOL     OW74771   4.542   5.321   7.026  0.0209 -0.2180  0.3522
24110SOL    HW174772   4.569   5.268   7.101  0.5526 -1.5961 -0.7645
24110SOL    HW274773   4.599   5.398   7.029 -0.7686  0.3462  2.0116
24111SOL     OW74774   0.796   9.777   4.853  0.1127  0.6900 -0.1972
24111SOL    HW174775   0.781   9.706   4.790 -1.8362  0.4162  0.5293
24111SOL    HW274776   0.749   9.750   4.932  1.5068  1.5993  0.9868
24112SOL     OW74777   8.574   6.493   9.676  0.4044  0.1271  0.0871
24112SOL    HW174778   8.501   6.534   9.631 -0.3916  0.1932  1.3919
24112SOL    HW274779   8.652   6.526   9.631 -0.3148  1.1052 -0.4754
24113SOL     OW74780   6.788   9.232   0.137  0.3781 -0.1117 -0.1626
24113SOL    HW174781   6.695   9.211   0.129  0.2731  0.8313 -1.8856
24113SOL    HW274782   6.832   9.147   0.130 -0.3507 -0.6642  1.4847
24114SOL     OW74783   8.762   3.528  10.486 -0.3158 -0.5559 -0.2243
24114SOL    HW174784   8.771   3.432  10.490  1.3843 -0.3744  1.9716
24114SOL    HW274785   8.852   3.560  10.489 -0.9183  1.1462  0.4228
24115SOL     OW74786   1.929   3.519   1.936  0.3923 -0.1917  0.3104
24115SOL    HW174787   1.907   3.439   1.984  0.8024  0.1492  1.0771
24115SOL    HW274788   1.860   3.581   1.959 -0.7113 -0.7300 -1.3727
24116SOL     OW74789   6.962   3.835   2.163  0.0961 -0.0087  0.3540
24116SOL    HW174790   7.017   3.775   2.213  1.2505  1.6095  1.1193
24116SOL    HW274791   6.910   3.881   2.229 -1.9671 -1.2073 -0.3227
24117SOL     OW74792   3.048   0.120   0.217 -0.0199 -0.2240 -0.5093
24117SOL    HW174793   2.992   0.081   0.283  1.1369 -0.7708  0.1839
24117SOL    HW274794   3.137   0.108   0.250  0.5863 -0.2873 -2.0471
24118SOL     OW74795   9.050   7.869   4.209  0.0973 -0.2072 -0.5369
24118SOL    HW174796   9.039   7.835   4.121  0.5642  0.6783 -0.9557
24118SOL    HW274797   8.996   7.813   4.264 -0.6843 -0.3873 -1.4709
24119SOL     OW74798   9.330   1.243   3.272  0.5187 -0.5523 -0.1391
24119SOL    HW174799   9.368   1.287   3.196 -1.6978  1.2551 -0.3084
24119SOL    HW274800   9.358   1.296   3.347 -1.1098  0.4949 -0.2190
24120SOL     OW74801   8.093   3.128   8.506  0.6477 -0.1542 -0.4332
24120SOL    HW174802   8.021   3.064   8.502 -0.2982  0.8323  0.1530
24120SOL    HW274803   8.164   3.082   8.551 -1.5349  0.4966  4.2471
24121SOL     OW74804   4.174   8.673   6.120 -0.7812  0.2798 -0.3539
24121SOL    HW174805   4.154   8.762   6.150  0.0060  1.0194 -1.9236
24121SOL    HW274806   4.269   8.673   6.107 -0.5455 -1.2630  1.0118
24122SOL     OW74807   6.829   4.579   0.696 -0.1375  0.1261  0.3272
24122SOL    HW174808   6.774   4.622   0.761  2.2983  1.4009  1.6656
24122SOL    HW274809   6.847   4.647   0.631  1.7591  0.5054  1.1803
24123SOL     OW74810   4.734   5.114   3.569  0.1191 -0.2091  0.1720
24123SOL    HW174811   4.781   5.142   3.490  1.6597  1.5115  1.5861
24123SOL    HW274812   4.683   5.039   3.541 -0.1864  0.9212 -2.6996
24124SOL     OW74813   2.222   6.121   3.326  0.3523  0.1984 -0.0135
24124SOL    HW174814   2.305   6.165   3.341 -0.4907  2.1277 -0.6734
24124SOL    HW274815   2.168   6.142   3.403  0.4079 -0.9433  0.3598
24125SOL     OW74816   1.546   1.042   2.295 -0.1924 -0.4215 -0.0605
24125SOL    HW174817   1.592   0.965   2.329  0.2479  0.1759  0.7275
24125SOL    HW274818   1.504   1.011   2.215 -3.2472 -2.5752  2.1350
24126SOL     OW74819   8.712   6.991   3.304  0.2465 -0.1402 -0.1179
24126SOL    HW174820   8.643   6.970   3.367  0.4950 -1.0725 -0.1482
24126SOL    HW274821   8.711   7.087   3.298 -1.2391 -0.1450 -0.3305
24127SOL     OW74822   7.855   2.531   0.280  0.1978  0.6295 -0.3050
24127SOL    HW174823   7.800   2.482   0.220  0.1759  2.0080 -1.4674
24127SOL    HW274824   7.894   2.465   0.337 -0.9405 -0.5690 -0.8755
24128SOL     OW74825   3.017   4.287   1.544 -0.5644 -0.4391  0.0321
24128SOL    HW174826   2.922   4.279   1.542 -0.5515 -0.5551 -2.0780
24128SOL    HW274827   3.035   4.346   1.617 -2.2593 -0.1974  0.2929
24129SOL     OW74828   3.427   4.207   3.833 -0.0329  0.0930 -0.1255
24129SOL    HW174829   3.393   4.137   3.777  1.5112  0.2512 -1.2914
24129SOL    HW274830   3.351   4.262   3.851 -0.6163 -0.1137 -1.8328
24130SOL     OW74831   8.529   1.935   1.742  0.1847  0.2485 -0.7534
24130SOL    HW174832   8.604   1.982   1.780  0.6746 -0.1934 -1.1538
24130SOL    HW274833   8.457   1.997   1.748 -0.4126 -0.5679  3.0836
24131SOL     OW74834   6.833   4.212   2.076  0.0193  0.4838  0.7505
24131SOL    HW174835   6.831   4.223   2.171  1.8611 -1.1739  1.0426
24131SOL    HW274836   6.764   4.147   2.058 -0.1452  0.5894  0.9971
24132SOL     OW74837   5.178   1.712   1.814  0.0694  0.0072 -0.0767
24132SOL    HW174838   5.134   1.630   1.793  0.0910 -0.2248  0.7304
24132SOL    HW274839   5.260   1.684   1.856  0.2773  0.4388 -0.1951
24133SOL     OW74840   9.927   0.184   0.406 -0.4859  0.4334 -0.1114
24133SOL    HW174841   9.877   0.109   0.439 -1.1818  1.1237  0.4372
24133SOL    HW274842   9.865   0.257   0.407  0.1397  0.9917 -0.7752
24134SOL     OW74843  10.396  10.486   2.235  0.6586  0.1132 -0.5231
24134SOL    HW174844  10.366  10.545   2.304 -1.8017 -2.4346  0.8313
24134SOL    HW274845  10.430  10.410   2.283  2.4184 -0.2196 -2.1715
24135SOL     OW74846   1.764   6.446   3.524 -1.1170  0.3588 -0.6000
24135SOL    HW174847   1.748   6.493   3.606 -0.9476  0.4461 -0.6150
24135SOL    HW274848   1.725   6.502   3.456  1.3860  1.8991 -0.9454
24136SOL     OW74849   9.720   6.370   7.719  0.9538  0.6298 -0.3052
24136SOL    HW174850   9.771   6.390   7.640 -1.0350  0.5993 -1.6578
24136SOL    HW274851   9.639   6.419   7.708 -0.3187 -1.1943  0.6134
24137SOL     OW74852   5.478   3.622   6.777 -0.0790 -0.0315 -0.4275
24137SOL    HW174853   5.388   3.622   6.811  0.6207  1.3641  1.6361
24137SOL    HW274854   5.473   3.676   6.698 -1.2093 -0.6935 -0.8279
24138SOL     OW74855   8.533   1.319  10.282  0.2157  0.0543  0.3455
24138SOL    HW174856   8.548   1.317  10.376 -0.1000 -2.0655  0.3984
24138SOL    HW274857   8.621   1.314  10.244  0.3527  1.0775  0.5137
24139SOL     OW74858   3.060   6.119   1.837  0.0735 -0.0040 -0.3479
24139SOL    HW174859   3.123   6.047   1.835 -2.2714 -2.1929 -1.0139
24139SOL    HW274860   3.041   6.131   1.930 -0.1638 -0.8773 -0.2755
24140SOL     OW74861   2.048   7.315   2.784 -0.0348  0.2941 -0.0322
24140SOL    HW174862   2.029   7.324   2.877 -0.6439 -1.5042  0.0543
24140SOL    HW274863   1.985   7.251   2.752  1.7002 -0.9419 -1.1692
24141SOL     OW74864   1.118   7.208   0.659  0.0439 -0.2166  0.3489
24141SOL    HW174865   1.160   7.122   0.659 -0.4552 -0.5471 -2.4810
24141SOL    HW274866   1.177   7.264   0.608 -0.9297  0.3938 -0.1403
24142SOL     OW74867   2.729   5.606   0.012 -0.2218 -0.3731 -0.0026
24142SOL    HW174868   2.816   5.595   0.050  0.4403 -0.4653 -1.4491
24142SOL    HW274869   2.697   5.517   0.000 -0.2311 -0.3619 -0.0620
24143SOL     OW74870   4.533   2.871   2.609  0.0542  0.4720 -0.1248
24143SOL    HW174871   4.446   2.856   2.572  0.5957  1.9334 -2.2497
24143SOL    HW274872   4.537   2.815   2.686 -3.2347  1.3012  0.8184
24144SOL     OW74873   3.645   8.897   7.574  0.3162 -0.1213  1.2778
24144SOL    HW174874   3.685   8.868   7.492  0.9993 -0.2208  1.6436
24144SOL    HW274875   3.570   8.839   7.586 -1.7035  1.8300 -0.8505
24145SOL     OW74876   4.404   7.938   4.547 -0.1826  0.0843 -0.6380
24145SOL    HW174877   4.319   7.964   4.585  0.7291  0.3542  1.3546
24145SOL    HW274878   4.418   8.001   4.476  0.5455  3.3612  2.1208
24146SOL     OW74879   4.322   6.547   0.427  0.2511 -0.7009  0.5853
24146SOL    HW174880   4.259   6.606   0.468  1.4322  1.2023 -0.1931
24146SOL    HW274881   4.288   6.531   0.339 -1.0237 -2.7979  1.3799
24147SOL     OW74882   2.772   4.117   4.999 -0.5126  0.2951 -0.3149
24147SOL    HW174883   2.688   4.072   4.998 -0.6387  0.4263  1.2306
24147SOL    HW274884   2.759   4.194   4.943 -1.5934  0.5860  0.3018
24148SOL     OW74885  10.253   8.548   3.515 -0.1694  0.2136 -0.3378
24148SOL    HW174886  10.246   8.464   3.561  0.8383 -0.0002 -0.5483
24148SOL    HW274887  10.162   8.571   3.493 -0.4758 -0.7274 -0.1103
24149SOL     OW74888   3.298   2.581   4.037 -0.1609  0.2024 -0.2961
24149SOL    HW174889   3.369   2.528   3.999  0.1934 -0.0644  0.7240
24149SOL    HW274890   3.342   2.654   4.079 -0.5125  0.2099  0.0632
24150SOL     OW74891   4.785   6.860   1.697  0.4256 -0.2727 -0.3694
24150SOL    HW174892   4.803   6.924   1.767 -0.0155 -0.1157 -0.3981
24150SOL    HW274893   4.820   6.902   1.618  0.8154 -0.3974 -0.2662
24151SOL     OW74894   3.118   1.758   3.924 -0.1981  0.0611  0.5337
24151SOL    HW174895   3.168   1.730   3.848  1.1175 -0.6869  1.6203
24151SOL    HW274896   3.031   1.776   3.890 -0.1384 -1.9298 -0.8741
24152SOL     OW74897   3.494   7.922   6.373 -0.0159 -0.2385  0.6116
24152SOL    HW174898   3.565   7.858   6.382 -0.6957 -1.1145 -0.0737
24152SOL    HW274899   3.429   7.878   6.318 -0.0499  1.4345 -0.7694
24153SOL     OW74900   1.242   6.998   6.907  0.2161  0.0267 -0.3774
24153SOL    HW174901   1.150   6.977   6.920 -0.1345  0.7798 -1.4709
24153SOL    HW274902   1.280   6.920   6.866  0.1560 -0.4072  0.3748
24154SOL     OW74903   9.681   2.647   2.772 -0.4781 -0.2212  0.0948
24154SOL    HW174904   9.589   2.648   2.747 -0.4076 -2.6002 -0.5303
24154SOL    HW274905   9.729   2.665   2.692 -0.3851 -1.4999 -0.1619
24155SOL     OW74906   7.515   4.668   0.429  0.1627 -0.1409 -0.6801
24155SOL    HW174907   7.514   4.621   0.345 -0.4213 -0.0086 -0.7528
24155SOL    HW274908   7.460   4.745   0.414  1.7423  1.0230 -0.8123
24156SOL     OW74909   7.541   3.301   6.922  0.1979  0.5803  0.1738
24156SOL    HW174910   7.464   3.322   6.974  0.4690  0.4276  0.6383
24156SOL    HW274911   7.587   3.384   6.912  2.1034  0.0752  3.3379
24157SOL     OW74912   4.211   4.865   7.459  0.3695  0.6232 -0.1327
24157SOL    HW174913   4.139   4.866   7.397  2.0376 -1.5779 -2.2670
24157SOL    HW274914   4.233   4.957   7.471 -2.3163  1.3379  0.1544
24158SOL     OW74915   1.085   2.300   9.908  0.5975  0.6684 -0.1416
24158SOL    HW174916   1.148   2.228   9.908 -0.6623 -0.4775  0.3752
24158SOL    HW274917   1.053   2.305   9.818 -0.3435 -0.3895  0.1130
24159SOL     OW74918   1.998   8.015   6.102 -0.6995  0.5425 -0.0310
24159SOL    HW174919   2.066   8.009   6.035  1.0098 -0.6619  1.7295
24159SOL    HW274920   2.000   8.107   6.130 -1.3345  1.0256 -1.4607
24160SOL     OW74921   3.356   9.161   3.342  0.4875  0.0815 -0.1962
24160SOL    HW174922   3.347   9.065   3.341  0.3565 -0.0795  3.4440
24160SOL    HW274923   3.450   9.176   3.334  0.4486 -0.2528 -1.5945
24161SOL     OW74924   8.787   8.293   8.479 -0.3786  0.0358 -0.2044
24161SOL    HW174925   8.799   8.386   8.461  0.3609  0.1840  0.9862
24161SOL    HW274926   8.712   8.290   8.539  1.4959  0.1805  2.2870
24162SOL     OW74927   7.784   9.125   9.537 -0.4606 -0.2074  0.0730
24162SOL    HW174928   7.696   9.096   9.564 -1.6249  1.1272 -2.0032
24162SOL    HW274929   7.789   9.216   9.566  1.8359 -1.2675  3.5465
24163SOL     OW74930   8.275   2.650   6.517 -0.0518  0.0732 -0.4377
24163SOL    HW174931   8.206   2.715   6.514 -1.4350 -1.2800  0.3289
24163SOL    HW274932   8.354   2.697   6.490 -1.1686  1.7754 -0.9105
24164SOL     OW74933   8.621  10.151   2.087  0.4057  0.2161  0.0259
24164SOL    HW174934   8.579  10.118   2.007  1.1151  0.4392 -0.4449
24164SOL    HW274935   8.632  10.073   2.142  0.8230 -0.1095 -0.5106
24165SOL     OW74936   1.111   9.875   7.595 -0.3481 -0.0140  0.0232
24165SOL    HW174937   1.152   9.894   7.680  1.9431  3.4220 -1.6164
24165SOL    HW274938   1.053   9.949   7.579  1.0624  0.6892 -2.3456
24166SOL     OW74939   0.304   0.955   4.271  0.0334 -0.2519 -0.0472
24166SOL    HW174940   0.240   0.884   4.283  0.5570 -0.5899  0.8137
24166SOL    HW274941   0.389   0.912   4.280  0.4318  0.0530 -1.9095
24167SOL     OW74942   0.573   8.287   8.431 -0.6738  0.1551  0.1631
24167SOL    HW174943   0.585   8.222   8.500 -0.4062 -1.4245 -1.3017
24167SOL    HW274944   0.483   8.317   8.440 -0.0255  1.6520  2.5359
24168SOL     OW74945   1.867   2.910   2.488 -0.1660 -0.0622 -0.3999
24168SOL    HW174946   1.859   2.948   2.400  0.1276  1.1726  0.1002
24168SOL    HW274947   1.902   2.980   2.542 -0.2399 -0.8484  0.6976
24169SOL     OW74948   2.874   1.120   5.936 -0.1004 -0.1704  0.3050
24169SOL    HW174949   2.907   1.178   5.868  1.5455  0.2103  1.3628
24169SOL    HW274950   2.803   1.170   5.977 -0.2305  0.1353 -0.2777
24170SOL     OW74951   2.013   1.978   5.875  0.3831 -0.2859 -0.3889
24170SOL    HW174952   2.020   1.987   5.780 -2.6277 -0.2186 -0.6905
24170SOL    HW274953   2.091   1.929   5.899  1.2316 -0.3351 -2.8862
24171SOL     OW74954   5.995   0.804   0.986  0.2298  0.1475  0.6062
24171SOL    HW174955   6.000   0.802   1.082  0.7348  3.0885  0.7106
24171SOL    HW274956   5.936   0.877   0.967  0.9356  0.2515 -1.3457
24172SOL     OW74957   9.869   9.892   1.111  0.0394 -0.2388 -0.3888
24172SOL    HW174958   9.956   9.912   1.145 -0.3062  1.0972 -0.2142
24172SOL    HW274959   9.873   9.800   1.087  0.5179 -1.0802  2.5970
24173SOL     OW74960   9.938   3.656   6.724 -0.2101  0.3696  1.0141
24173SOL    HW174961   9.968   3.573   6.686  1.2944  0.6807  1.4314
24173SOL    HW274962   9.930   3.715   6.650 -0.3914  0.0974  0.8155
24174SOL     OW74963   7.533   2.959   2.780 -0.3821  0.1594  0.4644
24174SOL    HW174964   7.446   2.980   2.814 -1.3951 -1.2578 -1.1383
24174SOL    HW274965   7.537   3.004   2.695 -0.0289 -0.7444 -0.0075
24175SOL     OW74966   5.048   3.987   4.490 -0.1861 -0.2908 -0.0749
24175SOL    HW174967   5.059   3.942   4.574  0.2784 -1.6516 -0.8398
24175SOL    HW274968   4.954   4.001   4.482 -0.2830 -0.6490  0.4119
24176SOL     OW74969   5.419   4.024   1.264 -0.1375  0.1020 -0.6857
24176SOL    HW174970   5.328   4.012   1.237 -0.2092 -0.9849 -0.0183
24176SOL    HW274971   5.462   3.941   1.241 -0.0503 -0.6324  1.8421
24177SOL     OW74972   0.792   9.772   0.998 -0.1440 -0.5237 -0.3314
24177SOL    HW174973   0.812   9.750   1.089 -1.2940 -1.5514 -0.2970
24177SOL    HW274974   0.724   9.709   0.973 -0.7219  0.5312 -1.5129
24178SOL     OW74975   8.717   5.310   8.575  0.0382  0.3115 -0.1456
24178SOL    HW174976   8.743   5.278   8.488 -0.6970  1.7476 -0.9380
24178SOL    HW274977   8.734   5.404   8.572 -0.7775  0.5209  0.9739
24179SOL     OW74978  10.061   1.756   1.384  0.5046  0.1524 -0.5847
24179SOL    HW174979   9.993   1.787   1.445  1.9637  0.3196  1.0429
24179SOL    HW274980  10.132   1.819   1.395  1.6054 -1.0059 -0.9179
24180SOL     OW74981   2.900   8.770   4.404  0.1919  0.3504  0.1881
24180SOL    HW174982   2.949   8.852   4.398  1.2992 -0.2442  0.8320
24180SOL    HW274983   2.966   8.702   4.390 -0.3461 -0.4914  1.6187
24181SOL     OW74984   3.876   3.045   8.259  0.2889  0.2338 -0.0674
24181SOL    HW174985   3.903   2.965   8.304  0.0863  0.3126  0.1949
24181SOL    HW274986   3.936   3.051   8.184  1.0033  0.4054  0.5077
24182SOL     OW74987   6.089   7.774   7.277  0.2775  0.7322 -0.2862
24182SOL    HW174988   6.130   7.775   7.191 -0.1998  2.1400 -0.5200
24182SOL    HW274989   5.995   7.772   7.259  0.1604  1.4491  0.1810
24183SOL     OW74990   4.607   8.225   2.924 -0.1752  0.1117  0.3667
24183SOL    HW174991   4.689   8.275   2.920 -0.6556  0.9712  0.9772
24183SOL    HW274992   4.631   8.137   2.896  0.7359  0.6313 -0.5302
24184SOL     OW74993   2.161   7.216   2.220 -0.4247  0.1724 -0.1522
24184SOL    HW174994   2.254   7.221   2.200 -0.5329  2.9516 -0.4344
24184SOL    HW274995   2.153   7.259   2.305 -1.5858  1.3245 -0.8088
24185SOL     OW74996   1.604   1.085   9.456  0.0662  0.2558  0.1199
24185SOL    HW174997   1.543   1.020   9.492 -3.1691  2.2834 -1.2467
24185SOL    HW274998   1.583   1.088   9.363  2.1031  1.3271 -0.3662
24186SOL     OW74999   9.219   9.640   5.873 -0.3095  0.8353 -0.4755
24186SOL    HW175000   9.186   9.660   5.785 -0.1789  2.7041 -0.1425
24186SOL    HW275001   9.146   9.662   5.931 -1.1007 -2.1779 -0.1519
24187SOL     OW75002   8.722   4.183   3.884  0.2196  0.2766  0.1551
24187SOL    HW175003   8.639   4.171   3.838  0.3282  1.4351 -0.3935
24187SOL    HW275004   8.700   4.177   3.977 -0.8559  2.4308  0.1000
24188SOL     OW75005   5.781   0.477   8.320  0.3395  0.2447  0.1612
24188SOL    HW175006   5.777   0.552   8.261 -0.1960 -0.5952 -0.9143
24188SOL    HW275007   5.695   0.434   8.310  0.1363  0.2119  1.7469
24189SOL     OW75008   2.976  10.006  10.293 -0.7542 -0.2748 -0.0690
24189SOL    HW175009   3.013   9.939  10.352 -1.6972  0.6944  1.7165
24189SOL    HW275010   3.025  10.086  10.315 -2.5371  0.5843  0.9596
24190SOL     OW75011   5.028   6.938   7.206  0.3380 -0.4001 -0.0960
24190SOL    HW175012   4.940   6.911   7.233 -0.1256 -0.1243 -1.2602
24190SOL    HW275013   5.085   6.909   7.277 -0.5421 -1.6223  0.1437
24191SOL     OW75014   0.747   5.169   7.044 -0.2086 -0.6730 -0.1104
24191SOL    HW175015   0.687   5.239   7.070  0.2234  0.2409 -1.4564
24191SOL    HW275016   0.834   5.210   7.046  0.0367 -1.1192 -1.0300
24192SOL     OW75017   6.901   0.796   3.801  0.2042 -0.1125 -0.3980
24192SOL    HW175018   6.814   0.756   3.795  0.6528 -1.3859  1.0916
24192SOL    HW275019   6.883   0.888   3.819 -0.8394 -0.4504  0.3834
24193SOL     OW75020   2.376   0.892   8.194  0.6507 -0.0623 -0.6704
24193SOL    HW175021   2.299   0.841   8.218  1.1614 -0.4352  0.2551
24193SOL    HW275022   2.354   0.982   8.217 -0.2160  0.1520 -2.2063
24194SOL     OW75023   9.705   0.994  10.097  0.2901 -0.1614 -0.1834
24194SOL    HW175024   9.647   1.059  10.137  0.7520  0.8705 -1.1427
24194SOL    HW275025   9.793   1.020  10.126  0.4730 -0.4012 -0.5196
24195SOL     OW75026   4.405   2.839   2.048  0.8509  0.9740  0.3714
24195SOL    HW175027   4.397   2.825   2.142 -0.1288  0.8081  0.2809
24195SOL    HW275028   4.314   2.842   2.017  1.1582  1.4343 -0.5072
24196SOL     OW75029   7.737   7.912   3.153  0.4262 -0.1777 -0.0990
24196SOL    HW175030   7.736   7.939   3.062  0.6865 -0.3763 -0.1598
24196SOL    HW275031   7.693   7.827   3.154  1.4248 -0.7060 -0.2075
24197SOL     OW75032   9.702   7.476   5.345 -0.4136 -0.2231  0.0315
24197SOL    HW175033   9.713   7.385   5.318  1.8779 -0.3987  1.2806
24197SOL    HW275034   9.773   7.523   5.301 -0.1811  0.5074  1.1367
24198SOL     OW75035   6.900   1.197   0.579  0.4277  0.1008  0.2168
24198SOL    HW175036   6.882   1.108   0.551  0.2443  0.0729  0.4219
24198SOL    HW275037   6.847   1.252   0.522  1.5817  0.1643 -0.8333
24199SOL     OW75038   7.076   0.614  10.221  0.0492  0.9788  0.4679
24199SOL    HW175039   7.080   0.672  10.297 -2.0461  0.4967  0.9988
24199SOL    HW275040   7.113   0.531  10.252  1.3309  1.4389  0.2449
24200SOL     OW75041   0.751   0.172   0.688 -0.1168  0.2408 -0.2776
24200SOL    HW175042   0.803   0.099   0.654  1.2732  0.5984  0.9457
24200SOL    HW275043   0.785   0.249   0.641 -2.1713  0.0549 -2.1994
24201SOL     OW75044   4.420   9.129   7.276  0.2095  0.5474 -0.0497
24201SOL    HW175045   4.335   9.088   7.264  0.2408  0.8723 -1.5250
24201SOL    HW275046   4.468   9.110   7.196  1.9733 -0.6051  1.1940
24202SOL     OW75047   5.614   8.379   9.261  0.2033 -0.3083 -0.3284
24202SOL    HW175048   5.642   8.456   9.212  1.1356 -0.4008  0.0204
24202SOL    HW275049   5.686   8.316   9.249 -0.5633 -1.1410 -0.6506
24203SOL     OW75050   3.298   3.101   3.511  0.4262  0.1159 -0.6688
24203SOL    HW175051   3.292   3.024   3.568  0.3632  0.4645 -0.1882
24203SOL    HW275052   3.380   3.090   3.463  0.8695  0.1825  0.0547
24204SOL     OW75053   2.305   5.450   1.419  0.3816  0.3142  0.3401
24204SOL    HW175054   2.331   5.499   1.342  0.6769 -1.1308 -0.5152
24204SOL    HW275055   2.300   5.515   1.489  0.6360  1.5527 -0.7694
24205SOL     OW75056   3.560   1.572   3.990  0.4904 -0.2870  0.3221
24205SOL    HW175057   3.517   1.646   4.033 -1.5260 -1.2254  0.0427
24205SOL    HW275058   3.614   1.612   3.922  0.7547  0.9990  1.2426
24206SOL     OW75059   4.819  10.029   8.197  0.6166 -0.2786 -0.2007
24206SOL    HW175060   4.907  10.023   8.160  0.9778  0.0261  0.5978
24206SOL    HW275061   4.785  10.113   8.166  0.5760 -0.4206 -0.5533
24207SOL     OW75062   5.044   1.949   1.856  0.2520 -0.0570 -0.1558
24207SOL    HW175063   5.104   1.875   1.845  0.0539 -0.2655  0.1223
24207SOL    HW275064   5.049   1.970   1.950  2.4497  2.1321 -0.6590
24208SOL     OW75065   9.352   9.664   9.927  0.1513  0.1955 -0.7850
24208SOL    HW175066   9.321   9.686  10.015  1.1295  0.3216 -0.4620
24208SOL    HW275067   9.398   9.742   9.897  0.9493 -0.3080 -0.8809
24209SOL     OW75068   1.759   1.391   6.795  0.2355 -0.1660  0.0339
24209SOL    HW175069   1.723   1.477   6.774  0.1191  0.1651  1.4644
24209SOL    HW275070   1.721   1.369   6.879  1.1788 -1.0899  0.2442
24210SOL     OW75071   3.556   2.138   9.723 -0.2740 -0.3633 -0.1988
24210SOL    HW175072   3.541   2.057   9.771 -0.8203 -0.8683 -1.1867
24210SOL    HW275073   3.475   2.188   9.735 -0.7246 -0.8326 -1.2339
24211SOL     OW75074  10.415   4.667   8.488 -0.3206 -0.0351  0.3042
24211SOL    HW175075  10.492   4.723   8.497  0.5433 -1.0407 -0.5430
24211SOL    HW275076  10.406   4.625   8.573  1.8616 -2.0963 -0.3815
24212SOL     OW75077   5.439   8.503   9.479 -0.2234 -0.1918 -0.1912
24212SOL    HW175078   5.483   8.452   9.411 -2.0098 -1.7947 -0.2306
24212SOL    HW275079   5.358   8.532   9.438 -0.1489  1.0111  0.4828
24213SOL     OW75080   5.453   2.233   3.467  0.5079  0.2877 -0.4560
24213SOL    HW175081   5.411   2.156   3.427 -0.9087  0.8290 -0.0928
24213SOL    HW275082   5.498   2.198   3.544 -0.2796 -0.1724 -0.1853
24214SOL     OW75083   2.679   8.788   2.021  0.0902  0.6012 -0.0396
24214SOL    HW175084   2.697   8.718   1.958 -1.7865 -0.8204  0.8680
24214SOL    HW275085   2.664   8.866   1.968  0.8712 -0.0040 -1.1794
24215SOL     OW75086   5.765  10.253   5.169  0.0224 -0.4567 -0.0634
24215SOL    HW175087   5.822  10.283   5.241  0.8081 -0.5451 -0.6424
24215SOL    HW275088   5.821  10.255   5.092 -0.9524  0.1137 -0.7784
24216SOL     OW75089   6.969   6.809   3.181 -0.2287 -0.1791 -0.0845
24216SOL    HW175090   7.049   6.859   3.166  0.2143 -1.2493 -1.4918
24216SOL    HW275091   6.958   6.808   3.276  1.0260  0.5757  0.0854
24217SOL     OW75092   6.604   0.923   7.158 -0.3022  0.1526 -0.0284
24217SOL    HW175093   6.657   1.002   7.172  1.2416 -0.5480 -1.4919
24217SOL    HW275094   6.528   0.954   7.109  0.0511  0.8193 -0.1768
24218SOL     OW75095   4.949   0.312  10.168 -0.3543  0.9849  0.9920
24218SOL    HW175096   5.023   0.286  10.113 -0.6008  0.4101  0.9180
24218SOL    HW275097   4.986   0.372  10.233  0.2574  0.3723  1.2217
24219SOL     OW75098   9.586   6.279   5.213 -0.6379 -0.3601 -0.5792
24219SOL    HW175099   9.675   6.255   5.187 -0.2028 -0.0277  0.5383
24219SOL    HW275100   9.532   6.203   5.188  0.0765 -0.8642 -0.6167
24220SOL     OW75101   9.353   8.802   2.764  0.0700 -0.8329 -0.2445
24220SOL    HW175102   9.373   8.874   2.704 -0.0662 -0.6127 -0.0263
24220SOL    HW275103   9.263   8.778   2.744  0.0572 -0.8246 -0.1972
24221SOL     OW75104  10.415   6.507   3.753  0.1035  0.5466  0.2819
24221SOL    HW175105  10.378   6.595   3.747  3.1078  1.9686  0.5963
24221SOL    HW275106  10.366   6.465   3.824 -1.6071  1.8074 -0.0852
24222SOL     OW75107   2.535   0.992   0.379  0.0370  0.7674  0.4485
24222SOL    HW175108   2.494   0.909   0.402 -0.6981  1.1032  0.3832
24222SOL    HW275109   2.495   1.056   0.438 -1.3128  1.5159 -1.1739
24223SOL     OW75110   7.286   6.743   9.410  0.3927 -0.2768  0.6946
24223SOL    HW175111   7.315   6.723   9.321 -0.0429  1.2408  0.1746
24223SOL    HW275112   7.367   6.740   9.463  0.7426 -0.6284  0.1434
24224SOL     OW75113   6.623   0.943   4.515  0.0439 -1.1159 -0.4676
24224SOL    HW175114   6.622   0.854   4.479 -2.1907 -0.7700 -1.4109
24224SOL    HW275115   6.549   0.945   4.576 -0.7611  0.4387 -1.4359
24225SOL     OW75116   9.674   0.346   9.594  0.2513 -0.1830 -0.2089
24225SOL    HW175117   9.658   0.439   9.606  0.1776 -0.2568  0.2920
24225SOL    HW275118   9.743   0.341   9.527 -0.0110  0.2124 -0.5139
24226SOL     OW75119   2.641   3.707   4.090 -0.3374  0.0046 -0.4113
24226SOL    HW175120   2.592   3.642   4.141 -0.2527  0.8850  0.8139
24226SOL    HW275121   2.722   3.719   4.138 -0.4978  1.2820 -0.4484
24227SOL     OW75122   6.946   9.906   9.889 -0.0426 -0.3233  0.6978
24227SOL    HW175123   6.954   9.883   9.797  1.3956  1.1585  0.3931
24227SOL    HW275124   7.009   9.850   9.934  1.4972  0.9978  0.3143
24228SOL     OW75125   2.754   9.881   8.141  0.3072  0.0304 -0.1152
24228SOL    HW175126   2.819   9.949   8.161  0.4471 -0.3172  0.6572
24228SOL    HW275127   2.716   9.859   8.226 -0.6649  0.0648 -0.5336
24229SOL     OW75128   6.855   1.819   1.536  0.3839  0.1883  0.2969
24229SOL    HW175129   6.846   1.896   1.480  1.0358 -0.1479 -0.2976
24229SOL    HW275130   6.928   1.841   1.594 -0.7812  0.8384  1.5524
24230SOL     OW75131   3.359   4.400   0.437 -0.6645 -0.2182 -0.2854
24230SOL    HW175132   3.424   4.332   0.422 -0.4470 -0.2599  0.7459
24230SOL    HW275133   3.279   4.353   0.459 -0.6960 -0.1542 -0.2602
24231SOL     OW75134   2.594   1.410   8.654 -0.1428  0.3566  0.1973
24231SOL    HW175135   2.498   1.412   8.655 -0.1526  0.1519 -0.0025
24231SOL    HW275136   2.621   1.501   8.664 -0.3674  0.4765 -0.2722
24232SOL     OW75137   9.608   5.123   0.563  0.7585 -0.0555  0.0876
24232SOL    HW175138   9.671   5.173   0.511  1.8439  0.2060  1.6022
24232SOL    HW275139   9.574   5.057   0.502  0.1517  1.7294 -1.6424
24233SOL     OW75140   0.485  10.445   6.722 -0.3150 -0.0942 -0.2394
24233SOL    HW175141   0.434  10.525   6.716  1.9192  1.3303 -3.2496
24233SOL    HW275142   0.571  10.474   6.755 -0.1350 -1.6822  0.7937
24234SOL     OW75143   1.869   1.656   5.388 -0.1011 -0.0236  0.2547
24234SOL    HW175144   1.777   1.684   5.387  0.6061  2.5488 -0.0707
24234SOL    HW275145   1.877   1.597   5.313 -1.5987 -0.7803  0.6461
24235SOL     OW75146   3.431   2.134   2.546 -0.5077  0.2165 -0.1686
24235SOL    HW175147   3.445   2.146   2.452 -1.0045 -0.3769 -0.3293
24235SOL    HW275148   3.518   2.147   2.585 -0.5826  2.0107 -0.5212
24236SOL     OW75149   1.550   8.652   4.472  0.6793  0.6196 -0.4867
24236SOL    HW175150   1.547   8.723   4.408  0.1888  0.6746 -0.4061
24236SOL    HW275151   1.508   8.689   4.550  1.8454  0.7726  0.0895
24237SOL     OW75152   6.649   9.108   4.510  0.6447 -0.0046  0.2519
24237SOL    HW175153   6.622   9.026   4.469  0.7408 -0.1136  0.4069
24237SOL    HW275154   6.579   9.129   4.571  1.1061 -0.5090  0.9642
24238SOL     OW75155   4.127   8.838   3.129 -0.2677  0.3502 -0.3043
24238SOL    HW175156   4.145   8.777   3.058  2.7115  0.3541  0.3195
24238SOL    HW275157   4.048   8.885   3.102 -1.9142 -2.7854 -1.4211
24239SOL     OW75158  10.065   2.838   8.122  0.1691 -0.8345 -0.2782
24239SOL    HW175159  10.010   2.792   8.186  0.7928 -2.0258 -0.5747
24239SOL    HW275160  10.097   2.914   8.169 -2.2691  0.3124 -0.3007
24240SOL     OW75161   6.109   8.882   8.684 -0.0646  0.3693 -0.2048
24240SOL    HW175162   6.036   8.822   8.671 -0.4122  1.0117 -1.3693
24240SOL    HW275163   6.149   8.854   8.767  0.1054 -1.7708 -0.9551
24241SOL     OW75164   5.265   0.227   4.140  0.2899  0.2052 -0.0578
24241SOL    HW175165   5.263   0.171   4.218 -0.2268  0.2570 -0.0304
24241SOL    HW275166   5.173   0.241   4.119  0.4017  1.3795  0.1744
24242SOL     OW75167   7.476   1.374   0.723  0.5140  0.0356 -0.0068
24242SOL    HW175168   7.427   1.319   0.784  1.6619 -0.3421  0.6018
24242SOL    HW275169   7.533   1.314   0.675 -0.0164  0.3967 -1.1055
24243SOL     OW75170   3.235   6.398   6.024  0.2673  0.2868  0.0284
24243SOL    HW175171   3.230   6.393   6.120  2.5660 -1.1233  0.1657
24243SOL    HW275172   3.237   6.491   6.004 -0.4775  0.6012  1.3242
24244SOL     OW75173   8.880   8.425   1.129 -0.3440  0.0262 -0.2592
24244SOL    HW175174   8.974   8.419   1.116  0.2196  0.3718  2.8251
24244SOL    HW275175   8.848   8.335   1.122  0.0896 -0.0251 -1.8191
24245SOL     OW75176   6.086   6.576   8.653  0.1616  0.1816  0.7834
24245SOL    HW175177   6.079   6.582   8.748  0.7622 -0.7686  0.8978
24245SOL    HW275178   6.040   6.495   8.630 -0.1808  0.5195  0.2273
24246SOL     OW75179   4.389   2.300   6.353 -0.6212  0.6238  0.3602
24246SOL    HW175180   4.420   2.362   6.418 -0.9959  1.8617 -0.5934
24246SOL    HW275181   4.336   2.353   6.293 -0.9104 -0.6100 -0.5148
24247SOL     OW75182  10.132   2.106   7.394 -0.5779  0.5617  0.0724
24247SOL    HW175183  10.092   2.040   7.337 -1.3724  1.6862 -0.7193
24247SOL    HW275184  10.207   2.138   7.344 -1.0684  1.3033 -0.1938
24248SOL     OW75185   8.385   4.719   4.102  0.5454 -0.7352  0.7230
24248SOL    HW175186   8.319   4.652   4.118  0.9143 -1.3781 -0.3714
24248SOL    HW275187   8.356   4.762   4.021  0.6119  0.0630  1.1086
24249SOL     OW75188   0.588   8.074   4.513  0.4819  0.5912  0.1735
24249SOL    HW175189   0.588   8.106   4.423 -0.0776 -1.3606 -0.5515
24249SOL    HW275190   0.669   8.023   4.521  0.4266  0.5781  0.7172
24250SOL     OW75191   3.391   3.208   0.711  0.0304 -0.0007 -0.1458
24250SOL    HW175192   3.305   3.192   0.671 -0.8010 -0.0936  1.5721
24250SOL    HW275193   3.400   3.138   0.775  1.6026 -0.2254 -0.5841
24251SOL     OW75194   0.560   1.729   9.386  0.2063 -0.3390  0.1712
24251SOL    HW175195   0.644   1.728   9.433  0.2166  0.6776  0.1972
24251SOL    HW275196   0.496   1.755   9.452  0.5179  3.2212 -0.7452
24252SOL     OW75197   0.312   8.418   3.183  0.4950  0.3891  0.2210
24252SOL    HW175198   0.328   8.395   3.275  2.0643 -3.0082 -0.7396
24252SOL    HW275199   0.397   8.447   3.150  1.3938 -3.3445 -1.2536
24253SOL     OW75200   0.607   0.881   2.481 -0.0543  0.0787  0.4271
24253SOL    HW175201   0.696   0.908   2.456  0.3483 -0.3254  1.3706
24253SOL    HW275202   0.617   0.791   2.512 -0.7218  0.1774  0.9407
24254SOL     OW75203   3.648   2.025   0.737  0.0397  0.7231  0.0458
24254SOL    HW175204   3.710   1.979   0.794  0.9185  1.7728 -0.0370
24254SOL    HW275205   3.646   2.114   0.770 -0.9135  0.8875 -0.3981
24255SOL     OW75206   5.205   3.167   7.251 -0.1305  0.1591 -0.1454
24255SOL    HW175207   5.246   3.116   7.181  1.1143  0.1322  0.5642
24255SOL    HW275208   5.251   3.140   7.330  0.2595  2.0281  0.3233
24256SOL     OW75209   0.492   9.337   8.613 -0.3754 -0.2768 -0.4697
24256SOL    HW175210   0.496   9.403   8.682 -2.7140 -2.0122  1.4950
24256SOL    HW275211   0.583   9.315   8.595  0.3698  1.8472  0.3983
24257SOL     OW75212   6.318   1.073   2.747 -0.2228 -0.1943 -0.0860
24257SOL    HW175213   6.243   1.062   2.807 -1.1173  1.8414 -0.7556
24257SOL    HW275214   6.284   1.045   2.662 -0.4225  1.2056 -0.4900
24258SOL     OW75215   5.594  10.046   5.187 -0.2794  0.0600 -0.2155
24258SOL    HW175216   5.666  10.108   5.186  1.2674 -1.6420 -1.1396
24258SOL    HW275217   5.549  10.061   5.270 -0.7066  3.1177 -0.8777
24259SOL     OW75218  10.181   2.543   7.238  0.1959  0.6656 -0.2998
24259SOL    HW175219  10.153   2.549   7.329 -0.0198  1.2285 -0.3992
24259SOL    HW275220  10.195   2.634   7.211  2.3641  0.4261 -0.1775
24260SOL     OW75221   3.863   1.313   9.270 -0.6403  0.0029  0.3813
24260SOL    HW175222   3.819   1.239   9.230 -1.7953  1.0879 -0.4236
24260SOL    HW275223   3.956   1.301   9.248 -1.1583  0.3040 -2.3036
24261SOL     OW75224   3.110   2.455   3.080  0.1227 -0.5998  0.8136
24261SOL    HW175225   3.132   2.546   3.060  0.8348 -0.4049  2.3457
24261SOL    HW275226   3.194   2.414   3.098  0.0980 -2.2458 -2.2472
24262SOL     OW75227   4.659   1.086   1.766 -0.3750  0.4009 -0.1226
24262SOL    HW175228   4.624   1.006   1.725 -0.0668  0.2675 -0.1276
24262SOL    HW275229   4.676   1.144   1.692 -2.4593  1.2485 -0.0154
24263SOL     OW75230   5.619   5.721   8.876 -0.2410  0.0337 -0.1313
24263SOL    HW175231   5.610   5.759   8.788 -0.8519 -1.4603 -0.7604
24263SOL    HW275232   5.535   5.740   8.919 -1.5167 -2.5033 -1.2838
24264SOL     OW75233   5.832   2.429   9.626  0.6281  0.1694 -0.1588
24264SOL    HW175234   5.829   2.524   9.623 -0.1668  0.1306 -1.3962
24264SOL    HW275235   5.844   2.408   9.718 -0.3180  1.4470  0.2887
24265SOL     OW75236   2.740  10.179   8.442 -0.0974  0.2335  0.1255
24265SOL    HW175237   2.720  10.095   8.402 -1.2059  0.6417 -0.2207
24265SOL    HW275238   2.806  10.217   8.385 -0.7308  0.2552 -0.6212
24266SOL     OW75239   6.271   7.796   4.377 -0.7438 -0.6605 -0.4750
24266SOL    HW175240   6.261   7.773   4.470 -2.4590  1.5570 -0.0110
24266SOL    HW275241   6.355   7.841   4.372 -0.4097 -1.2425 -0.0896
24267SOL     OW75242   7.079   5.542   3.271 -0.0015  0.0099  0.1732
24267SOL    HW175243   7.056   5.463   3.320  0.2914  0.7970  1.6295
24267SOL    HW275244   7.173   5.534   3.254 -0.1482 -0.3725 -0.4856
24268SOL     OW75245   3.383   9.777   7.390  0.7491 -0.1090 -0.0173
24268SOL    HW175246   3.356   9.708   7.329  0.3756  2.0231 -2.4090
24268SOL    HW275247   3.472   9.752   7.417  0.7880 -1.3143 -1.1656
24269SOL     OW75248   6.696   6.540   1.080 -0.1003 -0.0513 -0.4349
24269SOL    HW175249   6.633   6.513   1.147  0.7159  0.4729  0.5723
24269SOL    HW275250   6.710   6.462   1.027  0.2608 -0.8783  0.8381
24270SOL     OW75251   1.299   9.009   2.780  0.2908  0.3647  0.2139
24270SOL    HW175252   1.302   9.101   2.754  2.2714  0.7667  1.5888
24270SOL    HW275253   1.329   8.961   2.703 -1.7746  0.7161 -0.8746
24271SOL     OW75254   4.086   4.242   8.442 -0.1783  0.1011 -0.2096
24271SOL    HW175255   4.007   4.187   8.440 -0.7453  0.9230 -0.7494
24271SOL    HW275256   4.063   4.314   8.501 -0.8657  1.8226 -2.4481
24272SOL     OW75257   3.930   3.916   0.778 -0.3816  0.9242  0.2842
24272SOL    HW175258   3.880   3.935   0.698  0.2224  2.2277  0.1898
24272SOL    HW275259   3.873   3.945   0.849  0.3814  2.8746  0.1566
24273SOL     OW75260  10.428   9.959   0.894 -0.6054  0.4447 -0.7105
24273SOL    HW175261  10.514   9.951   0.935 -2.2350  2.3309  3.7829
24273SOL    HW275262  10.384   9.876   0.916 -1.8853  1.8917  3.0628
24274SOL     OW75263   7.630   4.633   1.312 -0.0602  0.1531 -0.2215
24274SOL    HW175264   7.681   4.666   1.386  1.5642 -2.6842  0.0542
24274SOL    HW275265   7.688   4.641   1.237  0.4360 -1.9644 -0.1311
24275SOL     OW75266   6.002   0.250   0.715  0.4858 -0.6027  0.4577
24275SOL    HW175267   5.962   0.218   0.633  2.7965 -0.4816 -0.8047
24275SOL    HW275268   5.934   0.304   0.755 -0.3863  0.2310 -1.9530
24276SOL     OW75269   8.522   6.348   6.192  0.3282  0.3024 -0.2302
24276SOL    HW175270   8.523   6.389   6.106 -2.3092  0.7050 -0.1446
24276SOL    HW275271   8.524   6.254   6.174  4.1218  0.2921 -0.4928
24277SOL     OW75272   0.262   7.214   6.446 -0.2704 -0.3268  0.0171
24277SOL    HW175273   0.260   7.287   6.508  2.5614 -0.6678  0.6556
24277SOL    HW275274   0.188   7.159   6.472 -0.7807  0.9111  1.3382
24278SOL     OW75275   5.946   0.233   9.224 -0.8754 -0.0519 -0.3924
24278SOL    HW175276   5.882   0.270   9.164 -0.5355 -1.3046 -1.5718
24278SOL    HW275277   5.905   0.152   9.256 -0.1568 -0.5559 -0.7061
24279SOL     OW75278   4.068   0.049   2.490 -0.1307  0.4334  0.3132
24279SOL    HW175279   4.061  -0.002   2.570  0.0812 -1.0943 -0.5933
24279SOL    HW275280   3.986   0.097   2.485 -1.1796 -1.2623  0.2923
24280SOL     OW75281   3.843   4.907   7.989 -0.2137 -0.4324 -0.1987
24280SOL    HW175282   3.803   4.968   8.050 -0.0429  3.2123 -3.3755
24280SOL    HW275283   3.934   4.935   7.982  0.1910 -1.8151 -0.8928
24281SOL     OW75284  10.216   4.728   7.603 -0.1123  0.2399 -0.4395
24281SOL    HW175285  10.265   4.751   7.682  0.0642  1.3339 -0.8518
24281SOL    HW275286  10.265   4.656   7.564  0.1891  0.1685  0.0666
24282SOL     OW75287   1.749   2.343   1.657 -0.5679  0.9544 -0.3444
24282SOL    HW175288   1.670   2.297   1.684  1.3617 -1.8985  1.0220
24282SOL    HW275289   1.767   2.404   1.728  0.4469 -1.2103  1.3969
24283SOL     OW75290   8.316   6.602   4.033 -0.0518  0.5968  0.5199
24283SOL    HW175291   8.224   6.611   4.061 -0.5911  0.8282 -1.1904
24283SOL    HW275292   8.341   6.515   4.062 -1.1153  0.1881  0.2966
24284SOL     OW75293   4.385   2.848   9.810 -0.6774  0.6092 -0.0038
24284SOL    HW175294   4.434   2.806   9.880  0.8671 -0.0493 -1.4088
24284SOL    HW275295   4.330   2.779   9.773  1.2946 -0.1195 -1.8110
24285SOL     OW75296   9.644   2.309   7.615 -0.2761 -0.3300 -0.4440
24285SOL    HW175297   9.718   2.337   7.562 -0.6959  0.1730 -0.7831
24285SOL    HW275298   9.601   2.391   7.640 -1.1586 -0.6329 -0.9166
24286SOL     OW75299   9.673   9.041   4.938 -0.3154 -0.5618  0.1317
24286SOL    HW175300   9.642   9.124   4.975  0.8436 -0.4552  0.9439
24286SOL    HW275301   9.618   8.975   4.979 -2.0837 -0.1688 -1.4464
24287SOL     OW75302   5.490   7.374   4.975 -0.6571 -0.7319  0.7706
24287SOL    HW175303   5.521   7.297   4.929 -0.2878 -1.1322  1.6583
24287SOL    HW275304   5.543   7.377   5.055 -0.7397  0.3812  0.7934
24288SOL     OW75305   9.374   7.784   1.196 -0.7339  0.5152 -0.3861
24288SOL    HW175306   9.332   7.701   1.215 -1.3149  0.7023 -0.8299
24288SOL    HW275307   9.337   7.812   1.112 -0.4787  1.1745 -0.2914
24289SOL     OW75308   2.952   0.180   3.341 -0.4113  0.5578  0.5733
24289SOL    HW175309   2.910   0.123   3.278 -0.5870  0.3829  0.8480
24289SOL    HW275310   3.041   0.145   3.349 -0.3582  0.6410  0.3488
24290SOL     OW75311   6.556   1.431   1.442 -0.3161  0.3308 -0.1052
24290SOL    HW175312   6.611   1.499   1.480 -1.1299  0.5402  0.7439
24290SOL    HW275313   6.529   1.466   1.357 -1.5527  1.5474  0.7515
24291SOL     OW75314   7.265   5.400   3.557 -0.1810  0.2543 -0.0940
24291SOL    HW175315   7.223   5.457   3.622 -0.9179  3.3156 -2.9671
24291SOL    HW275316   7.194   5.344   3.526 -0.0370 -0.5768  1.0071
24292SOL     OW75317   0.895  10.418   7.540 -0.3916 -0.1794  0.1382
24292SOL    HW175318   0.819  10.411   7.482 -0.2957 -1.1491  0.1081
24292SOL    HW275319   0.887  10.505   7.579 -1.1603 -0.0129 -0.3551
24293SOL     OW75320  10.018   9.636   1.024 -0.6870 -0.4906  0.0046
24293SOL    HW175321  10.036   9.580   0.949 -1.7494  0.7838 -1.2646
24293SOL    HW275322   9.928   9.616   1.049 -0.0574 -1.5490  1.5572
24294SOL     OW75323   1.197   9.221   7.318  0.2947 -0.1913  0.7498
24294SOL    HW175324   1.272   9.280   7.320 -0.4297  0.7678  0.4500
24294SOL    HW275325   1.235   9.133   7.308  1.3328  0.3311 -0.0166
24295SOL     OW75326   1.828   6.475   2.842 -0.0848  0.3670 -0.2067
24295SOL    HW175327   1.770   6.433   2.778 -0.6932  0.6678  0.1391
24295SOL    HW275328   1.916   6.461   2.807 -0.3469 -0.2958 -0.6245
24296SOL     OW75329   9.337   2.135   2.817  0.1178  0.3259 -0.1812
24296SOL    HW175330   9.341   2.040   2.823  0.0282  0.3575  0.5290
24296SOL    HW275331   9.342   2.165   2.908  0.8341  1.0306 -0.4370
24297SOL     OW75332   5.438   5.191   0.820  0.0081  0.2207 -0.0237
24297SOL    HW175333   5.375   5.261   0.802 -0.3891 -0.2664 -0.5487
24297SOL    HW275334   5.493   5.227   0.890 -0.2853  0.9982 -0.1739
24298SOL     OW75335   4.722   8.698   6.501  0.4895 -0.0457 -0.5240
24298SOL    HW175336   4.653   8.656   6.450  0.1092  2.3890 -2.1481
24298SOL    HW275337   4.803   8.660   6.467  0.1778  0.6999 -2.1852
24299SOL     OW75338   4.963   6.891   2.741  0.0767 -0.0860  0.3738
24299SOL    HW175339   5.036   6.865   2.798 -0.3631 -2.6616 -0.1005
24299SOL    HW275340   4.896   6.922   2.802  0.1928 -1.3167  1.1658
24300SOL     OW75341   8.821   5.840   8.895  0.0464  0.3396  0.5942
24300SOL    HW175342   8.725   5.837   8.896  0.0800 -1.6761  0.6257
24300SOL    HW275343   8.842   5.933   8.881 -1.9482  0.3436 -4.3830
24301SOL     OW75344   4.257   5.240   1.183  0.3287 -0.3824  0.0047
24301SOL    HW175345   4.163   5.241   1.202  0.2218 -1.5772 -0.3385
24301SOL    HW275346   4.298   5.220   1.267  0.0345 -2.9619 -0.3839
24302SOL     OW75347   8.677   3.705   8.957  0.2916  0.1440 -0.3414
24302SOL    HW175348   8.630   3.645   9.014 -0.0297  0.9633  0.2720
24302SOL    HW275349   8.737   3.752   9.015  0.4632  0.4975 -0.7946
24303SOL     OW75350   1.952   4.174  10.382  0.0120 -0.2645  0.3044
24303SOL    HW175351   1.912   4.223  10.454  0.3958 -0.4820  0.6730
24303SOL    HW275352   1.878   4.142  10.330 -0.2590  0.1726  0.4173
24304SOL     OW75353   9.452   8.237   5.417  0.0897  0.0676 -0.1369
24304SOL    HW175354   9.450   8.301   5.488  0.5781  0.5699 -0.5728
24304SOL    HW275355   9.496   8.282   5.345 -2.0951  0.2548 -1.4465
24305SOL     OW75356   1.431  10.060   1.160  0.5566  0.4514 -0.2381
24305SOL    HW175357   1.477  10.015   1.231 -1.2613 -0.8154  0.2124
24305SOL    HW275358   1.484  10.041   1.082  2.0943  1.1115  0.5992
24306SOL     OW75359   9.980   3.318   4.271  0.1551  0.3715 -0.0716
24306SOL    HW175360  10.073   3.337   4.289  0.0887  0.7950 -0.1685
24306SOL    HW275361   9.939   3.321   4.357 -0.1495  2.3349 -0.2287
24307SOL     OW75362   6.440   8.619   0.912  0.0690 -0.2880 -0.6354
24307SOL    HW175363   6.463   8.711   0.898  0.5510 -0.5579 -1.8203
24307SOL    HW275364   6.479   8.574   0.837 -0.5668 -1.3928 -0.3206
24308SOL     OW75365   6.767   0.403   9.740 -0.5389 -0.4911  0.2248
24308SOL    HW175366   6.720   0.471   9.692  1.5485 -0.3975 -1.8639
24308SOL    HW275367   6.799   0.447   9.819 -1.8558  0.0708  0.4662
24309SOL     OW75368   1.394   3.604   3.702  0.0398  0.2012 -0.7093
24309SOL    HW175369   1.475   3.566   3.736 -1.0110 -1.4614  0.0819
24309SOL    HW275370   1.384   3.565   3.615 -0.2893 -0.2198 -0.4890
24310SOL     OW75371   8.117   0.978   8.913  0.3725 -0.1584  0.3711
24310SOL    HW175372   8.070   0.965   8.995 -1.1875 -1.1113 -0.6018
24310SOL    HW275373   8.156   1.065   8.920 -1.6737  0.7413  1.2075
24311SOL     OW75374   8.424   1.719   5.199  0.0972 -0.3844 -0.2878
24311SOL    HW175375   8.403   1.645   5.141 -1.7976  1.0850 -1.5879
24311SOL    HW275376   8.504   1.755   5.162  2.5806 -3.1751  1.8689
24312SOL     OW75377  10.440   3.016   2.999 -0.3090 -0.0735  1.2246
24312SOL    HW175378  10.439   3.112   3.001  0.1905 -0.0728  1.6294
24312SOL    HW275379  10.457   2.990   3.089  0.8211 -0.5076  0.9064
24313SOL     OW75380   1.670   6.822   3.201 -0.1181 -0.0602  0.2137
24313SOL    HW175381   1.579   6.849   3.213 -0.4658 -0.0004 -2.0847
24313SOL    HW275382   1.706   6.886   3.141  0.3138 -2.1457 -1.8871
24314SOL     OW75383   9.878   3.900   1.478 -0.2103 -0.3749  0.6094
24314SOL    HW175384   9.900   3.979   1.429  2.3255 -0.3024  1.7117
24314SOL    HW275385   9.884   3.926   1.570  1.8960 -2.0614  1.0253
24315SOL     OW75386   7.678   8.507   4.485  0.1644 -0.0584  0.2529
24315SOL    HW175387   7.717   8.427   4.520 -0.0611 -0.2659  0.0319
24315SOL    HW275388   7.711   8.512   4.395 -1.0901 -0.7634 -0.2703
24316SOL     OW75389   3.104   1.034   6.055 -0.3474  0.0422  0.0775
24316SOL    HW175390   3.105   1.111   6.112  1.3876  0.9865 -1.1492
24316SOL    HW275391   3.021   1.041   6.008  0.4303  2.0671 -1.1262
24317SOL     OW75392   1.741   8.780   0.542 -0.1052 -0.2765  0.0340
24317SOL    HW175393   1.778   8.845   0.483 -1.3024  0.1314 -0.2921
24317SOL    HW275394   1.726   8.703   0.486  0.4283 -0.5180  0.2136
24318SOL     OW75395   5.110   2.723   3.354  0.1950 -0.1178 -0.3150
24318SOL    HW175396   5.109   2.818   3.355  2.5794 -0.0439  0.9476
24318SOL    HW275397   5.108   2.700   3.261  0.6871  1.1830 -0.6656
24319SOL     OW75398   5.721   1.481   1.585 -0.1261  0.3467  0.3089
24319SOL    HW175399   5.666   1.406   1.607 -0.4035  0.9120  1.6803
24319SOL    HW275400   5.810   1.448   1.591 -0.2191  0.2510  1.6063
24320SOL     OW75401   4.875   5.337   1.342 -0.5156  0.1482  0.1128
24320SOL    HW175402   4.946   5.391   1.307 -2.1039  1.4369 -1.3148
24320SOL    HW275403   4.836   5.391   1.411  0.7873 -1.2026  2.0238
24321SOL     OW75404   8.194   0.806   6.432  0.7013  0.1567  0.2947
24321SOL    HW175405   8.214   0.734   6.491  0.9285 -0.6136 -0.7060
24321SOL    HW275406   8.258   0.874   6.455  0.8517 -0.1739  0.8580
24322SOL     OW75407   2.200   5.431   9.017  0.2798 -0.4660  0.1416
24322SOL    HW175408   2.186   5.372   9.091  0.1557 -1.2210 -0.4699
24322SOL    HW275409   2.248   5.504   9.054 -0.6552 -0.3451  1.1847
24323SOL     OW75410   8.992   4.589   2.948  0.0493 -0.5356  0.1257
24323SOL    HW175411   8.932   4.527   2.906  0.6483 -0.8821 -0.2293
24323SOL    HW275412   9.057   4.534   2.992 -0.2954 -0.1717  1.1178
24324SOL     OW75413   2.003   2.453   9.736 -0.4784 -0.1191  0.6179
24324SOL    HW175414   1.914   2.482   9.755 -0.9508 -0.1051 -1.3976
24324SOL    HW275415   2.016   2.473   9.644  1.5173 -0.4147  0.7887
24325SOL     OW75416   9.052   9.092   6.845 -0.0938 -0.0369 -0.1391
24325SOL    HW175417   9.138   9.124   6.873  0.1431 -0.4564 -0.3815
24325SOL    HW275418   9.030   9.145   6.769 -0.8240  1.2427  0.9135
24326SOL     OW75419   1.014   0.802   4.511  0.3928  0.2768 -0.2808
24326SOL    HW175420   1.001   0.837   4.599  1.0653 -0.9710  0.3431
24326SOL    HW275421   1.039   0.710   4.524 -0.0745 -0.1056 -1.8007
24327SOL     OW75422   5.622   6.345   7.979  0.0632  0.0445 -0.5373
24327SOL    HW175423   5.571   6.426   7.977  0.2741  0.1629 -1.2182
24327SOL    HW275424   5.610   6.307   7.892 -0.4097 -0.8927 -0.0776
24328SOL     OW75425   2.211   0.884   6.139 -0.1613  0.4535 -0.4596
24328SOL    HW175426   2.274   0.812   6.143  1.2460  1.6287 -0.6086
24328SOL    HW275427   2.217   0.916   6.049 -1.0070  0.5640 -0.4844
24329SOL     OW75428   1.919   8.053   4.622 -0.1282  0.0326 -0.5764
24329SOL    HW175429   1.877   8.034   4.538  1.0212 -1.9817 -0.7625
24329SOL    HW275430   1.886   7.984   4.681  1.0379 -0.1436 -0.0976
24330SOL     OW75431   9.982   4.829   0.301  0.8156 -0.5955 -0.0248
24330SOL    HW175432   9.982   4.903   0.361  2.8921  1.8452 -2.7178
24330SOL    HW275433   9.902   4.840   0.249  1.2717  0.0013 -0.6206
24331SOL     OW75434   8.707   4.994   5.980 -0.2374  0.4423  0.0222
24331SOL    HW175435   8.714   4.902   5.954  1.6458  0.5161  0.1458
24331SOL    HW275436   8.616   5.004   6.007 -1.2192 -0.6799 -2.5527
24332SOL     OW75437   2.201   2.524   0.423  0.1899  0.3195  0.2173
24332SOL    HW175438   2.244   2.521   0.337 -2.2685  0.0816 -1.0972
24332SOL    HW275439   2.115   2.560   0.405  0.2930  2.1927  2.9668
24333SOL     OW75440   5.225   2.203   5.755 -0.2591 -0.0241 -0.3655
24333SOL    HW175441   5.237   2.287   5.710  0.2974  0.3105  0.3796
24333SOL    HW275442   5.305   2.193   5.807 -0.6612 -0.6510  0.1377
24334SOL     OW75443   3.516   3.342   0.488 -0.3530 -0.1952  0.3282
24334SOL    HW175444   3.455   3.334   0.561 -3.8006 -1.7634 -2.4116
24334SOL    HW275445   3.498   3.429   0.452  0.1531 -0.0666  0.3811
24335SOL     OW75446   4.878   1.845   5.101 -0.1751 -0.4287 -0.2203
24335SOL    HW175447   4.929   1.898   5.040 -0.3789 -1.3132 -1.1752
24335SOL    HW275448   4.886   1.755   5.069 -0.2767 -0.9199  1.0656
24336SOL     OW75449   8.571   9.175   0.927  0.4530  0.1263  0.3910
24336SOL    HW175450   8.487   9.159   0.884  0.2755 -0.3312  0.9100
24336SOL    HW275451   8.632   9.116   0.882  0.6870  1.0515 -0.5534
24337SOL     OW75452   5.822   1.321   4.252 -0.0080  0.2871  0.2788
24337SOL    HW175453   5.887   1.383   4.286  1.2216 -0.3990 -0.7264
24337SOL    HW275454   5.804   1.351   4.163  1.2433 -1.2048 -0.5322
24338SOL     OW75455   3.107   2.068   2.675  0.5189 -0.1041  0.2808
24338SOL    HW175456   3.079   2.030   2.758  0.7100  0.2794  0.5229
24338SOL    HW275457   3.182   2.015   2.648  0.9459  0.2476  0.7461
24339SOL     OW75458   2.358   0.612   8.487 -0.3237  0.0494 -0.1355
24339SOL    HW175459   2.365   0.540   8.424 -0.2328 -1.0641  1.0719
24339SOL    HW275460   2.335   0.568   8.569 -3.4626  1.7298  0.0048
24340SOL     OW75461   4.132   1.597   8.585  0.4158  0.2290 -0.6416
24340SOL    HW175462   4.143   1.616   8.678 -0.3935 -1.3126 -0.1937
24340SOL    HW275463   4.047   1.554   8.580  1.7333 -2.4666 -1.6289
24341SOL     OW75464   0.969   6.966   1.215  0.0844  0.0778  0.0649
24341SOL    HW175465   1.053   6.928   1.240 -1.6730 -2.7940  2.1717
24341SOL    HW275466   0.920   6.894   1.176 -1.5850  1.5715 -0.7761
24342SOL     OW75467   7.326   6.084   4.911  0.0442 -0.0489 -0.1730
24342SOL    HW175468   7.290   6.000   4.882  1.0852 -0.1521 -1.2525
24342SOL    HW275469   7.420   6.074   4.901  0.1185  1.8746 -2.1748
24343SOL     OW75470   5.680   6.834   1.520 -0.0566  0.2581  0.0359
24343SOL    HW175471   5.704   6.743   1.502  0.1667  0.3946 -0.3644
24343SOL    HW275472   5.584   6.835   1.515  0.0139  0.4166 -1.7920
24344SOL     OW75473   4.898   7.787   4.463 -0.1912 -0.1771 -0.0810
24344SOL    HW175474   4.817   7.756   4.422 -0.0158 -0.6398 -0.0795
24344SOL    HW275475   4.892   7.759   4.554 -0.7111  1.1003  0.3149
24345SOL     OW75476   3.026   8.815   1.776 -0.1898 -0.0786 -0.3961
24345SOL    HW175477   3.064   8.824   1.689  0.5871 -1.3053 -0.2043
24345SOL    HW275478   3.080   8.870   1.832 -1.0753  1.2196 -0.7637
24346SOL     OW75479   5.024   8.279   5.387  0.1085 -0.3198 -0.6915
24346SOL    HW175480   5.107   8.307   5.427 -0.7815  0.8561  0.4124
24346SOL    HW275481   4.998   8.353   5.332  0.2201 -1.0523 -1.7516
24347SOL     OW75482   6.463   2.423   4.356 -0.3088  0.4343  0.2697
24347SOL    HW175483   6.402   2.349   4.349 -0.8555  0.8507  0.5954
24347SOL    HW275484   6.445   2.477   4.280  0.1184  0.2238  0.0111
24348SOL     OW75485   9.996   3.006   7.287 -0.0892 -0.1870 -0.2278
24348SOL    HW175486  10.035   3.000   7.374 -1.7867 -0.4415  0.5494
24348SOL    HW275487  10.050   2.948   7.233 -0.2982 -1.7278  1.1498
24349SOL     OW75488   9.712   2.759   9.296  0.4128 -0.2723 -0.8590
24349SOL    HW175489   9.665   2.687   9.339 -0.2542  0.9579  0.5922
24349SOL    HW275490   9.646   2.828   9.289  1.7729  1.2490  0.5586
24350SOL     OW75491   9.997   4.852   4.181  0.3391 -0.9369 -0.2496
24350SOL    HW175492  10.027   4.837   4.271  0.3510  0.8829  0.0988
24350SOL    HW275493  10.078   4.863   4.131  0.3186 -0.7636 -0.2450
24351SOL     OW75494   8.183   0.053   1.475 -0.4298  0.2919 -0.1215
24351SOL    HW175495   8.115   0.014   1.529  1.3743 -1.3470  1.1281
24351SOL    HW275496   8.202  -0.013   1.408  2.5665 -1.1377  1.9327
24352SOL     OW75497   9.895   7.863   3.968  0.7504  0.1582  0.2103
24352SOL    HW175498   9.986   7.839   3.949  1.1783  1.6247  0.2829
24352SOL    HW275499   9.900   7.909   4.052 -0.1370 -0.1996  0.4629
24353SOL     OW75500   8.072   3.978   3.355 -0.1097  0.5654  0.0326
24353SOL    HW175501   8.154   3.945   3.394 -1.0466 -0.0020  1.6396
24353SOL    HW275502   8.022   3.899   3.336  0.2216  0.8515 -2.2203
24354SOL     OW75503   5.830   4.653   6.430  0.4184 -0.3024  0.2722
24354SOL    HW175504   5.895   4.714   6.464 -0.6271  0.6279  0.6252
24354SOL    HW275505   5.852   4.644   6.337  0.3214  0.9349  0.1242
24355SOL     OW75506   9.713   6.118   3.443  0.0401 -0.0213 -0.0738
24355SOL    HW175507   9.625   6.151   3.461  0.1373  1.3850 -1.9455
24355SOL    HW275508   9.705   6.073   3.360  1.0355 -0.1117 -0.1246
24356SOL     OW75509   9.348   7.116   8.098 -0.9193 -0.4633 -0.3772
24356SOL    HW175510   9.350   7.048   8.030  1.7354 -1.9753  1.0241
24356SOL    HW275511   9.338   7.067   8.180  0.3538  0.8727  0.6208
24357SOL     OW75512   8.251   0.146   1.958  0.3232 -0.1169  0.5406
24357SOL    HW175513   8.281   0.184   1.875  1.0891 -0.7021  0.5349
24357SOL    HW275514   8.179   0.202   1.985  0.3547  0.3525 -0.2974
24358SOL     OW75515   6.445   0.465   4.909  0.0825  0.0215  0.3018
24358SOL    HW175516   6.355   0.462   4.941 -0.3399 -3.4438 -0.8361
24358SOL    HW275517   6.449   0.544   4.855 -2.6527 -0.3049 -0.5117
24359SOL     OW75518   1.175   5.084   8.000 -0.7263 -0.1977  0.0105
24359SOL    HW175519   1.144   5.137   7.927 -0.1166  0.4303  0.1991
24359SOL    HW275520   1.150   4.995   7.977 -1.1350  0.0797 -0.6456
24360SOL     OW75521   2.470   5.871   7.726 -0.1958 -0.3950 -0.0383
24360SOL    HW175522   2.524   5.926   7.783  0.9685 -0.6944 -0.8230
24360SOL    HW275523   2.470   5.916   7.642 -0.5670 -0.7847 -0.2505
24361SOL     OW75524   0.082   7.817   1.211  0.2586  0.1705  0.0261
24361SOL    HW175525   0.110   7.805   1.302 -0.3481  0.9084  0.3179
24361SOL    HW275526   0.146   7.878   1.174  0.2500  0.2190  0.0905
24362SOL     OW75527   6.768   0.382   1.931  0.1728 -0.3253 -0.4050
24362SOL    HW175528   6.852   0.410   1.966  0.6484 -0.4347 -1.4167
24362SOL    HW275529   6.704   0.409   1.997  0.4872  3.6456 -1.4797
24363SOL     OW75530   6.854   6.611   7.381 -0.1114  0.2646 -0.0115
24363SOL    HW175531   6.837   6.695   7.424  0.6054 -0.1029  1.0313
24363SOL    HW275532   6.806   6.616   7.298 -0.2984  1.5929  0.1557
24364SOL     OW75533   7.992   4.105   6.261  0.0398  0.2067 -0.0020
24364SOL    HW175534   7.982   4.178   6.200  2.0324  0.3202 -0.2570
24364SOL    HW275535   8.045   4.140   6.333 -1.1295 -0.2997  1.1497
24365SOL     OW75536  10.144   1.735   3.931 -0.1511  0.0900  0.0470
24365SOL    HW175537  10.053   1.755   3.953 -0.5533 -0.9565 -0.5891
24365SOL    HW275538  10.163   1.792   3.856 -0.4878 -0.1440 -0.2180
24366SOL     OW75539   3.732   6.523  10.358  0.8957 -0.1791  0.1454
24366SOL    HW175540   3.765   6.591  10.416  1.7391 -1.6210  1.4223
24366SOL    HW275541   3.797   6.453  10.364  0.0148 -1.1420 -1.0677
24367SOL     OW75542   1.697   6.935   5.421 -0.3584 -0.1440 -0.2940
24367SOL    HW175543   1.730   6.851   5.452 -0.1590  0.3453  0.8933
24367SOL    HW275544   1.735   6.999   5.481  1.1485  1.0350 -2.3976
24368SOL     OW75545   2.631  10.286  10.028  0.2722 -0.0548 -0.0053
24368SOL    HW175546   2.609  10.193  10.031 -1.0242  0.1642  4.5431
24368SOL    HW275547   2.721  10.290  10.062 -0.1795  0.3957  1.1726
24369SOL     OW75548   5.632   4.969   1.241  0.9464  0.0991  0.0949
24369SOL    HW175549   5.683   4.890   1.259  2.3568  0.5082 -1.8051
24369SOL    HW275550   5.637   4.980   1.146 -0.4739  1.6616  0.1490
24370SOL     OW75551   7.773   2.698   4.089 -0.4216 -0.5874  0.8037
24370SOL    HW175552   7.818   2.779   4.113 -1.1610  0.1650 -0.2638
24370SOL    HW275553   7.844   2.633   4.080  0.3797  0.3640 -0.0246
24371SOL     OW75554   4.321   4.936   6.889  0.6125 -0.3144  0.4626
24371SOL    HW175555   4.321   4.869   6.821  1.4380 -0.1858  0.3252
24371SOL    HW275556   4.397   4.915   6.943  1.9925  1.5051 -0.6171
24372SOL     OW75557   9.249   5.400   6.540 -0.1171 -0.4471 -1.0629
24372SOL    HW175558   9.178   5.372   6.599  0.1739 -1.5745 -1.2236
24372SOL    HW275559   9.298   5.319   6.522  0.2255  0.0172 -2.2795
24373SOL     OW75560   5.257   1.003   9.871 -0.4641  0.0908 -0.2702
24373SOL    HW175561   5.200   1.080   9.872  1.5607  1.6647 -0.5478
24373SOL    HW275562   5.207   0.936   9.918 -1.6291  2.0675  1.5076
24374SOL     OW75563   8.368   1.200   9.515  0.5917 -0.3360 -0.0424
24374SOL    HW175564   8.341   1.114   9.548  1.0368 -1.2242 -1.8309
24374SOL    HW275565   8.446   1.182   9.462  0.4800  1.1082 -0.7523
24375SOL     OW75566   6.326   4.628   5.472  0.5374  0.4048  0.4055
24375SOL    HW175567   6.310   4.673   5.389  0.9839 -1.5464 -0.7921
24375SOL    HW275568   6.415   4.654   5.495  1.0976 -0.4573 -0.6962
24376SOL     OW75569   7.971   2.593   8.400 -0.2563  0.1433  0.0472
24376SOL    HW175570   8.066   2.583   8.387  0.1988  0.8438  2.3751
24376SOL    HW275571   7.960   2.592   8.495 -2.4879  1.0487 -0.1546
24377SOL     OW75572   8.749   2.064   0.871  0.0697 -0.1000 -0.0913
24377SOL    HW175573   8.763   1.975   0.903  1.6404 -0.0981 -0.6830
24377SOL    HW275574   8.817   2.116   0.915 -1.4237  1.0316  1.0101
24378SOL     OW75575   1.869   9.749   9.636 -0.4245 -1.1713  0.3165
24378SOL    HW175576   1.959   9.719   9.645 -0.1417 -0.8552 -1.1391
24378SOL    HW275577   1.844   9.778   9.724  1.0618 -0.7950  0.6390
24379SOL     OW75578   5.306   1.297   7.588  0.7801 -0.3576 -0.2459
24379SOL    HW175579   5.220   1.288   7.630  1.1735 -0.1358  0.6353
24379SOL    HW275580   5.286   1.324   7.499 -0.0410  3.3172  0.8563
24380SOL     OW75581   1.470   7.569   4.671  0.7629  0.4852  0.4593
24380SOL    HW175582   1.549   7.522   4.698  1.0966 -0.4340 -1.8542
24380SOL    HW275583   1.425   7.509   4.611  0.1140  2.2975 -0.9968
24381SOL     OW75584   4.450   2.322   4.168  0.4805  0.5081  0.1116
24381SOL    HW175585   4.489   2.340   4.254  0.1491  0.8550  0.1918
24381SOL    HW275586   4.473   2.398   4.115  3.0169 -0.8860 -0.9490
24382SOL     OW75587   5.220   5.076   6.271  0.1201 -0.1938 -0.0302
24382SOL    HW175588   5.288   5.022   6.311  0.0330 -0.9798 -0.8913
24382SOL    HW275589   5.161   5.098   6.342  1.5571  0.9709  0.8544
24383SOL     OW75590   8.932   6.790   7.728 -0.1003  0.2888 -0.5620
24383SOL    HW175591   8.874   6.794   7.652  0.8010  0.9962 -1.2321
24383SOL    HW275592   8.949   6.881   7.751  0.7389  0.1044 -0.3859
24384SOL     OW75593   7.886   6.646   1.213 -0.5075  0.0076 -0.0885
24384SOL    HW175594   7.856   6.683   1.131  1.0258  0.6115 -0.4164
24384SOL    HW275595   7.818   6.667   1.276 -1.9711 -0.9457 -1.2922
24385SOL     OW75596   5.894   7.233   5.742  0.2521  0.1482  0.1422
24385SOL    HW175597   5.968   7.229   5.681 -0.5926 -0.1010 -0.9018
24385SOL    HW275598   5.886   7.144   5.776 -0.6446 -0.2811 -1.1069
24386SOL     OW75599   5.315   3.186   3.838 -0.6395 -0.2240  0.4141
24386SOL    HW175600   5.284   3.161   3.926 -2.2029  1.0020  0.2616
24386SOL    HW275601   5.239   3.228   3.798 -0.0867 -1.1667 -1.7234
24387SOL     OW75602   8.016   2.003  10.141  0.3371 -0.0729  0.6205
24387SOL    HW175603   8.050   2.054  10.214 -0.4250 -1.0038  1.6754
24387SOL    HW275604   8.006   1.914  10.176  0.6934 -0.7285 -0.8556
24388SOL     OW75605   4.898   8.853   3.197 -0.2010  0.2694 -0.0865
24388SOL    HW175606   4.903   8.762   3.227  0.2259  1.0424  2.3325
24388SOL    HW275607   4.877   8.845   3.103  0.9605 -2.3213 -0.2225
24389SOL     OW75608   7.638   1.335   6.532  0.2513  0.1138 -0.4800
24389SOL    HW175609   7.731   1.334   6.509  0.3056  0.5955 -0.2867
24389SOL    HW275610   7.635   1.372   6.620  0.0789 -2.0007  0.4553
24390SOL     OW75611   0.165   7.226   8.058  0.1541  0.4096  0.1435
24390SOL    HW175612   0.162   7.139   8.018 -0.0642  0.9104 -0.9426
24390SOL    HW275613   0.199   7.283   7.990  2.0634  0.8883  1.4135
24391SOL     OW75614   4.751   6.793   5.529  0.2453 -0.1988 -0.0819
24391SOL    HW175615   4.770   6.729   5.460  0.2143  0.6396 -0.8923
24391SOL    HW275616   4.838   6.819   5.561  0.2948  0.1555 -0.5049
24392SOL     OW75617   7.184   4.165   3.903 -0.1886  0.4582 -0.1020
24392SOL    HW175618   7.190   4.147   3.809 -0.5991  1.8473 -0.4310
24392SOL    HW275619   7.273   4.192   3.928  0.1326 -0.7584  0.1242
24393SOL     OW75620   9.280   5.226   5.611  0.0661 -0.2227  0.1441
24393SOL    HW175621   9.192   5.222   5.649  0.5899  0.2178  1.4941
24393SOL    HW275622   9.279   5.304   5.556  0.6545  2.0956  3.1626
24394SOL     OW75623   6.848   1.320   0.844 -0.2103  0.2051  0.3250
24394SOL    HW175624   6.884   1.289   0.760 -1.8630  0.2212 -0.4214
24394SOL    HW275625   6.871   1.252   0.907  4.2858  1.7772  0.8032
24395SOL     OW75626   2.379  10.100   6.468 -0.7541  0.7045  0.7791
24395SOL    HW175627   2.286  10.120   6.459 -0.7800 -0.2839 -2.6009
24395SOL    HW275628   2.382  10.028   6.531 -2.2243  0.9887  1.2108
24396SOL     OW75629   7.400   5.460   4.626  0.5507 -0.0381  0.1745
24396SOL    HW175630   7.326   5.490   4.572 -0.3363 -2.4518 -0.0905
24396SOL    HW275631   7.478   5.484   4.576 -0.1460  0.3384 -0.7626
24397SOL     OW75632   1.361   9.717   9.880  0.1423 -0.8333  0.0149
24397SOL    HW175633   1.361   9.654   9.808  0.6539 -1.9791  0.9763
24397SOL    HW275634   1.271   9.714   9.914 -0.7076  1.2447 -1.7987
24398SOL     OW75635   3.945   8.908  10.422 -0.2866 -0.0300 -0.2302
24398SOL    HW175636   4.037   8.881  10.433 -0.6126 -1.0319  0.1899
24398SOL    HW275637   3.904   8.835  10.376 -1.0421  0.0601  0.2813
24399SOL     OW75638   8.741   0.021   6.199 -0.0448  0.1973  0.0879
24399SOL    HW175639   8.658  -0.004   6.157  1.3683 -0.1883 -2.7109
24399SOL    HW275640   8.756   0.110   6.168  2.1069 -0.8549 -2.2543
24400SOL     OW75641   0.145   1.144   2.715  0.0142  0.1206  0.0542
24400SOL    HW175642   0.068   1.145   2.771 -0.8005 -2.9758 -0.8450
24400SOL    HW275643   0.210   1.092   2.764 -0.5787 -2.2931 -1.5639
24401SOL     OW75644   3.659   8.176   4.309 -0.2932  0.3686 -0.4048
24401SOL    HW175645   3.584   8.118   4.317  2.0866 -2.8666  0.4023
24401SOL    HW275646   3.705   8.146   4.230  1.1024  1.0834  0.0969
24402SOL     OW75647   1.522   3.198   8.653 -0.1438  0.4386 -0.4699
24402SOL    HW175648   1.588   3.133   8.631 -0.2928 -0.2867  1.1122
24402SOL    HW275649   1.442   3.166   8.611  0.3828  1.1656 -2.1369
24403SOL     OW75650  10.375   1.685   2.346  0.3557  0.2144  0.3709
24403SOL    HW175651  10.447   1.747   2.349 -0.7845  1.6247 -0.2725
24403SOL    HW275652  10.342   1.682   2.435  1.1257 -0.3695  0.6497
24404SOL     OW75653   4.109   4.667   4.951 -0.0253  0.3914 -0.2588
24404SOL    HW175654   4.192   4.677   4.904  0.2069  0.5845  0.1856
24404SOL    HW275655   4.091   4.573   4.950 -0.0775  0.4050 -0.8243
24405SOL     OW75656   6.285   1.144   2.088  0.2230  0.0009  0.3397
24405SOL    HW175657   6.326   1.214   2.036 -1.0983  1.3673  1.0447
24405SOL    HW275658   6.327   1.064   2.058  1.7106  1.0761 -0.6070
24406SOL     OW75659   2.136   2.486   3.681  0.2116  0.2208 -0.2724
24406SOL    HW175660   2.107   2.443   3.761 -0.3527 -1.0015 -1.1017
24406SOL    HW275661   2.179   2.417   3.630 -0.8064  0.5664 -1.6851
24407SOL     OW75662   4.067   7.732   5.614 -0.5268  0.2795  0.2798
24407SOL    HW175663   4.015   7.683   5.550  0.2979  0.0360 -0.2292
24407SOL    HW275664   4.078   7.819   5.575  1.9800 -0.5489 -1.1330
24408SOL     OW75665   7.263   7.885   1.312  0.2152 -0.1413  0.4903
24408SOL    HW175666   7.284   7.845   1.397 -0.3144 -1.7930 -0.1121
24408SOL    HW275667   7.195   7.949   1.333 -0.6433 -1.2432  1.1962
24409SOL     OW75668   0.753   2.169   8.016 -0.4606  0.9168  0.1569
24409SOL    HW175669   0.806   2.170   8.096  0.3101  1.0864 -0.3491
24409SOL    HW275670   0.731   2.077   8.004  0.0286  0.7945  0.1706
24410SOL     OW75671   9.512   5.966   8.322 -0.4517 -0.3307 -0.6986
24410SOL    HW175672   9.441   6.022   8.291 -0.0341  0.5257 -0.1794
24410SOL    HW275673   9.592   6.012   8.295 -0.0579 -1.8750 -2.3317
24411SOL     OW75674   4.546   3.082   6.031 -0.0604 -0.2727 -0.1787
24411SOL    HW175675   4.494   3.120   5.960  0.3884  0.5801 -0.0694
24411SOL    HW275676   4.482   3.039   6.087 -0.3610 -1.4604 -1.3880
24412SOL     OW75677   1.750   2.964   7.707  0.2988 -0.4161 -0.1089
24412SOL    HW175678   1.682   2.937   7.645  0.5659 -1.0246 -0.1521
24412SOL    HW275679   1.783   3.047   7.673 -0.1200 -0.3408 -0.3297
24413SOL     OW75680   2.665   1.114   6.657  0.5032  0.3436  0.0773
24413SOL    HW175681   2.592   1.138   6.713  1.1743  2.0181  0.3175
24413SOL    HW275682   2.632   1.124   6.567  0.1371  0.0743  0.1848
24414SOL     OW75683   5.631   7.922   0.391 -0.3079 -0.4230 -0.3547
24414SOL    HW175684   5.617   7.827   0.385  0.1234 -0.5212  0.1443
24414SOL    HW275685   5.663   7.947   0.304 -0.5264 -0.7168 -0.5215
24415SOL     OW75686   2.293   7.342   0.079  0.0807  0.2137  0.2892
24415SOL    HW175687   2.262   7.279   0.144 -1.6750 -0.3139 -0.9961
24415SOL    HW275688   2.318   7.419   0.130  1.8267 -1.2813  1.8550
24416SOL     OW75689   2.934   8.110   3.480  0.3794  0.7840 -0.1942
24416SOL    HW175690   2.942   8.204   3.468 -1.9923  1.0816  0.0525
24416SOL    HW275691   2.883   8.080   3.404  3.0426 -0.7571 -1.5483
24417SOL     OW75692   7.184  10.267   8.769  0.0297 -0.3778 -0.1913
24417SOL    HW175693   7.201  10.249   8.676 -0.2407  0.2616 -0.3665
24417SOL    HW275694   7.154  10.183   8.804 -1.6667 -0.1888 -1.1083
24418SOL     OW75695   0.462   7.705   7.296  0.1138 -0.6325 -0.3274
24418SOL    HW175696   0.549   7.729   7.265  0.1890  0.6471  0.7829
24418SOL    HW275697   0.418   7.789   7.313 -1.0398 -1.2610 -0.0814
24419SOL     OW75698   0.473   1.176   6.177 -0.1867 -0.2174  0.5874
24419SOL    HW175699   0.476   1.261   6.221  2.4998  0.6226 -0.9402
24419SOL    HW275700   0.517   1.191   6.093 -1.1343 -2.7566 -0.4826
24420SOL     OW75701   5.459   0.515   0.711  0.3252 -0.1594 -0.3616
24420SOL    HW175702   5.548   0.488   0.735  0.3635  0.2265 -0.0589
24420SOL    HW275703   5.416   0.532   0.795  0.0384 -0.1189 -0.5184
24421SOL     OW75704  10.137   5.046   8.743  0.0694  0.1946 -0.1284
24421SOL    HW175705  10.047   5.020   8.723  0.2501 -0.1996 -0.4570
24421SOL    HW275706  10.155   5.118   8.682  0.0263  0.1802 -0.1590
24422SOL     OW75707   4.798   9.212   6.478 -0.3752  0.3862 -0.4674
24422SOL    HW175708   4.711   9.176   6.497 -0.4051  0.9993  0.6505
24422SOL    HW275709   4.814   9.190   6.386 -1.1172 -0.9558 -0.2982
24423SOL     OW75710   9.301   3.881   0.318  0.1554  0.5053 -0.4302
24423SOL    HW175711   9.361   3.904   0.389  0.7111  2.0676 -1.3563
24423SOL    HW275712   9.248   3.960   0.304 -0.7174 -0.1568 -1.0054
24424SOL     OW75713   0.357   3.073   2.030 -0.2890 -0.1009 -0.3883
24424SOL    HW175714   0.427   3.092   2.093 -1.4627 -1.7595  1.5659
24424SOL    HW275715   0.394   3.096   1.945  2.3805 -0.2925  0.6265
24425SOL     OW75716   6.799   0.637   0.728 -0.2941  0.2466 -0.0137
24425SOL    HW175717   6.856   0.676   0.661 -0.4417 -0.1462 -0.3657
24425SOL    HW275718   6.811   0.543   0.718 -2.4113  0.0705 -1.3281
24426SOL     OW75719   5.640   4.382   1.307 -0.3743 -0.0514 -0.0476
24426SOL    HW175720   5.603   4.470   1.301 -0.9029 -0.2031  0.8137
24426SOL    HW275721   5.578   4.326   1.261 -0.0508  0.0130 -0.5733
24427SOL     OW75722   2.985   7.274   7.470 -0.4626 -0.1684  0.4654
24427SOL    HW175723   2.925   7.200   7.466  0.5283 -1.3360  3.6929
24427SOL    HW275724   2.974   7.309   7.559  1.1708  1.7461 -0.0062
24428SOL     OW75725   4.591   4.047   1.083  0.1920  0.4590  0.1596
24428SOL    HW175726   4.529   4.049   1.010 -0.2241 -1.6688  0.3973
24428SOL    HW275727   4.665   3.996   1.050 -0.7655 -2.1272  1.7053
24429SOL     OW75728   3.310   0.524   3.356  0.1180  0.3207  0.5082
24429SOL    HW175729   3.233   0.573   3.328  1.0035  1.2963 -0.2994
24429SOL    HW275730   3.373   0.534   3.284  0.8305 -0.8598  0.9295
24430SOL     OW75731   4.061   5.305   2.420 -0.1372 -0.1910  0.0912
24430SOL    HW175732   4.036   5.362   2.347  1.2055  1.1142  0.6040
24430SOL    HW275733   4.056   5.361   2.497  0.8040 -0.8843  0.6723
24431SOL     OW75734   5.089   5.160   5.801 -0.2368  0.1131 -0.1850
24431SOL    HW175735   5.184   5.151   5.793 -0.2696 -0.0680 -0.3643
24431SOL    HW275736   5.067   5.108   5.879 -0.1530  0.3865  0.0221
24432SOL     OW75737   8.912   8.283   5.568  0.4482 -0.3933 -0.0933
24432SOL    HW175738   8.908   8.310   5.660  0.3632  1.0380 -0.4877
24432SOL    HW275739   8.835   8.323   5.527  1.2146  0.1491 -1.0562
24433SOL     OW75740   8.030   3.311   4.101 -0.0550  0.5992 -0.2655
24433SOL    HW175741   7.963   3.301   4.033 -0.4847 -0.4577  0.3001
24433SOL    HW275742   8.106   3.345   4.055 -0.6686  0.8976 -1.0876
24434SOL     OW75743   5.151   6.985   6.069 -0.0047  0.0481  0.2179
24434SOL    HW175744   5.105   7.062   6.034  0.3591  0.4671  0.6463
24434SOL    HW275745   5.202   7.019   6.142  1.1076 -0.3918 -0.3416
24435SOL     OW75746   6.415   7.614   4.881  0.2773 -0.8681 -0.5860
24435SOL    HW175747   6.388   7.681   4.819  2.1743 -0.8049 -1.4318
24435SOL    HW275748   6.503   7.640   4.907  1.5274 -3.5113 -1.7634
24436SOL     OW75749   2.721   7.932   4.615  0.4289 -0.3877 -0.2564
24436SOL    HW175750   2.749   7.986   4.688  1.3467  0.6811 -1.3644
24436SOL    HW275751   2.751   7.844   4.638  0.7353 -0.0629  0.6306
24437SOL     OW75752   0.507   5.538   4.699  0.8857 -0.5005  0.3490
24437SOL    HW175753   0.505   5.500   4.787 -0.7282 -0.5635  0.3143
24437SOL    HW275754   0.599   5.563   4.686  1.9699 -3.7425  0.6274
24438SOL     OW75755   0.908   0.670   7.605  0.5816  0.2703 -0.5676
24438SOL    HW175756   0.889   0.763   7.594  0.5000  0.3351  0.0632
24438SOL    HW275757   0.994   0.659   7.565  1.5996  1.0851  1.2798
24439SOL     OW75758   4.091   4.437   2.125 -0.2267  0.5462 -0.3342
24439SOL    HW175759   4.041   4.518   2.140 -1.4141 -0.1730 -0.3016
24439SOL    HW275760   4.180   4.467   2.110 -0.6202  1.8625 -0.1959
24440SOL     OW75761   0.838   3.958   6.607 -0.9503 -0.4602 -0.1640
24440SOL    HW175762   0.823   3.865   6.586 -1.7576 -0.0903 -1.3020
24440SOL    HW275763   0.836   4.002   6.522  2.3958  0.2419 -0.0178
24441SOL     OW75764   9.938   3.614   1.457 -0.1575  0.3074 -0.7538
24441SOL    HW175765   9.953   3.605   1.551  3.4642  0.5200 -1.1616
24441SOL    HW275766   9.889   3.696   1.448 -1.6018 -0.2977  0.9362
24442SOL     OW75767   1.120   2.134   7.732 -0.4063 -0.3964  0.0223
24442SOL    HW175768   1.078   2.219   7.750  1.0653  0.3711 -0.0611
24442SOL    HW275769   1.159   2.145   7.646 -1.2387 -1.6028 -0.5330
24443SOL     OW75770   0.047   3.633   7.176  0.0942  0.0364  0.1410
24443SOL    HW175771  -0.041   3.628   7.214  1.0872  1.0208  2.8345
24443SOL    HW275772   0.035   3.676   7.091 -2.0634 -0.4593  0.1497
24444SOL     OW75773   1.598   9.705   4.837 -0.5105  0.3463  0.1273
24444SOL    HW175774   1.577   9.628   4.783 -0.2254 -0.2139  0.7935
24444SOL    HW275775   1.666   9.673   4.897  0.1833  1.3421 -0.1104
24445SOL     OW75776   3.277   6.305  10.361 -0.5014 -0.6536 -0.3600
24445SOL    HW175777   3.356   6.342  10.323 -1.2397 -0.6899 -2.0350
24445SOL    HW275778   3.224   6.381  10.385  0.4004 -0.6019  1.7246
24446SOL     OW75779   1.334   2.706   7.523  0.2086  0.5378 -0.3862
24446SOL    HW175780   1.386   2.786   7.528 -0.2751  0.9010 -0.9724
24446SOL    HW275781   1.244   2.737   7.511  0.3118 -0.0544 -3.4888
24447SOL     OW75782  10.014   4.472   5.449  0.2183 -0.3484 -0.4501
24447SOL    HW175783   9.948   4.532   5.414 -0.7927 -1.1211  0.0870
24447SOL    HW275784  10.068   4.526   5.507  0.7688  0.5304 -1.7324
24448SOL     OW75785   8.765   7.184   1.075 -0.2341  0.1984  0.1393
24448SOL    HW175786   8.776   7.242   1.151 -0.4734 -0.3236  0.5798
24448SOL    HW275787   8.685   7.217   1.032  1.2276  2.0721 -1.3408
24449SOL     OW75788   0.113  10.459   9.608 -0.1854 -0.4433  0.1754
24449SOL    HW175789   0.108  10.482   9.515  0.5986 -1.4822 -0.1495
24449SOL    HW275790   0.204  10.477   9.632 -0.7093  1.0777  1.1115
24450SOL     OW75791   6.514   2.073   3.656  0.3285 -0.2344 -0.5410
24450SOL    HW175792   6.523   2.136   3.584  3.1046 -1.4027 -1.3297
24450SOL    HW275793   6.438   2.020   3.631  0.2462  0.4202 -1.7853
24451SOL     OW75794   0.989   4.139   9.124  0.1731 -0.4396  0.5080
24451SOL    HW175795   0.904   4.102   9.102  1.5180 -3.6179  0.0737
24451SOL    HW275796   1.050   4.065   9.117  3.0730  1.7815  0.2978
24452SOL     OW75797   9.332   8.327   9.604  0.1056  0.5046  0.5625
24452SOL    HW175798   9.254   8.361   9.561  0.6566  0.0319 -0.8756
24452SOL    HW275799   9.327   8.232   9.589 -0.0308  0.2236  2.1712
24453SOL     OW75800   5.859   2.460  10.425  0.1040  0.3377 -0.2946
24453SOL    HW175801   5.771   2.474  10.461 -0.8248 -2.2472 -1.3797
24453SOL    HW275802   5.871   2.531  10.362 -1.3413  0.5515 -0.3505
24454SOL     OW75803   5.641   1.763   9.080 -0.2671 -0.4164  0.5352
24454SOL    HW175804   5.664   1.782   8.989 -0.4354 -0.6559  0.4422
24454SOL    HW275805   5.690   1.828   9.131 -0.0491 -0.3831  0.2864
24455SOL     OW75806   8.436   5.315   7.825 -0.3349 -0.5560  0.0131
24455SOL    HW175807   8.417   5.406   7.850  0.4610  0.2458 -2.0592
24455SOL    HW275808   8.395   5.262   7.894 -1.7561  1.3298  0.7179
24456SOL     OW75809   7.236   3.746   5.683  0.1554 -0.6651  0.6144
24456SOL    HW175810   7.150   3.779   5.654 -0.0757 -0.0724  1.9018
24456SOL    HW275811   7.225   3.651   5.685 -1.6661 -0.5262  4.0601
24457SOL     OW75812   6.720   1.905   9.050  0.0084 -0.3160  0.2316
24457SOL    HW175813   6.638   1.881   9.007 -0.4260 -1.0215  1.3989
24457SOL    HW275814   6.789   1.868   8.995 -0.5348 -1.3454  0.2298
24458SOL     OW75815   0.820   3.530  10.468 -0.5073 -0.3258 -0.1265
24458SOL    HW175816   0.792   3.441  10.448 -1.8064  0.1526 -0.5766
24458SOL    HW275817   0.803   3.541  10.562  0.5342 -0.8353  0.1355
24459SOL     OW75818   1.929   8.118   0.317 -0.0497 -0.4697  0.4228
24459SOL    HW175819   1.923   8.139   0.224  2.7078  0.2155  0.2965
24459SOL    HW275820   1.984   8.188   0.354  0.0600 -1.4594  2.2790
24460SOL     OW75821   9.166  10.177   0.020  0.3906  0.0494  0.1659
24460SOL    HW175822   9.228  10.240   0.057  0.8716 -0.6635  0.5934
24460SOL    HW275823   9.215  10.132  -0.048  0.9937 -1.8527  1.7719
24461SOL     OW75824   9.170   4.465   2.433  0.1140  0.3510 -0.3291
24461SOL    HW175825   9.131   4.552   2.440 -1.2168 -0.1755 -0.7033
24461SOL    HW275826   9.098   4.410   2.401  1.0940 -0.7612 -0.6774
24462SOL     OW75827   3.501   1.290   5.875  0.0867  0.0916 -0.3317
24462SOL    HW175828   3.406   1.287   5.858  0.1276 -0.7651 -0.4469
24462SOL    HW275829   3.541   1.262   5.793  0.5292  2.2199 -0.9016
24463SOL     OW75830  10.359   3.199   9.771  0.5055 -0.1093  0.4177
24463SOL    HW175831  10.408   3.270   9.810  1.5914  0.3207 -1.5856
24463SOL    HW275832  10.277   3.195   9.821 -0.2608  3.5385 -0.2946
24464SOL     OW75833   8.008   2.551   0.932  0.4539  0.8454  0.0873
24464SOL    HW175834   8.060   2.617   0.978  0.0353 -0.6385  2.9238
24464SOL    HW275835   7.922   2.593   0.921  0.4425  1.1249  1.0920
24465SOL     OW75836   0.641   3.857   2.203 -0.2733 -0.0588 -0.3166
24465SOL    HW175837   0.611   3.945   2.181  0.0151 -0.0365 -0.6235
24465SOL    HW275838   0.569   3.800   2.175  0.4641 -0.1187 -2.2426
24466SOL     OW75839   3.798   7.868   7.725  0.0875  0.2134  0.5865
24466SOL    HW175840   3.758   7.816   7.795 -2.2412  1.6546  0.4449
24466SOL    HW275841   3.750   7.843   7.646  1.3661  0.0276 -0.1604
24467SOL     OW75842   4.027   8.157   4.257  0.3881  0.0633  0.1398
24467SOL    HW175843   3.949   8.136   4.206  0.3680  1.2866 -0.3528
24467SOL    HW275844   4.099   8.148   4.195  0.4359  0.8343  0.0725
24468SOL     OW75845   3.518   9.929   6.511  0.0893 -1.3861 -0.6691
24468SOL    HW175846   3.467   9.848   6.508  0.6057 -1.7831  0.7462
24468SOL    HW275847   3.486   9.975   6.588 -0.9092  0.2891 -1.9976
24469SOL     OW75848   8.669   3.789   4.630 -0.1683 -0.3649 -0.3854
24469SOL    HW175849   8.762   3.784   4.652 -0.6780 -1.2520  1.8715
24469SOL    HW275850   8.655   3.718   4.568  0.5572 -0.5546 -0.3431
24470SOL     OW75851   9.008   4.287   5.599 -0.2956  0.3839 -0.3214
24470SOL    HW175852   8.963   4.229   5.661  0.1010 -0.8506 -1.1556
24470SOL    HW275853   8.938   4.318   5.541 -0.2542 -0.8280 -1.0651
24471SOL     OW75854   4.693   0.770   4.963 -0.3211 -0.1487 -0.6372
24471SOL    HW175855   4.692   0.749   5.056  1.1788  0.0725 -0.5413
24471SOL    HW275856   4.748   0.848   4.956 -0.9742  0.2547 -1.6409
24472SOL     OW75857  10.039   8.352   2.686  0.1521  0.2119  0.1246
24472SOL    HW175858  10.057   8.260   2.706  0.0863  0.1837  0.0502
24472SOL    HW275859  10.099   8.400   2.743  1.5831  0.0954 -1.2215
24473SOL     OW75860   1.885   1.444   9.708  0.5148  0.5727  0.0648
24473SOL    HW175861   1.887   1.362   9.660 -0.5974 -0.0225  0.9994
24473SOL    HW275862   1.857   1.509   9.644 -2.5615 -0.4786  0.1777
24474SOL     OW75863   1.785   3.750   7.824  0.0180 -0.3498 -0.3505
24474SOL    HW175864   1.690   3.735   7.817  0.0793 -0.4317 -0.9978
24474SOL    HW275865   1.820   3.664   7.848 -0.0577 -0.3448 -0.2185
24475SOL     OW75866   9.535   6.724  10.445  0.1332 -0.4902  0.1876
24475SOL    HW175867   9.626   6.750  10.439 -0.0116 -0.0689 -0.2020
24475SOL    HW275868   9.527   6.683  10.532  0.4341  0.4407  0.6622
24476SOL     OW75869   7.720   3.844   0.209  0.5053  0.6580  0.2107
24476SOL    HW175870   7.636   3.817   0.247 -0.2194  1.0543 -1.0637
24476SOL    HW275871   7.748   3.918   0.262 -0.0329  0.6180  0.5598
24477SOL     OW75872  10.294   6.620   7.638 -0.1075  0.7720  0.5340
24477SOL    HW175873  10.280   6.712   7.661  1.6746  1.0739  0.5480
24477SOL    HW275874  10.384   6.602   7.664 -0.6914 -1.2551  1.3299
24478SOL     OW75875   8.360   4.138   3.481 -0.1779 -0.3129 -0.4394
24478SOL    HW175876   8.396   4.155   3.394 -1.3281 -2.2629 -1.3442
24478SOL    HW275877   8.339   4.045   3.481 -0.6204 -0.2677  1.7840
24479SOL     OW75878  10.186   4.326   7.936  0.0990  0.2970  0.3581
24479SOL    HW175879  10.097   4.351   7.909 -0.3610 -1.7522 -0.1784
24479SOL    HW275880  10.230   4.302   7.855  0.5219 -0.5312  0.8259
24480SOL     OW75881   2.473   8.320   5.694  0.0541  0.6645 -0.3308
24480SOL    HW175882   2.427   8.312   5.778  1.1739 -0.4935  0.2068
24480SOL    HW275883   2.498   8.230   5.672  0.5106  1.0595 -1.4848
24481SOL     OW75884  10.200   1.919   9.831  0.2937 -0.2744  0.0578
24481SOL    HW175885  10.212   1.967   9.912 -0.0994  0.5679 -0.3659
24481SOL    HW275886  10.287   1.916   9.791  0.8677 -2.2676  1.3308
24482SOL     OW75887   0.538  10.357   9.914  0.5314 -0.2363 -0.1767
24482SOL    HW175888   0.518  10.276   9.960 -0.7054  0.4563  0.5615
24482SOL    HW275889   0.633  10.365   9.920  0.6555 -1.5361 -0.1267
24483SOL     OW75890   1.632   9.827   1.217  0.5979  0.0240  0.3875
24483SOL    HW175891   1.703   9.876   1.176  1.0743 -2.9042 -2.7262
24483SOL    HW275892   1.676   9.769   1.279  1.0259 -1.6451 -1.3933
24484SOL     OW75893   5.053   5.022  10.005  0.3584 -0.0497  0.4540
24484SOL    HW175894   5.106   4.973  10.067  1.2681 -1.3684 -1.2614
24484SOL    HW275895   4.988   4.959   9.973 -1.9810  1.3727  2.0869
24485SOL     OW75896   5.327   2.986   6.088  0.6057 -0.4364  0.5641
24485SOL    HW175897   5.390   3.052   6.115 -0.5244  0.6584  0.6185
24485SOL    HW275898   5.349   2.967   5.997 -0.7976  2.1826 -0.4151
24486SOL     OW75899   1.496   2.522   2.438 -0.0484  0.8371  0.3711
24486SOL    HW175900   1.491   2.550   2.347  1.0963  1.2170  0.4159
24486SOL    HW275901   1.573   2.567   2.474 -0.8119  1.1600  1.6879
24487SOL     OW75902   9.116   8.755   8.459  0.1937  0.7650 -0.5851
24487SOL    HW175903   9.142   8.751   8.551 -0.5443 -0.1509 -0.3936
24487SOL    HW275904   9.070   8.839   8.450  0.3078  0.8761 -0.1291
24488SOL     OW75905   3.292   1.636   8.194  0.2357 -0.2630  0.1674
24488SOL    HW175906   3.298   1.629   8.099 -2.2314 -0.7283 -0.0122
24488SOL    HW275907   3.368   1.586   8.226  1.4071  0.3432 -1.5242
24489SOL     OW75908   7.415   7.414   0.019 -0.4219  0.0038 -0.6569
24489SOL    HW175909   7.345   7.349   0.014 -1.5706  1.1965 -0.7806
24489SOL    HW275910   7.469   7.385   0.092 -2.2633  0.1617  0.8488
24490SOL     OW75911   5.546   2.686   9.182 -0.1750 -0.2746 -0.8108
24490SOL    HW175912   5.585   2.606   9.215 -2.7825 -0.9567  0.9149
24490SOL    HW275913   5.471   2.657   9.130 -0.5448  1.0131 -1.0409
24491SOL     OW75914   6.878   2.926   3.902  0.0817 -0.0644 -0.0341
24491SOL    HW175915   6.973   2.917   3.892  0.3335 -2.3995  3.1115
24491SOL    HW275916   6.842   2.846   3.864 -0.5275  0.2053 -0.0294
24492SOL     OW75917   0.431   5.151  10.152 -0.3938  0.5654 -0.1561
24492SOL    HW175918   0.505   5.203  10.120  0.7175 -0.9462 -0.1308
24492SOL    HW275919   0.359   5.214  10.159  0.0523  1.5197 -2.9742
24493SOL     OW75920  10.201   3.532   3.934  0.2764 -0.2450  0.1767
24493SOL    HW175921  10.238   3.554   4.020 -0.3280  1.0152  0.1271
24493SOL    HW275922  10.229   3.603   3.877 -1.1034  0.0336 -0.1751
24494SOL     OW75923   3.700   9.341   9.794 -0.1804 -0.3398  0.1002
24494SOL    HW175924   3.699   9.421   9.847  1.6759 -1.0319  1.3156
24494SOL    HW275925   3.683   9.370   9.705  1.4632  1.6060  0.3371
24495SOL     OW75926   7.998   7.512   2.031 -0.4145 -0.2622 -0.0796
24495SOL    HW175927   8.045   7.585   2.072 -1.4781  0.5441 -0.2474
24495SOL    HW275928   7.932   7.486   2.096 -1.1963  0.1055 -0.7054
24496SOL     OW75929   4.706   2.278  10.020  0.3629  0.3946 -0.3251
24496SOL    HW175930   4.780   2.329  10.053  0.7857 -1.1414  1.2501
24496SOL    HW275931   4.672   2.330   9.948  2.0081  1.9036 -0.0945
24497SOL     OW75932   5.749   2.831   0.265 -0.2616 -0.3008 -0.6323
24497SOL    HW175933   5.670   2.864   0.309  0.0738  0.4902 -0.6093
24497SOL    HW275934   5.810   2.813   0.337  0.5690  1.7318 -0.7735
24498SOL     OW75935   2.587   5.232   2.754  0.1472  0.5198  0.2464
24498SOL    HW175936   2.555   5.249   2.842  0.2255  1.0568  0.1727
24498SOL    HW275937   2.623   5.315   2.724  0.7998  0.1602 -0.0113
24499SOL     OW75938   7.473   9.334   8.184  0.1491  0.2232  0.3990
24499SOL    HW175939   7.441   9.420   8.213  1.3847  0.7157  0.3571
24499SOL    HW275940   7.455   9.276   8.258 -0.3829  0.5920  0.5647
24500SOL     OW75941   4.156   3.304   3.055 -0.1110  0.6102  0.0919
24500SOL    HW175942   4.100   3.320   3.131  1.1390 -0.1003  1.2076
24500SOL    HW275943   4.172   3.209   3.057  0.1878  0.6281 -0.8894
24501SOL     OW75944   4.364   9.793   9.578  0.1433 -0.0177  0.0809
24501SOL    HW175945   4.394   9.736   9.649 -0.2220  0.1272  0.3523
24501SOL    HW275946   4.272   9.810   9.598  0.0133 -0.0464 -0.4745
24502SOL     OW75947   7.983   6.072   5.515  0.3905 -0.2693  0.0499
24502SOL    HW175948   8.078   6.074   5.504  0.2914  1.4511 -0.9351
24502SOL    HW275949   7.951   6.030   5.435  0.2997 -0.4990  0.2061
24503SOL     OW75950   4.986   1.293   9.497  0.6174  0.5341 -0.0992
24503SOL    HW175951   4.935   1.363   9.456  0.2331  0.8546  0.8868
24503SOL    HW275952   5.072   1.332   9.512  0.3709  0.8400  0.5472
24504SOL     OW75953   4.142   0.251   9.769 -0.4855  0.8301 -0.5429
24504SOL    HW175954   4.060   0.284   9.806 -0.5029 -0.8733  1.1773
24504SOL    HW275955   4.115   0.195   9.697 -0.7111  1.5867 -1.0484
24505SOL     OW75956   2.182   1.584   0.404  0.2270  0.0425  0.1202
24505SOL    HW175957   2.220   1.656   0.354 -0.1308  1.8624  2.2807
24505SOL    HW275958   2.090   1.608   0.414 -0.0714 -1.1114  0.2735
24506SOL     OW75959   3.628   9.088   5.296  0.4850 -0.0551  0.6624
24506SOL    HW175960   3.602   9.011   5.346  3.5741 -1.3195  0.5352
24506SOL    HW275961   3.667   9.053   5.216  2.4021  1.5721  0.8164
24507SOL     OW75962   4.404   1.430   0.388  0.6966  0.0725 -0.2831
24507SOL    HW175963   4.473   1.436   0.322  1.0385  0.3503  0.0961
24507SOL    HW275964   4.440   1.475   0.465  0.9874 -1.6620  0.6613
24508SOL     OW75965   3.195   1.695   6.197  0.0558  0.0960 -0.4239
24508SOL    HW175966   3.169   1.633   6.265  1.2092 -0.4952 -0.4911
24508SOL    HW275967   3.243   1.763   6.244  1.2764 -0.5608 -0.6667
24509SOL     OW75968   8.898   8.013   8.036  0.1761  0.4666  0.5622
24509SOL    HW175969   8.819   7.971   8.069 -0.0140  0.1288 -0.2973
24509SOL    HW275970   8.868   8.097   8.002  0.1067  0.1725 -0.1261
24510SOL     OW75971   3.992   2.678   7.193  0.4943 -0.1895 -0.1916
24510SOL    HW175972   4.003   2.719   7.107  0.0805  0.6003  0.1219
24510SOL    HW275973   4.082   2.667   7.225  0.6584 -0.7022 -0.8199
24511SOL     OW75974   1.613   1.300   7.619  0.0959 -0.0089  0.2053
24511SOL    HW175975   1.707   1.300   7.638  0.4093 -0.9822 -1.1329
24511SOL    HW275976   1.578   1.227   7.669  0.1373  0.0716  0.3519
24512SOL     OW75977   0.888  10.448   2.737 -0.5592 -0.5213  0.2757
24512SOL    HW175978   0.983  10.440   2.738 -0.5806 -1.1102  2.0020
24512SOL    HW275979   0.858  10.388   2.806 -2.0206  1.2177  1.2478
24513SOL     OW75980   5.382   2.518   7.940  0.1055 -0.0721 -0.3106
24513SOL    HW175981   5.293   2.484   7.937 -0.7812  2.0391 -0.1610
24513SOL    HW275982   5.391   2.556   8.028 -1.2389  5.2441 -2.0675
24514SOL     OW75983   2.172   9.313   9.666 -0.1802 -0.1833 -0.2696
24514SOL    HW175984   2.222   9.281   9.590 -1.8520 -1.3616 -0.9302
24514SOL    HW275985   2.083   9.325   9.633 -1.1923 -1.6817  1.6975
24515SOL     OW75986   4.046   7.350   6.942 -0.1742  0.4067 -0.2703
24515SOL    HW175987   4.073   7.315   7.027 -2.3286 -1.1670 -0.1592
24515SOL    HW275988   4.007   7.435   6.962  1.4518  1.1291 -0.0246
24516SOL     OW75989   2.375   0.466   1.231 -0.0755  0.8739 -0.0944
24516SOL    HW175990   2.380   0.547   1.180  0.6536 -0.1829 -1.7855
24516SOL    HW275991   2.287   0.468   1.269 -1.0672  1.2627 -2.2318
24517SOL     OW75992   2.062   0.985   0.769 -0.0245  0.5458  0.3038
24517SOL    HW175993   2.040   0.968   0.861 -0.8487 -0.8350 -0.1125
24517SOL    HW275994   2.132   0.923   0.748  1.2581  1.9138  0.3946
24518SOL     OW75995   2.078   3.058   3.381  0.0109 -0.4055 -0.0491
24518SOL    HW175996   2.010   3.085   3.443  1.0977  0.1873  0.9346
24518SOL    HW275997   2.155   3.040   3.436  0.9476 -0.0809 -1.2042
24519SOL     OW75998   3.322   6.686   0.597  0.3599 -0.1905  0.0888
24519SOL    HW175999   3.259   6.615   0.603 -0.1892  0.4015  2.6319
24519SOL    HW276000   3.404   6.648   0.629  0.3729 -0.0076  0.2744
24520SOL     OW76001   4.584   6.761   7.601  0.2014 -0.6430 -0.4269
24520SOL    HW176002   4.505   6.777   7.652  0.5632 -1.8463  0.5580
24520SOL    HW276003   4.603   6.845   7.560 -0.8629  0.0039  0.3391
24521SOL     OW76004   5.099   0.786   8.374  0.4425  0.0787  0.0559
24521SOL    HW176005   5.177   0.757   8.420 -0.3400 -3.4895 -0.5129
24521SOL    HW276006   5.114   0.760   8.283 -0.0782  2.4306 -0.7764
24522SOL     OW76007   5.270   6.801  10.402 -0.0853 -0.1947 -0.6831
24522SOL    HW176008   5.303   6.768  10.319  1.7546 -1.4062  0.4649
24522SOL    HW276009   5.348   6.822  10.453 -1.1722  0.9696  0.5932
24523SOL     OW76010   1.287   9.738   4.438  0.2557  0.0676 -0.0299
24523SOL    HW176011   1.296   9.788   4.519  0.6568  1.2674 -0.7883
24523SOL    HW276012   1.345   9.783   4.376  1.4865 -1.9851 -0.4549
24524SOL     OW76013   6.298   6.997   8.209 -0.3545 -0.0035  0.5059
24524SOL    HW176014   6.379   7.023   8.166 -1.2933  0.7246 -0.8979
24524SOL    HW276015   6.322   6.985   8.301  1.2946  0.3633  0.1493
24525SOL     OW76016   7.742   6.436   0.466 -0.1103  0.1851 -0.0432
24525SOL    HW176017   7.794   6.498   0.415  0.1364  0.0722  0.0647
24525SOL    HW276018   7.788   6.352   0.455 -2.0085 -0.6538 -2.5832
24526SOL     OW76019   9.967   9.668   3.524  0.0521 -0.2100  0.2583
24526SOL    HW176020   9.884   9.637   3.488 -0.4387 -1.1368  2.0825
24526SOL    HW276021  10.025   9.672   3.448 -0.4716 -3.6327 -0.5101
24527SOL     OW76022   6.123   9.097   1.252 -0.0159  0.0606  0.3144
24527SOL    HW176023   6.215   9.122   1.248  0.6055 -1.6209  2.1947
24527SOL    HW276024   6.101   9.101   1.345 -1.8264  0.3349 -0.0884
24528SOL     OW76025   2.853   3.616   7.585 -0.3964  0.0211  0.1994
24528SOL    HW176026   2.823   3.688   7.641  0.1499 -0.3165  0.9373
24528SOL    HW276027   2.772   3.584   7.544 -0.8475  0.1257  0.9727
24529SOL     OW76028   0.423   3.011   3.405 -0.8546  0.3959 -0.1754
24529SOL    HW176029   0.394   2.928   3.370  0.9273 -0.5494  0.4530
24529SOL    HW276030   0.470   2.988   3.485 -2.6552  2.2492  1.5407
24530SOL     OW76031  10.270   8.028   9.791  0.4411 -0.0421 -0.9586
24530SOL    HW176032  10.239   8.117   9.777  0.8089 -0.0362 -1.8385
24530SOL    HW276033  10.199   7.973   9.757 -0.1334 -0.1122  0.3200
24531SOL     OW76034   3.017   1.344   1.552 -0.6244  0.0660  0.3465
24531SOL    HW176035   3.001   1.367   1.460  1.1053 -0.7598 -0.1955
24531SOL    HW276036   2.973   1.260   1.563 -2.1046  0.8450  0.7400
24532SOL     OW76037   8.861   1.896   2.015  0.3346 -0.2843  0.1627
24532SOL    HW176038   8.799   1.918   2.085  0.5395  1.9292 -0.2921
24532SOL    HW276039   8.935   1.955   2.029  0.2825  0.3843 -2.0119
24533SOL     OW76040   3.655   3.588   4.300  0.5079 -0.2140 -0.3993
24533SOL    HW176041   3.645   3.562   4.208  0.3804  0.3435 -0.5455
24533SOL    HW276042   3.641   3.507   4.349 -0.1005 -0.3847 -0.8357
24534SOL     OW76043   8.193   1.520   7.286  0.4310 -0.2649 -0.2650
24534SOL    HW176044   8.268   1.499   7.231 -0.1275 -0.0788 -1.1030
24534SOL    HW276045   8.144   1.438   7.293 -0.2570  0.0585 -1.2284
24535SOL     OW76046   3.667   8.354   2.656 -0.2025 -0.3081 -0.0886
24535SOL    HW176047   3.583   8.332   2.698 -0.5612  0.4494 -0.3848
24535SOL    HW276048   3.702   8.425   2.708  0.6860 -1.1960  0.5429
24536SOL     OW76049   0.816   0.467   7.752 -0.2471 -0.0672  0.3930
24536SOL    HW176050   0.860   0.472   7.837  0.7921  0.1030 -0.1406
24536SOL    HW276051   0.853   0.539   7.702 -0.1943 -0.7120 -0.5075
24537SOL     OW76052   2.258   4.437   0.837  0.0661  0.0401 -0.4004
24537SOL    HW176053   2.242   4.467   0.748 -1.3903  0.1470 -0.1282
24537SOL    HW276054   2.346   4.469   0.858 -0.3508  1.7473 -1.1072
24538SOL     OW76055   1.032   7.798  10.444 -0.1883 -0.3709  0.2641
24538SOL    HW176056   0.944   7.824  10.471  0.7090 -0.6377  3.8580
24538SOL    HW276057   1.025   7.704  10.426 -1.0624  0.0464 -1.9115
24539SOL     OW76058   9.099   6.501   2.422 -0.0807  0.3480  0.0512
24539SOL    HW176059   9.078   6.412   2.393 -0.4817 -0.1674  1.8399
24539SOL    HW276060   9.025   6.554   2.391  1.2202  0.5837 -3.0556
24540SOL     OW76061   1.345   5.782   2.392  0.4427  0.1366  0.4498
24540SOL    HW176062   1.314   5.727   2.321 -0.8024  1.7619 -0.3181
24540SOL    HW276063   1.313   5.738   2.471  0.8137 -1.0421 -0.0261
24541SOL     OW76064   3.967   1.306   5.499  0.0476 -0.1564  0.1094
24541SOL    HW176065   3.928   1.366   5.435  0.0618  1.5839  1.6255
24541SOL    HW276066   4.059   1.331   5.501 -0.0577  0.2085  1.1680
24542SOL     OW76067   6.507   5.422   2.489  0.8411  0.2175 -0.3346
24542SOL    HW176068   6.431   5.372   2.519 -1.1710  2.3257 -1.6948
24542SOL    HW276069   6.543   5.369   2.417  0.8242 -0.8832  0.4339
24543SOL     OW76070   3.935   4.372   2.412 -0.6288 -0.8999  0.3952
24543SOL    HW176071   3.966   4.431   2.481 -0.4537  2.5268 -2.3226
24543SOL    HW276072   3.840   4.382   2.412 -0.5078  0.5471 -0.9251
24544SOL     OW76073   4.337   7.274   3.243  0.0106  0.2222  0.0464
24544SOL    HW176074   4.350   7.358   3.199 -2.9581  1.4546  1.2569
24544SOL    HW276075   4.333   7.296   3.336 -0.9591 -1.2233  0.3824
24545SOL     OW76076   8.148   7.747   2.103  0.1533  0.6360 -0.1731
24545SOL    HW176077   8.217   7.729   2.039  0.5467  1.7670 -0.0854
24545SOL    HW276078   8.164   7.837   2.131 -0.8393  0.6170  0.5008
24546SOL     OW76079   3.723   8.385   0.880  0.3756 -0.6681 -0.7321
24546SOL    HW176080   3.687   8.444   0.946  1.1964 -0.0322 -0.8408
24546SOL    HW276081   3.646   8.344   0.841 -0.2964  1.1426 -1.4158
24547SOL     OW76082   8.374   7.048   9.261 -0.2066 -0.1481  0.5442
24547SOL    HW176083   8.442   7.000   9.214  1.2945  0.7510  1.7426
24547SOL    HW276084   8.331   7.101   9.193  0.8910 -0.0432 -0.0841
24548SOL     OW76085   6.593   3.131   6.851 -0.4196  0.0989  0.2985
24548SOL    HW176086   6.681   3.149   6.882 -1.2349  1.0603  2.2154
24548SOL    HW276087   6.551   3.082   6.922 -1.4752 -0.2623 -0.5334
24549SOL     OW76088   9.217   0.558   1.953  0.1112  0.0288 -0.5523
24549SOL    HW176089   9.312   0.549   1.943  0.3671  1.4748  0.2786
24549SOL    HW276090   9.193   0.487   2.012  0.8349  0.1875 -0.0447
24550SOL     OW76091   3.304   2.482   7.203 -0.4784  0.1391 -0.0189
24550SOL    HW176092   3.377   2.513   7.150 -0.6025 -0.4861 -0.5755
24550SOL    HW276093   3.231   2.540   7.181 -0.5477 -0.1553 -0.5971
24551SOL     OW76094   2.168   8.760   7.706  0.3889  0.1660  0.2958
24551SOL    HW176095   2.211   8.715   7.779 -0.6802 -1.4441 -0.0133
24551SOL    HW276096   2.221   8.737   7.629 -0.5914 -1.2898  0.0149
24552SOL     OW76097   4.652   9.522   5.612 -0.6709  0.1021 -0.1473
24552SOL    HW176098   4.614   9.450   5.562 -2.4244 -0.3089  1.6366
24552SOL    HW276099   4.578   9.576   5.638  0.5825  2.6091 -1.3557
24553SOL     OW76100   3.782   7.871   4.271 -0.3438  0.4786 -0.4361
24553SOL    HW176101   3.839   7.842   4.342  1.5025  0.7759 -1.6985
24553SOL    HW276102   3.698   7.890   4.312  0.5667  0.3189  1.5861
24554SOL     OW76103  10.204   6.208   5.908 -0.1527  0.3792  0.2185
24554SOL    HW176104  10.263   6.241   5.976  2.7354 -0.2525 -1.7797
24554SOL    HW276105  10.166   6.286   5.869  1.2415  1.0062  0.0371
24555SOL     OW76106   9.397   1.870   2.818  0.0577  0.2045  0.4343
24555SOL    HW176107   9.492   1.855   2.813 -0.0096 -0.2593  0.4601
24555SOL    HW276108   9.359   1.794   2.773 -0.3186  0.0288  1.0348
24556SOL     OW76109   3.087   7.686   6.355  0.5626  0.1164 -0.0561
24556SOL    HW176110   3.171   7.663   6.316 -1.0404 -0.8305 -3.3581
24556SOL    HW276111   3.032   7.609   6.340 -1.3231  1.2767  0.5757
24557SOL     OW76112   5.421   6.567   1.567 -0.4297 -0.3283 -0.0540
24557SOL    HW176113   5.458   6.539   1.484 -0.4106 -0.0864 -0.1280
24557SOL    HW276114   5.360   6.498   1.591 -1.1618  0.0582 -0.7480
24558SOL     OW76115   7.047   6.688   0.048  0.3697  0.1727 -0.2313
24558SOL    HW176116   7.023   6.722  -0.038 -0.2117 -0.3900 -0.2973
24558SOL    HW276117   6.969   6.642   0.079 -0.1458  2.1156  1.5268
24559SOL     OW76118   6.854   6.175   1.237 -0.0808  0.0685 -0.1724
24559SOL    HW176119   6.937   6.187   1.190  0.2533  1.4843  0.7118
24559SOL    HW276120   6.880   6.167   1.329 -0.7044 -2.8519 -0.1461
24560SOL     OW76121   0.906   5.684   9.868 -0.0537 -0.7075 -0.0513
24560SOL    HW176122   0.830   5.732   9.835 -2.2860 -2.1790  2.5740
24560SOL    HW276123   0.924   5.618   9.801 -0.1875  0.4666 -1.2980
24561SOL     OW76124   2.390   2.074   1.421 -0.5409  0.1042  0.2722
24561SOL    HW176125   2.397   2.120   1.505  0.1360  0.6181 -0.0568
24561SOL    HW276126   2.425   2.135   1.357  0.6335 -0.9564 -0.1393
24562SOL     OW76127   0.798   2.918   6.450 -0.0465 -0.2105 -0.0290
24562SOL    HW176128   0.844   2.995   6.483 -0.6348  0.7811 -1.4131
24562SOL    HW276129   0.860   2.876   6.391 -0.5433  0.6343 -1.2069
24563SOL     OW76130   3.743   0.816   6.482 -0.1279  0.1341  0.1217
24563SOL    HW176131   3.695   0.741   6.518 -1.3530  0.5800 -0.5290
24563SOL    HW276132   3.747   0.797   6.388 -0.3011  0.8129 -0.0218
24564SOL     OW76133   8.901   5.289   3.376  0.2516  0.0203  0.0633
24564SOL    HW176134   8.885   5.357   3.311  1.6942  0.0885 -0.2517
24564SOL    HW276135   8.898   5.207   3.326 -1.6701 -0.2057  0.4734
24565SOL     OW76136   8.317   9.067   8.384 -0.3221 -0.3694 -0.3494
24565SOL    HW176137   8.283   9.017   8.459  0.6432  0.3861  0.6278
24565SOL    HW276138   8.398   9.022   8.360  0.0134  0.1133 -0.1340
24566SOL     OW76139   0.571   1.889   9.825 -0.3045 -0.2163 -0.3112
24566SOL    HW176140   0.638   1.946   9.864  0.7658 -1.8015  0.2668
24566SOL    HW276141   0.591   1.888   9.732  1.5689 -1.9393  0.0349
24567SOL     OW76142   3.190   9.020   3.017  0.6694 -0.7840 -0.4940
24567SOL    HW176143   3.119   9.015   2.953  0.3351 -0.6552 -0.1337
24567SOL    HW276144   3.171   9.099   3.067  1.8970  0.1181 -1.3863
24568SOL     OW76145   3.343   9.120   4.732  0.0689  0.1645 -0.3380
24568SOL    HW176146   3.327   9.155   4.644  0.4344  0.5589 -0.2465
24568SOL    HW276147   3.414   9.173   4.767  0.0454 -0.1081  0.1319
24569SOL     OW76148   4.091   3.057   6.070 -0.4253  0.2343  0.1788
24569SOL    HW176149   4.048   3.028   5.989 -0.6258 -0.4267  0.5128
24569SOL    HW276150   4.033   3.027   6.140  1.3778 -2.2741  0.7554
24570SOL     OW76151  10.174   0.604   6.971  0.0876  0.2711  0.1764
24570SOL    HW176152  10.269   0.593   6.963 -0.1164 -0.2768 -2.3740
24570SOL    HW276153  10.164   0.680   7.028  2.0258  0.2527  0.6486
24571SOL     OW76154   2.705   2.893   3.769 -0.4849  0.0221 -0.5004
24571SOL    HW176155   2.781   2.948   3.748 -0.2851  0.3551  0.9290
24571SOL    HW276156   2.737   2.835   3.839 -1.2475 -0.5880 -0.6461
24572SOL     OW76157   1.983   9.566   2.214 -0.1047  0.2108  0.6247
24572SOL    HW176158   1.982   9.662   2.218  1.3793  0.3397 -0.7368
24572SOL    HW276159   2.016   9.547   2.126 -0.7858 -1.5614  0.7265
24573SOL     OW76160   7.023   9.766   5.340 -0.3910 -0.4618  0.0732
24573SOL    HW176161   7.091   9.747   5.275  2.1025 -1.0141  2.6803
24573SOL    HW276162   6.941   9.740   5.297  1.2732 -2.2026 -2.2729
24574SOL     OW76163   6.017   2.684   6.657  0.7197  0.5376 -0.1903
24574SOL    HW176164   6.102   2.640   6.649  0.2939 -0.2614 -0.4288
24574SOL    HW276165   5.975   2.669   6.572  0.6753  1.6594 -0.3769
24575SOL     OW76166   0.304   7.004   7.581  0.5046  0.0628 -0.0172
24575SOL    HW176167   0.293   7.011   7.486  0.6881 -2.0728 -0.2553
24575SOL    HW276168   0.242   7.067   7.618  0.2893  0.7840 -1.5364
24576SOL     OW76169   0.311   2.534   9.701  0.2951  0.9805  0.1717
24576SOL    HW176170   0.304   2.628   9.682 -0.1791  0.7255 -0.9983
24576SOL    HW276171   0.220   2.504   9.706  0.4185  0.1954 -1.6008
24577SOL     OW76172   9.085   8.933   6.600  0.1252  0.3338 -0.0574
24577SOL    HW176173   9.160   8.879   6.625  0.1769 -0.3397 -1.5749
24577SOL    HW276174   9.039   8.949   6.683  2.3239  1.4489  1.0372
24578SOL     OW76175   3.546   1.702   0.064 -0.1600  0.0704  0.1101
24578SOL    HW176176   3.452   1.711   0.080 -0.3380 -0.7727 -0.3997
24578SOL    HW276177   3.587   1.746   0.139 -0.9656 -1.4688  1.5140
24579SOL     OW76178   0.508  10.213   7.320  0.1277 -0.4152  0.1354
24579SOL    HW176179   0.560  10.282   7.278  0.8494  0.1472  1.8685
24579SOL    HW276180   0.555  10.132   7.299 -0.0179 -0.2541 -0.8549
24580SOL     OW76181   6.922   5.634   9.746 -0.0785 -0.2109 -0.0686
24580SOL    HW176182   6.990   5.614   9.682 -0.5330  0.5500 -0.8227
24580SOL    HW276183   6.893   5.549   9.779  0.8485 -0.5624 -0.1466
24581SOL     OW76184   5.863   5.047   9.004  0.3024  0.2207 -0.5248
24581SOL    HW176185   5.774   5.014   8.986 -0.2127  1.1557  0.1964
24581SOL    HW276186   5.913   5.024   8.926 -1.1420  1.6724 -1.9746
24582SOL     OW76187   5.836   4.910   7.751 -0.6489  0.3699 -0.1664
24582SOL    HW176188   5.789   4.863   7.821  1.2898 -3.4028 -1.0966
24582SOL    HW276189   5.768   4.955   7.702 -2.4881  0.1516  2.0242
24583SOL     OW76190   2.921   7.205   0.244 -0.3349 -0.1875  0.0074
24583SOL    HW176191   2.905   7.257   0.323 -1.6890 -1.1183  0.3861
24583SOL    HW276192   2.957   7.268   0.181 -0.9895  0.9961  0.7597
24584SOL     OW76193   9.092   2.254   0.706  0.1541 -0.5273 -0.5054
24584SOL    HW176194   9.179   2.287   0.729  0.0703  0.3769 -1.4026
24584SOL    HW276195   9.087   2.263   0.611 -2.1588  2.8147 -0.2422
24585SOL     OW76196   6.983   9.497   8.482  0.6610  0.0041  0.4961
24585SOL    HW176197   6.989   9.502   8.386  1.8755  0.0722  0.5624
24585SOL    HW276198   6.908   9.440   8.498 -0.1698  0.7753 -0.4773
24586SOL     OW76199   8.565   5.853   8.798 -0.4077 -0.0018  0.2232
24586SOL    HW176200   8.487   5.906   8.786 -0.6496 -0.2514  0.6811
24586SOL    HW276201   8.533   5.769   8.831 -0.0552 -0.5231 -0.7180
24587SOL     OW76202   0.049   6.599   6.331 -0.3166 -0.2651  0.6168
24587SOL    HW176203   0.033   6.533   6.264  0.1339  0.4489 -0.2081
24587SOL    HW276204  -0.021   6.587   6.394 -1.4842 -0.1385 -0.6193
24588SOL     OW76205   8.514   9.966   7.640  0.5680 -0.2710 -0.6095
24588SOL    HW176206   8.546  10.055   7.650 -0.1371 -0.0981  0.2440
24588SOL    HW276207   8.461   9.950   7.718 -1.0447 -0.6996 -1.7219
24589SOL     OW76208   3.390   3.021   2.583  0.3145 -0.6242 -0.9270
24589SOL    HW176209   3.460   3.078   2.550 -0.1603  0.5239 -0.0154
24589SOL    HW276210   3.366   3.059   2.667  0.7078 -2.8226  0.2424
24590SOL     OW76211   4.512   2.617   3.141  0.3545  0.2785 -0.5072
24590SOL    HW176212   4.546   2.702   3.167  1.4442 -0.5716  1.0592
24590SOL    HW276213   4.522   2.615   3.046  0.0521  1.9742 -0.5994
24591SOL     OW76214   6.262   1.157   3.759 -0.2612  0.5279  0.9259
24591SOL    HW176215   6.178   1.134   3.797 -0.4223  0.7174  0.6845
24591SOL    HW276216   6.268   1.252   3.768  0.2418  0.4380  1.5902
24592SOL     OW76217   6.853   8.184   3.949  0.3538  0.6835 -0.5552
24592SOL    HW176218   6.916   8.185   4.021  0.1572 -0.4050 -0.3573
24592SOL    HW276219   6.797   8.260   3.966  0.8107  0.9064 -0.0064
24593SOL     OW76220   2.104   4.875   7.787 -0.2647 -0.1868  0.6778
24593SOL    HW176221   2.148   4.792   7.810 -0.5788  0.0669  2.2790
24593SOL    HW276222   2.035   4.849   7.726 -0.4657 -1.1432  1.2847
24594SOL     OW76223   9.193   7.720   3.499  0.2208  0.0390  0.7158
24594SOL    HW176224   9.266   7.724   3.561  1.0452  0.4349 -0.2474
24594SOL    HW276225   9.116   7.707   3.553  0.6873  2.1470  1.9923
24595SOL     OW76226   7.567   6.552   0.868 -0.2908  0.5034  0.2071
24595SOL    HW176227   7.494   6.509   0.912 -1.1381  0.5192 -1.1078
24595SOL    HW276228   7.529   6.585   0.786  1.5363 -0.9795 -1.3335
24596SOL     OW76229   9.859  10.291   8.349  0.2269 -0.1225 -0.5810
24596SOL    HW176230   9.863  10.315   8.442  0.0342 -0.1380 -0.5672
24596SOL    HW276231   9.843  10.373   8.304  1.2870  0.0313 -0.6884
24597SOL     OW76232   8.146  10.485   0.980  0.0494 -0.1830 -0.6277
24597SOL    HW176233   8.168  10.574   0.955 -0.5371 -0.2419 -1.3680
24597SOL    HW276234   8.070  10.462   0.926  1.6558 -1.9814 -2.3281
24598SOL     OW76235   0.982   6.002   6.208  0.1035 -0.6392  0.0207
24598SOL    HW176236   0.966   6.013   6.302  1.7521  0.9869  0.1622
24598SOL    HW276237   0.905   6.039   6.166  0.9231  2.0846  0.7328
24599SOL     OW76238   6.696   8.480   4.520  0.0651 -0.0288 -0.5573
24599SOL    HW176239   6.746   8.401   4.499 -1.6342 -1.2042 -0.4107
24599SOL    HW276240   6.734   8.511   4.602  1.2017 -0.3018 -0.9648
24600SOL     OW76241   4.441   2.026   3.251  0.6979  0.4642  0.2927
24600SOL    HW176242   4.398   2.111   3.239 -1.7785 -0.7465  0.0099
24600SOL    HW276243   4.459   1.995   3.162 -0.4931 -0.2693  0.2865
24601SOL     OW76244   8.068   2.712   2.720  0.0706  0.0030  0.5817
24601SOL    HW176245   8.033   2.757   2.643 -0.0549 -0.3765  0.4149
24601SOL    HW276246   8.065   2.619   2.697  0.3431 -0.0904  0.9180
24602SOL     OW76247   7.211   3.379  10.288 -1.0669  0.1053  0.1272
24602SOL    HW176248   7.265   3.311  10.248  1.2055  1.4970  0.6469
24602SOL    HW276249   7.143   3.396  10.223  0.0609 -0.6142 -1.3138
24603SOL     OW76250   4.403   6.064   2.482 -0.7561 -0.7265 -0.6022
24603SOL    HW176251   4.472   6.130   2.482 -0.6968 -0.7880 -0.4517
24603SOL    HW276252   4.427   6.004   2.553 -0.7232 -1.0028 -0.8470
24604SOL     OW76253   6.706   1.171   7.213  0.6514  0.1477  0.0324
24604SOL    HW176254   6.676   1.243   7.268 -1.1380 -1.4535  1.3042
24604SOL    HW276255   6.759   1.212   7.145 -0.1177  2.6036  0.8304
24605SOL     OW76256   6.668   9.840   7.473  0.0241  0.8696 -0.2203
24605SOL    HW176257   6.754   9.841   7.515 -0.6016  1.4488  1.1375
24605SOL    HW276258   6.659   9.751   7.438  0.8524  0.5616  0.3198
24606SOL     OW76259   5.020   4.219   8.157  0.2236  0.1125  0.0824
24606SOL    HW176260   5.046   4.311   8.156  2.1466 -0.3787  0.4163
24606SOL    HW276261   4.967   4.209   8.236 -0.1460  0.9496 -0.0509
24607SOL     OW76262   0.750   1.531   1.593  0.6498  0.2402 -0.2964
24607SOL    HW176263   0.838   1.494   1.597 -0.1462 -1.7314  0.5024
24607SOL    HW276264   0.693   1.456   1.573 -1.1496  0.7685  2.2287
24608SOL     OW76265   4.847   5.161   4.383  0.3355 -0.2061  0.3534
24608SOL    HW176266   4.817   5.095   4.447 -0.7194 -1.0431 -0.9437
24608SOL    HW276267   4.805   5.242   4.412  0.4774 -0.3997  1.1447
24609SOL     OW76268   5.555   1.345   2.615  0.1731 -0.1689 -0.3571
24609SOL    HW176269   5.482   1.405   2.630  0.4349 -0.3329  1.9351
24609SOL    HW276270   5.516   1.258   2.618  0.5416 -0.3000  1.8163
24610SOL     OW76271   6.750   6.841   9.296  0.1627 -0.6583 -0.2948
24610SOL    HW176272   6.778   6.894   9.371 -1.7392 -1.2327  0.8966
24610SOL    HW276273   6.823   6.780   9.282  1.0392  0.2122  0.3513
24611SOL     OW76274   3.481   8.823   4.617  0.0957 -0.0714  0.4970
24611SOL    HW176275   3.447   8.839   4.706 -1.8179 -1.0777  0.0031
24611SOL    HW276276   3.418   8.865   4.559  1.7244  1.2185 -0.4105
24612SOL     OW76277   8.558   6.650   2.981 -0.2608 -0.2544 -0.1065
24612SOL    HW176278   8.630   6.592   3.006 -0.2910  0.1700  0.9986
24612SOL    HW276279   8.544   6.706   3.057  0.0191  1.4695 -1.2844
24613SOL     OW76280   4.979   7.596   2.084 -0.2583 -0.0080 -0.4521
24613SOL    HW176281   5.038   7.634   2.149 -0.7798 -1.9109  1.2339
24613SOL    HW276282   4.892   7.608   2.122 -0.6236 -0.6277 -1.0747
24614SOL     OW76283   2.434   7.984   1.274  0.2008 -0.4560 -0.2689
24614SOL    HW176284   2.498   7.964   1.205 -0.8510 -1.1444 -1.0665
24614SOL    HW276285   2.360   7.927   1.256  0.2970 -1.4600  2.0729
24615SOL     OW76286   1.271   9.146   3.029 -0.4212 -0.2872  0.0811
24615SOL    HW176287   1.183   9.133   3.066 -0.1054 -0.3507  0.8140
24615SOL    HW276288   1.269   9.097   2.946 -1.7183  1.3145 -0.9075
24616SOL     OW76289   7.760   8.897  10.292  1.1243  0.3235  0.0231
24616SOL    HW176290   7.827   8.953  10.332  0.8053  0.1998  0.7488
24616SOL    HW276291   7.709   8.863  10.366  0.0514  0.6713 -0.5227
24617SOL     OW76292   0.343   5.697   0.020 -0.2461 -0.3596 -0.1514
24617SOL    HW176293   0.346   5.601   0.013  0.3820 -0.3986  0.4853
24617SOL    HW276294   0.413   5.727  -0.038 -0.9503 -0.2358 -0.9579
24618SOL     OW76295   2.320   9.900   3.554  0.2359 -0.5124 -0.2951
24618SOL    HW176296   2.322   9.852   3.472  0.6804 -0.9504 -0.0359
24618SOL    HW276297   2.246   9.960   3.546 -0.5773 -1.5111 -0.4734
24619SOL     OW76298   1.157   0.937   0.854 -0.3305 -0.3202 -0.4364
24619SOL    HW176299   1.110   1.018   0.872 -0.4828 -0.5331  0.1560
24619SOL    HW276300   1.116   0.901   0.775 -1.4784 -0.7331  0.3276
24620SOL     OW76301   5.990   3.742   2.389 -0.4782  0.5189  0.1497
24620SOL    HW176302   6.041   3.756   2.469 -1.0233  1.7631  0.3104
24620SOL    HW276303   6.056   3.739   2.320 -0.0364 -0.0413  0.5847
24621SOL     OW76304   0.836   5.272   4.655  0.2392 -0.8305 -0.2786
24621SOL    HW176305   0.813   5.286   4.564  0.1270 -0.1487 -0.1502
24621SOL    HW276306   0.830   5.359   4.695 -1.1823 -1.3550  0.7165
24622SOL     OW76307   6.590   1.962   8.287 -0.1855  0.0299 -0.0417
24622SOL    HW176308   6.604   1.872   8.258 -0.5427 -0.1495  0.3230
24622SOL    HW276309   6.524   1.955   8.357 -1.4877  0.7377 -1.1360
24623SOL     OW76310   8.306   0.296   1.361 -0.2003 -0.1128 -0.1866
24623SOL    HW176311   8.369   0.245   1.311  0.5787  0.0070  0.6463
24623SOL    HW276312   8.220   0.265   1.332  0.2455 -0.4370 -1.1670
24624SOL     OW76313   5.491   1.084   5.868  0.4642 -0.5842  0.2466
24624SOL    HW176314   5.570   1.069   5.920  0.9998 -2.1545 -0.9444
24624SOL    HW276315   5.444   1.000   5.873 -0.9194  0.1762  0.5510
24625SOL     OW76316   1.895   0.843   0.586  0.2322 -0.6091 -0.2615
24625SOL    HW176317   1.964   0.895   0.628 -0.0025 -0.9399  0.5375
24625SOL    HW276318   1.891   0.878   0.497 -1.2123  2.0878  0.7520
24626SOL     OW76319   6.582   0.515   3.449 -0.4084  0.2416  0.1331
24626SOL    HW176320   6.488   0.535   3.457 -1.0011 -1.3514 -1.9301
24626SOL    HW276321   6.586   0.420   3.452  1.3993  0.2977  1.7814
24627SOL     OW76322   3.637  10.413   6.468  0.0094  0.2635 -0.7834
24627SOL    HW176323   3.695  10.388   6.396 -0.2625 -3.6018  0.1242
24627SOL    HW276324   3.662  10.355   6.541 -3.4565 -0.0836  0.3503
24628SOL     OW76325   0.994   9.776   1.609 -0.4873 -0.1475  0.3106
24628SOL    HW176326   0.946   9.704   1.568  1.5938 -0.8807 -0.9884
24628SOL    HW276327   1.034   9.736   1.687  0.0284 -0.2015  0.0205
24629SOL     OW76328   2.983   1.955   6.459  0.9154  0.0057 -0.0258
24629SOL    HW176329   3.045   1.881   6.461  0.3429 -0.4704  0.4634
24629SOL    HW276330   3.037   2.031   6.479  1.1240 -0.5707  1.7787
24630SOL     OW76331   9.009   1.496   8.772 -0.0086 -0.2941  0.2128
24630SOL    HW176332   9.042   1.407   8.783 -1.2772 -0.6690  1.3029
24630SOL    HW276333   8.927   1.485   8.724 -0.7240  0.1646  1.2963
24631SOL     OW76334   5.274   7.799   4.407  0.2281  0.0394  0.0866
24631SOL    HW176335   5.197   7.797   4.351  1.1488  0.4145 -1.2380
24631SOL    HW276336   5.246   7.756   4.488 -0.8112 -1.6061 -1.0869
24632SOL     OW76337   5.086   0.057   3.021  0.4545 -0.5436 -0.5261
24632SOL    HW176338   5.083  -0.038   3.030 -1.5163 -0.5411 -0.7942
24632SOL    HW276339   5.126   0.087   3.103  1.3256 -1.5960 -0.5459
24633SOL     OW76340   8.976   9.375   5.418  0.1552 -0.2608 -0.2112
24633SOL    HW176341   8.968   9.408   5.507  1.9436  1.0481 -0.4849
24633SOL    HW276342   8.934   9.441   5.364  1.6889  0.4962 -0.5520
24634SOL     OW76343   7.887   0.961   4.028  0.8528 -0.0123 -0.1185
24634SOL    HW176344   7.848   1.015   3.959  1.3508  1.3741  0.6588
24634SOL    HW276345   7.969   1.006   4.050  0.4695 -0.1419  1.7174
24635SOL     OW76346   0.909   6.025   1.394 -0.7399 -0.2214  0.1100
24635SOL    HW176347   0.913   6.108   1.347  0.0922  0.3937  1.2077
24635SOL    HW276348   0.976   5.970   1.353 -0.2572  0.1875  0.3331
24636SOL     OW76349   6.444   3.928   8.533 -0.4437 -0.3887 -0.4310
24636SOL    HW176350   6.527   3.888   8.560 -0.6990 -0.4219  0.3311
24636SOL    HW276351   6.428   3.996   8.599  0.1988  1.2928 -1.9238
24637SOL     OW76352  10.123   9.428   4.080 -0.2411  0.0556 -0.0465
24637SOL    HW176353  10.063   9.424   4.155 -1.5630  0.2071 -1.0645
24637SOL    HW276354  10.099   9.507   4.033  1.7638  0.9348  0.2867
24638SOL     OW76355   8.397   5.562   3.827  0.7689  0.4605  0.4242
24638SOL    HW176356   8.478   5.606   3.802  0.7025  1.0013  1.1437
24638SOL    HW276357   8.423   5.499   3.894  0.5083  1.0771  1.1169
24639SOL     OW76358   5.248   6.892   9.320  0.0020  0.0433  0.2562
24639SOL    HW176359   5.193   6.964   9.289  1.3637  1.0561  0.1187
24639SOL    HW276360   5.285   6.924   9.402  0.6620 -0.4794  0.1709
24640SOL     OW76361   8.927   9.346   8.174 -0.1247  0.4332 -0.5422
24640SOL    HW176362   8.866   9.286   8.131  0.2384 -2.0238  2.0923
24640SOL    HW276363   8.974   9.388   8.101 -2.2496 -0.4273 -2.5560
24641SOL     OW76364   1.571   3.009   9.053 -0.1013 -0.2315 -0.3619
24641SOL    HW176365   1.582   2.956   8.974  0.3346  2.3323 -2.1520
24641SOL    HW276366   1.519   3.084   9.025  0.3822  0.9681  1.6936
24642SOL     OW76367   7.417   2.631   5.176 -0.0486 -0.4699  0.1461
24642SOL    HW176368   7.365   2.555   5.199 -2.1919  0.8065 -0.2067
24642SOL    HW276369   7.369   2.673   5.104  2.5920 -0.3498 -1.7332
24643SOL     OW76370   4.893  10.373   6.912  0.0324 -0.2913  0.0460
24643SOL    HW176371   4.967  10.394   6.968  0.3906 -1.2068 -0.0653
24643SOL    HW276372   4.824  10.344   6.972 -0.0492  0.0181  0.1050
24644SOL     OW76373   0.710   6.617   5.807  0.1457  0.2325  0.1341
24644SOL    HW176374   0.678   6.623   5.717 -0.1472  3.3034  0.3241
24644SOL    HW276375   0.632   6.598   5.859  0.4273 -2.2628 -0.2378
24645SOL     OW76376   4.861   8.376   3.664 -0.1327 -0.2850  0.6859
24645SOL    HW176377   4.821   8.431   3.596  1.6219  0.5879  0.3008
24645SOL    HW276378   4.791   8.362   3.728 -1.2768  0.4722 -0.3576
24646SOL     OW76379   4.073   9.650   4.066  0.1042 -0.3083  0.2609
24646SOL    HW176380   4.106   9.594   3.996 -3.0234 -2.5697  0.3511
24646SOL    HW276381   3.999   9.696   4.027  0.1154  0.6389  1.3096
24647SOL     OW76382   4.951   3.415   4.784 -0.4663 -0.0760  0.1925
24647SOL    HW176383   5.024   3.354   4.796  1.1117  1.9017  1.4774
24647SOL    HW276384   4.939   3.455   4.871 -0.1975  2.6252 -0.8956
24648SOL     OW76385   3.535   8.124   4.898 -0.8536  0.4357 -0.4052
24648SOL    HW176386   3.485   8.059   4.949  1.6518 -1.0547  0.3231
24648SOL    HW276387   3.541   8.085   4.811 -0.5575  0.3786 -0.3583
24649SOL     OW76388   4.886   1.254   5.389  0.1877  0.2339 -0.2963
24649SOL    HW176389   4.967   1.296   5.418  0.4854  0.2869 -1.1703
24649SOL    HW276390   4.874   1.180   5.449  0.9840  0.1089 -0.2870
24650SOL     OW76391   0.209   5.577   0.912  0.2201  0.1135  0.0612
24650SOL    HW176392   0.163   5.620   0.984 -1.3325 -0.3966 -0.5741
24650SOL    HW276393   0.144   5.572   0.842  1.5726  0.2415 -1.2441
24651SOL     OW76394   5.859   6.698   1.988  0.0390 -0.0282  0.0792
24651SOL    HW176395   5.785   6.642   2.010  0.1862 -0.4948 -0.5752
24651SOL    HW276396   5.820   6.773   1.943 -0.1096  0.1402  0.4849
24652SOL     OW76397   1.480   9.954   9.896 -0.1047  0.2196 -0.3393
24652SOL    HW176398   1.451   9.882   9.841  0.5768  0.3993 -0.9539
24652SOL    HW276399   1.419   9.955   9.970  0.2154 -1.3446 -0.0205
24653SOL     OW76400   3.847   1.521   6.428  0.0051  0.1616 -0.1346
24653SOL    HW176401   3.855   1.527   6.333 -0.3075 -1.2448 -0.2866
24653SOL    HW276402   3.927   1.477   6.457 -0.0269  0.3308  0.2209
24654SOL     OW76403   1.184   8.575   0.880  0.0850  0.0001  0.0156
24654SOL    HW176404   1.198   8.498   0.935 -1.3033 -0.3654 -0.0977
24654SOL    HW276405   1.211   8.547   0.792 -0.8161 -0.5342 -0.1129
24655SOL     OW76406   1.724   9.757   6.077  0.4084 -0.1201 -0.3557
24655SOL    HW176407   1.818   9.742   6.085  0.5743  0.3889 -1.2338
24655SOL    HW276408   1.691   9.753   6.166  1.4639  0.9707  0.1088
24656SOL     OW76409   2.941   0.764   0.951 -0.6399 -0.2743 -0.1891
24656SOL    HW176410   3.031   0.733   0.934 -0.0698  1.5765 -0.8317
24656SOL    HW276411   2.901   0.769   0.864 -0.8378  0.3880 -0.0641
24657SOL     OW76412   6.018   6.076   6.750 -0.2706  0.2878 -0.5804
24657SOL    HW176413   6.070   6.048   6.825  0.6396  2.1806 -0.4469
24657SOL    HW276414   5.983   5.995   6.714  1.7213 -0.9676  0.1069
24658SOL     OW76415   9.578   3.750   7.527  0.4992  0.5653 -0.3231
24658SOL    HW176416   9.624   3.696   7.464  1.4772  0.7113  0.2519
24658SOL    HW276417   9.490   3.712   7.531  0.7664 -0.1402 -0.9181
24659SOL     OW76418   1.871   9.995   5.729 -0.5114 -0.2777 -0.7783
24659SOL    HW176419   1.811   9.928   5.696  0.5728 -0.2424 -3.0709
24659SOL    HW276420   1.820  10.076   5.730 -0.6681 -0.3345 -2.2490
24660SOL     OW76421   3.975   9.360   0.987 -0.5600 -0.0044  0.6492
24660SOL    HW176422   4.009   9.273   1.004 -1.1962  0.0784  2.5997
24660SOL    HW276423   3.999   9.411   1.064 -0.3290  1.5220 -0.3812
24661SOL     OW76424   4.444   4.639   4.249  0.4204  0.2230  0.6636
24661SOL    HW176425   4.481   4.723   4.278  1.3358  0.1433 -0.2142
24661SOL    HW276426   4.480   4.575   4.311  0.4343  0.3671  0.8054
24662SOL     OW76427   0.890   6.862   3.582 -0.3746  0.4512 -0.6477
24662SOL    HW176428   0.978   6.847   3.616 -1.3094  1.8919  2.8059
24662SOL    HW276429   0.869   6.782   3.534  1.9334 -0.9248  0.4613
24663SOL     OW76430   5.952   3.879   6.225 -0.0968 -0.4637 -0.2332
24663SOL    HW176431   6.031   3.932   6.237  0.1552 -0.8092 -0.3534
24663SOL    HW276432   5.936   3.880   6.131 -1.4412  1.3264 -0.0403
24664SOL     OW76433   7.934   9.520   4.358 -0.4543  0.3252 -0.4120
24664SOL    HW176434   8.019   9.486   4.388  0.3963  1.9383 -0.8502
24664SOL    HW276435   7.925   9.486   4.270  0.2749  0.9776 -0.7577
24665SOL     OW76436   8.594   9.492   9.910 -0.6714  0.4613  0.8667
24665SOL    HW176437   8.570   9.561   9.847  2.2871 -0.1904 -1.2024
24665SOL    HW276438   8.549   9.414   9.878  0.0546  0.3488  0.0856
24666SOL     OW76439   8.791   9.728   8.927  0.4268 -0.1052 -0.4823
24666SOL    HW176440   8.845   9.654   8.956  0.0235  0.4129  1.7208
24666SOL    HW276441   8.780   9.782   9.005 -1.5509  0.8826 -1.3800
24667SOL     OW76442   1.820   8.213   7.906  1.0492 -0.2956 -0.3662
24667SOL    HW176443   1.855   8.195   7.819  2.5778  0.5197  0.0497
24667SOL    HW276444   1.728   8.185   7.901  1.0297 -0.0125 -2.3102
24668SOL     OW76445   9.867   4.989   2.768 -0.2638 -0.1701  0.2762
24668SOL    HW176446   9.957   4.986   2.737  0.0196 -0.1031  1.0965
24668SOL    HW276447   9.839   5.079   2.751  0.5850  0.4772  2.1373
24669SOL     OW76448   1.099   1.832   4.604  0.3446 -0.0661  0.2208
24669SOL    HW176449   1.167   1.829   4.537  0.9670 -0.3049  0.8445
24669SOL    HW276450   1.081   1.925   4.616 -0.5886 -0.0619 -1.0687
24670SOL     OW76451   2.608  10.389   2.320 -0.4029 -0.3548  0.8316
24670SOL    HW176452   2.529  10.413   2.369 -0.3324  1.2241  0.2286
24670SOL    HW276453   2.630  10.468   2.271 -0.2269 -1.7246 -1.4356
24671SOL     OW76454   4.841   3.027   3.393 -0.4355 -0.8627  0.0934
24671SOL    HW176455   4.916   3.029   3.333 -0.7139 -0.7345 -0.2505
24671SOL    HW276456   4.881   3.025   3.481 -0.0146  1.0015 -0.0108
24672SOL     OW76457   8.758   5.228   8.957 -0.1768 -0.0496  0.8469
24672SOL    HW176458   8.820   5.165   8.919 -0.2684  0.3429  0.0178
24672SOL    HW276459   8.806   5.311   8.956 -0.2394 -0.0043  1.4638
24673SOL     OW76460   0.208   0.875   5.457  0.7285 -0.5240  0.1996
24673SOL    HW176461   0.131   0.883   5.400  0.3951  4.1244  0.9159
24673SOL    HW276462   0.281   0.904   5.403  1.5544 -2.0460  0.4308
24674SOL     OW76463   1.861   5.375   4.685 -0.2605  0.0193 -0.9020
24674SOL    HW176464   1.850   5.453   4.740  2.1031 -0.1852 -0.0478
24674SOL    HW276465   1.927   5.400   4.620 -0.0383 -1.0345 -1.1027
24675SOL     OW76466   5.283   3.932   6.977 -0.2106 -0.4546 -0.0102
24675SOL    HW176467   5.263   3.847   6.938 -0.0440 -0.2215 -0.6254
24675SOL    HW276468   5.280   3.917   7.071  0.1888 -1.2242 -0.1108
24676SOL     OW76469   1.574   8.072   7.969 -0.4379  0.0626  0.0156
24676SOL    HW176470   1.510   8.129   8.013  1.8027  3.3803 -0.6024
24676SOL    HW276471   1.642   8.057   8.035 -0.2653 -0.5789 -0.3034
24677SOL     OW76472   6.105   0.557  10.103 -0.0641  0.4057 -0.3125
24677SOL    HW176473   6.142   0.613  10.034 -0.8671 -0.0028 -1.0790
24677SOL    HW276474   6.108   0.469  10.068 -0.6594  0.2119  0.1004
24678SOL     OW76475   0.968   9.290   0.061 -0.5122 -0.4376  0.8339
24678SOL    HW176476   0.901   9.359   0.066  0.1580  0.3307 -0.3210
24678SOL    HW276477   0.952   9.248  -0.023  0.4685 -0.2234  0.5339
24679SOL     OW76478  10.203   5.291  10.242 -0.6118 -0.0002  0.0138
24679SOL    HW176479  10.286   5.322  10.276  0.8472 -2.8500 -0.6535
24679SOL    HW276480  10.137   5.333  10.298  1.2925  1.3635  1.3528
24680SOL     OW76481   2.392   1.415   2.590 -0.1857 -0.0225 -0.4046
24680SOL    HW176482   2.451   1.386   2.660  1.4788  0.4869 -1.5451
24680SOL    HW276483   2.306   1.415   2.631  0.8641  1.6329  2.1145
24681SOL     OW76484   3.279  10.454  10.046 -0.1784 -0.0383 -0.8648
24681SOL    HW176485   3.249  10.391  10.112 -0.8930  1.4922  0.3425
24681SOL    HW276486   3.371  10.430  10.030 -0.2447 -0.9739  0.0593
24682SOL     OW76487   6.667   5.769   0.348 -0.3350 -0.1924  0.0298
24682SOL    HW176488   6.603   5.795   0.282 -1.6831  0.6376  1.5717
24682SOL    HW276489   6.621   5.705   0.402  0.7074 -0.7949  0.2348
24683SOL     OW76490   9.910   3.566   5.948 -0.1764  0.3453  0.3555
24683SOL    HW176491   9.908   3.517   5.866  1.5314 -1.1986  1.1618
24683SOL    HW276492   9.861   3.646   5.929 -2.0155 -1.0745 -1.4016
24684SOL     OW76493   1.021   9.060   0.230  0.3128  0.1256  0.0169
24684SOL    HW176494   1.044   9.070   0.322 -1.7848  0.4006  0.5565
24684SOL    HW276495   1.020   9.150   0.196 -0.2712  0.1613  0.1079
24685SOL     OW76496   0.778   2.388   2.958 -0.1493 -0.2285  0.2387
24685SOL    HW176497   0.837   2.389   3.033  1.1294 -0.3250 -0.7397
24685SOL    HW276498   0.799   2.307   2.912 -0.0087  0.4329 -0.9048
24686SOL     OW76499   8.454   9.132   2.910  0.1933 -0.0121  0.4842
24686SOL    HW176500   8.468   9.144   3.004  0.7624 -0.0488  0.4053
24686SOL    HW276501   8.460   9.220   2.873  1.6743 -0.1790  0.2645
24687SOL     OW76502   0.120   8.223   3.572 -0.2691 -0.1121  0.3203
24687SOL    HW176503   0.066   8.295   3.607  0.5668  0.6734  0.0263
24687SOL    HW276504   0.166   8.262   3.498 -0.6058 -1.2553 -0.5099
24688SOL     OW76505  10.251   3.092   8.327  0.2076  0.0006  0.1839
24688SOL    HW176506  10.158   3.093   8.347  0.2235  0.9272  0.2683
24688SOL    HW276507  10.282   3.180   8.350  1.2256 -0.4732  0.7043
24689SOL     OW76508   3.014  10.393   3.198 -0.0823  0.4151 -0.3708
24689SOL    HW176509   3.035  10.370   3.288 -0.3417  1.9202  0.1054
24689SOL    HW276510   2.932  10.346   3.179 -0.4894  0.7605  0.4861
24690SOL     OW76511   6.488   1.041   8.401 -0.5155 -0.0980  0.5037
24690SOL    HW176512   6.443   0.981   8.460 -2.4326  0.2248 -0.5506
24690SOL    HW276513   6.546   0.985   8.349  1.0941 -0.3976  2.5191
24691SOL     OW76514   2.445   1.029   5.872 -0.8871  0.0580 -0.1687
24691SOL    HW176515   2.476   1.071   5.792  0.3092  4.1042  2.1338
24691SOL    HW276516   2.349   1.030   5.864 -0.9069  3.1103 -0.4293
24692SOL     OW76517   0.943   0.874   4.065 -0.0814  0.1230 -0.2361
24692SOL    HW176518   0.954   0.855   4.158  0.8575 -0.5215 -0.4666
24692SOL    HW276519   0.864   0.826   4.040 -0.5817  0.6497  0.3215
24693SOL     OW76520   4.462   4.351   8.998  0.2676  0.0673 -0.2365
24693SOL    HW176521   4.417   4.380   8.919 -0.3287 -0.9354 -0.2882
24693SOL    HW276522   4.428   4.408   9.067 -1.3997 -0.8884 -0.2088
24694SOL     OW76523   9.364   8.915   8.597  0.3688  0.2322  0.3624
24694SOL    HW176524   9.305   8.851   8.637  0.2322  0.0965 -0.0589
24694SOL    HW276525   9.448   8.870   8.590  0.0164 -0.2657 -0.8874
24695SOL     OW76526   7.932   8.941   5.009  0.3026  0.3056  0.6040
24695SOL    HW176527   7.976   9.006   5.064  1.1968 -0.9698  1.4289
24695SOL    HW276528   8.002   8.882   4.980 -0.5499 -0.5326  0.2021
24696SOL     OW76529   1.650   7.079   2.109  0.2100  0.3056 -0.5367
24696SOL    HW176530   1.643   7.081   2.014 -0.0886 -0.7346 -0.5474
24696SOL    HW276531   1.716   7.012   2.127 -2.1483 -2.0668  0.0295
24697SOL     OW76532   2.786   7.220   6.142  0.0105 -0.1300 -0.0508
24697SOL    HW176533   2.815   7.167   6.068  0.6811  0.3330 -0.1250
24697SOL    HW276534   2.778   7.309   6.107  1.1023  0.2444  0.6098
24698SOL     OW76535   3.840  10.158   5.927 -0.3341  0.3560  0.4469
24698SOL    HW176536   3.868  10.117   6.008 -0.6595 -0.0571  0.3519
24698SOL    HW276537   3.757  10.115   5.906  0.4951 -0.6306 -0.9211
24699SOL     OW76538   7.923   4.872   1.533  0.0173  0.1459  0.3262
24699SOL    HW176539   7.934   4.899   1.442 -1.9705  1.4733  0.4129
24699SOL    HW276540   8.009   4.886   1.573  0.7888 -0.0223 -1.2274
24700SOL     OW76541   3.057   0.266   2.194  0.3161 -0.2772 -0.1418
24700SOL    HW176542   3.023   0.344   2.239  0.4932 -0.0668 -0.3715
24700SOL    HW276543   3.152   0.277   2.194  0.2752  0.5161 -1.9381
24701SOL     OW76544   6.676   8.947   3.044  0.7454 -0.0734  0.1321
24701SOL    HW176545   6.704   9.011   2.978 -0.2001  0.1468 -0.0679
24701SOL    HW276546   6.675   8.863   2.997  1.7773 -0.2088  0.3380
24702SOL     OW76547   1.681   7.130  10.370 -0.7570  0.3159  0.0976
24702SOL    HW176548   1.689   7.204  10.309 -0.4983  1.3827  1.3855
24702SOL    HW276549   1.689   7.052  10.314 -1.3614  1.2410 -1.3302
24703SOL     OW76550   6.249  10.184   1.701 -0.1240  0.1966 -0.0727
24703SOL    HW176551   6.301  10.208   1.778 -1.3026 -0.3153  0.9269
24703SOL    HW276552   6.309  10.192   1.627  0.4971  2.7125  0.6155
24704SOL     OW76553   7.232   7.707   8.574  0.1390  0.0328  0.1902
24704SOL    HW176554   7.294   7.652   8.623 -0.1478 -0.3372  0.1447
24704SOL    HW276555   7.282   7.786   8.552  0.9620 -0.7348 -0.8229
24705SOL     OW76556   5.980   0.897   8.860 -0.3528  0.2155 -0.2018
24705SOL    HW176557   5.951   0.826   8.917  1.5512  0.2748  0.9344
24705SOL    HW276558   5.972   0.861   8.771 -0.9773 -0.8083  0.2468
24706SOL     OW76559   2.075   6.613   0.428  0.1605 -0.4543 -0.2842
24706SOL    HW176560   1.993   6.565   0.433 -2.0368  2.7497 -2.0995
24706SOL    HW276561   2.060   6.680   0.362  4.5852 -0.1693 -1.3242
24707SOL     OW76562   6.831   0.852   5.214  0.3679  0.3894 -0.0010
24707SOL    HW176563   6.846   0.918   5.147  1.8822  1.4397  1.3050
24707SOL    HW276564   6.792   0.900   5.287 -0.4243 -0.5673  0.2299
24708SOL     OW76565   1.892   3.176   9.927  0.0674  0.1079 -0.3444
24708SOL    HW176566   1.927   3.125   9.853  1.3015  1.3376 -0.6612
24708SOL    HW276567   1.806   3.205   9.898 -0.1938 -0.8688 -0.5894
24709SOL     OW76568   6.508   3.559   5.207  0.9511  0.1312  0.0294
24709SOL    HW176569   6.436   3.551   5.145  0.0042 -1.1206  1.2209
24709SOL    HW276570   6.538   3.469   5.219  0.9575  0.3240  1.5537
24710SOL     OW76571   3.311   1.000   0.802  0.3679 -0.2874  0.1634
24710SOL    HW176572   3.285   1.068   0.739  0.9238  0.1944  0.4439
24710SOL    HW276573   3.291   1.039   0.887  0.7657 -0.4514  0.3293
24711SOL     OW76574   3.068   1.796   0.968  0.0458 -0.3337  0.2540
24711SOL    HW176575   3.016   1.876   0.964 -0.1019 -0.4811 -1.5831
24711SOL    HW276576   3.073   1.765   0.878  0.7041 -2.0239  0.8121
24712SOL     OW76577   5.230   6.736   5.750  0.2871  0.4463  0.7774
24712SOL    HW176578   5.308   6.712   5.699 -0.7440  0.2854 -0.7876
24712SOL    HW276579   5.258   6.810   5.803  1.3662  0.7395 -0.1592
24713SOL     OW76580   5.257   0.707   2.254 -0.5815 -0.1741  0.2342
24713SOL    HW176581   5.320   0.696   2.326 -1.3690  0.6217  1.0618
24713SOL    HW276582   5.235   0.800   2.256 -0.7554 -0.1822 -0.9330
24714SOL     OW76583   6.758   6.491   1.866 -0.5253 -0.4298  0.0807
24714SOL    HW176584   6.839   6.542   1.871 -1.1793  0.8755 -1.6327
24714SOL    HW276585   6.764   6.429   1.938  0.3936  1.9671  2.2106
24715SOL     OW76586   8.122   1.534   5.463  0.2132 -0.4248 -0.3641
24715SOL    HW176587   8.183   1.468   5.496  0.0988 -0.5785 -0.4601
24715SOL    HW276588   8.039   1.487   5.453 -0.1428 -0.0274  0.5657
24716SOL     OW76589   8.169   4.104  10.111  0.0036 -0.9028 -0.0256
24716SOL    HW176590   8.082   4.094  10.072 -0.1718 -2.1228  0.6155
24716SOL    HW276591   8.211   4.174  10.061 -1.8500  0.6906  0.5210
24717SOL     OW76592   5.511   7.588   3.228  0.2919 -0.0955 -0.0480
24717SOL    HW176593   5.434   7.539   3.200  0.2052 -1.1034  1.7686
24717SOL    HW276594   5.504   7.672   3.182 -1.6655 -0.3155 -0.2470
24718SOL     OW76595   4.124   1.641   2.884  0.5707 -0.0918 -0.3053
24718SOL    HW176596   4.076   1.616   2.962 -0.7763 -1.1578 -1.4300
24718SOL    HW276597   4.151   1.732   2.900  0.2710 -0.2644  1.3307
24719SOL     OW76598   9.780  10.372   2.659 -0.0553 -0.3117  0.1449
24719SOL    HW176599   9.688  10.367   2.687  0.4285  1.1153  2.2027
24719SOL    HW276600   9.777  10.410   2.571 -1.3941  0.9439  0.6966
24720SOL     OW76601   0.272   7.730   4.891 -0.2464  0.1349 -0.3932
24720SOL    HW176602   0.334   7.783   4.941  0.6168  0.7965 -2.0688
24720SOL    HW276603   0.298   7.640   4.907  1.8378  0.4149 -1.7936
24721SOL     OW76604   2.922   4.030   4.066 -0.6416  0.3209 -0.2502
24721SOL    HW176605   2.914   3.947   4.020 -1.4627  0.2672 -0.0321
24721SOL    HW276606   3.009   4.028   4.105 -0.2279  0.0461 -1.1689
24722SOL     OW76607   6.815   7.444   3.550  0.1310  0.1959 -0.2930
24722SOL    HW176608   6.876   7.435   3.477 -0.2709 -2.0579 -0.4391
24722SOL    HW276609   6.812   7.538   3.567  0.6193  0.7709 -2.8380
24723SOL     OW76610   0.125   1.719   3.644  0.3943  1.3113  0.2969
24723SOL    HW176611   0.130   1.703   3.550  1.1331  0.3368  0.4846
24723SOL    HW276612   0.216   1.718   3.673  0.1316  0.8886  1.1329
24724SOL     OW76613   4.155   3.837   6.431  0.2656  0.2676  0.3089
24724SOL    HW176614   4.250   3.850   6.432  0.3824 -0.4693 -0.2827
24724SOL    HW276615   4.121   3.907   6.375  0.4777  0.4061  0.3515
24725SOL     OW76616  10.361   9.952   9.219  0.0009 -0.1362  0.3948
24725SOL    HW176617  10.327   9.875   9.265  1.1221 -1.5549 -1.0278
24725SOL    HW276618  10.455   9.948   9.235  0.3642 -0.4308 -1.6060
24726SOL     OW76619   5.142   2.747   6.676 -0.2869  0.2536  0.1334
24726SOL    HW176620   5.179   2.754   6.763 -1.2935 -1.2603  0.7387
24726SOL    HW276621   5.049   2.765   6.688 -0.2603  1.0965 -0.8271
24727SOL     OW76622   5.706   0.795   8.632 -0.0419  0.0830 -0.3087
24727SOL    HW176623   5.782   0.787   8.574  0.3101 -0.5308  0.2224
24727SOL    HW276624   5.684   0.704   8.655 -2.3854  0.0726 -2.2766
24728SOL     OW76625   9.359   5.092   6.912 -0.1862 -0.1887  0.2590
24728SOL    HW176626   9.365   5.148   6.835  0.6064  2.0130  1.8103
24728SOL    HW276627   9.287   5.128   6.964 -0.0549 -0.9872  1.0327
24729SOL     OW76628   6.883   5.575   4.397  0.1365 -0.2496  0.5273
24729SOL    HW176629   6.854   5.583   4.307 -0.3604  0.8487  0.7620
24729SOL    HW276630   6.958   5.516   4.394 -1.1437 -1.8970 -0.3007
24730SOL     OW76631   4.475   0.037   5.639 -0.3652  0.0439 -0.1725
24730SOL    HW176632   4.392   0.066   5.677 -0.2116  0.6642 -0.2886
24730SOL    HW276633   4.451  -0.030   5.575 -0.6799 -0.5555  0.5629
24731SOL     OW76634  10.267   9.500   6.959 -0.2028  0.2593 -0.3727
24731SOL    HW176635  10.270   9.577   6.901 -0.7806  0.2451 -0.4323
24731SOL    HW276636  10.197   9.446   6.922 -0.8684  0.4447  0.5749
24732SOL     OW76637   8.257   3.411   2.418  0.2053 -0.3255  0.0637
24732SOL    HW176638   8.346   3.442   2.406  0.0567 -0.2465 -0.9570
24732SOL    HW276639   8.251   3.388   2.511 -0.0948  4.0094  1.3344
24733SOL     OW76640   8.927   4.280   2.356 -0.7903 -0.8254 -0.0369
24733SOL    HW176641   8.846   4.249   2.396 -0.5832  0.3808  1.4021
24733SOL    HW276642   8.996   4.228   2.397 -0.7988 -1.6103 -1.0042
24734SOL     OW76643   3.898   1.427   6.811 -0.2210  0.3233 -0.3429
24734SOL    HW176644   3.815   1.450   6.852  0.1380 -3.1377  2.8550
24734SOL    HW276645   3.876   1.359   6.747  0.0971 -0.4292  0.3388
24735SOL     OW76646  10.054   1.629   0.831  0.5699  0.7566 -0.2000
24735SOL    HW176647  10.029   1.698   0.769  0.3822  2.1134  1.3218
24735SOL    HW276648  10.049   1.671   0.917 -0.2999 -1.3700  0.8695
24736SOL     OW76649   7.076   6.153   6.927 -0.3273  0.0593  0.1066
24736SOL    HW176650   7.051   6.216   6.995 -0.1855 -1.3307  1.4988
24736SOL    HW276651   7.171   6.160   6.921 -0.3159 -0.0008  0.2246
24737SOL     OW76652   4.089   3.546   9.124 -0.8477  0.5429  0.5536
24737SOL    HW176653   4.081   3.635   9.090  0.3515 -0.0180 -1.3148
24737SOL    HW276654   4.112   3.493   9.048 -2.4424 -1.5565  1.4389
24738SOL     OW76655   2.720   5.400   0.458  0.1702  0.1854 -0.3778
24738SOL    HW176656   2.736   5.454   0.536  0.9344 -0.4817 -0.0586
24738SOL    HW276657   2.796   5.418   0.402  0.8360 -1.1070  0.0591
24739SOL     OW76658   6.621   0.149   5.294  0.1323  0.0084  0.0944
24739SOL    HW176659   6.674   0.154   5.373  0.5264  0.1683 -0.1743
24739SOL    HW276660   6.615   0.240   5.264  0.6636 -0.1442 -0.4968
24740SOL     OW76661   4.232   3.687   7.777 -0.2846 -0.1195 -0.5722
24740SOL    HW176662   4.220   3.597   7.807 -1.3791  0.2948  0.3317
24740SOL    HW276663   4.259   3.735   7.856  1.5141  0.1391 -1.3005
24741SOL     OW76664   9.284   1.793   3.824  0.1558  0.1175 -0.4554
24741SOL    HW176665   9.320   1.864   3.771  0.3411  0.8230  0.5661
24741SOL    HW276666   9.354   1.728   3.827  0.1955  0.1356 -0.9584
24742SOL     OW76667   1.036   4.741   6.946 -0.4421  0.1312  0.1189
24742SOL    HW176668   0.975   4.768   7.014 -1.5482 -0.5274 -0.5821
24742SOL    HW276669   1.108   4.803   6.953 -0.2118 -0.3013  2.2939
24743SOL     OW76670   1.622   4.083   4.519  0.2554 -0.4227 -0.1897
24743SOL    HW176671   1.650   4.099   4.609 -1.5332 -0.0486  0.3440
24743SOL    HW276672   1.641   3.991   4.504  0.1081 -0.6157  0.7578
24744SOL     OW76673   6.506   5.006   6.208 -0.0521  0.2951 -0.1247
24744SOL    HW176674   6.413   4.982   6.216  0.1302 -0.4003 -0.0569
24744SOL    HW276675   6.506   5.101   6.212 -0.7594  0.2986 -0.0316
24745SOL     OW76676   2.080   7.434   4.505 -0.4365 -0.4071  0.1634
24745SOL    HW176677   2.082   7.433   4.410 -0.0216 -2.7899  0.1281
24745SOL    HW276678   2.001   7.385   4.528  0.1882 -1.0501  1.0075
24746SOL     OW76679   0.454   4.907   6.700  0.0631  0.5492  0.0633
24746SOL    HW176680   0.545   4.878   6.695 -0.2463 -0.2988 -1.4662
24746SOL    HW276681   0.459   5.001   6.712  1.2049  0.8073 -2.0136
24747SOL     OW76682   3.457   1.109   0.197  0.3482 -0.1429  0.4793
24747SOL    HW176683   3.420   1.164   0.266 -0.3754 -1.2003  0.9582
24747SOL    HW276684   3.391   1.041   0.182  0.4359  0.1176 -1.3382
24748SOL     OW76685   8.630   7.579   8.512 -0.0664  0.3608  0.5971
24748SOL    HW176686   8.538   7.573   8.536 -0.8153  3.0316 -1.2110
24748SOL    HW276687   8.671   7.624   8.586 -0.2411 -0.5346  1.2579
24749SOL     OW76688   0.970   0.129   9.449  0.3244  0.1087  1.1064
24749SOL    HW176689   1.005   0.211   9.413  0.3806  0.2608  1.5016
24749SOL    HW276690   0.965   0.144   9.544  0.8267 -0.5239  1.2453
24750SOL     OW76691   0.224   9.220   7.837  0.3232 -0.3285 -0.1137
24750SOL    HW176692   0.276   9.295   7.810 -0.6842  0.2749 -0.3983
24750SOL    HW276693   0.214   9.168   7.757  0.6666 -0.5541 -0.0107
24751SOL     OW76694   5.663   5.103   4.624 -0.1493 -0.1190  0.2479
24751SOL    HW176695   5.652   5.008   4.617 -1.7002 -0.1212  1.9492
24751SOL    HW276696   5.741   5.122   4.572 -0.8920 -2.0411 -1.7398
24752SOL     OW76697   3.355   5.179   1.251 -0.6822 -0.3612 -0.7265
24752SOL    HW176698   3.446   5.155   1.235  0.1445  0.8643  1.6736
24752SOL    HW276699   3.357   5.274   1.263 -2.2196 -0.3567 -0.3345
24753SOL     OW76700   1.750   8.605   9.723 -0.2442  0.2278 -1.1059
24753SOL    HW176701   1.748   8.509   9.713  0.1033  0.2925 -1.8305
24753SOL    HW276702   1.778   8.619   9.813 -2.6994 -0.3768 -0.1625
24754SOL     OW76703   5.176   4.928   2.780 -0.6232 -0.5845  0.2233
24754SOL    HW176704   5.263   4.919   2.819 -0.5532 -1.8292 -0.1758
24754SOL    HW276705   5.149   5.017   2.803  1.0997  0.1396 -0.3542
24755SOL     OW76706   2.076   6.348   2.756  0.2765 -0.0945 -0.5265
24755SOL    HW176707   2.130   6.376   2.830 -0.4551  0.6705 -0.2673
24755SOL    HW276708   2.081   6.252   2.758  0.2387 -0.0905  0.5464
24756SOL     OW76709   0.864   2.743   7.651  0.0906  0.0004 -0.1550
24756SOL    HW176710   0.903   2.689   7.720  0.1143 -1.1498 -1.0398
24756SOL    HW276711   0.770   2.743   7.671 -0.3188 -2.6997 -1.6289
24757SOL     OW76712   5.193   6.521   3.857 -0.2594 -0.2354  0.6135
24757SOL    HW176713   5.203   6.597   3.800 -0.3882  0.5535  1.6099
24757SOL    HW276714   5.106   6.487   3.836 -1.3959  1.5812  2.0738
24758SOL     OW76715   7.658   1.238   0.569 -0.2233 -0.0415  0.3634
24758SOL    HW176716   7.750   1.216   0.552 -0.6112 -2.0440  0.7064
24758SOL    HW276717   7.615   1.229   0.484 -1.1509 -4.9356  1.0758
24759SOL     OW76718   0.839  10.253   9.554 -0.2744 -0.2052  0.2643
24759SOL    HW176719   0.864  10.161   9.565  0.4356 -0.0023  0.3759
24759SOL    HW276720   0.899  10.286   9.487  0.6518  0.6402  1.4890
24760SOL     OW76721   4.266   1.673   1.231  0.3378  0.4245 -0.6369
24760SOL    HW176722   4.198   1.613   1.200 -0.3422  0.4155  0.8089
24760SOL    HW276723   4.220   1.756   1.244  0.4770  0.2922  0.8152
24761SOL     OW76724   5.447   8.385   3.342 -0.6357  0.3840 -0.6760
24761SOL    HW176725   5.488   8.300   3.361  1.3009  1.6710  1.5613
24761SOL    HW276726   5.497   8.420   3.269  0.2085  0.5899 -0.0190
24762SOL     OW76727  10.104   3.425   9.682  0.4765  0.1438 -0.3848
24762SOL    HW176728  10.099   3.332   9.662 -0.1099  0.0075  0.3501
24762SOL    HW276729  10.112   3.429   9.777  1.0004  0.8349 -0.4519
24763SOL     OW76730   0.590   7.573   5.510 -0.3695 -0.3052 -0.5892
24763SOL    HW176731   0.612   7.549   5.420 -1.1818 -0.4469 -0.7578
24763SOL    HW276732   0.535   7.502   5.541 -2.2681  0.9593 -0.8766
24764SOL     OW76733   9.555   9.927   6.904 -0.2525 -0.1713 -0.4287
24764SOL    HW176734   9.508   9.870   6.843  1.1271  0.1655 -1.8697
24764SOL    HW276735   9.520  10.015   6.887 -0.3271 -0.1645 -0.2503
24765SOL     OW76736   7.791   4.391   8.972  0.4542  0.2377  0.0892
24765SOL    HW176737   7.819   4.335   8.899 -0.3889 -0.4592  0.2920
24765SOL    HW276738   7.697   4.378   8.978  0.3392  1.1999  0.5576
24766SOL     OW76739   3.064   4.349   5.785  0.1663  0.0802 -0.0491
24766SOL    HW176740   3.129   4.322   5.851  0.1485  1.8002  0.7161
24766SOL    HW276741   3.117   4.374   5.709  0.3448  0.4256  0.1839
24767SOL     OW76742   6.042   5.986   5.280  0.2461 -0.9391 -0.1397
24767SOL    HW176743   6.047   6.062   5.337  0.4752 -1.5292  0.6461
24767SOL    HW276744   6.087   6.012   5.200  0.5100 -0.3285  0.2055
24768SOL     OW76745   1.569   2.537   7.337 -0.0437 -0.4424 -0.2942
24768SOL    HW176746   1.526   2.454   7.356 -0.9939 -0.2154 -1.3334
24768SOL    HW276747   1.533   2.598   7.401 -0.3350 -0.5368 -0.3680
24769SOL     OW76748   0.228   3.317   3.527 -1.4605 -0.0129 -0.4789
24769SOL    HW176749   0.177   3.324   3.608 -0.1586  0.0693  0.3718
24769SOL    HW276750   0.213   3.227   3.497 -2.2711  0.0799 -0.3700
24770SOL     OW76751   0.868   9.129   4.156 -0.4974  0.3303  0.5509
24770SOL    HW176752   0.818   9.211   4.153 -0.9571  0.0242 -0.2156
24770SOL    HW276753   0.876   9.111   4.250 -1.0645  0.8445  0.7135
24771SOL     OW76754   6.320   8.978   4.444  0.2586 -0.7511  0.3187
24771SOL    HW176755   6.232   8.941   4.452  0.3426 -0.7563  1.4010
24771SOL    HW276756   6.376   8.902   4.426  0.2177 -0.9466  0.9780
24772SOL     OW76757   6.873   0.260   9.419  0.0722 -0.1999 -0.2541
24772SOL    HW176758   6.894   0.258   9.325  0.1935  1.2756 -0.2787
24772SOL    HW276759   6.936   0.321   9.456  1.5022 -2.4301  1.2142
24773SOL     OW76760   0.107   1.899   2.411  0.0820 -0.3739 -0.3745
24773SOL    HW176761   0.166   1.943   2.472  0.1326 -1.4806  0.4141
24773SOL    HW276762   0.163   1.838   2.363  0.0686  0.5750 -1.6638
24774SOL     OW76763   8.879   4.411   1.649  0.0873  0.3333  0.0505
24774SOL    HW176764   8.817   4.358   1.699  0.8268  0.6988  1.4213
24774SOL    HW276765   8.910   4.352   1.580 -1.8608  0.1963 -0.7834
24775SOL     OW76766   5.822   9.132   8.900 -0.3427  0.3388 -0.2472
24775SOL    HW176767   5.773   9.051   8.887 -0.4036  0.1768  0.9032
24775SOL    HW276768   5.759   9.201   8.880 -1.0332  0.1322  1.0919
24776SOL     OW76769   7.335   2.360   0.603 -0.3015 -0.5264  0.0941
24776SOL    HW176770   7.341   2.344   0.698 -1.3527 -1.4499  0.0254
24776SOL    HW276771   7.241   2.370   0.587 -0.2611 -1.8242 -1.0667
24777SOL     OW76772   5.254   9.757   2.453 -0.1478 -0.1768  0.1770
24777SOL    HW176773   5.165   9.790   2.463 -0.2272 -0.3178 -0.0859
24777SOL    HW276774   5.245   9.674   2.407 -0.0423 -1.0925  1.7363
24778SOL     OW76775   7.924   2.158   4.570  0.2000 -0.4596 -0.1743
24778SOL    HW176776   7.906   2.251   4.555  3.2757  0.1058 -1.0710
24778SOL    HW276777   7.915   2.146   4.664  1.5292  1.2322  0.2052
24779SOL     OW76778   8.489   4.276  10.364 -0.0805  0.1616 -0.0431
24779SOL    HW176779   8.492   4.331  10.442  0.2712  0.7248 -0.4481
24779SOL    HW276780   8.441   4.198  10.392  0.5972  0.0678  0.9185
24780SOL     OW76781   1.512   7.611   1.754  0.5145  0.4845 -0.6869
24780SOL    HW176782   1.417   7.622   1.762  0.7899  3.5316 -0.5593
24780SOL    HW276783   1.543   7.605   1.844  0.6107  1.8322 -0.6087
24781SOL     OW76784   1.694   4.989   2.681  0.3554  0.0852  0.0444
24781SOL    HW176785   1.648   4.907   2.661 -0.9107  0.8830 -0.4255
24781SOL    HW276786   1.625   5.049   2.708  1.3536  0.8104  1.0718
24782SOL     OW76787   6.930   1.646   5.317 -0.3491 -0.4056 -0.0180
24782SOL    HW176788   6.921   1.665   5.410  2.2466  0.4947  0.1232
24782SOL    HW276789   6.882   1.564   5.305 -0.9690 -0.4044  2.0280
24783SOL     OW76790   9.130  10.143   3.275 -0.5386  0.6193 -0.0724
24783SOL    HW176791   9.179  10.138   3.193 -3.4104 -1.4140 -1.8272
24783SOL    HW276792   9.132  10.054   3.310 -1.6633  0.8436  0.6000
24784SOL     OW76793   8.456   7.292   1.787  0.0401  0.6732  0.4086
24784SOL    HW176794   8.395   7.259   1.721  1.6836 -1.9069  0.0597
24784SOL    HW276795   8.405   7.292   1.869 -0.9452  0.3589 -0.1866
24785SOL     OW76796   5.856   8.324   5.085  0.0853 -0.1022  0.3139
24785SOL    HW176797   5.795   8.367   5.025  0.7320  0.4784  0.0623
24785SOL    HW276798   5.872   8.389   5.153 -0.6131 -0.7453  1.1102
24786SOL     OW76799   8.038   0.465  10.284 -0.1239  0.8844 -0.3867
24786SOL    HW176800   8.021   0.455  10.378 -4.1883 -0.1567 -1.0507
24786SOL    HW276801   8.099   0.394  10.263  3.1732  2.7789  1.7333
24787SOL     OW76802   1.417   2.400   8.532 -0.2268 -0.2482  0.3207
24787SOL    HW176803   1.400   2.450   8.452  0.0090 -0.9338 -0.1683
24787SOL    HW276804   1.335   2.354   8.550 -0.2524 -0.1616  0.4280
24788SOL     OW76805   6.950   4.667   5.485  0.6088 -0.3935 -0.7077
24788SOL    HW176806   6.901   4.599   5.439 -0.2182 -1.1330  1.1483
24788SOL    HW276807   6.990   4.719   5.416 -2.6458  0.1598 -2.3827
24789SOL     OW76808   6.791   6.786   2.780 -0.6582  0.0383  0.6715
24789SOL    HW176809   6.804   6.718   2.847 -0.7255 -0.1155  0.5292
24789SOL    HW276810   6.868   6.843   2.788  0.2137 -0.9593 -0.2814
24790SOL     OW76811   1.998  10.358   7.981 -0.4378 -0.2351  0.2561
24790SOL    HW176812   2.086  10.389   7.963 -0.1353 -1.1209  0.1324
24790SOL    HW276813   1.946  10.437   7.995  0.8238  0.2793  2.4698
24791SOL     OW76814   3.328   5.176   3.142 -0.0652 -0.4360 -0.5006
24791SOL    HW176815   3.353   5.204   3.230 -1.8245  1.4225 -0.4978
24791SOL    HW276816   3.407   5.136   3.106  1.4803  1.0587  1.0118
24792SOL     OW76817  10.160   9.600   4.978 -0.1507 -0.3673 -0.0554
24792SOL    HW176818  10.198   9.682   4.947 -1.3732  0.2435  0.0013
24792SOL    HW276819  10.235   9.544   4.996  0.9347  1.6990  2.6597
24793SOL     OW76820   3.860   2.388   4.553  0.4954  0.5270  0.6186
24793SOL    HW176821   3.779   2.345   4.523  1.0280 -0.1059  0.0489
24793SOL    HW276822   3.859   2.473   4.510  0.1991  0.4723  0.5114
24794SOL     OW76823  10.444   8.595   1.582 -0.3256  0.7559 -0.1232
24794SOL    HW176824  10.398   8.595   1.498 -1.1672 -0.3490  0.3215
24794SOL    HW276825  10.480   8.684   1.589 -2.8097  1.8374 -0.2536
24795SOL     OW76826   7.652   9.655   7.958  0.5018  0.4881  0.3772
24795SOL    HW176827   7.663   9.566   7.993 -0.4828  0.6784  1.2305
24795SOL    HW276828   7.732   9.700   7.985  0.5599  0.1301  0.8358
24796SOL     OW76829   1.855   7.383   7.227  0.2380  0.1404  0.2290
24796SOL    HW176830   1.940   7.427   7.223 -0.6958  2.1550  0.7998
24796SOL    HW276831   1.851   7.346   7.315  1.0997 -1.3130 -0.3083
24797SOL     OW76832   2.668   1.101   9.848  0.8495 -0.0024 -0.3837
24797SOL    HW176833   2.692   1.167   9.913  0.5958 -1.8150  1.6307
24797SOL    HW276834   2.573   1.109   9.839  0.5073 -1.3681  1.4212
24798SOL     OW76835   5.186   4.279   2.592 -0.0796  0.1441 -0.5517
24798SOL    HW176836   5.125   4.339   2.551  0.0155  0.1182 -0.7293
24798SOL    HW276837   5.138   4.244   2.667  0.5318  1.9502  0.7681
24799SOL     OW76838   4.519   7.277   6.442 -0.4440  0.0307  0.3610
24799SOL    HW176839   4.501   7.194   6.397  1.0853  0.3854 -1.0352
24799SOL    HW276840   4.606   7.265   6.480  0.8651  1.6784 -1.8215
24800SOL     OW76841   0.916   6.263   1.240  0.1709  0.6895 -0.0821
24800SOL    HW176842   0.895   6.356   1.228 -0.9958  0.5085  0.4146
24800SOL    HW276843   0.926   6.229   1.151 -1.6102  0.8239 -0.3724
24801SOL     OW76844   8.501   7.367   3.854 -0.7369  0.6868  0.5690
24801SOL    HW176845   8.506   7.419   3.774 -1.0784 -1.2108 -0.7594
24801SOL    HW276846   8.588   7.375   3.893 -0.3388  1.0928 -0.3706
24802SOL     OW76847   4.618   6.253   5.157 -0.1906 -0.1243  0.1737
24802SOL    HW176848   4.686   6.320   5.145 -1.8144  1.1954 -2.7337
24802SOL    HW276849   4.548   6.299   5.202 -0.3499 -0.5984  0.4117
24803SOL     OW76850   7.884   9.168   0.182  0.0078  0.6420 -0.1335
24803SOL    HW176851   7.905   9.134   0.269  0.7772  1.9652  0.2337
24803SOL    HW276852   7.956   9.228   0.162  0.4346 -0.4951 -2.1913
24804SOL     OW76853   0.095   3.266   6.629 -0.0549 -0.2498 -0.0026
24804SOL    HW176854   0.002   3.250   6.618  0.0428 -0.4906 -0.4706
24804SOL    HW276855   0.103   3.299   6.719 -0.8149  1.5444 -0.5589
24805SOL     OW76856   6.342   3.248   7.625 -0.2972 -0.3378  0.0433
24805SOL    HW176857   6.405   3.196   7.674  0.0331 -0.5883 -0.6434
24805SOL    HW276858   6.290   3.293   7.693  1.7676  1.2840  0.6546
24806SOL     OW76859   6.014   1.149   2.134 -0.4571  0.3924  0.0100
24806SOL    HW176860   6.104   1.153   2.101 -0.9880  0.3963 -1.5377
24806SOL    HW276861   6.001   1.057   2.158 -0.3694  0.1651 -0.7879
24807SOL     OW76862   3.762   4.417   2.866 -0.4879 -0.1455 -0.7447
24807SOL    HW176863   3.698   4.486   2.885 -1.8149 -1.7148  0.9489
24807SOL    HW276864   3.821   4.418   2.941  0.4484  0.1619 -1.4742
24808SOL     OW76865   0.197   8.893   7.429 -0.2625  0.2805 -0.7940
24808SOL    HW176866   0.211   8.799   7.444 -2.3447 -0.0855 -0.7308
24808SOL    HW276867   0.120   8.913   7.483 -0.1658  1.9156 -1.2335
24809SOL     OW76868   4.882   7.622  10.432  0.1872 -0.7176 -0.2202
24809SOL    HW176869   4.939   7.672  10.490  0.9842 -1.3360 -0.4537
24809SOL    HW276870   4.795   7.658  10.448  0.2113 -1.5011  2.0793
24810SOL     OW76871   1.468   3.949   3.392  0.1917 -0.4066  0.0668
24810SOL    HW176872   1.448   3.989   3.477 -1.4003 -0.2580 -0.3457
24810SOL    HW276873   1.472   4.023   3.331 -0.2417 -0.6569 -0.2657
24811SOL     OW76874   7.595   2.260   3.566  0.2111 -0.2426 -0.2533
24811SOL    HW176875   7.505   2.243   3.538  0.4481 -1.6071 -0.2799
24811SOL    HW276876   7.588   2.272   3.661 -0.0471 -0.0117 -0.3015
24812SOL     OW76877   8.788   6.811   2.939 -0.1158  0.1050 -0.5678
24812SOL    HW176878   8.768   6.904   2.945 -1.5184 -0.1942 -0.0129
24812SOL    HW276879   8.702   6.769   2.927  0.2626 -1.2340  1.0090
24813SOL     OW76880   3.753   8.138   7.615  0.0953  0.2951  0.0707
24813SOL    HW176881   3.665   8.152   7.650  0.5674 -0.7819  1.8343
24813SOL    HW276882   3.786   8.061   7.662  2.1915  1.0178 -0.0928
24814SOL     OW76883   1.387   7.048   3.337  0.0436  0.3678  0.0331
24814SOL    HW176884   1.379   6.964   3.291  1.7627  0.3733 -0.3480
24814SOL    HW276885   1.443   7.101   3.280  0.0777  1.2985  0.9123
24815SOL     OW76886   9.574   8.029   1.960  0.2533  0.1607  0.0531
24815SOL    HW176887   9.662   8.039   1.996  0.4004  0.6120 -0.4183
24815SOL    HW276888   9.524   7.990   2.031  0.5079  1.1286  0.7972
24816SOL     OW76889   8.901  10.318   0.756 -0.7419 -0.5488 -0.3834
24816SOL    HW176890   8.876  10.406   0.728  2.2612  0.8579  0.9863
24816SOL    HW276891   8.968  10.291   0.693 -2.7015 -2.6624 -1.7599
24817SOL     OW76892   3.339   9.586   7.174 -0.2270  0.0326  0.3587
24817SOL    HW176893   3.274   9.523   7.205  0.7674 -0.1206  2.2736
24817SOL    HW276894   3.405   9.532   7.131  0.0079 -0.1154  0.8968
24818SOL     OW76895   7.053   5.234   2.138 -0.0726  0.2899 -0.5072
24818SOL    HW176896   7.108   5.308   2.165 -1.9911  2.0049 -1.0679
24818SOL    HW276897   7.008   5.265   2.059 -0.7053 -1.6177 -0.9473
24819SOL     OW76898   9.424   6.276   0.444 -0.0991  0.1732 -0.3485
24819SOL    HW176899   9.428   6.256   0.537 -1.0166  1.1615 -0.0657
24819SOL    HW276900   9.397   6.368   0.441  0.2764  0.2627 -1.5875
24820SOL     OW76901   9.440   1.767   0.699 -0.2041 -0.7268 -0.0809
24820SOL    HW176902   9.446   1.693   0.639 -0.3450  0.0971 -1.1266
24820SOL    HW276903   9.531   1.784   0.725  0.1915  0.5395 -2.1031
24821SOL     OW76904   4.440   4.805   3.699  0.3903 -0.2538  0.4309
24821SOL    HW176905   4.406   4.854   3.773 -0.9835  0.4394 -0.6107
24821SOL    HW276906   4.462   4.719   3.735 -0.8488 -0.1432  1.5261
24822SOL     OW76907   1.178   1.446   1.128 -0.4976 -0.5447  0.7421
24822SOL    HW176908   1.261   1.398   1.124 -0.8664 -1.3814  2.2366
24822SOL    HW276909   1.197   1.529   1.084  0.5805 -1.4411 -0.5825
24823SOL     OW76910  10.400   3.278   3.040 -0.4053 -0.0968  0.1485
24823SOL    HW176911  10.456   3.327   3.100 -0.4569 -0.0165  0.1318
24823SOL    HW276912  10.311   3.304   3.064 -0.3903  0.7102 -0.6200
24824SOL     OW76913   5.327   1.041   8.717 -0.2506 -0.2642 -0.2860
24824SOL    HW176914   5.256   0.980   8.739 -0.6226 -1.0410 -3.1766
24824SOL    HW276915   5.295   1.127   8.745 -1.9532 -0.7371 -0.6565
24825SOL     OW76916  10.444   5.343   3.275  0.1909  0.1434  0.3846
24825SOL    HW176917  10.435   5.359   3.181 -1.1803  0.6615  0.5778
24825SOL    HW276918  10.455   5.430   3.314 -1.0512  0.1078  0.8599
24826SOL     OW76919   4.142   6.288   2.175  0.7533  0.0368 -0.6289
24826SOL    HW176920   4.119   6.372   2.214 -0.4100  1.0216 -3.1771
24826SOL    HW276921   4.176   6.235   2.247 -1.1892  1.6890  1.6114
24827SOL     OW76922   1.808   7.508   0.111 -0.1322 -0.1796  0.4011
24827SOL    HW176923   1.718   7.502   0.078 -0.5949  1.8083  1.1853
24827SOL    HW276924   1.852   7.431   0.075 -1.5854 -0.0862 -1.7208
24828SOL     OW76925   8.645   5.813   1.377  0.3575  0.5446 -0.3139
24828SOL    HW176926   8.708   5.745   1.354  0.2421  0.4654 -0.3984
24828SOL    HW276927   8.610   5.843   1.293 -1.4217 -1.0291 -0.2228
24829SOL     OW76928   4.464   9.087   3.867  0.0633 -0.4772 -0.1433
24829SOL    HW176929   4.390   9.128   3.822  0.3111  0.9144  0.6574
24829SOL    HW276930   4.523   9.159   3.887  0.5820 -1.2335  1.2203
24830SOL     OW76931   3.822   1.261   1.796 -0.3844 -0.6327  0.2972
24830SOL    HW176932   3.757   1.303   1.853  0.0016 -1.3207  1.2682
24830SOL    HW276933   3.838   1.176   1.836  2.2539  0.0938  1.0144
24831SOL     OW76934   8.878   4.266   4.632  0.3159  0.3177 -0.4922
24831SOL    HW176935   8.910   4.301   4.715  1.3042 -0.0152 -0.7181
24831SOL    HW276936   8.891   4.337   4.569 -1.4008  0.9441 -0.1771
24832SOL     OW76937   2.547   0.778   6.803 -0.4881 -0.3671  0.2072
24832SOL    HW176938   2.615   0.793   6.738 -1.5039 -0.7460 -0.9916
24832SOL    HW276939   2.583   0.813   6.885  1.6395 -1.6874 -0.0823
24833SOL     OW76940   4.879   7.288   9.919 -0.0650  0.3976  0.6930
24833SOL    HW176941   4.878   7.285  10.015  2.1014 -1.0182  0.7319
24833SOL    HW276942   4.829   7.212   9.892 -1.5695  1.3612  0.6262
24834SOL     OW76943   1.604  10.489   3.528 -0.1345  0.2329 -0.7243
24834SOL    HW176944   1.605  10.466   3.621  0.6745  0.4230 -0.6776
24834SOL    HW276945   1.539  10.559   3.521 -0.2166  0.1999 -0.2999
24835SOL     OW76946   3.301   0.823   2.076 -0.4766  0.2861  0.2087
24835SOL    HW176947   3.358   0.858   2.007  2.2867 -1.3390  1.4993
24835SOL    HW276948   3.293   0.895   2.139  0.5819  0.4150  0.2197
24836SOL     OW76949   4.513   2.523   3.985  0.0190  0.2099 -0.1300
24836SOL    HW176950   4.541   2.596   3.930  0.1408 -0.2028 -0.6311
24836SOL    HW276951   4.580   2.456   3.971 -0.5219 -0.3038 -0.3226
24837SOL     OW76952   8.706   9.026   0.737 -0.2575 -0.1546  0.5873
24837SOL    HW176953   8.787   9.049   0.691 -0.5553  3.1129  1.4113
24837SOL    HW276954   8.686   8.937   0.709  1.9159  0.0831 -2.1207
24838SOL     OW76955   2.170   7.577   0.694 -0.3133 -0.2641 -0.3394
24838SOL    HW176956   2.266   7.576   0.698 -0.3702 -1.1143  1.3559
24838SOL    HW276957   2.145   7.486   0.708 -1.4027  0.1450  0.4761
24839SOL     OW76958   3.152   4.164   2.358  0.4892 -0.5152  0.2796
24839SOL    HW176959   3.227   4.121   2.319  0.5046  0.5513 -0.9047
24839SOL    HW276960   3.189   4.232   2.415  0.4645  1.1018 -1.5474
24840SOL     OW76961   2.478   1.180   1.839  0.3088 -0.1868  0.1137
24840SOL    HW176962   2.509   1.254   1.786 -0.9694 -0.9199 -1.7264
24840SOL    HW276963   2.548   1.166   1.903  1.7434  0.9778 -1.1259
24841SOL     OW76964   9.376   0.584   5.165  0.0077  0.1275 -0.0813
24841SOL    HW176965   9.428   0.585   5.084  0.7178 -0.2147  0.3586
24841SOL    HW276966   9.332   0.499   5.165 -1.7056  0.9535 -1.1432
24842SOL     OW76967   4.747   9.160   8.747 -0.0800 -0.0285 -0.6827
24842SOL    HW176968   4.745   9.241   8.797  4.2848 -1.2516  2.0140
24842SOL    HW276969   4.806   9.178   8.674 -0.2219 -0.3702 -0.8828
24843SOL     OW76970   9.405  10.161   5.685  0.3395 -0.3015 -0.0690
24843SOL    HW176971   9.474  10.131   5.626  0.9441  0.4520  0.2257
24843SOL    HW276972   9.410  10.102   5.761  2.2346  1.1066  0.9938
24844SOL     OW76973   2.901  10.271   0.126  0.2969 -0.3708 -0.6196
24844SOL    HW176974   2.859  10.250   0.043  0.9618 -1.9079 -0.6069
24844SOL    HW276975   2.983  10.313   0.100 -0.8312  1.9443 -0.6537
24845SOL     OW76976   2.934   3.722   8.321 -1.3482 -0.6528  0.6020
24845SOL    HW176977   2.864   3.774   8.281  0.9940  1.9148 -0.5228
24845SOL    HW276978   2.955   3.656   8.255 -1.9825 -0.7700  0.5067
24846SOL     OW76979   6.911   5.126  10.301 -0.0825 -0.2110  0.3200
24846SOL    HW176980   6.974   5.130  10.229  0.6744  1.4900  0.9998
24846SOL    HW276981   6.879   5.216  10.309 -1.3795 -0.7140  1.0677
24847SOL     OW76982   0.178   7.446   4.744 -0.1255 -0.0361  0.2295
24847SOL    HW176983   0.241   7.451   4.816 -1.3448  1.6102  1.2704
24847SOL    HW276984   0.112   7.384   4.774 -0.8622  0.9753  0.7745
24848SOL     OW76985   9.306   2.213   5.729  0.2365 -0.0477  0.7488
24848SOL    HW176986   9.298   2.294   5.678  0.1022  0.3486  1.3849
24848SOL    HW276987   9.263   2.233   5.812 -1.5637 -1.4113  0.2071
24849SOL     OW76988   7.707   8.147   5.073 -0.2233  0.6783 -0.0877
24849SOL    HW176989   7.735   8.220   5.018 -0.0651  0.6688 -0.0202
24849SOL    HW276990   7.623   8.121   5.037 -0.7635  1.5373  0.5036
24850SOL     OW76991   6.319  10.257   6.037 -0.1359 -0.0959 -0.1010
24850SOL    HW176992   6.342  10.205   5.960  0.9910 -0.1715  0.2596
24850SOL    HW276993   6.227  10.279   6.025 -1.1414 -3.3885  0.3992
24851SOL     OW76994   8.651   6.815   8.347 -0.1110 -0.0578  0.8458
24851SOL    HW176995   8.594   6.740   8.332 -0.9665  0.3040  2.1604
24851SOL    HW276996   8.732   6.793   8.301  0.0080 -2.2137  1.9709
24852SOL     OW76997   7.413   9.084   2.689  0.0381  0.0272  0.0401
24852SOL    HW176998   7.373   9.105   2.604 -0.8541  0.2834  0.5138
24852SOL    HW276999   7.361   9.011   2.723 -0.7633  1.0783  1.1601
24853SOL     OW77000   3.264   5.131   5.764  0.5700  0.0534  0.1622
24853SOL    HW177001   3.274   5.041   5.795 -0.7390 -0.7214 -1.4802
24853SOL    HW277002   3.320   5.137   5.687 -1.5434 -0.3515 -1.4978
24854SOL     OW77003   1.207  10.225   7.766 -0.1467 -0.0775 -0.3583
24854SOL    HW177004   1.190  10.133   7.786  0.3834  0.1829  1.4341
24854SOL    HW277005   1.189  10.271   7.848 -2.2545  1.7020 -1.6899
24855SOL     OW77006   8.892  10.161   0.088 -0.2793  0.8193 -0.1738
24855SOL    HW177007   8.978  10.185   0.053 -0.5035  0.1372 -1.2456
24855SOL    HW277008   8.894  10.065   0.092 -1.3030  0.7310 -1.1190
24856SOL     OW77009   0.020   0.945   1.537 -0.4392  0.0974 -0.0556
24856SOL    HW177010  -0.056   0.902   1.576 -0.6416  0.3446 -0.1734
24856SOL    HW277011   0.023   0.911   1.447 -0.8238  0.6019 -0.2696
24857SOL     OW77012   4.322   1.916   9.894  0.0779  0.1639 -0.3422
24857SOL    HW177013   4.384   1.869   9.950 -1.1488  0.7499  1.5925
24857SOL    HW277014   4.374   1.985   9.853  1.1054 -0.5796 -0.3148
24858SOL     OW77015   1.604   4.647   6.390  0.0813 -1.0288  0.1673
24858SOL    HW177016   1.643   4.622   6.474  1.1752 -0.5280 -0.1828
24858SOL    HW277017   1.645   4.589   6.326 -0.1185 -0.8318 -0.1403
24859SOL     OW77018   1.202   2.499   6.450 -0.4988 -0.2024  0.1231
24859SOL    HW177019   1.297   2.499   6.447 -0.4965 -0.3187  0.1691
24859SOL    HW277020   1.174   2.523   6.362 -0.4327 -1.7835 -0.3721
24860SOL     OW77021   0.012   6.264   6.472 -0.0246  0.2203  0.3450
24860SOL    HW177022   0.045   6.354   6.477 -0.4967  0.4018  0.2022
24860SOL    HW277023  -0.083   6.274   6.464 -0.2044 -0.3141  1.6329
24861SOL     OW77024   1.120   0.437   2.340  0.0432 -0.1172  0.5260
24861SOL    HW177025   1.131   0.405   2.250  0.4309  0.2116  0.4519
24861SOL    HW277026   1.117   0.358   2.393 -1.4595 -0.3812  0.1083
24862SOL     OW77027   3.316   9.864   5.795 -0.5045  0.1057 -0.4545
24862SOL    HW177028   3.410   9.877   5.785 -0.2792  0.4237  1.6350
24862SOL    HW277029   3.279   9.952   5.790 -0.6783 -0.0002 -1.0939
24863SOL     OW77030   3.146   5.246  10.021 -0.0328 -0.3609  0.0121
24863SOL    HW177031   3.143   5.270  10.113 -0.5201 -1.1164  0.1986
24863SOL    HW277032   3.101   5.162  10.016 -1.4790  0.4241 -1.1416
24864SOL     OW77033   4.594   6.302   5.590 -0.3603  0.1215 -0.2573
24864SOL    HW177034   4.570   6.393   5.572 -0.5790  0.1868  0.3412
24864SOL    HW277035   4.669   6.285   5.534  0.9458  1.2910  1.0551
24865SOL     OW77036   0.448   9.455   2.607 -0.0855  0.2082 -0.2758
24865SOL    HW177037   0.368   9.404   2.590  1.0100 -1.0118 -2.2121
24865SOL    HW277038   0.453   9.516   2.534  0.7347  0.2841 -0.1606
24866SOL     OW77039   9.894   5.416   3.038 -0.9431 -0.0620 -0.3297
24866SOL    HW177040   9.908   5.322   3.025 -2.7667 -0.4057 -0.0017
24866SOL    HW277041   9.952   5.439   3.111 -0.2238 -0.8400 -0.6342
24867SOL     OW77042   1.549   3.305   3.945 -0.1419  0.3959  0.0971
24867SOL    HW177043   1.482   3.238   3.930  1.3857 -1.1916 -0.0144
24867SOL    HW277044   1.513   3.361   4.013 -1.1429 -1.0635  0.8162
24868SOL     OW77045   6.206   7.254   3.494 -0.3544  0.2565  0.3659
24868SOL    HW177046   6.251   7.326   3.539 -0.0688  0.1776  0.2099
24868SOL    HW277047   6.258   7.176   3.516  0.5189  0.3898 -1.0987
24869SOL     OW77048   8.674   4.203   8.211  0.2107  0.7375 -0.4337
24869SOL    HW177049   8.754   4.177   8.257  0.7438  1.8946 -0.6669
24869SOL    HW277050   8.605   4.195   8.277  0.4024 -0.8918 -0.4129
24870SOL     OW77051   8.994   0.601   7.148  0.4803  0.0110 -0.3336
24870SOL    HW177052   9.016   0.511   7.122 -1.3736  0.0493 -2.3373
24870SOL    HW277053   8.914   0.592   7.199 -0.0754  0.5581 -1.0960
24871SOL     OW77054   8.175   2.002   4.476 -0.0945 -0.3718  0.0881
24871SOL    HW177055   8.088   1.994   4.515 -0.1196  0.7807  0.3060
24871SOL    HW277056   8.225   2.055   4.538  0.2656  0.3549 -0.8020
24872SOL     OW77057   6.080   8.463   6.111  0.8685 -0.6688  0.4908
24872SOL    HW177058   6.007   8.523   6.092  0.3683 -1.3684  0.1895
24872SOL    HW277059   6.073   8.447   6.206  1.5283  0.4150  0.7439
24873SOL     OW77060   1.837   5.299   6.510  0.2850  0.0010  0.0898
24873SOL    HW177061   1.903   5.310   6.579 -0.2129  1.3499  0.3893
24873SOL    HW277062   1.760   5.264   6.555  0.7314 -1.4934 -0.2446
24874SOL     OW77063   1.038   6.623   5.193 -0.3563 -0.0450  0.4645
24874SOL    HW177064   1.037   6.528   5.183  0.7361  0.0032 -0.2920
24874SOL    HW277065   0.996   6.638   5.278 -1.9245 -1.0792 -0.0766
24875SOL     OW77066   5.307   0.914   0.706  0.5512  0.4341 -0.0132
24875SOL    HW177067   5.270   0.942   0.790 -1.7393  1.6740 -1.3435
24875SOL    HW277068   5.236   0.864   0.664  1.6750 -0.2172 -1.2064
24876SOL     OW77069  10.370   6.743   8.745 -0.5666  0.8197 -0.1133
24876SOL    HW177070  10.344   6.654   8.720  1.6695  0.1321 -0.1869
24876SOL    HW277071  10.376   6.741   8.840 -0.3701  0.8486 -0.1250
24877SOL     OW77072  10.367  10.067   4.526 -0.4356 -0.2424  0.0331
24877SOL    HW177073  10.455  10.071   4.564  0.4363 -0.1136 -1.8782
24877SOL    HW277074  10.333   9.982   4.554  1.6077 -1.7715 -1.7148
24878SOL     OW77075   8.330   6.279   1.308  0.0379 -0.1113  0.0570
24878SOL    HW177076   8.308   6.345   1.242  0.6418 -1.2369 -1.3058
24878SOL    HW277077   8.256   6.281   1.369 -0.7711  0.6100 -0.9149
24879SOL     OW77078   5.576   2.622   5.489 -0.0834  0.3943 -0.5806
24879SOL    HW177079   5.565   2.558   5.559  2.6334  0.3533 -0.1006
24879SOL    HW277080   5.659   2.600   5.448  1.7961  4.3984  0.5766
24880SOL     OW77081   5.416   4.616   6.598  0.1089  0.1777 -0.2633
24880SOL    HW177082   5.430   4.523   6.615  0.3908  0.1468 -0.6580
24880SOL    HW277083   5.368   4.619   6.516  0.7181  0.4010 -0.6163
24881SOL     OW77084   6.641   5.646   7.980 -0.4896  0.2528 -0.6259
24881SOL    HW177085   6.652   5.703   8.056 -1.3980 -1.5855  0.9793
24881SOL    HW277086   6.680   5.563   8.006 -0.5189 -0.3377 -2.3228
24882SOL     OW77087   6.373   7.743   1.932 -0.0802  0.6313  0.1606
24882SOL    HW177088   6.430   7.667   1.941 -0.2131  0.6681  1.5936
24882SOL    HW277089   6.402   7.803   2.002  0.5687  2.2786 -1.4362
24883SOL     OW77090   0.590   8.897   1.544  0.3733 -0.0588 -0.5502
24883SOL    HW177091   0.514   8.947   1.514  0.2641 -0.6240 -1.2445
24883SOL    HW277092   0.574   8.808   1.512  1.7718  0.0172 -1.5490
24884SOL     OW77093   1.311  10.301   7.281 -0.1002 -0.6702 -0.0947
24884SOL    HW177094   1.219  10.297   7.255  0.0788 -1.9547 -0.6112
24884SOL    HW277095   1.309  10.311   7.376 -0.7981 -1.8944  0.0459
24885SOL     OW77096   1.100   4.053   7.615  0.0255  0.0543 -0.0186
24885SOL    HW177097   1.169   4.035   7.552  0.7003 -0.7692  0.9375
24885SOL    HW277098   1.023   4.075   7.561  0.6825 -0.2623 -1.1022
24886SOL     OW77099   4.362   6.919  10.192 -0.4145 -0.0174 -0.0539
24886SOL    HW177100   4.292   6.871  10.148 -0.8315 -0.5757  1.1765
24886SOL    HW277101   4.322   7.002  10.217  0.4147  1.2499 -2.5320
24887SOL     OW77102   6.193   7.098  10.198 -0.5485 -0.5215 -0.1022
24887SOL    HW177103   6.236   7.013  10.190  1.2368  0.0321  2.3545
24887SOL    HW277104   6.264   7.162  10.189 -1.8262  0.7706 -1.7443
24888SOL     OW77105   6.237   9.141   0.142 -0.1552 -0.3523 -0.1551
24888SOL    HW177106   6.290   9.063   0.160 -0.7486 -0.5003  1.0933
24888SOL    HW277107   6.200   9.125   0.055  2.1505 -0.0459 -1.2496
24889SOL     OW77108   4.283   6.910   3.527  0.5300 -0.0454  0.1802
24889SOL    HW177109   4.311   6.972   3.594  0.8623  0.6771 -0.6104
24889SOL    HW277110   4.283   6.960   3.445 -0.1329 -0.8345 -0.3248
24890SOL     OW77111   3.064   3.803   5.390 -0.1048  0.0562  0.4183
24890SOL    HW177112   3.023   3.721   5.363 -0.8622  0.9084 -1.1898
24890SOL    HW277113   3.154   3.797   5.357  0.1993 -0.5809  1.3239
24891SOL     OW77114   3.745   3.271   8.776  0.4987 -0.0962  0.9245
24891SOL    HW177115   3.709   3.263   8.864  0.4943 -0.8765  0.8639
24891SOL    HW277116   3.704   3.199   8.727  0.1634  0.5982  0.1669
24892SOL     OW77117   8.862   0.207  10.092  0.0963 -0.0302 -0.1777
24892SOL    HW177118   8.955   0.221  10.109  0.1249  0.0881 -0.4212
24892SOL    HW277119   8.830   0.292  10.060 -0.5482  0.5491  1.8017
24893SOL     OW77120   8.561   9.705   6.584 -0.0435  0.2401 -0.5367
24893SOL    HW177121   8.595   9.689   6.496 -1.5664 -1.1055 -0.9368
24893SOL    HW277122   8.528   9.619   6.613 -0.1314  0.7895  1.0977
24894SOL     OW77123   3.121   3.747   3.733 -0.1704 -0.1262 -0.1122
24894SOL    HW177124   3.161   3.681   3.791 -0.8398 -0.0531  0.4467
24894SOL    HW277125   3.102   3.699   3.652  3.6640  0.4632 -1.5742
24895SOL     OW77126   2.972   0.912   8.981 -0.0241 -0.2938  0.1368
24895SOL    HW177127   3.041   0.854   8.950  0.2367 -0.3321  0.7670
24895SOL    HW277128   2.979   0.908   9.077 -0.1183  0.6295  0.1922
24896SOL     OW77129   8.321   9.596   7.259 -0.2299 -0.0057 -0.2283
24896SOL    HW177130   8.313   9.656   7.186 -1.9745 -1.0132 -0.9148
24896SOL    HW277131   8.238   9.604   7.306  0.3109 -0.4202  0.8266
24897SOL     OW77132   1.199   5.333   4.350  0.0413  0.5991 -0.4676
24897SOL    HW177133   1.177   5.338   4.443 -2.5883  1.8650 -1.0443
24897SOL    HW277134   1.212   5.240   4.334  0.7795  0.3771  1.1848
24898SOL     OW77135   2.990   9.396   5.027 -0.2405 -0.4490 -0.2906
24898SOL    HW177136   2.948   9.449   4.958 -3.3362 -0.8446  1.1378
24898SOL    HW277137   2.943   9.420   5.107  2.6264 -0.6889  1.5877
24899SOL     OW77138   5.698   9.114   1.361  0.5322  0.5673 -0.3730
24899SOL    HW177139   5.688   9.050   1.290  1.8210  1.0207 -0.9867
24899SOL    HW277140   5.752   9.068   1.426  1.0769  0.8539 -0.6140
24900SOL     OW77141   1.451   5.369   9.855 -0.6657 -0.3999  0.1554
24900SOL    HW177142   1.486   5.315   9.926 -0.3879 -1.4276 -0.7398
24900SOL    HW277143   1.466   5.317   9.776 -0.3624  1.0205 -0.7447
24901SOL     OW77144   6.825   9.480   0.025  0.0951 -0.1635 -0.1069
24901SOL    HW177145   6.818   9.393   0.065 -1.0721 -0.3116 -0.5896
24901SOL    HW277146   6.769   9.475  -0.052  0.5836  0.8091 -0.5414
24902SOL     OW77147   5.163   8.215   2.963  0.2252  0.1451 -0.0263
24902SOL    HW177148   5.165   8.252   3.051  0.0844 -0.6447  0.3208
24902SOL    HW277149   5.077   8.238   2.928  0.2727  0.4384  0.0499
24903SOL     OW77150   4.556   3.492   5.412  0.3676 -0.1263 -0.2103
24903SOL    HW177151   4.469   3.517   5.379  0.5643 -1.1563 -1.5502
24903SOL    HW277152   4.616   3.551   5.368  0.3622  0.7917  0.9469
24904SOL     OW77153   6.610   4.906   5.323  0.1024  0.2712 -0.2986
24904SOL    HW177154   6.556   4.967   5.373  0.8461  1.9345 -1.4305
24904SOL    HW277155   6.647   4.847   5.388  1.3589  2.6079  1.2464
24905SOL     OW77156   4.860   9.161  10.222 -0.0135  0.7094  0.6067
24905SOL    HW177157   4.905   9.243  10.200 -0.7561  0.2837 -3.0575
24905SOL    HW277158   4.773   9.170  10.183  0.3908 -2.3373 -1.3206
24906SOL     OW77159  10.227   2.704   0.724  0.0068 -0.1915 -0.5270
24906SOL    HW177160  10.307   2.681   0.771 -1.3644 -1.8884  1.1003
24906SOL    HW277161  10.180   2.622   0.714 -2.5243  1.0235  0.4992
24907SOL     OW77162   2.463   8.364   0.245  0.5219  0.3500  0.6232
24907SOL    HW177163   2.558   8.373   0.246  0.4544  1.4829 -0.5034
24907SOL    HW277164   2.436   8.402   0.161 -0.8877 -0.3419  0.7319
24908SOL     OW77165   9.241   8.092   1.302 -0.3565 -0.0532  0.0139
24908SOL    HW177166   9.326   8.070   1.264 -0.3325 -0.9051  0.5301
24908SOL    HW277167   9.183   8.022   1.273 -0.1073 -1.3429  2.3158
24909SOL     OW77168   8.566   3.583   8.153 -0.3098 -0.2976 -0.2515
24909SOL    HW177169   8.576   3.489   8.135 -0.9792 -0.3148 -0.5695
24909SOL    HW277170   8.644   3.606   8.202 -0.0104 -0.9708 -0.3921
24910SOL     OW77171   5.083   8.865   3.983  0.0991 -0.0662  0.7396
24910SOL    HW177172   5.157   8.812   4.012  0.2864 -1.2053 -1.5933
24910SOL    HW277173   5.008   8.828   4.031  0.7018 -0.2999  1.5392
24911SOL     OW77174   8.749   0.056   9.106 -0.1002  0.1785  0.4364
24911SOL    HW177175   8.788  -0.018   9.061  1.6376  1.4000 -0.1805
24911SOL    HW277176   8.713   0.019   9.186  1.5844 -1.1947  0.6171
24912SOL     OW77177   1.495   0.185   6.932  0.7264 -0.5792 -0.8604
24912SOL    HW177178   1.585   0.215   6.916  1.1719 -0.8538  0.9611
24912SOL    HW277179   1.504   0.094   6.959 -0.0529 -0.4548 -0.1495
24913SOL     OW77180   4.881   6.903   8.089 -0.3209 -0.5064  0.1784
24913SOL    HW177181   4.805   6.849   8.067  1.5644 -3.0558 -0.6583
24913SOL    HW277182   4.946   6.840   8.119  1.5585  1.5329  0.6047
24914SOL     OW77183   5.358   7.410   6.192  0.0352 -0.2778  0.4014
24914SOL    HW177184   5.281   7.454   6.228  1.7093  0.6574  3.1646
24914SOL    HW277185   5.414   7.481   6.161  0.5240 -0.8156  0.0239
24915SOL     OW77186   3.411   4.393   1.577 -0.2562 -0.2135 -0.3587
24915SOL    HW177187   3.401   4.379   1.671  1.1495 -0.3368 -0.1943
24915SOL    HW277188   3.350   4.463   1.555 -0.7479 -0.3370  0.6012
24916SOL     OW77189   8.535   5.813   7.539 -0.0639 -0.0769  0.6956
24916SOL    HW177190   8.626   5.807   7.569 -0.5026 -0.1247  2.0894
24916SOL    HW277191   8.490   5.859   7.610 -0.7686  1.7074 -0.8296
24917SOL     OW77192   5.263   1.512   3.760 -0.1552 -0.7054  1.1346
24917SOL    HW177193   5.345   1.464   3.748 -0.7120 -1.6261  0.9505
24917SOL    HW277194   5.221   1.511   3.674  0.7430  1.8831  0.5954
24918SOL     OW77195   8.279   8.675   1.252  0.2500 -0.4802 -0.6818
24918SOL    HW177196   8.261   8.614   1.181 -1.2658  0.3773 -1.0828
24918SOL    HW277197   8.352   8.728   1.220  0.3485 -0.8568 -1.0974
24919SOL     OW77198   3.042   1.877   6.057 -0.1045  0.3267 -0.1833
24919SOL    HW177199   2.956   1.839   6.072  0.0557 -0.7316 -1.7822
24919SOL    HW277200   3.104   1.809   6.084  0.1985  0.0535 -1.5237
24920SOL     OW77201   9.824   5.288   0.462  0.0006  0.4205 -0.1727
24920SOL    HW177202   9.906   5.288   0.512  0.3418  0.6636 -0.7262
24920SOL    HW277203   9.850   5.266   0.373 -0.4551  1.0913 -0.4791
24921SOL     OW77204   1.433   0.743   8.130  0.2291 -0.4607 -0.6424
24921SOL    HW177205   1.426   0.659   8.175  1.3463 -1.0199 -1.4406
24921SOL    HW277206   1.405   0.725   8.040  0.9533 -0.1172 -0.9500
24922SOL     OW77207   3.450   8.950   6.642 -0.2177  0.2330  0.1973
24922SOL    HW177208   3.376   8.948   6.703  0.2504  2.1059  0.8847
24922SOL    HW277209   3.410   8.947   6.555 -0.9260 -1.7473  0.5407
24923SOL     OW77210   2.845   3.127   6.377 -0.0688  0.2217 -0.4884
24923SOL    HW177211   2.931   3.085   6.373 -0.0663  0.2660 -0.9599
24923SOL    HW277212   2.850   3.183   6.454  0.4402  0.4642 -0.6888
24924SOL     OW77213   6.955   7.466   9.683 -0.5391 -0.2641  0.3189
24924SOL    HW177214   6.998   7.491   9.764 -0.3537  0.4397  0.0091
24924SOL    HW277215   6.984   7.532   9.619 -0.1673 -1.1848 -0.4783
24925SOL     OW77216   4.424   9.441   6.729 -0.4753 -0.3045 -0.0881
24925SOL    HW177217   4.448   9.526   6.765 -1.0037  0.7970 -2.1507
24925SOL    HW277218   4.349   9.413   6.782  0.0549  0.2384  0.9708
24926SOL     OW77219   5.857   4.478   0.969 -0.2014  0.5937  0.3042
24926SOL    HW177220   5.837   4.565   1.005 -1.4497 -0.1604  1.5340
24926SOL    HW277221   5.852   4.490   0.874  0.4018  2.0194  0.4202
24927SOL     OW77222   9.646   9.577   3.505  0.1545 -0.2007  0.1701
24927SOL    HW177223   9.680   9.489   3.515 -1.0424 -0.6231  0.7247
24927SOL    HW277224   9.575   9.569   3.441  0.1664  0.4060  0.0669
24928SOL     OW77225   2.680   1.711   0.827 -0.0496  0.2639 -0.6067
24928SOL    HW177226   2.599   1.755   0.800 -1.0346  0.4346  2.3503
24928SOL    HW277227   2.747   1.779   0.819 -1.0803  1.6098  1.3988
24929SOL     OW77228   9.300   3.020   3.075  0.5171  0.4229 -0.6168
24929SOL    HW177229   9.315   3.012   3.169  0.2983 -3.3710 -0.7547
24929SOL    HW277230   9.206   3.036   3.066  0.1536 -1.1905 -0.1272
24930SOL     OW77231   6.027   3.967   0.548  0.3855  0.0901  0.2013
24930SOL    HW177232   6.081   3.895   0.517 -2.4012 -1.8156 -0.6276
24930SOL    HW277233   5.973   3.929   0.618 -1.6896  1.0935 -0.7402
24931SOL     OW77234   0.580   9.082   9.386  0.0701 -0.2940  0.0386
24931SOL    HW177235   0.514   9.150   9.380 -1.0554 -1.2029  1.3352
24931SOL    HW277236   0.602   9.078   9.480  0.6433 -1.1986 -0.1192
24932SOL     OW77237   1.657   2.342   8.588  0.1914 -0.0478  0.1185
24932SOL    HW177238   1.677   2.288   8.511  0.4828  0.7444 -0.3698
24932SOL    HW277239   1.562   2.355   8.584 -0.0554 -1.4040  0.8422
24933SOL     OW77240   5.742   0.664   1.738  0.0834 -0.3237  0.3794
24933SOL    HW177241   5.687   0.671   1.659  0.8720  0.1302 -0.1419
24933SOL    HW277242   5.704   0.591   1.787 -0.2349 -0.8156 -0.5733
24934SOL     OW77243  10.102   9.334   0.335 -0.2503  0.5995 -0.5660
24934SOL    HW177244  10.059   9.265   0.284 -0.5209  0.0518  0.3745
24934SOL    HW277245  10.189   9.298   0.355  0.1294  1.1131 -1.2412
24935SOL     OW77246   1.376   8.727   1.329 -0.3944 -0.4635 -0.2480
24935SOL    HW177247   1.287   8.693   1.342 -0.6102 -0.0166 -0.5155
24935SOL    HW277248   1.379   8.751   1.236 -0.5392  1.0235  0.0999
24936SOL     OW77249   5.205   1.301   9.149  0.6471 -1.0328 -0.2644
24936SOL    HW177250   5.127   1.351   9.124  1.1609 -0.4238 -0.6758
24936SOL    HW277251   5.179   1.209   9.138  0.1120 -0.8244 -0.7745
24937SOL     OW77252   9.388   1.587   0.236  0.5846 -0.9208 -0.0119
24937SOL    HW177253   9.467   1.590   0.289  0.5616 -2.4943  0.1505
24937SOL    HW277254   9.420   1.578   0.146  0.6196 -2.0915  0.0980
24938SOL     OW77255   0.173   2.479   5.671 -0.2159 -0.0404  0.3070
24938SOL    HW177256   0.199   2.561   5.629 -0.6101  0.0935  0.3198
24938SOL    HW277257   0.187   2.494   5.764  2.0708 -0.8420  0.1524
24939SOL     OW77258   3.897   5.765   0.769  0.1280  0.3101  0.2657
24939SOL    HW177259   3.944   5.743   0.849 -1.0639 -0.2979  0.8245
24939SOL    HW277260   3.904   5.861   0.762  0.6965  0.3119  0.7939
24940SOL     OW77261   7.497  10.465   0.543  0.3711  0.4045 -0.0267
24940SOL    HW177262   7.454  10.392   0.588  1.1954  1.0301  1.8954
24940SOL    HW277263   7.461  10.544   0.584  3.1065  0.9532  1.5845
24941SOL     OW77264   4.468   8.721   2.129 -0.4237 -0.5775 -0.5284
24941SOL    HW177265   4.409   8.796   2.139 -0.3474 -0.6387  0.4583
24941SOL    HW277266   4.410   8.647   2.114 -0.5160 -0.3800 -1.1659
24942SOL     OW77267   6.438   7.445   1.952  0.1834  0.5636  0.9029
24942SOL    HW177268   6.524   7.483   1.935  0.0389  0.4576 -0.1758
24942SOL    HW277269   6.439   7.362   1.904 -0.7973  0.9493  0.1852
24943SOL     OW77270   4.417   6.545   9.846 -0.8271  0.5732 -0.0895
24943SOL    HW177271   4.481   6.608   9.813 -1.0536  1.2956  0.8277
24943SOL    HW277272   4.471   6.476   9.887 -0.6047  0.5133 -0.4742
24944SOL     OW77273   0.085   6.861   3.530  0.1290 -0.5271 -0.2845
24944SOL    HW177274   0.179   6.878   3.533  0.3828 -1.6876 -0.9479
24944SOL    HW277275   0.049   6.912   3.602  1.2423  0.0464 -0.1090
24945SOL     OW77276   6.176   9.748   0.170 -0.5468  0.4673  0.1000
24945SOL    HW177277   6.165   9.670   0.117 -1.7169  1.0336 -0.5335
24945SOL    HW277278   6.150   9.820   0.112  0.5531  1.3321  0.6509
24946SOL     OW77279   5.522  10.467  10.197 -0.9201  0.3277  0.4981
24946SOL    HW177280   5.483  10.545  10.237  0.4364  0.9152  0.7131
24946SOL    HW277281   5.605  10.456  10.242 -1.7017 -2.1191  1.4900
24947SOL     OW77282   2.605  10.331   5.903  0.1293  0.2379  0.0155
24947SOL    HW177283   2.640  10.418   5.882  0.9218  0.1644  0.9585
24947SOL    HW277284   2.510  10.344   5.909  0.1784  0.8898 -0.5098
24948SOL     OW77285   3.813   0.314   2.783  0.0451  0.5665  0.1804
24948SOL    HW177286   3.749   0.346   2.846  0.1527  0.7370  0.2038
24948SOL    HW277287   3.897   0.315   2.830 -0.0898 -0.6106  0.4742
24949SOL     OW77288   4.913   1.548   0.935  0.2034  0.1636  0.0240
24949SOL    HW177289   4.833   1.498   0.923  1.5383 -2.1167 -0.0019
24949SOL    HW277290   4.894   1.606   1.009 -0.8764 -1.7230  1.3118
24950SOL     OW77291   2.322   8.708   5.779  0.3473  0.0484  0.2884
24950SOL    HW177292   2.243   8.664   5.810 -0.0789  0.5073 -0.1140
24950SOL    HW277293   2.314   8.798   5.811  0.3744  0.2734 -0.3059
24951SOL     OW77294   9.878   5.417   1.157  0.5665  0.4859  0.8180
24951SOL    HW177295   9.969   5.401   1.132  1.3026  0.9335  2.9761
24951SOL    HW277296   9.843   5.331   1.178  0.4397  0.3055 -0.0765
24952SOL     OW77297   4.706   0.579   0.473 -0.2204 -0.8332 -0.2068
24952SOL    HW177298   4.730   0.671   0.459  0.8770 -0.8804  1.0872
24952SOL    HW277299   4.788   0.537   0.501 -0.6961 -2.2229 -0.8309
24953SOL     OW77300   4.720   1.997   7.709 -0.5165 -0.1963  0.3080
24953SOL    HW177301   4.688   1.983   7.620 -0.3164  0.7473  0.0794
24953SOL    HW277302   4.642   1.992   7.764 -0.6845 -0.4756  0.0464
24954SOL     OW77303   5.415   3.286   5.400  0.0295  0.2543  0.3729
24954SOL    HW177304   5.345   3.221   5.396  0.2707 -0.0166  0.5175
24954SOL    HW277305   5.460   3.268   5.483 -0.5692  1.2992  0.9447
24955SOL     OW77306   7.063   6.912   5.513 -0.0463 -0.0419 -0.5016
24955SOL    HW177307   7.062   6.863   5.595  1.5566 -1.5570 -1.3213
24955SOL    HW277308   7.132   6.977   5.525  0.7778 -0.8159 -0.9084
24956SOL     OW77309   1.914   0.120  10.044 -0.2556  0.7228  0.4803
24956SOL    HW177310   1.968   0.040  10.044  1.4752  1.8049  1.9910
24956SOL    HW277311   1.854   0.108  10.118  0.5765  1.1222  1.2498
24957SOL     OW77312   2.513   6.723   2.253  0.4825  0.1193  0.5075
24957SOL    HW177313   2.559   6.773   2.186  0.4236  0.3024  0.6048
24957SOL    HW277314   2.580   6.703   2.318  0.5893 -0.2448  0.2901
24958SOL     OW77315   8.420   6.382   8.707 -1.0685 -0.0551 -0.7327
24958SOL    HW177316   8.348   6.430   8.748 -0.9748 -0.9039  0.4742
24958SOL    HW277317   8.438   6.430   8.626 -0.3456  2.5686  0.8535
24959SOL     OW77318   8.599   9.654   3.743  0.5578  0.4567 -0.6507
24959SOL    HW177319   8.534   9.701   3.691 -0.4799 -0.4039 -0.1800
24959SOL    HW277320   8.553   9.631   3.823  1.8687  0.9871  0.2850
24960SOL     OW77321   8.478  10.271   8.594  0.5370 -0.0160  0.6705
24960SOL    HW177322   8.395  10.311   8.568  1.1542  2.2295  1.9491
24960SOL    HW277323   8.496  10.306   8.681  3.0979 -0.0093  0.2210
24961SOL     OW77324   9.782   3.347   3.146 -0.4181 -0.0667 -0.2359
24961SOL    HW177325   9.852   3.293   3.109 -2.6082 -1.2634 -3.0283
24961SOL    HW277326   9.788   3.429   3.098 -1.5504 -0.5844 -1.3036
24962SOL     OW77327   7.841   3.518   1.766 -0.0771 -0.2018  0.1278
24962SOL    HW177328   7.810   3.511   1.675 -0.7000 -0.4255  0.3517
24962SOL    HW277329   7.820   3.608   1.791 -0.8735 -0.4589  0.3938
24963SOL     OW77330   8.452   2.932   3.253  0.0253  0.8084  0.2374
24963SOL    HW177331   8.475   2.902   3.341  0.6550  0.5942  0.0076
24963SOL    HW277332   8.458   2.853   3.199 -3.5687  0.1692  0.5305
24964SOL     OW77333   1.269   3.669   7.798  0.3347  0.2192  0.0292
24964SOL    HW177334   1.193   3.722   7.775 -0.7291 -0.0282  2.6179
24964SOL    HW277335   1.255   3.586   7.752 -0.0685  0.7748 -0.8716
24965SOL     OW77336   3.564   7.786   7.036  0.0067 -0.5244  0.0857
24965SOL    HW177337   3.629   7.730   7.078  0.3868  0.0937  0.3281
24965SOL    HW277338   3.484   7.733   7.036 -0.1108 -0.4060  1.9316
24966SOL     OW77339   5.963   1.423  10.001 -0.3670  0.4659  0.2463
24966SOL    HW177340   5.907   1.501  10.007 -0.4047  0.5108 -0.5492
24966SOL    HW277341   5.906   1.351  10.028 -1.3081  0.3076 -1.9121
24967SOL     OW77342   1.224   3.283   0.799  0.5294  0.2565  0.0988
24967SOL    HW177343   1.203   3.204   0.850 -1.0632  0.6811  0.1473
24967SOL    HW277344   1.143   3.335   0.801  1.1740  1.3379 -0.9464
24968SOL     OW77345   7.343   5.798   6.224  0.2879  0.0271 -0.3152
24968SOL    HW177346   7.332   5.768   6.134  0.9980 -1.4833  0.0836
24968SOL    HW277347   7.254   5.822   6.251 -0.2483 -1.3056 -0.8096
24969SOL     OW77348   5.126   0.505   5.094 -0.4370 -0.2977 -0.7303
24969SOL    HW177349   5.040   0.469   5.117 -1.4051  2.1985 -0.1065
24969SOL    HW277350   5.181   0.482   5.169 -1.8469  1.9884  1.1729
24970SOL     OW77351   6.932   2.700   3.384  0.0330  0.1899  0.4926
24970SOL    HW177352   6.925   2.793   3.406 -0.8838 -0.2669  2.3173
24970SOL    HW277353   6.947   2.699   3.289 -0.4326  2.1704  0.3540
24971SOL     OW77354   9.129   6.849   6.965 -0.1069  0.1276  0.3706
24971SOL    HW177355   9.208   6.823   7.013 -0.7932 -0.1425  1.3781
24971SOL    HW277356   9.071   6.886   7.032 -2.4020 -3.1128  0.4288
24972SOL     OW77357   6.503   1.313   0.288  0.3747  0.1912 -0.2364
24972SOL    HW177358   6.421   1.265   0.284  0.5113 -0.0279 -0.4395
24972SOL    HW277359   6.504   1.364   0.206  1.2688 -1.1732 -1.1196
24973SOL     OW77360   0.749   9.145   7.079 -0.6309 -0.6308 -0.0995
24973SOL    HW177361   0.670   9.093   7.094 -1.2106  0.8252  2.6716
24973SOL    HW277362   0.720   9.219   7.025 -0.9169 -0.6610  0.0137
24974SOL     OW77363   5.991   1.054   0.523 -0.8674  0.3673  0.3507
24974SOL    HW177364   5.904   1.091   0.533 -1.0008 -0.1294  1.0864
24974SOL    HW277365   6.050   1.129   0.522 -1.2395  0.6629  0.5974
24975SOL     OW77366   1.383   0.212   3.836  0.3757  0.1115 -0.2313
24975SOL    HW177367   1.350   0.186   3.922 -0.3938  2.6680  0.3247
24975SOL    HW277368   1.305   0.214   3.781  0.7739 -0.9095 -0.8546
24976SOL     OW77369   1.595   6.392   2.397 -0.5382 -0.5833  0.0175
24976SOL    HW177370   1.533   6.464   2.385  0.5056  0.6475  1.5778
24976SOL    HW277371   1.678   6.427   2.367  0.7174  0.2025  3.8512
24977SOL     OW77372   7.052  10.233   3.362 -0.4519  0.3268 -0.3013
24977SOL    HW177373   7.110  10.170   3.319  0.4659  0.5300  0.6160
24977SOL    HW277374   6.971  10.185   3.377 -0.2988 -0.1589 -1.0139
24978SOL     OW77375   2.293   7.913   0.213  0.4832  0.8556 -0.5350
24978SOL    HW177376   2.359   7.843   0.206 -0.9867 -0.6139 -0.2613
24978SOL    HW277377   2.215   7.876   0.172 -0.7406  1.8292  0.8418
24979SOL     OW77378   7.924   0.491   3.237  0.2812 -0.0811  0.0826
24979SOL    HW177379   7.993   0.557   3.233  0.3414 -0.1831 -1.1803
24979SOL    HW277380   7.958   0.418   3.186 -0.0065 -0.8872  1.0194
24980SOL     OW77381   6.845   4.697   7.585  0.0225  0.1672 -0.4136
24980SOL    HW177382   6.803   4.669   7.667 -1.5639  2.1726 -0.4496
24980SOL    HW277383   6.834   4.622   7.526 -0.5428 -0.5974  0.6202
24981SOL     OW77384   9.698   4.773   2.647  0.0328 -0.3330 -0.1061
24981SOL    HW177385   9.760   4.700   2.641  1.1398  0.4946  0.8383
24981SOL    HW277386   9.732   4.827   2.718 -1.5115  0.4227  0.0930
24982SOL     OW77387   3.613   2.331   9.319  0.0879  0.4798  0.2489
24982SOL    HW177388   3.614   2.348   9.413  0.3637  0.3042  0.2792
24982SOL    HW277389   3.632   2.238   9.311  2.0357  0.8552 -0.0562
24983SOL     OW77390  10.237   4.042   3.028  0.0666  1.0016  0.3331
24983SOL    HW177391  10.330   4.063   3.040  0.2284  1.0004 -0.8081
24983SOL    HW277392  10.224   3.963   3.081  0.8747  0.6432  0.0153
24984SOL     OW77393   0.990   2.999   9.827  0.1235  0.1901 -0.3348
24984SOL    HW177394   0.908   2.952   9.842  0.4545 -0.8064 -1.4426
24984SOL    HW277395   0.987   3.022   9.734 -0.3343  3.0535  0.3000
24985SOL     OW77396   7.383   7.217   4.537 -0.3966  0.1245 -0.2615
24985SOL    HW177397   7.351   7.293   4.489  1.2594  0.9104 -0.1878
24985SOL    HW277398   7.329   7.145   4.505 -0.8572  1.0209 -1.6234
24986SOL     OW77399   7.596   9.911   7.302 -0.6684  0.1859  0.0542
24986SOL    HW177400   7.530   9.843   7.317 -1.3012  0.2855 -1.9744
24986SOL    HW277401   7.627   9.895   7.213  1.2707  0.8306  0.5701
24987SOL     OW77402   8.215   6.524   6.283 -0.1445 -0.5680 -0.1985
24987SOL    HW177403   8.175   6.607   6.256  1.6998  0.0900 -1.0367
24987SOL    HW277404   8.196   6.519   6.377 -0.5263  0.6607 -0.1848
24988SOL     OW77405   1.602   1.696   5.301  0.3649  0.0941  0.3696
24988SOL    HW177406   1.521   1.687   5.351 -0.2249  0.9127 -0.3997
24988SOL    HW277407   1.577   1.680   5.211  1.0658  0.3441  0.1199
24989SOL     OW77408   6.318   5.124   2.619  0.1872 -0.0325 -0.3763
24989SOL    HW177409   6.272   5.110   2.536 -0.3493 -1.5878  0.1398
24989SOL    HW277410   6.265   5.077   2.684  1.5399 -0.3584  0.5388
24990SOL     OW77411  10.072   4.130   5.819 -0.5749  0.4658  0.2644
24990SOL    HW177412  10.004   4.192   5.792 -0.4493 -0.2746 -1.9483
24990SOL    HW277413  10.153   4.180   5.815 -0.1860 -0.1901 -3.4998
24991SOL     OW77414   1.527   0.915   3.015 -0.0777 -0.2278  0.0798
24991SOL    HW177415   1.465   0.850   3.047 -0.0653 -0.3370 -0.1153
24991SOL    HW277416   1.610   0.892   3.056  0.2366 -1.1551 -1.0268
24992SOL     OW77417   4.796   3.384   7.787  0.5812 -0.7926 -0.1089
24992SOL    HW177418   4.795   3.316   7.855  0.2448 -0.1478  0.5469
24992SOL    HW277419   4.865   3.356   7.726  1.1888 -1.1629  0.7264
24993SOL     OW77420   4.244   1.530   5.565 -0.0102 -0.0687 -0.3662
24993SOL    HW177421   4.299   1.502   5.492 -1.3431 -0.2277 -1.3544
24993SOL    HW277422   4.207   1.614   5.536  0.3166  0.4264  0.6140
24994SOL     OW77423   3.839   9.292   2.419  0.0009 -0.0785 -0.1015
24994SOL    HW177424   3.761   9.255   2.460  0.0315 -1.0122 -0.8681
24994SOL    HW277425   3.863   9.230   2.351  0.6755  0.8368 -0.7265
24995SOL     OW77426   9.360   4.813   5.407  0.1249 -0.5662  0.5014
24995SOL    HW177427   9.385   4.861   5.486 -0.1733  0.4489  0.0078
24995SOL    HW277428   9.420   4.847   5.339  0.5932 -1.6571  0.3484
24996SOL     OW77429   0.479   9.265   3.336  0.6150  0.3179 -0.1872
24996SOL    HW177430   0.480   9.289   3.243 -0.0766  0.4700 -0.1583
24996SOL    HW277431   0.420   9.190   3.341  0.2827  0.6021  0.1970
24997SOL     OW77432   1.442   4.862   1.396  0.5519 -0.4390 -0.2469
24997SOL    HW177433   1.520   4.912   1.420 -0.0139 -0.4951  1.9512
24997SOL    HW277434   1.376   4.928   1.379 -0.2289 -0.2867  2.7711
24998SOL     OW77435   5.081   4.944   7.633  0.5575  0.4709 -0.2514
24998SOL    HW177436   4.999   4.995   7.634  0.2135 -0.0294 -1.3657
24998SOL    HW277437   5.055   4.859   7.599  1.1100 -0.5270  1.6765
24999SOL     OW77438   5.162   7.724   7.799  0.5021  0.1563  0.6473
24999SOL    HW177439   5.121   7.767   7.875 -0.6379  0.6784 -0.2345
24999SOL    HW277440   5.165   7.632   7.823  1.5662  0.4865  1.9452
25000SOL     OW77441   3.229   2.196   7.203  0.2801  0.1499  0.1416
25000SOL    HW177442   3.145   2.172   7.164  1.1994 -0.2324 -1.6882
25000SOL    HW277443   3.220   2.290   7.222 -0.2513  0.3228 -0.8977
25001SOL     OW77444   2.039   1.348   4.018 -0.2881 -0.2606 -0.0810
25001SOL    HW177445   2.102   1.289   3.977  1.6411  2.1266 -0.7728
25001SOL    HW277446   1.984   1.379   3.946 -2.0330 -1.9459  0.4444
25002SOL     OW77447   3.453   7.314   4.789  0.4606 -0.3747  0.1942
25002SOL    HW177448   3.399   7.303   4.711  0.4350  0.3154  0.1093
25002SOL    HW277449   3.541   7.331   4.755  0.0996  1.8594  0.2533
25003SOL     OW77450   0.786   0.690   0.507 -0.0539  0.2731 -0.2274
25003SOL    HW177451   0.823   0.615   0.461 -0.3980 -0.1428  0.1738
25003SOL    HW277452   0.837   0.698   0.587 -0.7114 -0.1894  0.2393
25004SOL     OW77453   0.242   4.493   1.481 -0.0087 -0.1439  0.5437
25004SOL    HW177454   0.272   4.417   1.433  1.1509  0.4973  0.2173
25004SOL    HW277455   0.188   4.542   1.418  0.3772 -0.0038  0.3193
25005SOL     OW77456   0.052   3.415   5.033  0.3544  0.4501  0.0326
25005SOL    HW177457   0.117   3.477   5.067  0.6965  0.6085 -0.8859
25005SOL    HW277458   0.025   3.365   5.110  2.4458 -0.4135  0.2779
25006SOL     OW77459  10.379   0.111  10.207  0.0064 -0.0490 -0.3072
25006SOL    HW177460  10.295   0.155  10.190 -0.4864 -1.0708 -0.6006
25006SOL    HW277461  10.395   0.060  10.127  0.3298 -0.7615  0.2094
25007SOL     OW77462   8.665   7.020   7.477  0.2764  0.7591  0.0787
25007SOL    HW177463   8.628   7.091   7.426 -1.3169 -0.5708 -0.6949
25007SOL    HW277464   8.688   7.060   7.561 -1.0873  2.0573 -0.1342
25008SOL     OW77465   5.123  10.148   5.517 -0.3338  0.0185 -0.3336
25008SOL    HW177466   5.092  10.110   5.435  0.1755  2.2914 -1.6817
25008SOL    HW277467   5.070  10.227   5.528  0.7968  0.6868  0.5535
25009SOL     OW77468   1.887  10.023   2.523  0.3191 -0.1147 -0.3916
25009SOL    HW177469   1.933   9.940   2.538 -0.5478 -0.1346  2.9315
25009SOL    HW277470   1.948  10.090   2.554  0.2519  0.3686 -1.2636
25010SOL     OW77471   5.676   5.266   8.621  0.5824  0.0583  0.2039
25010SOL    HW177472   5.603   5.301   8.570  1.1077  0.2640 -0.4209
25010SOL    HW277473   5.652   5.284   8.712  0.3284  1.0756 -0.0438
25011SOL     OW77474   6.412   1.010   2.384 -0.4157  0.5201 -0.4512
25011SOL    HW177475   6.409   1.104   2.367  1.6593  0.3291 -2.1324
25011SOL    HW277476   6.397   0.969   2.299 -0.1055 -0.6674  0.0461
25012SOL     OW77477   8.497   9.014   1.597  0.3093  0.5200 -0.2103
25012SOL    HW177478   8.578   8.997   1.549  0.3651  0.9858 -0.2869
25012SOL    HW277479   8.465   8.927   1.622  1.0017  0.3494  0.0997
25013SOL     OW77480   1.617   4.287   3.481  0.2201  0.4126 -0.1243
25013SOL    HW177481   1.548   4.351   3.499 -1.4233 -1.3995  0.3065
25013SOL    HW277482   1.638   4.300   3.388 -0.4329  1.2244 -0.1672
25014SOL     OW77483   5.817   6.328   5.488  0.4189  0.7412 -0.5611
25014SOL    HW177484   5.857   6.410   5.457  1.6198  1.0945  1.6950
25014SOL    HW277485   5.780   6.350   5.574  0.7993 -1.0747  0.1163
25015SOL     OW77486   7.132   4.176   2.387 -0.2219 -0.2734  0.5118
25015SOL    HW177487   7.083   4.242   2.437 -1.6353  1.2033 -2.5588
25015SOL    HW277488   7.072   4.102   2.380 -0.0456 -0.4580  0.9063
25016SOL     OW77489   2.410   2.626   4.798  0.0501 -0.0932 -0.3364
25016SOL    HW177490   2.341   2.574   4.839 -0.9956 -0.1877 -2.1163
25016SOL    HW277491   2.370   2.712   4.783 -0.1674 -0.5436 -2.5741
25017SOL     OW77492   1.562   7.471   7.144 -0.4148  0.4104 -0.3108
25017SOL    HW177493   1.472   7.461   7.176 -0.1025 -0.4376  0.3513
25017SOL    HW277494   1.616   7.451   7.220  0.3362  0.2929 -0.8711
25018SOL     OW77495  10.224   3.634   2.042 -0.7342  0.0661  0.3418
25018SOL    HW177496  10.183   3.642   2.129 -0.2637 -1.1751  0.6922
25018SOL    HW277497  10.307   3.681   2.051 -1.1342  0.8103  0.2462
25019SOL     OW77498  10.118   7.396   8.405 -0.1677 -0.0247  0.3475
25019SOL    HW177499  10.136   7.426   8.316  1.5251  1.9782  1.2925
25019SOL    HW277500  10.117   7.300   8.398  3.1605 -0.0645 -1.2942
25020SOL     OW77501   7.619   5.003   2.664 -0.5227  0.6614 -0.2352
25020SOL    HW177502   7.606   4.911   2.645 -0.7064  0.3186  1.4404
25020SOL    HW277503   7.714   5.015   2.665 -0.3441 -0.2339  2.4770
25021SOL     OW77504   0.615   5.900   6.728  0.1369 -0.5080 -0.2963
25021SOL    HW177505   0.676   5.887   6.655  0.7590 -2.4313  0.5122
25021SOL    HW277506   0.546   5.955   6.691  0.6626 -1.0511 -2.2169
25022SOL     OW77507   5.342   4.436   4.246 -0.8280 -0.4149 -0.3495
25022SOL    HW177508   5.361   4.392   4.163 -0.4272 -1.8739  0.4916
25022SOL    HW277509   5.405   4.508   4.250 -1.0943 -0.0886 -1.4591
25023SOL     OW77510   5.903   6.930   4.357 -0.1962  0.4963  0.2423
25023SOL    HW177511   5.830   6.882   4.318  0.3323  0.4663 -0.7218
25023SOL    HW277512   5.861   6.998   4.410 -0.9347 -0.2290  0.6145
25024SOL     OW77513   8.186   4.790   1.619  0.0420 -0.4006  0.0978
25024SOL    HW177514   8.275   4.762   1.640 -0.0138 -1.8340 -1.4088
25024SOL    HW277515   8.137   4.780   1.701  1.0892 -0.2772  0.7475
25025SOL     OW77516   4.728   4.335   5.510 -0.0057  0.0208 -0.2207
25025SOL    HW177517   4.708   4.325   5.603  3.3113  1.7719  0.8645
25025SOL    HW277518   4.685   4.417   5.485 -1.9128 -1.0546 -0.6593
25026SOL     OW77519   7.111   4.934   9.261  0.4551 -0.5952 -0.1792
25026SOL    HW177520   7.204   4.938   9.285  0.7154  0.0126 -1.2000
25026SOL    HW277521   7.064   4.941   9.344  1.2922  2.4026  0.1675
25027SOL     OW77522   3.618   2.349   1.719  0.0116  0.0161  0.4976
25027SOL    HW177523   3.682   2.307   1.662 -0.5726  0.1876 -0.2924
25027SOL    HW277524   3.589   2.426   1.670 -1.8473 -0.8229  0.2236
25028SOL     OW77525   6.570   4.372   9.765 -0.4867 -0.3290 -0.2551
25028SOL    HW177526   6.554   4.464   9.786  1.7511 -0.4159  2.3699
25028SOL    HW277527   6.665   4.366   9.753 -0.6204 -2.2671 -0.6906
25029SOL     OW77528   3.008  10.015   6.074  0.5204 -0.0421 -0.1844
25029SOL    HW177529   2.913  10.025   6.082  0.4268  0.1835 -1.3632
25029SOL    HW277530   3.045  10.092   6.117  0.1213  0.3862 -0.5945
25030SOL     OW77531   2.719   6.274   1.542 -0.6852  0.3684  0.1424
25030SOL    HW177532   2.716   6.349   1.483  1.5204 -0.3390 -1.0102
25030SOL    HW277533   2.742   6.200   1.486 -0.1218 -0.6387  1.6243
25031SOL     OW77534   2.249   9.543   3.666  0.3182 -0.1389 -0.2128
25031SOL    HW177535   2.268   9.590   3.747  0.3262  0.0257 -0.3088
25031SOL    HW277536   2.318   9.570   3.606 -0.5211  0.8994 -0.7428
25032SOL     OW77537   5.405   7.700   5.750 -0.2470  0.3188 -0.8479
25032SOL    HW177538   5.430   7.774   5.695 -1.8450  1.1052 -0.5589
25032SOL    HW277539   5.312   7.687   5.733  0.0352 -1.7851 -1.0535
25033SOL     OW77540   1.647   0.808   2.342  0.1175  0.0164 -0.0729
25033SOL    HW177541   1.606   0.769   2.265 -0.1412 -0.2718  0.2062
25033SOL    HW277542   1.718   0.747   2.365 -1.3131 -1.2048  1.3455
25034SOL     OW77543   0.646   6.855   8.191 -0.0553 -0.3039 -0.7457
25034SOL    HW177544   0.687   6.904   8.119 -0.6586 -0.0005 -0.8860
25034SOL    HW277545   0.697   6.774   8.197  0.6226  0.1115 -0.8574
25035SOL     OW77546   4.236   3.015   4.306  0.0225 -0.1799 -0.0554
25035SOL    HW177547   4.243   3.084   4.372  1.1086  0.4083 -0.7601
25035SOL    HW277548   4.167   2.957   4.340 -1.3787  1.5726  0.2435
25036SOL     OW77549   0.002   8.432   7.638  0.0863 -0.6993  0.0393
25036SOL    HW177550   0.069   8.442   7.705  1.4829  0.6899 -1.4834
25036SOL    HW277551   0.006   8.513   7.587 -0.8461 -1.7261 -1.7808
25037SOL     OW77552   8.186   2.282   4.772 -0.1100  0.3465  0.4518
25037SOL    HW177553   8.211   2.336   4.697  1.1108 -0.1069  0.5133
25037SOL    HW277554   8.096   2.255   4.752  0.4551 -0.4460 -1.2878
25038SOL     OW77555   8.096  10.214   9.128  0.2002  0.5011  0.3630
25038SOL    HW177556   8.108  10.289   9.187  2.6719  1.3962 -1.1478
25038SOL    HW277557   8.116  10.249   9.041  0.4566 -1.6959 -0.5148
25039SOL     OW77558   9.913   1.903   3.619  0.3671 -0.0513 -0.5559
25039SOL    HW177559   9.963   1.822   3.634  0.2790  0.1566  1.0912
25039SOL    HW277560   9.896   1.904   3.525 -1.1607 -2.8891 -0.4351
25040SOL     OW77561   0.843   8.217  10.237 -0.1261 -0.3676  0.2639
25040SOL    HW177562   0.909   8.178  10.180  0.9169  0.3510  0.9401
25040SOL    HW277563   0.811   8.294  10.188  1.3869  0.7483  0.9601
25041SOL     OW77564   4.215   2.071   8.226  0.6612  0.5040 -0.3229
25041SOL    HW177565   4.219   1.999   8.164  1.2086  0.8127 -0.6544
25041SOL    HW277566   4.124   2.072   8.256 -0.0335  1.3593 -2.3407
25042SOL     OW77567   8.242  10.425   5.328 -1.2616  0.1565  0.4077
25042SOL    HW177568   8.219  10.512   5.296 -0.7206  1.1841  2.6341
25042SOL    HW277569   8.241  10.433   5.424  2.0082 -1.3813  0.7152
25043SOL     OW77570   3.743   5.979   5.588 -0.3043 -0.1493 -0.2815
25043SOL    HW177571   3.650   5.961   5.571 -0.6270  0.4815  0.7544
25043SOL    HW277572   3.784   5.975   5.502 -1.2411 -0.7309 -0.7180
25044SOL     OW77573   9.897   6.448   7.916 -0.0406 -0.2184 -0.3599
25044SOL    HW177574   9.976   6.479   7.870  0.3469 -1.7673 -0.7925
25044SOL    HW277575   9.827   6.457   7.851  0.1470 -0.6390 -0.6211
25045SOL     OW77576   0.879   5.328  10.390  0.1531  0.0656 -0.0084
25045SOL    HW177577   0.908   5.409  10.433 -0.1165 -0.1410  0.5664
25045SOL    HW277578   0.949   5.265  10.407 -0.3112 -0.2389  0.8001
25046SOL     OW77579   7.276   4.312   0.001 -0.7748  0.3323  0.4270
25046SOL    HW177580   7.266   4.398  -0.040  0.6891  0.4450  0.2674
25046SOL    HW277581   7.259   4.327   0.094  1.3548  1.2198  0.7257
25047SOL     OW77582   4.012   6.427   1.152  0.3755  0.0080 -0.0362
25047SOL    HW177583   4.057   6.342   1.152 -0.1847 -0.3516  2.1262
25047SOL    HW277584   4.083   6.491   1.162  0.5911 -0.5086  2.5804
25048SOL     OW77585   6.175   8.682   3.047  1.1524  0.0999 -0.5082
25048SOL    HW177586   6.106   8.695   2.982 -0.7987 -2.1587  0.9206
25048SOL    HW277587   6.149   8.735   3.121  1.8603  0.5065 -0.5432
25049SOL     OW77588   7.819   3.129   9.512  0.5118  0.0035 -0.2409
25049SOL    HW177589   7.818   3.129   9.608  0.3970  1.0903 -0.2377
25049SOL    HW277590   7.814   3.036   9.489 -0.1022 -0.2387  0.7933
25050SOL     OW77591   1.298  10.117   8.738  0.5549  0.0223  0.5653
25050SOL    HW177592   1.297  10.055   8.665 -1.2885  1.5305 -0.7817
25050SOL    HW277593   1.237  10.080   8.802 -2.4743  1.4792 -1.2855
25051SOL     OW77594   7.837   9.674   8.336 -0.3426 -0.0009 -0.3035
25051SOL    HW177595   7.791   9.751   8.370  1.4820  0.7102  0.7322
25051SOL    HW277596   7.889   9.642   8.411 -0.3393 -1.6962 -0.9689
25052SOL     OW77597   2.425   0.276   3.845 -0.3858 -0.4066 -0.2495
25052SOL    HW177598   2.384   0.294   3.930  1.8785  1.3061  0.6021
25052SOL    HW277599   2.395   0.188   3.822 -0.2750 -1.3912  2.8686
25053SOL     OW77600   4.989   6.764  10.306 -0.1552 -0.0385 -0.1388
25053SOL    HW177601   4.917   6.703  10.325  0.2848 -0.0309  1.8027
25053SOL    HW277602   5.027   6.782  10.392 -0.5738  3.3643 -0.5508
25054SOL     OW77603   4.071   3.742   3.777 -0.0254 -0.3685 -0.2080
25054SOL    HW177604   4.077   3.676   3.707  1.1697  0.2598 -0.7309
25054SOL    HW277605   4.023   3.815   3.737  1.5547  0.4102 -0.7380
25055SOL     OW77606   8.310   3.725   2.499 -0.9865  0.8482 -0.2211
25055SOL    HW177607   8.226   3.716   2.545 -0.6890 -0.1745  0.1386
25055SOL    HW277608   8.372   3.744   2.569 -0.3991 -1.4461 -0.0652
25056SOL     OW77609   8.578  10.054   3.134  0.1842 -0.4123  0.1888
25056SOL    HW177610   8.664  10.088   3.160 -0.2714 -0.2567  1.5591
25056SOL    HW277611   8.572   9.968   3.175  0.1217 -0.9052 -0.8248
25057SOL     OW77612   2.592   2.290   8.560  0.1997  0.3051  0.1801
25057SOL    HW177613   2.521   2.226   8.557 -0.1962  0.7567 -2.3380
25057SOL    HW277614   2.561   2.358   8.620 -1.7178  0.6774 -1.1551
25058SOL     OW77615   1.151   8.655   1.469  0.4849  0.3915 -0.0239
25058SOL    HW177616   1.130   8.661   1.563  0.0715 -3.8202  0.3525
25058SOL    HW277617   1.173   8.563   1.456  1.5231  1.0380 -3.9369
25059SOL     OW77618   8.510   4.639   9.709 -0.3551 -0.3151  0.3888
25059SOL    HW177619   8.490   4.601   9.623 -2.1832  0.6664  0.3372
25059SOL    HW277620   8.518   4.733   9.692 -0.5396 -0.1384  1.2587
25060SOL     OW77621   0.506   9.636   7.655 -0.0038  0.0118 -0.4314
25060SOL    HW177622   0.593   9.672   7.669 -0.7686  0.9664  2.6585
25060SOL    HW277623   0.460   9.702   7.604 -0.0576  1.4204  1.3660
25061SOL     OW77624   9.422   8.285   4.103 -0.6749 -0.3137 -0.2948
25061SOL    HW177625   9.331   8.266   4.084 -0.4072 -1.8853 -0.0983
25061SOL    HW277626   9.466   8.276   4.018 -0.5157 -0.7563 -0.1658
25062SOL     OW77627   9.883   4.210   6.693 -0.3780  0.3670 -0.3891
25062SOL    HW177628   9.898   4.292   6.646 -1.2082  0.5709 -0.3121
25062SOL    HW277629   9.788   4.195   6.687 -0.0865 -1.3495 -1.6551
25063SOL     OW77630   7.971   0.570   5.264 -0.4885 -0.1983 -0.4167
25063SOL    HW177631   7.932   0.590   5.179 -1.0473  0.2857 -0.0550
25063SOL    HW277632   8.047   0.628   5.270 -1.4185  0.9997  0.1211
25064SOL     OW77633   0.439   7.629   6.732 -0.0333 -0.2513  0.3498
25064SOL    HW177634   0.434   7.591   6.819 -2.0058 -0.5206  0.1628
25064SOL    HW277635   0.426   7.723   6.745  1.7584  0.0018  0.5147
25065SOL     OW77636   2.461   6.310  10.395 -0.3389  0.0981 -0.0560
25065SOL    HW177637   2.389   6.285  10.453 -0.3528 -0.3004 -0.2451
25065SOL    HW277638   2.498   6.227  10.366  0.4562  0.2984  0.3637
25066SOL     OW77639   7.515   4.368   1.345  0.3090  0.6173  1.1148
25066SOL    HW177640   7.582   4.318   1.392  1.8393 -0.1009 -1.5878
25066SOL    HW277641   7.564   4.440   1.303 -0.8548  0.9266  0.2320
25067SOL     OW77642   1.180  10.005   6.349  0.6366  0.5533  0.2536
25067SOL    HW177643   1.109  10.061   6.316 -1.5993 -2.0702  0.2949
25067SOL    HW277644   1.165  10.001   6.444  0.3916 -0.5817  0.1727
25068SOL     OW77645   4.258   5.326   3.183 -0.9631 -0.1014 -0.2976
25068SOL    HW177646   4.250   5.242   3.137 -1.5391  0.2154 -0.7806
25068SOL    HW277647   4.170   5.345   3.214 -0.3592 -1.0834  2.3642
25069SOL     OW77648   7.300   6.752   0.400  0.0071 -0.1048 -0.1503
25069SOL    HW177649   7.380   6.701   0.417 -0.1766 -0.5218 -0.4975
25069SOL    HW277650   7.303   6.769   0.306  1.1113  2.3267  0.2544
25070SOL     OW77651   5.369   1.301   1.044  0.1297 -0.1435  0.5612
25070SOL    HW177652   5.304   1.332   0.981  0.2648 -1.2408 -0.1252
25070SOL    HW277653   5.444   1.359   1.031 -0.2575  0.3547  0.5130
25071SOL     OW77654   6.608   3.934   5.334 -0.0273  0.1584 -0.7136
25071SOL    HW177655   6.552   3.949   5.257 -1.5327  0.0864  0.3320
25071SOL    HW277656   6.549   3.898   5.400  0.6526  2.5059  1.3205
25072SOL     OW77657   8.671   6.482   7.548 -0.2227 -0.0484  0.7531
25072SOL    HW177658   8.737   6.447   7.488  0.5169 -0.7272  1.9169
25072SOL    HW277659   8.635   6.405   7.591 -2.3949  0.2480 -0.4389
25073SOL     OW77660   2.008   5.651   7.861  0.3995  0.1074 -0.1343
25073SOL    HW177661   2.081   5.675   7.919  0.3464 -0.0039 -0.0216
25073SOL    HW277662   1.996   5.557   7.875 -0.8854  0.4304  1.1165
25074SOL     OW77663   6.301   5.579   0.878  0.6162  0.0125  0.2741
25074SOL    HW177664   6.221   5.583   0.825  1.0653  1.7002 -0.3167
25074SOL    HW277665   6.349   5.503   0.844 -0.4240 -0.6506  0.2240
25075SOL     OW77666   5.483   5.384   2.232  0.4862 -0.4907 -0.2766
25075SOL    HW177667   5.442   5.392   2.318  0.4547 -0.5313 -0.2879
25075SOL    HW277668   5.557   5.326   2.246  0.4054 -0.6010 -0.3031
25076SOL     OW77669   2.350  10.209   3.741 -0.4040  0.5547 -0.2412
25076SOL    HW177670   2.362  10.210   3.836  0.3269 -0.2946 -0.3150
25076SOL    HW277671   2.255  10.213   3.729 -0.4627  1.8829  0.4916
25077SOL     OW77672   6.074   8.844   3.265  0.1761  0.1988 -0.0615
25077SOL    HW177673   6.050   8.936   3.275  1.8932  0.5205  1.6417
25077SOL    HW277674   6.168   8.841   3.284  0.2074 -1.8779 -0.2956
25078SOL     OW77675   4.713   6.594   8.450 -0.2396 -0.4461  0.2830
25078SOL    HW177676   4.807   6.576   8.449  0.0027  0.2048 -3.2704
25078SOL    HW277677   4.673   6.509   8.471  1.0879 -0.7208  1.9076
25079SOL     OW77678   5.145   0.632   5.601 -1.0838  0.0264 -0.1465
25079SOL    HW177679   5.206   0.559   5.616 -0.3532  0.8300  1.0235
25079SOL    HW277680   5.099   0.642   5.685 -2.1624  0.0427 -0.7257
25080SOL     OW77681   6.987   8.794   3.198  0.2029 -0.5707 -0.1049
25080SOL    HW177682   6.891   8.790   3.190  0.2131 -3.4962  0.1984
25080SOL    HW277683   7.008   8.733   3.269  2.2376  1.0656  0.7876
25081SOL     OW77684   0.369   9.590   9.815 -0.5118 -0.2035 -0.0648
25081SOL    HW177685   0.433   9.660   9.829  0.1846 -0.9484  0.5625
25081SOL    HW277686   0.362   9.546   9.899 -2.9365  0.7013  0.3020
25082SOL     OW77687   9.800   4.251   3.639 -0.1627  0.1145  0.6279
25082SOL    HW177688   9.813   4.196   3.561  0.1913  1.1771 -0.0793
25082SOL    HW277689   9.705   4.265   3.642 -0.1814  0.0503  0.3971
25083SOL     OW77690   7.974   1.440   0.678 -0.6538  0.0514  0.2813
25083SOL    HW177691   8.028   1.391   0.739 -3.3177 -0.0126  2.7960
25083SOL    HW277692   8.014   1.527   0.675  0.7271 -0.5570  0.4144
25084SOL     OW77693   6.964  10.219   0.805  0.8234 -0.6224 -0.0496
25084SOL    HW177694   7.013  10.165   0.743 -0.9625 -0.5781 -1.5881
25084SOL    HW277695   7.030  10.277   0.843  2.2451 -1.7460 -0.6969
25085SOL     OW77696   4.538   1.075   2.255 -0.0504  0.3192  0.2262
25085SOL    HW177697   4.524   1.038   2.342 -1.7003  1.5432  0.5432
25085SOL    HW277698   4.518   1.003   2.195  2.3290 -0.9247  0.7926
25086SOL     OW77699   0.926   5.953   4.773  0.0009  0.1853 -0.4207
25086SOL    HW177700   0.872   5.990   4.843 -0.2197  0.8872 -0.9472
25086SOL    HW277701   0.998   6.016   4.762  1.0766 -0.8628  0.4397
25087SOL     OW77702   2.616   3.164   6.866  0.1079 -0.4138  0.5121
25087SOL    HW177703   2.607   3.233   6.932  0.2422  0.8436 -0.7528
25087SOL    HW277704   2.617   3.082   6.917 -0.3409  0.4834  2.0137
25088SOL     OW77705   3.168   1.278   6.227  0.2619 -0.0781  0.4453
25088SOL    HW177706   3.177   1.337   6.302  0.5625 -0.7231  0.9268
25088SOL    HW277707   3.089   1.308   6.182  0.1659  0.4101  0.9349
25089SOL     OW77708   8.437   0.352   2.839  0.1595 -0.1274  0.2417
25089SOL    HW177709   8.377   0.283   2.869  0.3717 -0.2496  0.3906
25089SOL    HW277710   8.464   0.397   2.919  1.1917 -0.8352  0.3188
25090SOL     OW77711   4.974   4.292   9.067  0.4367  1.1457 -0.4655
25090SOL    HW177712   4.893   4.276   9.019  0.8890 -1.2299 -0.5382
25090SOL    HW277713   5.027   4.344   9.007  0.4247 -0.5416 -2.0281
25091SOL     OW77714   1.128   2.317   3.229  0.3768 -0.0770  0.3757
25091SOL    HW177715   1.108   2.248   3.292  0.7592  0.2965  0.9147
25091SOL    HW277716   1.165   2.270   3.154 -0.8911 -0.6055  0.0529
25092SOL     OW77717  10.163   1.130   0.348 -0.4428  0.2891 -0.3936
25092SOL    HW177718  10.077   1.154   0.314 -0.5691  0.2307 -0.1243
25092SOL    HW277719  10.149   1.047   0.393  0.1116 -0.6044 -1.8183
25093SOL     OW77720   5.908   9.548  10.306 -0.2053  0.5284  0.2275
25093SOL    HW177721   5.922   9.468  10.357 -2.7004 -0.3508 -0.3163
25093SOL    HW277722   5.975   9.545  10.238  0.3171 -0.6319  0.7615
25094SOL     OW77723   1.558   9.547   4.327 -0.0926 -0.5121  0.5565
25094SOL    HW177724   1.524   9.635   4.313 -0.7090 -1.0545 -1.9832
25094SOL    HW277725   1.495   9.505   4.384 -0.6051  0.2411  0.5604
25095SOL     OW77726   5.341   1.294   4.117  0.2623 -0.8587 -0.0973
25095SOL    HW177727   5.368   1.252   4.199 -1.5012 -0.6371  0.6609
25095SOL    HW277728   5.410   1.357   4.097  0.6498 -0.8061  1.3243
25096SOL     OW77729   2.872   3.490   8.149  0.5856 -0.0533  0.2927
25096SOL    HW177730   2.798   3.507   8.208  1.4918  2.9071  0.7530
25096SOL    HW277731   2.842   3.522   8.064  0.9077 -0.0103  0.1961
25097SOL     OW77732   0.999   5.718   2.762 -0.4281 -0.8178 -0.8620
25097SOL    HW177733   0.988   5.813   2.765  0.3764 -0.7373  0.0856
25097SOL    HW277734   0.925   5.684   2.813  0.3094 -0.5843  0.4172
25098SOL     OW77735   5.092   1.994   2.632  0.6191  0.5552  0.1863
25098SOL    HW177736   5.183   2.015   2.653  0.2293  3.6447 -0.7704
25098SOL    HW277737   5.043   2.072   2.659 -1.3242  0.1901 -1.9920
25099SOL     OW77738   6.637   4.009   2.074 -0.0709  0.0146  0.5196
25099SOL    HW177739   6.619   3.915   2.079 -1.6733  0.2141 -0.6444
25099SOL    HW277740   6.551   4.050   2.083  0.2401  1.2560 -1.5376
25100SOL     OW77741   8.758   1.218   7.557  0.3997 -0.3025  0.1699
25100SOL    HW177742   8.677   1.221   7.507  0.5032 -1.2525 -0.0801
25100SOL    HW277743   8.755   1.296   7.612  0.5757  1.1560 -1.7509
25101SOL     OW77744   6.343   1.945   1.241 -0.2369 -0.0923 -0.0760
25101SOL    HW177745   6.285   2.019   1.224  0.7576  0.7255  0.0185
25101SOL    HW277746   6.407   1.947   1.171  0.3952 -0.2519  0.4853
25102SOL     OW77747   6.977   2.702   8.757  0.0687 -0.4876 -0.0568
25102SOL    HW177748   6.914   2.664   8.696 -0.1062 -0.2486 -0.0259
25102SOL    HW277749   7.053   2.643   8.753 -0.0920 -0.6840 -0.2161
25103SOL     OW77750  10.422   1.841   7.541  0.3189 -0.4102  0.0974
25103SOL    HW177751  10.403   1.885   7.624  2.0236  0.8620 -0.1280
25103SOL    HW277752  10.459   1.757   7.567  1.4196  0.2311  0.6792
25104SOL     OW77753   9.201   4.411   8.001  0.1937  0.2310 -0.0401
25104SOL    HW177754   9.144   4.335   7.996  0.3568  0.1251 -0.3072
25104SOL    HW277755   9.146   4.480   8.038 -0.1994  0.2163 -0.5885
25105SOL     OW77756   5.368   4.190   7.786  0.0100  0.1386  0.0764
25105SOL    HW177757   5.284   4.236   7.784  0.7497  1.6403 -2.8989
25105SOL    HW277758   5.345   4.098   7.779 -1.4175  0.2606  2.1892
25106SOL     OW77759   5.958   2.194   9.434  0.1739 -0.8083  0.8060
25106SOL    HW177760   5.871   2.155   9.443 -0.2791  0.3060  1.4663
25106SOL    HW277761   5.963   2.259   9.504  0.0028  1.9135 -1.4866
25107SOL     OW77762   5.560   6.482   6.103  0.4880  0.2434  0.2049
25107SOL    HW177763   5.550   6.574   6.080 -0.0513  0.4997  1.4165
25107SOL    HW277764   5.569   6.437   6.018 -3.2005  0.9191 -0.7305
25108SOL     OW77765   4.282   6.453   7.937 -0.2906 -0.1257  0.2762
25108SOL    HW177766   4.339   6.376   7.933 -2.1803 -1.5889 -0.4048
25108SOL    HW277767   4.303   6.503   7.859 -1.0482 -1.5593 -0.9171
25109SOL     OW77768   5.501   2.797   8.156 -0.2644  0.8399 -0.3062
25109SOL    HW177769   5.457   2.855   8.218 -0.6273  1.4733 -1.1415
25109SOL    HW277770   5.472   2.709   8.180 -0.0908  1.0422  0.6674
25110SOL     OW77771  10.360   6.407   0.495  0.8571  0.8620  0.1366
25110SOL    HW177772  10.285   6.349   0.508  1.7737 -0.2728  0.4774
25110SOL    HW277773  10.366   6.458   0.576  1.6911 -0.5106  0.9640
25111SOL     OW77774   5.942   1.433   4.006  0.0360  0.1010 -0.3420
25111SOL    HW177775   6.022   1.424   4.058  1.0105  0.3255 -1.7599
25111SOL    HW277776   5.913   1.523   4.023  0.7307  0.3991 -0.7165
25112SOL     OW77777   9.522   7.729   8.565  0.7260 -0.3051 -0.1663
25112SOL    HW177778   9.538   7.647   8.611 -0.0138 -0.2122  0.2860
25112SOL    HW277779   9.530   7.797   8.632 -1.5713 -0.2701  0.1513
25113SOL     OW77780   2.523   6.565   7.528 -0.0085 -0.8181 -0.6478
25113SOL    HW177781   2.544   6.541   7.438  0.7911 -0.9085 -0.4417
25113SOL    HW277782   2.598   6.615   7.558 -0.4722 -0.3965 -0.1765
25114SOL     OW77783   0.084   3.540  10.089  0.2980  0.2759 -0.0593
25114SOL    HW177784   0.117   3.483  10.159 -0.7935  0.8240  0.9381
25114SOL    HW277785   0.051   3.617  10.135 -0.4440  0.6541 -1.1934
25115SOL     OW77786   1.091   0.621   8.197 -0.7721  0.5007 -0.4511
25115SOL    HW177787   1.123   0.592   8.282 -1.7658  0.9898  0.1060
25115SOL    HW277788   1.093   0.717   8.202  0.1070  0.5474 -1.3498
25116SOL     OW77789   2.094   8.442   0.275  0.4579  0.1372  0.3442
25116SOL    HW177790   2.169   8.397   0.316 -1.1548 -0.9439  2.2895
25116SOL    HW277791   2.062   8.501   0.343  0.4970  1.8373 -1.0503
25117SOL     OW77792   4.319   1.590   3.584 -0.3895  0.1835  0.8386
25117SOL    HW177793   4.223   1.592   3.583 -0.3821  0.8860  0.9729
25117SOL    HW277794   4.341   1.559   3.671 -0.4927  0.9580  1.1468
25118SOL     OW77795   1.339   8.413   3.634 -0.4753  0.2038  0.3112
25118SOL    HW177796   1.367   8.442   3.720 -0.5692 -0.4687  0.5682
25118SOL    HW277797   1.299   8.491   3.594  2.0078  1.2899 -0.2024
25119SOL     OW77798   7.279   8.992   8.624 -0.5576  0.1144 -0.0897
25119SOL    HW177799   7.209   8.991   8.560 -1.4770  2.5446  0.7543
25119SOL    HW277800   7.286   9.084   8.650  0.7445 -0.5625  2.2307
25120SOL     OW77801   5.189   0.225   1.460 -0.2350 -0.0104 -0.7433
25120SOL    HW177802   5.166   0.188   1.375 -0.3930  0.5550 -0.9529
25120SOL    HW277803   5.284   0.212   1.467 -0.0089  1.0603 -1.5719
25121SOL     OW77804   7.701   6.223   5.221 -0.8048 -0.2781 -0.3110
25121SOL    HW177805   7.690   6.153   5.286  0.8255 -0.4799 -0.2159
25121SOL    HW277806   7.784   6.264   5.244 -1.2833  1.1056 -0.9376
25122SOL     OW77807   8.693   7.177  10.027 -0.2833  0.5233  0.0589
25122SOL    HW177808   8.598   7.169  10.021 -0.3156  0.5631  0.5112
25122SOL    HW277809   8.711   7.266   9.998 -0.3728  0.4866 -0.1149
25123SOL     OW77810   1.012   1.008   7.585  0.3063 -0.1115 -0.1653
25123SOL    HW177811   0.936   1.019   7.643  0.7967 -0.1975  0.5142
25123SOL    HW277812   1.038   1.097   7.562  1.4152  0.0494  1.5203
25124SOL     OW77813  10.074   8.868   6.712  0.2367 -0.0838  0.4753
25124SOL    HW177814  10.104   8.806   6.778 -0.3681  0.3739  1.1942
25124SOL    HW277815  10.111   8.836   6.630  3.7612  1.1175  1.4225
25125SOL     OW77816   1.659   4.488   8.602  0.2141 -0.1849  0.1982
25125SOL    HW177817   1.668   4.528   8.516  1.1533 -1.7622 -0.4992
25125SOL    HW277818   1.746   4.451   8.620 -0.8061 -2.7342  0.3033
25126SOL     OW77819   0.398  10.095   0.633 -0.5726  0.0444  0.4900
25126SOL    HW177820   0.314  10.048   0.631  0.1338 -1.3703  1.9786
25126SOL    HW277821   0.391  10.159   0.562 -2.5986 -0.5676  0.0705
25127SOL     OW77822   5.475   1.800   3.555 -0.0996 -0.4690 -0.1770
25127SOL    HW177823   5.433   1.848   3.483 -1.8321 -1.8090 -0.1353
25127SOL    HW277824   5.412   1.806   3.627 -0.7534 -3.3529 -0.4076
25128SOL     OW77825   2.937   6.325   2.364 -0.0206  0.0240  0.0369
25128SOL    HW177826   2.951   6.395   2.300  0.1940 -0.2622 -0.2261
25128SOL    HW277827   2.996   6.346   2.436  1.4957 -0.9442 -0.8787
25129SOL     OW77828   4.818   2.837   5.499  0.2338  0.3996  0.5477
25129SOL    HW177829   4.912   2.841   5.483 -0.0426  2.5426 -0.8467
25129SOL    HW277830   4.788   2.767   5.441  0.7628  0.7719 -0.1922
25130SOL     OW77831   9.050   1.162   9.276  0.6044  0.4067  0.3753
25130SOL    HW177832   9.037   1.115   9.194  4.7324  0.0946 -0.2867
25130SOL    HW277833   9.055   1.254   9.251  1.8906  0.3092  0.2088
25131SOL     OW77834   5.500   5.779  10.316  0.4076 -0.3801 -0.4398
25131SOL    HW177835   5.584   5.762  10.273  1.5032  1.7792  0.6335
25131SOL    HW277836   5.521   5.779  10.410 -1.1665 -1.4144 -0.0500
25132SOL     OW77837   9.862   8.642   6.114 -0.4248 -0.1116 -0.1232
25132SOL    HW177838   9.866   8.584   6.038  1.5914 -0.5385  0.2471
25132SOL    HW277839   9.930   8.707   6.098  0.9615 -0.9796  1.8676
25133SOL     OW77840   1.641   7.555   2.298  0.0832 -0.0727  0.4704
25133SOL    HW177841   1.666   7.486   2.360 -2.0797  0.3288  1.9099
25133SOL    HW277842   1.713   7.618   2.302  0.0158 -0.0352  2.6854
25134SOL     OW77843   3.562   3.253   9.464 -0.6530 -0.3682 -0.5891
25134SOL    HW177844   3.514   3.203   9.398 -0.0911  1.6090 -2.6430
25134SOL    HW277845   3.646   3.273   9.423 -0.1241  0.6382  0.8778
25135SOL     OW77846   9.713   6.825   2.293 -0.0727 -0.2253  0.3403
25135SOL    HW177847   9.791   6.805   2.242 -0.6277  0.5504 -0.8758
25135SOL    HW277848   9.654   6.751   2.278 -0.7148  0.5452 -1.2142
25136SOL     OW77849   2.867   6.106   7.119 -0.2443  0.2875 -1.3896
25136SOL    HW177850   2.913   6.168   7.063  1.5232  1.1577  0.8703
25136SOL    HW277851   2.923   6.028   7.121  0.7773  0.9962  0.6210
25137SOL     OW77852   7.735   0.823   8.752 -0.2674 -0.2054  0.1225
25137SOL    HW177853   7.794   0.839   8.678 -2.5028  2.5214 -1.3031
25137SOL    HW277854   7.742   0.902   8.806 -0.1176 -1.3286  1.8135
25138SOL     OW77855   9.465   0.365  10.260  0.7708 -0.1399  0.2265
25138SOL    HW177856   9.441   0.303  10.329  1.6715 -1.4013 -0.5520
25138SOL    HW277857   9.432   0.326  10.180  0.1957  1.0613 -0.1563
25139SOL     OW77858   2.748   8.320   6.861  0.4309 -0.0912 -0.1138
25139SOL    HW177859   2.780   8.286   6.944 -1.4352  0.9139  1.0830
25139SOL    HW277860   2.655   8.299   6.861 -0.5968  3.7914  0.1697
25140SOL     OW77861   8.747   9.182   6.977 -0.0617  0.1425 -0.0698
25140SOL    HW177862   8.792   9.136   6.905 -1.2640  0.6916 -1.2207
25140SOL    HW277863   8.692   9.114   7.017  1.2974 -0.3872  0.9613
25141SOL     OW77864   3.734   1.194   5.974  0.6547  0.9039  0.5379
25141SOL    HW177865   3.644   1.193   5.943 -0.1027  1.6444  2.5488
25141SOL    HW277866   3.759   1.287   5.970  0.5805  0.9984  1.9433
25142SOL     OW77867   4.105   5.023   4.220  0.4613  0.1433 -0.3918
25142SOL    HW177868   4.177   5.065   4.172  0.5050  0.4201 -0.0888
25142SOL    HW277869   4.031   5.082   4.208 -0.4339 -1.3331 -2.7741
25143SOL     OW77870   0.151   9.609   1.036  0.2791 -0.1189 -0.6179
25143SOL    HW177871   0.193   9.663   0.969  1.7946 -1.6836 -0.9899
25143SOL    HW277872   0.088   9.668   1.078  1.2462  1.6693 -1.5630
25144SOL     OW77873   1.270  10.357   2.099  0.0574 -0.1722  0.0846
25144SOL    HW177874   1.265  10.288   2.166 -1.1627 -0.4764 -0.3003
25144SOL    HW277875   1.362  10.358   2.073  0.1696 -1.4212  0.3499
25145SOL     OW77876   8.545   8.037   3.313 -0.3564  0.4106 -0.4905
25145SOL    HW177877   8.570   8.078   3.230 -0.9586  0.1641 -0.7985
25145SOL    HW277878   8.551   8.107   3.377  2.3245  0.1233 -0.2938
25146SOL     OW77879   7.737   5.731   9.449  0.5079  0.0526  0.1647
25146SOL    HW177880   7.769   5.771   9.530  4.2231  0.5568 -1.3600
25146SOL    HW277881   7.720   5.805   9.391 -0.0238 -0.3643 -0.2199
25147SOL     OW77882   9.015   0.712   5.859 -0.4013  0.0059 -0.3585
25147SOL    HW177883   9.097   0.755   5.836  0.3431 -0.9465  0.3915
25147SOL    HW277884   8.947   0.774   5.833  0.4706  0.1723 -2.4399
25148SOL     OW77885   8.258   3.893   6.710  0.2253  0.1284  0.3890
25148SOL    HW177886   8.251   3.862   6.800  1.2409 -0.7305  0.1892
25148SOL    HW277887   8.347   3.871   6.683  0.1050  0.8344 -0.6640
25149SOL     OW77888  10.445   2.102   7.212 -0.1785  0.2514  0.2103
25149SOL    HW177889  10.531   2.135   7.187 -0.7221  1.5385 -0.0077
25149SOL    HW277890  10.400   2.177   7.251 -1.0088 -0.5434  0.8290
25150SOL     OW77891   9.219   0.010   8.418  0.2182 -0.3797  0.1857
25150SOL    HW177892   9.298   0.007   8.472  1.9911  1.5037 -2.0444
25150SOL    HW277893   9.177   0.092   8.442  1.8079  1.2320 -2.0839
25151SOL     OW77894   6.914   2.492   7.868 -0.7710 -0.2898 -0.2991
25151SOL    HW177895   6.874   2.405   7.870  1.0360 -1.1364  1.0476
25151SOL    HW277896   6.948   2.500   7.779 -0.6433 -1.0966 -0.3275
25152SOL     OW77897   5.699   8.283   7.932  0.1903 -0.0055 -0.9663
25152SOL    HW177898   5.754   8.211   7.964 -1.4642  0.0340  2.3252
25152SOL    HW277899   5.621   8.239   7.898 -0.6610  0.1373  0.7112
25153SOL     OW77900   5.308   5.135   7.461  0.6681 -0.0265  0.2879
25153SOL    HW177901   5.297   5.077   7.535  0.1093  1.3825  1.3586
25153SOL    HW277902   5.329   5.077   7.387  0.5213 -1.5095  1.3736
25154SOL     OW77903   6.156   4.780   6.755 -0.0668  0.2278  0.1673
25154SOL    HW177904   6.094   4.791   6.828  0.8033 -0.1651  0.9920
25154SOL    HW277905   6.158   4.686   6.739  1.4038  0.0583  1.1582
25155SOL     OW77906   5.865   1.890   3.687 -0.4799  0.2417  0.1750
25155SOL    HW177907   5.813   1.812   3.707 -0.4129  0.2640  0.4455
25155SOL    HW277908   5.950   1.856   3.661 -0.7726  0.1854 -0.7447
25156SOL     OW77909   7.886   4.652   6.428  0.3955 -0.3495 -0.3748
25156SOL    HW177910   7.867   4.713   6.357  1.6867  1.3655  0.6877
25156SOL    HW277911   7.974   4.620   6.409  1.4839  1.4557  1.2794
25157SOL     OW77912  10.115   1.236   3.757 -0.2271 -0.0255  0.6650
25157SOL    HW177913  10.180   1.244   3.687  0.5560 -0.1114  1.3679
25157SOL    HW277914  10.059   1.163   3.730 -0.5933  0.6158 -0.3799
25158SOL     OW77915   3.637   2.281   1.974 -0.3147 -0.0226  0.0416
25158SOL    HW177916   3.637   2.297   1.879  0.2847  0.4568  0.1118
25158SOL    HW277917   3.703   2.213   1.987  0.6015  0.8851  0.2505
25159SOL     OW77918   7.265   1.191   3.568  0.0708  0.5476 -0.3508
25159SOL    HW177919   7.320   1.265   3.592 -0.9900  2.0821 -2.3469
25159SOL    HW277920   7.326   1.129   3.528  1.1551 -0.2666  2.3253
25160SOL     OW77921   4.444   1.557   6.983  0.3723 -0.1177  0.0883
25160SOL    HW177922   4.476   1.568   6.894  1.5980  1.6644  0.6881
25160SOL    HW277923   4.348   1.556   6.975  0.4838 -0.4900 -1.2843
25161SOL     OW77924   9.598   7.062   2.674 -0.2477 -0.0507  0.0415
25161SOL    HW177925   9.681   7.056   2.627  0.0936 -1.2126  0.7508
25161SOL    HW277926   9.531   7.047   2.607  0.2226 -1.4282 -0.1603
25162SOL     OW77927   8.810  10.288   4.048 -0.0634 -0.2783  0.7116
25162SOL    HW177928   8.885  10.318   4.099 -1.8796  1.8031  2.3367
25162SOL    HW277929   8.774  10.368   4.008 -1.3217 -1.2345 -0.1700
25163SOL     OW77930   1.215   8.303   5.300  0.0187 -0.4772  0.6492
25163SOL    HW177931   1.288   8.241   5.300  0.5342 -0.0339 -2.8134
25163SOL    HW277932   1.137   8.249   5.291  0.1572 -0.7873  1.2617
25164SOL     OW77933   7.060   4.873   4.297  0.4305  0.1169 -0.0481
25164SOL    HW177934   7.136   4.930   4.312 -0.8056  1.3331  2.1308
25164SOL    HW277935   6.992   4.909   4.354 -1.0603 -2.3518 -0.1355
25165SOL     OW77936   7.146   9.460   3.633  0.3579 -0.7880  0.0695
25165SOL    HW177937   7.211   9.394   3.607 -0.5583 -2.5470  2.0268
25165SOL    HW277938   7.165   9.478   3.725 -0.6378  0.2780  0.0917
25166SOL     OW77939   3.134   2.907   6.775 -0.3651  0.2508 -0.2669
25166SOL    HW177940   3.141   2.819   6.736  0.3904 -0.6081  1.6585
25166SOL    HW277941   3.060   2.900   6.836  0.0709  0.7450  0.3393
25167SOL     OW77942   1.837   0.968   6.198  0.4108  0.7013  0.3488
25167SOL    HW177943   1.885   1.032   6.146 -0.6341  0.8860 -0.4349
25167SOL    HW277944   1.870   0.883   6.168  0.8538  0.8407  0.4372
25168SOL     OW77945   2.652   2.543   9.396 -0.1687 -0.2713 -0.0142
25168SOL    HW177946   2.724   2.506   9.447  2.4146 -0.5827 -3.4629
25168SOL    HW277947   2.688   2.624   9.359 -2.3317  0.6058 -0.3547
25169SOL     OW77948   0.035  10.068   6.881 -0.0294  0.0670  0.1431
25169SOL    HW177949   0.109  10.054   6.939  0.6942  0.1712 -0.7256
25169SOL    HW277950  -0.014  10.140   6.920 -0.6451 -1.1085  1.6444
25170SOL     OW77951   4.170   0.127   7.522  0.6128  0.9303  0.2216
25170SOL    HW177952   4.115   0.050   7.530  1.5695  0.4084  2.4044
25170SOL    HW277953   4.179   0.141   7.427 -0.7480 -0.7397 -0.1913
25171SOL     OW77954   1.515   8.817   0.905 -0.0513  0.3038  0.4977
25171SOL    HW177955   1.502   8.743   0.846 -0.1748  0.7361 -0.0298
25171SOL    HW277956   1.449   8.805   0.973  0.8300 -0.8052  1.1827
25172SOL     OW77957   8.527   3.111   8.624  0.7322 -0.0332 -0.8685
25172SOL    HW177958   8.472   3.131   8.700  1.4217 -1.2540 -0.0233
25172SOL    HW277959   8.602   3.064   8.660  1.8577  0.7310 -2.1216
25173SOL     OW77960   7.760   9.111   3.446 -0.2586 -0.2297  0.3046
25173SOL    HW177961   7.699   9.183   3.464  0.5017  0.2659  1.0075
25173SOL    HW277962   7.820   9.112   3.521 -0.6024 -2.0078  0.6578
25174SOL     OW77963   1.648   7.429   5.649 -0.1341 -0.4257 -0.4977
25174SOL    HW177964   1.675   7.338   5.653  0.3301 -0.2746 -0.1052
25174SOL    HW277965   1.579   7.431   5.583 -0.8242 -1.2254  0.1695
25175SOL     OW77966   2.774   1.963   9.352 -0.2467  0.0116 -0.3236
25175SOL    HW177967   2.776   1.936   9.260  1.4127 -1.3587  0.0638
25175SOL    HW277968   2.684   1.991   9.367 -0.9477 -1.1981 -1.9900
25176SOL     OW77969   2.285   6.292  10.146 -0.6953 -0.5619 -0.3786
25176SOL    HW177970   2.227   6.357  10.106  0.7704  0.1497 -1.4286
25176SOL    HW277971   2.367   6.339  10.162 -0.1000 -1.7655  0.2451
25177SOL     OW77972   2.284   6.164   7.889  0.0074 -0.0714 -0.3655
25177SOL    HW177973   2.266   6.188   7.798 -1.5036  0.8258  0.1400
25177SOL    HW277974   2.379   6.165   7.895  0.1164  2.2551 -1.3510
25178SOL     OW77975   1.740   5.061   1.844  0.2267 -0.1524  0.6404
25178SOL    HW177976   1.693   5.028   1.921 -0.4481  2.2169  1.3162
25178SOL    HW277977   1.696   5.143   1.822  1.7602  0.3022 -0.9795
25179SOL     OW77978   4.064   2.908   5.168 -0.6762 -0.5616  0.1742
25179SOL    HW177979   4.148   2.881   5.206  0.0132  2.2517  0.9309
25179SOL    HW277980   3.999   2.854   5.213  0.5662 -1.3250  1.1348
25180SOL     OW77981   6.354   8.071  10.362  0.4508  0.0747 -0.0711
25180SOL    HW177982   6.322   7.985  10.389  0.7067  0.2186  0.6975
25180SOL    HW277983   6.412   8.099  10.433  0.7122  0.6923 -0.5175
25181SOL     OW77984   9.943   0.586   3.273  0.5059 -0.5988 -0.0484
25181SOL    HW177985  10.031   0.548   3.264  0.7096  0.2124 -1.9917
25181SOL    HW277986   9.884   0.513   3.258  0.8778 -0.8045 -0.5609
25182SOL     OW77987   0.170   0.447   2.948 -0.1830 -0.2944  0.7166
25182SOL    HW177988   0.265   0.433   2.949 -0.2206 -0.6266  0.1749
25182SOL    HW277989   0.138   0.386   2.882 -1.1573 -2.4260  3.0383
25183SOL     OW77990   2.760   5.048   2.567  0.3243 -0.1153  0.5154
25183SOL    HW177991   2.777   5.141   2.551 -0.6074 -0.0728 -0.2603
25183SOL    HW277992   2.720   5.046   2.654 -2.2232  0.5256 -0.5812
25184SOL     OW77993   9.784   0.672   0.470 -0.4921  0.0196  0.0814
25184SOL    HW177994   9.767   0.761   0.439  1.1055  0.3632  0.0838
25184SOL    HW277995   9.880   0.667   0.475 -0.5414 -1.7974 -0.1958
25185SOL     OW77996   5.917  10.325   7.646 -0.0850  0.2458  0.1140
25185SOL    HW177997   5.860  10.262   7.602  0.6162  1.3681 -2.5790
25185SOL    HW277998   5.884  10.410   7.619  0.6033  0.9998  1.5604
25186SOL     OW77999   7.829   0.683   2.486  0.4993 -0.1894 -0.2698
25186SOL    HW178000   7.899   0.715   2.542  0.5045  1.2448 -1.0631
25186SOL    HW278001   7.799   0.602   2.529  2.1885 -0.4884  0.4176
25187SOL     OW78002   1.772   4.856   0.914 -0.2099  0.0800 -0.6776
25187SOL    HW178003   1.852   4.848   0.966 -0.2962  0.1144 -0.5409
25187SOL    HW278004   1.716   4.915   0.964 -0.0190  0.6613 -1.1427
25188SOL     OW78005   4.998   4.320   9.345 -0.4571 -0.0730  0.2140
25188SOL    HW178006   4.960   4.400   9.382  0.3906 -0.2821  1.6188
25188SOL    HW278007   4.970   4.320   9.254 -0.3785  1.8895  0.1477
25189SOL     OW78008  10.013   6.712   8.031 -0.3713  0.3887  0.6845
25189SOL    HW178009   9.975   6.669   7.954 -1.1250  0.7969  0.8177
25189SOL    HW278010  10.101   6.739   8.002 -0.2173 -0.4689  0.3367
25190SOL     OW78011   9.304   7.374   5.404  0.6416  0.0918 -0.0028
25190SOL    HW178012   9.237   7.421   5.454  0.5227 -0.0088 -0.0653
25190SOL    HW278013   9.355   7.442   5.361  0.2022  0.1516 -0.4375
25191SOL     OW78014   9.478   9.358  10.043 -0.6654  0.0203 -0.0576
25191SOL    HW178015   9.388   9.332  10.066 -1.1412  1.0717 -0.6666
25191SOL    HW278016   9.497   9.431  10.102  0.2502 -0.9413  0.8853
25192SOL     OW78017   9.725   1.523   3.586  0.0988 -0.4648 -0.0009
25192SOL    HW178018   9.716   1.480   3.671 -0.9883 -0.8119 -0.2733
25192SOL    HW278019   9.637   1.519   3.548 -0.1558  2.3236  0.0961
25193SOL     OW78020  10.424   8.799   3.395  0.0474  0.7300  0.4659
25193SOL    HW178021  10.355   8.746   3.357  0.5529 -0.0043  0.5575
25193SOL    HW278022  10.381   8.850   3.464 -0.6277  1.1699 -0.2699
25194SOL     OW78023   4.094  10.417   8.270 -0.0796  0.3222  0.8845
25194SOL    HW178024   4.003  10.447   8.262 -0.1525 -0.0343  0.2437
25194SOL    HW278025   4.131  10.470   8.340 -0.4693  1.2495  0.4103
25195SOL     OW78026   3.463   7.081   3.707  0.1067 -0.0437  0.5951
25195SOL    HW178027   3.499   7.028   3.636 -1.5928 -1.7243  0.8872
25195SOL    HW278028   3.507   7.165   3.699  0.4053 -0.3579 -2.0653
25196SOL     OW78029   7.696   9.862   3.583 -0.1532 -0.6224 -0.3276
25196SOL    HW178030   7.791   9.862   3.587  0.0339  2.2407 -1.9683
25196SOL    HW278031   7.668   9.886   3.671  0.7153 -0.1105 -0.1836
25197SOL     OW78032   3.709   0.541   6.534 -0.0480 -0.0875 -0.0263
25197SOL    HW178033   3.640   0.483   6.502 -0.2476 -0.7349  1.5005
25197SOL    HW278034   3.759   0.564   6.456 -1.2795 -0.5523 -0.9823
25198SOL     OW78035   9.947   5.122   8.488 -0.3940 -0.3449 -0.2535
25198SOL    HW178036   9.969   5.203   8.442 -0.8717 -1.0340 -1.7408
25198SOL    HW278037   9.872   5.087   8.440  1.2994 -2.9416 -1.2084
25199SOL     OW78038   4.532   0.198   7.564  0.5031  0.0400 -0.3164
25199SOL    HW178039   4.481   0.245   7.498  0.3841  1.9742  1.0890
25199SOL    HW278040   4.622   0.222   7.545  0.4313  0.9813  0.4856
25200SOL     OW78041   4.187   2.720   1.900  0.0766 -0.5893 -0.1321
25200SOL    HW178042   4.247   2.692   1.831 -0.3539 -1.8094 -0.0209
25200SOL    HW278043   4.206   2.662   1.974 -1.1770 -0.9443 -0.0652
25201SOL     OW78044   4.753   6.112   3.969 -0.3095 -0.0410 -0.0707
25201SOL    HW178045   4.694   6.129   3.896 -1.1314  1.1247  0.8302
25201SOL    HW278046   4.758   6.195   4.016  2.7366  0.1481 -0.5684
25202SOL     OW78047   2.562   7.885  10.029 -0.3818 -0.1282 -0.1103
25202SOL    HW178048   2.517   7.967  10.010  1.5249  1.1301  0.4830
25202SOL    HW278049   2.655   7.907  10.026  0.1757 -2.0258  1.1310
25203SOL     OW78050   1.331   5.393  10.290  0.0081  0.3338  0.3685
25203SOL    HW178051   1.409   5.449  10.294  0.7253 -0.6925  1.4819
25203SOL    HW278052   1.278   5.419  10.365  0.0094  0.0204  0.4815
25204SOL     OW78053   9.717   0.317   0.665 -0.0515 -0.6325 -0.0827
25204SOL    HW178054   9.793   0.372   0.646 -0.6045  0.2170  0.1417
25204SOL    HW278055   9.752   0.246   0.720  0.4570  0.1399  0.6121
25205SOL     OW78056   7.027   7.440   7.018 -0.1923  0.0807  0.0503
25205SOL    HW178057   7.108   7.441   7.069  0.8218  0.4258 -1.5078
25205SOL    HW278058   7.054   7.466   6.930 -1.8615 -0.6490 -0.7106
25206SOL     OW78059   0.193   2.624  10.020  0.2073  0.6136 -0.0976
25206SOL    HW178060   0.213   2.705   9.972  3.0590  0.1357  0.1275
25206SOL    HW278061   0.172   2.561   9.951  0.1041  0.9866 -0.4197
25207SOL     OW78062   2.592   4.002   7.744 -0.0459  0.2077  0.7243
25207SOL    HW178063   2.501   3.974   7.746  0.0918 -0.2378  0.6672
25207SOL    HW278064   2.617   3.997   7.652  1.0885 -3.0713  1.0812
25208SOL     OW78065   6.949   8.786   5.934 -0.0321 -0.1849 -0.4634
25208SOL    HW178066   6.870   8.792   5.881  0.1965  1.9515 -0.6198
25208SOL    HW278067   7.017   8.828   5.882  1.3033 -2.0960 -0.3913
25209SOL     OW78068   5.028   7.818   8.632 -0.2431 -0.0544 -0.0079
25209SOL    HW178069   5.028   7.841   8.539  1.8250  0.5885  0.1044
25209SOL    HW278070   4.950   7.861   8.667 -0.3351  0.7889 -1.1915
25210SOL     OW78071   3.631   3.939   9.787 -0.1865 -0.5363  0.4249
25210SOL    HW178072   3.717   3.968   9.817 -0.2736  2.6968 -1.9276
25210SOL    HW278073   3.650   3.874   9.720  0.5112  0.6763 -0.5914
25211SOL     OW78074   0.067   5.674   1.120 -0.0457  0.4997  0.3983
25211SOL    HW178075  -0.006   5.729   1.092  0.1816  0.2724 -0.6714
25211SOL    HW278076   0.027   5.596   1.156 -0.3390  0.7203  0.5560
25212SOL     OW78077   5.828   8.047   2.362 -0.0373  0.3994 -0.4348
25212SOL    HW178078   5.780   8.024   2.283  0.7416  1.6478 -1.3125
25212SOL    HW278079   5.889   8.116   2.334  0.7075  0.4183  1.1104
25213SOL     OW78080  10.270   8.726   3.857 -0.6417  0.1260 -0.3304
25213SOL    HW178081  10.311   8.796   3.806  1.4968 -1.5747 -1.0841
25213SOL    HW278082  10.219   8.677   3.792  0.0470 -0.5711 -0.3479
25214SOL     OW78083   7.159   6.060   7.778 -0.4880 -0.2344  0.1216
25214SOL    HW178084   7.222   6.086   7.712 -0.9201 -1.3704 -0.7622
25214SOL    HW278085   7.073   6.070   7.736 -0.9037  0.8225  1.1397
25215SOL     OW78086   1.231   4.890   4.776  0.3445 -0.1772 -0.3924
25215SOL    HW178087   1.311   4.838   4.772  0.0976 -0.5952  0.0449
25215SOL    HW278088   1.261   4.980   4.761  0.7194 -0.4683 -1.5523
25216SOL     OW78089   7.003   8.723   4.784 -0.2230  0.3846  0.0029
25216SOL    HW178090   6.946   8.774   4.841 -0.5775 -0.3961  0.3639
25216SOL    HW278091   7.064   8.787   4.747 -0.1881  0.9518  1.0147
25217SOL     OW78092  10.358   8.810  10.456  0.0350 -0.0584  0.0787
25217SOL    HW178093  10.326   8.813  10.546  0.8741 -0.1806  0.3819
25217SOL    HW278094  10.452   8.825  10.463 -0.0188  0.8052 -0.8556
25218SOL     OW78095   3.154   5.471   4.260  0.7149 -0.4574 -0.5215
25218SOL    HW178096   3.191   5.402   4.315 -0.0475 -1.2618 -1.0022
25218SOL    HW278097   3.155   5.549   4.315 -0.2255 -1.2920  0.7081
25219SOL     OW78098   1.094   1.995   8.281 -0.0352  0.6437 -0.7308
25219SOL    HW178099   1.074   1.949   8.362  0.6933  0.6512 -0.5398
25219SOL    HW278100   1.015   2.046   8.262 -1.1094 -1.1626 -1.2984
25220SOL     OW78101   6.725   4.376   2.814 -0.1962 -0.0655  0.3465
25220SOL    HW178102   6.712   4.470   2.806  0.4050 -0.1001 -1.5122
25220SOL    HW278103   6.820   4.364   2.802 -0.6920 -1.2004 -3.9708
25221SOL     OW78104   8.972   3.792   8.918  0.4536 -0.5151 -0.2603
25221SOL    HW178105   8.989   3.855   8.848  0.7417  1.9460  1.8651
25221SOL    HW278106   8.914   3.727   8.878 -0.3663  1.4068 -2.4749
25222SOL     OW78107   1.140   9.041   8.316  0.0016 -0.1932 -0.2726
25222SOL    HW178108   1.100   9.128   8.313  0.3407 -0.0077  0.4224
25222SOL    HW278109   1.067   8.981   8.303 -0.2210  0.1920 -0.8639
25223SOL     OW78110   6.880   3.952   6.089  0.9615 -0.2231  0.4075
25223SOL    HW178111   6.846   4.031   6.047  1.2237  0.2769  1.1204
25223SOL    HW278112   6.949   3.921   6.029 -0.1440 -0.7792 -0.6227
25224SOL     OW78113   7.142   0.791  10.452  0.1166 -0.3355  0.2303
25224SOL    HW178114   7.051   0.818  10.439  0.5530  0.2878 -1.8750
25224SOL    HW278115   7.175   0.851  10.518  0.2575  2.6857 -2.3253
25225SOL     OW78116   2.992   4.469   8.575  0.0637  0.1840 -0.4668
25225SOL    HW178117   2.925   4.537   8.567 -0.0202  0.1946  0.2743
25225SOL    HW278118   2.978   4.431   8.662  1.7536  0.9777  0.1991
25226SOL     OW78119   7.024   8.998   9.807 -0.6917  0.5036  1.0608
25226SOL    HW178120   7.085   8.941   9.761 -1.5290  1.2410 -1.1038
25226SOL    HW278121   7.069   9.082   9.813 -0.5293  0.3715  1.7422
25227SOL     OW78122   9.291   8.469   1.973 -0.9912 -0.1785 -0.0813
25227SOL    HW178123   9.369   8.417   1.990  0.9680  1.9606 -1.8452
25227SOL    HW278124   9.274   8.459   1.880 -0.4876  2.2688 -0.5115
25228SOL     OW78125   9.541   9.169  10.321 -0.2744 -0.5212  0.2023
25228SOL    HW178126   9.558   9.083  10.282  0.5505  0.3153 -1.3902
25228SOL    HW278127   9.576   9.231  10.258 -0.6288  0.9972  1.4374
25229SOL     OW78128   4.427   7.984   8.452  0.4824  0.4030 -0.4425
25229SOL    HW178129   4.482   7.911   8.423 -0.1736 -0.5378  0.5490
25229SOL    HW278130   4.488   8.056   8.467  1.1274  0.1254 -1.6161
25230SOL     OW78131   9.816   4.099   3.405 -0.2231  0.0712 -0.0733
25230SOL    HW178132   9.866   4.164   3.356 -0.7728  0.1726 -0.5137
25230SOL    HW278133   9.756   4.062   3.341 -0.1831 -0.5915  0.2714
25231SOL     OW78134   2.307   0.950   6.687  0.0617  0.3075  0.0972
25231SOL    HW178135   2.353   0.910   6.761 -0.7929 -0.6160  0.1510
25231SOL    HW278136   2.273   1.033   6.720  2.7109  1.6567 -0.2824
25232SOL     OW78137   2.806   6.448   0.183  0.0051 -0.0714  0.2821
25232SOL    HW178138   2.751   6.375   0.156 -1.7993  0.8701  1.2252
25232SOL    HW278139   2.744   6.520   0.199  1.6787  1.6203 -0.4249
25233SOL     OW78140  10.430   2.698   0.227 -0.1475  0.0601  0.0491
25233SOL    HW178141  10.491   2.680   0.156  1.9648  1.9971  1.2663
25233SOL    HW278142  10.380   2.774   0.198  0.5175  0.6768  0.5094
25234SOL     OW78143   7.836   7.477   3.624 -0.0443 -0.0731  0.3671
25234SOL    HW178144   7.790   7.514   3.548  0.8446  0.5973  0.1282
25234SOL    HW278145   7.911   7.431   3.585  0.6065  0.5609  0.8443
25235SOL     OW78146   6.725   2.894   0.290  0.4163  0.2900  0.4172
25235SOL    HW178147   6.734   2.883   0.385  0.2705 -0.6918  0.3308
25235SOL    HW278148   6.804   2.853   0.255 -0.0969 -0.4262  0.0688
25236SOL     OW78149   1.192  10.428   0.828 -0.6659  0.0196 -0.5858
25236SOL    HW178150   1.266  10.379   0.793  0.1924  0.9282 -0.1029
25236SOL    HW278151   1.178  10.392   0.916 -0.0475  0.5950 -0.2387
25237SOL     OW78152   1.006   5.053   5.747 -0.5747 -0.1757 -0.1434
25237SOL    HW178153   1.013   5.133   5.696  0.0916 -0.4623 -0.5171
25237SOL    HW278154   1.097   5.025   5.762 -0.7436 -0.0811  1.2448
25238SOL     OW78155   3.626   0.234   9.871 -0.1998 -0.0407  0.4658
25238SOL    HW178156   3.562   0.301   9.846  0.2546  0.3623  0.3496
25238SOL    HW278157   3.699   0.284   9.908  0.0511 -0.4896  0.5818
25239SOL     OW78158   9.976   5.623   6.489  0.2162 -0.1516 -0.4083
25239SOL    HW178159   9.888   5.627   6.524 -0.3662 -0.0737 -1.8106
25239SOL    HW278160  10.024   5.567   6.551 -1.0533 -0.9560 -0.1163
25240SOL     OW78161   2.779   5.531   1.655  0.1263 -0.6130  0.8581
25240SOL    HW178162   2.701   5.478   1.673 -0.3173 -1.0913 -1.9887
25240SOL    HW278163   2.849   5.466   1.645 -0.1607 -0.6775 -1.3436
25241SOL     OW78164   8.555   5.172   1.093  0.3919 -0.1971  0.2615
25241SOL    HW178165   8.515   5.100   1.142 -0.4626 -0.2898 -0.5470
25241SOL    HW278166   8.648   5.167   1.115 -0.1313  0.6077  2.9355
25242SOL     OW78167   1.904   1.161   9.052 -0.1852 -0.4573  0.4378
25242SOL    HW178168   1.926   1.200   8.967  1.5629 -1.4869  0.3658
25242SOL    HW278169   1.815   1.190   9.069 -0.4719  0.0360 -1.6073
25243SOL     OW78170   7.705   0.270   0.334  0.3035 -0.0046  0.0947
25243SOL    HW178171   7.745   0.195   0.291  1.1026 -1.1563  2.6573
25243SOL    HW278172   7.630   0.293   0.279 -1.6818 -4.4253  0.5267
25244SOL     OW78173   6.642   8.200   6.622  0.3147  0.1837  0.2357
25244SOL    HW178174   6.682   8.138   6.682 -1.4451 -1.9932 -0.6866
25244SOL    HW278175   6.610   8.271   6.677 -0.3028 -1.2221  1.7378
25245SOL     OW78176   3.312   8.905   3.358  0.2723  0.3782 -0.6384
25245SOL    HW178177   3.356   8.864   3.432  0.2586  1.0880 -0.2220
25245SOL    HW278178   3.270   8.833   3.312  0.0192 -0.0433  0.2249
25246SOL     OW78179   7.259   2.928   3.575  0.0933  0.3449 -0.0844
25246SOL    HW178180   7.223   2.872   3.645  1.0193 -1.2381 -0.8079
25246SOL    HW278181   7.349   2.947   3.604  1.8073 -3.2617 -2.2613
25247SOL     OW78182   9.809   0.112   4.939 -0.6062 -0.2841  0.3616
25247SOL    HW178183   9.774   0.166   4.869  0.9762  1.2861  0.7150
25247SOL    HW278184   9.776   0.151   5.019  0.1286 -0.1234  0.5995
25248SOL     OW78185   8.207   1.395   8.504 -0.0814  0.0858  0.7598
25248SOL    HW178186   8.245   1.433   8.424 -0.6056 -1.1674 -0.1077
25248SOL    HW278187   8.280   1.389   8.565  0.9109 -1.2535 -0.4989
25249SOL     OW78188   6.110   2.709   1.509  0.0299  0.3288 -0.0873
25249SOL    HW178189   6.162   2.671   1.580  2.0217 -2.4816 -2.7625
25249SOL    HW278190   6.051   2.638   1.482  0.4797  0.7015 -2.2248
25250SOL     OW78191   9.984   3.929  10.364 -0.0474  0.5670  0.3154
25250SOL    HW178192  10.040   3.929  10.442  0.8322  2.1022 -0.2581
25250SOL    HW278193  10.045   3.920  10.291 -0.6538  1.2080 -0.2839
25251SOL     OW78194   5.597   5.227   9.684  0.3318  0.4074  0.6566
25251SOL    HW178195   5.651   5.284   9.630  0.6749  0.8927  1.4927
25251SOL    HW278196   5.655   5.153   9.706  0.6113  0.8373  1.4008
25252SOL     OW78197   2.111   6.600   5.665 -0.2922 -0.1145 -0.2715
25252SOL    HW178198   2.179   6.567   5.606  0.2682  0.9460 -0.2379
25252SOL    HW278199   2.129   6.556   5.748 -0.0145 -0.2984 -0.4246
25253SOL     OW78200   5.692   5.998   6.481 -0.0204  0.0480  0.0607
25253SOL    HW178201   5.615   6.014   6.427 -0.0136  1.1430  0.3725
25253SOL    HW278202   5.701   5.902   6.481  0.6981  0.0221 -2.8987
25254SOL     OW78203   1.503   2.907   6.722 -0.1868  0.0776 -0.0426
25254SOL    HW178204   1.566   2.862   6.665 -0.1055 -0.8241  0.7338
25254SOL    HW278205   1.557   2.959   6.781 -0.2704  0.9794 -0.7316
25255SOL     OW78206   5.450   2.918   1.403  0.1057 -0.0201  0.3558
25255SOL    HW178207   5.495   2.886   1.481  0.3060  1.0320  0.6967
25255SOL    HW278208   5.456   3.013   1.410 -1.8219  0.1591  0.2133
25256SOL     OW78209   4.731   0.907   4.280 -0.0525  0.3448 -0.6402
25256SOL    HW178210   4.747   0.926   4.372  0.7800  2.8300 -1.2147
25256SOL    HW278211   4.786   0.831   4.261  0.8221  0.6428  0.5912
25257SOL     OW78212   9.956   3.446   8.728 -0.1805 -0.1580  0.1027
25257SOL    HW178213   9.901   3.520   8.753 -0.4475  0.3869 -1.8905
25257SOL    HW278214  10.045   3.481   8.728 -0.2491  0.0251 -0.2955
25258SOL     OW78215   5.670   7.709   4.767 -0.4591 -0.4967  0.6006
25258SOL    HW178216   5.751   7.743   4.730 -1.2344 -0.8247 -1.5251
25258SOL    HW278217   5.620   7.787   4.792 -1.0795 -0.0712 -1.7207
25259SOL     OW78218   1.482   3.658   9.049 -0.0309 -0.2379 -0.3027
25259SOL    HW178219   1.458   3.615   8.967 -1.5378 -2.2321  1.1072
25259SOL    HW278220   1.566   3.620   9.073 -0.9806 -1.8960  0.5281
25260SOL     OW78221   5.769   5.643   0.413 -0.7628  0.3013  0.8376
25260SOL    HW178222   5.809   5.562   0.380 -1.1172  0.3355  0.3117
25260SOL    HW278223   5.675   5.628   0.408 -0.9629  1.7269 -1.9557
25261SOL     OW78224  10.421   8.600   7.914 -0.1980  0.4212  0.7143
25261SOL    HW178225  10.516   8.597   7.923 -0.1066 -0.6572 -0.3791
25261SOL    HW278226  10.406   8.650   7.834 -0.5045 -0.1758  0.3914
25262SOL     OW78227   0.407   6.310   0.908  0.1336  0.7714  0.4439
25262SOL    HW178228   0.469   6.260   0.855 -0.5584  0.4763 -0.1045
25262SOL    HW278229   0.368   6.245   0.966 -1.3211  0.4893 -0.7858
25263SOL     OW78230   3.383   4.524   2.513 -0.4231  0.7502  0.5556
25263SOL    HW178231   3.445   4.460   2.548 -0.3204  1.3664  1.5575
25263SOL    HW278232   3.299   4.478   2.510 -0.3375  0.5368  1.2062
25264SOL     OW78233   3.559   2.136   0.125  0.8853  0.4995  0.7082
25264SOL    HW178234   3.481   2.131   0.070  1.2668  3.7002 -0.3246
25264SOL    HW278235   3.531   2.101   0.210 -0.7001 -1.3625 -0.4933
25265SOL     OW78236   6.559   5.490   8.925 -0.8848 -0.4513 -0.0415
25265SOL    HW178237   6.563   5.527   8.837 -1.5762  0.2207  0.1995
25265SOL    HW278238   6.584   5.561   8.983 -1.1262 -0.6800  0.3512
25266SOL     OW78239   7.763   0.488   2.955  0.4233 -0.1107  0.7811
25266SOL    HW178240   7.847   0.498   3.000  0.9466 -0.8687  0.0180
25266SOL    HW278241   7.785   0.498   2.862 -0.6162  1.3438  0.6513
25267SOL     OW78242   7.797   2.128   0.323  0.0603 -0.2748 -0.6866
25267SOL    HW178243   7.749   2.163   0.398  1.9925  2.7023 -0.6635
25267SOL    HW278244   7.848   2.056   0.358 -1.2773 -0.8564  0.1567
25268SOL     OW78245   9.202   8.482   8.846  0.2450 -0.1733 -0.4414
25268SOL    HW178246   9.163   8.430   8.775 -1.3979  0.6359 -0.1803
25268SOL    HW278247   9.210   8.421   8.919 -0.5099 -0.3737 -0.5194
25269SOL     OW78248   6.225   7.705   0.649 -0.0131 -0.4918  0.5983
25269SOL    HW178249   6.192   7.619   0.675 -0.2840 -0.3170  0.8492
25269SOL    HW278250   6.221   7.757   0.729 -0.1401 -0.1574  0.3778
25270SOL     OW78251   8.175   5.803   4.609 -0.1909 -0.4501 -1.3599
25270SOL    HW178252   8.138   5.882   4.647  1.6046  0.0326 -0.4947
25270SOL    HW278253   8.109   5.772   4.548 -0.8309  1.8732 -1.9448
25271SOL     OW78254   8.888   3.559   7.065 -0.5254  0.5492 -0.3306
25271SOL    HW178255   8.811   3.541   7.119 -1.0954 -0.2565 -1.3813
25271SOL    HW278256   8.952   3.595   7.126 -0.1827 -2.7468  1.4585
25272SOL     OW78257   6.477   6.429   0.465 -0.6025  0.0450 -0.4865
25272SOL    HW178258   6.557   6.480   0.452 -0.6026 -0.1632 -1.3002
25272SOL    HW278259   6.449   6.453   0.554  0.5988 -0.2169 -0.0092
25273SOL     OW78260   4.045   2.010  10.197  0.3402  0.3190 -0.1076
25273SOL    HW178261   3.974   1.999  10.261 -0.0049  0.1937 -0.5070
25273SOL    HW278262   4.080   2.097  10.215 -0.9615  1.0425 -0.9221
25274SOL     OW78263   3.632   1.203   2.605 -0.0324  0.1677 -0.6778
25274SOL    HW178264   3.549   1.158   2.625 -0.3758  1.1227  0.1462
25274SOL    HW278265   3.626   1.225   2.512 -1.5923  1.9241 -0.2297
25275SOL     OW78266   5.170   0.817   4.731  0.0629 -0.3653 -0.0324
25275SOL    HW178267   5.236   0.887   4.736 -0.0162 -0.3811  1.7129
25275SOL    HW278268   5.136   0.809   4.820 -1.4171 -1.2278 -0.6322
25276SOL     OW78269   9.107   4.352   1.989 -0.2005 -0.0621  0.1027
25276SOL    HW178270   9.079   4.260   1.984 -0.0614 -0.0595 -2.9049
25276SOL    HW278271   9.203   4.347   1.982 -0.1561  0.2797  0.5001
25277SOL     OW78272   3.241   6.111  10.125 -0.1874 -0.2258  0.2028
25277SOL    HW178273   3.324   6.154  10.145 -0.1898 -0.2010  0.1584
25277SOL    HW278274   3.251   6.023  10.161 -0.1715 -0.1980  0.2679
25278SOL     OW78275   7.478   9.630   4.911 -0.7924 -1.0553  0.5990
25278SOL    HW178276   7.427   9.695   4.960 -0.6398 -1.6932  1.6314
25278SOL    HW278277   7.503   9.566   4.977  3.3634  0.3766  0.6812
25279SOL     OW78278   1.503   7.750   4.387 -0.6530  0.4435  0.7077
25279SOL    HW178279   1.427   7.693   4.373  0.7872 -1.9352  1.9331
25279SOL    HW278280   1.547   7.713   4.463  2.4705  0.9052 -0.7311
25280SOL     OW78281   4.045   6.803   3.986 -0.3292 -0.0899 -0.1502
25280SOL    HW178282   4.041   6.709   3.967 -0.8231 -0.1561  0.2757
25280SOL    HW278283   3.991   6.844   3.918 -0.0366 -0.0984 -0.3934
25281SOL     OW78284   8.708   1.559   3.012 -0.1234 -0.3514  0.3176
25281SOL    HW178285   8.654   1.634   2.988 -1.7031 -1.1674  1.1723
25281SOL    HW278286   8.722   1.513   2.930 -1.8090 -0.7813  0.2311
25282SOL     OW78287   0.940   5.562   3.457 -0.0963  0.2459  0.3436
25282SOL    HW178288   0.914   5.634   3.400  1.6416 -1.1652 -2.4686
25282SOL    HW278289   1.035   5.553   3.443  0.2260 -0.8183  2.7643
25283SOL     OW78290   8.364   8.725   9.022  0.2132 -0.1369 -0.3561
25283SOL    HW178291   8.326   8.645   9.058 -1.7834  0.9162 -0.0042
25283SOL    HW278292   8.444   8.738   9.072 -0.7917 -0.5092  1.4292
25284SOL     OW78293   4.834  10.358   8.960 -0.4031 -0.4418  0.2166
25284SOL    HW178294   4.849  10.330   8.870 -1.8134 -1.3029  0.2088
25284SOL    HW278295   4.778  10.435   8.953  2.2169  1.6335  0.3000
25285SOL     OW78296   5.921   2.969   1.917 -0.2380  0.4521  0.0457
25285SOL    HW178297   5.898   3.061   1.930 -0.9721  0.1648  0.8462
25285SOL    HW278298   5.839   2.922   1.930  0.0373 -0.2907 -0.7939
25286SOL     OW78299   8.170   5.871   2.083 -0.5446 -0.0624  0.5121
25286SOL    HW178300   8.126   5.951   2.113  0.9732  0.6391  0.9990
25286SOL    HW278301   8.121   5.800   2.123 -2.4472  0.5382 -0.5947
25287SOL     OW78302   1.123   0.490   5.246  0.2533  0.5126 -0.1141
25287SOL    HW178303   1.053   0.424   5.247  2.0301 -1.5091 -0.3216
25287SOL    HW278304   1.202   0.441   5.273  1.4922  2.8137  0.7325
25288SOL     OW78305   4.511   0.621   6.769 -0.1408 -0.8806 -0.4347
25288SOL    HW178306   4.524   0.698   6.714 -2.1894 -0.2044 -0.0575
25288SOL    HW278307   4.593   0.573   6.763  0.6514  0.5642 -1.8798
25289SOL     OW78308   4.947   8.964   7.953  0.1667  0.1288 -0.6105
25289SOL    HW178309   5.032   9.008   7.944  0.7289 -0.6204  0.7471
25289SOL    HW278310   4.894   9.025   8.004  0.8535 -0.5670  1.0219
25290SOL     OW78311  10.215   2.507   5.467  0.0200 -0.1552 -0.7408
25290SOL    HW178312  10.302   2.512   5.427  0.2841 -2.8932 -0.6706
25290SOL    HW278313  10.157   2.548   5.403  1.0681 -0.2318 -1.7849
25291SOL     OW78314   6.465   5.566   1.703  0.5573 -0.1595 -0.3835
25291SOL    HW178315   6.504   5.605   1.625 -1.2745 -0.2133 -1.3888
25291SOL    HW278316   6.375   5.599   1.704  0.4254 -0.4254  1.5465
25292SOL     OW78317   9.788   4.789   1.172 -0.3751 -0.1153 -0.1625
25292SOL    HW178318   9.805   4.757   1.260  1.6442  1.8032  0.2586
25292SOL    HW278319   9.851   4.861   1.161  0.4691 -1.2008 -3.6855
25293SOL     OW78320   7.224   4.909  10.044  0.1421 -0.5273  0.3933
25293SOL    HW178321   7.174   4.860  10.110 -1.5402  0.3952 -0.1355
25293SOL    HW278322   7.205   5.001  10.063  0.4024 -0.2177 -0.7865
25294SOL     OW78323   8.443   0.344   8.238 -0.0462  0.3308 -0.0399
25294SOL    HW178324   8.476   0.306   8.156  0.2906  2.0398 -0.7384
25294SOL    HW278325   8.427   0.436   8.217 -0.9733  0.5672  1.5433
25295SOL     OW78326   9.339   5.914   2.721 -0.2464  0.1467 -0.1391
25295SOL    HW178327   9.365   5.908   2.813  2.4178 -2.4971 -0.8784
25295SOL    HW278328   9.381   5.994   2.689 -0.6453  0.7323  0.7727
25296SOL     OW78329   3.769   5.807   2.605 -0.1584 -0.0170 -0.1868
25296SOL    HW178330   3.676   5.786   2.607 -0.0516 -0.5268  1.7979
25296SOL    HW278331   3.772   5.899   2.581 -1.2892  0.4329  1.2798
25297SOL     OW78332   6.382   7.138   3.122 -0.1281 -0.4291  0.1239
25297SOL    HW178333   6.367   7.173   3.034 -0.3328  1.0006  0.6944
25297SOL    HW278334   6.430   7.207   3.167  0.1321 -1.2185  1.0839
25298SOL     OW78335   3.846   6.849   6.559 -0.0596  0.1806  0.2174
25298SOL    HW178336   3.755   6.879   6.555 -0.6420 -1.1553  2.2317
25298SOL    HW278337   3.858   6.800   6.478 -0.8241  1.1100 -0.4865
25299SOL     OW78338   5.432   7.435   1.693 -0.0414  0.3234 -0.5385
25299SOL    HW178339   5.505   7.385   1.732 -1.2821 -0.9971  0.1988
25299SOL    HW278340   5.458   7.447   1.602  1.0111 -0.3220 -0.3504
25300SOL     OW78341   5.721   2.058   9.465  1.0160  0.3679  0.1955
25300SOL    HW178342   5.698   2.004   9.541  1.6872 -0.2749 -0.0407
25300SOL    HW278343   5.646   2.115   9.452  0.4945 -0.1738  0.7608
25301SOL     OW78344   5.312   0.380   5.273  0.1912  0.2503  0.4406
25301SOL    HW178345   5.298   0.329   5.353 -0.8095  0.5993  0.5024
25301SOL    HW278346   5.405   0.401   5.274  0.9457 -2.5995 -0.2229
25302SOL     OW78347   3.670   6.271   6.811 -0.0107  0.1702  0.6808
25302SOL    HW178348   3.717   6.196   6.846  0.5087 -0.0184 -0.3967
25302SOL    HW278349   3.730   6.312   6.749 -1.3548 -0.2755 -0.9902
25303SOL     OW78350   5.763   2.508  10.072  0.2729 -0.2515  0.0957
25303SOL    HW178351   5.691   2.457  10.111 -0.1091  1.3530  1.6422
25303SOL    HW278352   5.793   2.564  10.144  1.2512  1.0705 -1.3011
25304SOL     OW78353   6.758  10.326   0.643 -0.5296 -0.1727 -0.2867
25304SOL    HW178354   6.705  10.297   0.569  1.7437  1.9669 -2.9650
25304SOL    HW278355   6.818  10.252   0.659  1.1740  0.4932 -2.9608
25305SOL     OW78356   8.868   2.380   9.869 -0.6993 -0.6936 -0.2734
25305SOL    HW178357   8.905   2.347   9.951  0.5007  1.5746  0.1880
25305SOL    HW278358   8.929   2.349   9.801 -1.2184 -1.8465 -0.2320
25306SOL     OW78359   0.877   5.143   3.251 -0.8473 -0.0966  0.8291
25306SOL    HW178360   0.967   5.161   3.224 -1.4674  1.6895 -0.1848
25306SOL    HW278361   0.871   5.181   3.339 -0.5862 -0.3488  0.9598
25307SOL     OW78362   5.561   8.228   9.817  0.1103  0.0762  0.1257
25307SOL    HW178363   5.647   8.253   9.851 -0.7271  0.2731  2.2892
25307SOL    HW278364   5.566   8.133   9.807  0.4542  0.0315  0.6704
25308SOL     OW78365   4.326   2.218   6.826 -0.2086 -0.2715 -0.1694
25308SOL    HW178366   4.298   2.309   6.833  1.1316  0.1878 -0.4054
25308SOL    HW278367   4.267   2.179   6.762 -0.4645  0.5654 -0.4497
25309SOL     OW78368   5.349   8.432   2.266  0.2237  0.1202 -0.1274
25309SOL    HW178369   5.274   8.386   2.302 -0.2315  0.8315 -0.1338
25309SOL    HW278370   5.411   8.363   2.242  0.1491 -0.4163  1.1303
25310SOL     OW78371   3.487   0.151   4.697  0.1736  0.5075  0.9397
25310SOL    HW178372   3.426   0.077   4.686  0.2716  0.5190  0.3149
25310SOL    HW278373   3.480   0.173   4.790 -0.8587  0.5708  0.8622
25311SOL     OW78374   1.396   5.137   0.170  0.2049 -0.1389  0.0188
25311SOL    HW178375   1.491   5.146   0.182  0.4517  2.4851 -2.8042
25311SOL    HW278376   1.359   5.173   0.251  1.5918 -0.4188  0.8187
25312SOL     OW78377   5.724   3.641   8.686 -0.1406 -0.4044  0.2719
25312SOL    HW178378   5.792   3.696   8.725 -2.4717 -0.0315  4.3144
25312SOL    HW278379   5.752   3.552   8.704 -0.1732 -0.2921  0.8818
25313SOL     OW78380   1.591   8.912   5.851  0.0023  0.3285  0.0624
25313SOL    HW178381   1.551   8.981   5.903 -1.2025  0.9033 -1.5407
25313SOL    HW278382   1.541   8.912   5.769  0.6825 -1.7067 -0.4078
25314SOL     OW78383   0.997  10.160   3.170  0.6101  0.0595  0.2822
25314SOL    HW178384   1.049  10.236   3.194 -1.3084  1.8246 -0.7824
25314SOL    HW278385   0.981  10.114   3.252  2.6953  0.1763  0.7909
25315SOL     OW78386   9.288   8.517   0.392  0.4861  0.2209  0.5605
25315SOL    HW178387   9.225   8.447   0.370 -0.6121  1.1682  0.5831
25315SOL    HW278388   9.355   8.511   0.325 -0.1463 -0.1871 -0.0515
25316SOL     OW78389   1.285   2.248   5.775 -0.7555 -0.6933  1.0246
25316SOL    HW178390   1.258   2.332   5.811  2.1091  0.7265  0.2153
25316SOL    HW278391   1.245   2.245   5.688  1.6646  1.5293 -0.3160
25317SOL     OW78392   4.220   3.862   5.535 -0.2348 -0.1444  0.0928
25317SOL    HW178393   4.268   3.780   5.543 -2.8720 -1.7279  0.6752
25317SOL    HW278394   4.174   3.872   5.618 -0.1629  1.8189 -0.0595
25318SOL     OW78395   6.874   6.427   0.178 -0.0370  0.1372  0.1014
25318SOL    HW178396   6.887   6.351   0.121 -0.3273 -0.6537  1.0616
25318SOL    HW278397   6.871   6.391   0.266 -2.4798  0.9829  0.4443
25319SOL     OW78398   9.448   3.261   1.135  0.2789  0.0921  0.3220
25319SOL    HW178399   9.542   3.268   1.148  0.3837 -0.7037  0.0675
25319SOL    HW278400   9.424   3.342   1.090  1.5034 -1.2379 -3.1143
25320SOL     OW78401  10.232   3.443   7.110 -0.2351  0.1750 -0.2668
25320SOL    HW178402  10.300   3.487   7.058  1.3989 -2.4156 -0.5618
25320SOL    HW278403  10.175   3.402   7.045 -2.0912  2.1669 -0.0138
25321SOL     OW78404   2.817   7.116   3.924  0.0957  0.1525  0.4206
25321SOL    HW178405   2.903   7.155   3.910  0.3490 -0.7254 -0.6777
25321SOL    HW278406   2.758   7.190   3.939  0.7843  0.8598 -0.2933
25322SOL     OW78407   6.017   6.834   5.764  0.0790 -0.3335  0.4801
25322SOL    HW178408   5.980   6.779   5.833  0.3777  0.6072  1.4194
25322SOL    HW278409   6.001   6.786   5.683  1.0951 -2.2150  1.3411
25323SOL     OW78410   8.965   7.623   6.674  0.1439  0.2104 -0.6478
25323SOL    HW178411   9.022   7.696   6.649 -0.5962  2.2050  2.8600
25323SOL    HW278412   9.018   7.570   6.733 -0.4527 -0.1336 -0.4095
25324SOL     OW78413   6.296   7.270   4.522 -0.3516 -0.2797  0.3983
25324SOL    HW178414   6.332   7.192   4.480  1.6685  2.4257 -3.5125
25324SOL    HW278415   6.217   7.291   4.473  0.2443  1.1712 -0.0075
25325SOL     OW78416   3.199   3.404   9.182 -0.0932 -0.1397  0.1674
25325SOL    HW178417   3.247   3.466   9.237 -0.9259  1.9161 -1.3033
25325SOL    HW278418   3.116   3.390   9.228 -0.1824  0.4078  0.1866
25326SOL     OW78419   9.446   8.092   5.633  0.4999 -0.1099  0.1047
25326SOL    HW178420   9.532   8.056   5.653  0.5379 -0.0097  0.1219
25326SOL    HW278421   9.459   8.145   5.555  0.5842  0.4085  0.4636
25327SOL     OW78422   3.529   8.914   5.478  0.2516 -0.7380 -0.1067
25327SOL    HW178423   3.491   8.999   5.498  2.1368  0.2224 -0.3103
25327SOL    HW278424   3.522   8.864   5.559  0.1596  0.0436  0.3673
25328SOL     OW78425   0.058   1.273   2.368  0.2234  0.1332 -0.3432
25328SOL    HW178426   0.056   1.353   2.421  1.4283 -0.4160  0.5861
25328SOL    HW278427   0.092   1.302   2.283  3.7320  0.2404  0.8985
25329SOL     OW78428   6.731   0.241   1.696 -0.0066 -0.0843 -0.0318
25329SOL    HW178429   6.655   0.216   1.748 -0.1073  0.2863  0.0003
25329SOL    HW278430   6.767   0.317   1.741 -0.2068  0.3562 -0.6083
25330SOL     OW78431   5.941   7.352   1.183  0.5608  0.4924  0.7614
25330SOL    HW178432   5.971   7.297   1.110 -0.3500 -0.6933  1.2582
25330SOL    HW278433   6.014   7.412   1.198  0.9077  0.5406 -0.9019
25331SOL     OW78434   1.186   0.269   8.416  0.3528  0.5157  0.1006
25331SOL    HW178435   1.176   0.201   8.483  1.1071  0.7258  0.4392
25331SOL    HW278436   1.277   0.297   8.424 -0.0476  1.8264  0.2195
25332SOL     OW78437   1.731   8.642   9.125 -0.5084 -0.0230 -0.0764
25332SOL    HW178438   1.677   8.668   9.051  0.2019 -0.5680 -0.8107
25332SOL    HW278439   1.769   8.724   9.157 -0.1629  0.1314 -0.8564
25333SOL     OW78440   2.125   0.716   9.301 -0.3104  0.3243  0.3523
25333SOL    HW178441   2.112   0.698   9.208 -1.3740  0.4899  0.4596
25333SOL    HW278442   2.193   0.784   9.303  0.8798 -0.7989 -0.2152
25334SOL     OW78443   9.578   2.563   6.595  0.1779 -0.3064  0.3739
25334SOL    HW178444   9.557   2.655   6.575 -2.8611 -0.8582  0.5995
25334SOL    HW278445   9.497   2.516   6.580  1.7806 -3.1102 -0.2055
25335SOL     OW78446   8.939   0.013   1.829 -0.2093 -0.0288  0.2683
25335SOL    HW178447   9.008   0.079   1.817 -0.0668 -0.3630 -0.7879
25335SOL    HW278448   8.963  -0.032   1.910  1.6215 -1.0811 -0.7994
25336SOL     OW78449   8.043   1.941   9.865 -0.1711  0.8862  0.1892
25336SOL    HW178450   8.119   1.894   9.900 -0.7645 -0.7123 -0.5790
25336SOL    HW278451   8.024   2.008   9.931  1.2885  0.6661  0.8686
25337SOL     OW78452   9.483   1.171   5.574 -0.4591  0.0601  0.2683
25337SOL    HW178453   9.482   1.152   5.481 -0.2414 -0.5743  0.3900
25337SOL    HW278454   9.511   1.263   5.580 -1.7173  0.5005 -0.3443
25338SOL     OW78455   5.387   8.253   2.826  0.1506  0.3069 -0.1791
25338SOL    HW178456   5.306   8.244   2.877  0.3522 -1.7077 -0.1004
25338SOL    HW278457   5.420   8.163   2.819  1.1298  0.7766 -2.2616
25339SOL     OW78458   9.326   5.208   0.006  0.1523 -0.3219 -0.2538
25339SOL    HW178459   9.371   5.125   0.021 -0.4730 -0.8543 -1.2544
25339SOL    HW278460   9.296   5.204  -0.085 -4.0554 -1.1035  0.9514
25340SOL     OW78461   4.783   6.142   9.217  0.0127 -1.1534 -0.0253
25340SOL    HW178462   4.744   6.196   9.148  0.7314  1.2107  1.2944
25340SOL    HW278463   4.783   6.198   9.294  1.4711 -2.8344  1.2865
25341SOL     OW78464   5.679   2.133   0.018 -0.1126  0.7955 -0.1423
25341SOL    HW178465   5.616   2.199   0.046 -1.0640 -0.3852  0.6336
25341SOL    HW278466   5.625   2.064  -0.022  0.7154 -0.0587  0.1829
25342SOL     OW78467   7.283   4.103   3.480 -0.0015 -0.5915 -0.6213
25342SOL    HW178468   7.199   4.106   3.526  0.6755 -1.0717  0.7197
25342SOL    HW278469   7.319   4.017   3.502 -0.3252 -1.5389 -3.3927
25343SOL     OW78470   7.301   9.892   2.841 -0.3186 -0.0545  0.0537
25343SOL    HW178471   7.239   9.934   2.781  0.0745 -0.7054 -0.8333
25343SOL    HW278472   7.355   9.965   2.874 -1.0314  0.4078  0.2129
25344SOL     OW78473   4.234   6.889   0.261  0.0246 -0.3102  0.3507
25344SOL    HW178474   4.253   6.876   0.168  1.9338  4.3386 -0.1683
25344SOL    HW278475   4.299   6.835   0.306 -0.5431 -2.1702 -0.9239
25345SOL     OW78476   3.099   0.378   8.500 -0.1306 -0.2625 -0.0703
25345SOL    HW178477   3.189   0.401   8.521 -0.4087  0.1921  0.6902
25345SOL    HW278478   3.072   0.440   8.432  0.2760 -0.7039 -0.6365
25346SOL     OW78479   8.673   1.070   8.916 -0.1621 -0.2815  0.1146
25346SOL    HW178480   8.679   1.127   8.993 -1.6049  1.4597 -0.9792
25346SOL    HW278481   8.587   1.088   8.879  0.5584 -0.8924 -2.0490
25347SOL     OW78482   4.599   8.768   4.669  0.6513 -0.4863  0.1613
25347SOL    HW178483   4.503   8.761   4.665  0.6295 -1.1026  1.2444
25347SOL    HW278484   4.625   8.794   4.581 -0.4863 -0.6548 -0.2438
25348SOL     OW78485   4.187   9.358   1.940 -0.2385 -0.1187 -0.2992
25348SOL    HW178486   4.123   9.421   1.906 -0.7157 -0.2429  0.3482
25348SOL    HW278487   4.146   9.272   1.926 -0.0119 -0.2265 -0.3097
25349SOL     OW78488   7.247   7.416   6.599  0.3150  0.0451  0.5224
25349SOL    HW178489   7.331   7.417   6.645 -0.4071 -0.5795  1.9168
25349SOL    HW278490   7.191   7.476   6.648  0.6833  2.6793 -2.0093
25350SOL     OW78491   5.037   2.923   0.991 -0.0630 -0.0027 -0.5111
25350SOL    HW178492   4.991   2.902   1.072  0.0353 -3.7825 -1.2384
25350SOL    HW278493   5.123   2.954   1.019 -0.9176  1.3506  0.7772
25351SOL     OW78494   3.941   1.000   7.967  0.4011 -0.5339  0.2714
25351SOL    HW178495   3.954   1.059   7.892 -2.3646  0.4597  0.4691
25351SOL    HW278496   4.014   1.020   8.026  1.3658  0.2795 -1.1370
25352SOL     OW78497   8.441   7.628   6.687 -0.0666 -0.0754  0.7066
25352SOL    HW178498   8.381   7.696   6.718 -0.4280 -0.3218  0.5656
25352SOL    HW278499   8.384   7.552   6.672  0.3820 -0.5071  1.1733
25353SOL     OW78500   7.414   6.048   6.275 -0.6897  0.1412 -0.0243
25353SOL    HW178501   7.458   6.100   6.208 -0.0376 -0.9972 -0.5273
25353SOL    HW278502   7.409   5.960   6.237  1.5163 -1.0547  2.1354
25354SOL     OW78503   5.165   0.258  10.019  0.2684  0.1337  0.2001
25354SOL    HW178504   5.221   0.188   9.984 -0.3175  0.3530 -1.2290
25354SOL    HW278505   5.144   0.312   9.943 -0.0784  1.3337  1.1154
25355SOL     OW78506   1.213   6.235   9.837  0.2349  0.2172 -0.0151
25355SOL    HW178507   1.219   6.153   9.885 -0.7650  1.9735  3.4336
25355SOL    HW278508   1.121   6.243   9.812  0.0204  0.8384  0.8934
25356SOL     OW78509   9.407   4.719   3.506 -0.3215  0.4663  0.3422
25356SOL    HW178510   9.449   4.722   3.420 -1.5560 -0.7044 -0.3371
25356SOL    HW278511   9.440   4.797   3.551  1.8290  0.1247 -0.4732
25357SOL     OW78512   6.641   3.128   2.943 -0.1373  0.1668  0.1439
25357SOL    HW178513   6.716   3.181   2.969 -0.4520 -0.1015  1.7404
25357SOL    HW278514   6.566   3.169   2.986 -0.9086  0.3293 -1.2878
25358SOL     OW78515   7.374   1.139   3.934  0.0420 -0.2044  0.0871
25358SOL    HW178516   7.281   1.131   3.912  0.1887 -0.5445 -0.4214
25358SOL    HW278517   7.393   1.232   3.926 -0.0295 -0.2568 -0.7311
25359SOL     OW78518   4.299   2.753  10.318  0.2150  0.6700 -0.3830
25359SOL    HW178519   4.262   2.762  10.230 -1.8256  2.1548  0.5480
25359SOL    HW278520   4.275   2.834  10.363  1.6015  0.1481  1.4236
25360SOL     OW78521   7.451   6.268   3.800  0.1127  0.7767  0.1003
25360SOL    HW178522   7.477   6.178   3.816  1.3809  1.4119  2.0671
25360SOL    HW278523   7.386   6.287   3.868 -2.7805  0.4093 -2.3530
25361SOL     OW78524   7.177   2.944   7.904 -0.2578 -0.5774 -0.3215
25361SOL    HW178525   7.081   2.944   7.909 -0.2680  0.3667 -0.2783
25361SOL    HW278526   7.196   2.908   7.817 -0.6631 -0.3903 -0.4914
25362SOL     OW78527   1.905   7.882   0.483 -0.1782 -0.5538 -0.5930
25362SOL    HW178528   1.896   7.965   0.437 -1.5999 -0.1700  0.2966
25362SOL    HW278529   1.913   7.817   0.414  0.7192  0.2921 -1.3073
25363SOL     OW78530   1.971   5.281  10.195  0.1400 -0.1021  0.2417
25363SOL    HW178531   1.979   5.258  10.103  2.1404  1.6056 -0.0761
25363SOL    HW278532   1.877   5.288  10.210 -0.1971  0.6247 -1.9488
25364SOL     OW78533   8.716   7.375   6.077 -0.4037 -0.2873 -0.3151
25364SOL    HW178534   8.799   7.384   6.124 -1.4110  0.9733  1.2875
25364SOL    HW278535   8.734   7.308   6.010  2.0660  0.3971 -0.4303
25365SOL     OW78536   3.398   5.650   9.097  0.8721 -0.1025 -0.4074
25365SOL    HW178537   3.326   5.589   9.111 -0.4660  1.2593 -0.9713
25365SOL    HW278538   3.439   5.620   9.016 -0.9129  0.6962 -1.6993
25366SOL     OW78539   1.949   5.776   2.552 -0.1748 -0.0898  0.2608
25366SOL    HW178540   1.946   5.680   2.558 -1.2475 -0.3352 -2.5753
25366SOL    HW278541   2.034   5.794   2.512 -0.6747 -0.0456 -0.8293
25367SOL     OW78542   3.475   1.106   8.280  0.1841  0.3520  0.2996
25367SOL    HW178543   3.440   1.101   8.369 -1.2060  1.8630 -0.1311
25367SOL    HW278544   3.561   1.146   8.290 -0.1490  0.9189  0.9241
25368SOL     OW78545   7.953   5.162   7.444 -0.2728 -0.6054  0.3286
25368SOL    HW178546   7.948   5.238   7.387  1.3723 -0.6434  0.1008
25368SOL    HW278547   8.000   5.096   7.393 -1.5004 -1.7383  0.5932
25369SOL     OW78548   6.543  10.125   3.212 -0.2897 -0.4905  0.5553
25369SOL    HW178549   6.539  10.031   3.195  0.2932 -0.6916  1.4778
25369SOL    HW278550   6.572  10.163   3.129 -0.3742 -1.1328  0.2243
25370SOL     OW78551   4.845   4.208   8.399  0.8119 -0.0206  0.4587
25370SOL    HW178552   4.835   4.128   8.450  0.8235 -0.0518  0.4131
25370SOL    HW278553   4.823   4.278   8.459  0.2963 -0.0879  0.3549
25371SOL     OW78554   4.366   1.541   2.338 -0.4307 -0.1037 -0.1129
25371SOL    HW178555   4.435   1.537   2.272 -0.7851 -0.9910 -0.4399
25371SOL    HW278556   4.286   1.519   2.291 -0.6812 -0.8236  0.6282
25372SOL     OW78557   5.600   9.197   2.960  0.3836 -0.1628  0.0832
25372SOL    HW178558   5.597   9.291   2.943 -0.9638 -0.3349 -0.7751
25372SOL    HW278559   5.678   9.167   2.914  0.9992  0.5660  0.6152
25373SOL     OW78560   5.588   6.740   4.529 -0.3548  0.3128 -0.0937
25373SOL    HW178561   5.607   6.689   4.608  3.4363  1.1863 -0.2489
25373SOL    HW278562   5.564   6.826   4.562  0.6930  0.5229  0.1587
25374SOL     OW78563   1.542   9.753   9.571 -0.0315 -0.0528 -0.0915
25374SOL    HW178564   1.528   9.837   9.526  0.7479 -0.1732 -0.5669
25374SOL    HW278565   1.587   9.777   9.652  0.6463 -0.0536 -0.4624
25375SOL     OW78566   7.891   6.694   9.609 -0.0382 -0.2818 -0.0994
25375SOL    HW178567   7.908   6.710   9.702 -0.3609 -3.4905  0.6240
25375SOL    HW278568   7.974   6.717   9.566 -0.5076  3.2619  0.5467
25376SOL     OW78569  10.461   6.451   3.266 -0.5460 -0.3157 -0.3544
25376SOL    HW178570  10.459   6.515   3.338 -1.0899  0.0507 -0.6905
25376SOL    HW278571  10.382   6.469   3.215 -0.8664 -1.4553 -0.2889
25377SOL     OW78572   0.413  10.352   6.406  0.6066  0.0218 -0.2750
25377SOL    HW178573   0.482  10.383   6.465 -0.8864  1.6085  0.7243
25377SOL    HW278574   0.455  10.284   6.353  3.8758  3.0214 -1.9538
25378SOL     OW78575   9.400   4.360   5.898 -0.0942  0.1251 -0.3024
25378SOL    HW178576   9.375   4.314   5.978 -0.0125  0.6498  0.0257
25378SOL    HW278577   9.488   4.326   5.878 -1.8284 -3.5992 -2.8185
25379SOL     OW78578   3.287   2.495   4.332  0.5058  0.1065  0.1817
25379SOL    HW178579   3.333   2.421   4.372 -0.3818 -1.2891 -1.2453
25379SOL    HW278580   3.329   2.507   4.248 -0.5775 -0.0658 -0.4082
25380SOL     OW78581   3.787   9.497   3.282  0.4446  0.1549  0.3441
25380SOL    HW178582   3.853   9.437   3.318  0.7301 -0.0846 -0.5344
25380SOL    HW278583   3.838   9.563   3.234  0.0671  0.0058 -0.2840
25381SOL     OW78584   6.840   1.915   0.081 -0.0903  0.3482 -0.3042
25381SOL    HW178585   6.933   1.938   0.081 -0.0491  0.2374 -1.2150
25381SOL    HW278586   6.838   1.826   0.046 -0.4900  0.1009  0.3428
25382SOL     OW78587   2.481  10.327   4.107 -0.1242 -0.1041 -0.3542
25382SOL    HW178588   2.438  10.245   4.083 -0.6995  0.0960 -0.0277
25382SOL    HW278589   2.479  10.329   4.202  0.4763 -0.0153 -0.3362
25383SOL     OW78590   1.724   6.150   1.411  0.5334  0.1981 -0.0082
25383SOL    HW178591   1.782   6.220   1.380  2.6749 -1.8112 -0.7927
25383SOL    HW278592   1.636   6.177   1.382  1.0105  3.1829  0.9164
25384SOL     OW78593   0.886   3.508   9.114 -0.4689 -0.1793 -0.1750
25384SOL    HW178594   0.913   3.416   9.121  0.9071  0.2505  0.4175
25384SOL    HW278595   0.902   3.544   9.202 -4.7452 -0.3158  0.8829
25385SOL     OW78596   5.396   3.530   5.506  0.5545  0.5127 -0.7920
25385SOL    HW178597   5.407   3.441   5.472  0.5007 -0.2663  1.0720
25385SOL    HW278598   5.344   3.518   5.586  1.6420  2.0609  0.2089
25386SOL     OW78599   7.047   6.241   7.398 -0.2942  1.0446 -0.3088
25386SOL    HW178600   6.997   6.317   7.429 -0.1901  0.6633  0.8524
25386SOL    HW278601   7.138   6.270   7.400 -0.3670  1.3716 -1.3348
25387SOL     OW78602  10.089   5.484   5.102  0.1892  0.1701  0.0383
25387SOL    HW178603  10.076   5.575   5.078 -1.3368  0.4060  1.5864
25387SOL    HW278604  10.000   5.448   5.108  0.7571 -1.4668 -0.6316
25388SOL     OW78605   5.609   0.792   9.074  0.3472  0.3725  0.4448
25388SOL    HW178606   5.633   0.875   9.033 -2.3468  1.5663  1.0375
25388SOL    HW278607   5.651   0.794   9.159  0.5688  0.9796  0.3237
25389SOL     OW78608   8.663   4.985   1.738  0.4680  0.6623 -0.0346
25389SOL    HW178609   8.700   5.025   1.659  0.0337 -0.3450 -0.7733
25389SOL    HW278610   8.595   5.046   1.766  1.0114  1.3127 -0.0958
25390SOL     OW78611   9.995   1.453   6.857 -1.0575 -0.1538  0.8920
25390SOL    HW178612  10.024   1.406   6.779 -0.3666 -1.9195  2.1470
25390SOL    HW278613  10.075   1.492   6.893 -0.8266 -1.7215  2.2063
25391SOL     OW78614   7.018   4.219   6.191 -0.4232 -0.0071  0.0271
25391SOL    HW178615   7.007   4.278   6.117 -0.0757 -0.7487 -0.6300
25391SOL    HW278616   6.938   4.166   6.192 -0.4398  0.0200  0.1982
25392SOL     OW78617   2.538   4.459   8.156  0.6206  0.0981  0.5853
25392SOL    HW178618   2.528   4.554   8.166  1.3705  0.1594  0.8795
25392SOL    HW278619   2.462   4.422   8.201 -1.5033  0.5918 -2.3530
25393SOL     OW78620   1.666  10.029   8.750  0.5536 -0.2109 -0.2725
25393SOL    HW178621   1.705   9.948   8.784  1.0266 -0.3281 -1.0573
25393SOL    HW278622   1.693  10.097   8.813 -0.9780 -0.8505  1.1462
25394SOL     OW78623   7.639   6.132   2.945  0.1400 -0.2323  0.7243
25394SOL    HW178624   7.735   6.125   2.949  0.1919 -0.1605 -0.1227
25394SOL    HW278625   7.623   6.188   2.869 -0.5610  0.3310  1.2758
25395SOL     OW78626   5.135   9.506   2.777 -0.0366  0.2511  0.1467
25395SOL    HW178627   5.120   9.436   2.712  2.0863  0.4471 -0.6361
25395SOL    HW278628   5.096   9.472   2.857 -1.9211 -0.4182 -0.9694
25396SOL     OW78629   8.423   2.378   2.768  0.4946 -0.5342  0.2262
25396SOL    HW178630   8.507   2.333   2.767 -0.0626 -1.6862  1.5078
25396SOL    HW278631   8.428   2.441   2.696  1.5486 -2.2142 -1.2484
25397SOL     OW78632   7.004   0.934   9.532 -0.0161 -0.6585  0.1816
25397SOL    HW178633   6.912   0.957   9.513  0.2032 -0.2072 -0.3853
25397SOL    HW278634   7.015   0.956   9.624 -0.5830 -1.0774  0.3564
25398SOL     OW78635   5.481   8.184   7.776 -0.1931 -0.0694  0.2458
25398SOL    HW178636   5.408   8.240   7.803 -0.9949 -1.3220  0.7572
25398SOL    HW278637   5.447   8.095   7.784  1.2977 -0.6656  0.1981
25399SOL     OW78638   3.204   0.138   1.856 -0.2152 -0.1824  0.4233
25399SOL    HW178639   3.225   0.201   1.787 -0.1935 -0.5772  0.0621
25399SOL    HW278640   3.289   0.100   1.879 -0.2753 -0.3519  0.3673
25400SOL     OW78641  10.167   8.418   2.237  1.0033 -0.1677  0.5231
25400SOL    HW178642  10.129   8.330   2.244  1.8376 -0.7487 -1.5285
25400SOL    HW278643  10.097   8.472   2.199  1.0776 -0.4034  0.0410
25401SOL     OW78644   8.247  10.069  10.284 -0.3120 -0.3500 -0.1457
25401SOL    HW178645   8.192  10.042  10.358 -0.8824  2.7680  0.7247
25401SOL    HW278646   8.336  10.068  10.320 -0.5114  0.4547  0.4216
25402SOL     OW78647   0.323   3.104   6.677  0.2910 -0.1739  0.1301
25402SOL    HW178648   0.287   3.055   6.603 -0.3126 -0.4312  0.5867
25402SOL    HW278649   0.255   3.168   6.698  1.4084  1.4728 -1.0040
25403SOL     OW78650   9.732   7.990   4.717  0.0442 -0.2444  0.0612
25403SOL    HW178651   9.640   8.016   4.720  0.0460 -0.0837 -0.9687
25403SOL    HW278652   9.739   7.919   4.781 -0.3127  1.1576  1.7326
25404SOL     OW78653   4.738   7.506   3.092  0.2278 -0.5190 -0.0598
25404SOL    HW178654   4.804   7.437   3.102 -0.4147 -0.9294  1.8275
25404SOL    HW278655   4.744   7.556   3.174 -0.1687  0.9163 -0.8789
25405SOL     OW78656   4.902   3.903   4.031 -0.5470  0.2212 -0.2266
25405SOL    HW178657   4.945   3.818   4.031  1.1598  1.0148 -1.8449
25405SOL    HW278658   4.809   3.884   4.020 -0.4444 -1.4754  1.3921
25406SOL     OW78659   4.856   8.412   9.535  0.2468  0.6289  0.1841
25406SOL    HW178660   4.778   8.367   9.567  1.2162 -1.3531 -0.0554
25406SOL    HW278661   4.910   8.342   9.497  1.9979  1.9712  0.0658
25407SOL     OW78662   6.208   9.475   1.019  0.4057  0.0240 -0.1233
25407SOL    HW178663   6.195   9.570   1.022  1.2453  0.1320  1.3528
25407SOL    HW278664   6.131   9.440   1.063  0.0312  0.0059 -0.7862
25408SOL     OW78665   8.889   8.673   5.351  0.6897 -0.6421 -0.0693
25408SOL    HW178666   8.935   8.664   5.435  1.5402 -1.1002 -0.5646
25408SOL    HW278667   8.946   8.629   5.288  0.1462 -0.1554 -0.9211
25409SOL     OW78668   0.877   3.212   6.978 -0.0606  0.2921 -0.0246
25409SOL    HW178669   0.944   3.235   7.042  1.7209  0.0796 -1.7149
25409SOL    HW278670   0.797   3.253   7.011  0.9128  0.6920  1.9829
25410SOL     OW78671   1.396   2.450   3.184  0.1177  0.4980  0.3028
25410SOL    HW178672   1.320   2.426   3.238  0.8405 -1.5837  0.4752
25410SOL    HW278673   1.358   2.487   3.104 -1.0962 -0.6889  0.3039
25411SOL     OW78674   0.632   5.843   7.853 -0.1811  0.6251  0.9012
25411SOL    HW178675   0.696   5.871   7.918 -1.1518  0.5428  1.9363
25411SOL    HW278676   0.637   5.747   7.853 -1.0193  0.5549  1.7935
25412SOL     OW78677   8.665   4.882   3.705 -0.8075 -0.1084  0.5589
25412SOL    HW178678   8.748   4.835   3.705 -1.1607 -0.7407  0.0034
25412SOL    HW278679   8.652   4.909   3.614 -0.7623  0.8053  0.8080
25413SOL     OW78680   4.560   1.110   7.942 -0.2643  0.0075 -0.0717
25413SOL    HW178681   4.474   1.069   7.952  0.1331 -1.0341 -0.7848
25413SOL    HW278682   4.605   1.093   8.025  0.0187 -1.3305 -0.4761
25414SOL     OW78683   2.660   2.591   2.858 -0.0131  0.0305  0.1104
25414SOL    HW178684   2.633   2.538   2.932 -0.6591  1.1843  0.7322
25414SOL    HW278685   2.665   2.530   2.785 -0.3283 -0.9464  0.8896
25415SOL     OW78686   3.522   5.083   2.274 -0.7125 -0.1847  0.6293
25415SOL    HW178687   3.452   5.045   2.221  0.1212 -0.0452 -0.6155
25415SOL    HW278688   3.565   5.008   2.315 -0.7898 -0.3779  0.3605
25416SOL     OW78689   9.801   6.457   8.532 -0.1150  0.2810  0.8091
25416SOL    HW178690   9.850   6.520   8.584 -0.1098  1.8589 -0.9904
25416SOL    HW278691   9.747   6.511   8.474  0.2965 -1.3316 -1.1891
25417SOL     OW78692   0.116  10.081   4.657 -0.3445  0.3780 -0.3712
25417SOL    HW178693   0.168  10.028   4.717 -0.3670  1.6742  0.8432
25417SOL    HW278694   0.178  10.107   4.589 -0.5031 -1.7617 -1.4202
25418SOL     OW78695   4.994   8.120   3.303 -0.2003 -0.0742  0.7893
25418SOL    HW178696   4.997   8.120   3.398 -0.7583  0.1362  0.8112
25418SOL    HW278697   5.083   8.141   3.276 -0.0040 -0.3016  1.2642
25419SOL     OW78698   0.726  10.185   3.542 -0.1706  0.1176 -0.7065
25419SOL    HW178699   0.669  10.261   3.528  0.1641  0.7567  1.1043
25419SOL    HW278700   0.731  10.142   3.456 -2.5616  0.5992 -1.1698
25420SOL     OW78701   6.438   1.991   5.001 -0.3154 -0.0152  0.3494
25420SOL    HW178702   6.473   2.014   5.087 -0.4197 -1.4023  0.7737
25420SOL    HW278703   6.501   1.928   4.966 -1.4299 -1.1726  0.3641
25421SOL     OW78704   8.829   1.219   5.915  0.0655 -0.1256 -0.0258
25421SOL    HW178705   8.918   1.255   5.925  0.2323 -0.5669  0.0910
25421SOL    HW278706   8.776   1.294   5.889  0.6248  0.0020 -0.8524
25422SOL     OW78707   6.142   5.873   7.811 -0.1696  0.5595 -0.3020
25422SOL    HW178708   6.224   5.860   7.859 -0.2912  0.8344 -0.0145
25422SOL    HW278709   6.091   5.934   7.866 -1.0480 -0.5081  0.1001
25423SOL     OW78710   6.653   8.973   3.591  0.7541  0.3101 -0.0702
25423SOL    HW178711   6.727   9.007   3.643  0.1933  0.2610  0.7843
25423SOL    HW278712   6.693   8.912   3.529  1.5976  1.3403 -0.5739
25424SOL     OW78713   4.403   8.109   0.631  0.2346  0.8668  0.2170
25424SOL    HW178714   4.452   8.191   0.635  1.2817  0.3296 -0.7111
25424SOL    HW278715   4.358   8.103   0.715 -0.4434  2.7297  0.0126
25425SOL     OW78716   5.777   8.502   7.799 -0.2595 -0.3695 -0.2961
25425SOL    HW178717   5.725   8.431   7.838 -1.7019  1.0630  0.5214
25425SOL    HW278718   5.720   8.578   7.804  0.8342  0.6284 -2.1524
25426SOL     OW78719   1.454   9.976   9.436 -0.6486  0.4298 -0.1781
25426SOL    HW178720   1.415  10.049   9.484 -1.8301  0.4109 -1.0526
25426SOL    HW278721   1.398   9.967   9.358  1.1502  0.4491 -1.5370
25427SOL     OW78722   9.366   9.171   5.317 -0.0702  0.0546 -0.3716
25427SOL    HW178723   9.341   9.192   5.406 -1.8223 -1.3229 -0.4918
25427SOL    HW278724   9.292   9.201   5.263 -0.0998 -1.2519 -1.0966
25428SOL     OW78725   2.035   8.645   1.575  0.3349  0.1604 -0.5678
25428SOL    HW178726   1.953   8.646   1.526 -0.4825 -0.3049  0.7368
25428SOL    HW278727   2.086   8.717   1.539 -0.6964  0.5387 -1.3055
25429SOL     OW78728   4.048   5.786   2.966 -0.3200  0.1512 -0.1731
25429SOL    HW178729   4.095   5.790   2.882  0.6302  0.6725  0.3658
25429SOL    HW278730   4.068   5.869   3.008 -0.8595 -0.0737  0.5455
25430SOL     OW78731   6.052   1.509   8.106  0.1969  0.0164  0.2270
25430SOL    HW178732   6.138   1.539   8.135 -0.5173  0.5714  1.8715
25430SOL    HW278733   6.029   1.439   8.168 -0.0081 -1.0225 -0.9749
25431SOL     OW78734   9.989   9.933   7.443  0.1208  0.3453 -0.6494
25431SOL    HW178735   9.921   9.939   7.376  1.6843  0.3994 -2.3006
25431SOL    HW278736  10.016   9.841   7.442  0.5117  0.4552 -0.4587
25432SOL     OW78737   7.589   2.976   2.000 -0.3083 -0.6599 -0.5628
25432SOL    HW178738   7.506   3.020   1.981 -1.8265 -2.7014  0.9092
25432SOL    HW278739   7.613   3.008   2.087  0.5872  0.0434 -1.0485
25433SOL     OW78740   0.237   0.030   2.725 -0.3215 -0.1904 -0.0491
25433SOL    HW178741   0.203  -0.044   2.776 -0.4230 -0.3721 -0.3749
25433SOL    HW278742   0.273  -0.011   2.646  2.5400 -0.2565  1.1712
25434SOL     OW78743   0.287   4.580   3.530  0.2761 -0.1721 -0.1747
25434SOL    HW178744   0.312   4.626   3.610  0.3372 -0.8400  0.1964
25434SOL    HW278745   0.251   4.648   3.473  3.1373  0.9299 -0.8475
25435SOL     OW78746   9.427   9.516   1.690  0.2607  0.1698  0.1781
25435SOL    HW178747   9.452   9.459   1.763  1.0108  0.5980  0.2627
25435SOL    HW278748   9.388   9.457   1.626  0.7905 -0.4048  0.3781
25436SOL     OW78749   8.119   7.762   7.636  0.1062 -0.0543  0.0250
25436SOL    HW178750   8.087   7.806   7.558  1.5354  1.3752  0.2042
25436SOL    HW278751   8.114   7.828   7.705  0.4243 -0.7851  0.7711
25437SOL     OW78752   0.193   0.058   1.001 -0.4330 -0.3438 -0.4285
25437SOL    HW178753   0.281   0.091   1.022 -0.3271 -0.3891 -0.8054
25437SOL    HW278754   0.145   0.135   0.971  0.0005 -0.6368 -1.9169
25438SOL     OW78755   2.512   0.287   4.466  0.2654 -0.6396  0.1805
25438SOL    HW178756   2.433   0.251   4.425  0.1219  0.0457 -0.1567
25438SOL    HW278757   2.513   0.248   4.554 -1.0698  0.2140  0.5972
25439SOL     OW78758   7.573   2.345   5.427 -0.6241 -0.3647 -0.2057
25439SOL    HW178759   7.653   2.326   5.476 -1.1481 -2.0956  0.0467
25439SOL    HW278760   7.595   2.422   5.374  0.9714 -0.3920  0.3580
25440SOL     OW78761   5.461   6.066   3.763  0.1869  0.4341  0.1120
25440SOL    HW178762   5.429   6.135   3.705  0.5584 -0.8089 -1.6583
25440SOL    HW278763   5.393   5.999   3.761  0.3798  0.2098  0.8282
25441SOL     OW78764   4.212   0.400   3.851  0.0064  0.5818  0.0545
25441SOL    HW178765   4.304   0.379   3.867 -0.1741 -1.8187 -1.5838
25441SOL    HW278766   4.170   0.316   3.833 -2.0156  1.8242 -1.6280
25442SOL     OW78767   5.729   8.337   3.555  0.0388  0.5601 -0.1616
25442SOL    HW178768   5.817   8.364   3.530  1.6001 -1.5173  2.4904
25442SOL    HW278769   5.702   8.275   3.488  0.2657  1.6970 -1.3442
25443SOL     OW78770   0.694   7.764   7.065  0.3567 -0.1384 -0.0409
25443SOL    HW178771   0.764   7.819   7.102 -0.9304  1.6602 -0.1872
25443SOL    HW278772   0.730   7.734   6.981  0.3526  2.1759 -0.9293
25444SOL     OW78773   6.380   6.355   2.050  0.0186 -0.3577 -0.1084
25444SOL    HW178774   6.450   6.328   2.110  0.3381  0.1825 -0.2275
25444SOL    HW278775   6.318   6.402   2.105 -0.7485 -1.6535  0.1779
25445SOL     OW78776   4.445   8.426   0.482  0.3531  0.0825  0.1672
25445SOL    HW178777   4.513   8.371   0.520  0.8205  0.6155  0.1130
25445SOL    HW278778   4.483   8.514   0.480 -0.5877  0.5238  0.7791
25446SOL     OW78779   8.330   2.853   5.127 -0.1920  0.1602 -0.8222
25446SOL    HW178780   8.286   2.813   5.052 -0.1250  1.9187 -1.8536
25446SOL    HW278781   8.418   2.874   5.095  0.6365 -1.0849  0.4705
25447SOL     OW78782   9.816   3.349   8.461  0.1361 -0.2909 -0.1980
25447SOL    HW178783   9.768   3.379   8.539  1.3018 -1.2399  0.9307
25447SOL    HW278784   9.748   3.322   8.399 -0.8098 -0.0552  0.7117
25448SOL     OW78785   8.922   2.291   1.885  0.1842 -0.2014 -0.0563
25448SOL    HW178786   8.952   2.380   1.905 -0.7820  0.0013  0.5730
25448SOL    HW278787   8.997   2.249   1.845  0.4730  1.1027 -0.9697
25449SOL     OW78788   7.040   3.881   6.558 -0.2053  0.0904 -0.3418
25449SOL    HW178789   6.980   3.867   6.631  0.4797  1.3635  0.5155
25449SOL    HW278790   6.983   3.890   6.482 -1.2047  1.9859  0.5555
25450SOL     OW78791   3.368   7.761   1.835  0.2290 -0.4447 -0.6463
25450SOL    HW178792   3.310   7.692   1.868 -1.3591  1.3000  0.4813
25450SOL    HW278793   3.324   7.795   1.757  0.4698 -0.0581 -0.6180
25451SOL     OW78794  10.167   0.415   1.017  0.0305 -0.2053  0.5060
25451SOL    HW178795  10.193   0.505   0.996 -2.1951  1.0054  2.4665
25451SOL    HW278796  10.076   0.409   0.988 -0.7199 -0.9010  2.8124
25452SOL     OW78797   9.985   0.731   2.550  0.4551 -0.3372  0.1359
25452SOL    HW178798   9.909   0.679   2.573  0.4301  0.1891  1.3148
25452SOL    HW278799   9.953   0.821   2.549  0.8026 -0.2120 -0.5458
25453SOL     OW78800   6.548   9.199   7.270  0.3371 -0.1897  0.1004
25453SOL    HW178801   6.516   9.286   7.294 -0.1597 -0.4575  0.4270
25453SOL    HW278802   6.507   9.140   7.333  0.2468 -0.7276 -0.4517
25454SOL     OW78803   7.484   7.643   6.577 -0.0886  0.1254  0.4049
25454SOL    HW178804   7.452   7.611   6.493 -1.1843  0.6066  0.6229
25454SOL    HW278805   7.501   7.564   6.628  3.1331 -0.3212 -1.1026
25455SOL     OW78806   2.270   5.554   9.370 -0.1350  0.1657  0.0664
25455SOL    HW178807   2.266   5.464   9.337  0.0733 -0.4212  1.5341
25455SOL    HW278808   2.258   5.609   9.293  0.7296 -1.1061 -1.0186
25456SOL     OW78809   8.865   7.303   1.978 -0.2735  0.5707  0.0710
25456SOL    HW178810   8.859   7.338   2.067 -1.8104  2.7026 -0.7935
25456SOL    HW278811   8.898   7.376   1.925 -1.8818  0.2084 -1.5290
25457SOL     OW78812   9.890   0.441   0.957 -0.1233 -0.5905  0.8261
25457SOL    HW178813   9.852   0.495   0.888  0.2052  0.8949  1.7473
25457SOL    HW278814   9.884   0.352   0.925  0.8468  0.1111 -1.5319
25458SOL     OW78815   1.211   1.794   5.075  0.8611  0.2030  0.2169
25458SOL    HW178816   1.295   1.803   5.030  1.5915 -0.4652  1.4039
25458SOL    HW278817   1.199   1.700   5.086 -0.0721  0.2879  0.0167
25459SOL     OW78818   1.158   2.487   5.830  0.1163 -0.2871  0.2634
25459SOL    HW178819   1.233   2.545   5.823  0.7933 -0.8476  2.2374
25459SOL    HW278820   1.088   2.543   5.865  0.1990 -0.2211  0.3240
25460SOL     OW78821   3.651   3.470   2.821  0.6126 -0.5405  0.2975
25460SOL    HW178822   3.570   3.510   2.789  1.1656 -0.6386 -1.3064
25460SOL    HW278823   3.636   3.376   2.815  0.8288 -0.5587  0.0364
25461SOL     OW78824   3.068  10.235   6.679  0.3895 -0.2759  0.4655
25461SOL    HW178825   3.075  10.308   6.739 -2.7894 -0.6916  1.5384
25461SOL    HW278826   2.974  10.225   6.664  0.6386 -4.0621  0.3389
25462SOL     OW78827   2.793   7.658   4.452 -0.2822 -0.2841 -0.8301
25462SOL    HW178828   2.888   7.649   4.461 -0.4675 -0.1241  1.8734
25462SOL    HW278829   2.782   7.734   4.394  1.2332  0.0115 -0.7792
25463SOL     OW78830   0.049   0.637  10.211 -0.3326 -0.1974 -0.1528
25463SOL    HW178831   0.077   0.625  10.302  2.0714  1.2180 -0.6392
25463SOL    HW278832   0.071   0.554  10.168  2.1183  0.4146 -0.2189
25464SOL     OW78833   9.987   9.961   2.244 -0.2813 -0.5851  0.5883
25464SOL    HW178834  10.068   9.985   2.201 -0.8968  0.2987 -0.1069
25464SOL    HW278835  10.014   9.931   2.331  0.6475  1.5414  1.0949
25465SOL     OW78836   6.814  10.481   6.678  0.5624 -0.5664  0.2649
25465SOL    HW178837   6.804  10.513   6.768  1.0737 -0.8092  0.4170
25465SOL    HW278838   6.906  10.496   6.657  0.0381  1.2668 -0.9435
25466SOL     OW78839   2.241   7.186  10.357  0.2900  0.2753  0.2668
25466SOL    HW178840   2.322   7.163  10.313 -0.3628 -0.1282 -0.7727
25466SOL    HW278841   2.267   7.245  10.428  1.7149 -1.6061  1.3888
25467SOL     OW78842   6.738   5.024   2.268  0.6415 -0.5166 -0.0814
25467SOL    HW178843   6.749   5.081   2.344 -2.1993  0.1267 -0.0540
25467SOL    HW278844   6.665   4.967   2.291  2.4548 -3.3157 -0.6789
25468SOL     OW78845   4.025   1.749   6.221  0.0961 -0.2988  0.2657
25468SOL    HW178846   3.974   1.818   6.179  1.6540  0.2640 -0.7992
25468SOL    HW278847   3.975   1.669   6.206  0.1296  0.0312 -1.9044
25469SOL     OW78848   9.805   8.604   3.938 -0.0662  0.0480 -0.3321
25469SOL    HW178849   9.818   8.559   3.854 -1.6871  0.2663 -0.7310
25469SOL    HW278850   9.714   8.633   3.936 -0.1184  0.1220  1.4848
25470SOL     OW78851   4.179   7.961   0.792 -0.5953  1.1071 -0.4993
25470SOL    HW178852   4.128   7.880   0.799  0.6669  0.1348 -2.0868
25470SOL    HW278853   4.182   7.995   0.882 -0.0230 -1.3158  0.4610
25471SOL     OW78854   9.337   0.403   5.893  0.3593  0.3037 -0.0467
25471SOL    HW178855   9.313   0.378   5.982 -0.6752 -0.1241 -0.4251
25471SOL    HW278856   9.372   0.491   5.901 -1.2690  0.9356  0.5843
25472SOL     OW78857   7.083   9.669   2.192  0.1314 -0.4815  0.3730
25472SOL    HW178858   7.152   9.616   2.151 -0.8784 -0.7970 -0.9907
25472SOL    HW278859   7.002   9.641   2.149 -0.5161  1.7487  0.0203
25473SOL     OW78860   8.399   7.909   6.495  0.4121  0.4387  0.2442
25473SOL    HW178861   8.460   7.954   6.553 -1.2411  0.6263  1.9460
25473SOL    HW278862   8.351   7.980   6.452 -0.1770  0.3126  0.6827
25474SOL     OW78863   7.029  10.461   2.772  0.0575  0.8416  0.8924
25474SOL    HW178864   7.042  10.452   2.866 -0.2829  1.1211  0.9709
25474SOL    HW278865   7.101  10.517   2.743 -0.7594  2.1462  1.2762
25475SOL     OW78866   2.462   6.119   0.430 -1.0721 -0.1028  0.3869
25475SOL    HW178867   2.376   6.110   0.471 -2.0416 -2.6760 -1.8539
25475SOL    HW278868   2.456   6.199   0.378 -2.8916 -1.1335 -1.1483
25476SOL     OW78869   8.012   6.510   9.078 -0.2538  0.0412  0.4982
25476SOL    HW178870   7.983   6.534   9.166 -0.8255  1.0279  0.0684
25476SOL    HW278871   7.933   6.515   9.024  0.0971 -0.4852 -0.0867
25477SOL     OW78872   4.824   6.401   7.247 -0.3158  0.5006 -0.7800
25477SOL    HW178873   4.872   6.441   7.320 -0.8870  1.0831 -0.7095
25477SOL    HW278874   4.862   6.314   7.238 -0.0031  0.5455 -0.0065
25478SOL     OW78875   3.720   8.081   2.542  0.4817 -0.5388  0.5826
25478SOL    HW178876   3.670   8.008   2.578 -0.6555  0.5794  1.3544
25478SOL    HW278877   3.673   8.159   2.571  0.1990  0.4913 -2.2892
25479SOL     OW78878   0.755   2.232   7.016 -0.4674  0.5883 -0.5651
25479SOL    HW178879   0.836   2.185   7.035 -0.3678  0.7276 -0.6397
25479SOL    HW278880   0.754   2.304   7.079 -1.4112 -0.4135  0.6320
25480SOL     OW78881   8.880   9.300  10.393 -0.7869 -0.6755  0.1934
25480SOL    HW178882   8.975   9.304  10.396 -0.8018  1.3789 -0.7334
25480SOL    HW278883   8.854   9.279  10.483  0.4956 -0.0391  0.7384
25481SOL     OW78884   7.880   3.168   7.353 -0.8141 -0.2911 -0.3056
25481SOL    HW178885   7.867   3.167   7.258 -0.4181 -2.1114 -0.3691
25481SOL    HW278886   7.971   3.141   7.365 -0.4188  1.2759  0.5703
25482SOL     OW78887   0.768   1.266   8.733  0.2356 -0.2809  0.1775
25482SOL    HW178888   0.731   1.192   8.686 -0.0604 -2.1426  3.0976
25482SOL    HW278889   0.850   1.233   8.770 -0.2721  0.5245  2.1764
25483SOL     OW78890   9.733   6.616   1.526 -0.3676  0.6371 -0.6864
25483SOL    HW178891   9.750   6.679   1.456 -0.2658  2.2125  0.6806
25483SOL    HW278892   9.816   6.612   1.575 -0.4997 -0.2629 -0.5163
25484SOL     OW78893   8.760   5.398  10.431 -0.1612 -0.0764 -0.0643
25484SOL    HW178894   8.766   5.493  10.441 -0.8175 -0.2241  2.4104
25484SOL    HW278895   8.846   5.372  10.396  0.8773  1.2337  1.3647
25485SOL     OW78896   2.813   9.186   4.107  0.7212 -0.0852  0.3966
25485SOL    HW178897   2.897   9.178   4.062  0.5073 -4.5406  0.2654
25485SOL    HW278898   2.748   9.167   4.040 -0.2440  0.9074  1.0150
25486SOL     OW78899   6.400   7.905   5.531  0.6959 -0.0479  0.0782
25486SOL    HW178900   6.317   7.868   5.561  1.6228 -1.8605  0.5115
25486SOL    HW278901   6.465   7.871   5.592  1.9540  0.2433 -1.0626
25487SOL     OW78902   8.380   9.912   2.515  0.4549  0.1251 -0.4182
25487SOL    HW178903   8.290   9.943   2.518  0.2315 -0.5336  2.3496
25487SOL    HW278904   8.372   9.816   2.510  0.9240 -0.0331  1.2540
25488SOL     OW78905   3.979   2.305   2.772  0.3858 -0.2831 -0.4628
25488SOL    HW178906   3.889   2.331   2.751 -0.0191 -0.4825  0.9491
25488SOL    HW278907   4.033   2.354   2.709 -0.6945 -0.1117 -1.2827
25489SOL     OW78908   7.150   0.439   8.351  0.0040 -0.1773 -0.4163
25489SOL    HW178909   7.211   0.445   8.424 -0.3093 -2.6285  0.1477
25489SOL    HW278910   7.125   0.529   8.332  2.2288  0.7202  0.6498
25490SOL     OW78911   8.685   4.007   7.360 -0.7790  0.1748  0.3007
25490SOL    HW178912   8.627   3.951   7.309 -0.8822  0.6363 -0.0961
25490SOL    HW278913   8.772   3.969   7.348 -0.4773  1.3687 -1.8341
25491SOL     OW78914   9.345   1.556   8.625 -0.3162 -0.6640  0.2251
25491SOL    HW178915   9.425   1.607   8.610  0.0216 -1.4972 -0.9634
25491SOL    HW278916   9.328   1.564   8.719 -0.4796  1.9163  0.0619
25492SOL     OW78917   9.542   1.853   1.099  0.4465  0.1412  0.0715
25492SOL    HW178918   9.482   1.927   1.107 -0.4482 -0.3714 -1.4787
25492SOL    HW278919   9.511   1.790   1.163  0.3894  0.5613  0.4630
25493SOL     OW78920   2.920   4.417   7.829 -0.3690 -0.2975 -0.6850
25493SOL    HW178921   2.978   4.468   7.885 -1.3713 -1.1797  1.2660
25493SOL    HW278922   2.971   4.402   7.749  0.8826  1.5387 -0.2980
25494SOL     OW78923   4.133   9.900   3.197  0.2862 -0.0597  0.1511
25494SOL    HW178924   4.172   9.880   3.112  0.5137  0.6887  0.0723
25494SOL    HW278925   4.207   9.899   3.258  0.0155 -1.3757  0.4962
25495SOL     OW78926   5.631   0.287   9.565 -0.0832  0.1078  0.2332
25495SOL    HW178927   5.570   0.307   9.635 -0.8806 -0.1615 -0.3631
25495SOL    HW278928   5.630   0.191   9.559 -0.4807  0.1527 -0.5346
25496SOL     OW78929   7.614   8.332   9.084  0.6760  0.1913  0.4329
25496SOL    HW178930   7.653   8.394   9.146  0.0458  1.2251 -0.1744
25496SOL    HW278931   7.615   8.379   9.001  0.2425 -0.6533 -0.0555
25497SOL     OW78932   0.814   2.997   2.800  0.5995 -0.1938 -0.0044
25497SOL    HW178933   0.781   3.023   2.886  0.5440 -0.4987  0.0657
25497SOL    HW278934   0.821   3.080   2.752 -0.3981 -0.1336 -0.0670
25498SOL     OW78935   0.872   1.662   9.535  0.4244 -0.0754  0.2480
25498SOL    HW178936   0.823   1.638   9.614 -0.0593  1.8805  0.5996
25498SOL    HW278937   0.959   1.688   9.567  1.0029 -1.4441 -0.1410
25499SOL     OW78938   8.882   6.966   6.550 -0.6097 -0.3610 -0.4757
25499SOL    HW178939   8.962   6.932   6.590 -0.2972 -1.4122 -1.9108
25499SOL    HW278940   8.812   6.915   6.589 -0.3292 -1.2046 -1.0423
25500SOL     OW78941   9.859   1.307   5.728  0.3322  0.3669 -0.9325
25500SOL    HW178942   9.835   1.399   5.736 -1.1644 -0.1093  0.8875
25500SOL    HW278943   9.873   1.294   5.634  0.0975  2.3137 -1.2866
25501SOL     OW78944   9.562   8.705   3.933  0.3707 -0.0394  0.1257
25501SOL    HW178945   9.509   8.732   4.008  0.8906 -0.0643  0.5099
25501SOL    HW278946   9.519   8.744   3.857  0.1163  0.3907  0.4899
25502SOL     OW78947   0.533   0.109   5.617 -0.3485 -0.2402  0.4029
25502SOL    HW178948   0.568   0.072   5.698  1.1225 -0.1764 -0.1759
25502SOL    HW278949   0.442   0.079   5.615  0.1475 -1.9522  1.0853
25503SOL     OW78950   0.376   4.802   5.703 -0.3183  0.2800  0.2641
25503SOL    HW178951   0.365   4.838   5.615  0.1045 -0.2978 -0.0303
25503SOL    HW278952   0.316   4.853   5.757 -0.7738  0.4682 -0.4039
25504SOL     OW78953   8.498   4.425   3.962  0.2332 -0.5009 -0.3451
25504SOL    HW178954   8.498   4.331   3.978 -1.6442 -0.4751  0.0100
25504SOL    HW278955   8.580   4.441   3.915  2.1068 -1.8123  2.2172
25505SOL     OW78956   3.012   5.531  10.182 -0.2272  0.0296  0.0717
25505SOL    HW178957   3.032   5.450  10.230 -0.2765  1.3571  2.5281
25505SOL    HW278958   2.923   5.519  10.151 -1.1664  0.0086  2.5522
25506SOL     OW78959   2.985   0.488   5.819 -0.3449 -0.1955 -0.3697
25506SOL    HW178960   3.060   0.428   5.825 -1.2464 -1.5323 -1.7363
25506SOL    HW278961   3.003   0.542   5.742 -0.0914  0.5223  0.1799
25507SOL     OW78962   5.804   1.619   5.104  0.4535  0.5701  0.3029
25507SOL    HW178963   5.889   1.644   5.068  0.4977  1.0341  0.7191
25507SOL    HW278964   5.747   1.694   5.087  0.0278  0.1325 -0.2710
25508SOL     OW78965   8.010   3.825   1.435  0.1298  0.4018  0.7977
25508SOL    HW178966   7.945   3.895   1.440  0.0863  0.4920 -0.5741
25508SOL    HW278967   7.962   3.751   1.396  1.1635  0.9349 -1.6513
25509SOL     OW78968   0.929  10.126   0.045 -0.7179  0.2291 -0.1482
25509SOL    HW178969   0.901  10.209   0.083  0.7808 -0.0605  1.7402
25509SOL    HW278970   0.928  10.064   0.119  0.0045 -0.9556 -1.0926
25510SOL     OW78971   4.269   5.496   6.773 -0.1853 -0.1295 -0.1266
25510SOL    HW178972   4.213   5.481   6.850  1.4771 -1.2303  0.9488
25510SOL    HW278973   4.339   5.432   6.782  0.8368  0.6779 -1.8364
25511SOL     OW78974   3.092   3.026   1.351  0.1775  0.0292 -0.3620
25511SOL    HW178975   3.058   2.999   1.437 -0.6772  0.8806 -0.4187
25511SOL    HW278976   3.152   2.956   1.326  1.2580  0.2444  1.4124
25512SOL     OW78977   5.563   5.024   5.399  0.2371  0.4573 -0.1490
25512SOL    HW178978   5.537   5.095   5.341  2.6326 -0.5451 -2.6960
25512SOL    HW278979   5.620   5.065   5.464 -2.3913  1.5725  1.6529
25513SOL     OW78980   0.072   0.266   7.241  0.2001 -0.4504 -0.1266
25513SOL    HW178981   0.072   0.246   7.334  0.8983 -0.8717 -0.2148
25513SOL    HW278982   0.053   0.182   7.198 -1.6508  0.0120 -0.3254
25514SOL     OW78983   7.101   8.999   6.116 -0.8603 -0.2569 -0.2311
25514SOL    HW178984   7.129   8.995   6.025 -0.1355 -1.5660  0.0187
25514SOL    HW278985   7.067   9.088   6.127  0.8965  0.5920 -1.2432
25515SOL     OW78986   8.838   0.059   0.656  0.5843 -0.1840 -0.1688
25515SOL    HW178987   8.757   0.110   0.656 -0.0137 -1.0981 -0.3085
25515SOL    HW278988   8.908   0.124   0.666 -0.0659  0.7797 -1.4776
25516SOL     OW78989   0.550   9.870   1.844  0.1623  0.2095  0.3804
25516SOL    HW178990   0.605   9.794   1.824 -0.6015 -0.1354 -0.4945
25516SOL    HW278991   0.595   9.944   1.802  1.7889  0.5826  2.6166
25517SOL     OW78992   9.300   0.197   3.594 -0.0368  0.1993 -0.0544
25517SOL    HW178993   9.319   0.124   3.652  1.5888  1.4991  1.1757
25517SOL    HW278994   9.366   0.263   3.617 -0.8782  1.7092 -1.7168
25518SOL     OW78995   8.371   7.504   2.656  0.5309  0.0059 -0.0848
25518SOL    HW178996   8.332   7.441   2.595  0.4907 -0.3633  0.3191
25518SOL    HW278997   8.402   7.450   2.729  0.9402  0.4031  0.0363
25519SOL     OW78998   5.767   2.103   7.354  0.0343  0.3797 -0.6054
25519SOL    HW178999   5.762   2.039   7.426  0.6421  0.5597 -0.3937
25519SOL    HW279000   5.729   2.057   7.279 -1.0880  0.3722 -0.0515
25520SOL     OW79001   2.365   4.696   5.042 -0.1834 -0.3767  0.3565
25520SOL    HW179002   2.366   4.676   5.136  1.6550  0.4359  0.5521
25520SOL    HW279003   2.320   4.780   5.037  1.3686  0.5260  0.7815
25521SOL     OW79004   5.133   5.318   7.388  0.2215 -0.1098  0.3964
25521SOL    HW179005   5.171   5.397   7.425  0.9834  0.0782 -0.7543
25521SOL    HW279006   5.201   5.251   7.399  0.6473  0.0581 -1.0354
25522SOL     OW79007   6.901   1.365  10.354 -0.1612  0.2729  0.2925
25522SOL    HW179008   6.840   1.438  10.361  2.5091  2.5498  2.0584
25522SOL    HW279009   6.904   1.345  10.261 -2.0588  1.4060 -0.0616
25523SOL     OW79010   8.915   3.528   8.703 -0.0563 -0.0944  0.5769
25523SOL    HW179011   8.871   3.443   8.707 -2.5563  1.1178  1.0262
25523SOL    HW279012   8.927   3.544   8.609  1.2957 -1.3120  0.5152
25524SOL     OW79013   2.953   0.352   3.913  0.4258 -0.3428 -0.3846
25524SOL    HW179014   2.975   0.358   3.820 -0.4441  2.0766 -0.5102
25524SOL    HW279015   2.875   0.296   3.915  0.4386 -0.4036 -1.1069
25525SOL     OW79016   9.527   9.201   9.009  0.2491  0.0859  0.1062
25525SOL    HW179017   9.461   9.133   8.992 -0.1704  0.4976  0.0688
25525SOL    HW279018   9.605   9.153   9.037  0.3944 -0.5042 -1.2283
25526SOL     OW79019   6.553   6.098   5.643 -0.0816  0.6156 -0.3932
25526SOL    HW179020   6.648   6.087   5.630  0.2635  2.8430 -0.1945
25526SOL    HW279021   6.519   6.116   5.555 -0.1235  0.8975 -0.3216
25527SOL     OW79022   6.938   5.796   0.990  0.5759  0.0863  0.1820
25527SOL    HW179023   6.908   5.839   0.909  0.3815 -1.2673 -0.4866
25527SOL    HW279024   6.858   5.787   1.043  0.0713 -1.8413 -0.8200
25528SOL     OW79025   3.100   3.284   1.056 -0.0699 -0.5410  0.5638
25528SOL    HW179026   3.107   3.352   0.990  0.0804 -1.2629 -0.1792
25528SOL    HW279027   3.147   3.209   1.019  1.7430 -0.3533  2.3095
25529SOL     OW79028  10.279   4.971   4.715  0.1665  0.3289 -0.2831
25529SOL    HW179029  10.319   4.909   4.653  1.1902  0.5597  0.1152
25529SOL    HW279030  10.328   5.053   4.700 -0.6470  0.8299 -0.2644
25530SOL     OW79031   5.434   0.305   7.309  0.3999  0.3585 -0.2076
25530SOL    HW179032   5.351   0.338   7.273 -0.3942  0.1871  1.3867
25530SOL    HW279033   5.488   0.384   7.319  0.1808  0.5637 -0.5925
25531SOL     OW79034   9.954   5.444   8.583  0.4524  0.2618 -0.1036
25531SOL    HW179035   9.869   5.480   8.609  0.2538 -0.4181  0.1833
25531SOL    HW279036  10.017   5.493   8.635  0.0721 -0.9911  1.5905
25532SOL     OW79037   0.592   5.686  10.042 -0.1601  0.1702  0.1089
25532SOL    HW179038   0.603   5.699  10.136  0.1644  0.3116  0.0528
25532SOL    HW279039   0.599   5.591  10.030 -1.1430  0.0590  0.3421
25533SOL     OW79040   1.267   8.422   0.595  0.2945 -0.0602  0.1746
25533SOL    HW179041   1.217   8.345   0.570  1.0088 -0.3002 -0.5401
25533SOL    HW279042   1.348   8.387   0.633  0.0441  0.3268  1.1024
25534SOL     OW79043   5.414   3.764   9.778  0.4152  0.1727 -0.5926
25534SOL    HW179044   5.356   3.725   9.844  0.3040  0.3968 -0.5575
25534SOL    HW279045   5.421   3.856   9.804  0.8602  0.1259 -0.5465
25535SOL     OW79046   4.743   3.883   1.321 -0.1209  0.3063 -0.3133
25535SOL    HW179047   4.672   3.823   1.344  0.2808  0.3591  1.2279
25535SOL    HW279048   4.699   3.966   1.301 -0.5717 -0.0340 -0.7443
25536SOL     OW79049   5.418   1.895   7.277  0.3092 -0.2033  0.0708
25536SOL    HW179050   5.378   1.810   7.263  0.6550 -0.4016  0.2785
25536SOL    HW279051   5.415   1.908   7.372  3.1513 -1.4347  0.4266
25537SOL     OW79052   2.099   9.877   1.631 -0.3177  0.4322 -0.3782
25537SOL    HW179053   2.059   9.834   1.555  0.0043 -1.0229  0.2361
25537SOL    HW279054   2.173   9.925   1.595 -0.4065  0.0870 -1.0396
25538SOL     OW79055   5.904   5.747   4.887 -0.8421  0.2402 -0.1008
25538SOL    HW179056   5.857   5.812   4.939  1.5133  1.5124  0.5570
25538SOL    HW279057   5.982   5.792   4.856  0.1813 -1.8800 -0.8153
25539SOL     OW79058   4.042   9.488   2.504  0.3321  0.3645  0.3792
25539SOL    HW179059   3.973   9.422   2.501  0.5530  0.1498 -1.4180
25539SOL    HW279060   4.108   9.452   2.563  0.9846 -1.6561 -1.4398
25540SOL     OW79061   3.067   6.384   6.420  0.1366 -0.3047 -0.0346
25540SOL    HW179062   3.074   6.300   6.375  0.2298  0.2961 -1.1807
25540SOL    HW279063   3.155   6.420   6.418 -0.4051  1.1369 -2.2667
25541SOL     OW79064   7.166  10.038   3.225 -0.0472 -0.0481  0.0862
25541SOL    HW179065   7.197  10.046   3.135 -0.5379  0.7715 -0.0202
25541SOL    HW279066   7.220   9.969   3.263  0.5245 -0.0329 -0.6778
25542SOL     OW79067   8.122   8.534   0.288 -0.8570 -0.2116 -0.2078
25542SOL    HW179068   8.109   8.508   0.196 -2.8701  0.6391 -0.2100
25542SOL    HW279069   8.200   8.486   0.315 -0.4248 -0.7704 -2.2534
25543SOL     OW79070   0.943   3.367   5.650 -0.0290  0.3453 -0.7396
25543SOL    HW179071   0.896   3.318   5.582  0.2061 -0.2282 -0.5020
25543SOL    HW279072   1.006   3.304   5.684 -0.9735  0.2046  0.8700
25544SOL     OW79073   9.472   2.610   8.438  0.2630 -0.1542 -0.1962
25544SOL    HW179074   9.525   2.582   8.513  1.1421 -0.2627 -0.8313
25544SOL    HW279075   9.432   2.692   8.467 -0.0260 -0.5825  0.6599
25545SOL     OW79076   8.792   6.485   0.756 -0.0933  0.2094  0.0825
25545SOL    HW179077   8.828   6.566   0.791  0.4875 -0.4597  1.0834
25545SOL    HW279078   8.767   6.434   0.833 -2.0822  0.1308 -0.5456
25546SOL     OW79079   4.856   2.067   7.094 -0.1034  0.2009  0.3170
25546SOL    HW179080   4.774   2.084   7.140  0.0306 -2.0163  1.5161
25546SOL    HW279081   4.910   2.020   7.157  1.2669 -0.2850 -1.1454
25547SOL     OW79082  10.431   4.914   6.483  0.5026 -0.1056  0.4551
25547SOL    HW179083  10.488   4.991   6.473 -0.1409  0.1750 -1.6236
25547SOL    HW279084  10.437   4.892   6.576  2.4384  1.1007  0.6906
25548SOL     OW79085   3.059   5.981   7.726  0.4078  0.1798 -0.3254
25548SOL    HW179086   3.139   5.953   7.770 -0.4790 -1.0804  0.5433
25548SOL    HW279087   3.031   6.059   7.775  0.6982  0.1804 -0.1615
25549SOL     OW79088   1.906   8.777   7.727  0.7754 -0.1960  0.2128
25549SOL    HW179089   1.894   8.683   7.712 -0.0795  0.1073 -1.1267
25549SOL    HW279090   1.997   8.793   7.706  0.4579 -0.4103 -1.4209
25550SOL     OW79091   5.798   6.494   0.912 -0.0559  0.1520  0.7633
25550SOL    HW179092   5.734   6.434   0.875 -2.0142  2.2918  0.4248
25550SOL    HW279093   5.814   6.558   0.842 -0.0923  1.4935  1.9226
25551SOL     OW79094   6.209   4.873  10.149 -0.0152 -0.5439  0.0958
25551SOL    HW179095   6.252   4.791  10.126  0.7303  0.2939 -1.6422
25551SOL    HW279096   6.131   4.846  10.199  1.6850 -2.1509  2.0682
25552SOL     OW79097   1.591   9.208  10.182  0.7749  0.1427  0.4328
25552SOL    HW179098   1.581   9.270  10.254  0.3381  0.3426  0.2006
25552SOL    HW279099   1.665   9.153  10.208  2.9514  2.4198 -0.5377
25553SOL     OW79100   0.713   8.987   1.158  0.0838  0.0225 -0.4489
25553SOL    HW179101   0.634   9.036   1.179  0.0651 -0.7148  1.3643
25553SOL    HW279102   0.785   9.041   1.192  0.2057 -0.2013 -0.3438
25554SOL     OW79103   2.967   7.984   0.366  0.0008 -0.1332  0.6545
25554SOL    HW179104   2.897   7.964   0.304 -1.3325 -2.1035  2.6247
25554SOL    HW279105   3.039   7.926   0.340  1.0348  1.8801 -1.3589
25555SOL     OW79106   8.705   4.895   2.890  0.7208 -0.0610  0.4013
25555SOL    HW179107   8.716   4.990   2.899  0.9615 -0.1178  0.7516
25555SOL    HW279108   8.620   4.884   2.848  0.2389  0.2888  1.2615
25556SOL     OW79109   5.070   1.199   7.972 -0.1405  0.1586  0.6578
25556SOL    HW179110   5.052   1.105   7.968 -1.4786  0.4325 -0.2963
25556SOL    HW279111   5.138   1.207   8.040  0.5481 -1.5543  0.2293
25557SOL     OW79112   9.241   1.335   6.339 -0.1558  0.1712 -0.1830
25557SOL    HW179113   9.267   1.360   6.250 -2.5399 -1.0060 -1.3019
25557SOL    HW279114   9.169   1.394   6.361  0.8054  0.8672  1.2820
25558SOL     OW79115   8.125   3.896   8.104  0.1361  0.0505 -0.7226
25558SOL    HW179116   8.094   3.874   8.192 -0.1655 -1.4817 -1.1790
25558SOL    HW279117   8.194   3.832   8.087  1.0945  1.1721 -1.1090
25559SOL     OW79118   3.860   1.551   9.471 -0.2881 -0.2766 -0.0920
25559SOL    HW179119   3.858   1.484   9.403  0.8604  0.3100 -0.7369
25559SOL    HW279120   3.926   1.519   9.533 -1.0983 -0.6505  0.5868
25560SOL     OW79121   7.597   9.493   9.400  0.1826  0.1989  0.1425
25560SOL    HW179122   7.528   9.509   9.465 -0.7650 -1.9368 -0.2673
25560SOL    HW279123   7.664   9.444   9.448 -0.0765 -0.5314 -0.2307
25561SOL     OW79124   0.713   0.040   1.400  0.1372  0.0535 -0.4321
25561SOL    HW179125   0.643  -0.004   1.352 -1.4037  0.4114  1.3792
25561SOL    HW279126   0.759  -0.029   1.447 -1.3657  0.1383  1.2619
25562SOL     OW79127   5.005   8.869   4.387  0.0217 -0.0289  0.3005
25562SOL    HW179128   4.960   8.951   4.366  0.0195 -0.0239  0.3267
25562SOL    HW279129   5.091   8.878   4.348 -0.5150 -0.6636 -1.0789
25563SOL     OW79130   0.216   8.633   5.373 -0.0068  0.5020  0.3255
25563SOL    HW179131   0.125   8.624   5.345  0.7413 -0.8649 -1.9740
25563SOL    HW279132   0.238   8.725   5.354 -0.8256  0.7807  0.6942
25564SOL     OW79133   1.179   3.315   2.323 -0.4868 -0.5128 -0.3116
25564SOL    HW179134   1.134   3.398   2.339  0.6023 -0.0174  0.3639
25564SOL    HW279135   1.113   3.248   2.338 -1.0179  0.1940  0.5857
25565SOL     OW79136  10.297   4.545   4.370 -0.3013  1.1826 -0.0420
25565SOL    HW179137  10.369   4.507   4.320 -0.5723 -1.0963  1.1980
25565SOL    HW279138  10.338   4.612   4.424  0.8100  0.3433  0.1934
25566SOL     OW79139   1.739   4.996   8.985 -0.0453  0.1688  0.0336
25566SOL    HW179140   1.695   4.955   8.910 -0.4320  0.4953  0.0789
25566SOL    HW279141   1.679   5.064   9.014  0.0307 -0.0562  0.7422
25567SOL     OW79142   8.391   1.752  10.262  0.0931  0.3089  0.0469
25567SOL    HW179143   8.300   1.736  10.239 -0.2264  1.7748  0.1936
25567SOL    HW279144   8.441   1.720  10.186 -0.4883 -1.0323  0.2143
25568SOL     OW79145   2.398   2.922   5.389 -0.0371  0.2781 -0.4739
25568SOL    HW179146   2.475   2.883   5.349  0.3640  1.4168 -0.8623
25568SOL    HW279147   2.326   2.905   5.328 -0.0246 -0.4589 -0.2895
25569SOL     OW79148  10.274   7.119   2.879 -0.3947  0.0849 -0.3667
25569SOL    HW179149  10.297   7.192   2.936 -0.2343 -1.6303  1.9093
25569SOL    HW279150  10.354   7.101   2.830 -0.4477  1.4101 -0.9672
25570SOL     OW79151   6.072   7.105   9.054  0.0105  0.7000  0.2909
25570SOL    HW179152   5.979   7.084   9.040  0.3613 -1.4922  0.8176
25570SOL    HW279153   6.072   7.167   9.127 -1.0913  2.0455 -0.7879
25571SOL     OW79154   3.662   4.076   5.643 -0.1414 -0.2800  0.2861
25571SOL    HW179155   3.744   4.095   5.599 -0.3186  0.4424  0.2604
25571SOL    HW279156   3.682   4.001   5.700  0.3014 -0.6634 -0.3691
25572SOL     OW79157   0.365   5.606   0.463 -0.4003  0.4266 -0.2557
25572SOL    HW179158   0.300   5.673   0.442  2.5335  3.7879  0.3589
25572SOL    HW279159   0.370   5.607   0.559 -0.2606 -0.6641 -0.2391
25573SOL     OW79160   5.430   6.705   8.357  0.1074 -0.2618 -0.0915
25573SOL    HW179161   5.434   6.763   8.282  1.0608 -2.3028 -1.7320
25573SOL    HW279162   5.422   6.617   8.319 -1.5445 -1.2451  2.2398
25574SOL     OW79163   2.052   7.075   7.064 -0.2170  1.0384  0.4793
25574SOL    HW179164   2.130   7.123   7.091  1.2337 -1.2341  0.6052
25574SOL    HW279165   1.999   7.140   7.018  1.5183  2.7896  0.8116
25575SOL     OW79166   9.933   4.727   6.209  0.2657 -0.4747 -0.1092
25575SOL    HW179167   9.958   4.643   6.246 -0.7776 -0.0309  1.7368
25575SOL    HW279168   9.923   4.785   6.285  1.5783  1.5177 -1.3644
25576SOL     OW79169  10.082   0.969   8.508  0.1051  0.0207  0.1936
25576SOL    HW179170  10.054   1.007   8.425  0.6456  2.0067  0.8793
25576SOL    HW279171  10.177   0.970   8.505  0.1335 -0.0259  0.7862
25577SOL     OW79172   4.201   1.659   7.246 -0.0631  0.2515 -0.6015
25577SOL    HW179173   4.194   1.643   7.152 -1.2354  0.7919 -0.6319
25577SOL    HW279174   4.117   1.700   7.269  0.7871  1.5205  0.3971
25578SOL     OW79175   3.428   7.579   2.340 -0.2679  0.0539  0.0943
25578SOL    HW179176   3.518   7.611   2.345  0.7714 -2.3674 -1.3521
25578SOL    HW279177   3.381   7.647   2.291  1.4132  0.2000 -1.4358
25579SOL     OW79178   5.559  10.482   3.250  0.2463 -0.3515  0.2928
25579SOL    HW179179   5.611  10.413   3.291  0.9880 -1.6149 -2.4951
25579SOL    HW279180   5.507  10.436   3.184 -1.0429  1.4858 -0.0407
25580SOL     OW79181   6.998   6.610   9.773 -0.1947  0.9105  0.4443
25580SOL    HW179182   7.021   6.525   9.810 -0.6354  0.8709  0.6373
25580SOL    HW279183   6.907   6.600   9.746  0.0220  1.0384 -0.3652
25581SOL     OW79184   8.079   6.983   0.525 -0.3257  0.6705  0.6253
25581SOL    HW179185   8.116   7.023   0.446 -1.1331 -0.5070 -0.3961
25581SOL    HW279186   8.091   6.889   0.512 -1.6929  0.3836  1.2572
25582SOL     OW79187  10.280   4.919   7.035 -0.2795  0.3310  0.0270
25582SOL    HW179188  10.326   4.838   7.013 -0.9793 -0.0651 -0.0092
25582SOL    HW279189  10.257   4.909   7.128  0.3820  0.8689  0.2601
25583SOL     OW79190   9.216   4.647   0.375 -0.1607  0.4737  0.2485
25583SOL    HW179191   9.180   4.675   0.291  1.0677  0.5834 -0.2620
25583SOL    HW279192   9.297   4.698   0.385  0.3856 -0.4740  0.8758
25584SOL     OW79193   7.144   3.652   0.172  0.3874 -0.3790 -0.0684
25584SOL    HW179194   7.157   3.659   0.077  0.4584 -1.8327 -0.1913
25584SOL    HW279195   7.206   3.715   0.209 -0.1280  0.7011 -0.9985
25585SOL     OW79196  10.276   9.479  10.208  0.1810  0.0229  0.4090
25585SOL    HW179197  10.204   9.507  10.151 -0.7378  0.9163  1.9134
25585SOL    HW279198  10.308   9.398  10.169  1.5601  1.9841 -3.0069
25586SOL     OW79199   1.631   7.150   6.316  0.0327  0.6856  0.3792
25586SOL    HW179200   1.620   7.193   6.401  0.1947  0.1320  0.6842
25586SOL    HW279201   1.703   7.198   6.274  1.7717 -0.6921  1.6543
25587SOL     OW79202   0.343   1.036   2.896 -0.3869  0.1410 -0.0555
25587SOL    HW179203   0.435   1.058   2.886 -0.6840  1.0579 -0.9208
25587SOL    HW279204   0.312   1.093   2.967 -0.1402 -0.6819  0.7383
25588SOL     OW79205   5.374   8.534   5.796 -0.9653 -0.0163 -0.8346
25588SOL    HW179206   5.325   8.612   5.768 -2.7696 -1.5906 -2.3289
25588SOL    HW279207   5.439   8.521   5.727 -0.1169  0.5903 -0.1694
25589SOL     OW79208   3.378   2.413   8.767  0.2217 -0.6553  0.1376
25589SOL    HW179209   3.423   2.428   8.684  0.3966 -0.5301  0.2543
25589SOL    HW279210   3.294   2.457   8.757  0.1042 -0.9272 -0.0979
25590SOL     OW79211   7.473   5.217   7.595 -0.0845  0.4913 -0.0126
25590SOL    HW179212   7.378   5.209   7.595 -0.0181 -0.4297  0.7360
25590SOL    HW279213   7.490   5.308   7.619 -0.7725  0.7529 -0.4999
25591SOL     OW79214   9.763   9.536   0.014 -0.2048  0.5503  0.0077
25591SOL    HW179215   9.752   9.618  -0.034 -1.3232 -0.1406 -0.9611
25591SOL    HW279216   9.833   9.490  -0.031  0.7477  1.1443  0.8343
25592SOL     OW79217   1.892   7.490   0.961  0.2545 -0.2555  0.0057
25592SOL    HW179218   1.892   7.583   0.939 -1.8368 -0.4360 -0.9902
25592SOL    HW279219   1.821   7.453   0.908  1.6803 -2.6190 -0.3786
25593SOL     OW79220   4.599   0.669   1.983  0.4167 -0.1210 -0.0163
25593SOL    HW179221   4.582   0.755   1.944 -0.1804 -0.0095  0.4778
25593SOL    HW279222   4.674   0.683   2.040  1.1711 -0.2388 -0.9547
25594SOL     OW79223   8.668   8.601   6.582 -0.3258  0.0704  0.4677
25594SOL    HW179224   8.658   8.583   6.676  0.6623 -2.1639  0.2068
25594SOL    HW279225   8.669   8.696   6.576 -2.5130  0.3181  2.4653
25595SOL     OW79226   7.306   8.417   0.005  0.1690 -0.3345  0.1895
25595SOL    HW179227   7.385   8.374   0.038 -1.5266 -1.1913  3.5627
25595SOL    HW279228   7.235   8.356   0.024 -1.5053  0.8803 -1.6890
25596SOL     OW79229   1.081   8.955   9.862  0.0262 -0.3063  0.0203
25596SOL    HW179230   1.026   8.884   9.828  0.3748 -1.3322  1.4800
25596SOL    HW279231   1.096   9.012   9.786 -0.7448 -1.4765 -1.0635
25597SOL     OW79232   8.760  10.302   8.526  0.5639 -0.1035  0.5810
25597SOL    HW179233   8.666  10.309   8.543  0.4124  1.7960 -0.7711
25597SOL    HW279234   8.767  10.236   8.457 -0.1183  1.8693 -1.4550
25598SOL     OW79235  10.325   8.228   0.196 -0.1906  0.7594 -0.2438
25598SOL    HW179236  10.414   8.196   0.209 -0.6714 -0.8197 -0.6751
25598SOL    HW279237  10.318   8.243   0.101  0.3152  3.1703  0.0203
25599SOL     OW79238  10.069   2.584   2.254  0.1091  0.0811  0.4036
25599SOL    HW179239   9.973   2.583   2.260  0.1856 -0.0176  1.9960
25599SOL    HW279240  10.088   2.653   2.191 -1.0128 -0.0338 -0.0927
25600SOL     OW79241   4.159   2.808   1.461 -0.0983 -0.4076 -0.2898
25600SOL    HW179242   4.179   2.829   1.370  0.8828 -1.6139 -0.3936
25600SOL    HW279243   4.070   2.773   1.459 -0.3830  0.3212 -0.6477
25601SOL     OW79244   7.838   9.412   7.872 -0.1608  0.4541 -0.3371
25601SOL    HW179245   7.861   9.324   7.843  0.4523  0.2151  0.8437
25601SOL    HW279246   7.805   9.401   7.961  0.1815  1.4436 -0.0686
25602SOL     OW79247   1.349   5.593   2.012  0.3264 -0.0151 -0.1553
25602SOL    HW179248   1.258   5.583   1.982  0.8248  0.6569 -2.0061
25602SOL    HW279249   1.355   5.535   2.088 -0.6416 -3.1040 -2.2225
25603SOL     OW79250   8.041   4.977   3.369 -0.8529 -0.7666 -0.2567
25603SOL    HW179251   7.992   5.058   3.380 -1.2829 -1.0654  0.0261
25603SOL    HW279252   8.016   4.946   3.282  1.1617  0.6469 -1.4502
25604SOL     OW79253   0.733   9.630   6.926  0.2840  0.1742  0.3576
25604SOL    HW179254   0.663   9.571   6.898  0.8825  0.3792 -1.8117
25604SOL    HW279255   0.797   9.572   6.968  0.2868 -0.5491 -0.6013
25605SOL     OW79256   3.569   4.850   4.343 -0.3373  0.2344  0.2514
25605SOL    HW179257   3.588   4.758   4.362 -0.6937  0.1363  0.1324
25605SOL    HW279258   3.621   4.899   4.407  1.6910  0.0156 -1.1521
25606SOL     OW79259   7.007   1.942   3.693 -0.1324 -0.2665 -0.3412
25606SOL    HW179260   7.005   2.004   3.620 -3.3500  1.9569  1.3610
25606SOL    HW279261   6.915   1.930   3.716  0.6205 -2.9227  1.7639
25607SOL     OW79262   2.154   1.908   8.041 -0.1802  0.2285 -0.0587
25607SOL    HW179263   2.081   1.947   7.993 -0.4164 -0.3058 -0.1453
25607SOL    HW279264   2.198   1.982   8.083 -0.3810  0.6265 -0.5420
25608SOL     OW79265   2.005   9.905   5.117  0.1756 -0.2987  0.6926
25608SOL    HW179266   2.028   9.902   5.210  0.5073  1.2748  0.6911
25608SOL    HW279267   2.076   9.954   5.076 -1.4154  1.6721  0.1174
25609SOL     OW79268   6.199   3.884   4.591  0.0193 -0.3778  0.4629
25609SOL    HW179269   6.234   3.795   4.589 -0.0140 -0.3925  0.5200
25609SOL    HW279270   6.105   3.872   4.607 -0.2964 -0.4178 -1.2283
25610SOL     OW79271   7.361   4.495   7.905 -0.6195 -0.7908  0.3506
25610SOL    HW179272   7.331   4.579   7.871  2.2578  0.1976 -0.0077
25610SOL    HW279273   7.367   4.439   7.828 -0.9602 -0.8134  0.3389
25611SOL     OW79274   1.542   0.653   3.574  0.1428  0.2102  0.1311
25611SOL    HW179275   1.520   0.574   3.623 -0.8236 -0.3191 -1.1126
25611SOL    HW279276   1.619   0.688   3.619 -0.1765 -0.7192  1.4835
25612SOL     OW79277   0.209   8.626   0.509 -0.0198 -0.5280 -0.1190
25612SOL    HW179278   0.271   8.555   0.495  0.7841  0.3815 -1.4568
25612SOL    HW279279   0.256   8.688   0.566  0.0768 -0.1370 -0.6132
25613SOL     OW79280   9.349   3.045   9.018 -0.2676  0.4072 -0.4192
25613SOL    HW179281   9.357   3.093   9.100  1.5196 -1.8477  0.8518
25613SOL    HW279282   9.425   3.072   8.967 -0.0229  0.0005 -0.2775
25614SOL     OW79283   8.327   5.359  10.311 -0.2482  0.1989 -0.1565
25614SOL    HW179284   8.366   5.276  10.336  0.2320  0.7281  0.9213
25614SOL    HW279285   8.276   5.339  10.233  2.0248 -0.5438 -1.5336
25615SOL     OW79286   7.924   2.753   8.900 -0.1013 -0.0472 -0.3640
25615SOL    HW179287   7.949   2.781   8.812 -0.5228  0.1931 -0.4087
25615SOL    HW279288   7.830   2.735   8.895  0.0592 -1.0176 -0.2146
25616SOL     OW79289   7.456   8.964   6.548 -0.5990 -0.3132  0.3744
25616SOL    HW179290   7.401   8.972   6.626 -0.7695 -1.0980  0.3502
25616SOL    HW279291   7.395   8.977   6.475 -0.4198  0.5250  0.3689
25617SOL     OW79292   1.521   0.215   1.228 -0.3406 -0.2928  0.2552
25617SOL    HW179293   1.537   0.302   1.190 -0.8449  0.2444  1.2233
25617SOL    HW279294   1.426   0.213   1.244 -0.0990 -0.3036  1.8859
25618SOL     OW79295   7.327   6.338   1.897 -0.2473 -0.0883 -0.1884
25618SOL    HW179296   7.267   6.305   1.831  0.3213  1.0839 -1.3516
25618SOL    HW279297   7.351   6.425   1.865  1.7495 -0.3653  0.4338
25619SOL     OW79298   0.868   7.478   7.367 -0.2248  0.0948 -0.0395
25619SOL    HW179299   0.798   7.416   7.390  0.0576 -0.4550 -0.6379
25619SOL    HW279300   0.845   7.558   7.414 -0.8875 -0.2932  0.3181
25620SOL     OW79301   7.113   1.492   0.224  0.2651  0.2864  0.5011
25620SOL    HW179302   7.076   1.493   0.312 -0.8761  1.0163  0.0273
25620SOL    HW279303   7.117   1.399   0.201 -0.2392  0.1386  0.9948
25621SOL     OW79304   9.093   0.866   2.559 -0.1885  0.2888  0.4040
25621SOL    HW179305   9.045   0.949   2.565  0.6379  0.8940 -1.0162
25621SOL    HW279306   9.164   0.875   2.623 -1.1472 -0.0878  1.5668
25622SOL     OW79307   2.313   7.343   4.571  0.1247  0.2297  0.3283
25622SOL    HW179308   2.307   7.251   4.594  0.3404 -0.3122 -1.5865
25622SOL    HW279309   2.222   7.369   4.554  0.1860 -0.0456 -0.4948
25623SOL     OW79310   9.318   7.176   3.898 -0.3250 -0.3616  0.2249
25623SOL    HW179311   9.240   7.198   3.948 -0.8610  0.3480 -0.8696
25623SOL    HW279312   9.287   7.118   3.829 -0.2960  1.4279 -1.3848
25624SOL     OW79313   1.834   4.270   4.444  0.4108 -0.0941 -0.2625
25624SOL    HW179314   1.770   4.221   4.496  0.1319  0.2213 -0.3057
25624SOL    HW279315   1.861   4.208   4.376 -0.3324 -0.0211 -0.6318
25625SOL     OW79316   9.162   7.610   8.116  0.5163  0.1623 -0.0632
25625SOL    HW179317   9.144   7.562   8.197  0.0044 -0.8939 -0.7684
25625SOL    HW279318   9.247   7.576   8.087  1.2505  1.3766  0.6036
25626SOL     OW79319   8.600   8.383   7.251 -0.1300  0.0563  0.0356
25626SOL    HW179320   8.532   8.420   7.307 -0.8139 -0.8466 -0.1755
25626SOL    HW279321   8.552   8.344   7.178  0.6347 -0.3594 -0.2513
25627SOL     OW79322   4.168   0.511   7.331 -0.2672  0.3172  0.0857
25627SOL    HW179323   4.154   0.552   7.416  1.6155 -0.8539  1.0381
25627SOL    HW279324   4.127   0.425   7.339  0.2716  0.0446 -0.0332
25628SOL     OW79325   8.239   8.197   1.708  0.0380 -0.4070  0.7105
25628SOL    HW179326   8.188   8.240   1.777  0.2189 -1.6053  1.6341
25628SOL    HW279327   8.182   8.199   1.631 -0.7744 -0.3260  1.2961
25629SOL     OW79328   2.140   0.756   8.515 -1.3035  0.1315 -0.0078
25629SOL    HW179329   2.128   0.772   8.421 -0.2982  1.1199  0.0080
25629SOL    HW279330   2.224   0.711   8.521 -0.0012  2.4874  0.5786
25630SOL     OW79331   8.207   5.000   5.588  0.2169 -0.1036 -0.3677
25630SOL    HW179332   8.115   5.025   5.591 -0.3139 -1.9524  0.6015
25630SOL    HW279333   8.244   5.051   5.516 -1.8525 -0.2726 -1.6309
25631SOL     OW79334   1.211   2.319   7.094 -0.1352 -0.1551 -0.2409
25631SOL    HW179335   1.265   2.302   7.017 -2.4313  1.0729 -2.2536
25631SOL    HW279336   1.162   2.239   7.107 -0.3765 -0.0706 -0.6153
25632SOL     OW79337   3.697   9.293   1.279 -0.2583  0.3166 -0.5718
25632SOL    HW179338   3.628   9.249   1.230 -0.2844  1.0779 -1.2335
25632SOL    HW279339   3.718   9.232   1.350 -2.1765  0.4061  0.1487
25633SOL     OW79340   7.951   9.285   9.169 -0.1677 -0.5288  0.2082
25633SOL    HW179341   7.912   9.333   9.242 -1.6070  0.5669 -1.2042
25633SOL    HW279342   7.904   9.202   9.167  0.1859 -0.7502  0.7704
25634SOL     OW79343   2.881   7.800   5.381  0.1012 -0.2070  0.0199
25634SOL    HW179344   2.907   7.828   5.293 -0.2483 -3.1988 -1.1291
25634SOL    HW279345   2.931   7.720   5.397 -2.2685 -1.5566  1.1591
25635SOL     OW79346   9.070   6.029   1.510 -0.8209  0.1761  0.2035
25635SOL    HW179347   9.151   6.021   1.460  0.0188  1.3572  1.3022
25635SOL    HW279348   9.028   6.108   1.476 -1.1818 -0.0564  0.1003
25636SOL     OW79349   6.364   6.701   4.623 -0.5355 -1.1826  0.5337
25636SOL    HW179350   6.351   6.671   4.533  0.1448 -0.3823  0.1544
25636SOL    HW279351   6.275   6.712   4.657 -0.9484  1.2771 -1.0138
25637SOL     OW79352   8.027   1.509   3.305 -0.2070  0.1728  0.4617
25637SOL    HW179353   8.018   1.503   3.210 -0.9183 -0.4117  0.5549
25637SOL    HW279354   8.073   1.591   3.320 -1.4985  1.0898 -0.3199
25638SOL     OW79355   2.745   9.785   4.525 -0.2446  0.3568 -0.1526
25638SOL    HW179356   2.719   9.877   4.528 -1.0952  0.1249  0.3084
25638SOL    HW279357   2.797   9.772   4.605  0.0607  0.4903 -0.3311
25639SOL     OW79358   1.038   6.541   4.606  0.2539 -0.0649 -0.0848
25639SOL    HW179359   0.971   6.513   4.668  0.0325  0.7663  0.0615
25639SOL    HW279360   1.120   6.508   4.642  0.3389  1.6959  1.4930
25640SOL     OW79361   3.954   5.058   2.474  0.0106  0.1021 -0.2551
25640SOL    HW179362   3.987   5.146   2.458 -0.1049 -0.0824 -1.6188
25640SOL    HW279363   3.878   5.049   2.417  0.8751 -1.3678 -1.2485
25641SOL     OW79364   2.469   4.377   5.765 -0.0513  0.1959  0.2464
25641SOL    HW179365   2.442   4.309   5.703  1.4713 -0.3009  0.0912
25641SOL    HW279366   2.457   4.459   5.718 -0.6592 -0.0435 -0.0334
25642SOL     OW79367   8.841   3.905   1.707  0.2606  0.1211  0.6548
25642SOL    HW179368   8.913   3.969   1.705 -0.1576  0.5670 -0.3709
25642SOL    HW279369   8.807   3.912   1.796  0.8056  0.6742  0.8314
25643SOL     OW79370   0.913  10.064   7.864  0.3640 -0.3147 -0.1709
25643SOL    HW179371   0.841  10.035   7.920 -0.8284  0.2668 -1.3628
25643SOL    HW279372   0.881  10.051   7.775  1.4232  0.7316 -0.7246
25644SOL     OW79373   7.621   3.369   2.333 -0.0568  0.4164  0.0226
25644SOL    HW179374   7.556   3.386   2.265  0.3834  1.9723 -0.0357
25644SOL    HW279375   7.593   3.422   2.407 -0.1091 -0.6850  0.8270
25645SOL     OW79376   6.621   5.457   4.463 -0.0293 -0.3871 -0.2888
25645SOL    HW179377   6.701   5.479   4.415  0.3708 -1.0259  0.0800
25645SOL    HW279378   6.586   5.542   4.491  1.6259 -0.1735  1.3116
25646SOL     OW79379   2.554   5.792   7.296  0.3409  0.3521  0.2844
25646SOL    HW179380   2.533   5.731   7.367 -0.1879  0.7990  0.5149
25646SOL    HW279381   2.646   5.774   7.276  0.7611  0.8378  1.6902
25647SOL     OW79382   4.180   1.632   9.426  0.6017 -0.4065  0.7047
25647SOL    HW179383   4.224   1.643   9.511 -0.1273  0.7812  0.9448
25647SOL    HW279384   4.097   1.679   9.436  0.6008 -0.0719 -0.7374
25648SOL     OW79385   7.611   2.221   9.296  0.4586 -0.8549 -0.0539
25648SOL    HW179386   7.595   2.213   9.202  0.7140 -1.2291 -0.0666
25648SOL    HW279387   7.580   2.139   9.333 -2.6363  0.4957  0.6242
25649SOL     OW79388   3.649   2.306   0.837  0.4219  0.1475  0.5983
25649SOL    HW179389   3.557   2.324   0.820  0.1838  0.1090  1.8108
25649SOL    HW279390   3.696   2.356   0.769 -0.4549  0.7078  0.3891
25650SOL     OW79391  10.053   0.032   1.180 -0.5405 -0.1209 -0.2107
25650SOL    HW179392  10.120   0.079   1.130 -1.6234  0.5922 -1.0302
25650SOL    HW279393  10.026  -0.040   1.123 -0.6112 -0.3040  0.0492
25651SOL     OW79394  10.349   5.832   2.058 -0.3501  0.0147 -0.0731
25651SOL    HW179395  10.290   5.802   1.988 -0.4383 -2.6215  1.0175
25651SOL    HW279396  10.292   5.840   2.135  0.2733 -0.0145  0.3979
25652SOL     OW79397   5.218  10.377  10.147 -0.3330 -0.2098  0.1595
25652SOL    HW179398   5.297  10.369  10.094 -0.1969  4.0808 -0.6424
25652SOL    HW279399   5.250  10.399  10.235 -0.6535 -0.9401  0.4720
25653SOL     OW79400   2.935   7.755   2.338 -0.2677 -0.1282  0.1260
25653SOL    HW179401   2.849   7.789   2.312 -2.4088 -3.0293  2.5917
25653SOL    HW279402   2.976   7.729   2.256 -2.0844  0.6910 -1.1029
25654SOL     OW79403   3.860   5.517   7.457  0.5097 -0.8793  0.6397
25654SOL    HW179404   3.897   5.589   7.405  0.0949  0.0010  1.5217
25654SOL    HW279405   3.892   5.438   7.414 -0.2988 -0.2108 -1.3233
25655SOL     OW79406   1.802   2.584   2.860 -0.3991  0.2418 -0.5058
25655SOL    HW179407   1.844   2.498   2.854 -0.4025  0.1588  0.5179
25655SOL    HW279408   1.837   2.633   2.786 -0.4927 -0.6761 -1.1891
25656SOL     OW79409   7.788   4.458   6.113  0.9957  0.0840 -0.1451
25656SOL    HW179410   7.782   4.414   6.198 -0.6650  1.2081  0.3711
25656SOL    HW279411   7.751   4.396   6.051  1.8860 -0.6012 -0.0119
25657SOL     OW79412   8.905   9.586   7.741 -0.0486 -0.1177 -0.0036
25657SOL    HW179413   8.973   9.650   7.758 -0.5181  0.5690 -0.6089
25657SOL    HW279414   8.837   9.635   7.694 -0.8761 -0.8212  0.4249
25658SOL     OW79415   9.176   1.176   8.644  0.1021 -0.3427  0.1074
25658SOL    HW179416   9.163   1.219   8.729  1.0394 -2.2750  1.2877
25658SOL    HW279417   9.223   1.095   8.665  0.1815 -0.9700 -2.2492
25659SOL     OW79418   0.270   2.059   9.724  0.1733 -0.0256 -0.5426
25659SOL    HW179419   0.309   2.138   9.760 -1.9769  0.8507 -0.0101
25659SOL    HW279420   0.337   2.024   9.665  1.0020  2.4498 -1.1891
25660SOL     OW79421   4.043   0.288   1.479 -0.2041  0.0539  0.6413
25660SOL    HW179422   3.981   0.336   1.423  1.4897  0.6759 -0.8012
25660SOL    HW279423   4.041   0.199   1.444  2.1589  0.8085 -1.7835
25661SOL     OW79424   8.510   0.875   4.051  0.1631 -1.0157  0.7000
25661SOL    HW179425   8.414   0.872   4.051  0.1350 -0.3373  0.6918
25661SOL    HW279426   8.532   0.953   4.000  0.7534 -1.7271 -0.1718
25662SOL     OW79427   0.962   5.706   6.811  0.0973 -0.2448 -0.3781
25662SOL    HW179428   0.935   5.682   6.722 -0.9102  2.2793 -0.8375
25662SOL    HW279429   0.881   5.714   6.860  0.5305  0.1558  0.2921
25663SOL     OW79430   2.947   4.534   2.821 -0.0457  0.7866 -0.1165
25663SOL    HW179431   2.872   4.510   2.766 -0.1374  0.1016  0.2951
25663SOL    HW279432   2.987   4.450   2.845 -0.0456  1.0686  0.9149
25664SOL     OW79433   8.063   8.004   4.756 -0.6795 -0.3864  0.5406
25664SOL    HW179434   8.120   7.934   4.725 -0.3499 -0.0068  0.2800
25664SOL    HW279435   8.107   8.040   4.833 -1.5920 -1.4528  1.5980
25665SOL     OW79436   7.163   1.012   2.620 -0.1801  0.7841  0.7147
25665SOL    HW179437   7.172   1.075   2.548 -1.6993  2.6160  2.0068
25665SOL    HW279438   7.229   1.039   2.684  0.7396 -0.4369  0.2991
25666SOL     OW79439   2.313   4.260   7.698 -0.2412  0.2751  0.7064
25666SOL    HW179440   2.326   4.217   7.614  0.8236  2.0852 -0.1238
25666SOL    HW279441   2.221   4.285   7.699 -0.3828 -0.2191  0.3190
25667SOL     OW79442   5.575   5.507   1.405  0.4122  0.5094  0.7260
25667SOL    HW179443   5.557   5.570   1.335  0.7055  0.8526  0.9514
25667SOL    HW279444   5.490   5.491   1.446 -0.1859 -1.4129 -1.0960
25668SOL     OW79445   0.325   7.149   5.176 -0.2393  0.3140 -0.2743
25668SOL    HW179446   0.305   7.214   5.244 -2.6114 -2.3273  1.7960
25668SOL    HW279447   0.239   7.121   5.145  0.7669  0.4674 -3.5730
25669SOL     OW79448   0.783   5.760   7.433 -0.1044 -0.2945  0.3459
25669SOL    HW179449   0.698   5.804   7.432 -0.3054 -0.6644  0.7551
25669SOL    HW279450   0.842   5.825   7.471 -0.5665 -0.6486  1.7197
25670SOL     OW79451   3.210   1.842   6.773 -0.1877 -0.6737  0.1509
25670SOL    HW179452   3.212   1.937   6.783  0.7541 -0.7247  0.5902
25670SOL    HW279453   3.118   1.821   6.756 -0.2585  0.3991 -0.8657
25671SOL     OW79454   9.584   6.302   3.163 -0.1646  0.5120  0.1003
25671SOL    HW179455   9.563   6.323   3.254 -2.2144 -0.8887  0.0210
25671SOL    HW279456   9.601   6.207   3.163  4.4993  1.0949 -0.2673
25672SOL     OW79457   3.710   1.919  10.079  0.0282 -0.0501  0.4420
25672SOL    HW179458   3.779   1.858  10.054 -0.0312  0.1660 -0.2545
25672SOL    HW279459   3.685   1.892  10.168  1.9909  0.7376  1.3102
25673SOL     OW79460   2.172   8.340   6.537  0.4176 -0.0654  0.4494
25673SOL    HW179461   2.112   8.268   6.517  1.2126 -0.4608 -0.6026
25673SOL    HW279462   2.170   8.396   6.459  0.6550  0.4557  0.8102
25674SOL     OW79463   5.972   6.380   3.306 -0.1519  0.4127 -0.6807
25674SOL    HW179464   6.011   6.329   3.378  1.0070  0.3948 -1.2964
25674SOL    HW279465   5.963   6.468   3.342 -0.6263  0.1561 -0.1518
25675SOL     OW79466   0.968   4.387   4.506  0.4970  0.2690  0.0392
25675SOL    HW179467   0.909   4.364   4.578 -0.1616 -0.8649 -0.8268
25675SOL    HW279468   0.994   4.303   4.469  1.0113  0.8296 -0.8958
25676SOL     OW79469   8.519   8.059   7.312 -0.3832  0.6087 -0.0517
25676SOL    HW179470   8.525   8.154   7.319 -1.4600  0.6269  1.0400
25676SOL    HW279471   8.587   8.026   7.371 -1.1175  0.7241  0.8796
25677SOL     OW79472   3.480  10.159   6.367 -0.2638 -0.0280  0.0796
25677SOL    HW179473   3.518  10.210   6.438 -0.1474  0.5739 -0.3985
25677SOL    HW279474   3.511  10.070   6.381 -0.2829  0.0777  0.8018
25678SOL     OW79475   0.316   1.946   9.421 -0.0949  0.9919  0.0168
25678SOL    HW179476   0.332   2.027   9.372 -0.0969  1.3519  0.6008
25678SOL    HW279477   0.277   1.886   9.357 -1.4507  1.9340 -0.0856
25679SOL     OW79478   8.513   7.264   7.454  0.4986  0.2918 -0.2454
25679SOL    HW179479   8.462   7.317   7.393 -1.1988 -0.9202  0.0279
25679SOL    HW279480   8.447   7.224   7.511  1.7109 -1.6253 -0.0921
25680SOL     OW79481   7.358   5.053   7.914  0.1313 -0.3322  0.1183
25680SOL    HW179482   7.302   5.131   7.910 -0.8522 -1.0319  0.0211
25680SOL    HW279483   7.419   5.071   7.986 -1.2024 -0.2047  1.2387
25681SOL     OW79484  10.418   4.292   0.160 -0.3012  0.4759  0.5808
25681SOL    HW179485  10.358   4.235   0.111 -0.3672  0.1806  0.9997
25681SOL    HW279486  10.505   4.265   0.132 -0.2013 -1.5226  2.5326
25682SOL     OW79487   5.530   6.287  10.441 -0.6684  0.1596  0.0532
25682SOL    HW179488   5.520   6.315  10.532 -1.8901  2.1120 -0.6170
25682SOL    HW279489   5.515   6.366  10.390 -0.8685 -1.0668 -1.8850
25683SOL     OW79490   0.490   1.807   3.496 -0.5687  0.2860 -0.3494
25683SOL    HW179491   0.502   1.721   3.535 -0.2993 -0.2958 -1.6625
25683SOL    HW279492   0.448   1.790   3.412 -2.9712  1.6549  0.4752
25684SOL     OW79493   7.851   5.148   8.450 -0.1128  0.0914  0.2637
25684SOL    HW179494   7.834   5.229   8.402 -1.0598 -0.0631  0.3117
25684SOL    HW279495   7.781   5.145   8.516  0.0880 -0.6223  0.4482
25685SOL     OW79496   6.809   4.613   9.905  0.1356 -0.2965  0.3257
25685SOL    HW179497   6.848   4.601   9.818  2.0446  2.1622  0.7108
25685SOL    HW279498   6.820   4.707   9.923  0.4581 -0.8317  3.4995
25686SOL     OW79499   9.680   2.078   6.057  0.1590 -0.7317  0.1899
25686SOL    HW179500   9.618   2.008   6.077 -0.3541 -0.6783 -1.1023
25686SOL    HW279501   9.637   2.128   5.987  2.3413 -1.7391 -2.0342
25687SOL     OW79502   9.171   6.785   8.997  0.2412  0.4684  0.3740
25687SOL    HW179503   9.108   6.816   9.061 -0.8767 -2.2743  0.7342
25687SOL    HW279504   9.256   6.816   9.029 -0.6412  2.1201  1.2104
25688SOL     OW79505   1.056   1.016   3.612  0.1601  0.2883 -0.0612
25688SOL    HW179506   1.062   0.979   3.700  0.7871 -1.7762 -0.9058
25688SOL    HW279507   1.147   1.031   3.586  0.0619 -0.3463 -0.8171
25689SOL     OW79508   9.639   7.264   0.629 -0.1672 -0.0108 -0.7028
25689SOL    HW179509   9.593   7.326   0.572  0.2161  0.0365 -0.9640
25689SOL    HW279510   9.573   7.238   0.694 -0.2660  0.8505 -0.4411
25690SOL     OW79511   5.563   1.710   7.877 -0.7544 -0.2899 -0.0256
25690SOL    HW179512   5.512   1.699   7.958 -0.4205  0.6930  0.3441
25690SOL    HW279513   5.523   1.650   7.815 -0.9689 -1.1275  0.8971
25691SOL     OW79514   4.017   5.407  10.124  0.5052 -0.7697  0.5343
25691SOL    HW179515   4.000   5.462  10.200 -0.1895 -1.4166  0.8595
25691SOL    HW279516   3.939   5.352  10.116 -0.9605  1.4718 -2.6123
25692SOL     OW79517   7.065   9.308  10.368 -0.4133 -0.0684  0.0591
25692SOL    HW179518   7.067   9.391  10.416 -1.3993 -0.8200  1.4755
25692SOL    HW279519   7.022   9.330  10.285  0.3347  1.0467 -0.0555
25693SOL     OW79520   2.417   2.548   1.212 -0.2346  0.1146  0.2278
25693SOL    HW179521   2.466   2.596   1.144 -0.0609  0.2771  0.4656
25693SOL    HW279522   2.356   2.612   1.247 -1.4080 -0.3693 -0.8155
25694SOL     OW79523   7.139   2.622   1.759  0.0401 -0.3822  0.2880
25694SOL    HW179524   7.223   2.647   1.721  0.0062  0.3870  0.6950
25694SOL    HW279525   7.090   2.704   1.767  0.1097 -0.4757  2.1191
25695SOL     OW79526   6.558   0.509   7.620 -0.7413  0.0601 -0.0235
25695SOL    HW179527   6.529   0.596   7.646  0.6048  0.7204 -0.6455
25695SOL    HW279528   6.601   0.522   7.535  0.0084 -1.0964  0.1519
25696SOL     OW79529   9.741   8.215   6.749  0.0070 -0.3988  0.5517
25696SOL    HW179530   9.790   8.182   6.824 -1.2097 -1.0757  1.0806
25696SOL    HW279531   9.671   8.268   6.788  0.3827  0.6592 -0.1846
25697SOL     OW79532   7.619   5.126   4.126 -0.2710  0.3688 -0.5784
25697SOL    HW179533   7.686   5.072   4.083 -0.2922 -0.0631 -0.0738
25697SOL    HW279534   7.570   5.065   4.180 -0.9752  0.7161 -0.8098
25698SOL     OW79535   5.048   6.137   8.528 -0.3234  0.1649 -0.0276
25698SOL    HW179536   5.125   6.104   8.482 -1.1561 -1.1079 -0.5647
25698SOL    HW279537   5.046   6.088   8.611 -0.2660  0.5864  0.2291
25699SOL     OW79538   1.440   9.971   1.807 -0.1997 -0.0767 -0.2220
25699SOL    HW179539   1.514   9.911   1.805  0.0138 -0.0459  2.9632
25699SOL    HW279540   1.475  10.052   1.769  1.5941  0.0714  1.5737
25700SOL     OW79541   9.114   0.874   7.099 -0.2233 -0.6786  0.2710
25700SOL    HW179542   9.071   0.892   7.183  3.0848  1.1187  1.8034
25700SOL    HW279543   9.113   0.779   7.092 -0.7748 -0.8783  2.2957
25701SOL     OW79544   8.778   7.829   2.320 -0.0413  0.1364  0.1560
25701SOL    HW179545   8.703   7.864   2.367 -0.5595 -0.0778 -0.5041
25701SOL    HW279546   8.792   7.742   2.358  0.9097  0.7943  1.4168
25702SOL     OW79547   0.347   0.712   9.535 -0.3865  0.1652 -0.4016
25702SOL    HW179548   0.408   0.752   9.597 -0.0422 -1.4596  0.3328
25702SOL    HW279549   0.320   0.630   9.576 -0.8025 -0.5550 -2.0323
25703SOL     OW79550   5.346   8.887   9.372  0.0142  0.1626  0.2085
25703SOL    HW179551   5.338   8.876   9.277  0.9209 -1.5860  0.2973
25703SOL    HW279552   5.260   8.861   9.406 -0.5760  1.5359 -0.1377
25704SOL     OW79553   0.045   1.417   8.533  0.0475  0.7181  0.1442
25704SOL    HW179554   0.128   1.453   8.501  0.5481  0.5210  1.1786
25704SOL    HW279555   0.025   1.470   8.610  0.7315 -1.0757  1.6297
25705SOL     OW79556  10.154   4.330   3.513  0.1302 -0.0948  0.3936
25705SOL    HW179557  10.193   4.319   3.600  0.7792 -0.8971  0.0113
25705SOL    HW279558  10.205   4.400   3.472 -0.2723  0.3900  0.6962
25706SOL     OW79559   5.870   1.018  10.047  0.3923 -0.7714 -0.1072
25706SOL    HW179560   5.869   1.010  10.143  0.7624 -0.1924 -0.0500
25706SOL    HW279561   5.830   1.103  10.030  4.5620  1.4536 -0.1631
25707SOL     OW79562   4.373   7.280   7.664 -0.6045  0.3372 -0.3428
25707SOL    HW179563   4.321   7.264   7.743  1.7773  0.9641  1.4834
25707SOL    HW279564   4.431   7.204   7.658 -0.4505  0.5149 -1.2442
25708SOL     OW79565   8.369   1.498  10.104 -0.0618  0.1569  0.0107
25708SOL    HW179566   8.448   1.467  10.060  1.6644  2.2811  1.3876
25708SOL    HW279567   8.319   1.541  10.035  0.6850  0.0245 -0.6280
25709SOL     OW79568   4.953   7.998   2.828 -0.2884 -0.4161 -0.3308
25709SOL    HW179569   4.911   8.073   2.870 -1.5738 -1.1021 -0.3340
25709SOL    HW279570   4.904   7.922   2.859  1.7901 -1.4363  0.7077
25710SOL     OW79571  10.459   6.826   2.133 -0.2456 -0.6025  0.2558
25710SOL    HW179572  10.487   6.788   2.216 -2.0767  0.2618  1.3144
25710SOL    HW279573  10.410   6.904   2.157 -2.1213 -1.1406 -1.5426
25711SOL     OW79574   5.571   9.876   1.386  0.5069 -0.6058  0.3584
25711SOL    HW179575   5.617   9.795   1.407  1.8651 -0.0172 -0.2323
25711SOL    HW279576   5.626   9.945   1.423 -0.4433  0.0785  0.5359
25712SOL     OW79577   4.208  10.202   4.032 -0.1649  0.3216  0.5814
25712SOL    HW179578   4.242  10.258   3.963  2.2897 -0.7415  0.8264
25712SOL    HW279579   4.126  10.167   3.997 -0.1019  1.5218 -0.8470
25713SOL     OW79580   8.453   8.618   5.163  0.6492 -0.2287 -0.1480
25713SOL    HW179581   8.522   8.684   5.165  1.1212 -0.6820 -0.9030
25713SOL    HW279582   8.409   8.626   5.248  0.6187  1.1273 -0.2728
25714SOL     OW79583   2.201   3.610   8.949  0.2366 -0.0450  0.4572
25714SOL    HW179584   2.228   3.621   9.040 -0.4331  0.0448  0.6498
25714SOL    HW279585   2.114   3.649   8.944  0.6545  0.8172 -0.4509
25715SOL     OW79586   5.414   0.208   6.565 -0.3298  0.3347  0.3878
25715SOL    HW179587   5.349   0.148   6.601 -1.0334  1.1243  0.4797
25715SOL    HW279588   5.495   0.159   6.565 -0.6961 -0.3023  1.3397
25716SOL     OW79589   8.077   0.429   2.657 -0.4618 -0.0496  0.3532
25716SOL    HW179590   8.058   0.413   2.750 -1.5219  0.8770  0.3171
25716SOL    HW279591   8.032   0.511   2.637  2.4573  1.5740 -0.1527
25717SOL     OW79592   5.370   8.439   0.227 -0.2229 -0.1201 -0.4711
25717SOL    HW179593   5.377   8.526   0.268  0.7961 -1.0667  1.4708
25717SOL    HW279594   5.278   8.432   0.204 -0.4037  1.3327 -0.3228
25718SOL     OW79595   2.265   3.875   8.168  0.1650 -0.0382  0.2169
25718SOL    HW179596   2.202   3.805   8.185 -0.9760  1.1042  0.8261
25718SOL    HW279597   2.348   3.840   8.201 -0.3123 -1.2026  0.2473
25719SOL     OW79598   8.560   4.656   6.293  0.4097  0.1315 -0.4389
25719SOL    HW179599   8.551   4.683   6.385 -0.5305  1.7339 -0.9629
25719SOL    HW279600   8.470   4.644   6.263  0.7240 -0.8739 -1.0421
25720SOL     OW79601   9.044   1.256   6.612  0.0778  0.1176  0.1263
25720SOL    HW179602   9.015   1.204   6.536 -1.1065 -1.0617  1.3248
25720SOL    HW279603   9.100   1.196   6.662  0.3310  0.6667  0.5044
25721SOL     OW79604   2.612   2.731   8.618 -0.0056  0.1775 -0.2089
25721SOL    HW179605   2.596   2.802   8.556 -0.8518  1.2025  1.1128
25721SOL    HW279606   2.706   2.732   8.632  0.0968  0.4412 -0.8908
25722SOL     OW79607   4.977   6.539   8.651 -0.3902  0.2725  0.6278
25722SOL    HW179608   5.061   6.532   8.606 -0.2935  0.3647  0.7915
25722SOL    HW279609   4.970   6.631   8.676 -1.2085  0.5834 -0.6496
25723SOL     OW79610   8.781   0.449   2.515  0.4174 -0.3111 -0.5704
25723SOL    HW179611   8.696   0.486   2.537 -0.0447 -2.2232  1.2901
25723SOL    HW279612   8.765   0.392   2.440  0.5244  0.9133 -1.5454
25724SOL     OW79613  10.026   8.026   0.098 -0.7098 -0.2047 -0.3435
25724SOL    HW179614  10.062   7.949   0.142  1.2038  1.0230  0.4141
25724SOL    HW279615  10.018   8.091   0.168 -0.3243  0.9135 -1.3006
25725SOL     OW79616   3.658   1.822   1.245  0.2785 -0.2399  0.5016
25725SOL    HW179617   3.719   1.823   1.171 -1.2076  0.1813 -0.7749
25725SOL    HW279618   3.641   1.729   1.260 -1.5769 -0.3259 -1.6327
25726SOL     OW79619   1.620   0.469   6.700 -0.3052  0.3745 -0.4242
25726SOL    HW179620   1.653   0.424   6.778 -0.7321  2.1199  0.8181
25726SOL    HW279621   1.539   0.423   6.677 -0.6108  0.3541  0.6685
25727SOL     OW79622   6.731   1.577  10.409 -0.3358  0.3812  0.1454
25727SOL    HW179623   6.794   1.593  10.480 -0.2727  3.1678 -0.4136
25727SOL    HW279624   6.656   1.537  10.453  0.9254 -0.9675  1.1983
25728SOL     OW79625   6.069   9.264   0.319  0.0834  0.7486  1.0653
25728SOL    HW179626   5.988   9.215   0.330  0.0904  0.2723 -0.6531
25728SOL    HW279627   6.123   9.209   0.262  1.2899  1.4348  1.4920
25729SOL     OW79628   2.809   9.977   3.394 -0.3507 -0.0373 -0.0141
25729SOL    HW179629   2.791  10.054   3.447 -0.7641 -0.9897  1.2850
25729SOL    HW279630   2.903   9.960   3.408 -0.5402 -0.5104  0.7592
25730SOL     OW79631   6.529   8.045   3.719 -0.3237  0.0346  0.6608
25730SOL    HW179632   6.591   8.069   3.650 -0.8481  2.9570  1.0593
25730SOL    HW279633   6.483   8.127   3.739 -2.3565 -1.4038  2.3351
25731SOL     OW79634   9.342   6.211   8.261  0.1098 -0.2948  0.2654
25731SOL    HW179635   9.305   6.237   8.177  1.9097  2.6442  0.2555
25731SOL    HW279636   9.268   6.216   8.322 -1.0826 -1.9010 -0.9249
25732SOL     OW79637   5.873   3.658   7.136  0.1044 -0.4840  0.5003
25732SOL    HW179638   5.805   3.646   7.069  0.2852 -0.5250  0.3249
25732SOL    HW279639   5.955   3.646   7.089  0.2554  0.3299  0.5515
25733SOL     OW79640   1.575   5.044   2.075  0.0723 -0.6701 -0.2644
25733SOL    HW179641   1.521   4.967   2.057  0.8601 -1.8413  2.0893
25733SOL    HW279642   1.516   5.104   2.121 -0.4731  0.1254 -1.8910
25734SOL     OW79643   2.718   5.108   1.274  0.5491  0.7634 -0.2291
25734SOL    HW179644   2.652   5.138   1.336 -0.2408  2.4987 -1.8093
25734SOL    HW279645   2.670   5.050   1.215  0.5334  1.6463 -1.0957
25735SOL     OW79646   0.086   5.021   0.562  0.3454 -0.1842  0.0198
25735SOL    HW179647   0.118   5.046   0.649  0.1089  0.3486 -0.0446
25735SOL    HW279648   0.140   5.070   0.501 -1.6463  2.0913 -0.0702
25736SOL     OW79649   7.547   4.964   9.916  0.6084  0.6308  0.2695
25736SOL    HW179650   7.454   4.981   9.903  0.5756  0.2144 -0.0817
25736SOL    HW279651   7.559   4.964  10.011 -0.0989 -1.0689  0.3973
25737SOL     OW79652   9.362   5.874   4.712  0.1778 -0.1090  0.4864
25737SOL    HW179653   9.414   5.911   4.641 -2.7005 -0.8876 -2.2321
25737SOL    HW279654   9.359   5.780   4.692 -2.0514 -0.1058  0.6136
25738SOL     OW79655   3.415   4.989  10.446  0.1508  0.0817  0.0015
25738SOL    HW179656   3.440   4.960  10.358 -0.0879 -0.8915  0.2350
25738SOL    HW279657   3.425   5.084  10.445  2.2258 -0.0914 -0.4419
25739SOL     OW79658   9.511   5.041   8.082  0.4352 -0.1668  0.0830
25739SOL    HW179659   9.577   5.107   8.098  0.8024  0.0430 -1.9738
25739SOL    HW279660   9.557   4.971   8.035 -0.7837  0.0874 -1.6109
25740SOL     OW79661   4.514   1.042  10.398 -0.4659  0.5660 -0.1880
25740SOL    HW179662   4.498   1.039  10.304  0.3102 -0.4441 -0.3047
25740SOL    HW279663   4.428   1.057  10.437 -1.0260 -0.4528 -0.9923
25741SOL     OW79664   4.646   0.265   1.928  0.3487  0.1721  0.3673
25741SOL    HW179665   4.553   0.261   1.951 -0.2497 -2.3226 -2.0130
25741SOL    HW279666   4.652   0.337   1.865  0.0642  0.4389  0.6437
25742SOL     OW79667   1.659   3.020   6.012  0.4244  0.2098 -0.4316
25742SOL    HW179668   1.738   3.014   5.959 -0.0953 -0.9349 -1.1066
25742SOL    HW279669   1.591   3.048   5.951 -0.0908 -0.7260 -0.3099
25743SOL     OW79670   4.874   6.784   3.377  0.5094  0.4418 -0.1096
25743SOL    HW179671   4.888   6.692   3.397  0.8339  0.6911  0.8788
25743SOL    HW279672   4.948   6.808   3.321  0.7654  0.2487  0.1395
25744SOL     OW79673   4.145   6.106   0.657 -0.4665  0.5370  0.0879
25744SOL    HW179674   4.178   6.038   0.716 -1.1369 -0.5648 -0.7538
25744SOL    HW279675   4.180   6.081   0.571  0.6454  2.2084 -0.0026
25745SOL     OW79676   9.510   2.747   0.702 -0.4153 -0.0475 -0.1778
25745SOL    HW179677   9.467   2.709   0.779 -0.3990  0.4150  0.0620
25745SOL    HW279678   9.439   2.792   0.655 -0.2625  0.4202  0.0344
25746SOL     OW79679   5.144   6.592   4.282 -0.2253  0.1023 -0.0322
25746SOL    HW179680   5.088   6.646   4.338 -0.6803  0.3197 -0.6963
25746SOL    HW279681   5.165   6.648   4.207  0.1364 -0.2913 -0.2303
25747SOL     OW79682   3.832   4.556   4.613  0.1620  0.4399 -0.3809
25747SOL    HW179683   3.887   4.482   4.641 -0.4374 -0.0942 -0.5859
25747SOL    HW279684   3.743   4.522   4.617 -0.0502  0.8465 -1.4391
25748SOL     OW79685   5.365   1.494   5.598  0.6295 -1.0153 -0.7801
25748SOL    HW179686   5.433   1.466   5.537  0.5961 -1.4000 -0.6434
25748SOL    HW279687   5.396   1.464   5.683  0.7506 -0.3469 -0.5785
25749SOL     OW79688   1.657   9.145   3.700 -0.2275  0.3800  0.1070
25749SOL    HW179689   1.649   9.199   3.621 -2.4513 -1.5930 -1.1468
25749SOL    HW279690   1.567   9.122   3.723  0.5508 -1.9118  1.1796
25750SOL     OW79691   3.758   3.292   0.561  0.5174  0.3094  0.5390
25750SOL    HW179692   3.768   3.349   0.637  1.9631  0.4151  0.2832
25750SOL    HW279693   3.669   3.310   0.530  1.0472  2.7166  0.2223
25751SOL     OW79694   2.018   6.232   3.181 -0.2295 -0.0281  0.1749
25751SOL    HW179695   1.945   6.196   3.230 -0.3762 -2.1941 -1.5194
25751SOL    HW279696   2.096   6.193   3.222 -0.2590 -0.6624 -0.3725
25752SOL     OW79697   3.870   0.709   0.951 -0.2722 -0.7881 -0.1219
25752SOL    HW179698   3.796   0.683   0.895 -0.6085 -0.5296  0.1958
25752SOL    HW279699   3.842   0.792   0.989  0.5820 -0.2083 -0.7279
25753SOL     OW79700   4.487   5.866   0.747  0.4681  0.3609 -0.5319
25753SOL    HW179701   4.570   5.820   0.759  0.5321  0.7489  0.6591
25753SOL    HW279702   4.496   5.946   0.799 -0.6670  0.3765 -0.3276
25754SOL     OW79703   7.398   5.147   5.437 -0.3837  0.1919 -0.1755
25754SOL    HW179704   7.428   5.165   5.527  0.4789 -0.4396 -0.3257
25754SOL    HW279705   7.322   5.089   5.448  1.3347 -2.1502  0.1185
25755SOL     OW79706   5.481   0.981   7.293  0.3473  0.0833  0.2004
25755SOL    HW179707   5.435   0.950   7.370  0.6053 -1.5520 -0.2798
25755SOL    HW279708   5.554   1.032   7.327  0.5339 -0.7322  1.0472
25756SOL     OW79709   0.862   3.456   5.232  0.3312 -0.1986 -0.5558
25756SOL    HW179710   0.807   3.467   5.155  0.7767 -2.3853 -1.2675
25756SOL    HW279711   0.932   3.520   5.222  0.0586 -0.0651 -1.6718
25757SOL     OW79712   2.648   2.429   5.861 -0.3876  0.1584  0.0994
25757SOL    HW179713   2.575   2.473   5.818 -0.1375 -0.3742 -0.9051
25757SOL    HW279714   2.726   2.464   5.817 -0.0897  0.0847  0.5656
25758SOL     OW79715   6.398   6.738   2.877  0.1409  0.3137 -0.0969
25758SOL    HW179716   6.487   6.767   2.861  1.4084 -2.8815  0.5027
25758SOL    HW279717   6.387   6.746   2.972  0.8795 -1.8636  0.2266
25759SOL     OW79718   8.359   3.042   5.983 -0.3004 -0.3092 -0.5645
25759SOL    HW179719   8.327   3.053   6.073  0.5486 -1.1784 -0.1341
25759SOL    HW279720   8.365   3.131   5.948  0.2046  0.1173  0.5559
25760SOL     OW79721   7.042   2.537   2.017  0.0035 -0.4857 -0.1070
25760SOL    HW179722   7.067   2.505   1.930  0.8791  1.2632 -0.5296
25760SOL    HW279723   7.107   2.603   2.038 -1.5167  0.7594  0.8975
25761SOL     OW79724   6.095   2.264   3.117  0.2350 -0.8394  0.0321
25761SOL    HW179725   6.003   2.284   3.133  0.6523  0.4265  1.1112
25761SOL    HW279726   6.099   2.168   3.116 -1.0027 -0.9188  0.4866
25762SOL     OW79727   0.618   9.554   0.886 -0.2657 -0.2810 -0.1366
25762SOL    HW179728   0.586   9.470   0.920  0.3576 -1.7013 -2.7401
25762SOL    HW279729   0.539   9.604   0.866 -0.6919 -0.8434  0.1145
25763SOL     OW79730   0.926   5.426   2.681  0.2865  0.4486 -0.3040
25763SOL    HW179731   0.971   5.429   2.766  0.5928  0.6977 -0.4715
25763SOL    HW279732   0.866   5.501   2.684 -2.2517 -1.4941  1.0673
25764SOL     OW79733   8.249   8.464  10.004  0.1175  0.0643  0.0314
25764SOL    HW179734   8.211   8.550   9.987 -0.5521 -0.5367 -1.6524
25764SOL    HW279735   8.176   8.412  10.038 -0.0303 -0.4589 -1.0699
25765SOL     OW79736   0.176   6.161   8.576 -0.2751 -0.6995 -0.1833
25765SOL    HW179737   0.246   6.147   8.639  0.1828 -1.4192 -0.8414
25765SOL    HW279738   0.096   6.151   8.627  0.0847  0.3937  0.6281
25766SOL     OW79739   6.998   1.669   5.603  0.7248 -0.0462 -0.6029
25766SOL    HW179740   6.997   1.758   5.639 -0.8810  0.3558 -1.5423
25766SOL    HW279741   6.933   1.622   5.656  0.7604 -0.3556 -0.8341
25767SOL     OW79742   0.265   1.220   5.866  0.2131  0.0648  0.0713
25767SOL    HW179743   0.231   1.203   5.953  2.9492  0.2661  1.2755
25767SOL    HW279744   0.188   1.220   5.809 -1.5781 -0.6024  2.3797
25768SOL     OW79745   3.306   5.657   4.836  0.4055 -0.3156  0.6367
25768SOL    HW179746   3.287   5.647   4.743 -0.4398 -1.1279  0.8819
25768SOL    HW279747   3.381   5.598   4.852  2.4176  1.8947 -0.0568
25769SOL     OW79748   5.123   5.194   4.389  0.8402  0.4615  0.1258
25769SOL    HW179749   5.104   5.266   4.449 -0.4571  1.1646 -1.0603
25769SOL    HW279750   5.038   5.172   4.350  1.5463 -0.3105 -1.0582
25770SOL     OW79751  10.006   2.761   7.034  0.1765  0.9956 -0.2639
25770SOL    HW179752  10.017   2.671   7.003  3.4147  1.0618  0.2878
25770SOL    HW279753   9.931   2.757   7.094  0.0345 -1.2684 -0.5064
25771SOL     OW79754   1.337   6.046   4.138 -0.3606  0.4391 -0.1045
25771SOL    HW179755   1.244   6.040   4.157 -0.4686 -0.6075 -0.9039
25771SOL    HW279756   1.380   6.049   4.224 -1.1106  0.8158  0.2635
25772SOL     OW79757   1.981   8.790   1.920 -0.1722 -0.4129  0.1338
25772SOL    HW179758   1.991   8.705   1.879  2.0310  0.1121 -0.5229
25772SOL    HW279759   2.059   8.801   1.974  0.0621  1.5546 -0.5062
25773SOL     OW79760  10.252   8.429   6.974  0.5234 -0.5480 -0.0562
25773SOL    HW179761  10.315   8.369   7.015  0.9830  0.8385  1.4089
25773SOL    HW279762  10.286   8.444   6.886  1.1585 -1.3458  0.0425
25774SOL     OW79763   0.891   4.459   5.648 -0.5787 -0.5485  0.3538
25774SOL    HW179764   0.873   4.534   5.704 -1.1142 -1.3877  1.3416
25774SOL    HW279765   0.920   4.497   5.565 -0.9428  0.7410  0.7964
25775SOL     OW79766   6.801   4.290   1.419 -0.3999 -0.4963  0.1823
25775SOL    HW179767   6.842   4.323   1.339 -1.7543  0.7670 -0.0292
25775SOL    HW279768   6.711   4.269   1.393 -0.9775  0.3094  1.4547
25776SOL     OW79769   1.664   0.071   6.055  0.0996  0.1751  0.2971
25776SOL    HW179770   1.703   0.092   5.969  0.4162  2.5728  0.9437
25776SOL    HW279771   1.570   0.066   6.037  0.0621  1.6359 -0.0719
25777SOL     OW79772   7.539   8.261   3.663 -0.2141 -0.0985  0.2238
25777SOL    HW179773   7.498   8.268   3.577  0.1440 -1.2741 -0.0566
25777SOL    HW279774   7.601   8.189   3.654 -0.2738 -0.3290  1.5162
25778SOL     OW79775   5.227   2.361   7.521  0.0212  0.0456  0.7039
25778SOL    HW179776   5.208   2.284   7.574 -0.2084 -1.0292 -0.8927
25778SOL    HW279777   5.318   2.382   7.539  0.5558 -1.5613 -0.0095
25779SOL     OW79778   2.346   3.753   4.641 -0.1907 -0.0251  0.0743
25779SOL    HW179779   2.325   3.660   4.652  2.3309 -0.5348  1.1367
25779SOL    HW279780   2.361   3.763   4.547 -0.4365 -0.7004 -0.0426
25780SOL     OW79781   4.337   9.809   9.085  0.0357 -0.1022 -0.0487
25780SOL    HW179782   4.310   9.891   9.044  0.1797 -0.6072 -1.1896
25780SOL    HW279783   4.291   9.741   9.036 -3.1533 -0.6339  3.1916
25781SOL     OW79784   5.565   5.927   7.776  0.5848 -0.0385  0.2939
25781SOL    HW179785   5.567   5.862   7.706  3.6306 -0.7690  0.9125
25781SOL    HW279786   5.474   5.958   7.778 -0.6865 -3.3093 -0.8654
25782SOL     OW79787   8.505   2.016   2.724  0.2760  0.0830 -0.3235
25782SOL    HW179788   8.538   2.099   2.758 -1.6129  1.4842 -1.6569
25782SOL    HW279789   8.536   2.013   2.633  0.5330 -0.8086 -0.2205
25783SOL     OW79790   2.393   0.592  10.028  0.7383  0.7651  0.1435
25783SOL    HW179791   2.392   0.544  10.111 -0.2855  0.4801 -0.0202
25783SOL    HW279792   2.301   0.596  10.001  1.2315 -2.4591 -2.8495
25784SOL     OW79793   5.522   9.879   4.358 -0.1131 -0.4332 -0.0333
25784SOL    HW179794   5.469   9.857   4.282  1.0622 -0.2774 -0.9270
25784SOL    HW279795   5.471   9.945   4.405 -0.1120  0.7579 -1.6298
25785SOL     OW79796   1.856   7.765   2.359 -0.3608  0.3136  0.2865
25785SOL    HW179797   1.852   7.750   2.454 -0.1765  0.5565  0.3326
25785SOL    HW279798   1.941   7.729   2.333 -0.9425 -0.9248  0.0008
25786SOL     OW79799   6.524   3.874   2.591 -0.0481 -0.0918 -0.0662
25786SOL    HW179800   6.581   3.855   2.665 -0.5467 -0.6867  0.1632
25786SOL    HW279801   6.555   3.816   2.521 -0.9292 -1.0431  0.3273
25787SOL     OW79802  10.269   5.959   8.492 -0.0665 -0.4566 -0.0477
25787SOL    HW179803  10.327   5.965   8.568 -0.4786 -3.5810  0.6723
25787SOL    HW279804  10.328   5.958   8.417  0.5040  0.3865  0.3691
25788SOL     OW79805   1.512   5.427   1.414 -0.0765  0.3281  0.2680
25788SOL    HW179806   1.573   5.354   1.405  0.1404  0.7576 -2.3614
25788SOL    HW279807   1.436   5.401   1.360 -0.0508  1.9504 -0.5915
25789SOL     OW79808   7.336  10.178   5.921  0.1033  0.0240  0.8927
25789SOL    HW179809   7.333  10.253   5.981  1.0228  0.0225  0.9467
25789SOL    HW279810   7.325  10.102   5.978 -1.3170  0.1207  0.7853
25790SOL     OW79811   6.062   1.888   9.160  0.7937  0.0201 -0.1691
25790SOL    HW179812   6.089   1.918   9.074  1.8814 -0.1259  0.1113
25790SOL    HW279813   6.101   1.951   9.221  0.1197  0.0639  0.2261
25791SOL     OW79814   5.751   4.383   8.359 -0.2351 -0.3715  0.0707
25791SOL    HW179815   5.766   4.377   8.453  0.0415  0.1588  0.0676
25791SOL    HW279816   5.838   4.396   8.321 -0.1062 -2.3397 -0.4383
25792SOL     OW79817   8.073   5.958   8.774 -0.0733 -0.5759  0.4276
25792SOL    HW179818   8.024   5.909   8.840  1.3248 -1.1904  1.0503
25792SOL    HW279819   8.070   6.049   8.805  0.4318 -0.8324  1.2818
25793SOL     OW79820   1.080   1.486   3.565  0.3394 -0.1648  0.0191
25793SOL    HW179821   1.020   1.557   3.589  0.9090  0.2806  0.1405
25793SOL    HW279822   1.024   1.409   3.559 -0.0420 -0.0327  1.4735
25794SOL     OW79823   3.905   6.514   0.552  0.2665  0.2041  0.3985
25794SOL    HW179824   3.833   6.568   0.585  0.8489  1.1294  0.1843
25794SOL    HW279825   3.917   6.446   0.619 -1.0086 -0.1547  0.2824
25795SOL     OW79826   0.629   1.031   1.559 -0.2053  0.3913  0.0955
25795SOL    HW179827   0.607   0.994   1.473 -0.9147  3.3800 -1.1398
25795SOL    HW279828   0.563   0.994   1.618 -2.0764  1.0793 -1.4453
25796SOL     OW79829   6.907   6.757   4.072 -0.1604  0.3299  0.4317
25796SOL    HW179830   6.987   6.798   4.038 -0.3390  0.1979 -0.1556
25796SOL    HW279831   6.839   6.781   4.009 -0.1160 -1.5190 -0.3915
25797SOL     OW79832   0.734   3.610   0.724  0.8851 -0.4531  0.2246
25797SOL    HW179833   0.784   3.529   0.715 -0.1837 -1.1099  0.0179
25797SOL    HW279834   0.644   3.584   0.708  0.6625  1.0162 -1.0485
25798SOL     OW79835   0.721   3.488   2.542  0.2591 -0.0891  0.6200
25798SOL    HW179836   0.647   3.492   2.482  0.8137  0.4354 -0.0511
25798SOL    HW279837   0.693   3.540   2.617 -0.0262  0.1800  0.3323
25799SOL     OW79838   3.848   8.726   2.513  0.3237 -0.3615 -0.3550
25799SOL    HW179839   3.843   8.783   2.590 -0.3688 -1.1077  0.1728
25799SOL    HW279840   3.925   8.672   2.529  0.0730 -0.6451 -0.0825
25800SOL     OW79841   2.450   6.652   4.581 -0.0818  0.2196 -0.0856
25800SOL    HW179842   2.397   6.609   4.649 -0.1989 -0.5763 -0.6698
25800SOL    HW279843   2.525   6.594   4.568 -0.2174  0.2064 -0.8502
25801SOL     OW79844   6.466   9.609   5.072 -0.3990  0.2838  0.2391
25801SOL    HW179845   6.501   9.539   5.127  0.9259 -0.7506 -1.8065
25801SOL    HW279846   6.434   9.675   5.135 -0.0887 -1.3473  2.2087
25802SOL     OW79847   4.176   5.975   6.673  0.3696  0.1739  0.2381
25802SOL    HW179848   4.085   5.946   6.678  0.2963 -0.4593 -2.7896
25802SOL    HW279849   4.173   6.067   6.699 -0.9480 -0.0987  1.1640
25803SOL     OW79850   9.681   4.196   0.008  0.0863 -0.1818  0.3112
25803SOL    HW179851   9.649   4.245   0.084  0.4448 -0.8620  0.9021
25803SOL    HW279852   9.606   4.145  -0.021  0.0950 -0.3037  0.5084
25804SOL     OW79853   1.312   2.995   1.745 -0.2868  0.2752  0.3611
25804SOL    HW179854   1.330   2.909   1.706 -2.7916  0.1020 -0.5857
25804SOL    HW279855   1.346   3.057   1.680 -1.1261 -0.0173 -0.3707
25805SOL     OW79856   8.471   4.351   4.750  0.2135 -0.4033  0.0550
25805SOL    HW179857   8.418   4.299   4.689  1.0106 -0.0657 -0.9459
25805SOL    HW279858   8.526   4.406   4.694  0.5369  0.3550  1.0884
25806SOL     OW79859   6.753   6.614   9.654  0.4941 -0.2736 -0.4207
25806SOL    HW179860   6.713   6.531   9.678  0.7492 -0.0399  0.9097
25806SOL    HW279861   6.789   6.599   9.567 -0.7486 -1.0857 -0.8139
25807SOL     OW79862   2.658   9.427   0.702 -0.1438  0.3000  0.1636
25807SOL    HW179863   2.663   9.388   0.615 -0.2886  1.7611 -0.5396
25807SOL    HW279864   2.585   9.382   0.745  0.3368 -0.8787 -0.2184
25808SOL     OW79865   8.412   4.190   4.163  0.3962  0.5655 -0.0092
25808SOL    HW179866   8.442   4.252   4.229 -0.4988  1.4364 -0.3812
25808SOL    HW279867   8.322   4.218   4.143  0.0640 -0.6937 -0.3885
25809SOL     OW79868   0.071  10.064   4.148 -0.0713  0.3196  0.0390
25809SOL    HW179869   0.146  10.005   4.140  0.7988  1.4133 -0.2273
25809SOL    HW279870   0.002  10.010   4.185  0.9315 -0.6644  0.5572
25810SOL     OW79871   1.849  10.041   9.516  0.1437 -0.3521  0.1322
25810SOL    HW179872   1.811  10.016   9.601 -0.1688  1.2098  0.4914
25810SOL    HW279873   1.891  10.125   9.533 -0.1838  0.1380 -1.3328
25811SOL     OW79874   9.980   7.120   5.763 -0.5716  0.6184  0.2751
25811SOL    HW179875   9.935   7.041   5.731 -1.3872  0.9980  0.4582
25811SOL    HW279876   9.963   7.121   5.857  0.5846  0.2990  0.5049
25812SOL     OW79877   2.739   0.789   0.421 -0.0074 -0.0158 -0.0223
25812SOL    HW179878   2.765   0.700   0.394  0.7189  0.2866 -0.3478
25812SOL    HW279879   2.645   0.792   0.403  0.4151  0.1652 -2.6291
25813SOL     OW79880   0.668   1.874   5.109 -0.3506 -0.1592  0.2936
25813SOL    HW179881   0.613   1.933   5.162  0.0086  3.4878 -2.8917
25813SOL    HW279882   0.621   1.867   5.026  1.0442 -2.1964 -0.3858
25814SOL     OW79883   5.487   6.380   3.845 -0.1449  0.0949  0.3704
25814SOL    HW179884   5.483   6.440   3.771  3.2911  0.6393  0.4450
25814SOL    HW279885   5.396   6.370   3.873 -1.3280  1.6065 -2.4939
25815SOL     OW79886   9.624   7.793   5.109 -0.4884 -0.5296  0.1692
25815SOL    HW179887   9.558   7.727   5.089 -2.1308  1.7040 -2.5967
25815SOL    HW279888   9.685   7.790   5.036  0.2471  0.0572  0.7337
25816SOL     OW79889   8.949   7.704   5.906  0.3661 -0.3064 -0.1207
25816SOL    HW179890   8.856   7.698   5.884  0.5964  0.8121 -1.5810
25816SOL    HW279891   8.950   7.714   6.001 -1.1533  1.5843 -0.2350
25817SOL     OW79892   0.184   5.709   7.523 -0.0215  0.4568  0.0772
25817SOL    HW179893   0.141   5.769   7.583 -0.6133  1.0815 -0.9653
25817SOL    HW279894   0.114   5.652   7.491  0.3652 -0.1543  0.2786
25818SOL     OW79895   3.812   1.483   5.374  0.2097  0.5500 -0.0327
25818SOL    HW179896   3.834   1.576   5.385  1.6286  0.3162 -0.6778
25818SOL    HW279897   3.816   1.469   5.279 -0.7801  0.0014 -0.0016
25819SOL     OW79898   1.633   3.860   7.542 -0.5200 -0.0522  0.3503
25819SOL    HW179899   1.601   3.873   7.632 -1.6324  1.3607 -0.2043
25819SOL    HW279900   1.569   3.800   7.503 -0.0319 -0.6731  0.4999
25820SOL     OW79901   9.050   1.610   3.019  0.2938  0.2571 -0.0748
25820SOL    HW179902   9.038   1.516   3.011  0.8374  0.3270 -2.5240
25820SOL    HW279903   9.002   1.634   3.098 -1.5345 -1.7613 -0.4895
25821SOL     OW79904   0.776   2.487   7.185 -0.6432 -0.8684  0.5668
25821SOL    HW179905   0.798   2.440   7.266  0.9280  1.5171  1.6466
25821SOL    HW279906   0.780   2.580   7.210 -0.8495 -0.0779 -2.0779
25822SOL     OW79907   9.055   7.766   7.609  0.4808 -0.7787 -0.4218
25822SOL    HW179908   9.071   7.734   7.697  0.4983  0.1586 -0.0724
25822SOL    HW279909   8.973   7.723   7.582 -0.0504 -0.3272  0.4307
25823SOL     OW79910   7.587   4.723   9.378 -0.6138 -0.3172  0.2589
25823SOL    HW179911   7.589   4.645   9.322 -0.4102 -1.5089  1.8623
25823SOL    HW279912   7.663   4.714   9.435  0.3434  1.8827 -0.5308
25824SOL     OW79913   6.001   6.735  10.395  0.8217  0.0090 -0.3254
25824SOL    HW179914   6.048   6.779  10.466 -0.3695  1.0594 -0.1477
25824SOL    HW279915   5.970   6.807  10.340 -0.8516 -0.6043 -0.2357
25825SOL     OW79916   6.246   8.504   1.046  0.0953  0.1518 -0.2190
25825SOL    HW179917   6.310   8.545   0.989  0.4621  2.1614  1.5489
25825SOL    HW279918   6.168   8.559   1.038  0.1756  0.5149  1.2141
25826SOL     OW79919   5.869   0.916   1.804 -0.2673  0.1332 -0.2787
25826SOL    HW179920   5.828   0.868   1.732  1.7404 -1.0172 -0.7214
25826SOL    HW279921   5.872   0.853   1.876  2.6389 -0.6575 -0.9484
25827SOL     OW79922   5.200   5.582   2.340 -0.1038 -0.0778 -0.1156
25827SOL    HW179923   5.158   5.637   2.406  1.2155  0.5758  0.2144
25827SOL    HW279924   5.132   5.520   2.313 -0.9697  0.3087  1.1019
25828SOL     OW79925   7.733   8.052   7.898 -0.3128 -0.0483 -0.4874
25828SOL    HW179926   7.697   8.128   7.852 -0.8880 -0.3687 -0.5773
25828SOL    HW279927   7.670   8.035   7.968  0.6206  0.5107  0.5198
25829SOL     OW79928   8.310   4.671   3.522 -0.5193 -0.3228  0.0218
25829SOL    HW179929   8.312   4.670   3.617 -0.2941  3.1820  0.1938
25829SOL    HW279930   8.394   4.635   3.496  0.6724  1.3238  1.3408
25830SOL     OW79931   6.945   9.500   3.169  0.1383 -0.3459 -0.4319
25830SOL    HW179932   6.959   9.452   3.251 -0.1395 -1.0303 -0.7727
25830SOL    HW279933   7.033   9.511   3.133  0.3558  0.7528  0.3837
25831SOL     OW79934   0.649   5.799   6.271  0.0470 -0.3205 -0.0258
25831SOL    HW179935   0.676   5.708   6.272  0.6300 -0.1652 -0.9701
25831SOL    HW279936   0.707   5.842   6.334  0.5899 -0.3830 -0.4759
25832SOL     OW79937   7.785   8.197   5.622  0.1004 -0.4788 -0.7755
25832SOL    HW179938   7.706   8.147   5.642 -0.8151  0.5676 -1.6303
25832SOL    HW279939   7.779   8.215   5.528  1.1907 -0.1089 -0.7877
25833SOL     OW79940   6.355   2.582   0.611 -0.6433  0.0063 -0.2652
25833SOL    HW179941   6.392   2.662   0.572 -1.5652 -0.0773 -1.3672
25833SOL    HW279942   6.366   2.516   0.543 -3.9451  0.2780 -1.2019
25834SOL     OW79943   9.839   8.719   0.274  0.4087 -0.0791 -0.8475
25834SOL    HW179944   9.892   8.718   0.354  0.8384 -1.5647 -1.1019
25834SOL    HW279945   9.821   8.811   0.258  0.5930  0.2721  0.7745
25835SOL     OW79946   8.805   0.478   5.088 -0.1261  0.4662 -0.1221
25835SOL    HW179947   8.792   0.554   5.032  0.4624 -1.1430 -2.5962
25835SOL    HW279948   8.716   0.448   5.109 -0.3593  0.8994 -0.4814
25836SOL     OW79949   0.879   6.136   0.988  0.6208  0.3754 -0.4753
25836SOL    HW179950   0.816   6.073   1.022  0.6683  0.7490  0.3287
25836SOL    HW279951   0.838   6.170   0.908  0.2844 -0.1540 -0.5301
25837SOL     OW79952   5.933  10.292   7.228 -0.0798 -0.4901  0.4885
25837SOL    HW179953   5.978  10.333   7.302 -2.6190  2.6561  0.5146
25837SOL    HW279954   5.996  10.300   7.156  0.4263  1.5013  1.0665
25838SOL     OW79955   5.953   9.938   0.783 -1.0121  0.2640 -0.1025
25838SOL    HW179956   6.036   9.910   0.744 -0.4237 -0.0133  1.2766
25838SOL    HW279957   5.963  10.032   0.798 -0.0662 -0.1014  1.9727
25839SOL     OW79958   5.822   9.934   6.108 -0.3048 -0.4823 -0.0292
25839SOL    HW179959   5.752   9.999   6.099 -0.2840 -0.1248  2.0219
25839SOL    HW279960   5.901   9.979   6.077 -0.2748  0.5396  1.4594
25840SOL     OW79961  10.415   7.941   7.084 -0.1511  0.2707  0.2754
25840SOL    HW179962  10.388   7.888   7.159 -1.9085  0.0713 -0.4362
25840SOL    HW279963  10.379   7.895   7.008  2.3006  0.0066 -0.8101
25841SOL     OW79964   7.641   8.802   0.584  0.3351 -0.3189  0.5721
25841SOL    HW179965   7.623   8.805   0.490  2.2936 -0.2873  0.1564
25841SOL    HW279966   7.700   8.727   0.594  0.0791 -0.3738  1.7959
25842SOL     OW79967   8.722   9.609   7.142  0.0396 -0.3819  0.1892
25842SOL    HW179968   8.690   9.658   7.066 -1.4719 -0.8836  0.4486
25842SOL    HW279969   8.790   9.552   7.108 -1.7693 -1.8502 -1.2009
25843SOL     OW79970   9.631   2.619   0.395 -0.4303  0.2478 -0.7910
25843SOL    HW179971   9.672   2.647   0.476  1.0682 -1.1401 -1.0240
25843SOL    HW279972   9.622   2.699   0.343  2.3279  0.5833 -0.8733
25844SOL     OW79973   8.387   5.695   1.420  0.1540 -0.2762 -0.1651
25844SOL    HW179974   8.385   5.599   1.417  0.0008 -0.2771 -0.0308
25844SOL    HW279975   8.479   5.716   1.432  0.1470 -0.4152  0.1257
25845SOL     OW79976   7.698   2.551  10.253 -0.0665  0.2287  0.5962
25845SOL    HW179977   7.773   2.567  10.195 -2.0499 -0.0259 -2.2519
25845SOL    HW279978   7.656   2.637  10.261 -0.7336 -0.0521  0.2099
25846SOL     OW79979   2.649   1.970   5.494 -0.4951  0.3861  0.1338
25846SOL    HW179980   2.611   2.033   5.554 -1.0915 -0.8244  1.0799
25846SOL    HW279981   2.743   1.973   5.510 -0.7123 -0.5614  1.8270
25847SOL     OW79982   6.033   0.735   6.234  0.0582  0.2867 -0.0868
25847SOL    HW179983   6.035   0.735   6.138 -1.5219  0.1194 -0.1473
25847SOL    HW279984   5.949   0.775   6.256  0.2453 -0.0034  1.2274
25848SOL     OW79985   7.319   6.630   2.320 -0.5948  0.0430  0.2936
25848SOL    HW179986   7.297   6.568   2.251 -1.8059  0.3951  0.3404
25848SOL    HW279987   7.238   6.677   2.337 -0.3689 -0.1678  2.1109
25849SOL     OW79988   4.766   5.718   1.661 -0.0031  0.4253 -0.4686
25849SOL    HW179989   4.725   5.749   1.742  1.3726 -0.7055  0.7098
25849SOL    HW279990   4.717   5.762   1.591 -1.7287  0.8421  0.9294
25850SOL     OW79991   3.364   1.104   4.280  0.3511  0.3016 -0.3125
25850SOL    HW179992   3.322   1.032   4.233 -0.9391  1.9089 -1.7482
25850SOL    HW279993   3.346   1.086   4.373  0.9905 -1.7400 -0.5243
25851SOL     OW79994   3.210   9.496   3.839  0.7698 -0.2712 -0.2175
25851SOL    HW179995   3.295   9.452   3.833  1.6305  1.2368  0.3171
25851SOL    HW279996   3.230   9.589   3.824 -0.5362  0.3407  1.5426
25852SOL     OW79997   2.705   5.565   4.150 -0.2161  0.1736 -0.2970
25852SOL    HW179998   2.651   5.489   4.171 -0.4937  0.3332 -0.4244
25852SOL    HW279999   2.795   5.533   4.156 -0.3358 -0.4242 -1.2955
25853SOL     OW80000   6.056   1.686   9.430 -0.5108 -0.0776 -0.8494
25853SOL    HW180001   6.119   1.748   9.394  0.0640 -0.3112 -0.2709
25853SOL    HW280002   6.109   1.615   9.466 -0.8628  1.1842  2.4685
25854SOL     OW80003   3.645   4.671   2.618 -0.1485  0.0303  0.0790
25854SOL    HW180004   3.590   4.678   2.695  0.4091 -0.9086  0.5770
25854SOL    HW280005   3.669   4.579   2.613 -0.1134  0.0786 -1.1788
25855SOL     OW80006   2.401   4.561   4.067  0.3778 -0.1530  0.4577
25855SOL    HW180007   2.361   4.643   4.035  1.9445 -0.1540 -1.6976
25855SOL    HW280008   2.353   4.542   4.148 -1.5912  1.6649 -0.1639
25856SOL     OW80009   0.572   5.595   1.986  0.0204  0.6879  0.1147
25856SOL    HW180010   0.508   5.660   2.015 -0.7890  0.3674 -0.8785
25856SOL    HW280011   0.522   5.537   1.928  0.2556 -1.8284  2.2271
25857SOL     OW80012   2.832   9.371   1.443 -0.1692  0.2997 -0.4466
25857SOL    HW180013   2.823   9.303   1.509 -0.2429 -0.2699 -1.0277
25857SOL    HW280014   2.841   9.323   1.360  3.7566  0.8007 -0.5110
25858SOL     OW80015   3.560   4.086   2.606  0.0894  0.2589  0.1431
25858SOL    HW180016   3.613   4.064   2.682  1.4483 -1.0051 -1.0907
25858SOL    HW280017   3.471   4.062   2.631  0.4958 -0.0185  1.3776
25859SOL     OW80018   3.491   8.730   7.109 -0.0252 -0.1898  0.0998
25859SOL    HW180019   3.504   8.817   7.072 -0.4248 -0.2590 -0.2048
25859SOL    HW280020   3.462   8.746   7.199 -0.9409  0.0054 -0.2240
25860SOL     OW80021   0.251   2.224   7.343 -0.4467  0.2862  0.1826
25860SOL    HW180022   0.319   2.164   7.373 -0.1911  1.2695  1.6910
25860SOL    HW280023   0.247   2.210   7.249  1.8768  0.2112  0.0404
25861SOL     OW80024   9.561   5.915   1.157 -0.0558 -0.1346 -0.2990
25861SOL    HW180025   9.637   5.882   1.206 -0.6535  1.6072  2.0097
25861SOL    HW280026   9.517   5.836   1.125  2.0624 -1.2237 -0.6687
25862SOL     OW80027   5.192   7.430   4.560 -0.2425  0.6769 -0.4850
25862SOL    HW180028   5.156   7.517   4.575  3.1223  1.7529  2.9449
25862SOL    HW280029   5.176   7.382   4.641 -0.1856 -1.2215 -1.5227
25863SOL     OW80030   0.706   2.347   5.246 -0.4899 -0.2764 -0.1601
25863SOL    HW180031   0.799   2.323   5.256 -0.4465 -0.7232 -1.4190
25863SOL    HW280032   0.706   2.442   5.235 -0.0798 -0.3712 -1.0660
25864SOL     OW80033   1.322   8.081   0.602 -0.0009  0.9293 -0.1475
25864SOL    HW180034   1.236   8.115   0.626 -0.2648  1.6369 -1.9284
25864SOL    HW280035   1.374   8.090   0.682 -2.2640 -2.1453  1.9204
25865SOL     OW80036   9.909   2.466   8.612  0.5248  0.2558 -0.2878
25865SOL    HW180037   9.913   2.379   8.653  0.4071  0.9440  1.2819
25865SOL    HW280038   9.997   2.502   8.627 -0.2615  1.5121  1.7732
25866SOL     OW80039   4.361   3.474   1.997  0.3642 -0.1980 -0.2803
25866SOL    HW180040   4.344   3.533   1.924 -2.5448  0.3810  0.7281
25866SOL    HW280041   4.414   3.525   2.058  0.4979  0.2886 -0.8028
25867SOL     OW80042   2.346   2.145   8.508  0.0013  0.2429 -0.1404
25867SOL    HW180043   2.297   2.134   8.590  2.4851 -0.2740  1.3705
25867SOL    HW280044   2.281   2.177   8.446 -2.3367 -0.8742  1.5871
25868SOL     OW80045   1.185   2.360   4.842 -0.7839  0.5644 -0.3548
25868SOL    HW180046   1.195   2.292   4.909  0.0824 -0.4679 -1.4904
25868SOL    HW280047   1.092   2.382   4.845 -0.6062  1.2821  1.8592
25869SOL     OW80048   0.921   2.563   1.038 -0.0519 -0.4641 -0.4663
25869SOL    HW180049   0.851   2.499   1.035  1.6772 -2.4659 -0.7780
25869SOL    HW280050   0.994   2.517   1.079  1.1698  1.4407 -0.3646
25870SOL     OW80051   7.097   5.298   9.758  0.6739  0.4779  0.2208
25870SOL    HW180052   7.131   5.325   9.673 -0.7831  0.4419 -0.3898
25870SOL    HW280053   7.025   5.358   9.776 -1.9585 -2.1567 -0.6783
25871SOL     OW80054   4.098   0.514   9.902  0.0129  0.4546 -0.3172
25871SOL    HW180055   4.170   0.477   9.953  0.8627  2.5624  0.1099
25871SOL    HW280056   4.141   0.558   9.828 -0.9761  0.2360 -1.0487
25872SOL     OW80057   5.835  10.318   9.814 -0.4698 -0.1456 -0.4385
25872SOL    HW180058   5.843  10.224   9.831 -1.4274 -0.0279  0.8793
25872SOL    HW280059   5.747  10.340   9.846 -0.8804  0.9044 -2.1965
25873SOL     OW80060   4.584   1.662   9.566 -0.3559  0.2789 -0.4129
25873SOL    HW180061   4.630   1.686   9.647  0.6648 -0.7901 -0.6490
25873SOL    HW280062   4.619   1.722   9.500 -0.0466  0.1565 -0.3672
25874SOL     OW80063   4.975   9.786   2.538  0.6106 -0.2078  0.7355
25874SOL    HW180064   4.916   9.818   2.469 -0.3204  2.6099  2.6350
25874SOL    HW280065   4.928   9.714   2.579  0.7388 -1.2469 -0.8490
25875SOL     OW80066   2.006   9.686   3.653 -0.5057  0.0924 -0.1000
25875SOL    HW180067   1.937   9.620   3.657  0.3251 -0.9894 -2.2400
25875SOL    HW280068   2.088   9.636   3.658  0.1500  1.1137 -0.1632
25876SOL     OW80069   6.001   1.648   3.774 -0.4269 -0.2791  0.3341
25876SOL    HW180070   6.009   1.639   3.679 -0.6628 -0.3614  0.3227
25876SOL    HW280071   5.907   1.647   3.790 -0.4370  0.9486  0.4420
25877SOL     OW80072   6.250   0.562   8.088  0.6999  0.1534 -0.1649
25877SOL    HW180073   6.197   0.483   8.099 -0.0603  0.3356 -2.0048
25877SOL    HW280074   6.293   0.550   8.003  1.8427  1.0110  0.2715
25878SOL     OW80075   3.696   0.687   1.719  0.6211 -0.0320  0.2858
25878SOL    HW180076   3.618   0.645   1.755  1.5258 -2.1120 -0.0345
25878SOL    HW280077   3.759   0.616   1.706  0.9802  0.7596 -3.7969
25879SOL     OW80078   4.771   2.912   4.313 -0.1947  0.0037  0.4291
25879SOL    HW180079   4.730   2.844   4.259 -2.7852  1.7945 -0.0540
25879SOL    HW280080   4.838   2.949   4.256  1.0851 -1.8925  0.6069
25880SOL     OW80081   0.687   8.174  10.452 -0.4256 -0.3554  0.3558
25880SOL    HW180082   0.609   8.145  10.406 -0.1568  0.5861 -0.7489
25880SOL    HW280083   0.748   8.200  10.382  1.1645 -1.7678  1.1582
25881SOL     OW80084   4.786   9.503   9.111 -0.2686 -0.4885 -0.4433
25881SOL    HW180085   4.767   9.596   9.115  0.6187 -0.3239  0.5245
25881SOL    HW280086   4.701   9.461   9.104 -0.8812  0.3012  1.5401
25882SOL     OW80087   9.388   7.443   3.389 -0.3625 -0.0974  0.0945
25882SOL    HW180088   9.316   7.443   3.452 -0.6132 -1.1362 -0.1692
25882SOL    HW280089   9.356   7.495   3.316 -0.2710  0.6696  0.5831
25883SOL     OW80090   1.479   8.625   9.319  0.2426 -0.8257  0.2092
25883SOL    HW180091   1.520   8.596   9.238 -0.3887 -1.0567 -0.0378
25883SOL    HW280092   1.546   8.675   9.364  0.9098 -1.5004 -0.0131
25884SOL     OW80093   5.880   1.741   2.340 -0.0716  0.0918 -0.5137
25884SOL    HW180094   5.868   1.807   2.271 -1.2690 -0.2511 -0.6551
25884SOL    HW280095   5.966   1.704   2.323 -0.2910  0.1082 -1.7546
25885SOL     OW80096   1.200   7.440   1.239  0.0933 -0.3123  0.0525
25885SOL    HW180097   1.166   7.530   1.232  2.7544  0.9934  2.0619
25885SOL    HW280098   1.138   7.387   1.189 -0.4315  2.9046 -3.1232
25886SOL     OW80099   1.499   3.825   7.781 -0.5100  0.2908 -0.1911
25886SOL    HW180100   1.465   3.890   7.843 -0.9900 -1.2131  1.1920
25886SOL    HW280101   1.434   3.755   7.781  0.1175 -0.3223 -1.4348
25887SOL     OW80102   1.139   5.596   5.791  0.5612  0.3382  0.1329
25887SOL    HW180103   1.169   5.505   5.790 -0.9851 -0.2196  1.2102
25887SOL    HW280104   1.214   5.646   5.759  2.3224 -1.0628  1.8176
25888SOL     OW80105   7.155   5.495   2.481 -0.0193  0.4012  0.2552
25888SOL    HW180106   7.184   5.418   2.529  0.0714  0.4848  0.3353
25888SOL    HW280107   7.170   5.568   2.542  1.2317  0.6607 -0.3407
25889SOL     OW80108   7.968   3.644   3.158  0.1445  0.0934 -0.4604
25889SOL    HW180109   7.985   3.562   3.204  1.4358  0.1287 -0.8407
25889SOL    HW280110   7.879   3.668   3.184 -0.6705 -1.9421 -1.1140
25890SOL     OW80111   8.006   6.573   7.783  0.0037  0.0455 -0.4206
25890SOL    HW180112   8.062   6.638   7.825  2.2835 -1.4431 -0.9262
25890SOL    HW280113   7.981   6.612   7.700  1.2241  0.3594 -0.6553
25891SOL     OW80114   3.641  10.306  10.473  0.1451 -0.1753  0.5603
25891SOL    HW180115   3.677  10.238  10.530 -3.1679 -1.8480  0.9377
25891SOL    HW280116   3.610  10.373  10.534 -0.1809 -0.2585  0.4883
25892SOL     OW80117   2.246   3.340   1.852 -0.2368 -0.0703 -0.2430
25892SOL    HW180118   2.312   3.333   1.782  0.0031 -2.2693  0.1278
25892SOL    HW280119   2.163   3.326   1.807 -0.2604  0.5034 -0.3811
25893SOL     OW80120   5.376   5.475   7.147 -0.5338 -0.4203  0.2090
25893SOL    HW180121   5.318   5.407   7.114 -1.5361  0.6801 -0.3878
25893SOL    HW280122   5.458   5.462   7.100 -0.9361 -0.8146 -0.3908
25894SOL     OW80123   5.315   7.095   2.745 -1.1079 -0.3407 -0.0216
25894SOL    HW180124   5.243   7.106   2.682 -0.9202 -0.4411 -0.2577
25894SOL    HW280125   5.388   7.062   2.692 -0.5373  0.8315  0.0150
25895SOL     OW80126   3.664   7.142   3.320  0.2782 -0.0160  0.1377
25895SOL    HW180127   3.752   7.134   3.357  0.3866  0.8727  0.1005
25895SOL    HW280128   3.678   7.141   3.226  0.2419  0.0451  0.1318
25896SOL     OW80129   9.634   8.858   8.564 -0.4378 -0.2343 -0.2095
25896SOL    HW180130   9.637   8.918   8.490 -1.6511 -0.7616 -0.7013
25896SOL    HW280131   9.667   8.910   8.638 -0.6734  0.7707 -0.7951
25897SOL     OW80132   5.460   0.908   8.369 -0.2720  0.5946 -0.1761
25897SOL    HW180133   5.421   0.878   8.452  0.6902 -0.8354 -0.2065
25897SOL    HW280134   5.542   0.950   8.395 -0.9265  1.9662 -0.2619
25898SOL     OW80135   8.776   3.305   0.373 -0.3599 -0.2915 -0.1316
25898SOL    HW180136   8.839   3.241   0.406  0.4437 -1.5525 -3.7175
25898SOL    HW280137   8.702   3.253   0.341 -0.9055  0.7734 -0.6670
25899SOL     OW80138   9.699   8.881   2.878  0.0706  0.3500  0.4380
25899SOL    HW180139   9.655   8.872   2.793  1.6502  1.6179 -0.5833
25899SOL    HW280140   9.682   8.971   2.904  3.4423  1.5317 -0.9185
25900SOL     OW80141   2.147   2.248   6.610 -0.0875 -0.0738  0.5689
25900SOL    HW180142   2.097   2.239   6.691  1.9905  1.3155  2.1242
25900SOL    HW280143   2.224   2.193   6.622 -0.2417 -0.6878 -0.9528
25901SOL     OW80144   6.205   1.856   9.903  0.3002  0.5047  0.1635
25901SOL    HW180145   6.274   1.908   9.945 -0.1081  0.2722  1.1687
25901SOL    HW280146   6.238   1.766   9.905  0.0512  0.4153  0.5096
25902SOL     OW80147   9.628   5.563   6.082  0.5111 -0.1248  0.0997
25902SOL    HW180148   9.544   5.516   6.079  0.8140 -0.6891  0.2762
25902SOL    HW280149   9.624   5.613   6.164  0.4581 -0.3642  0.2451
25903SOL     OW80150   8.822   2.582   4.715  0.5000 -0.2239 -0.6452
25903SOL    HW180151   8.917   2.571   4.716  0.7141  1.3713 -0.6618
25903SOL    HW280152   8.803   2.629   4.634 -0.2056  0.1932 -0.2541
25904SOL     OW80153   5.023   9.971   8.008  0.6360  0.2192  0.1246
25904SOL    HW180154   4.961   9.989   7.938 -0.2027 -1.7492  0.2962
25904SOL    HW280155   5.082   9.905   7.971  1.7865  1.0477  0.4278
25905SOL     OW80156   9.355   1.524   0.866  0.0494 -0.6724 -0.4417
25905SOL    HW180157   9.327   1.575   0.791  0.8583 -0.9453 -0.9472
25905SOL    HW280158   9.285   1.534   0.930 -0.4429 -0.0766 -1.0625
25906SOL     OW80159   8.764   8.829   8.783  0.1706 -0.1830 -0.3126
25906SOL    HW180160   8.765   8.916   8.743  1.1364  0.1479  0.3966
25906SOL    HW280161   8.854   8.815   8.813 -0.0420 -1.2989 -0.1298
25907SOL     OW80162   3.317   2.613  10.018 -0.2554 -0.4172  0.1667
25907SOL    HW180163   3.286   2.572   9.937 -0.1138 -0.2750  0.0396
25907SOL    HW280164   3.305   2.546  10.085 -0.0445 -0.6587 -0.0360
25908SOL     OW80165   8.846   1.054   2.254  0.1937 -0.5024  0.4279
25908SOL    HW180166   8.836   0.977   2.198 -1.8214 -0.3077  0.4269
25908SOL    HW280167   8.771   1.109   2.231  0.5594  0.5951  1.7566
25909SOL     OW80168   7.748   3.108   6.888 -0.1172 -0.5464  0.1970
25909SOL    HW180169   7.687   3.181   6.899 -0.0112  0.0927 -2.6520
25909SOL    HW280170   7.700   3.031   6.917 -0.5642  0.4678  2.3822
25910SOL     OW80171   2.607   2.660   1.417 -0.0452  0.3999  0.1165
25910SOL    HW180172   2.575   2.611   1.341 -2.0058  1.0169  0.4652
25910SOL    HW280173   2.593   2.752   1.394 -0.9352  0.5900  1.2862
25911SOL     OW80174   3.894   1.742   5.305  0.2274 -0.1722 -0.3288
25911SOL    HW180175   3.946   1.705   5.234  1.1225  2.0654 -0.9162
25911SOL    HW280176   3.846   1.815   5.265 -1.0019 -0.2664  0.8886
25912SOL     OW80177   4.457   1.269   1.889 -0.2996  0.2326 -0.0106
25912SOL    HW180178   4.440   1.336   1.823 -0.1549  0.5242  0.2439
25912SOL    HW280179   4.523   1.212   1.848 -1.0029 -0.2155 -0.5323
25913SOL     OW80180   5.642   7.050   5.437  0.3807  0.3324  0.0029
25913SOL    HW180181   5.551   7.043   5.466 -0.0804  1.3049 -1.1259
25913SOL    HW280182   5.667   7.140   5.458 -0.2602  1.3814 -3.2400
25914SOL     OW80183   4.030   2.377   3.049  0.0651  0.0227  0.1367
25914SOL    HW180184   4.070   2.464   3.054 -2.5525  1.2784  1.6018
25914SOL    HW280185   4.035   2.354   2.957  2.3002  0.9364 -0.0365
25915SOL     OW80186   2.513   6.918   0.498  0.0257  0.3841 -0.2304
25915SOL    HW180187   2.565   6.875   0.566  0.7452  0.9267 -0.4271
25915SOL    HW280188   2.549   7.006   0.491 -1.6545  1.1596  0.4038
25916SOL     OW80189   1.527   0.007   2.397 -0.0675  0.0510  0.1839
25916SOL    HW180190   1.604   0.034   2.346 -0.0289 -0.5515 -0.0986
25916SOL    HW280191   1.544  -0.086   2.417 -1.1874 -0.3758 -0.7511
25917SOL     OW80192   5.660   5.238   3.423  0.4844 -0.1923 -0.0276
25917SOL    HW180193   5.590   5.208   3.365 -0.5139  0.5342  0.7656
25917SOL    HW280194   5.656   5.334   3.418 -0.9403 -0.0218  2.6878
25918SOL     OW80195   8.456   0.138   1.212  0.0044  0.3681 -0.3901
25918SOL    HW180196   8.503   0.141   1.129  0.3057  0.8567 -0.2011
25918SOL    HW280197   8.406   0.056   1.207 -0.4039  0.6512 -1.2792
25919SOL     OW80198   6.454   3.229   8.119  0.1352  0.8291  0.1450
25919SOL    HW180199   6.443   3.314   8.076  2.1843  1.0605 -0.0411
25919SOL    HW280200   6.545   3.229   8.147 -0.3246 -0.6037  1.7501
25920SOL     OW80201   6.663   8.767   2.742  0.9467 -0.3009  0.2227
25920SOL    HW180202   6.734   8.777   2.806  1.5493  0.7420 -0.5716
25920SOL    HW280203   6.652   8.673   2.733  2.9131 -0.5362 -0.3386
25921SOL     OW80204   7.066   9.561   0.675 -0.3506  0.6895 -0.1968
25921SOL    HW180205   6.989   9.528   0.721  0.4546  0.6206  1.1847
25921SOL    HW280206   7.116   9.483   0.653  0.5611  0.8131  1.2549
25922SOL     OW80207   2.099   6.140   9.534  0.0858 -0.2320  0.5066
25922SOL    HW180208   2.072   6.053   9.563  0.2432 -0.6815 -0.6523
25922SOL    HW280209   2.192   6.145   9.556  0.1234 -0.4365  0.3947
25923SOL     OW80210   1.394  10.458   3.162 -0.1364  0.5618 -0.5519
25923SOL    HW180211   1.360  10.533   3.112 -1.9541 -1.0013 -1.8228
25923SOL    HW280212   1.408  10.391   3.096 -0.2626 -0.7967  0.7610
25924SOL     OW80213   0.680  10.217   8.749  0.5904 -0.1490 -0.3489
25924SOL    HW180214   0.608  10.155   8.737  0.8198 -0.5005  0.0685
25924SOL    HW280215   0.758  10.162   8.752  0.8784  0.2307 -0.7871
25925SOL     OW80216   5.347   9.886   4.684 -0.4709 -0.0291  0.3905
25925SOL    HW180217   5.425   9.886   4.738  0.1336  1.7580 -0.4242
25925SOL    HW280218   5.330   9.793   4.667  2.2635 -0.4656 -0.4905
25926SOL     OW80219   7.034   6.356   9.847 -0.0561 -0.0968  0.5381
25926SOL    HW180220   6.956   6.313   9.811 -0.6217  1.7782 -0.6330
25926SOL    HW280221   7.031   6.336   9.941 -2.3456  0.4442  0.6517
25927SOL     OW80222   2.764   3.533   2.334  0.3168  0.7333  0.3397
25927SOL    HW180223   2.840   3.529   2.275  0.8581 -0.1899  1.0696
25927SOL    HW280224   2.797   3.497   2.417 -1.0297 -0.0671  0.5452
25928SOL     OW80225   4.587   9.848   3.056 -0.0852  0.1607  0.0231
25928SOL    HW180226   4.558   9.936   3.031 -0.7765 -0.0080  0.2037
25928SOL    HW280227   4.670   9.863   3.102 -0.2125  0.7267  0.0875
25929SOL     OW80228  10.270   3.031   5.054 -0.0201  0.0152 -0.3068
25929SOL    HW180229  10.244   3.121   5.034 -0.1052  0.1153  0.2323
25929SOL    HW280230  10.240   2.980   4.978  3.6617  0.9792 -2.6694
25930SOL     OW80231   6.392   7.619   7.974  0.5094  0.1039  0.0147
25930SOL    HW180232   6.314   7.579   8.013  0.1124  1.0703  0.2636
25930SOL    HW280233   6.464   7.592   8.030 -0.1550  2.1169  1.9910
25931SOL     OW80234   5.475   7.284   9.624  0.3812 -0.2225  0.0403
25931SOL    HW180235   5.394   7.286   9.573 -0.0008 -2.5896  0.4553
25931SOL    HW280236   5.481   7.370   9.664 -2.3608 -0.2646  0.6627
25932SOL     OW80237  10.021   5.287   0.642  0.2902  0.2831 -0.2760
25932SOL    HW180238  10.080   5.361   0.627 -0.9556  1.2421 -0.6185
25932SOL    HW280239  10.080   5.213   0.659  1.6704  0.6731 -2.8208
25933SOL     OW80240   3.798   2.621   7.473 -0.1760  0.0997 -0.3006
25933SOL    HW180241   3.873   2.663   7.432  0.2400  0.0358  0.3700
25933SOL    HW280242   3.832   2.538   7.506 -1.2996 -1.5432 -2.9035
25934SOL     OW80243   1.248   6.906   1.282  0.0374  0.1460 -0.5830
25934SOL    HW180244   1.314   6.851   1.325 -1.7232 -2.3708 -0.9057
25934SOL    HW280245   1.218   6.965   1.351  1.9697  0.8031 -0.2219
25935SOL     OW80246   1.514   5.575  10.387  0.9034  0.2470  0.2916
25935SOL    HW180247   1.519   5.559  10.481  4.1166 -1.4826 -0.0227
25935SOL    HW280248   1.581   5.642  10.370  0.4284  0.4803 -0.7851
25936SOL     OW80249   6.685   5.621   2.552 -0.4853 -0.1085 -0.3005
25936SOL    HW180250   6.650   5.663   2.630 -0.2450 -0.8155  0.1918
25936SOL    HW280251   6.622   5.553   2.530 -1.0784  0.7400 -1.3338
25937SOL     OW80252   6.508   4.617   7.270 -0.0430 -0.2449  0.2049
25937SOL    HW180253   6.590   4.600   7.316 -0.3129 -1.1370  0.3848
25937SOL    HW280254   6.512   4.561   7.192 -0.5619 -0.4546  0.3231
25938SOL     OW80255   9.807  10.375   2.120  0.2832  0.3115 -0.7537
25938SOL    HW180256   9.733  10.314   2.119  1.4246 -1.1752 -3.0886
25938SOL    HW280257   9.766  10.462   2.119 -1.3849 -0.4083  0.3601
25939SOL     OW80258   9.017   2.571   4.256 -0.0508  0.3634  0.1746
25939SOL    HW180259   9.013   2.666   4.266  0.3159  0.2920  1.0574
25939SOL    HW280260   9.001   2.556   4.162  3.0095  1.4871 -0.6533
25940SOL     OW80261   4.913   2.135   8.429 -0.7556 -0.0019 -0.0231
25940SOL    HW180262   4.891   2.098   8.514  0.5071  1.4027  0.9546
25940SOL    HW280263   4.998   2.177   8.441 -0.7167  0.5723 -1.8794
25941SOL     OW80264   2.058  10.462   2.286  0.3841 -0.0374 -0.1686
25941SOL    HW180265   2.146  10.490   2.312  0.0025  0.5130  0.5944
25941SOL    HW280266   2.000  10.527   2.326 -0.3305  0.0691 -1.3418
25942SOL     OW80267   6.253   4.455   2.540 -0.4055 -0.0724  0.1946
25942SOL    HW180268   6.269   4.448   2.634 -0.3423  0.6545  0.2475
25942SOL    HW280269   6.214   4.542   2.529 -0.6030 -0.2329 -0.4286
25943SOL     OW80270   1.367   8.003   3.847 -0.2658  0.1476 -0.6432
25943SOL    HW180271   1.421   7.999   3.768  1.6430  1.4175  0.5103
25943SOL    HW280272   1.332   7.915   3.857  0.6140 -0.4011 -2.1102
25944SOL     OW80273   7.242   7.969   3.459  0.4943 -0.3370 -0.0605
25944SOL    HW180274   7.191   7.900   3.504  0.4089  0.2703  0.8036
25944SOL    HW280275   7.306   7.997   3.524 -0.0201  0.9875 -0.0855
25945SOL     OW80276   8.467   8.309   9.042 -0.4339 -0.4812 -0.6216
25945SOL    HW180277   8.523   8.292   9.118  0.3587 -0.2768 -1.1425
25945SOL    HW280278   8.393   8.358   9.077 -1.1844 -2.2410  0.3765
25946SOL     OW80279   9.697   6.324   2.097  0.2319  0.1172  0.3978
25946SOL    HW180280   9.686   6.410   2.057  0.6386  0.8644  1.8230
25946SOL    HW280281   9.622   6.314   2.154 -0.7656 -1.2865 -1.0792
25947SOL     OW80282   6.707   1.650   9.255  0.0599  0.3641 -0.1425
25947SOL    HW180283   6.710   1.621   9.346  0.3993 -0.2035 -0.3283
25947SOL    HW280284   6.625   1.699   9.249  1.6143  3.3790  1.3071
25948SOL     OW80285   2.485  10.283   3.028  0.0138  0.0967  0.1862
25948SOL    HW180286   2.561  10.289   3.086 -0.7435 -0.1369  1.2411
25948SOL    HW280287   2.477  10.189   3.010 -1.0957 -0.1116  1.5957
25949SOL     OW80288   1.716   6.197   4.455 -0.5496 -0.0442  0.1231
25949SOL    HW180289   1.683   6.286   4.461  1.6957  1.1524 -2.6983
25949SOL    HW280290   1.746   6.176   4.543 -2.0545  1.5476  1.0747
25950SOL     OW80291   8.944   6.808   5.229  0.3949 -0.1564  0.7159
25950SOL    HW180292   9.006   6.877   5.250 -0.7761  2.0107 -2.1938
25950SOL    HW280293   8.989   6.754   5.165 -0.4117  1.1757 -1.0806
25951SOL     OW80294   4.354   5.591  10.282  0.4522 -0.2623 -0.1250
25951SOL    HW180295   4.447   5.602  10.262  0.5469 -0.6630  0.0832
25951SOL    HW280296   4.352   5.530  10.355  0.0366 -0.0228  0.0732
25952SOL     OW80297   9.041   2.281   2.777 -0.0419  0.1064  0.1770
25952SOL    HW180298   8.978   2.301   2.708  0.0040 -0.5663 -0.0722
25952SOL    HW280299   9.100   2.217   2.737 -0.2510 -0.5886  0.9613
25953SOL     OW80300   3.290   0.676   3.915  0.6467 -0.7758 -0.2581
25953SOL    HW180301   3.229   0.651   3.846  0.4652  0.2087 -0.4713
25953SOL    HW280302   3.376   0.652   3.882  0.5158 -0.7473 -0.6210
25954SOL     OW80303   7.480  10.373   7.327 -0.3179 -0.2531 -0.0957
25954SOL    HW180304   7.480  10.464   7.297  0.7756  0.0069  0.6032
25954SOL    HW280305   7.481  10.321   7.247 -0.6453  0.3545 -0.5027
25955SOL     OW80306   9.342   9.383   3.069  0.1867  0.1536  0.6339
25955SOL    HW180307   9.412   9.340   3.117 -0.8380 -1.7191  0.5607
25955SOL    HW280308   9.284   9.417   3.137  0.8422  1.1971  0.6912
25956SOL     OW80309   5.104   5.215   0.450  0.6046 -0.4434  0.0851
25956SOL    HW180310   5.109   5.246   0.540  2.0375  2.0412 -0.7333
25956SOL    HW280311   5.096   5.295   0.398  0.5747 -1.7451 -2.0306
25957SOL     OW80312   7.021   6.464   0.641  0.7226  0.0786  0.1499
25957SOL    HW180313   7.036   6.498   0.552 -0.3928  1.1175  0.3277
25957SOL    HW280314   7.091   6.400   0.654  1.1574  0.2018 -1.3212
25958SOL     OW80315   5.566   7.550  10.095 -0.1436  0.1801  0.2572
25958SOL    HW180316   5.589   7.596  10.175 -1.5874  0.9082  0.2871
25958SOL    HW280317   5.506   7.609  10.049 -0.1080 -0.6280 -0.9017
25959SOL     OW80318   9.618   8.456   6.461  0.3379  0.0084 -0.2201
25959SOL    HW180319   9.618   8.550   6.475  1.5682  0.2524 -1.7319
25959SOL    HW280320   9.576   8.421   6.540  0.6394  1.7434  0.7606
25960SOL     OW80321   0.666   0.653  10.205 -0.0071 -0.3707  0.3885
25960SOL    HW180322   0.576   0.670  10.177  0.7075 -0.2510 -2.0600
25960SOL    HW280323   0.691   0.732  10.253 -0.4632  0.6228 -0.9452
25961SOL     OW80324   1.211   5.290   9.432 -0.0243  0.0430  0.0591
25961SOL    HW180325   1.132   5.332   9.465 -0.8850 -1.6754  0.2815
25961SOL    HW280326   1.179   5.226   9.368  1.0901 -1.3384  0.8390
25962SOL     OW80327   2.269   6.157   0.695 -0.6299 -0.1920 -0.3138
25962SOL    HW180328   2.231   6.123   0.776 -2.2685  0.8494 -0.6043
25962SOL    HW280329   2.312   6.238   0.721  3.5735 -2.3573  0.4443
25963SOL     OW80330   0.295   6.486   0.487  0.3239  0.0284  0.3106
25963SOL    HW180331   0.207   6.523   0.496  0.4618  0.8238 -1.2466
25963SOL    HW280332   0.300   6.419   0.555 -0.9037  1.0620  1.4802
25964SOL     OW80333   8.529   1.620   0.473  0.0274  0.3218  0.8997
25964SOL    HW180334   8.615   1.617   0.516 -0.5849  0.6788  2.1952
25964SOL    HW280335   8.505   1.528   0.462  0.9295  0.2050 -0.2376
25965SOL     OW80336   8.144   8.841   2.759 -0.3590  0.0509  0.1074
25965SOL    HW180337   8.079   8.867   2.693 -1.3675  1.7995  1.6684
25965SOL    HW280338   8.102   8.863   2.843  1.4150 -0.8044  1.2659
25966SOL     OW80339   2.104   0.412   4.855  0.1625 -0.2498  0.4069
25966SOL    HW180340   2.019   0.448   4.828 -0.4576 -0.9124  1.4103
25966SOL    HW280341   2.104   0.422   4.950  0.8312 -1.0637  0.5008
25967SOL     OW80342   9.704   2.127   9.387 -0.3833  0.2973  0.2359
25967SOL    HW180343   9.631   2.073   9.415 -0.3415 -0.5323 -1.1545
25967SOL    HW280344   9.672   2.173   9.309  0.0167  1.2952  0.6353
25968SOL     OW80345   4.047   6.754   5.984 -0.0519 -0.2819  0.0444
25968SOL    HW180346   3.978   6.695   6.014 -0.7682  0.8164  0.6114
25968SOL    HW280347   4.067   6.723   5.895 -2.8855  0.6893 -1.0624
25969SOL     OW80348   8.972   7.064   2.366 -0.4017 -0.5964  0.2419
25969SOL    HW180349   9.035   7.131   2.342  0.3225 -1.0967  0.7082
25969SOL    HW280350   8.930   7.039   2.284 -1.4035  1.1079  0.1754
25970SOL     OW80351   4.471   8.133   4.328  0.4656  0.0428 -0.3608
25970SOL    HW180352   4.560   8.138   4.293  0.5655 -0.7619 -0.2185
25970SOL    HW280353   4.420   8.194   4.273  1.0906  0.4862 -0.4538
25971SOL     OW80354   1.306   0.599   2.520 -0.5139 -0.0671  0.1903
25971SOL    HW180355   1.286   0.530   2.457  0.2661 -0.2691  0.1498
25971SOL    HW280356   1.260   0.573   2.600  0.2988 -0.9889  0.3724
25972SOL     OW80357   6.360   5.229   5.812  0.5213 -0.0942 -0.0803
25972SOL    HW180358   6.383   5.277   5.733 -4.0825  0.4775 -1.3685
25972SOL    HW280359   6.389   5.139   5.795  3.5060  0.7975 -0.3709
25973SOL     OW80360   2.125   6.643   7.781  0.0452  0.0686 -0.2404
25973SOL    HW180361   2.199   6.598   7.742 -0.5835 -0.1153 -1.2566
25973SOL    HW280362   2.138   6.735   7.758  0.6846  0.2455  0.7859
25974SOL     OW80363   9.206   6.710   5.092 -0.1216 -0.7517  0.0251
25974SOL    HW180364   9.286   6.718   5.144  1.1786  0.8564 -2.0162
25974SOL    HW280365   9.226   6.641   5.028  0.7371  1.2548 -2.0553
25975SOL     OW80366   4.211   5.021   1.801  0.0163  0.7395 -0.1641
25975SOL    HW180367   4.299   4.998   1.830 -0.1363  0.3740  0.0216
25975SOL    HW280368   4.184   5.091   1.860 -0.6453 -0.6165  1.2206
25976SOL     OW80369  10.381   4.763  10.461  0.1341  0.0977  0.2791
25976SOL    HW180370  10.388   4.802  10.374  3.5972 -1.2253 -0.2005
25976SOL    HW280371  10.422   4.676  10.452 -3.2557 -1.9487  2.2943
25977SOL     OW80372   1.742   1.954   8.733 -0.0601  0.2441  0.1338
25977SOL    HW180373   1.827   1.927   8.767 -1.5064 -2.4681  1.9832
25977SOL    HW280374   1.755   1.964   8.639  2.7296  2.0246  0.6030
25978SOL     OW80375   6.389   7.953  10.019  0.2445  0.2373 -0.5118
25978SOL    HW180376   6.435   8.037  10.014  0.6669 -0.0559 -3.3995
25978SOL    HW280377   6.459   7.889  10.036 -0.1538  0.4293  2.3175
25979SOL     OW80378   3.568   5.610   9.311  0.2159  0.3454 -0.0603
25979SOL    HW180379   3.637   5.676   9.317  0.5474  0.0186 -0.2306
25979SOL    HW280380   3.519   5.632   9.233  0.3859  0.3358 -0.1696
25980SOL     OW80381   2.355   1.458   8.534  0.2873 -0.3362  0.0054
25980SOL    HW180382   2.260   1.458   8.520  0.4103 -0.1689 -0.8385
25980SOL    HW280383   2.391   1.507   8.460  0.8657  1.6867  1.5282
25981SOL     OW80384   3.729   0.850   2.028 -0.3810 -0.3837 -0.1536
25981SOL    HW180385   3.686   0.860   1.943  1.3719 -1.9616 -1.2875
25981SOL    HW280386   3.818   0.822   2.007  0.8821  1.4859  2.1306
25982SOL     OW80387   4.533   6.279   7.966  0.2015  1.1136 -0.4919
25982SOL    HW180388   4.552   6.188   7.945  3.2595  1.6987 -0.7613
25982SOL    HW280389   4.531   6.282   8.061  1.8513  0.9849 -0.4208
25983SOL     OW80390   0.908   1.274   3.586 -0.5158  0.3191 -0.7265
25983SOL    HW180391   0.922   1.262   3.492 -0.5301  0.3905 -0.7374
25983SOL    HW280392   0.957   1.203   3.627  0.6154  1.0678 -0.7239
25984SOL     OW80393   0.587   6.212   3.604  0.7913  0.4140 -0.5347
25984SOL    HW180394   0.568   6.236   3.514  0.2587  0.0353 -0.5291
25984SOL    HW280395   0.512   6.158   3.631  1.1938  0.0927 -0.0363
25985SOL     OW80396   5.327   4.862   5.334 -0.2890 -0.2966 -0.2963
25985SOL    HW180397   5.389   4.809   5.284 -0.3027 -1.4894  0.8960
25985SOL    HW280398   5.293   4.802   5.401 -2.1992  0.5184 -0.4784
25986SOL     OW80399   2.499   3.495   5.277 -0.3327  0.0489 -0.4443
25986SOL    HW180400   2.525   3.403   5.281 -2.7824 -0.6951  2.6621
25986SOL    HW280401   2.407   3.492   5.249 -1.1690  1.2653  1.9377
25987SOL     OW80402   8.254   2.764   2.924 -0.1585  0.3521  0.7893
25987SOL    HW180403   8.249   2.860   2.930 -1.8251  0.3855 -0.5716
25987SOL    HW280404   8.193   2.741   2.854  0.6526 -1.6778  0.6947
25988SOL     OW80405   7.982   4.875   1.276  0.1506  1.0365  0.3512
25988SOL    HW180406   7.952   4.889   1.187 -0.2971  0.5986  0.4299
25988SOL    HW280407   8.077   4.885   1.271  0.5115 -1.7574 -0.7722
25989SOL     OW80408   9.178   2.179   3.229  0.0997  0.4672 -0.6141
25989SOL    HW180409   9.149   2.093   3.261 -0.1900  0.7010 -0.2417
25989SOL    HW280410   9.238   2.210   3.296 -0.6800  1.0571 -0.1705
25990SOL     OW80411   6.419   6.948  10.429 -0.0417 -0.6353  0.1092
25990SOL    HW180412   6.414   6.933  10.335  1.4683  1.5222 -0.3956
25990SOL    HW280413   6.352   7.015  10.446 -2.0311 -2.7390  1.0841
25991SOL     OW80414   1.201   9.593   3.931 -0.4880  0.6994 -0.1242
25991SOL    HW180415   1.157   9.570   4.013 -0.8524 -0.7365 -0.6884
25991SOL    HW280416   1.293   9.606   3.956 -0.3406 -0.9996  0.3519
25992SOL     OW80417   9.580   1.868   4.311  1.0193 -0.8111 -0.4835
25992SOL    HW180418   9.657   1.882   4.366  0.3854  2.4917 -0.2489
25992SOL    HW280419   9.507   1.860   4.373  0.6631  0.1731 -0.7637
25993SOL     OW80420   5.200   1.602   7.929 -0.0945  0.0066 -0.7721
25993SOL    HW180421   5.156   1.686   7.944 -0.3480 -0.0673 -1.0888
25993SOL    HW280422   5.226   1.605   7.837  2.2526  0.8324 -0.1418
25994SOL     OW80423   3.470   7.437   1.469 -0.2724 -0.3649  0.2610
25994SOL    HW180424   3.392   7.385   1.452 -1.2208  0.7854  0.9119
25994SOL    HW280425   3.524   7.382   1.526 -0.8842 -0.9452  0.2931
25995SOL     OW80426   8.641   7.896   2.009 -0.1548  0.3176 -0.3059
25995SOL    HW180427   8.664   7.804   2.019 -2.4485 -0.1743  1.2627
25995SOL    HW280428   8.706   7.943   2.061 -0.2576 -0.6293  0.7152
25996SOL     OW80429   1.655   7.064   0.264  0.3057  0.0293 -0.1103
25996SOL    HW180430   1.728   7.037   0.209  0.0796  0.9262 -0.8661
25996SOL    HW280431   1.607   6.983   0.281  0.5750 -0.3136 -0.9387
25997SOL     OW80432   6.226   2.830   7.463 -0.0261  0.2401 -0.3529
25997SOL    HW180433   6.151   2.877   7.499  0.4050  0.9759 -0.4008
25997SOL    HW280434   6.279   2.809   7.540 -0.3842 -0.4799 -0.2945
25998SOL     OW80435   0.341   9.080   1.497 -0.3711  0.4904  0.2511
25998SOL    HW180436   0.343   9.170   1.465  0.2500  0.3097 -0.2107
25998SOL    HW280437   0.298   9.031   1.427 -0.6797  0.4120  0.4897
25999SOL     OW80438   0.822   7.253   2.709  0.3742  0.5110  0.1194
25999SOL    HW180439   0.755   7.250   2.778  0.8458  1.1565  0.6217
25999SOL    HW280440   0.791   7.322   2.649  0.8172  1.1490  0.6097
26000SOL     OW80441   0.566   3.419   0.875  0.1262  0.0975 -0.8001
26000SOL    HW180442   0.526   3.463   0.800 -0.1707  0.0968 -0.6459
26000SOL    HW280443   0.619   3.486   0.917  1.0931 -0.1613 -1.5759
26001SOL     OW80444   6.206   8.914  10.143 -0.2679  0.2277 -0.1259
26001SOL    HW180445   6.200   8.902  10.048 -0.2420 -1.3581  0.0491
26001SOL    HW280446   6.115   8.907  10.173 -0.1076 -1.0776  0.1290
26002SOL     OW80447  10.350   7.301   1.046 -0.5969 -0.3894 -0.1400
26002SOL    HW180448  10.384   7.359   1.114 -0.2345 -0.6389 -0.1049
26002SOL    HW280449  10.260   7.330   1.032 -0.1953  0.6704 -0.6561
26003SOL     OW80450   1.852   4.876   0.116  0.2889 -0.2424 -0.1185
26003SOL    HW180451   1.923   4.816   0.139 -1.0644 -1.5036  0.9743
26003SOL    HW280452   1.835   4.925   0.197 -0.1117  0.0319 -0.3657
26004SOL     OW80453   4.187   9.426   2.727  0.2335  0.0821 -0.3144
26004SOL    HW180454   4.139   9.447   2.807 -0.3320 -1.1367 -0.3143
26004SOL    HW280455   4.270   9.391   2.757 -0.2250 -0.9628 -0.2290
26005SOL     OW80456   3.477   2.657   3.610 -0.2338  0.3925 -0.5095
26005SOL    HW180457   3.508   2.689   3.525  0.5708 -0.0355 -0.3840
26005SOL    HW280458   3.553   2.662   3.667  0.1053 -2.1502 -0.5928
26006SOL     OW80459   1.903   6.332   1.297 -0.0150  0.3407 -0.1502
26006SOL    HW180460   1.935   6.418   1.322  0.5560  0.1247 -0.1336
26006SOL    HW280461   1.980   6.275   1.302 -0.3051 -0.0901 -0.5416
26007SOL     OW80462   8.738   3.421   9.100  0.5521 -0.4129  0.3488
26007SOL    HW180463   8.828   3.448   9.081  0.8060 -1.3295  0.2098
26007SOL    HW280464   8.724   3.345   9.043  0.2229 -1.2372  1.4909
26008SOL     OW80465   4.911   2.121   1.180 -0.3731  0.1211  0.4260
26008SOL    HW180466   4.834   2.076   1.215  1.3601 -4.0892 -0.5450
26008SOL    HW280467   4.975   2.118   1.251  0.3374 -0.5790 -0.2260
26009SOL     OW80468  10.155   9.368   6.198 -0.1227  0.2415  0.2238
26009SOL    HW180469  10.140   9.278   6.227 -0.9965  0.4653  0.4842
26009SOL    HW280470  10.122   9.370   6.108  0.5336  0.1280 -0.0245
26010SOL     OW80471   8.118   5.540   8.002 -0.3489  0.4026  0.1794
26010SOL    HW180472   8.059   5.612   8.023 -0.1435  0.5696  0.1921
26010SOL    HW280473   8.169   5.526   8.083  0.6287  1.2248 -0.2687
26011SOL     OW80474   6.585   2.681   4.387  0.8916  0.4208  0.6250
26011SOL    HW180475   6.537   2.602   4.364  0.3881  0.3942  1.7045
26011SOL    HW280476   6.581   2.736   4.308  1.3515 -0.6603 -0.1706
26012SOL     OW80477  10.145   0.403   3.231  0.6533 -0.1478  0.2820
26012SOL    HW180478  10.148   0.368   3.142  2.2570 -0.8387  0.5732
26012SOL    HW280479  10.169   0.329   3.287  2.3452  0.9127  1.0544
26013SOL     OW80480   2.405   6.432   7.993  0.2641 -0.0540  0.1896
26013SOL    HW180481   2.405   6.441   7.898  0.7390  0.1802  0.2110
26013SOL    HW280482   2.497   6.427   8.017  0.1331 -1.1379  0.5399
26014SOL     OW80483   7.217   8.144   3.205  0.2080 -0.2972 -0.2602
26014SOL    HW180484   7.288   8.129   3.143 -0.2826 -1.6362 -0.5165
26014SOL    HW280485   7.239   8.091   3.281 -0.2648 -0.3266 -0.1390
26015SOL     OW80486   2.424   2.616  10.110  0.3474  0.1179 -0.5268
26015SOL    HW180487   2.380   2.618  10.025 -1.2702  1.5628  0.2749
26015SOL    HW280488   2.517   2.630  10.090  0.1008 -0.3354 -2.0968
26016SOL     OW80489  10.491   3.578   2.790  0.2803  1.1226  0.1121
26016SOL    HW180490  10.467   3.520   2.718  0.1648 -0.0679  1.0790
26016SOL    HW280491  10.585   3.592   2.780  0.2364  1.0901 -0.3570
26017SOL     OW80492  10.037   3.860   8.791 -0.0132 -0.0694 -0.2199
26017SOL    HW180493   9.958   3.902   8.758  0.8005  0.9939 -0.8879
26017SOL    HW280494  10.076   3.819   8.714  2.2415  2.9705 -0.8814
26018SOL     OW80495  10.208   2.315   2.280  0.4198 -0.7306 -0.5093
26018SOL    HW180496  10.164   2.401   2.282  2.2102  0.2716  2.6330
26018SOL    HW280497  10.273   2.324   2.210 -0.0840  0.0674 -0.9083
26019SOL     OW80498   2.756   0.155   4.293  0.1088  0.4867 -0.3985
26019SOL    HW180499   2.762   0.131   4.201 -2.2160 -0.7812 -0.2840
26019SOL    HW280500   2.672   0.199   4.301  0.1802  0.3982  1.1778
26020SOL     OW80501   7.173   7.061   3.196  0.3246  0.1571  0.8835
26020SOL    HW180502   7.212   7.148   3.200 -0.9571  0.8253 -0.3043
26020SOL    HW280503   7.177   7.036   3.104 -2.4308  0.5054  0.5835
26021SOL     OW80504   3.390  10.293   8.826  0.3033  0.2354  0.1290
26021SOL    HW180505   3.446  10.218   8.806 -0.5243  0.2792 -2.8100
26021SOL    HW280506   3.302  10.257   8.826 -0.1638  1.2440 -2.0264
26022SOL     OW80507  10.159   9.826   3.651 -0.0960 -0.8281  0.1655
26022SOL    HW180508  10.145   9.884   3.726 -0.1757 -1.2481  0.4779
26022SOL    HW280509  10.075   9.784   3.637 -0.4345  0.1576 -0.9479
26023SOL     OW80510   5.195   0.020   6.658  0.5428  0.5229 -0.2120
26023SOL    HW180511   5.195  -0.076   6.655  0.0505  0.5130 -0.0187
26023SOL    HW280512   5.182   0.047   6.568  2.1197  0.4320 -0.5022
26024SOL     OW80513   2.457   7.584   5.081 -0.7218  0.4636 -0.3874
26024SOL    HW180514   2.449   7.641   5.005 -1.4335  0.9606  0.0450
26024SOL    HW280515   2.490   7.641   5.151  0.4582 -0.1112 -0.4510
26025SOL     OW80516   0.455   5.856   5.301  0.6324  0.1923  0.4591
26025SOL    HW180517   0.479   5.822   5.215  0.4204  0.2229  0.3874
26025SOL    HW280518   0.506   5.803   5.362 -1.0186 -1.5111  0.4590
26026SOL     OW80519   5.640   1.027   2.343  0.3510  0.0906 -0.0332
26026SOL    HW180520   5.710   1.089   2.359  0.2308 -0.1228  1.4671
26026SOL    HW280521   5.587   1.029   2.423 -1.5183  0.4345 -1.2110
26027SOL     OW80522   4.951   7.276   1.820  0.6928 -0.2797 -0.8835
26027SOL    HW180523   4.862   7.300   1.844 -0.2451 -1.4271 -2.8924
26027SOL    HW280524   4.972   7.201   1.875  0.6026  0.2726 -0.0891
26028SOL     OW80525   7.680   9.389   3.537 -0.2635  0.7952  0.6330
26028SOL    HW180526   7.585   9.385   3.546 -0.5948  0.7242 -2.0501
26028SOL    HW280527   7.697   9.474   3.496  0.5503 -0.0881 -0.9862
26029SOL     OW80528   0.429   4.112   7.213 -0.4678 -0.1612 -0.5069
26029SOL    HW180529   0.435   4.159   7.297 -0.0725 -0.2148 -0.5039
26029SOL    HW280530   0.436   4.181   7.147  1.6455 -0.3434 -0.5272
26030SOL     OW80531   8.476   2.074   0.114  0.0758  0.3172 -0.5969
26030SOL    HW180532   8.417   2.033   0.052  1.8096 -2.0499 -0.8321
26030SOL    HW280533   8.444   2.046   0.200 -1.1054  1.9080 -0.4650
26031SOL     OW80534   5.958   6.164   4.907 -0.8434  0.1725  0.1097
26031SOL    HW180535   6.023   6.143   4.974 -0.1707  0.3816 -0.4613
26031SOL    HW280536   5.878   6.182   4.956  0.0240  1.9122  0.9875
26032SOL     OW80537   4.857   2.468   0.548 -0.1499 -0.2283  0.4552
26032SOL    HW180538   4.779   2.412   0.544  0.9423 -1.7697 -1.8701
26032SOL    HW280539   4.905   2.446   0.468  1.5517  2.3571  0.6729
26033SOL     OW80540   1.906   6.048   4.032 -0.2607  0.4292  0.8660
26033SOL    HW180541   1.874   6.092   4.111 -1.2961  0.2358  0.5608
26033SOL    HW280542   1.986   6.096   4.010  0.9267 -0.4677  2.8782
26034SOL     OW80543   6.161  10.374   7.043 -0.1338 -0.2044  1.0041
26034SOL    HW180544   6.229  10.360   7.109 -0.7927 -2.4427  1.2703
26034SOL    HW280545   6.146  10.288   7.005 -1.8508  0.5012 -0.0275
26035SOL     OW80546   8.954   0.217   3.277 -0.1059 -0.4733 -0.4793
26035SOL    HW180547   8.981   0.238   3.366 -1.1065 -2.1770  0.2606
26035SOL    HW280548   8.881   0.275   3.259 -0.3610 -0.6248  0.0778
26036SOL     OW80549   7.062   1.984   1.259  0.4986 -0.1354  0.1218
26036SOL    HW180550   6.970   2.007   1.247  0.4775 -0.2556  0.0529
26036SOL    HW280551   7.105   2.067   1.278  0.6289  0.1610 -1.3765
26037SOL     OW80552   8.476   0.706   9.266 -0.1241  0.0033  0.2170
26037SOL    HW180553   8.486   0.623   9.313 -1.7430 -0.1231  0.4029
26037SOL    HW280554   8.536   0.699   9.192  1.0284 -0.6064  1.1811
26038SOL     OW80555   0.822  10.281   2.941  0.2316 -0.4405  0.9640
26038SOL    HW180556   0.904  10.254   2.983  1.1960 -0.4310 -0.8039
26038SOL    HW280557   0.783  10.199   2.910  0.7685 -0.2795 -0.2141
26039SOL     OW80558   5.193   3.608   3.623  0.5414  0.2217 -0.0907
26039SOL    HW180559   5.141   3.648   3.693 -0.3379  0.3143 -0.7861
26039SOL    HW280560   5.264   3.564   3.670  0.5654  1.1562  0.7935
26040SOL     OW80561   0.533   8.080   2.116  0.4114  0.3807  0.2481
26040SOL    HW180562   0.563   8.115   2.199 -1.6496 -0.3761  1.3892
26040SOL    HW280563   0.553   7.986   2.121 -1.0682  0.0669  0.5608
26041SOL     OW80564   4.266   5.315   8.100  0.4701 -0.0541  0.3013
26041SOL    HW180565   4.306   5.361   8.174  0.5616 -0.7813  0.7085
26041SOL    HW280566   4.240   5.230   8.135 -0.8823  0.1590 -0.1141
26042SOL     OW80567   6.198   5.034   7.849  0.6812 -0.2185 -0.0805
26042SOL    HW180568   6.285   5.064   7.822 -0.5068  3.8432 -0.0918
26042SOL    HW280569   6.207   5.020   7.944  1.2135  1.0036  0.0776
26043SOL     OW80570   3.605   0.048  10.224  0.1706  0.4050  0.1240
26043SOL    HW180571   3.637  -0.014  10.290  0.5856  0.1703 -0.2882
26043SOL    HW280572   3.597  -0.004  10.144 -2.0597  0.2593  0.3876
26044SOL     OW80573  10.247   1.758   6.301  0.4698  0.1819  0.7173
26044SOL    HW180574  10.194   1.837   6.287  1.0699  0.3617 -0.8132
26044SOL    HW280575  10.183   1.687   6.303  0.0467  0.5363  0.3052
26045SOL     OW80576   4.171   8.619   3.966  0.2344 -0.1592  0.1603
26045SOL    HW180577   4.113   8.554   4.003 -0.5032  0.4065  0.0267
26045SOL    HW280578   4.214   8.660   4.041 -0.0167 -0.1467  0.2958
26046SOL     OW80579   5.712   3.644   5.960  0.5467  0.3994  0.9006
26046SOL    HW180580   5.762   3.564   5.975  0.5105 -0.8807 -4.0022
26046SOL    HW280581   5.769   3.698   5.904 -1.8701  0.6586 -1.5216
26047SOL     OW80582   5.368   8.874   1.922  0.4177 -0.0786 -0.3051
26047SOL    HW180583   5.452   8.892   1.965 -0.3897  1.0727  0.8891
26047SOL    HW280584   5.323   8.814   1.982  0.7163 -1.4440 -1.3909
26048SOL     OW80585   9.978   9.472   8.558 -0.0248 -0.1916  0.1466
26048SOL    HW180586  10.023   9.552   8.586 -1.1601  0.0812  1.2943
26048SOL    HW280587   9.913   9.503   8.494  1.7977 -0.6714 -2.0675
26049SOL     OW80588   8.319   5.733   8.923  0.2987 -0.5567  0.4431
26049SOL    HW180589   8.266   5.674   8.976  0.2163 -0.0602  0.9235
26049SOL    HW280590   8.315   5.817   8.969  3.1684 -0.9617  1.6110
26050SOL     OW80591   6.013   1.907   2.599 -0.2979  0.1201  0.0155
26050SOL    HW180592   6.010   1.924   2.693 -0.0112  0.4677 -0.0347
26050SOL    HW280593   5.978   1.987   2.559 -0.9676 -0.2471 -0.1568
26051SOL     OW80594   5.025   1.464   0.515  0.2233 -0.1794  0.6061
26051SOL    HW180595   4.989   1.375   0.517  0.6387 -0.3798 -0.1354
26051SOL    HW280596   4.968   1.514   0.573 -0.7373 -0.6729  0.1219
26052SOL     OW80597   7.046   9.757   2.888  0.6905  0.0430  0.3760
26052SOL    HW180598   7.056   9.669   2.923  2.1877 -0.6697 -1.6700
26052SOL    HW280599   7.134   9.783   2.861  0.1670  1.9003  0.2925
26053SOL     OW80600   0.285   8.230   5.605  0.0276  0.4806 -0.4645
26053SOL    HW180601   0.274   8.154   5.662 -3.2677 -0.6979 -2.4474
26053SOL    HW280602   0.352   8.203   5.542  1.4242  0.6413  0.8833
26054SOL     OW80603   8.541   9.499   8.610 -0.1552  0.3345 -0.4973
26054SOL    HW180604   8.519   9.520   8.519 -0.6151 -1.5933 -0.8794
26054SOL    HW280605   8.456   9.496   8.654  0.1101  1.9587  0.2096
26055SOL     OW80606   1.911   9.368   5.254 -0.5625 -0.1325 -0.2132
26055SOL    HW180607   1.940   9.278   5.266 -0.0096 -0.0060 -0.5479
26055SOL    HW280608   1.986   9.412   5.215 -0.7027  0.5561  0.2710
26056SOL     OW80609  10.269   0.216   4.502  0.4426  0.2032  0.3366
26056SOL    HW180610  10.188   0.263   4.521  0.1131  0.5544 -1.6776
26056SOL    HW280611  10.245   0.124   4.504  0.4352  0.2192  1.5229
26057SOL     OW80612   8.755   3.776   8.698 -0.1345  0.3523 -0.1805
26057SOL    HW180613   8.724   3.782   8.789 -0.2023  1.0117 -0.2396
26057SOL    HW280614   8.806   3.695   8.696 -1.7301 -0.6839 -0.0584
26058SOL     OW80615   0.045   5.636   2.083 -0.1864  0.1924  0.3441
26058SOL    HW180616  -0.008   5.707   2.047 -0.3021 -1.0948 -2.2031
26058SOL    HW280617  -0.014   5.590   2.143 -0.7667  0.9756  0.3901
26059SOL     OW80618   2.574   5.926   0.714  0.6447 -0.3591 -0.4542
26059SOL    HW180619   2.650   5.980   0.697 -0.7745  1.8167 -0.3104
26059SOL    HW280620   2.506   5.961   0.656 -0.9003 -0.6388  1.0933
26060SOL     OW80621   5.931   2.427   8.524  0.0721  0.5508 -0.2839
26060SOL    HW180622   5.895   2.513   8.501 -1.4052 -0.0073 -0.1799
26060SOL    HW280623   5.961   2.390   8.440 -1.1663  0.3551 -0.6639
26061SOL     OW80624   6.586   7.102   5.673  0.2367 -0.6873 -0.3847
26061SOL    HW180625   6.541   7.158   5.737 -1.0234 -0.6092 -1.3109
26061SOL    HW280626   6.652   7.055   5.725 -1.5046 -1.5089  1.2178
26062SOL     OW80627   6.896   5.990   5.135  0.9404  0.3757 -0.0114
26062SOL    HW180628   6.924   6.008   5.225 -1.7473  0.3668  0.9080
26062SOL    HW280629   6.926   6.066   5.085  3.6252 -0.2127  0.5490
26063SOL     OW80630   8.003   3.296   1.175  0.4967  0.1795  0.3688
26063SOL    HW180631   7.971   3.207   1.192 -0.1170  0.4523  0.6740
26063SOL    HW280632   7.987   3.310   1.082 -1.1229  0.6244  0.6765
26064SOL     OW80633   0.124   7.503   6.376  0.0191  0.2311 -0.3262
26064SOL    HW180634   0.142   7.567   6.445 -0.4678 -1.4089  1.4106
26064SOL    HW280635   0.189   7.434   6.390  0.0080 -0.0711 -1.6391
26065SOL     OW80636   5.764   9.328   0.706 -0.7146 -0.2841  0.0618
26065SOL    HW180637   5.803   9.397   0.759  0.4678 -0.3183 -0.7482
26065SOL    HW280638   5.685   9.302   0.755 -0.3577  0.5836  1.1251
26066SOL     OW80639   9.452   5.146   3.871  0.1434 -0.5369 -0.1450
26066SOL    HW180640   9.514   5.166   3.801  1.4515  1.2947  1.4490
26066SOL    HW280641   9.495   5.079   3.924 -1.3153 -2.7653 -1.5912
26067SOL     OW80642   6.298   7.823   6.160  0.2260  0.3143 -0.3068
26067SOL    HW180643   6.305   7.903   6.109 -0.5179  0.9461  0.5334
26067SOL    HW280644   6.371   7.826   6.222  1.1796 -0.4945 -1.3515
26068SOL     OW80645  10.283   6.312   2.592 -0.0028  0.4273  0.3626
26068SOL    HW180646  10.345   6.328   2.521 -0.0315 -0.5237  0.1055
26068SOL    HW280647  10.335   6.327   2.672 -0.2380  2.4762  0.1841
26069SOL     OW80648   1.995   1.066  10.336 -0.3823 -0.5579  0.2454
26069SOL    HW180649   1.990   1.031  10.426  2.1666  1.7682  1.4210
26069SOL    HW280650   2.056   1.008  10.291 -0.1157 -0.5778  0.6266
26070SOL     OW80651   8.937   6.207   9.053  0.4153 -0.2718 -0.6648
26070SOL    HW180652   8.948   6.293   9.095  1.2343 -0.5340 -0.3174
26070SOL    HW280653   9.014   6.158   9.080 -1.1603 -1.9420  1.0670
26071SOL     OW80654   9.224   6.306   1.889 -0.8656  0.2030  0.1339
26071SOL    HW180655   9.274   6.382   1.859 -2.1425  1.1899  0.4128
26071SOL    HW280656   9.267   6.232   1.847  0.2503  1.0962 -0.3774
26072SOL     OW80657   8.396   4.553   1.768  0.0633 -0.6970 -0.1790
26072SOL    HW180658   8.328   4.539   1.835  1.3841 -0.9968  1.1670
26072SOL    HW280659   8.470   4.588   1.817  0.3404  1.2807 -1.8831
26073SOL     OW80660   2.644   3.499  10.074  0.2047  0.1250 -0.4410
26073SOL    HW180661   2.566   3.445  10.067 -0.4187  0.7690  1.1448
26073SOL    HW280662   2.635   3.544  10.158  1.3881  1.6145 -1.0605
26074SOL     OW80663   8.281   4.460   2.385  0.0562  0.0004  0.0589
26074SOL    HW180664   8.274   4.386   2.325 -1.8552 -0.1330  0.3880
26074SOL    HW280665   8.279   4.537   2.328  1.4669 -0.1640 -0.2413
26075SOL     OW80666   9.896   2.050   2.661  0.0487 -0.0117 -0.3433
26075SOL    HW180667   9.966   2.112   2.684  0.1042  1.3231 -3.5538
26075SOL    HW280668   9.928   2.008   2.581 -0.9809 -2.6555  0.5448
26076SOL     OW80669   3.213   0.864   2.528  0.1105 -0.2903 -0.8568
26076SOL    HW180670   3.152   0.936   2.544  0.6050 -0.0905  0.1641
26076SOL    HW280671   3.209   0.811   2.607  1.7492  0.0774 -0.5051
26077SOL     OW80672   0.196   1.702   0.199  0.1211 -0.1524 -0.1493
26077SOL    HW180673   0.133   1.696   0.271  0.2920  2.5055  0.3541
26077SOL    HW280674   0.269   1.752   0.237  1.7857 -1.6662 -1.2150
26078SOL     OW80675   2.790   9.013   6.408 -0.4327 -0.0484 -0.0711
26078SOL    HW180676   2.831   9.092   6.443 -0.7284 -0.1246  0.4608
26078SOL    HW280677   2.815   8.944   6.469 -0.7043 -0.2430 -0.1789
26079SOL     OW80678   2.911   1.317   4.888 -0.0916  0.0351  0.3849
26079SOL    HW180679   2.869   1.335   4.972 -0.6176 -0.4760  0.2416
26079SOL    HW280680   2.855   1.251   4.847 -0.1567  0.6887 -0.6214
26080SOL     OW80681   3.367   7.852   4.019  0.0574 -0.4033  0.5707
26080SOL    HW180682   3.364   7.803   4.101  0.2738 -1.0628  0.1922
26080SOL    HW280683   3.294   7.913   4.024 -0.2768 -0.8367  1.0037
26081SOL     OW80684   9.176   0.256   4.091  0.2886 -0.5357  0.8848
26081SOL    HW180685   9.223   0.185   4.135  0.7359  0.7413  2.5365
26081SOL    HW280686   9.186   0.332   4.148 -0.6307  0.7524 -0.5715
26082SOL     OW80687   6.828   2.192   9.500 -0.5001  0.1970  0.3321
26082SOL    HW180688   6.783   2.236   9.429  0.3721  1.2858  0.4380
26082SOL    HW280689   6.878   2.261   9.544 -0.5872 -0.5496  1.6587
26083SOL     OW80690   4.646   5.351   8.386 -0.1702  0.0011 -0.0029
26083SOL    HW180691   4.685   5.265   8.369  0.6065 -0.1610  2.2600
26083SOL    HW280692   4.563   5.350   8.339 -0.8530 -2.5618  1.1272
26084SOL     OW80693   4.588   4.461   6.178 -0.4129  0.1192  0.0763
26084SOL    HW180694   4.613   4.553   6.179 -0.5001  0.1368  1.0495
26084SOL    HW280695   4.493   4.461   6.185 -0.4796 -0.0315 -0.7285
26085SOL     OW80696   9.811   5.540   2.655  0.3887 -0.1614  0.2861
26085SOL    HW180697   9.806   5.500   2.568 -2.3692 -0.1699  0.3536
26085SOL    HW280698   9.795   5.633   2.639 -0.0681 -0.1525  0.7655
26086SOL     OW80699   1.252   1.407   6.366  0.2842  0.1204  0.4644
26086SOL    HW180700   1.322   1.433   6.307 -0.6677 -0.2787 -0.8782
26086SOL    HW280701   1.191   1.356   6.312 -0.3919 -0.6717  1.8806
26087SOL     OW80702   8.761   5.860  10.209  0.4266 -0.1200  0.6389
26087SOL    HW180703   8.857   5.856  10.203  0.4950  2.1388 -1.3569
26087SOL    HW280704   8.735   5.915  10.135 -2.3698  0.0445  1.6413
26088SOL     OW80705   3.497   0.066   7.509 -0.1180  0.0609 -0.3780
26088SOL    HW180706   3.579   0.113   7.524 -0.0584 -0.1964  0.1307
26088SOL    HW280707   3.479   0.078   7.416  0.4174  0.2467 -0.4604
26089SOL     OW80708   7.796   5.659   7.211 -0.3912  0.3674  0.3570
26089SOL    HW180709   7.785   5.599   7.285  0.0164  0.8546  0.8305
26089SOL    HW280710   7.875   5.709   7.233 -0.5257  0.8310 -0.1901
26090SOL     OW80711   2.763   2.641   7.396  0.1433 -0.5574 -0.3233
26090SOL    HW180712   2.791   2.632   7.305 -0.8901  2.8572 -1.1336
26090SOL    HW280713   2.837   2.609   7.447  2.0959  0.3999 -2.3659
26091SOL     OW80714   8.595   9.463   5.772 -0.2999  0.6967  0.0493
26091SOL    HW180715   8.593   9.371   5.801  0.1662  0.5060 -0.5118
26091SOL    HW280716   8.528   9.506   5.826 -0.9402 -0.0971 -0.0906
26092SOL     OW80717   9.648   4.563   0.263  0.2371  0.0753  0.5276
26092SOL    HW180718   9.615   4.623   0.330  0.2234  0.6931 -0.0124
26092SOL    HW280719   9.627   4.607   0.180  1.6426  0.0904  0.1529
26093SOL     OW80720   5.505   5.084   0.255  0.4672  0.0856 -0.3918
26093SOL    HW180721   5.451   5.104   0.178 -0.2002  0.9105  0.2661
26093SOL    HW280722   5.445   5.039   0.315  0.4524  1.1480  0.4143
26094SOL     OW80723   6.293   5.088   5.265  0.7160  0.0325 -0.3275
26094SOL    HW180724   6.279   4.996   5.286  0.6823  0.1153  0.0110
26094SOL    HW280725   6.369   5.114   5.318  0.8112  0.1617 -0.5252
26095SOL     OW80726   6.073   2.038   9.749 -0.0550  0.1925 -0.7860
26095SOL    HW180727   6.104   1.958   9.792  1.6904  1.3791  0.3083
26095SOL    HW280728   6.058   2.100   9.821  0.8926  1.5610 -1.7131
26096SOL     OW80729   2.277   9.008  10.036 -0.0320 -0.4282 -0.1283
26096SOL    HW180730   2.320   9.084  10.075 -0.9984  0.1682 -0.2138
26096SOL    HW280731   2.240   9.040   9.954 -0.7298 -0.9031 -0.0076
26097SOL     OW80732   0.112   8.172   7.608  0.2947  0.5506  0.5668
26097SOL    HW180733   0.070   8.258   7.616 -2.1043 -0.6443  1.7495
26097SOL    HW280734   0.077   8.137   7.526  1.2828  0.6549  0.0809
26098SOL     OW80735   8.654   4.442   3.206 -0.5999 -0.5224 -0.7662
26098SOL    HW180736   8.571   4.469   3.167 -0.3719  0.3178 -0.6902
26098SOL    HW280737   8.687   4.521   3.249 -0.1200 -1.0412 -0.1611
26099SOL     OW80738   7.214   2.803   9.200 -0.2496 -0.1781 -0.7778
26099SOL    HW180739   7.284   2.744   9.170 -2.3132 -1.6638 -3.0372
26099SOL    HW280740   7.222   2.880   9.144  1.0168  0.7570  0.6226
26100SOL     OW80741   4.005   7.388   3.379 -0.1979 -0.4411  0.4394
26100SOL    HW180742   4.097   7.414   3.365  0.1766 -0.7143  2.1983
26100SOL    HW280743   3.995   7.308   3.328  0.4551 -0.2708  0.0249
26101SOL     OW80744   0.170   5.966  10.319  0.5774 -0.4888  0.0853
26101SOL    HW180745   0.121   6.004  10.392  0.0480  1.1282 -1.0392
26101SOL    HW280746   0.261   5.991  10.335  0.2808  1.0500 -0.4564
26102SOL     OW80747   7.457   3.962   9.296  0.3638 -0.1623 -1.0739
26102SOL    HW180748   7.367   3.939   9.272  0.5137 -0.0199 -1.7939
26102SOL    HW280749   7.451   3.992   9.387 -0.6377  1.6942 -1.7073
26103SOL     OW80750   4.169   4.922   3.897 -0.5773  0.1676  0.0715
26103SOL    HW180751   4.135   5.011   3.884 -2.4558 -0.5278 -0.1982
26103SOL    HW280752   4.155   4.879   3.813 -0.3016 -0.5594  0.3897
26104SOL     OW80753   7.106   4.699   2.289 -0.5827  0.0649 -0.1328
26104SOL    HW180754   7.035   4.666   2.344  1.2476 -1.1814  1.6192
26104SOL    HW280755   7.089   4.793   2.283 -1.4423  0.0779  1.7358
26105SOL     OW80756   9.733   0.548   6.043 -0.0600  0.3277  0.0160
26105SOL    HW180757   9.793   0.618   6.069  0.2965 -0.2484  0.7872
26105SOL    HW280758   9.729   0.490   6.119 -0.2378 -0.5645 -0.6507
26106SOL     OW80759  10.042   9.274   0.959  0.2084 -0.4540  0.0262
26106SOL    HW180760  10.120   9.279   1.015  0.1362  0.8245  0.0463
26106SOL    HW280761  10.045   9.355   0.907 -0.9146 -0.5596 -0.2273
26107SOL     OW80762   1.188   0.966   1.232 -0.5842  0.0351  0.4865
26107SOL    HW180763   1.135   0.952   1.153  0.6868 -0.3673 -0.3260
26107SOL    HW280764   1.142   0.919   1.301 -1.4062 -0.0999 -0.1395
26108SOL     OW80765  10.239   1.405   6.436 -0.0953  0.5763  0.1198
26108SOL    HW180766  10.146   1.421   6.454  0.0081 -0.4779  1.8717
26108SOL    HW280767  10.282   1.486   6.463 -0.2466  0.0133  2.2292
26109SOL     OW80768   8.192   6.541   8.316 -0.1186  0.1397  0.0344
26109SOL    HW180769   8.137   6.512   8.244  1.0469  1.6796 -1.5501
26109SOL    HW280770   8.136   6.600   8.367 -1.0509 -1.2234  0.6418
26110SOL     OW80771   7.936   3.307   2.298 -0.6671  0.1880  0.2573
26110SOL    HW180772   7.848   3.343   2.302 -0.2922  1.2133 -0.4705
26110SOL    HW280773   7.985   3.368   2.244  0.3681 -0.6422  0.2235
26111SOL     OW80774   4.798   7.736   8.337 -0.4345 -0.1741  0.1796
26111SOL    HW180775   4.744   7.795   8.283 -0.2693  0.0577  0.2639
26111SOL    HW280776   4.738   7.703   8.403 -0.4269  0.2449  0.3990
26112SOL     OW80777   0.956   8.487   6.421  0.0004 -0.9330  0.3194
26112SOL    HW180778   1.004   8.562   6.458  0.2175 -1.4422  1.0935
26112SOL    HW280779   1.020   8.416   6.418  0.1673 -0.7535 -1.6450
26113SOL     OW80780   7.234   0.515   3.744 -0.5445 -0.5002  0.0952
26113SOL    HW180781   7.158   0.508   3.687  0.1688  2.4192 -1.3764
26113SOL    HW280782   7.198   0.543   3.828 -1.1362  0.4910 -0.4776
26114SOL     OW80783   4.693   6.143   7.010  0.7189  0.0726  0.1733
26114SOL    HW180784   4.701   6.238   7.000 -0.0109  0.1351  0.1516
26114SOL    HW280785   4.766   6.108   6.959  0.1767  0.5816 -0.9898
26115SOL     OW80786   0.204   0.615   5.229 -0.0640  0.1105 -0.0650
26115SOL    HW180787   0.163   0.700   5.246  0.5155  0.6596 -1.2610
26115SOL    HW280788   0.280   0.636   5.174 -0.2188 -1.2322 -0.8296
26116SOL     OW80789   7.044   5.331   2.856  0.3084 -0.0574 -0.3227
26116SOL    HW180790   7.096   5.294   2.927 -0.4521  1.9444  1.3933
26116SOL    HW280791   7.067   5.424   2.856 -2.9421  0.8779  0.3692
26117SOL     OW80792   1.111   2.724   9.770 -0.0630 -0.2534  0.0095
26117SOL    HW180793   1.075   2.812   9.780  0.7554  0.0383  0.5189
26117SOL    HW280794   1.057   2.683   9.702 -2.5670 -0.5194  1.9951
26118SOL     OW80795   3.953   2.421   7.840  0.3174  0.1183  0.0185
26118SOL    HW180796   4.020   2.428   7.907 -1.2424 -0.2039  1.6788
26118SOL    HW280797   3.965   2.333   7.802  0.8974  0.1161  0.2104
26119SOL     OW80798   0.219   6.319   4.401 -0.0155  0.1951  0.3654
26119SOL    HW180799   0.308   6.286   4.385  1.4092  1.5039  4.3413
26119SOL    HW280800   0.169   6.241   4.423  0.5282 -0.4036 -0.4356
26120SOL     OW80801   2.087   8.833   3.895  0.0352 -0.2731 -0.1418
26120SOL    HW180802   2.124   8.830   3.807 -0.6153  0.7443 -0.4703
26120SOL    HW280803   2.115   8.917   3.930 -0.2011 -0.4167  0.4010
26121SOL     OW80804   8.790   2.053   6.391  0.1399 -0.2061  0.0954
26121SOL    HW180805   8.852   2.123   6.371 -0.2949 -0.2212 -1.4585
26121SOL    HW280806   8.778   2.007   6.308 -0.5313 -1.3554  0.7985
26122SOL     OW80807   1.224   5.403   0.058  0.3817  0.5492 -0.1802
26122SOL    HW180808   1.131   5.415   0.079  0.2291  2.9973 -1.9500
26122SOL    HW280809   1.244   5.316   0.093 -2.6738 -0.2712 -0.1397
26123SOL     OW80810   8.034   5.797   2.484  0.0280 -0.3344 -0.2376
26123SOL    HW180811   8.030   5.701   2.475 -0.4249 -0.4697  1.1107
26123SOL    HW280812   8.081   5.810   2.567  1.1948  0.6554 -1.0245
26124SOL     OW80813   9.476   4.694   3.226 -0.0110  0.0191 -0.3758
26124SOL    HW180814   9.467   4.622   3.164  0.6375 -0.4674  0.0795
26124SOL    HW280815   9.560   4.735   3.203  0.3792 -0.3532  0.3614
26125SOL     OW80816   7.706   5.867   9.148  0.2176  0.4543  0.5738
26125SOL    HW180817   7.624   5.893   9.190  0.0094 -0.7004  0.9152
26125SOL    HW280818   7.721   5.934   9.082 -1.0037  0.6829  0.5052
26126SOL     OW80819   4.372   9.526   3.407  0.5834 -0.4424 -0.1974
26126SOL    HW180820   4.452   9.476   3.389  0.6880  0.0371 -1.1778
26126SOL    HW280821   4.403   9.607   3.448  0.3375 -1.5709  2.3683
26127SOL     OW80822   2.824   2.391   3.110 -0.2711  0.0768 -0.5387
26127SOL    HW180823   2.826   2.302   3.076 -0.7199  0.4872 -1.6998
26127SOL    HW280824   2.916   2.418   3.111 -0.1612 -0.2943 -0.4605
26128SOL     OW80825   7.997   3.475   1.385  0.1885 -0.3286 -0.4386
26128SOL    HW180826   7.998   3.406   1.318 -0.9457  0.2590 -1.1116
26128SOL    HW280827   7.933   3.445   1.449  0.8067 -0.5923  0.0647
26129SOL     OW80828   0.773   9.138   8.370 -0.0685 -0.0835  0.0701
26129SOL    HW180829   0.696   9.157   8.316 -0.3687  0.6334  0.7284
26129SOL    HW280830   0.767   9.044   8.387 -1.3769  0.1321  0.9429
26130SOL     OW80831   9.936   9.978   9.823 -0.9069  0.5202 -0.1707
26130SOL    HW180832   9.963  10.050   9.766 -0.1609 -0.5767 -1.2632
26130SOL    HW280833   9.868   9.932   9.773 -0.0720 -0.5973 -0.3105
26131SOL     OW80834   4.803   9.818   1.357 -0.1793 -0.9097 -0.1770
26131SOL    HW180835   4.829   9.826   1.449 -1.3449  0.4306  0.0788
26131SOL    HW280836   4.791   9.909   1.328 -2.9366 -1.3509 -0.7028
26132SOL     OW80837   6.091   4.370   4.280  0.4504  0.3835  0.2243
26132SOL    HW180838   6.045   4.387   4.362 -0.8003 -0.9959 -0.1558
26132SOL    HW280839   6.175   4.333   4.307 -0.5728 -1.5973  0.9220
26133SOL     OW80840   1.630   6.512   6.967 -0.0079  0.1109  0.1363
26133SOL    HW180841   1.710   6.524   6.917 -0.9126  2.4655 -0.9122
26133SOL    HW280842   1.637   6.424   7.005  3.6250  0.7013  1.1666
26134SOL     OW80843   7.311   5.134   1.857 -0.1247  0.0253  0.5200
26134SOL    HW180844   7.330   5.219   1.818  0.8686 -0.0906  0.7428
26134SOL    HW280845   7.356   5.071   1.801 -0.6048 -0.3388  0.5327
26135SOL     OW80846   6.628   4.184   1.724 -0.4549 -0.3674 -0.0889
26135SOL    HW180847   6.628   4.261   1.781 -0.2406 -1.4921  1.5014
26135SOL    HW280848   6.632   4.220   1.635 -0.3147  1.4406  0.6048
26136SOL     OW80849   9.357   5.826   5.112 -0.6301  0.0667  0.2978
26136SOL    HW180850   9.297   5.756   5.086 -2.1175  2.0937 -2.1175
26136SOL    HW280851   9.383   5.803   5.201 -0.8766 -3.6217 -0.4327
26137SOL     OW80852   2.237   0.539   0.683  0.0131 -0.1762 -0.5835
26137SOL    HW180853   2.301   0.499   0.743 -2.0339 -1.6937  0.7198
26137SOL    HW280854   2.214   0.470   0.622 -0.1804  0.4367 -1.2173
26138SOL     OW80855   3.532   3.947   3.982  0.1667 -0.0352 -0.4153
26138SOL    HW180856   3.545   3.872   3.923 -0.3813  1.5551 -2.6742
26138SOL    HW280857   3.616   3.992   3.982  0.5854 -0.7510  1.1780
26139SOL     OW80858   0.344   5.166   2.255 -0.5785 -0.0488  0.1657
26139SOL    HW180859   0.251   5.161   2.232 -0.6181 -0.5091  0.4022
26139SOL    HW280860   0.353   5.249   2.302 -0.8420  0.0609  0.0238
26140SOL     OW80861   8.143   2.774   4.363  0.5527  0.9662  0.5300
26140SOL    HW180862   8.211   2.778   4.431 -0.1347 -1.3760  1.4783
26140SOL    HW280863   8.071   2.826   4.398  0.1897 -0.2512  1.6873
26141SOL     OW80864   0.914   1.657   4.598  0.0620  0.2149 -0.1051
26141SOL    HW180865   0.958   1.587   4.550  0.9924 -0.0180  1.0348
26141SOL    HW280866   0.981   1.723   4.614 -0.7040  1.1831 -0.7854
26142SOL     OW80867   1.464   8.639   7.972  0.0933 -0.4408 -0.3843
26142SOL    HW180868   1.517   8.559   7.973 -1.0423 -1.2265  0.6983
26142SOL    HW280869   1.384   8.615   7.925  0.4116  0.5575 -1.4889
26143SOL     OW80870   8.369   4.846   2.555 -0.1306  0.2328  0.0242
26143SOL    HW180871   8.393   4.863   2.646 -1.5602  0.6794  0.3549
26143SOL    HW280872   8.274   4.856   2.554 -0.5115 -2.7076 -0.9030
26144SOL     OW80873   2.425   1.670   2.707  0.1253 -0.2481 -0.7901
26144SOL    HW180874   2.446   1.588   2.661  2.4596  0.3983 -1.0518
26144SOL    HW280875   2.409   1.733   2.636 -1.0583 -0.3161 -0.5987
26145SOL     OW80876   0.109   7.866   3.462 -0.0835 -0.3677 -0.2483
26145SOL    HW180877   0.128   7.801   3.394  0.6607 -0.6030  0.1663
26145SOL    HW280878   0.182   7.927   3.457 -0.6583  0.3047 -0.4713
26146SOL     OW80879   5.492   4.348   2.977  0.1642 -0.4615 -0.1414
26146SOL    HW180880   5.584   4.375   2.983 -0.2981  1.8249 -1.9367
26146SOL    HW280881   5.483   4.280   3.044  2.5867  0.8388  1.6795
26147SOL     OW80882   6.128   0.427   4.560 -0.1437 -0.2238 -0.5351
26147SOL    HW180883   6.223   0.433   4.570 -0.0512 -0.5937 -1.1153
26147SOL    HW280884   6.108   0.337   4.586 -0.4708  0.1561  0.5591
26148SOL     OW80885   6.349   2.474   8.759  0.5672  0.4427 -0.4802
26148SOL    HW180886   6.303   2.496   8.840 -1.9063 -3.2884 -0.6128
26148SOL    HW280887   6.442   2.482   8.780  0.0138 -0.5678  2.8203
26149SOL     OW80888   0.784   5.350   5.363  0.2526  0.0874  0.0057
26149SOL    HW180889   0.698   5.377   5.396  0.4528  0.7842 -0.0250
26149SOL    HW280890   0.846   5.409   5.406  0.4126  2.0986 -2.7235
26150SOL     OW80891   3.253   2.844   7.164 -0.2036 -0.5675  0.6324
26150SOL    HW180892   3.200   2.778   7.120  0.4632 -0.7772  0.1308
26150SOL    HW280893   3.197   2.877   7.235 -0.5308 -1.6825  0.9082
26151SOL     OW80894   4.030   5.138   8.032 -0.2490  0.2819  0.3911
26151SOL    HW180895   4.079   5.086   8.096  3.0340  2.7906  0.1833
26151SOL    HW280896   3.950   5.164   8.078 -0.5044 -2.2618  1.5466
26152SOL     OW80897   6.000   0.427   1.387 -0.1949  0.4737  0.0557
26152SOL    HW180898   5.963   0.377   1.460  0.3577 -1.1080 -0.7019
26152SOL    HW280899   6.017   0.362   1.320  0.3867  1.7351 -1.0611
26153SOL     OW80900   4.235   4.552   4.085  0.6260  0.2431 -0.1592
26153SOL    HW180901   4.282   4.607   4.147 -0.5821  2.1480 -0.8332
26153SOL    HW280902   4.173   4.612   4.042 -0.2256 -1.4989 -1.4939
26154SOL     OW80903  10.247   1.204   7.265  0.1353  0.3248  0.0271
26154SOL    HW180904  10.252   1.132   7.203 -0.5163 -0.6783  1.1174
26154SOL    HW280905  10.182   1.177   7.330 -1.3909  2.5829 -0.4159
26155SOL     OW80906   0.310   6.040   9.028 -0.4411  1.3904  0.3433
26155SOL    HW180907   0.397   6.032   9.068 -1.2774  0.0734  2.0496
26155SOL    HW280908   0.249   6.016   9.098 -2.0143 -1.1607 -1.6865
26156SOL     OW80909   0.899   3.699   3.450  0.3846 -0.2125  0.0394
26156SOL    HW180910   0.882   3.638   3.378  1.3047 -1.5753  0.9442
26156SOL    HW280911   0.857   3.658   3.526  0.7372  0.4493  0.5949
26157SOL     OW80912   6.212   3.520   2.609  0.0682 -0.6637 -0.1899
26157SOL    HW180913   6.219   3.615   2.620 -1.2924 -0.6445  0.7688
26157SOL    HW280914   6.242   3.504   2.520 -1.8138  0.9801 -1.2132
26158SOL     OW80915   7.269   4.637   0.027 -0.0480 -0.2657  0.1634
26158SOL    HW180916   7.312   4.687  -0.042  0.6215  0.9208  1.4046
26158SOL    HW280917   7.192   4.689   0.049 -0.1274 -0.5190  0.4850
26159SOL     OW80918   4.728   1.979   9.952 -0.6083  0.5061 -0.3152
26159SOL    HW180919   4.790   2.038   9.909 -1.3936  0.8614 -0.9624
26159SOL    HW280920   4.772   1.955  10.034 -0.2172  1.8756 -0.1013
26160SOL     OW80921   0.451   5.836   7.025 -0.1293 -0.3660 -0.0997
26160SOL    HW180922   0.409   5.922   7.019  0.3812  0.0211  1.2695
26160SOL    HW280923   0.447   5.814   7.118  0.8545 -1.2584 -0.2459
26161SOL     OW80924   6.472   6.095   7.900  0.0101  0.5533 -0.0261
26161SOL    HW180925   6.435   6.131   7.981  0.6688  1.3564 -0.0655
26161SOL    HW280926   6.437   6.152   7.831 -0.0201  0.2826 -0.2355
26162SOL     OW80927   5.097   4.545   8.185  0.3420 -0.0797 -0.0561
26162SOL    HW180928   5.058   4.578   8.266 -0.2564  0.3762 -0.5226
26162SOL    HW280929   5.191   4.542   8.203  0.2455  0.3391  0.5378
26163SOL     OW80930   1.608   0.800   1.854  0.0435  0.0252  0.2326
26163SOL    HW180931   1.673   0.802   1.924 -0.6096 -0.8585  0.8832
26163SOL    HW280932   1.550   0.874   1.873  0.8225  0.8107 -0.3447
26164SOL     OW80933   9.822   9.259   1.528 -0.2969  0.2637 -0.3089
26164SOL    HW180934   9.751   9.271   1.591 -0.3040  1.5588 -0.5459
26164SOL    HW280935   9.887   9.324   1.552  0.3058 -0.1506 -0.7999
26165SOL     OW80936   3.156   9.426   1.983 -0.1099 -0.0810 -0.0212
26165SOL    HW180937   3.080   9.454   2.033  0.4687 -1.0578  1.4669
26165SOL    HW280938   3.231   9.466   2.028  0.4535 -1.2501  0.1139
26166SOL     OW80939  10.435   1.851   9.420 -0.4886  0.1461 -0.1131
26166SOL    HW180940  10.341   1.864   9.432 -0.2559  1.7291  0.1429
26166SOL    HW280941  10.476   1.917   9.476  0.7590  0.1924 -1.0398
26167SOL     OW80942   2.451   3.384   8.671  0.2718 -0.3203  0.3557
26167SOL    HW180943   2.380   3.360   8.731 -1.4913 -2.0753 -2.2566
26167SOL    HW280944   2.435   3.333   8.592  2.7181  1.5420 -1.5190
26168SOL     OW80945   3.039   8.370   1.498  0.1547  0.6398 -0.2126
26168SOL    HW180946   3.061   8.323   1.578 -1.1196  0.5726  0.1159
26168SOL    HW280947   3.057   8.307   1.428  2.7793  1.2109 -0.1559
26169SOL     OW80948   9.722   0.016   2.413 -0.2418  0.0912 -0.9048
26169SOL    HW180949   9.669   0.092   2.389  0.9617  0.2190 -3.4926
26169SOL    HW280950   9.811   0.040   2.390  0.4672 -1.3899  0.1114
26170SOL     OW80951   0.809   9.428   4.115  0.1400 -0.4215 -0.2884
26170SOL    HW180952   0.801   9.451   4.208  0.3512 -1.2846 -0.0481
26170SOL    HW280953   0.877   9.487   4.082  0.9725 -0.9603  0.4107
26171SOL     OW80954   7.602   0.997   0.914 -0.4475 -0.0257  0.3037
26171SOL    HW180955   7.651   1.055   0.972 -1.4005  2.0482 -0.8891
26171SOL    HW280956   7.511   1.004   0.945 -0.6511 -0.5102 -0.1712
26172SOL     OW80957   0.219   1.055   1.839 -0.0173 -0.6646 -0.4131
26172SOL    HW180958   0.233   0.998   1.914  1.5856 -0.2708 -0.3779
26172SOL    HW280959   0.143   1.108   1.863  2.3308  1.8062  2.5004
26173SOL     OW80960   2.596   5.377   6.813 -0.8077 -0.5031  0.2517
26173SOL    HW180961   2.515   5.402   6.857 -0.3640  0.4357  0.5766
26173SOL    HW280962   2.632   5.307   6.867 -0.7246  0.0202  0.8900
26174SOL     OW80963   2.062   5.473   2.165 -0.2511 -0.8638  0.2106
26174SOL    HW180964   2.046   5.413   2.092 -0.3744 -0.3818 -0.1656
26174SOL    HW280965   2.142   5.519   2.142 -0.2806 -0.7191  0.3905
26175SOL     OW80966   8.567   9.981   6.279 -0.4608  0.6262 -0.2475
26175SOL    HW180967   8.661   9.972   6.263  0.4596  2.0074  3.3913
26175SOL    HW280968   8.539   9.894   6.308  0.3493  0.8273  1.2135
26176SOL     OW80969   6.683   2.427  10.057  0.1996  0.2739  0.2892
26176SOL    HW180970   6.710   2.493   9.992  1.6153 -0.1000  0.4804
26176SOL    HW280971   6.679   2.345  10.007 -0.1020  0.2341  0.3770
26177SOL     OW80972   2.569   2.828   3.527 -0.0884  0.0161 -0.2809
26177SOL    HW180973   2.601   2.902   3.476 -0.3718 -0.5165 -1.2423
26177SOL    HW280974   2.582   2.855   3.618  0.0073  1.1584 -0.6181
26178SOL     OW80975   5.441   8.206   0.377  0.1678  0.0274  0.0111
26178SOL    HW180976   5.406   8.125   0.340 -0.7274  0.3419  0.1386
26178SOL    HW280977   5.409   8.275   0.319  0.7224  0.3123  0.0408
26179SOL     OW80978   7.779   7.874   9.128 -0.1227  0.0072 -0.1565
26179SOL    HW180979   7.793   7.854   9.220  0.5077 -2.1538 -0.6638
26179SOL    HW280980   7.842   7.943   9.108  0.8799 -0.6476  0.6567
26180SOL     OW80981   2.442   2.193   0.810 -0.1877  0.0576 -0.5002
26180SOL    HW180982   2.379   2.173   0.740 -0.5384 -1.8233  0.2942
26180SOL    HW280983   2.417   2.280   0.840 -2.4791 -0.6078 -0.2250
26181SOL     OW80984   9.677   8.103   2.302  0.1887 -0.8023  0.4689
26181SOL    HW180985   9.646   8.046   2.372 -0.6780  0.3624  1.0788
26181SOL    HW280986   9.654   8.192   2.331  0.8196 -0.1955 -0.7781
26182SOL     OW80987   3.338   2.578   8.524 -0.5758 -0.2060 -0.0090
26182SOL    HW180988   3.321   2.537   8.439 -3.6731  0.8246 -0.0231
26182SOL    HW280989   3.394   2.652   8.504  0.3154 -1.0690 -0.8393
26183SOL     OW80990   6.060   5.623   8.298 -0.0318  0.2334 -0.2012
26183SOL    HW180991   5.965   5.624   8.310 -0.0853  1.3728 -0.5737
26183SOL    HW280992   6.092   5.696   8.352  0.8008 -0.9965  1.0412
26184SOL     OW80993   9.134   6.182   9.807  0.1916 -0.3274  0.1666
26184SOL    HW180994   9.212   6.227   9.841 -0.0841 -0.3088  0.7759
26184SOL    HW280995   9.100   6.242   9.741  1.7099 -1.1368 -1.4320
26185SOL     OW80996   0.800   3.293   1.476  0.2456  0.1796 -0.0325
26185SOL    HW180997   0.852   3.262   1.402 -0.4522  0.0833 -0.4872
26185SOL    HW280998   0.780   3.384   1.455  0.6823  0.3790  0.3994
26186SOL     OW80999   4.836   3.951   9.770  0.1095  0.5001 -0.4857
26186SOL    HW181000   4.801   3.925   9.684 -0.7958  1.6094 -0.4686
26186SOL    HW281001   4.921   3.990   9.750 -0.1523  0.8671 -0.8918
26187SOL     OW81002   9.253   3.789  10.181  0.1875 -0.4722  0.0335
26187SOL    HW181003   9.227   3.819  10.094  2.0103 -1.9754 -1.0750
26187SOL    HW281004   9.266   3.870  10.231 -0.2115  0.4278 -1.2813
26188SOL     OW81005   6.535   2.782   2.635  0.2075  0.0316  0.4332
26188SOL    HW181006   6.503   2.703   2.680  0.1535  0.4519  1.1505
26188SOL    HW281007   6.621   2.756   2.601 -0.2316 -0.6312 -0.1826
26189SOL     OW81008   5.893   5.969   2.997  0.0560 -0.2495 -0.3478
26189SOL    HW181009   5.813   6.004   3.038  0.1195 -0.9216  0.3664
26189SOL    HW281010   5.957   5.966   3.068  0.8820  0.7412 -1.0231
26190SOL     OW81011   5.047   9.298   1.924 -0.0256 -0.1805  0.2157
26190SOL    HW181012   5.129   9.264   1.888 -0.4806  1.2221 -2.3979
26190SOL    HW281013   5.003   9.221   1.960  0.4275 -1.8534 -2.5141
26191SOL     OW81014   5.995   1.074   9.346  0.3369  0.1616 -0.5490
26191SOL    HW181015   6.063   1.057   9.281 -1.1975 -0.1300 -2.1270
26191SOL    HW281016   5.968   0.987   9.376  1.2850  0.2983  0.8066
26192SOL     OW81017   5.874  10.214   6.644 -0.2380  0.5305 -0.4671
26192SOL    HW181018   5.840  10.130   6.614  1.2724 -0.0261 -0.7055
26192SOL    HW281019   5.889  10.264   6.564 -0.9008  0.9331 -0.3398
26193SOL     OW81020  10.097   8.813   9.017 -0.4929  0.4794  0.4054
26193SOL    HW181021  10.126   8.756   8.946 -1.8607 -1.9191  1.6374
26193SOL    HW281022  10.158   8.795   9.089 -0.4901  1.1599  0.5858
26194SOL     OW81023   4.955   2.652   2.578 -0.2264  0.2201  0.0142
26194SOL    HW181024   4.902   2.707   2.520  0.4272  1.7955  0.8642
26194SOL    HW281025   4.893   2.589   2.614 -0.7134 -0.6156 -2.1144
26195SOL     OW81026   8.576   0.606  10.086 -0.6490 -0.0351 -0.2231
26195SOL    HW181027   8.510   0.622  10.153 -0.6391 -0.8901  0.0044
26195SOL    HW281028   8.632   0.683  10.088 -0.9652  0.1843  0.3804
26196SOL     OW81029   3.121   3.016  10.344 -0.2885 -0.0619 -0.4833
26196SOL    HW181030   3.133   2.935  10.295 -0.1191 -0.9387  0.9430
26196SOL    HW281031   3.141   2.992  10.435 -2.2706  1.0388  0.3082
26197SOL     OW81032   3.593   5.296   9.770  0.0419  0.6107 -0.1439
26197SOL    HW181033   3.682   5.327   9.752  0.5462 -1.4097 -1.4623
26197SOL    HW281034   3.601   5.246   9.852  0.2319  0.1055 -0.4636
26198SOL     OW81035   7.942   7.812   6.974  0.3098  0.1358  0.0371
26198SOL    HW181036   7.923   7.855   6.891 -0.7108 -1.3400 -0.5380
26198SOL    HW281037   7.975   7.725   6.950 -1.5445 -0.9526  1.1134
26199SOL     OW81038   0.649   3.148   1.001 -0.0710 -0.7044 -0.1785
26199SOL    HW181039   0.564   3.112   1.028 -0.3859 -0.3568 -0.6747
26199SOL    HW281040   0.627   3.213   0.935  0.7108 -2.0301 -1.8162
26200SOL     OW81041   2.611   9.872   4.225 -0.7063 -0.2137 -0.2816
26200SOL    HW181042   2.631   9.832   4.140 -0.2297 -0.5710 -0.0042
26200SOL    HW281043   2.639   9.807   4.289 -1.3302 -0.0658  0.1507
26201SOL     OW81044   1.684   6.148   8.377  0.4086 -0.3665  0.1163
26201SOL    HW181045   1.678   6.064   8.332 -2.2047 -1.3075  2.0096
26201SOL    HW281046   1.710   6.127   8.466  0.4709  0.9084  0.4246
26202SOL     OW81047   1.626   7.554   3.093  0.0920 -0.1313 -0.0108
26202SOL    HW181048   1.531   7.552   3.081  0.2492 -3.0490 -1.5862
26202SOL    HW281049   1.658   7.608   3.021 -0.2765 -0.6303 -0.5531
26203SOL     OW81050   4.037   6.521   2.842 -0.2369  0.1864  0.5023
26203SOL    HW181051   4.014   6.540   2.751  1.5200  0.0535 -0.0047
26203SOL    HW281052   3.956   6.488   2.881 -0.9390 -0.0661 -1.0905
26204SOL     OW81053   2.369   2.926   6.896  0.1266  0.4576  0.5002
26204SOL    HW181054   2.318   2.846   6.904  1.6255 -0.6563 -0.6082
26204SOL    HW281055   2.388   2.952   6.987 -0.7893 -0.1345  0.8728
26205SOL     OW81056   7.822   6.714   6.818 -0.0661  0.1064 -0.1812
26205SOL    HW181057   7.749   6.661   6.849 -0.6430 -0.0728 -1.7864
26205SOL    HW281058   7.836   6.686   6.728  2.2273 -0.1092  0.1876
26206SOL     OW81059   2.475   1.848   6.669  0.0979  0.5108 -0.0747
26206SOL    HW181060   2.559   1.822   6.708  0.4851  0.8295 -0.6768
26206SOL    HW281061   2.498   1.919   6.609 -0.9351  2.2465  1.4858
26207SOL     OW81062   5.436   8.735  10.135  0.6770 -0.2068 -0.5058
26207SOL    HW181063   5.440   8.765  10.226  0.0643 -1.4265 -0.0411
26207SOL    HW281064   5.343   8.728  10.116  0.7476 -2.5193 -0.2900
26208SOL     OW81065   0.313   1.296   1.236  0.6932  0.2867  0.1618
26208SOL    HW181066   0.360   1.225   1.281  0.8073  1.3883  1.8471
26208SOL    HW281067   0.358   1.305   1.152  1.1313 -1.1374  0.2120
26209SOL     OW81068   5.201   3.386   4.564 -0.3481  0.3747  0.0983
26209SOL    HW181069   5.192   3.291   4.564 -0.4964  0.3869  0.5950
26209SOL    HW281070   5.277   3.403   4.619  0.1773  0.5020 -0.6637
26210SOL     OW81071   2.164   1.700   9.802  0.9959  0.4474 -0.1142
26210SOL    HW181072   2.246   1.737   9.834  0.9226 -0.1965  0.8553
26210SOL    HW281073   2.106   1.776   9.790  1.9907  1.0149 -1.7014
26211SOL     OW81074   9.574   9.404   8.552  0.1155 -0.2004  0.1225
26211SOL    HW181075   9.641   9.466   8.526 -0.2642 -0.2528 -1.0707
26211SOL    HW281076   9.493   9.439   8.515  0.0586 -1.9402 -1.5940
26212SOL     OW81077   8.207   2.951   7.916 -0.5215 -0.2326  0.4445
26212SOL    HW181078   8.232   2.903   7.837 -0.5924 -0.3195  0.4736
26212SOL    HW281079   8.259   3.031   7.914  0.5953 -0.9177  1.0886
26213SOL     OW81080   4.261   3.578   9.663 -0.3380  0.5463  0.1135
26213SOL    HW181081   4.313   3.507   9.702  1.4206  1.9778  0.4836
26213SOL    HW281082   4.320   3.619   9.599 -0.9290  2.3466  0.6668
26214SOL     OW81083   4.291  10.412  10.327 -0.4631 -0.4452  0.0805
26214SOL    HW181084   4.306  10.448  10.240 -0.5082 -0.0266  0.2425
26214SOL    HW281085   4.340  10.330  10.328 -0.6754 -0.5831 -0.4291
26215SOL     OW81086   4.621   5.207   9.607 -0.2300 -0.4658 -0.0136
26215SOL    HW181087   4.675   5.212   9.686 -0.2036 -2.8658  0.2069
26215SOL    HW281088   4.665   5.142   9.552 -1.4375 -0.4645 -1.0317
26216SOL     OW81089   5.277   0.827  10.470  0.1652 -0.4368 -0.1043
26216SOL    HW181090   5.333   0.793  10.400 -0.6489 -0.7305 -0.6398
26216SOL    HW281091   5.337   0.866  10.533  0.9292 -0.2892 -0.9075
26217SOL     OW81092  10.323   6.479   8.710 -0.3845 -0.7049 -0.0754
26217SOL    HW181093  10.313   6.469   8.616  2.1763  0.3341 -0.5407
26217SOL    HW281094  10.389   6.414   8.735 -3.3917 -3.3917  1.7295
26218SOL     OW81095   1.380   2.791   3.160 -0.2222 -0.2017  0.4697
26218SOL    HW181096   1.417   2.703   3.163 -0.3405 -0.2290  1.8245
26218SOL    HW281097   1.440   2.842   3.105 -1.0113 -1.4819 -1.7122
26219SOL     OW81098   4.987   9.902   9.423 -0.6874 -0.4419 -0.2331
26219SOL    HW181099   4.986   9.932   9.513 -0.6976 -2.8648  0.6484
26219SOL    HW281100   4.897   9.912   9.393 -0.7147  0.2214  0.0556
26220SOL     OW81101   5.514   3.330   4.228 -0.4227  0.0500 -0.2170
26220SOL    HW181102   5.497   3.408   4.175  1.0945 -0.4927 -1.6319
26220SOL    HW281103   5.548   3.266   4.164  0.6513 -0.9400  1.2881
26221SOL     OW81104   4.977   3.176  10.409 -0.0725  0.0442 -0.8109
26221SOL    HW181105   5.061   3.166  10.452 -0.6433  1.0016  0.5942
26221SOL    HW281106   4.986   3.255  10.356  0.0209 -0.0564 -0.9461
26222SOL     OW81107   3.580   9.840   9.618  0.1688  1.1445 -0.1813
26222SOL    HW181108   3.542   9.925   9.593  1.4535  2.1528  1.1076
26222SOL    HW281109   3.565   9.835   9.713  0.8617  0.3311 -0.1061
26223SOL     OW81110   3.541   5.748   3.063  0.0603  1.0142 -0.0165
26223SOL    HW181111   3.573   5.661   3.085 -1.4628  0.2409 -0.7137
26223SOL    HW281112   3.565   5.760   2.971 -1.2534  0.5824 -0.4332
26224SOL     OW81113   3.122   9.523   0.557  0.7296  0.3732 -0.7208
26224SOL    HW181114   3.078   9.550   0.637  0.4810  0.3582 -0.8515
26224SOL    HW281115   3.096   9.588   0.492 -1.0339 -0.9482 -1.4033
26225SOL     OW81116  10.112   4.917   9.655 -0.0334  0.0440  0.1638
26225SOL    HW181117  10.069   4.987   9.704  0.7094  1.2138 -0.8072
26225SOL    HW281118  10.165   4.871   9.720 -0.1789  0.6526  0.7242
26226SOL     OW81119   7.413   4.086   2.840 -0.3234  0.4258 -0.0730
26226SOL    HW181120   7.363   4.017   2.796  1.0672  0.1912 -1.3817
26226SOL    HW281121   7.425   4.153   2.772  2.2990 -0.1561 -0.2846
26227SOL     OW81122   5.107   7.525  10.200 -0.1815  0.1533  0.2004
26227SOL    HW181123   5.057   7.498  10.277  0.7756 -0.5949  0.5908
26227SOL    HW281124   5.173   7.456  10.189 -0.6115 -0.0097 -1.6014
26228SOL     OW81125   4.656   8.445   1.261 -0.3259 -0.1763 -0.0583
26228SOL    HW181126   4.741   8.489   1.259 -0.2559 -0.3195 -1.8900
26228SOL    HW281127   4.655   8.396   1.344  1.6863 -0.8008 -0.3710
26229SOL     OW81128   4.977   7.438   6.088 -0.1053  0.6678  0.1415
26229SOL    HW181129   5.028   7.491   6.150 -1.4980  2.8172 -0.4390
26229SOL    HW281130   4.952   7.500   6.019  2.0709 -1.7697 -3.1232
26230SOL     OW81131   8.252   6.214   2.049  0.2613 -0.3926  0.6955
26230SOL    HW181132   8.314   6.200   2.121  1.5891 -0.2506 -0.3753
26230SOL    HW281133   8.306   6.209   1.970 -1.0151  0.3037 -0.2509
26231SOL     OW81134  10.368  10.423   3.872  0.2400  0.1255 -0.4069
26231SOL    HW181135  10.400  10.333   3.868  0.9469  0.3892 -1.0630
26231SOL    HW281136  10.448  10.477   3.874 -0.1105  0.6975  2.3501
26232SOL     OW81137   5.306   4.327   1.391 -0.3261  0.0194  0.1155
26232SOL    HW181138   5.295   4.245   1.438 -2.0481  0.4492  0.5008
26232SOL    HW281139   5.220   4.347   1.355  0.4776  0.7180 -1.5714
26233SOL     OW81140   2.853   1.053   4.399 -0.4313  0.1254  0.1022
26233SOL    HW181141   2.825   0.965   4.373 -0.1477 -0.5487  1.9156
26233SOL    HW281142   2.922   1.037   4.464  1.1338  1.7119 -1.0975
26234SOL     OW81143   7.660   1.726   5.897 -0.5876 -0.5534  0.7274
26234SOL    HW181144   7.704   1.807   5.924 -0.2158  0.4384 -2.3484
26234SOL    HW281145   7.567   1.742   5.913 -0.5407  0.6348 -0.0775
26235SOL     OW81146   5.393   0.439   9.188  0.6058 -0.2689 -0.8128
26235SOL    HW181147   5.373   0.345   9.197 -0.3085  0.0095  0.4276
26235SOL    HW281148   5.462   0.454   9.253 -0.0434  0.1166 -0.1939
26236SOL     OW81149   9.676   0.073   0.301 -0.1348  0.0977 -0.3697
26236SOL    HW181150   9.739   0.113   0.241  0.7191  0.0318  0.4538
26236SOL    HW281151   9.594   0.071   0.252  0.5090  0.1433 -1.4901
26237SOL     OW81152   5.545   2.765   2.753  0.1026 -0.3610 -1.0888
26237SOL    HW181153   5.522   2.697   2.690 -1.7291 -0.1812 -0.6925
26237SOL    HW281154   5.475   2.831   2.743 -0.9960 -0.9118  1.9373
26238SOL     OW81155   6.166   9.745   4.566 -0.4837  0.0749 -0.0242
26238SOL    HW181156   6.195   9.662   4.603  0.8052  0.3500 -0.3793
26238SOL    HW281157   6.245   9.799   4.562 -1.5456  1.8008  1.4023
26239SOL     OW81158   8.593   7.103   3.755  0.3201 -0.2502 -0.5243
26239SOL    HW181159   8.577   7.169   3.823  2.9808 -1.0481  1.0211
26239SOL    HW281160   8.581   7.020   3.800 -0.8874 -0.8532 -1.8949
26240SOL     OW81161   5.094   4.731   8.684  0.4105  0.8381  0.1558
26240SOL    HW181162   5.024   4.733   8.619  0.1050  1.4858  0.5023
26240SOL    HW281163   5.050   4.739   8.768  0.7802 -0.3042  0.4867
26241SOL     OW81164   6.485   3.409   1.788  0.4368  0.2075 -0.2886
26241SOL    HW181165   6.428   3.354   1.842  1.0224 -1.7541 -1.5429
26241SOL    HW281166   6.470   3.378   1.698  2.3141  0.7192 -0.8210
26242SOL     OW81167   7.900   6.701   6.548  0.2316  0.5164  1.0049
26242SOL    HW181168   7.860   6.761   6.485 -0.6262 -1.3170 -0.3002
26242SOL    HW281169   7.994   6.722   6.544  0.1626  0.6542 -0.7074
26243SOL     OW81170  10.242   2.469   7.531 -0.5869 -0.9676  0.2047
26243SOL    HW181171  10.173   2.535   7.544 -0.3253 -0.5028 -0.7202
26243SOL    HW281172  10.280   2.458   7.618 -1.2567 -0.5905  0.5560
26244SOL     OW81173   6.720   6.605   5.763  0.1564 -0.1802 -0.0571
26244SOL    HW181174   6.767   6.545   5.821  2.0982  0.4705 -0.8578
26244SOL    HW281175   6.648   6.552   5.728  1.9036 -2.1635 -0.9017
26245SOL     OW81176   7.948  10.002   7.228  0.1123  0.1063 -0.8163
26245SOL    HW181177   7.990  10.009   7.314  1.6370 -1.7459 -1.3338
26245SOL    HW281178   7.864  10.047   7.239  0.0439 -0.4526  1.7818
26246SOL     OW81179   9.588   1.904   6.699 -0.1693 -0.0387 -0.3521
26246SOL    HW181180   9.682   1.890   6.698 -0.0887 -0.3396  2.3971
26246SOL    HW281181   9.577   1.996   6.723 -0.4534 -0.6517  2.1849
26247SOL     OW81182   2.324   0.065   2.381  0.5691 -0.3888 -0.0794
26247SOL    HW181183   2.315   0.114   2.463 -1.0052 -0.6128 -0.0805
26247SOL    HW281184   2.354   0.130   2.318 -0.3548  0.3288  0.1927
26248SOL     OW81185   4.871   5.556   1.016 -0.6344 -0.0933  0.2923
26248SOL    HW181186   4.900   5.486   0.957 -1.3377  0.3512 -0.6088
26248SOL    HW281187   4.922   5.632   0.989 -1.5873  0.3371 -0.3700
26249SOL     OW81188  10.001   0.391   9.709 -0.3149  0.3118  0.1590
26249SOL    HW181189   9.934   0.347   9.657 -0.6687  1.6047 -0.5176
26249SOL    HW281190  10.075   0.400   9.650  0.2666 -0.5498  0.7157
26250SOL     OW81191   5.685   5.079   0.980 -0.2016  0.5043 -0.3569
26250SOL    HW181192   5.771   5.102   0.945  0.0957 -0.4811 -0.3056
26250SOL    HW281193   5.648   5.162   1.011  1.2704  0.7356  0.8321
26251SOL     OW81194   4.994   6.711   0.486  0.6561 -0.2849  0.0626
26251SOL    HW181195   4.935   6.786   0.494  0.5934 -0.4250  1.0262
26251SOL    HW281196   4.936   6.637   0.467  0.4955 -0.4234  1.0147
26252SOL     OW81197  10.191   0.801   2.073  0.1968 -0.0560  0.7460
26252SOL    HW181198  10.250   0.770   2.005  1.7728  1.3003  1.4376
26252SOL    HW281199  10.119   0.737   2.074 -0.0888  0.0758 -2.4093
26253SOL     OW81200   3.344   9.696   0.350  0.2751  0.4451 -0.0197
26253SOL    HW181201   3.308   9.640   0.282 -0.2417  0.0015  0.6037
26253SOL    HW281202   3.424   9.652   0.378 -0.4185 -0.2933  0.8542
26254SOL     OW81203   2.301   8.371   0.489  0.0352  0.0266  0.2838
26254SOL    HW181204   2.371   8.398   0.549  1.6196 -0.6874 -1.1652
26254SOL    HW281205   2.346   8.345   0.409 -2.0748  2.5098 -1.8987
26255SOL     OW81206   5.178   9.835   7.045 -0.5050  0.1429  0.8232
26255SOL    HW181207   5.263   9.804   7.077  0.4709  1.6759 -0.1141
26255SOL    HW281208   5.195   9.925   7.017 -2.5624  0.6332  1.0137
26256SOL     OW81209   8.725   9.632   4.446  0.0394 -0.4817 -0.4940
26256SOL    HW181210   8.672   9.667   4.517 -0.2695 -2.9118  0.5619
26256SOL    HW281211   8.666   9.573   4.399  0.6648 -0.0363 -1.8875
26257SOL     OW81212   7.220   7.743   9.005  0.3579 -0.2303 -0.4601
26257SOL    HW181213   7.307   7.709   8.987  1.3169  1.1490  1.2722
26257SOL    HW281214   7.235   7.832   9.037 -1.6545 -0.0536  0.1257
26258SOL     OW81215   7.662   4.459   5.316 -0.1642  0.2948  0.4774
26258SOL    HW181216   7.757   4.465   5.308 -0.1123  0.0187  0.8626
26258SOL    HW281217   7.637   4.532   5.373 -0.0987 -0.0467  0.9567
26259SOL     OW81218   6.161   6.176  10.178 -0.9861 -0.0561  0.6939
26259SOL    HW181219   6.255   6.176  10.160 -1.0733  1.1564  0.1261
26259SOL    HW281220   6.138   6.084  10.186 -0.6471 -0.8370 -4.2035
26260SOL     OW81221   9.135   0.900   4.067 -0.0031  0.5903 -0.0377
26260SOL    HW181222   9.048   0.877   4.034 -0.0162 -0.5536  0.7364
26260SOL    HW281223   9.141   0.995   4.056 -1.2287  0.6349 -0.3932
26261SOL     OW81224   1.201   3.505   0.176 -0.0051  0.4967 -0.5814
26261SOL    HW181225   1.140   3.475   0.108  0.2387 -0.4718 -0.3866
26261SOL    HW281226   1.158   3.482   0.258  1.5557 -2.3696 -0.4086
26262SOL     OW81227   5.989   9.759   7.506 -0.0516  0.6912 -0.1649
26262SOL    HW181228   6.058   9.695   7.491 -1.4901 -0.5962 -1.7949
26262SOL    HW281229   5.992   9.816   7.429 -1.2399  0.1451 -0.6492
26263SOL     OW81230   8.260   3.632   8.447  0.5216  0.1245 -0.2828
26263SOL    HW181231   8.294   3.660   8.362 -0.4243 -1.1565 -1.1165
26263SOL    HW281232   8.287   3.540   8.454  0.4597  0.1772  0.7447
26264SOL     OW81233   8.527   5.408   4.024  0.3593  0.0960  0.0989
26264SOL    HW181234   8.502   5.330   4.075 -1.9077  0.3716 -0.5191
26264SOL    HW281235   8.502   5.482   4.080 -0.8411  0.3847 -0.7836
26265SOL     OW81236   0.165   5.065   1.658 -0.1924  0.5059 -0.2512
26265SOL    HW181237   0.178   4.974   1.630  1.6127  0.5485  0.3489
26265SOL    HW281238   0.249   5.091   1.697 -1.2750  1.8214  1.3332
26266SOL     OW81239   1.812   2.007   7.035 -0.3629  0.1506  0.0870
26266SOL    HW181240   1.838   1.962   7.115 -0.8179 -2.9597 -1.3562
26266SOL    HW281241   1.731   2.052   7.058  1.7887  3.2025  2.4688
26267SOL     OW81242   0.476   7.026   0.078 -0.4502  0.1266 -0.7813
26267SOL    HW181243   0.390   7.000   0.044 -0.9017  0.4044  0.1262
26267SOL    HW281244   0.519   6.944   0.100 -0.4565 -0.0158 -1.2750
26268SOL     OW81245   9.048   1.808   8.402  0.3293 -0.1486 -0.0010
26268SOL    HW181246   9.034   1.730   8.455  0.0151 -1.6375 -2.1574
26268SOL    HW281247   9.041   1.778   8.312 -0.3916  2.4975 -0.9248
26269SOL     OW81248   8.602   1.371   0.054 -0.0665 -0.2471 -0.1824
26269SOL    HW181249   8.604   1.321   0.135 -0.8826  1.9987  1.2955
26269SOL    HW281250   8.656   1.448   0.071 -0.7592  0.5834 -1.5523
26270SOL     OW81251   7.031   3.940   6.846 -0.3155 -0.2790 -0.0385
26270SOL    HW181252   7.007   4.033   6.848  0.9925  0.0745  0.4369
26270SOL    HW281253   7.119   3.939   6.809 -0.8471 -1.4811 -1.3737
26271SOL     OW81254   3.662   1.714   1.548 -0.0567  0.0995  0.3765
26271SOL    HW181255   3.746   1.686   1.512 -0.0099  0.1043  0.4825
26271SOL    HW281256   3.663   1.810   1.540 -0.0492  0.1001  0.3851
26272SOL     OW81257   7.647   3.533   2.580  0.2462  0.2448  0.1156
26272SOL    HW181258   7.726   3.554   2.531  1.2656 -0.2328  1.5019
26272SOL    HW281259   7.653   3.586   2.660  0.2943 -1.4233  1.2581
26273SOL     OW81260   3.781  10.155   2.858 -0.3084 -0.5153 -0.5862
26273SOL    HW181261   3.756  10.072   2.819  1.8013 -0.9827 -1.0964
26273SOL    HW281262   3.877  10.156   2.853 -0.2507  1.8741 -0.4522
26274SOL     OW81263   4.649   8.264   9.594 -0.0242  0.8033  0.1030
26274SOL    HW181264   4.566   8.250   9.548  0.2910 -0.9655  0.0018
26274SOL    HW281265   4.628   8.250   9.686 -0.0757  1.5631  0.2125
26275SOL     OW81266   4.116   8.581   6.993  0.0191  0.4933 -0.3255
26275SOL    HW181267   4.032   8.594   6.948 -0.0914 -0.2015 -0.3350
26275SOL    HW281268   4.173   8.544   6.926 -0.4708 -1.6119  0.3507
26276SOL     OW81269   0.367   1.768   5.485 -0.2999 -0.0633 -0.0384
26276SOL    HW181270   0.329   1.694   5.533 -2.2630  1.2297  0.5155
26276SOL    HW281271   0.405   1.728   5.406  2.6969 -2.2088  2.2523
26277SOL     OW81272   3.974   5.506   2.220  0.0216  0.1726  0.1538
26277SOL    HW181273   4.041   5.518   2.153  1.0968 -1.1419  0.9479
26277SOL    HW281274   3.898   5.472   2.172  0.2945  0.6117 -0.5975
26278SOL     OW81275   8.687   5.011   4.291 -0.1357  0.6522 -0.6667
26278SOL    HW181276   8.636   4.981   4.216 -0.1895  0.2880 -0.4883
26278SOL    HW281277   8.726   4.931   4.327  1.2130  1.0004 -1.2749
26279SOL     OW81278   4.651   1.491   3.404 -0.1393  0.2501  0.0371
26279SOL    HW181279   4.708   1.568   3.403 -1.8678  1.7232  2.7918
26279SOL    HW281280   4.661   1.456   3.492 -0.5520 -1.8398 -0.7067
26280SOL     OW81281   6.822   8.606   7.992 -0.0223  0.0055 -0.1922
26280SOL    HW181282   6.755   8.667   7.962  1.8375  1.5966 -1.3831
26280SOL    HW281283   6.831   8.543   7.920  1.6274  1.4564 -1.3505
26281SOL     OW81284   3.998  10.406   2.159 -0.2065 -0.3998 -0.4017
26281SOL    HW181285   4.086  10.408   2.120 -0.2806 -2.2771 -0.7350
26281SOL    HW281286   4.013  10.378   2.250 -0.3361  0.9597  0.0715
26282SOL     OW81287   4.770   2.111   9.048  0.1594  0.2029  0.4619
26282SOL    HW181288   4.729   2.195   9.030 -1.0606 -0.3440  0.5868
26282SOL    HW281289   4.824   2.126   9.126 -0.7159  0.6685  0.9872
26283SOL     OW81290   2.809   7.708   4.752  0.5442  0.1277 -0.2255
26283SOL    HW181291   2.863   7.658   4.814 -0.3742  0.3325  0.7684
26283SOL    HW281292   2.764   7.642   4.701  0.0316 -0.0791  0.4714
26284SOL     OW81293   5.998   3.140   3.444 -0.1294 -0.3119  0.2619
26284SOL    HW181294   6.065   3.074   3.426  0.8116  1.0997 -1.7226
26284SOL    HW281295   5.918   3.089   3.462  0.8065 -1.9855 -0.0993
26285SOL     OW81296   5.525   3.038   3.769  0.8876  0.1076 -0.2079
26285SOL    HW181297   5.560   3.060   3.683 -1.1453  0.2760 -1.0661
26285SOL    HW281298   5.447   3.093   3.778  0.0648 -1.1594  0.9624
26286SOL     OW81299   2.977   3.195   7.602 -0.0384 -0.6605  0.5269
26286SOL    HW181300   2.902   3.212   7.659 -0.2094 -0.3605  0.2093
26286SOL    HW281301   3.023   3.122   7.645  0.3825  0.2056  1.5776
26287SOL     OW81302   6.837   0.195   3.789 -0.6875  0.2801  0.4723
26287SOL    HW181303   6.793   0.275   3.763 -0.5551  0.3285  0.3971
26287SOL    HW281304   6.926   0.222   3.813  0.0323 -0.1067 -1.5515
26288SOL     OW81305   8.004   8.340   8.564 -0.3843 -0.1557 -0.0798
26288SOL    HW181306   7.998   8.433   8.542 -1.9516 -0.5335 -1.4726
26288SOL    HW281307   7.913   8.310   8.568  0.0449 -1.3744  1.6469
26289SOL     OW81308  10.068   4.349   6.034 -0.1959  0.1788  0.2389
26289SOL    HW181309  10.133   4.409   5.997 -0.6091 -0.2466 -1.2528
26289SOL    HW281310  10.115   4.268   6.048  0.1996  0.6276  1.6150
26290SOL     OW81311   7.461   9.796   8.554  0.1171  0.4248  0.2873
26290SOL    HW181312   7.469   9.855   8.479 -0.5184 -0.5430 -0.5770
26290SOL    HW281313   7.551   9.767   8.572  0.2109  0.1616 -0.5383
26291SOL     OW81314   5.930   1.378   0.858 -0.5148 -0.1721  0.5315
26291SOL    HW181315   5.886   1.306   0.902  0.7784 -0.4103  1.4843
26291SOL    HW281316   5.865   1.448   0.854 -1.7725 -1.3527 -0.3770
26292SOL     OW81317   1.044   3.854  10.176  0.0144  0.3164 -0.4610
26292SOL    HW181318   1.103   3.856  10.251  1.8124  2.0675 -1.8072
26292SOL    HW281319   0.957   3.870  10.213  0.6467 -0.2984  1.3705
26293SOL     OW81320   9.677  10.054   3.804 -0.6113  0.3641  0.0535
26293SOL    HW181321   9.597  10.104   3.822 -0.1662  0.9365  0.4544
26293SOL    HW281322   9.744  10.120   3.788 -0.3381 -0.1150 -0.8566
26294SOL     OW81323   0.877   7.540   5.306 -0.0504  0.7752  0.0071
26294SOL    HW181324   0.904   7.591   5.230 -0.6698  1.3888  0.1869
26294SOL    HW281325   0.782   7.546   5.306 -0.0552  0.7780  0.8312
26295SOL     OW81326   3.223   5.629   5.640 -0.2015  0.3259  0.6965
26295SOL    HW181327   3.140   5.593   5.670 -0.2265 -0.0418  0.1865
26295SOL    HW281328   3.248   5.691   5.709 -0.0312 -0.8260  1.7040
26296SOL     OW81329   8.194   7.766   1.359  0.1238  0.0618 -0.5089
26296SOL    HW181330   8.194   7.824   1.283  0.4647  1.4514  0.5147
26296SOL    HW281331   8.116   7.791   1.408  1.0553  0.7105  0.6922
26297SOL     OW81332  10.090   9.947   0.758  0.0499  0.7594 -0.5890
26297SOL    HW181333  10.154   9.877   0.772 -0.4861  0.2831 -0.5002
26297SOL    HW281334  10.137  10.027   0.784  0.5403  0.3919 -0.3217
26298SOL     OW81335   2.014   0.509   2.861  0.1010 -0.2243  0.3768
26298SOL    HW181336   2.075   0.532   2.931  1.7288 -1.5114 -0.5428
26298SOL    HW281337   2.029   0.415   2.846 -1.1944 -0.2842 -0.7534
26299SOL     OW81338   8.665   2.348   8.056 -0.7600 -1.0253 -0.3579
26299SOL    HW181339   8.656   2.407   7.981  0.1453  1.2381  1.2038
26299SOL    HW281340   8.736   2.385   8.107 -0.0560 -3.6019  0.6886
26300SOL     OW81341   3.565   5.282   4.323 -0.3828  0.1476  0.1459
26300SOL    HW181342   3.597   5.261   4.235 -1.4387  0.5050 -0.3463
26300SOL    HW281343   3.611   5.362   4.347  1.5650 -1.1004  0.8703
26301SOL     OW81344   0.086   0.272   5.885 -0.2146 -0.0304 -0.7185
26301SOL    HW181345   0.002   0.306   5.855  0.5272  1.9352 -0.6726
26301SOL    HW281346   0.123   0.229   5.808 -0.3494  0.9084 -1.3134
26302SOL     OW81347   0.482   4.287   1.918 -0.4239  0.0684  0.1476
26302SOL    HW181348   0.456   4.335   1.839  1.1421  1.6996  0.5677
26302SOL    HW281349   0.576   4.305   1.927 -0.3506 -0.9667  1.7990
26303SOL     OW81350   0.380   4.916   9.993 -0.1140 -0.6887 -0.0853
26303SOL    HW181351   0.375   4.948   9.903  1.6606 -0.8777 -0.2977
26303SOL    HW281352   0.400   4.993  10.046  2.0508 -1.0316 -0.3185
26304SOL     OW81353   8.198  10.227   4.418  0.1587  0.1588  0.2736
26304SOL    HW181354   8.146  10.308   4.416  0.5636  0.4095 -0.9485
26304SOL    HW281355   8.149  10.169   4.476 -0.3391  1.1476  0.8686
26305SOL     OW81356   8.409   9.212   8.000 -0.6855  0.4320 -0.3009
26305SOL    HW181357   8.430   9.252   8.084 -0.1473 -0.8055  0.1725
26305SOL    HW281358   8.479   9.241   7.941  0.2248 -0.5006  0.2741
26306SOL     OW81359   5.825   1.526   4.580 -0.0599 -0.0313 -0.1672
26306SOL    HW181360   5.861   1.460   4.639  1.3521  0.4318 -0.4660
26306SOL    HW281361   5.852   1.497   4.493  0.0859  0.6363 -0.3495
26307SOL     OW81362   1.653   4.187   8.374 -0.3213  0.6324  0.7276
26307SOL    HW181363   1.695   4.104   8.395 -0.3639  1.1700  3.1941
26307SOL    HW281364   1.560   4.172   8.390 -0.5371  0.7255 -0.3579
26308SOL     OW81365   2.787   6.259   7.845  0.2652 -0.4632 -0.0224
26308SOL    HW181366   2.862   6.241   7.902  0.9962  0.7785 -0.5753
26308SOL    HW281367   2.747   6.337   7.882 -1.4352 -1.6903  0.9004
26309SOL     OW81368   3.461   9.860   1.678  0.1623 -0.4824 -0.2646
26309SOL    HW181369   3.540   9.843   1.729  0.0847 -1.8315 -0.5688
26309SOL    HW281370   3.418   9.932   1.724  0.7737 -0.7819  0.7954
26310SOL     OW81371   1.469   2.052   6.586  0.7118  0.3079  0.1466
26310SOL    HW181372   1.448   2.004   6.666 -0.5328  1.1911  0.3805
26310SOL    HW281373   1.384   2.085   6.555  1.3562  1.1489 -0.7738
26311SOL     OW81374   0.339   0.551   1.941 -0.4180 -0.0591  0.6122
26311SOL    HW181375   0.384   0.528   1.860 -1.3616  1.5661 -0.4148
26311SOL    HW281376   0.400   0.524   2.010  1.4698  0.6650 -0.6737
26312SOL     OW81377   0.878   1.395   0.616  0.3353  0.3482  0.5597
26312SOL    HW181378   0.856   1.488   0.627  0.5744  0.5030 -0.2610
26312SOL    HW281379   0.799   1.356   0.579  0.2400  0.2203  0.8920
26313SOL     OW81380   7.881   0.333   9.106 -0.0468  0.7243 -0.2594
26313SOL    HW181381   7.851   0.418   9.138 -1.0269  0.1959  0.2800
26313SOL    HW281382   7.836   0.269   9.162  0.7403 -0.1503 -0.5936
26314SOL     OW81383  10.187   8.692   3.254 -0.3679 -0.5266  0.4168
26314SOL    HW181384  10.194   8.634   3.178  0.0983 -0.7839  0.6507
26314SOL    HW281385  10.123   8.649   3.311 -3.1736  1.2189 -1.1857
26315SOL     OW81386   2.717   2.664   3.974  0.2034 -0.3143 -0.0112
26315SOL    HW181387   2.782   2.717   4.019  0.4908 -1.6302  1.1756
26315SOL    HW281388   2.761   2.581   3.957 -0.6566 -0.6579 -0.6472
26316SOL     OW81389   3.375   1.039   6.372  0.5016 -0.0526  0.1547
26316SOL    HW181390   3.315   0.967   6.355 -0.7254  0.9859 -0.0968
26316SOL    HW281391   3.396   1.075   6.286  0.0292  0.7068  0.3394
26317SOL     OW81392   4.758   2.008   8.601  0.8989  0.4492  0.2156
26317SOL    HW181393   4.795   1.924   8.574  0.0662  0.4686 -1.0201
26317SOL    HW281394   4.666   1.990   8.620  0.5592  1.1927 -0.6621
26318SOL     OW81395   2.413   9.375   1.970  0.5989 -0.0599 -0.0166
26318SOL    HW181396   2.470   9.451   1.977  1.3955 -0.7052  0.6221
26318SOL    HW281397   2.472   9.301   1.959 -0.1156 -0.7396  0.6014
26319SOL     OW81398   6.694   4.161   5.417 -0.4896  0.0252 -0.0065
26319SOL    HW181399   6.678   4.070   5.392  0.3126 -0.0557 -0.2233
26319SOL    HW281400   6.669   4.212   5.340 -1.3482  0.0273  0.2629
26320SOL     OW81401   1.514   8.516   3.847 -0.4814 -0.0354  1.2008
26320SOL    HW181402   1.572   8.578   3.891  0.2104  0.0768  0.1546
26320SOL    HW281403   1.572   8.461   3.795 -1.2488 -0.3518  0.6545
26321SOL     OW81404   5.364   4.962   5.598 -0.3769  0.0271 -0.7891
26321SOL    HW181405   5.404   4.983   5.514  0.8726  2.1131  0.2327
26321SOL    HW281406   5.409   4.883   5.628 -1.6654 -1.4387 -2.5427
26322SOL     OW81407   7.065   7.614   7.438 -0.2390  0.2386  0.9033
26322SOL    HW181408   6.975   7.598   7.411 -0.0656  0.5636  0.0960
26322SOL    HW281409   7.099   7.529   7.463 -0.7054  0.0819  1.0060
26323SOL     OW81410  10.384   1.853   5.499 -0.0361  0.5902 -0.0413
26323SOL    HW181411  10.464   1.865   5.448  0.8798 -0.0831  1.1778
26323SOL    HW281412  10.406   1.888   5.585 -1.5476  1.7234 -0.0796
26324SOL     OW81413   4.105   9.850   4.251  0.2635 -0.1824 -0.0802
26324SOL    HW181414   4.057   9.798   4.316  0.6288  0.6090  0.8474
26324SOL    HW281415   4.120   9.789   4.178 -0.6946 -0.9062  0.3117
26325SOL     OW81416   6.232   5.156   8.889 -0.3586  0.4936  0.4456
26325SOL    HW181417   6.314   5.200   8.909  0.5887 -0.2841 -1.4739
26325SOL    HW281418   6.236   5.074   8.938  1.9801 -1.4433 -2.6461
26326SOL     OW81419   5.037   5.683   6.444  0.3177 -0.0005  0.5906
26326SOL    HW181420   5.131   5.675   6.459  0.5353  2.5269  1.0636
26326SOL    HW281421   5.000   5.703   6.530 -0.5338 -0.0187  0.2441
26327SOL     OW81422   7.489   6.193   4.241 -0.3439 -0.6671  0.3070
26327SOL    HW181423   7.554   6.128   4.214 -0.3840 -0.3104 -0.7008
26327SOL    HW281424   7.532   6.243   4.310  1.5555  1.2810 -2.0757
26328SOL     OW81425   3.354   4.450   7.910 -0.3064  0.3081  0.1801
26328SOL    HW181426   3.427   4.470   7.851 -2.9084 -0.2927 -3.6030
26328SOL    HW281427   3.378   4.366   7.950  0.8043 -0.2262 -1.5031
26329SOL     OW81428   3.524   8.050   6.027 -0.0134  0.0066 -0.4756
26329SOL    HW181429   3.553   8.101   5.952  0.9472 -1.2938 -1.0300
26329SOL    HW281430   3.602   8.002   6.055 -0.1513  0.9961  1.8312
26330SOL     OW81431   7.156   2.166   4.172 -0.0096  0.3302  0.4656
26330SOL    HW181432   7.090   2.225   4.137 -0.4118 -0.8722 -0.9285
26330SOL    HW281433   7.182   2.112   4.097  0.9948 -0.6355  1.4642
26331SOL     OW81434   5.651   3.327   1.391 -0.0624 -0.4971  0.5401
26331SOL    HW181435   5.716   3.393   1.367 -0.6409  0.5789  1.8001
26331SOL    HW281436   5.642   3.335   1.486 -1.4202 -1.1982  0.4992
26332SOL     OW81437   9.599   6.655   6.156  0.1957 -0.2833  0.0694
26332SOL    HW181438   9.562   6.734   6.116 -1.0376 -1.0158 -0.2618
26332SOL    HW281439   9.694   6.666   6.146 -0.0274  0.2193 -1.7891
26333SOL     OW81440   6.181   3.038   2.716  0.7044 -0.3575 -0.0316
26333SOL    HW181441   6.261   3.040   2.663  2.1415 -1.2005  1.9572
26333SOL    HW281442   6.193   3.109   2.780 -0.3439 -0.2309  0.0401
26334SOL     OW81443   6.722  10.440   3.875 -0.5554  0.1211  0.1072
26334SOL    HW181444   6.722  10.411   3.784 -0.5452  1.3600 -0.3113
26334SOL    HW281445   6.751  10.531   3.871 -0.8197  0.2812  1.3278
26335SOL     OW81446   1.376   1.665   3.784  0.2061 -0.2854 -0.1936
26335SOL    HW181447   1.396   1.730   3.717  0.3347 -1.3141 -1.1887
26335SOL    HW281448   1.452   1.607   3.786 -1.0337 -2.0482 -1.3586
26336SOL     OW81449   9.857   4.429   2.334 -0.5043 -0.4888 -0.4511
26336SOL    HW181450   9.900   4.377   2.265 -0.8623 -0.6496 -0.5561
26336SOL    HW281451   9.765   4.403   2.329 -0.5035 -0.6261  0.2060
26337SOL     OW81452   1.467   2.032   4.393  0.4239 -0.4255 -0.5560
26337SOL    HW181453   1.397   1.967   4.396 -0.3419  0.4218  0.6175
26337SOL    HW281454   1.513   2.013   4.311 -1.5916 -0.5891 -1.7282
26338SOL     OW81455   5.090   3.412   1.534  0.0644 -0.1075  0.1982
26338SOL    HW181456   5.003   3.372   1.528 -0.4217  0.5460  2.2389
26338SOL    HW281457   5.145   3.344   1.574  0.6241 -0.6401 -1.3886
26339SOL     OW81458   9.685   3.127   1.605 -0.2612 -0.1594 -0.0394
26339SOL    HW181459   9.703   3.035   1.588 -0.9344 -0.5411  1.2013
26339SOL    HW281460   9.771   3.170   1.599 -0.1768 -0.5252 -2.4240
26340SOL     OW81461   1.133   9.882   9.565 -0.3445  0.3350  0.1028
26340SOL    HW181462   1.207   9.822   9.565 -0.3399  0.3380  0.6799
26340SOL    HW281463   1.152   9.943   9.494 -0.3139 -0.2945 -0.4480
26341SOL     OW81464   6.777   5.688   3.650  0.8420 -0.1242 -0.5063
26341SOL    HW181465   6.845   5.742   3.691 -1.2747  1.1836  1.5234
26341SOL    HW281466   6.811   5.599   3.655  1.6229  0.2365  2.2946
26342SOL     OW81467   4.174   7.660   2.830 -0.8166 -0.1828 -0.2573
26342SOL    HW181468   4.140   7.666   2.919  1.1439 -1.3010  0.6365
26342SOL    HW281469   4.268   7.647   2.841 -0.7851 -2.7488 -2.3667
26343SOL     OW81470  10.289   3.102   2.431  0.3373  0.3025 -1.0532
26343SOL    HW181471  10.367   3.110   2.377  0.3499 -2.3078 -1.5407
26343SOL    HW281472  10.321   3.106   2.521  0.9814 -0.3465 -1.2505
26344SOL     OW81473   2.714   6.136   5.341 -0.4130 -0.2240  0.0615
26344SOL    HW181474   2.790   6.165   5.390 -0.8353  0.1534  0.5049
26344SOL    HW281475   2.746   6.124   5.251 -0.6565  3.7804 -0.7264
26345SOL     OW81476   5.824   6.220   2.422  0.1134 -0.1925  0.7092
26345SOL    HW181477   5.875   6.142   2.398 -0.4254 -0.2115 -0.4511
26345SOL    HW281478   5.854   6.242   2.510  0.8746 -1.2216  0.7293
26346SOL     OW81479   2.897   0.724   3.087 -0.3971  0.3227 -0.2163
26346SOL    HW181480   2.805   0.730   3.114 -0.3595  0.6566 -0.1619
26346SOL    HW281481   2.904   0.787   3.015 -0.0061  0.9181  0.3338
26347SOL     OW81482   5.265  10.185   8.589  0.1658 -0.2573 -0.2162
26347SOL    HW181483   5.322  10.144   8.523 -0.0836 -0.4552 -0.3095
26347SOL    HW281484   5.230  10.263   8.545  0.2285 -0.2297 -0.2179
26348SOL     OW81485   7.168   3.364   1.606  0.4693 -0.2347 -0.1075
26348SOL    HW181486   7.147   3.434   1.668 -0.0242  0.2603 -0.8089
26348SOL    HW281487   7.154   3.404   1.520  1.6736 -0.7296 -0.5624
26349SOL     OW81488   5.806   8.343   1.698  0.3082  0.3251  0.2049
26349SOL    HW181489   5.841   8.345   1.787  1.7247  0.0121 -0.3211
26349SOL    HW281490   5.873   8.386   1.645  0.1667 -0.8360 -0.9450
26350SOL     OW81491   7.647   2.387   6.745 -0.4279 -0.9842 -0.1077
26350SOL    HW181492   7.583   2.458   6.747  1.5257  0.8638  0.7145
26350SOL    HW281493   7.641   2.351   6.657 -0.3191  1.3868 -1.1626
26351SOL     OW81494   8.280   4.290   8.710 -0.1034  0.3355  0.4885
26351SOL    HW181495   8.208   4.334   8.665  0.3733 -0.2582 -0.8993
26351SOL    HW281496   8.353   4.294   8.648  0.8287  0.2186  1.5490
26352SOL     OW81497  10.464   3.993   5.575 -0.2677 -0.5495 -0.2138
26352SOL    HW181498  10.506   3.916   5.613 -0.4945 -0.5693 -0.0027
26352SOL    HW281499  10.521   4.017   5.502  0.1059 -0.5880  0.0585
26353SOL     OW81500   6.792   5.154   2.536  0.8647  0.1447  0.7014
26353SOL    HW181501   6.854   5.089   2.571 -0.2500 -1.2163  0.2358
26353SOL    HW281502   6.708   5.130   2.574 -0.0736 -0.3663 -1.5398
26354SOL     OW81503   3.663   6.822  10.385  0.7737  0.5562 -0.9372
26354SOL    HW181504   3.737   6.865  10.428  0.5276 -1.7793  2.1609
26354SOL    HW281505   3.589   6.838  10.442 -0.5360  0.4968 -2.5495
26355SOL     OW81506  10.130   8.306   5.887  0.1944  0.3959  0.4798
26355SOL    HW181507  10.096   8.217   5.883  1.9001 -0.2775  0.2759
26355SOL    HW281508  10.145   8.322   5.980 -0.3336  0.5752  0.5392
26356SOL     OW81509   5.432   2.059   6.398 -0.3293 -0.3398  0.2160
26356SOL    HW181510   5.414   2.002   6.472 -0.1445  0.0131  0.5381
26356SOL    HW281511   5.500   2.119   6.429 -1.6224  1.0916  0.4215
26357SOL     OW81512   8.186   5.297   8.452 -0.4711 -0.0696  0.2248
26357SOL    HW181513   8.184   5.275   8.545 -3.4742 -1.7635 -0.1292
26357SOL    HW281514   8.098   5.280   8.421 -0.1178  2.3462 -2.5704
26358SOL     OW81515   5.232   0.221   5.513  0.5113 -0.6891  0.2292
26358SOL    HW181516   5.183   0.165   5.453 -0.1125 -0.3249  0.3832
26358SOL    HW281517   5.253   0.165   5.588 -1.4651 -0.3572  1.1002
26359SOL     OW81518   4.515   9.049   3.573  0.7575 -0.3855  0.2759
26359SOL    HW181519   4.589   9.071   3.630 -0.5850  1.8819  1.2942
26359SOL    HW281520   4.438   9.083   3.620 -0.7924 -1.5226 -1.3242
26360SOL     OW81521   8.974   5.961   4.926 -0.3496  0.2392 -0.4832
26360SOL    HW181522   9.034   6.013   4.873 -0.1099 -0.2486 -0.6959
26360SOL    HW281523   9.030   5.917   4.990 -0.5009 -0.0648 -0.5569
26361SOL     OW81524   4.207   1.065   4.675  0.7092  0.2448  0.2979
26361SOL    HW181525   4.115   1.058   4.647  1.3429 -0.5270 -1.7800
26361SOL    HW281526   4.209   1.027   4.762 -0.6628 -1.3616 -0.3236
26362SOL     OW81527   4.702   8.751   1.320 -0.1092  0.2370 -0.1233
26362SOL    HW181528   4.727   8.838   1.350 -2.2891  0.3366  1.6436
26362SOL    HW281529   4.684   8.702   1.401 -3.8585 -0.2614 -1.0684
26363SOL     OW81530   2.017   4.906   4.637 -0.2099 -0.3718  0.1550
26363SOL    HW181531   1.978   4.969   4.575 -1.0464  0.3417  1.3523
26363SOL    HW281532   1.968   4.825   4.623 -0.6821 -0.0924  0.1776
26364SOL     OW81533   4.548   8.970   9.995 -0.2674 -0.1018  0.5714
26364SOL    HW181534   4.628   8.985   9.944 -0.8843 -1.4034 -0.8556
26364SOL    HW281535   4.478   9.000   9.937 -1.0770 -2.7025  0.1039
26365SOL     OW81536   3.667   3.432   6.432 -0.2865  0.3825 -0.0220
26365SOL    HW181537   3.642   3.349   6.473 -1.4140  0.8083  0.1853
26365SOL    HW281538   3.584   3.475   6.412  0.2792  1.1605 -0.7564
26366SOL     OW81539   0.367   5.682   6.745  0.3248  0.1513  0.2083
26366SOL    HW181540   0.285   5.716   6.708  1.0767  1.2423 -0.5237
26366SOL    HW281541   0.430   5.753   6.734  2.1250 -1.6103 -1.9130
26367SOL     OW81542   9.283   9.307   6.668  0.2014  0.8531  0.1035
26367SOL    HW181543   9.291   9.312   6.763  0.4231  0.4892  0.1070
26367SOL    HW281544   9.321   9.222   6.645 -0.8363  0.4629 -0.2054
26368SOL     OW81545  10.205  10.352   1.885 -0.5208  0.0388 -0.1983
26368SOL    HW181546  10.223  10.282   1.948  0.1937 -0.3741 -0.8474
26368SOL    HW281547  10.114  10.376   1.901  0.1042  1.0883  2.0930
26369SOL     OW81548   0.450   9.898   7.940  0.0159 -0.0110 -0.0138
26369SOL    HW181549   0.388   9.971   7.939  0.4665  0.3715 -0.5474
26369SOL    HW281550   0.418   9.841   8.010  0.2723  1.2348  1.1765
26370SOL     OW81551   7.175   8.867   4.065  0.4135  0.3678 -0.5682
26370SOL    HW181552   7.188   8.962   4.060  1.6564  0.2000 -0.8800
26370SOL    HW281553   7.243   8.836   4.124  0.7117 -0.4568 -1.3252
26371SOL     OW81554   0.824   3.620   5.671  0.1446  0.3825  0.4644
26371SOL    HW181555   0.890   3.686   5.693  1.4039 -1.0302  1.1312
26371SOL    HW281556   0.870   3.536   5.681 -1.4299 -0.6112 -0.2363
26372SOL     OW81557   4.130   8.609   7.376 -0.3332  0.0074  0.2424
26372SOL    HW181558   4.072   8.670   7.329 -0.2256  0.1728  0.3283
26372SOL    HW281559   4.070   8.545   7.414 -0.7303  1.7008  2.6649
26373SOL     OW81560   9.336   1.034   2.407  0.1077  0.5645  0.4660
26373SOL    HW181561   9.291   0.975   2.467  0.5882  0.9388  1.2155
26373SOL    HW281562   9.268   1.070   2.351 -0.1619 -0.9030 -0.1903
26374SOL     OW81563   7.622   8.732   4.616 -0.3045  0.5235 -0.2778
26374SOL    HW181564   7.604   8.685   4.698 -0.9514 -0.6805 -1.0676
26374SOL    HW281565   7.671   8.669   4.563  2.5537  2.2152  0.1448
26375SOL     OW81566   2.275   6.614   7.363 -0.2406 -0.1898 -0.3010
26375SOL    HW181567   2.368   6.594   7.365 -0.1246  0.3246 -0.5176
26375SOL    HW281568   2.269   6.700   7.322 -0.6281  0.8561  1.7896
26376SOL     OW81569   4.393   4.803   1.925  0.0398 -0.1285  0.1670
26376SOL    HW181570   4.308   4.759   1.933 -0.7874  0.7387 -2.5829
26376SOL    HW281571   4.457   4.736   1.950 -1.2222 -2.7247 -2.7640
26377SOL     OW81572   7.844   0.894   0.866  0.7317 -0.0423  0.1189
26377SOL    HW181573   7.768   0.949   0.882  0.6008 -0.2603  0.2470
26377SOL    HW281574   7.833   0.820   0.925 -0.0468 -1.1525 -1.3411
26378SOL     OW81575   4.120   1.958   2.743  0.3360  0.3383 -0.9310
26378SOL    HW181576   4.057   1.890   2.718  1.4504 -0.0862 -2.7828
26378SOL    HW281577   4.135   1.943   2.836 -2.2541  0.4547 -0.4048
26379SOL     OW81578   4.925   3.528   2.198  0.0953 -0.0910 -0.8498
26379SOL    HW181579   4.950   3.436   2.204  2.3801  0.4105 -1.8485
26379SOL    HW281580   4.944   3.553   2.107 -0.4537  1.3898 -0.5956
26380SOL     OW81581   9.907   6.161   7.819 -0.3274  0.1418 -0.1112
26380SOL    HW181582   9.898   6.183   7.727  0.4449  0.1104 -0.1971
26380SOL    HW281583   9.882   6.241   7.866 -0.3449  0.2755 -0.3516
26381SOL     OW81584   9.372  10.219   4.395 -0.4051  0.1663  0.1819
26381SOL    HW181585   9.356  10.152   4.462 -0.1027 -0.4254 -0.3288
26381SOL    HW281586   9.466  10.237   4.402 -0.4624  0.4471  0.2285
26382SOL     OW81587   8.307   7.966   3.026 -0.2354  0.0536  0.2735
26382SOL    HW181588   8.292   8.057   3.051  1.8285  0.7698 -0.8977
26382SOL    HW281589   8.269   7.958   2.939  0.6919  0.1697 -0.1516
26383SOL     OW81590   3.294   2.268   5.811  0.2780  0.2325 -0.1402
26383SOL    HW181591   3.240   2.344   5.793 -1.2494 -0.8583 -0.3719
26383SOL    HW281592   3.253   2.226   5.887 -0.4507 -1.6777 -1.4844
26384SOL     OW81593   9.188   2.649   8.691  0.4266 -0.1330 -0.1199
26384SOL    HW181594   9.173   2.557   8.713 -0.1488  0.2585  1.2143
26384SOL    HW281595   9.172   2.654   8.597 -2.8033 -0.7908  0.2758
26385SOL     OW81596   1.535   9.452   1.191 -0.1405  0.2486  0.7127
26385SOL    HW181597   1.499   9.442   1.279 -0.1610  0.4392  0.7273
26385SOL    HW281598   1.465   9.423   1.133  0.3226 -1.1033  0.7915
26386SOL     OW81599  10.146   8.077   6.806 -0.4577  0.0438  0.0897
26386SOL    HW181600  10.141   8.060   6.900 -0.1080 -0.4706  0.0165
26386SOL    HW281601  10.232   8.118   6.794 -0.6160  0.3633  0.0304
26387SOL     OW81602   8.160   8.369   1.306  0.1263 -0.2603  0.3560
26387SOL    HW181603   8.082   8.424   1.300 -0.3731 -0.9204  0.6527
26387SOL    HW281604   8.164   8.324   1.222  1.4705  1.4309 -0.5317
26388SOL     OW81605   9.147   4.211   9.284  0.0988  0.2286  0.2176
26388SOL    HW181606   9.141   4.283   9.221 -1.2163  1.0555  1.2200
26388SOL    HW281607   9.111   4.136   9.238 -0.6491  0.7704 -0.0977
26389SOL     OW81608   8.004   9.618   3.402 -0.0219  0.3748 -0.3991
26389SOL    HW181609   8.061   9.594   3.329  0.9899 -0.9824  0.7785
26389SOL    HW281610   7.991   9.536   3.450 -0.5132  1.2716  1.0472
26390SOL     OW81611   1.502   8.536   3.099  0.5282  0.0454  0.4716
26390SOL    HW181612   1.558   8.598   3.145  0.6620  0.4287 -0.1959
26390SOL    HW281613   1.551   8.513   3.020 -1.0404  1.9265 -1.1676
26391SOL     OW81614   9.224   2.361   2.997  0.0316 -0.2000 -0.7911
26391SOL    HW181615   9.195   2.324   3.081 -0.1660  0.0070 -0.7691
26391SOL    HW281616   9.183   2.307   2.931 -0.4745  0.1412 -0.7620
26392SOL     OW81617   2.551   5.841   8.965  0.0811  0.6266 -0.1465
26392SOL    HW181618   2.549   5.913   9.028 -1.1380  2.0499 -1.7239
26392SOL    HW281619   2.643   5.834   8.940  0.2521  1.5003  0.1920
26393SOL     OW81620   5.013   0.944   7.958  0.1235  0.2869 -0.0583
26393SOL    HW181621   4.941   0.902   7.912  0.7922  0.2212 -1.1045
26393SOL    HW281622   5.071   0.872   7.984  0.9432  0.4723 -1.2728
26394SOL     OW81623   1.659   9.026   2.999 -0.2589  0.2675  0.4036
26394SOL    HW181624   1.695   8.943   2.967  0.7326  1.4115 -1.6992
26394SOL    HW281625   1.730   9.066   3.049 -0.5792  0.0481  1.0352
26395SOL     OW81626   8.998   1.675   9.510  0.0102 -0.3964 -0.1985
26395SOL    HW181627   9.072   1.728   9.541  0.9714 -1.1456 -1.1225
26395SOL    HW281628   8.925   1.701   9.566  0.6661  1.2546 -0.0523
26396SOL     OW81629   2.414   5.465   6.988  0.4728  0.3101 -0.1715
26396SOL    HW181630   2.319   5.462   6.987  0.4319 -0.0926 -3.0785
26396SOL    HW281631   2.436   5.554   7.015 -0.7769  0.9447 -1.1932
26397SOL     OW81632   1.318   9.241   3.722 -0.3443 -0.2031  0.6669
26397SOL    HW181633   1.362   9.156   3.723 -1.6114 -0.9023 -0.1931
26397SOL    HW281634   1.235   9.226   3.766 -1.1009  0.2579 -0.5414
26398SOL     OW81635   3.305   3.968  10.165 -0.3028 -0.6584  0.1144
26398SOL    HW181636   3.233   4.003  10.111  0.1489  1.1935  0.6422
26398SOL    HW281637   3.262   3.910  10.227 -1.1167 -1.0356 -0.7768
26399SOL     OW81638   2.041   3.587   6.763 -0.1256  0.1837  0.1271
26399SOL    HW181639   2.030   3.540   6.680  0.8883  1.4698 -0.7805
26399SOL    HW281640   1.958   3.632   6.777 -0.2597  0.0560 -0.2518
26400SOL     OW81641   1.117   1.952   2.636  0.5143  0.5589  0.1181
26400SOL    HW181642   1.194   1.915   2.680  0.0857  1.4356  1.6737
26400SOL    HW281643   1.108   2.040   2.673 -0.8109  0.7343 -0.5684
26401SOL     OW81644   6.876   8.058   8.428 -0.4203  0.2263 -0.0208
26401SOL    HW181645   6.912   8.079   8.514 -1.0124  0.1391  0.2498
26401SOL    HW281646   6.859   7.964   8.432 -1.4074  0.4042  0.1315
26402SOL     OW81647   6.004   5.046  10.109 -0.0355  0.7004 -0.4773
26402SOL    HW181648   6.089   5.002  10.116  0.2290  1.1833 -0.6416
26402SOL    HW281649   6.015   5.128  10.155 -0.0945  1.2222 -1.3714
26403SOL     OW81650   0.615   9.915   0.719 -0.0553  0.1934 -0.0574
26403SOL    HW181651   0.563   9.994   0.706 -1.0353 -0.5459 -0.8485
26403SOL    HW281652   0.571   9.849   0.665  2.4903 -0.1486 -1.8896
26404SOL     OW81653   2.772   9.544   9.679 -0.0069  0.1816  0.2972
26404SOL    HW181654   2.824   9.528   9.758  0.5853 -0.0399 -0.1340
26404SOL    HW281655   2.703   9.604   9.708  0.5835  0.6174  0.8407
26405SOL     OW81656   3.254   3.573   0.225 -0.4405 -0.0667  0.6344
26405SOL    HW181657   3.329   3.622   0.260 -0.5486  0.6846 -0.1310
26405SOL    HW281658   3.261   3.585   0.130  0.0426 -2.3157  0.3331
26406SOL     OW81659   6.441   8.540   6.183 -0.3934 -0.0365 -0.0799
26406SOL    HW181660   6.453   8.505   6.095  0.4867  0.1096 -0.0292
26406SOL    HW281661   6.448   8.635   6.172 -1.1645  0.0417  0.0241
26407SOL     OW81662   4.860   6.363   8.794 -0.2037  0.5088 -0.5095
26407SOL    HW181663   4.916   6.405   8.730  0.2880 -1.4730 -1.4773
26407SOL    HW281664   4.808   6.301   8.743 -0.7249 -0.2159  0.8408
26408SOL     OW81665   8.198   3.322   4.312  0.2425 -0.0118  0.6153
26408SOL    HW181666   8.138   3.311   4.239  0.3207  0.2625  0.5080
26408SOL    HW281667   8.245   3.403   4.292  0.0604  0.2189  1.1127
26409SOL     OW81668   1.992   5.974   1.741  0.4798 -0.5294 -0.6808
26409SOL    HW181669   1.920   6.035   1.751  0.8288 -0.4407  1.8015
26409SOL    HW281670   2.054   6.019   1.683 -0.2972  0.4613 -0.7652
26410SOL     OW81671   3.492   4.686   8.058  0.3874  0.0909 -0.1541
26410SOL    HW181672   3.566   4.659   8.003  0.7117  0.4223  0.1197
26410SOL    HW281673   3.428   4.615   8.047  0.9434 -0.4432 -0.0035
26411SOL     OW81674   7.227   6.474   3.696 -0.1390  0.7199  0.3852
26411SOL    HW181675   7.162   6.425   3.747 -0.5843  0.7861 -0.1059
26411SOL    HW281676   7.186   6.560   3.682  0.6230  1.2458  1.2268
26412SOL     OW81677   0.364   8.805   6.840  0.0914  0.1796  0.5481
26412SOL    HW181678   0.389   8.897   6.844 -1.2480  0.5231  1.6468
26412SOL    HW281679   0.331   8.792   6.752  0.1262  0.7874  0.4448
26413SOL     OW81680   7.415   7.881  10.177 -0.2201  0.0232  0.0914
26413SOL    HW181681   7.419   7.972  10.207  1.0940  0.5958 -1.6410
26413SOL    HW281682   7.364   7.886  10.096  1.7246 -0.3672 -1.2257
26414SOL     OW81683   5.946   0.624   4.639  0.7170 -0.2339  0.2136
26414SOL    HW181684   5.890   0.642   4.563 -1.0885  0.5991  1.6597
26414SOL    HW281685   5.991   0.542   4.618 -1.2849 -1.1054 -0.9056
26415SOL     OW81686   5.453   4.289   4.483 -0.3337  0.4792 -0.2909
26415SOL    HW181687   5.507   4.344   4.540 -1.0010 -0.0383  0.8819
26415SOL    HW281688   5.434   4.344   4.407  2.0178  0.5978 -0.8671
26416SOL     OW81689   6.373   0.826   9.558 -0.1112  0.1309  0.4697
26416SOL    HW181690   6.291   0.859   9.595  0.0789  0.9116  0.2151
26416SOL    HW281691   6.425   0.801   9.635 -0.4221  0.0370  0.6517
26417SOL     OW81692   5.781   5.991   1.591  0.6658 -0.0249  0.4359
26417SOL    HW181693   5.830   5.909   1.596 -0.2881 -0.8908 -2.1843
26417SOL    HW281694   5.847   6.060   1.596  2.1814 -1.1293 -2.1834
26418SOL     OW81695   3.250   1.462   0.583  0.7886 -0.1163  0.2623
26418SOL    HW181696   3.318   1.525   0.603  0.9518 -0.7674  1.8939
26418SOL    HW281697   3.173   1.514   0.561  1.0375  0.6553  1.1745
26419SOL     OW81698   4.847  10.373   8.479  0.4778 -0.1981 -0.8934
26419SOL    HW181699   4.829  10.361   8.386  0.3079  0.4106 -0.9419
26419SOL    HW281700   4.926  10.428   8.482 -0.3635  1.0471 -0.6948
26420SOL     OW81701   7.097   5.538   7.829 -0.0433 -0.5311  0.1314
26420SOL    HW181702   7.044   5.618   7.826  0.7541 -0.0098 -0.6453
26420SOL    HW281703   7.187   5.570   7.828  0.3045 -1.4638 -1.2328
26421SOL     OW81704   4.061   5.739   7.933  0.4453  0.1047  0.0239
26421SOL    HW181705   3.971   5.766   7.914 -0.1100  0.6218  2.8757
26421SOL    HW281706   4.053   5.647   7.957  0.4711  0.3849  1.1844
26422SOL     OW81707   5.784   5.198   0.220  0.1060  0.8133  0.6291
26422SOL    HW181708   5.852   5.140   0.253 -0.1129  0.1705 -0.0295
26422SOL    HW281709   5.702   5.156   0.246 -0.1270 -0.6386 -2.1559
26423SOL     OW81710   7.327  10.128   4.268  0.3514  0.1270 -0.2888
26423SOL    HW181711   7.387  10.138   4.342  0.7765  0.5971 -0.6955
26423SOL    HW281712   7.289  10.216   4.257 -0.5148 -0.1957  0.0523
26424SOL     OW81713   2.892   6.133   9.341  0.3687 -0.6187 -0.2445
26424SOL    HW181714   2.975   6.106   9.303  0.0731 -1.5815 -0.2270
26424SOL    HW281715   2.910   6.143   9.435  0.5930 -0.2816 -0.3234
26425SOL     OW81716   5.238   7.347   5.686  0.5000  0.3300 -0.3885
26425SOL    HW181717   5.329   7.322   5.702  0.8566  2.3780  1.2965
26425SOL    HW281718   5.190   7.314   5.762  0.3686  1.5512  0.0902
26426SOL     OW81719   5.400   2.942   8.792  0.1586  0.1159  0.0862
26426SOL    HW181720   5.316   2.911   8.825  0.2389 -0.9908 -0.6924
26426SOL    HW281721   5.465   2.884   8.832  0.5268  0.7243  0.3889
26427SOL     OW81722   8.924   9.278   6.046  0.0490 -0.1692  0.3023
26427SOL    HW181723   8.918   9.194   6.091  1.9951 -0.7381 -0.3928
26427SOL    HW281724   9.013   9.309   6.065 -0.3166  1.2835 -0.2277
26428SOL     OW81725   0.105   4.513   7.453  0.3477  0.1287 -0.1099
26428SOL    HW181726   0.041   4.527   7.523 -1.3946 -3.3020 -0.8148
26428SOL    HW281727   0.060   4.540   7.373  0.7791  0.1252 -0.3581
26429SOL     OW81728   7.218   0.756   7.957  0.1672 -0.1611  0.4219
26429SOL    HW181729   7.125   0.738   7.973 -0.1433 -0.4495 -1.5119
26429SOL    HW281730   7.220   0.849   7.935  0.3792 -0.1144  0.6333
26430SOL     OW81731  10.060   5.887   7.654 -0.3705 -0.2814 -0.0252
26430SOL    HW181732  10.040   5.872   7.746 -0.3986 -1.1350 -0.1567
26430SOL    HW281733  10.116   5.813   7.629 -0.6497 -0.2543 -0.7776
26431SOL     OW81734   4.112   2.032   7.353  0.0061  0.2122 -0.5863
26431SOL    HW181735   4.134   1.988   7.270  1.7671  1.8654 -1.0894
26431SOL    HW281736   4.131   1.967   7.420 -1.5309 -1.1961 -1.4366
26432SOL     OW81737   0.838   2.955   8.696 -0.3796  0.1818 -0.0754
26432SOL    HW181738   0.839   2.911   8.611 -0.2278  1.9483 -1.0356
26432SOL    HW281739   0.899   2.905   8.750 -0.8148 -1.2274 -0.8563
26433SOL     OW81740   6.002   1.853   5.593  0.4624  0.4813 -0.2987
26433SOL    HW181741   6.017   1.791   5.665 -0.7285  1.3030  0.7080
26433SOL    HW281742   6.074   1.837   5.532  1.7054 -0.0200  1.2292
26434SOL     OW81743   9.276   5.566   2.340 -0.0014 -0.0321 -0.1687
26434SOL    HW181744   9.336   5.578   2.414 -0.2984 -0.9547  0.2312
26434SOL    HW281745   9.199   5.617   2.364  0.3007  0.5111 -0.3247
26435SOL     OW81746   5.174   4.306   0.884  0.2533  0.2474 -0.0897
26435SOL    HW181747   5.114   4.247   0.928 -1.9597  2.4116 -0.0105
26435SOL    HW281748   5.131   4.328   0.802  0.8465  1.9598  0.0096
26436SOL     OW81749   7.970   1.087   1.217 -0.0494  0.0994  0.3071
26436SOL    HW181750   7.935   1.135   1.292 -0.6021  2.1079 -1.1537
26436SOL    HW281751   7.897   1.084   1.154  0.7460 -0.5286 -0.6165
26437SOL     OW81752   1.389   0.208   4.453  0.1876  0.6153 -0.3635
26437SOL    HW181753   1.366   0.115   4.460  0.5523  0.5377 -0.1227
26437SOL    HW281754   1.449   0.212   4.379 -0.8195  0.8638 -1.1876
26438SOL     OW81755   5.860   2.550   6.162  0.3253 -0.4223  0.2989
26438SOL    HW181756   5.766   2.548   6.147  0.3220  1.3584 -0.0583
26438SOL    HW281757   5.897   2.508   6.084 -0.0891  1.1604 -0.8037
26439SOL     OW81758   1.224   6.465  10.045 -0.0192  0.4769  0.3843
26439SOL    HW181759   1.197   6.510   9.965  0.0015  0.7942  0.5546
26439SOL    HW281760   1.252   6.378  10.015 -1.1024  0.1729  0.1829
26440SOL     OW81761   0.542   3.191   2.780  0.5173 -0.2766 -0.1603
26440SOL    HW181762   0.494   3.243   2.844  0.8774 -1.0108  0.7301
26440SOL    HW281763   0.550   3.105   2.821 -0.4492 -1.1690 -1.7910
26441SOL     OW81764   9.710   7.565   7.486 -0.0118  0.0587 -0.5193
26441SOL    HW181765   9.695   7.659   7.473  1.1390  0.4885  0.9981
26441SOL    HW281766   9.658   7.523   7.417 -1.4922  1.7430 -0.5076
26442SOL     OW81767   4.819   2.585   5.173  0.0710 -0.0952 -0.1314
26442SOL    HW181768   4.776   2.671   5.169  0.6220  0.2146  0.4778
26442SOL    HW281769   4.812   2.559   5.264  3.3613  1.1275  0.5860
26443SOL     OW81770   8.290   3.153   0.846  0.3782  0.1858 -0.0618
26443SOL    HW181771   8.358   3.086   0.856  0.3728  0.4670  2.3625
26443SOL    HW281772   8.324   3.229   0.891 -0.6447  1.0530 -0.7018
26444SOL     OW81773   9.137   4.198   5.363  0.7964 -0.1153 -0.1968
26444SOL    HW181774   9.096   4.215   5.448  1.3661  1.4543 -0.1891
26444SOL    HW281775   9.231   4.211   5.379  1.2072 -2.3918 -0.4954
26445SOL     OW81776   4.720   5.527   2.561 -0.0099  0.5897  0.0338
26445SOL    HW181777   4.709   5.621   2.575 -2.9091  0.2362  0.9141
26445SOL    HW281778   4.669   5.509   2.482  0.8838 -0.2070 -0.3790
26446SOL     OW81779   5.950   2.022   0.036  0.1619  0.4630  0.0475
26446SOL    HW181780   5.881   2.074   0.077 -0.5355 -1.6226  1.6737
26446SOL    HW281781   5.903   1.957  -0.017  0.9343 -0.0228 -0.0575
26447SOL     OW81782   8.664   1.622   9.171  0.1895 -0.8244  0.5429
26447SOL    HW181783   8.620   1.696   9.129  1.1520  0.1652  1.2494
26447SOL    HW281784   8.618   1.545   9.136  0.3833 -0.0238 -1.6674
26448SOL     OW81785   3.274   7.775   2.256 -0.6923 -0.5295  0.5327
26448SOL    HW181786   3.188   7.762   2.216 -0.9875 -0.2824  1.0871
26448SOL    HW281787   3.320   7.833   2.195 -0.2782 -2.0138 -0.6545
26449SOL     OW81788   1.433   7.819   6.210  0.3444 -0.4506 -0.0712
26449SOL    HW181789   1.407   7.761   6.281  1.6165 -0.2548  0.5892
26449SOL    HW281790   1.395   7.780   6.131 -0.3536 -1.1460  0.5913
26450SOL     OW81791   2.549   9.457   3.948 -0.2898 -0.2682 -0.4430
26450SOL    HW181792   2.634   9.477   3.908 -0.3255 -0.8967 -0.8419
26450SOL    HW281793   2.570   9.441   4.040 -0.2167  1.2494 -0.1635
26451SOL     OW81794   9.128   3.196   7.964 -0.6949  0.0651  0.5251
26451SOL    HW181795   9.069   3.155   7.901 -0.9059  0.2414  0.6053
26451SOL    HW281796   9.106   3.155   8.048 -1.0568  0.4920  0.6436
26452SOL     OW81797   0.425   2.284   9.780  0.2550  0.4461 -0.3801
26452SOL    HW181798   0.388   2.367   9.752  0.1476  0.1690 -1.0762
26452SOL    HW281799   0.513   2.283   9.742 -0.3720 -0.5208 -1.8901
26453SOL     OW81800   2.915   6.188   3.098 -0.2231  0.3349 -0.2188
26453SOL    HW181801   3.010   6.176   3.097 -0.0552  1.5073  0.2535
26453SOL    HW281802   2.882   6.110   3.143  0.5484  0.0856 -0.0748
26454SOL     OW81803   9.249   5.553   5.043  0.5012 -0.1677  0.3014
26454SOL    HW181804   9.315   5.555   4.973 -0.2215  0.4238 -0.3841
26454SOL    HW281805   9.268   5.473   5.092  0.0513 -1.4622 -1.5462
26455SOL     OW81806   7.526   2.391   9.796 -0.2478 -0.3014  0.1813
26455SOL    HW181807   7.540   2.357   9.884  1.1795  1.3780  0.6403
26455SOL    HW281808   7.581   2.335   9.740  0.8153  0.2038  0.7034
26456SOL     OW81809   0.662   3.869   7.395 -0.1717 -0.1280  0.0688
26456SOL    HW181810   0.698   3.783   7.419 -1.7760 -0.7819  0.2605
26456SOL    HW281811   0.629   3.857   7.306  0.4138  0.5687 -0.2487
26457SOL     OW81812   6.784   2.520   2.901 -0.5351 -0.0069 -0.5370
26457SOL    HW181813   6.749   2.603   2.934 -0.8995  0.3365 -1.7287
26457SOL    HW281814   6.750   2.514   2.811  0.1920 -1.0308 -0.7593
26458SOL     OW81815   0.591   2.388   8.019 -0.3465 -0.2694 -0.5612
26458SOL    HW181816   0.657   2.320   8.031 -0.0674 -0.0075 -0.6047
26458SOL    HW281817   0.519   2.344   7.974 -1.3407 -1.2330  1.8143
26459SOL     OW81818   3.068   4.793   7.487  0.2853  0.1730 -0.2167
26459SOL    HW181819   3.067   4.755   7.575 -2.0046 -0.8155 -0.5885
26459SOL    HW281820   2.979   4.779   7.454  0.6205  1.9627 -2.0939
26460SOL     OW81821   8.823   9.151   1.827 -0.1432  0.1856  0.3094
26460SOL    HW181822   8.918   9.138   1.825 -0.1409 -0.9298  3.0472
26460SOL    HW281823   8.788   9.067   1.797 -0.1794 -0.4803  2.0640
26461SOL     OW81824   3.960   9.245   2.946 -0.0063 -0.1495 -0.3241
26461SOL    HW181825   3.898   9.303   2.903 -2.2471 -0.0870  2.6825
26461SOL    HW281826   4.017   9.303   2.996  2.4349 -0.2332 -2.7851
26462SOL     OW81827   1.693   7.809  10.131 -0.1720  0.4508  0.0228
26462SOL    HW181828   1.626   7.803  10.063 -1.2647 -0.4623  1.1211
26462SOL    HW281829   1.647   7.786  10.212  1.0177  1.7855  1.1273
26463SOL     OW81830   8.902  10.185   4.545  0.1285  0.4151  0.0491
26463SOL    HW181831   8.962  10.150   4.610  1.0349  1.6748 -0.0603
26463SOL    HW281832   8.861  10.260   4.588  0.1398  0.7716 -0.5514
26464SOL     OW81833   7.981  10.188   3.671  0.0402  0.2520 -0.5751
26464SOL    HW181834   7.917  10.132   3.715  0.1713  1.0344  0.6652
26464SOL    HW281835   7.979  10.160   3.580 -0.9411 -0.7804 -0.2571
26465SOL     OW81836   0.690   1.060   6.987  0.3515 -0.1961  0.0794
26465SOL    HW181837   0.757   1.124   6.963  0.7281 -0.0228  1.5566
26465SOL    HW281838   0.696   1.052   7.082 -2.2430  0.4257  0.3757
26466SOL     OW81839   1.033   0.458   1.564  0.2958  0.4834  0.4326
26466SOL    HW181840   0.993   0.545   1.570 -0.3880  0.1567  0.7483
26466SOL    HW281841   0.971   0.407   1.513  0.5011  0.0697  0.5976
26467SOL     OW81842   8.341   7.207   6.375  0.4119 -0.3411  0.2232
26467SOL    HW181843   8.299   7.137   6.324  1.5567  0.1753 -1.5188
26467SOL    HW281844   8.434   7.186   6.371  0.7755  1.2312 -0.2796
26468SOL     OW81845   8.544   0.308   9.251  0.2062 -0.1797 -0.5126
26468SOL    HW181846   8.500   0.223   9.258 -1.6043  0.6486 -1.1628
26468SOL    HW281847   8.542   0.344   9.339  1.5031 -1.0194 -0.1092
26469SOL     OW81848  10.253   5.817   5.541 -0.0635  0.7653  0.6732
26469SOL    HW181849  10.214   5.735   5.572  0.1477  0.5372  0.3434
26469SOL    HW281850  10.253   5.874   5.618 -0.5003  0.5651  0.8261
26470SOL     OW81851   1.701   7.228   1.304  0.0188 -0.0807  0.5562
26470SOL    HW181852   1.740   7.160   1.249 -0.7571 -1.7195  1.9446
26470SOL    HW281853   1.618   7.247   1.261  0.4303  0.3196 -0.0771
26471SOL     OW81854   2.873   0.664   9.538  0.6926  0.6525 -0.3695
26471SOL    HW181855   2.932   0.726   9.580  1.3658  1.0994 -1.9243
26471SOL    HW281856   2.895   0.667   9.445 -0.2266 -0.8663 -0.6911
26472SOL     OW81857   8.730   9.532   2.263  0.7022  0.2411  0.2187
26472SOL    HW181858   8.792   9.470   2.302  0.9073  0.2267 -0.1198
26472SOL    HW281859   8.717   9.500   2.174 -0.6152 -0.3520  0.6067
26473SOL     OW81860   3.534   9.710  10.153 -0.0690 -0.2260 -0.3251
26473SOL    HW181861   3.550   9.804  10.167 -0.6480 -0.1851  0.1210
26473SOL    HW281862   3.619   9.674  10.130  0.0418  0.5354 -1.1849
26474SOL     OW81863   6.097  10.144  10.329  0.2065  0.5168  0.6398
26474SOL    HW181864   6.003  10.141  10.344  0.1117 -0.5373 -0.0561
26474SOL    HW281865   6.106  10.155  10.234  0.7630 -0.7521  0.5186
26475SOL     OW81866   5.747   9.389   3.151 -0.2519  0.5422 -0.5534
26475SOL    HW181867   5.692   9.415   3.225  0.4701 -0.6523  0.4317
26475SOL    HW281868   5.783   9.304   3.176  2.1948  1.3432 -1.0861
26476SOL     OW81869   6.400   0.737   1.236 -0.1627 -0.4220 -0.5501
26476SOL    HW181870   6.379   0.814   1.183 -2.0787 -0.4542  0.0592
26476SOL    HW281871   6.315   0.693   1.248  0.2525 -0.6523  2.1482
26477SOL     OW81872   0.792   2.187   4.982  0.4835 -0.2685  0.2766
26477SOL    HW181873   0.791   2.149   5.070 -1.6625  2.4871  1.5897
26477SOL    HW281874   0.772   2.280   4.996  0.6701  0.4018 -3.1034
26478SOL     OW81875   3.693   3.109   4.592 -0.7131  0.2702 -0.6363
26478SOL    HW181876   3.768   3.063   4.630 -2.4975 -2.4453 -0.0574
26478SOL    HW281877   3.697   3.088   4.499  0.2530  1.7255 -0.9407
26479SOL     OW81878   7.967   9.595   8.615  0.1612 -0.0851  0.2201
26479SOL    HW181879   7.969   9.528   8.684  0.8948 -0.6469 -0.3280
26479SOL    HW281880   8.057   9.629   8.614 -0.1051  0.6195  0.2104
26480SOL     OW81881   2.420   3.872   7.367  0.4966 -0.0326  0.2040
26480SOL    HW181882   2.361   3.800   7.389 -1.0633  0.7833 -1.1299
26480SOL    HW281883   2.505   3.830   7.353 -0.7124 -1.9051 -2.1477
26481SOL     OW81884   5.834   3.333   4.423 -0.2175  0.8516 -0.0568
26481SOL    HW181885   5.828   3.253   4.371  1.3603  0.4992  0.2502
26481SOL    HW281886   5.866   3.400   4.362  0.3925  0.7482  0.1404
26482SOL     OW81887   6.879   3.034   5.223  0.2005  0.2382  0.0568
26482SOL    HW181888   6.842   2.947   5.235  0.3868  0.0337 -0.7909
26482SOL    HW281889   6.809   3.094   5.250  0.7612 -0.1467  2.6159
26483SOL     OW81890   6.222   6.828   9.916 -0.2935 -0.2780 -0.5468
26483SOL    HW181891   6.202   6.735   9.908 -0.1824 -0.3405 -0.1524
26483SOL    HW281892   6.275   6.849   9.840 -0.9378 -0.3657 -1.0315
26484SOL     OW81893   0.241   1.671   7.367  0.4379  0.4829 -0.3239
26484SOL    HW181894   0.301   1.695   7.297  0.3390  0.0934 -0.5420
26484SOL    HW281895   0.157   1.655   7.323  0.6223 -0.7535 -0.2489
26485SOL     OW81896  10.132   7.754   3.907  0.2767 -0.2692  0.2781
26485SOL    HW181897  10.206   7.770   3.848 -0.9284  1.6087 -0.8199
26485SOL    HW281898  10.154   7.672   3.952  1.0101 -2.1256 -3.1432
26486SOL     OW81899   6.724   6.816   0.581  0.0401  0.7792  0.3243
26486SOL    HW181900   6.792   6.819   0.514 -0.4572 -0.6482 -0.2747
26486SOL    HW281901   6.758   6.869   0.653  0.6907  2.1202 -0.9450
26487SOL     OW81902   9.400   7.499   0.127  0.1732 -1.1604  0.3448
26487SOL    HW181903   9.464   7.550   0.177  0.2002 -0.6528 -0.1860
26487SOL    HW281904   9.374   7.428   0.185  0.3575 -0.7035  0.9937
26488SOL     OW81905   1.571   8.833   4.832  0.1014 -0.5511 -0.2034
26488SOL    HW181906   1.508   8.766   4.806 -1.5717  0.2898  1.4613
26488SOL    HW281907   1.626   8.790   4.897 -2.0821  0.0175  2.2106
26489SOL     OW81908   7.998   2.848   9.554  0.5565  0.4110  0.3995
26489SOL    HW181909   8.084   2.890   9.561  0.3010  0.7613  1.8608
26489SOL    HW281910   7.951   2.878   9.632 -1.2173  0.9188 -0.8168
26490SOL     OW81911   8.407   4.842   1.961 -0.0250 -0.4349 -0.0874
26490SOL    HW181912   8.459   4.907   2.009  0.5473 -0.3117 -0.8454
26490SOL    HW281913   8.412   4.871   1.869  0.4014 -1.6548 -0.4690
26491SOL     OW81914   2.647   6.956   3.315  0.2115  0.6979  0.1182
26491SOL    HW181915   2.713   7.021   3.337  3.0176 -1.9862  0.3011
26491SOL    HW281916   2.603   6.935   3.397  1.6608 -0.0171  0.7341
26492SOL     OW81917   1.752   0.444   6.084 -0.4142  0.4196 -0.2501
26492SOL    HW181918   1.806   0.377   6.042  0.9408  0.1424  1.7854
26492SOL    HW281919   1.663   0.409   6.079  0.2863 -1.7630  1.0324
26493SOL     OW81920   2.666   6.564   6.537  0.3389  0.6793 -0.2188
26493SOL    HW181921   2.682   6.470   6.529  1.1550  0.8095 -0.2420
26493SOL    HW281922   2.663   6.595   6.446  1.4310  0.8809 -0.1963
26494SOL     OW81923   2.912   1.528   5.670  0.9140 -0.3166  0.0035
26494SOL    HW181924   2.874   1.561   5.588  0.8215  0.0251  0.1865
26494SOL    HW281925   2.965   1.600   5.703 -0.2609  0.0976  1.0391
26495SOL     OW81926   9.528   3.750   7.910 -0.2596  0.4869 -0.0423
26495SOL    HW181927   9.594   3.753   7.979 -1.0472 -1.2159  0.8576
26495SOL    HW281928   9.571   3.787   7.833  1.7454 -0.5693  0.5173
26496SOL     OW81929   2.313   0.406   3.611  0.4875  0.2347 -0.0253
26496SOL    HW181930   2.364   0.376   3.687  0.5630 -0.4358 -0.3382
26496SOL    HW281931   2.347   0.355   3.538 -1.0420 -0.6649 -0.1469
26497SOL     OW81932   7.460   9.543   1.112  0.2993  0.1743  0.0467
26497SOL    HW181933   7.418   9.556   1.197  1.2822 -1.0154  0.7459
26497SOL    HW281934   7.388   9.542   1.050 -0.3357  2.9275  0.5679
26498SOL     OW81935   6.561   3.783   0.107  0.2677  0.1663  0.2286
26498SOL    HW181936   6.483   3.743   0.069 -0.7387  0.7650  1.5690
26498SOL    HW281937   6.575   3.734   0.188  0.0482  1.3581  1.0172
26499SOL     OW81938   1.406   8.570   0.154  0.1843  0.2798  0.3484
26499SOL    HW181939   1.321   8.526   0.156  0.3245 -0.0450 -0.5371
26499SOL    HW281940   1.428   8.582   0.247 -1.6532  2.0149  0.6352
26500SOL     OW81941   6.284   8.052   0.216  0.6384 -0.3278  0.2317
26500SOL    HW181942   6.211   8.039   0.277  0.0199 -2.8677 -0.8996
26500SOL    HW281943   6.246   8.102   0.144  0.1938 -0.9771  0.0041
26501SOL     OW81944   9.090   5.013   8.498 -0.7218  0.3648 -0.0448
26501SOL    HW181945   9.170   5.035   8.545 -1.2104  1.1396  0.4520
26501SOL    HW281946   9.093   5.068   8.419 -0.1855 -0.5061 -0.6499
26502SOL     OW81947   9.234   9.758   8.090  0.3266 -0.4023  0.4981
26502SOL    HW181948   9.327   9.777   8.074 -0.2207  0.8881 -1.4628
26502SOL    HW281949   9.194   9.843   8.106 -0.6401 -0.8801  0.7167
26503SOL     OW81950   1.747   0.075   5.032  0.0624 -0.3241 -0.0320
26503SOL    HW181951   1.831   0.121   5.033 -0.7082  1.1435 -0.3540
26503SOL    HW281952   1.762  -0.001   4.977  0.7000  0.9245 -1.6477
26504SOL     OW81953   5.678   0.332   0.983  0.4365  0.1095  0.6121
26504SOL    HW181954   5.648   0.256   1.032  1.0706 -0.2962  0.3867
26504SOL    HW281955   5.652   0.407   1.036 -1.9009 -0.1520 -0.0821
26505SOL     OW81956   6.753   5.576   4.116 -0.1322 -0.1302  0.7158
26505SOL    HW181957   6.786   5.660   4.084  0.8462  0.0003  2.0125
26505SOL    HW281958   6.658   5.583   4.108 -0.2053  1.8238  2.4360
26506SOL     OW81959   7.402   4.402   2.140  0.6198  0.2438  0.0042
26506SOL    HW181960   7.312   4.371   2.136  1.0698 -0.9693 -2.0285
26506SOL    HW281961   7.398   4.492   2.108  0.0057  0.6011  1.0329
26507SOL     OW81962   4.052   0.308   5.426 -0.5270 -0.2321 -0.2184
26507SOL    HW181963   4.096   0.288   5.344 -1.7981 -0.8749 -0.7833
26507SOL    HW281964   4.015   0.225   5.455 -2.4008  0.4626 -0.4397
26508SOL     OW81965   0.200   1.494   6.513 -0.3039  0.0305 -0.0274
26508SOL    HW181966   0.105   1.487   6.526  0.0024 -1.7086  1.6129
26508SOL    HW281967   0.215   1.588   6.501 -2.2213  0.3411 -0.4056
26509SOL     OW81968   8.634   4.939   7.899  0.1193 -0.3756  0.5401
26509SOL    HW181969   8.541   4.952   7.880  0.1339  0.2733  0.8559
26509SOL    HW281970   8.637   4.858   7.950 -0.4543  0.3167  1.7398
26510SOL     OW81971   7.299   1.909   0.314  0.2696  0.4258  0.0196
26510SOL    HW181972   7.282   1.816   0.330  2.1551  0.2332  1.3251
26510SOL    HW281973   7.393   1.913   0.293 -0.0829  1.8881 -1.4736
26511SOL     OW81974   3.562   4.916   1.609 -0.4533  0.8274  0.0183
26511SOL    HW181975   3.479   4.873   1.585  0.0854 -0.2472  0.0017
26511SOL    HW281976   3.538   5.008   1.622 -1.6427  0.5487 -0.0146
26512SOL     OW81977   4.571  10.285   7.906  0.6519  0.1966 -0.2256
26512SOL    HW181978   4.579  10.259   7.815  0.6479  0.1047 -0.2001
26512SOL    HW281979   4.484  10.253   7.933  0.7391  0.0335 -0.1296
26513SOL     OW81980   3.776   5.539  10.033 -0.3265  0.1700  0.1882
26513SOL    HW181981   3.750   5.613  10.087  2.0220  2.0057 -0.9843
26513SOL    HW281982   3.868   5.555  10.013  0.2342 -2.9833 -0.3452
26514SOL     OW81983   9.346   4.883   9.794  0.4325  0.3571  0.0714
26514SOL    HW181984   9.374   4.796   9.765 -0.1788  0.3156 -0.4201
26514SOL    HW281985   9.321   4.928   9.713 -0.5410  0.5210  0.4496
26515SOL     OW81986   4.973   4.922   6.223 -0.2407  0.4423  0.2886
26515SOL    HW181987   4.950   4.916   6.315  0.3708  1.6253  0.5306
26515SOL    HW281988   5.059   4.964   6.222  0.9138 -1.7572 -0.7008
26516SOL     OW81989   5.439   8.801   0.377  0.0626  0.0121 -0.4513
26516SOL    HW181990   5.392   8.729   0.419 -0.4566  0.1626 -0.7742
26516SOL    HW281991   5.417   8.793   0.284 -0.1384  0.6921 -0.4657
26517SOL     OW81992   5.281   2.540   3.456 -0.1976  0.2051  0.2225
26517SOL    HW181993   5.235   2.607   3.404  0.0948 -1.4882 -2.4017
26517SOL    HW281994   5.365   2.530   3.412  0.8508 -0.0431  2.1978
26518SOL     OW81995   8.966   6.177   7.063  0.3698  0.2389  0.1983
26518SOL    HW181996   9.041   6.128   7.097  0.4030  0.6058  0.6626
26518SOL    HW281997   8.929   6.221   7.139 -0.5840 -0.2710  0.0567
26519SOL     OW81998   3.052   2.370   4.573  0.2401  0.1340  0.0847
26519SOL    HW181999   3.102   2.311   4.629 -0.4732 -1.1010 -0.5312
26519SOL    HW282000   3.118   2.426   4.533  0.9773 -0.4362  0.4704
26520SOL     OW82001   3.969   8.453   9.638 -0.5750  0.1286 -0.3635
26520SOL    HW182002   3.950   8.541   9.605 -0.7335 -0.4583 -1.9288
26520SOL    HW282003   3.909   8.441   9.711 -1.0009  1.0867 -0.5418
26521SOL     OW82004   9.407   9.507   9.479  0.2576  0.4397 -0.1684
26521SOL    HW182005   9.452   9.424   9.462  1.4466  1.0078  0.0939
26521SOL    HW282006   9.376   9.500   9.570  1.0078  0.5659  0.1006
26522SOL     OW82007   0.072   4.970   7.480 -0.2290  0.4420  0.0531
26522SOL    HW182008   0.068   4.903   7.412 -1.6537 -0.8588  1.3431
26522SOL    HW282009   0.122   4.929   7.550 -0.6564  0.9187  0.6459
26523SOL     OW82010   4.569   6.001   3.504  0.2298  0.1569  0.1357
26523SOL    HW182011   4.568   5.915   3.546  0.1861  0.5931  1.0441
26523SOL    HW282012   4.645   5.997   3.445  0.9293 -0.1122  1.0204
26524SOL     OW82013   2.772   9.927   5.589 -0.1876  0.4897 -0.5940
26524SOL    HW182014   2.732   9.866   5.651  2.2967 -0.7267 -0.0479
26524SOL    HW282015   2.765  10.013   5.631 -0.5349  0.0154  0.3287
26525SOL     OW82016   7.417   2.213   5.611  0.3287  0.0541  0.6948
26525SOL    HW182017   7.471   2.265   5.551 -0.5636  1.4347  1.0244
26525SOL    HW282018   7.337   2.196   5.562  0.1887 -0.0793  0.9681
26526SOL     OW82019   7.880   6.316   0.963  0.0960 -0.4117  0.5315
26526SOL    HW182020   7.815   6.325   0.894  0.0592  0.3621  0.6632
26526SOL    HW282021   7.896   6.405   0.994  0.7065 -0.6624  0.9731
26527SOL     OW82022  10.000   0.452   6.839 -0.9632  0.0525  0.0928
26527SOL    HW182023  10.067   0.510   6.874  0.9969 -1.2915 -1.2574
26527SOL    HW282024   9.949   0.508   6.780  0.8050  0.4833 -1.0971
26528SOL     OW82025   7.854   1.406   9.468  0.3829  0.1210  0.1190
26528SOL    HW182026   7.862   1.373   9.557 -0.1112  0.0051  0.1225
26528SOL    HW282027   7.863   1.501   9.476  0.8229  0.0723  0.2288
26529SOL     OW82028   0.646  10.022   0.016 -0.2047 -0.2645 -0.2702
26529SOL    HW182029   0.706  10.094  -0.005 -1.2909  0.6743 -0.2388
26529SOL    HW282030   0.572  10.034  -0.044 -1.9594  0.6427  1.9542
26530SOL     OW82031   4.630   3.384   3.930  0.3902  0.0188 -0.0344
26530SOL    HW182032   4.691   3.379   4.004  1.2654  1.0043 -0.6575
26530SOL    HW282033   4.546   3.356   3.967  0.8913  0.0810  1.2256
26531SOL     OW82034   4.736   2.755   1.688  0.3208  0.1390  0.3440
26531SOL    HW182035   4.717   2.765   1.781 -0.1004  0.7483  0.1989
26531SOL    HW282036   4.668   2.696   1.655  1.4264 -1.4056  0.7339
26532SOL     OW82037   4.195   4.460   1.385 -0.5127  0.0409  0.2820
26532SOL    HW182038   4.205   4.410   1.466  0.7885 -0.8552 -0.3758
26532SOL    HW282039   4.248   4.539   1.398 -1.6294  0.7071  0.8913
26533SOL     OW82040   6.832   0.439   2.449  0.1629 -0.3838  0.5948
26533SOL    HW182041   6.825   0.386   2.528 -1.7082 -1.7634 -0.4170
26533SOL    HW282042   6.810   0.528   2.477  3.1289 -0.0502  2.2738
26534SOL     OW82043   1.221   1.496   5.146  0.2900 -0.1841  0.0871
26534SOL    HW182044   1.235   1.494   5.052 -0.1396 -0.5449  0.0259
26534SOL    HW282045   1.142   1.444   5.160 -1.3141  2.2197  0.3695
26535SOL     OW82046   6.886   5.736   5.928  0.4009 -0.6530 -0.7470
26535SOL    HW182047   6.942   5.807   5.957 -1.2960  1.1758 -1.7372
26535SOL    HW282048   6.841   5.707   6.007  2.8238 -2.3582  0.1248
26536SOL     OW82049   3.857  10.326   4.303  0.0949 -0.2001 -0.2391
26536SOL    HW182050   3.863  10.234   4.277 -0.4698 -0.4486  0.4841
26536SOL    HW282051   3.948  10.351   4.322  0.4769 -0.1114 -2.0419
26537SOL     OW82052   4.295   9.200   3.704  0.9815  0.1327  0.0532
26537SOL    HW182053   4.204   9.192   3.734  0.1060 -1.2528 -2.7092
26537SOL    HW282054   4.293   9.273   3.643  2.0167  0.7951  0.7788
26538SOL     OW82055   0.190  10.196  10.174 -0.1725  0.1896 -0.5213
26538SOL    HW182056   0.135  10.117  10.176  0.5182 -0.2909 -0.2608
26538SOL    HW282057   0.212  10.207  10.081 -0.7962  0.4589 -0.6480
26539SOL     OW82058   9.334   6.112   5.318 -0.4015 -0.2730  0.1099
26539SOL    HW182059   9.318   6.031   5.270  0.6412  0.1528 -1.0263
26539SOL    HW282060   9.415   6.096   5.367 -0.9489 -0.3794  0.9949
26540SOL     OW82061   0.800   3.059   4.095  0.1513  0.3833 -0.3257
26540SOL    HW182062   0.714   3.065   4.137  0.8919  0.8754  1.2096
26540SOL    HW282063   0.804   3.135   4.037  1.1785  3.0478  2.9152
26541SOL     OW82064   0.934   0.702   5.159  0.0166  0.0759  0.4025
26541SOL    HW182065   0.869   0.772   5.163  1.6368  1.7741 -0.9694
26541SOL    HW282066   0.883   0.621   5.161 -2.1115  1.3225 -0.4060
26542SOL     OW82067  10.409   6.777   8.250  0.0918  0.2925  0.0954
26542SOL    HW182068  10.488   6.730   8.277  1.1987  2.9838  1.9551
26542SOL    HW282069  10.409   6.770   8.154  2.9842  0.7556 -0.0185
26543SOL     OW82070   2.813   6.743   3.297 -0.5979 -0.5138  0.0838
26543SOL    HW182071   2.823   6.722   3.390 -2.4704 -2.3510 -0.0425
26543SOL    HW282072   2.762   6.824   3.296 -4.3369 -2.5743  0.8592
26544SOL     OW82073   2.448   4.029   2.072  0.1650  0.4314  0.0586
26544SOL    HW182074   2.386   4.100   2.092  1.4657  1.5068  0.4183
26544SOL    HW282075   2.445   4.021   1.977 -0.5983  0.3993  0.0782
26545SOL     OW82076   7.015   8.717   2.570 -0.5462 -0.4867  0.3573
26545SOL    HW182077   7.081   8.707   2.638 -1.2275 -0.8748  0.9790
26545SOL    HW282078   6.977   8.630   2.561 -0.4873 -0.4311 -0.5044
26546SOL     OW82079   8.124   4.539   0.129  0.4370  0.4116 -0.1937
26546SOL    HW182080   8.115   4.477   0.201  2.1298  2.3925  1.9035
26546SOL    HW282081   8.037   4.578   0.120 -0.6498 -2.1494 -1.5582
26547SOL     OW82082   0.048   0.147   1.783 -0.0520  0.0423 -0.1296
26547SOL    HW182083   0.120   0.114   1.731  0.2482 -1.5946  1.2610
26547SOL    HW282084  -0.028   0.097   1.754  0.2290 -1.3020  1.3553
26548SOL     OW82085   4.280   1.141   0.411  0.0583  0.1823 -0.5699
26548SOL    HW182086   4.333   1.078   0.362 -0.5417  0.0928 -1.1278
26548SOL    HW282087   4.327   1.224   0.403  0.3334  0.0154 -0.6889
26549SOL     OW82088   7.383   9.666  10.183 -0.4710  0.3841 -0.1865
26549SOL    HW182089   7.390   9.752  10.223 -0.2974  0.2005  0.1928
26549SOL    HW282090   7.400   9.605  10.255 -1.5727  0.0102 -0.2170
26550SOL     OW82091   0.126   5.814   8.704  0.3006 -0.6525 -0.0066
26550SOL    HW182092   0.077   5.751   8.651 -0.7201 -1.1004  1.3960
26550SOL    HW282093   0.138   5.770   8.788  2.3555 -0.1773 -0.0124
26551SOL     OW82094   7.704   7.435   9.081 -0.0046 -0.0849  0.5561
26551SOL    HW182095   7.619   7.442   9.038  0.7261 -0.5564 -1.0316
26551SOL    HW282096   7.750   7.516   9.058 -0.6191  1.0513  2.9300
26552SOL     OW82097   7.467   7.298   7.320  0.3035 -0.2009  0.2715
26552SOL    HW182098   7.381   7.271   7.353  0.8358 -0.9746  1.0500
26552SOL    HW282099   7.528   7.235   7.358  1.2579  0.5240 -0.0414
26553SOL     OW82100   4.709   4.865   1.324  0.1133 -0.1091  0.1486
26553SOL    HW182101   4.757   4.789   1.291  1.0006  0.4970 -0.0099
26553SOL    HW282102   4.762   4.940   1.296  1.0809  0.4507  3.1855
26554SOL     OW82103   5.263   8.685   4.703  0.0788  0.2437 -0.8416
26554SOL    HW182104   5.170   8.668   4.722  0.3608  0.6746  1.1381
26554SOL    HW282105   5.261   8.738   4.623 -1.2699 -1.0710 -1.7599
26555SOL     OW82106   4.271   7.451   4.821  0.1537  0.0289  0.3945
26555SOL    HW182107   4.239   7.521   4.877 -0.1246 -0.4591  0.8646
26555SOL    HW282108   4.347   7.487   4.777  0.3588  0.4354  1.0690
26556SOL     OW82109   9.556   9.138   8.444 -0.1033  0.0538  0.3328
26556SOL    HW182110   9.570   9.137   8.350  0.3763 -1.9701  0.3625
26556SOL    HW282111   9.604   9.215   8.475  0.9520 -0.0592 -0.9192
26557SOL     OW82112   6.979   2.039  10.055 -0.2578 -0.2852  0.5021
26557SOL    HW182113   6.921   2.074  10.122 -1.3406  1.1136 -1.0702
26557SOL    HW282114   7.063   2.027  10.099 -1.5150 -1.7111  2.6705
26558SOL     OW82115   5.452   5.714   5.911 -0.0482 -0.0776 -0.1409
26558SOL    HW182116   5.530   5.742   5.862  0.3688 -1.2321 -0.1715
26558SOL    HW282117   5.435   5.625   5.880 -1.9328  0.4663 -0.7830
26559SOL     OW82118   2.043   2.762   0.114 -0.6664 -0.2350 -0.0774
26559SOL    HW182119   2.118   2.805   0.157  1.6031 -1.9205 -2.0529
26559SOL    HW282120   2.023   2.819   0.040 -1.6553  0.3871  0.6330
26560SOL     OW82121   2.726   2.299   8.257  0.5295 -0.0047 -0.1121
26560SOL    HW182122   2.763   2.272   8.341  0.1665 -2.3688 -0.6434
26560SOL    HW282123   2.794   2.353   8.217  1.0396  0.4647  1.3440
26561SOL     OW82124   4.488   7.335  10.253 -0.1194  0.4439  0.1305
26561SOL    HW182125   4.494   7.374  10.340  1.2274 -0.8729  0.6726
26561SOL    HW282126   4.552   7.385  10.201  0.2588  0.1769  0.3340
26562SOL     OW82127   7.568   0.409   9.701 -0.4983  0.0933  0.6006
26562SOL    HW182128   7.577   0.334   9.642  2.5257  0.8772 -0.1305
26562SOL    HW282129   7.610   0.382   9.782  0.3794  0.8609  0.4204
26563SOL     OW82130   4.298   8.286   5.948 -0.3827  0.0437 -0.2778
26563SOL    HW182131   4.235   8.236   5.897 -1.7612  0.9215  0.4984
26563SOL    HW282132   4.264   8.376   5.947 -0.9536 -0.0400  2.8295
26564SOL     OW82133   2.378   3.187   9.656  0.2587 -0.2880 -0.4901
26564SOL    HW182134   2.463   3.224   9.634  0.4511  0.0294  0.6768
26564SOL    HW282135   2.398   3.110   9.709 -0.1776 -0.4892 -0.6078
26565SOL     OW82136   5.538   0.520   5.349 -0.2451 -0.3300  0.0026
26565SOL    HW182137   5.622   0.550   5.315 -1.1618  2.2503 -0.2140
26565SOL    HW282138   5.521   0.576   5.424 -1.3569 -1.4458  0.6263
26566SOL     OW82139   0.771   6.822  10.086 -0.3835  0.0046  0.0738
26566SOL    HW182140   0.753   6.913  10.062  1.6652  0.2127 -0.9083
26566SOL    HW282141   0.861   6.824  10.121 -0.0238 -1.7414 -0.6438
26567SOL     OW82142   1.467  10.291   9.149 -0.3963  0.2669  0.2421
26567SOL    HW182143   1.411  10.216   9.171 -1.3887  0.3931 -1.6712
26567SOL    HW282144   1.424  10.366   9.189 -1.1430  0.2400 -0.4946
26568SOL     OW82145  10.366   9.051   7.857 -0.0925  0.6241  0.0539
26568SOL    HW182146  10.363   9.101   7.938  0.4692 -0.2203  0.6152
26568SOL    HW282147  10.351   8.960   7.884 -0.2374  0.3725 -0.8300
26569SOL     OW82148   3.214   8.155   4.977 -0.1660 -0.2489  0.2341
26569SOL    HW182149   3.237   8.165   4.885  2.2271 -1.2619  0.6604
26569SOL    HW282150   3.224   8.243   5.013 -0.4525  0.0162 -0.3166
26570SOL     OW82151   0.180   4.286   7.130 -0.3128 -0.8485  0.0479
26570SOL    HW182152   0.176   4.236   7.211  0.6884 -1.2040 -0.0974
26570SOL    HW282153   0.108   4.348   7.135 -0.0595 -0.6425  1.3636
26571SOL     OW82154   0.975   4.586   1.910 -0.2367 -0.0982 -0.1801
26571SOL    HW182155   0.883   4.592   1.885  0.1770  1.1535 -1.5759
26571SOL    HW282156   0.978   4.515   1.974 -1.7070 -2.2625 -2.3196
26572SOL     OW82157   1.056   5.605   0.287  0.4577 -0.6919  0.2036
26572SOL    HW182158   1.005   5.543   0.235  1.0907 -0.5063 -0.6713
26572SOL    HW282159   1.112   5.550   0.341  0.8673 -0.9006 -0.4183
26573SOL     OW82160   4.981   4.584   7.297  0.3238  0.0087 -0.3494
26573SOL    HW182161   4.889   4.561   7.281 -0.2395  0.6006  1.7442
26573SOL    HW282162   5.030   4.530   7.236 -1.4453  0.2403 -2.0848
26574SOL     OW82163   3.709   9.584   6.579  0.1099  0.1239 -0.2728
26574SOL    HW182164   3.725   9.492   6.559  0.0069 -0.0447  0.4211
26574SOL    HW282165   3.615   9.589   6.597 -0.4216  0.8346 -2.7972
26575SOL     OW82166  10.376   1.410   1.637 -0.0986  0.3335  0.0174
26575SOL    HW182167  10.407   1.320   1.646  0.0302  0.4219  0.5152
26575SOL    HW282168  10.362   1.422   1.543 -1.0544 -0.5157  0.0473
26576SOL     OW82169   6.581   2.980   6.250 -0.7824  0.1590 -0.7876
26576SOL    HW182170   6.501   2.940   6.217 -0.9958  0.9274 -1.2293
26576SOL    HW282171   6.611   2.921   6.319 -2.1517  0.2561 -0.0708
26577SOL     OW82172   6.456   1.945   0.157  0.1206 -0.3276 -0.4880
26577SOL    HW182173   6.377   1.982   0.118 -0.1693  0.6267  0.9631
26577SOL    HW282174   6.527   1.997   0.120  0.0755 -0.9546 -1.5172
26578SOL     OW82175   9.022   9.206   0.863 -0.3822 -0.3427  0.4469
26578SOL    HW182176   8.965   9.211   0.940  1.1248  0.5340  1.5680
26578SOL    HW282177   9.091   9.270   0.880 -0.4386  0.5042 -2.0326
26579SOL     OW82178   4.514   3.924   2.582  0.2624 -0.3046 -0.6585
26579SOL    HW182179   4.507   3.926   2.677 -0.6326 -1.0802 -0.6958
26579SOL    HW282180   4.499   4.015   2.555  2.0508  0.2273  0.0144
26580SOL     OW82181   7.036   2.280   0.709  0.2207 -0.5112  0.2115
26580SOL    HW182182   6.994   2.193   0.709  0.9419 -0.8793 -0.4994
26580SOL    HW282183   6.963   2.341   0.715 -0.2477 -1.1739  1.7188
26581SOL     OW82184   7.086   0.235   2.434  0.1631  0.0788 -0.2146
26581SOL    HW182185   7.001   0.233   2.479  1.6491 -0.7278  2.7866
26581SOL    HW282186   7.137   0.300   2.481  0.8316  1.7177 -2.9725
26582SOL     OW82187   7.901   6.999   4.157  0.0230  0.5483  0.3638
26582SOL    HW182188   7.958   6.946   4.100 -0.3381 -0.3062  0.7734
26582SOL    HW282189   7.923   7.089   4.135  0.0259  0.2474 -0.9927
26583SOL     OW82190   6.598   4.703   5.536 -0.1093  0.0530  0.0389
26583SOL    HW182191   6.557   4.714   5.621 -0.1246  1.8035 -0.1485
26583SOL    HW282192   6.660   4.632   5.548 -1.1315 -0.6993  1.1039
26584SOL     OW82193   8.043   5.408   7.309  0.4224 -0.5806 -0.1526
26584SOL    HW182194   8.110   5.362   7.359  0.9464 -2.0996 -2.1368
26584SOL    HW282195   8.092   5.464   7.249 -0.1867  0.8350  0.6194
26585SOL     OW82196   8.134   7.791   3.520  0.1051 -0.3715 -0.1337
26585SOL    HW182197   8.147   7.698   3.500  1.6698 -0.1683 -0.1822
26585SOL    HW282198   8.061   7.791   3.582  0.0752 -1.6306 -0.1246
26586SOL     OW82199   6.826   2.458   5.617  0.4997 -0.5860 -0.5862
26586SOL    HW182200   6.913   2.487   5.644  0.0910  0.9562 -0.8023
26586SOL    HW282201   6.815   2.373   5.658  1.0723  0.3507  1.6791
26587SOL     OW82202   8.110   4.440   5.064  0.0146 -0.2481 -0.3510
26587SOL    HW182203   8.177   4.439   4.996  1.0151  0.0674  0.6170
26587SOL    HW282204   8.158   4.450   5.146 -1.2546  0.7693  0.3109
26588SOL     OW82205   7.611   8.832   0.009 -0.0429  0.0191  0.4388
26588SOL    HW182206   7.628   8.924   0.028 -2.5033  0.4638  0.7098
26588SOL    HW282207   7.552   8.803   0.079 -0.3938 -1.3890 -0.3942
26589SOL     OW82208   7.600   4.091   9.070  0.2354 -0.4491  0.0641
26589SOL    HW182209   7.531   4.080   9.005  0.8142 -0.7580 -0.5159
26589SOL    HW282210   7.555   4.089   9.154 -0.4386 -0.7990 -0.2959
26590SOL     OW82211   3.365   8.910   0.207 -0.4809  0.0360  0.1136
26590SOL    HW182212   3.290   8.914   0.148 -0.9278  0.8727  0.7131
26590SOL    HW282213   3.334   8.950   0.288  1.0514  1.8685 -0.1251
26591SOL     OW82214   9.777   1.133  10.326 -0.9929  0.3405  0.3839
26591SOL    HW182215   9.851   1.160  10.272 -1.2195 -0.6350 -0.4378
26591SOL    HW282216   9.701   1.172  10.282 -1.0186  1.1226  1.0806
26592SOL     OW82217   9.895   5.065   0.788 -0.3862  0.2385  0.0997
26592SOL    HW182218   9.939   4.984   0.761  0.3625  0.0495  1.7643
26592SOL    HW282219   9.915   5.127   0.717 -0.2464 -0.7794 -0.7813
26593SOL     OW82220   7.808   6.008   3.654  0.2100 -0.0509  0.3460
26593SOL    HW182221   7.763   6.051   3.726  1.8680  0.0755  1.3613
26593SOL    HW282222   7.793   5.914   3.668 -1.1619  0.0339 -0.3467
26594SOL     OW82223   1.560   6.011  10.228  0.6293  0.2099  0.2090
26594SOL    HW182224   1.531   6.012  10.320 -1.1619 -1.2921 -0.2506
26594SOL    HW282225   1.621   5.938  10.224 -0.0258 -0.3470  0.0558
26595SOL     OW82226   8.674   0.318   6.144 -0.3616  0.4427 -0.0744
26595SOL    HW182227   8.608   0.302   6.211 -2.2848  2.0540 -1.4353
26595SOL    HW282228   8.629   0.372   6.079  1.8154  0.1568 -1.9622
26596SOL     OW82229   5.233   8.485   9.287  0.0643 -0.1707 -0.1816
26596SOL    HW182230   5.256   8.393   9.278  1.1205 -0.0967  1.4369
26596SOL    HW282231   5.137   8.486   9.292 -0.1601 -0.8945 -2.8157
26597SOL     OW82232   7.616   4.759   6.615  0.1614  0.3864  0.2106
26597SOL    HW182233   7.548   4.823   6.636  0.3797  0.2906  1.2926
26597SOL    HW282234   7.691   4.812   6.587  0.3949  0.6301  1.2557
26598SOL     OW82235   9.366   7.077   1.318  0.1028 -1.1857  0.0484
26598SOL    HW182236   9.419   7.041   1.247  0.1954 -0.5419 -0.2173
26598SOL    HW282237   9.430   7.099   1.387  0.1926 -0.3961 -0.2777
26599SOL     OW82238   6.784   1.790  10.218  0.1541 -0.4349 -0.1024
26599SOL    HW182239   6.734   1.731  10.275  1.2326 -1.1039  0.1856
26599SOL    HW282240   6.873   1.753  10.218  0.5188  0.4087 -1.0347
26600SOL     OW82241   6.244   3.633   9.067 -0.2927 -0.3645 -0.0401
26600SOL    HW182242   6.271   3.692   9.138  1.6746 -0.7359 -0.4097
26600SOL    HW282243   6.270   3.546   9.098 -2.4351 -0.9770  0.1540
26601SOL     OW82244  10.380  10.409   1.684  0.2336 -0.2391  0.7045
26601SOL    HW182245  10.308  10.390   1.745 -0.4797 -1.5947 -0.4990
26601SOL    HW282246  10.436  10.332   1.688 -1.7244 -2.1161 -2.9097
26602SOL     OW82247   5.611   1.683   4.634  0.2800 -0.0228 -0.0733
26602SOL    HW182248   5.681   1.619   4.647 -0.9072 -1.2603  0.4319
26602SOL    HW282249   5.546   1.638   4.580 -0.6664  0.6872  0.4270
26603SOL     OW82250  10.249   0.632   4.504  0.1078  0.8070  0.6257
26603SOL    HW182251  10.178   0.567   4.503 -0.4379  1.3855  0.8590
26603SOL    HW282252  10.316   0.595   4.447 -0.5736  0.4552  0.0331
26604SOL     OW82253   0.551   5.274   2.087 -0.0833  0.2765 -0.1651
26604SOL    HW182254   0.482   5.216   2.122 -0.2868 -0.2773 -1.4314
26604SOL    HW282255   0.597   5.306   2.165 -1.1936 -0.0653  0.6616
26605SOL     OW82256   9.453   4.322   4.130  0.6443  0.2417 -0.0010
26605SOL    HW182257   9.467   4.377   4.052  0.1580  0.5600  0.1310
26605SOL    HW282258   9.456   4.384   4.203  2.1486 -0.1948  0.3375
26606SOL     OW82259   2.673   3.702   2.697  0.2632  0.2478  0.1237
26606SOL    HW182260   2.746   3.673   2.643  1.3411  2.2539  0.4192
26606SOL    HW282261   2.627   3.767   2.644 -0.0178  0.5719  0.7493
26607SOL     OW82262   8.712   8.391   4.376  0.2521 -0.2052  0.0256
26607SOL    HW182263   8.624   8.406   4.343  0.2871 -0.9650 -0.4258
26607SOL    HW282264   8.769   8.430   4.309  0.2978 -0.9672 -0.3815
26608SOL     OW82265   1.740   8.597   4.921 -0.0478 -0.1428 -0.1832
26608SOL    HW182266   1.801   8.525   4.938  1.0938  0.8194 -0.1689
26608SOL    HW282267   1.681   8.596   4.997 -1.0684 -2.0528 -0.9286
26609SOL     OW82268   8.651   2.899   1.658 -0.2254 -0.0153 -0.0863
26609SOL    HW182269   8.563   2.902   1.620 -0.3104 -0.0997  0.1020
26609SOL    HW282270   8.706   2.941   1.592 -0.2835 -0.6256 -0.5333
26610SOL     OW82271   6.492   5.208   8.958  0.6921 -0.3936 -0.4714
26610SOL    HW182272   6.522   5.158   9.034 -1.8970 -0.1755  0.8290
26610SOL    HW282273   6.532   5.294   8.969  0.1195 -0.2709  0.8699
26611SOL     OW82274   5.747   7.305   3.219  0.7916 -0.5213  0.0937
26611SOL    HW182275   5.712   7.353   3.294  1.6177  0.6973 -0.2863
26611SOL    HW282276   5.842   7.315   3.227  0.8765 -0.1996 -1.2332
26612SOL     OW82277   2.002   5.581   3.008 -0.0010  0.4499 -0.5018
26612SOL    HW182278   2.039   5.546   2.927 -0.6434  2.5405 -1.7643
26612SOL    HW282279   1.908   5.570   2.998 -0.1456  1.5740 -0.4873
26613SOL     OW82280   0.254   2.643   5.453  0.1578  0.1716 -0.0906
26613SOL    HW182281   0.232   2.730   5.420 -0.4865  0.0164 -0.0847
26613SOL    HW282282   0.249   2.586   5.376  0.7814  0.1715 -0.1338
26614SOL     OW82283   6.720   9.034   7.785  0.4108  0.1832 -1.2388
26614SOL    HW182284   6.757   8.994   7.864 -0.9525  0.5207 -0.4006
26614SOL    HW282285   6.625   9.033   7.800  0.2258  1.9739 -2.0373
26615SOL     OW82286   8.072   6.349   0.557  0.4374 -0.1705  0.0747
26615SOL    HW182287   8.115   6.270   0.590 -1.4498 -1.2099  0.1970
26615SOL    HW282288   8.021   6.319   0.482 -1.6299  0.5633  1.1103
26616SOL     OW82289   9.997   7.684   0.883 -0.2657  0.7182 -0.1257
26616SOL    HW182290   9.993   7.779   0.874  2.0761  0.7832 -1.4443
26616SOL    HW282291  10.057   7.656   0.813 -0.2287 -1.6324  0.7561
26617SOL     OW82292   8.546   7.615   3.249  0.2981 -0.0913 -0.3288
26617SOL    HW182293   8.482   7.686   3.254  0.0479 -0.4289  2.3104
26617SOL    HW282294   8.496   7.541   3.214 -0.2266  0.2030 -0.2122
26618SOL     OW82295   9.578   7.161   7.208 -0.5763  0.2141 -0.1453
26618SOL    HW182296   9.494   7.132   7.173  0.2399 -1.4485 -0.8544
26618SOL    HW282297   9.629   7.185   7.131  0.4450 -1.2682  0.0111
26619SOL     OW82298   0.257   6.993   1.391 -0.1860  0.6941  0.1700
26619SOL    HW182299   0.210   7.020   1.469 -1.4139  1.5740 -0.8209
26619SOL    HW282300   0.333   6.945   1.423 -2.4922 -2.1266  1.8618
26620SOL     OW82301   5.005   7.847   0.076 -0.1986 -1.0318 -0.1196
26620SOL    HW182302   5.096   7.825   0.096 -0.2085 -0.3815  0.6938
26620SOL    HW282303   4.960   7.846   0.161 -0.3255  1.4335 -0.0827
26621SOL     OW82304   1.453   6.171   1.306 -0.3239  0.2006  0.0777
26621SOL    HW182305   1.368   6.173   1.261 -0.7391 -1.2831  0.7307
26621SOL    HW282306   1.446   6.097   1.367  1.2046  0.4694  0.6199
26622SOL     OW82307   1.411   1.407   8.481 -0.3048 -0.2733  0.4732
26622SOL    HW182308   1.499   1.373   8.465  0.4213  2.2099 -1.4318
26622SOL    HW282309   1.424   1.486   8.533 -1.2898  0.6132 -0.5701
26623SOL     OW82310   5.253   0.123   3.227  0.2292  0.3100 -0.2520
26623SOL    HW182311   5.343   0.092   3.219  0.6303  1.3936 -0.1567
26623SOL    HW282312   5.249   0.164   3.313 -0.9206 -1.4307  0.5799
26624SOL     OW82313   4.886   9.822   5.517  0.0554  0.5915  0.0087
26624SOL    HW182314   4.917   9.881   5.449 -0.6044 -0.0913 -0.9179
26624SOL    HW282315   4.938   9.742   5.504 -1.0798 -0.0789 -0.6983
26625SOL     OW82316   1.424   9.063   8.239  0.3432 -0.2466 -0.4987
26625SOL    HW182317   1.427   8.974   8.205 -0.0444  0.2169 -1.8211
26625SOL    HW282318   1.373   9.056   8.319  1.4046 -1.4074  0.1083
26626SOL     OW82319  10.283  10.353   2.851  0.4312 -0.4208 -0.1479
26626SOL    HW182320  10.330  10.270   2.846 -0.3270 -0.8701  0.0545
26626SOL    HW282321  10.308  10.389   2.937 -1.6443 -1.9450  1.1841
26627SOL     OW82322   0.184   1.594   0.617 -0.0804 -0.5819  0.7900
26627SOL    HW182323   0.089   1.585   0.612 -0.1570 -0.5120  1.9846
26627SOL    HW282324   0.203   1.602   0.710  1.1476 -1.0668  0.5998
26628SOL     OW82325   5.626   8.917   7.681  0.1617 -0.1817 -0.6690
26628SOL    HW182326   5.655   8.992   7.628 -0.0421  0.6333  0.3595
26628SOL    HW282327   5.641   8.944   7.771  2.2487 -2.2506 -0.3047
26629SOL     OW82328   7.954   5.965   1.726 -0.0051  0.2313 -0.1259
26629SOL    HW182329   7.904   5.947   1.647  0.9846 -0.3763 -0.6280
26629SOL    HW282330   8.026   5.902   1.725  0.7627  1.0539  0.5869
26630SOL     OW82331   9.295   3.114   8.610  0.4198 -0.0936  0.3818
26630SOL    HW182332   9.253   3.084   8.690 -0.2406 -0.1044  0.0419
26630SOL    HW282333   9.363   3.175   8.640  0.4465 -0.4006  0.9634
26631SOL     OW82334  10.093   0.990   9.177  0.4313  0.1360  0.2250
26631SOL    HW182335  10.146   0.911   9.185  0.1907  0.0873  1.5867
26631SOL    HW282336  10.003   0.958   9.172  0.4427  0.2651 -0.8110
26632SOL     OW82337   1.959   5.010  10.037  0.2456  0.2185 -0.6079
26632SOL    HW182338   1.865   4.996  10.026  0.1233 -0.4187  1.0040
26632SOL    HW282339   1.998   4.925  10.018  0.3005 -0.0452  0.5941
26633SOL     OW82340   4.892   1.891  10.184  0.2246  0.4696  0.3612
26633SOL    HW182341   4.976   1.924  10.152  0.2968  1.1099  1.1860
26633SOL    HW282342   4.902   1.796  10.185  0.7819  0.5216  0.0345
26634SOL     OW82343   3.543   1.429   7.444  0.7759  0.0746  0.1176
26634SOL    HW182344   3.456   1.398   7.470  1.0211  0.7414  1.8655
26634SOL    HW282345   3.587   1.351   7.411 -0.1042 -0.5029  0.2729
26635SOL     OW82346   8.785   6.541   8.198  0.1130 -0.0796 -0.7295
26635SOL    HW182347   8.750   6.513   8.283  2.0692  0.6750  0.3792
26635SOL    HW282348   8.871   6.500   8.193 -0.1038 -0.3903 -2.5388
26636SOL     OW82349   1.728   2.711   5.382 -0.2245 -0.4039  0.4141
26636SOL    HW182350   1.707   2.707   5.289 -0.2315  0.1052  0.3939
26636SOL    HW282351   1.764   2.624   5.402  0.3534 -0.3110 -0.2034
26637SOL     OW82352  10.280   9.339   5.669 -0.3591 -0.2167 -0.0213
26637SOL    HW182353  10.306   9.431   5.669  0.1481 -0.3541  0.6403
26637SOL    HW282354  10.215   9.333   5.599 -0.9769  0.8058  0.4284
26638SOL     OW82355   5.690   7.699   1.508 -0.1642  0.2640 -0.4294
26638SOL    HW182356   5.666   7.665   1.594 -0.3030  1.6465  0.1037
26638SOL    HW282357   5.753   7.636   1.474 -1.0968 -0.9975  0.1079
26639SOL     OW82358   9.686   0.572   1.906  0.0673 -0.0151 -0.3000
26639SOL    HW182359   9.777   0.543   1.916 -0.0414 -0.6155 -0.9891
26639SOL    HW282360   9.680   0.599   1.814 -0.3115  0.5217 -0.1194
26640SOL     OW82361   6.829   6.723   7.768  0.1689 -1.0018 -0.2354
26640SOL    HW182362   6.799   6.811   7.791  0.3365 -1.6802  2.9763
26640SOL    HW282363   6.903   6.738   7.708  0.4222  1.0695  0.5148
26641SOL     OW82364   8.474   0.731   1.141  0.2707 -0.4264 -0.5175
26641SOL    HW182365   8.478   0.827   1.141  0.1007 -0.1130  4.9043
26641SOL    HW282366   8.381   0.711   1.139  0.1063 -0.1412  1.5486
26642SOL     OW82367   1.049   8.584   4.193 -0.1915  0.0744  0.1413
26642SOL    HW182368   0.984   8.529   4.238  0.3201 -0.1329  0.6353
26642SOL    HW282369   1.130   8.569   4.240 -0.0097  1.1656  0.2018
26643SOL     OW82370   4.578   7.908   4.901 -0.2058 -0.0808 -0.2609
26643SOL    HW182371   4.581   7.897   4.806  1.1811  1.1940 -0.4110
26643SOL    HW282372   4.628   7.833   4.935  1.2370  0.6546 -0.6947
26644SOL     OW82373   6.580   4.019   9.839  0.7422 -0.0828 -0.0728
26644SOL    HW182374   6.666   4.047   9.809  0.4641  0.9044  0.0023
26644SOL    HW282375   6.521   4.090   9.811 -0.2859 -1.3891 -1.4076
26645SOL     OW82376   2.346   6.402   1.368  0.0070 -0.0158 -0.3360
26645SOL    HW182377   2.420   6.348   1.341 -0.4497 -1.4099  1.0777
26645SOL    HW282378   2.386   6.483   1.402  0.7145  0.3915 -2.0451
26646SOL     OW82379   8.825   6.500   9.490  0.8354 -0.0304 -0.0603
26646SOL    HW182380   8.860   6.412   9.499 -0.0798 -0.5839 -1.4684
26646SOL    HW282381   8.788   6.502   9.401 -2.6095  0.4952  1.2218
26647SOL     OW82382   4.184   9.380   9.837  0.0811  0.3815  0.3515
26647SOL    HW182383   4.103   9.406   9.793  0.8004  0.3276 -1.0830
26647SOL    HW282384   4.169   9.289   9.863 -0.1704  0.2180 -0.3246
26648SOL     OW82385   8.715   7.573   2.484 -0.4242 -0.3263 -0.0364
26648SOL    HW182386   8.726   7.519   2.562  0.1598  0.2723  0.3119
26648SOL    HW282387   8.686   7.658   2.517 -3.4539 -0.9673 -0.7195
26649SOL     OW82388   4.604   3.400   1.200  0.1052 -0.0700  0.1639
26649SOL    HW182389   4.558   3.330   1.246  0.7106 -0.3370  0.3769
26649SOL    HW282390   4.619   3.366   1.112 -0.6593  0.2674 -0.1056
26650SOL     OW82391   6.240   2.189   7.128  0.2658 -0.4941 -0.2915
26650SOL    HW182392   6.160   2.155   7.087  0.2994  0.1328 -0.9019
26650SOL    HW282393   6.213   2.274   7.164 -0.2214 -1.7506  2.5748
26651SOL     OW82394   0.587   2.234   8.541 -0.7961 -0.1684 -0.2231
26651SOL    HW182395   0.580   2.234   8.446 -1.4231  0.5830 -0.1874
26651SOL    HW282396   0.677   2.207   8.559 -0.5614  0.0525 -1.0293
26652SOL     OW82397   6.150   4.524   1.939 -0.3021  1.3446 -0.2621
26652SOL    HW182398   6.103   4.592   1.891 -0.4465  0.5148 -1.3474
26652SOL    HW282399   6.215   4.492   1.877 -1.2220 -0.5172 -0.3515
26653SOL     OW82400   8.021   1.633   7.611  0.1709  0.0594 -0.0547
26653SOL    HW182401   8.015   1.544   7.577  0.6197 -0.0119  0.0425
26653SOL    HW282402   8.008   1.623   7.706  1.0656 -0.0167  0.0707
26654SOL     OW82403  10.401   0.966   4.279 -0.4214  0.6563  0.5451
26654SOL    HW182404  10.429   0.882   4.316 -0.1127  1.0748  1.2995
26654SOL    HW282405  10.443   1.032   4.335 -0.4233  1.3184 -0.2125
26655SOL     OW82406   2.240   5.637   3.525  0.4446  0.0661  0.0259
26655SOL    HW182407   2.185   5.621   3.449 -0.0686 -1.0151  0.6108
26655SOL    HW282408   2.235   5.732   3.539 -1.1480  0.0081 -0.0197
26656SOL     OW82409   3.641   1.709   5.689  0.2933 -0.1049  0.5663
26656SOL    HW182410   3.571   1.752   5.737  0.3975  0.5898  0.1031
26656SOL    HW282411   3.712   1.773   5.688  1.0944 -0.9385  1.3661
26657SOL     OW82412  10.367   2.915   1.261 -0.3491 -0.2167  0.3532
26657SOL    HW182413  10.402   2.973   1.194 -1.0312  0.3902  0.5052
26657SOL    HW282414  10.363   2.829   1.220  0.0568 -0.0254 -0.0921
26658SOL     OW82415   4.436   4.821   6.340  0.2154  0.4539  0.0975
26658SOL    HW182416   4.449   4.744   6.395 -1.6269 -0.5644 -0.8172
26658SOL    HW282417   4.372   4.874   6.388  0.2391  0.6241 -0.0584
26659SOL     OW82418   2.409   1.958   6.322 -0.1706 -0.4593  0.4172
26659SOL    HW182419   2.313   1.956   6.324 -0.1708 -0.8867  0.0898
26659SOL    HW282420   2.431   1.977   6.231  0.0325  3.1636  1.0790
26660SOL     OW82421   9.938   9.723   6.105 -0.2599 -0.0761  0.3905
26660SOL    HW182422   9.875   9.786   6.069  0.6102 -0.0281 -1.1640
26660SOL    HW282423   9.887   9.645   6.123 -0.6724 -0.3618 -1.7217
26661SOL     OW82424   3.454   1.309   3.993  0.6460  0.0226 -0.1727
26661SOL    HW182425   3.495   1.395   4.001  0.2434  0.0709  2.0353
26661SOL    HW282426   3.394   1.318   3.919  0.1135  1.8818  0.4326
26662SOL     OW82427   2.860   4.549  10.258 -0.4087 -0.2900  0.0597
26662SOL    HW182428   2.879   4.617  10.193  0.0568 -0.6715 -0.2066
26662SOL    HW282429   2.867   4.595  10.342  1.3916 -0.3215 -0.0380
26663SOL     OW82430   5.581   1.993   1.002  0.2707 -0.0123 -0.2129
26663SOL    HW182431   5.668   1.956   1.011  0.2905  0.0987  0.0747
26663SOL    HW282432   5.527   1.944   1.065  0.4380  0.8722  0.6519
26664SOL     OW82433   7.009   6.553   8.919 -0.0811 -0.3752 -0.7062
26664SOL    HW182434   7.096   6.592   8.909 -0.0851 -0.1187  0.1855
26664SOL    HW282435   7.016   6.468   8.877  0.3609 -0.0218 -1.3652
26665SOL     OW82436   3.915   8.319   1.148 -0.0062  0.0513  0.7579
26665SOL    HW182437   3.929   8.325   1.054  2.2748 -0.9086  0.9784
26665SOL    HW282438   3.845   8.254   1.158 -1.5700  1.4813 -0.2714
26666SOL     OW82439   7.935   0.054   3.037  0.1334  0.0731 -0.0918
26666SOL    HW182440   7.956  -0.039   3.047  1.4173  0.2676 -0.7573
26666SOL    HW282441   7.919   0.085   3.126  1.5945 -0.3833  0.3653
26667SOL     OW82442   8.391   8.076   3.882 -0.1650  0.1459  0.6420
26667SOL    HW182443   8.425   8.081   3.972  1.7412 -1.9871  0.1240
26667SOL    HW282444   8.408   8.163   3.845 -0.5637  0.9164  2.1786
26668SOL     OW82445   0.334   1.555   3.339 -0.0764  0.3637  0.3852
26668SOL    HW182446   0.253   1.511   3.364  0.0910  0.2727  0.7735
26668SOL    HW282447   0.394   1.540   3.412  0.8477 -0.9557 -0.6041
26669SOL     OW82448   5.534  10.086  10.343 -0.3493 -0.0163  0.3712
26669SOL    HW182449   5.509  10.170  10.381  0.0834 -0.4768  1.7385
26669SOL    HW282450   5.574  10.038  10.416  0.3274 -1.0207 -0.6319
26670SOL     OW82451   9.013  10.076   8.837 -0.6760 -0.6875 -0.0057
26670SOL    HW182452   8.961  10.156   8.825 -1.4522 -0.8538  1.9364
26670SOL    HW282453   9.100  10.107   8.862  0.0507 -0.4283 -2.5591
26671SOL     OW82454   3.685   2.683   8.353 -0.5782 -0.4928 -0.3796
26671SOL    HW182455   3.746   2.655   8.422  0.9374  2.1563 -0.4827
26671SOL    HW282456   3.629   2.748   8.396 -1.4418 -0.8234 -0.9972
26672SOL     OW82457   5.200   8.889   8.197 -0.2514 -0.0506 -0.3857
26672SOL    HW182458   5.223   8.928   8.282  1.6255 -1.8229 -0.0164
26672SOL    HW282459   5.259   8.931   8.135 -0.1763 -0.2617 -0.4573
26673SOL     OW82460   1.526   6.253   4.782  0.7407  0.1564  0.4742
26673SOL    HW182461   1.527   6.223   4.872 -0.1671 -0.8760  0.1725
26673SOL    HW282462   1.448   6.211   4.744  1.6949 -0.2908 -1.0684
26674SOL     OW82463   3.580   0.387   6.292 -0.0152 -0.0873 -1.0782
26674SOL    HW182464   3.484   0.389   6.289 -0.4766 -5.5987 -0.9169
26674SOL    HW282465   3.601   0.328   6.364  3.5189  0.4102 -1.5191
26675SOL     OW82466   3.534   4.125   8.369  0.2794  0.3424  0.3383
26675SOL    HW182467   3.606   4.171   8.327 -1.7370  1.9285 -1.6078
26675SOL    HW282468   3.485   4.194   8.414 -0.4955 -0.5819  0.9576
26676SOL     OW82469   2.953   8.537   4.176 -0.3502  0.1224 -0.2218
26676SOL    HW182470   3.008   8.573   4.246 -2.1399 -1.1762  1.9868
26676SOL    HW282471   3.015   8.502   4.112  1.4392 -0.8530  1.9109
26677SOL     OW82472   4.451   5.837   6.510  0.2639 -0.3467 -0.2542
26677SOL    HW182473   4.452   5.859   6.417 -0.4781  1.2214  0.0832
26677SOL    HW282474   4.376   5.779   6.521 -0.0302 -0.0154 -0.5234
26678SOL     OW82475   1.111   2.307   3.883  1.1607 -0.2407 -0.4663
26678SOL    HW182476   1.047   2.376   3.903  1.0375  0.3793 -2.6936
26678SOL    HW282477   1.059   2.227   3.877  0.6076  0.1819 -1.8078
26679SOL     OW82478   7.737   6.139   3.869  0.6529  0.0291  0.0972
26679SOL    HW182479   7.799   6.144   3.942  1.3742 -1.3135 -0.3723
26679SOL    HW282480   7.691   6.222   3.870  1.4808  0.5004  1.3486
26680SOL     OW82481   9.820   5.019   2.143 -0.2435  0.3651  0.0116
26680SOL    HW182482   9.774   5.014   2.059  1.0035 -0.5365 -0.6613
26680SOL    HW282483   9.768   4.966   2.202 -1.3073  1.2626 -0.0906
26681SOL     OW82484   0.728   5.193   2.648  0.0268  0.6027  0.7078
26681SOL    HW182485   0.762   5.275   2.683  1.7118 -0.3881  1.5459
26681SOL    HW282486   0.792   5.127   2.675 -0.7234 -0.8434 -0.8212
26682SOL     OW82487   2.135   3.044   5.790  0.6179  0.1129 -0.5261
26682SOL    HW182488   2.133   3.126   5.741  0.8475  0.5050  0.1124
26682SOL    HW282489   2.194   2.988   5.740  1.7657  0.8993 -0.0938
26683SOL     OW82490   1.141   3.453   2.802 -0.2381  0.4420  0.1514
26683SOL    HW182491   1.230   3.463   2.836 -0.5024 -1.0916  1.3547
26683SOL    HW282492   1.128   3.359   2.796 -1.1106  0.6447 -1.9204
26684SOL     OW82493   6.313   7.308   9.276  0.1654  0.3764  0.7464
26684SOL    HW182494   6.228   7.351   9.289 -0.1150  0.0183  0.1117
26684SOL    HW282495   6.369   7.346   9.344 -0.4700  0.6972  1.1040
26685SOL     OW82496   2.989   5.425   6.780  0.5940 -0.2999 -0.1897
26685SOL    HW182497   2.917   5.368   6.806  0.3421  0.0346 -0.1307
26685SOL    HW282498   2.967   5.451   6.690  1.4250 -1.3988 -0.7276
26686SOL     OW82499   8.387   1.551  10.457 -0.1082 -0.0881 -0.2418
26686SOL    HW182500   8.434   1.487  10.404  0.7589  0.7836 -0.5550
26686SOL    HW282501   8.388   1.632  10.406  0.3725  0.6582  0.8862
26687SOL     OW82502   3.334   0.956   5.345  0.3842 -0.1473  0.1341
26687SOL    HW182503   3.396   0.907   5.398  0.1485 -0.0254  0.5265
26687SOL    HW282504   3.301   1.024   5.403 -0.2051 -0.2831 -0.0323
26688SOL     OW82505   4.205   6.399  10.156 -0.5671  0.1305  0.8281
26688SOL    HW182506   4.214   6.398  10.252 -1.1760  1.6445  0.9296
26688SOL    HW282507   4.234   6.486  10.130  2.7859 -1.3116 -0.7713
26689SOL     OW82508   3.567   6.154   3.028  0.1220  0.0609  0.2420
26689SOL    HW182509   3.551   6.086   3.094 -0.1882 -0.2082 -0.1128
26689SOL    HW282510   3.569   6.236   3.079 -0.2901 -0.1253  0.5655
26690SOL     OW82511   2.518   1.828   2.909 -0.4561  0.3669  0.3270
26690SOL    HW182512   2.589   1.874   2.863 -2.5355  1.9196 -1.5715
26690SOL    HW282513   2.484   1.766   2.843 -0.9390 -0.3017  1.1863
26691SOL     OW82514   4.182   5.209   7.145 -0.6184  0.0862  0.2109
26691SOL    HW182515   4.180   5.115   7.129  0.8049  0.0930 -0.1920
26691SOL    HW282516   4.261   5.222   7.199 -0.6437  1.0748  0.0265
26692SOL     OW82517   7.000   9.675  10.353  0.5532  0.2304  0.3181
26692SOL    HW182518   7.072   9.634  10.401 -0.7393 -0.7393  1.5306
26692SOL    HW282519   6.991   9.623  10.274 -1.1424 -2.1182  1.8874
26693SOL     OW82520   6.933   2.318   8.324 -0.1815 -0.1042 -0.3596
26693SOL    HW182521   6.992   2.351   8.256 -0.1233 -1.0412 -0.7860
26693SOL    HW282522   6.922   2.225   8.302 -2.8060  0.2963 -1.0247
26694SOL     OW82523   8.779   0.200   1.687  0.6694 -0.0488 -0.5014
26694SOL    HW182524   8.791   0.147   1.766  2.2798 -0.1780 -0.8060
26694SOL    HW282525   8.747   0.139   1.622 -2.9855  0.4737  0.5633
26695SOL     OW82526   5.258  10.327   9.295 -0.4571  0.2287 -0.0948
26695SOL    HW182527   5.212  10.293   9.219  0.0004  1.6480 -1.0272
26695SOL    HW282528   5.190  10.336   9.362 -1.0313 -0.1808 -0.6166
26696SOL     OW82529   1.034   8.083   6.296  0.4850 -0.2969  0.1976
26696SOL    HW182530   0.939   8.077   6.282  0.6021  0.9969 -1.4916
26696SOL    HW282531   1.053   8.016   6.361 -1.3218 -1.8540 -0.7773
26697SOL     OW82532   0.468   2.808   8.476  0.1168 -0.2052 -0.2306
26697SOL    HW182533   0.555   2.846   8.466 -0.2740  0.4866 -1.1774
26697SOL    HW282534   0.423   2.866   8.538 -0.0448  0.1117 -0.6417
26698SOL     OW82535   3.096   3.946   1.048  0.3246  0.1471  0.5871
26698SOL    HW182536   3.097   3.921   0.956  0.5587  1.1368  0.3051
26698SOL    HW282537   3.027   3.894   1.087  0.9866 -1.1320  0.0985
26699SOL     OW82538   8.873   0.482   9.422 -0.2654  0.6185 -0.4334
26699SOL    HW182539   8.923   0.489   9.503  0.0860  0.4525 -0.6378
26699SOL    HW282540   8.819   0.561   9.421 -0.6617  0.3706  0.2226
26700SOL     OW82541   3.898   2.699   4.787 -0.2726 -0.3937  0.3442
26700SOL    HW182542   3.945   2.651   4.855 -0.2410 -1.8062 -0.6394
26700SOL    HW282543   3.966   2.734   4.730 -0.3441 -1.9175 -0.7313
26701SOL     OW82544   8.690   0.947   7.187 -0.2946  0.0115 -0.4011
26701SOL    HW182545   8.641   0.872   7.153  0.2951  0.3949 -2.1746
26701SOL    HW282546   8.679   1.015   7.121 -1.3163  1.7412  1.4551
26702SOL     OW82547   5.886   0.432   7.050  0.2630 -0.1829 -0.0226
26702SOL    HW182548   5.817   0.439   6.984 -0.8141 -0.1099  1.0645
26702SOL    HW282549   5.839   0.429   7.133  1.4774 -1.9514  0.6720
26703SOL     OW82550   6.470   7.435   4.226  0.0366  0.2694  0.1121
26703SOL    HW182551   6.539   7.380   4.191 -1.5401 -1.3746 -0.6014
26703SOL    HW282552   6.474   7.421   4.321 -0.1459 -0.9003 -0.0334
26704SOL     OW82553   3.757   7.772   6.366 -0.3441 -0.0625 -0.0182
26704SOL    HW182554   3.758   7.817   6.281 -0.8838  0.9375  0.4888
26704SOL    HW282555   3.775   7.681   6.344 -3.2974 -0.3952 -1.5446
26705SOL     OW82556   4.898   5.434   3.451  0.2602 -0.1532  0.1405
26705SOL    HW182557   4.809   5.425   3.486 -0.3160  0.0188 -1.2184
26705SOL    HW282558   4.910   5.356   3.397  0.3610  0.5294 -0.8542
26706SOL     OW82559   9.822   0.469   3.936 -0.1859  0.3656 -0.1347
26706SOL    HW182560   9.810   0.375   3.923 -2.3984  0.3358  1.5592
26706SOL    HW282561   9.755   0.509   3.879  0.6147  0.9327 -0.7003
26707SOL     OW82562   7.857   0.486   1.516 -0.4676  0.3768 -0.0967
26707SOL    HW182563   7.852   0.515   1.607 -0.7415 -1.0461  0.3618
26707SOL    HW282564   7.919   0.413   1.517  1.6875  2.0827 -1.5394
26708SOL     OW82565   8.101   1.117   2.797  0.0908  0.6295 -0.2697
26708SOL    HW182566   8.103   1.173   2.875 -2.0918 -0.1316  0.4277
26708SOL    HW282567   8.101   1.028   2.831 -1.2676  0.2846 -1.0695
26709SOL     OW82568   3.159   7.336   2.088 -0.1484 -0.5741  0.0510
26709SOL    HW182569   3.069   7.337   2.118 -0.4115 -2.7320 -0.5138
26709SOL    HW282570   3.211   7.359   2.166 -1.1389  0.5369  0.4077
26710SOL     OW82571   9.874   9.340   6.677 -0.2758 -0.5122 -0.4323
26710SOL    HW182572   9.871   9.299   6.590 -1.3458 -0.3938 -0.4701
26710SOL    HW282573   9.796   9.397   6.679 -0.6005 -0.9696  0.8289
26711SOL     OW82574   8.169  10.268   9.530 -0.1624 -0.3917  0.0076
26711SOL    HW182575   8.183  10.345   9.585 -0.3341 -0.7870  0.6216
26711SOL    HW282576   8.230  10.278   9.458 -0.4945  0.5407 -0.1529
26712SOL     OW82577   9.734   1.586   9.586 -0.0157  0.2204  0.0979
26712SOL    HW182578   9.664   1.642   9.617 -0.5243  0.5234 -1.4854
26712SOL    HW282579   9.793   1.646   9.539  1.3783 -0.0089  1.4526
26713SOL     OW82580   4.011   8.165   2.093  0.0973 -0.5190  0.0617
26713SOL    HW182581   4.039   8.170   2.001  0.2332  1.1523  0.1629
26713SOL    HW282582   4.093   8.153   2.142  0.0361 -1.2998 -0.0200
26714SOL     OW82583   4.164   2.952   3.740 -0.4429 -0.1118 -0.1448
26714SOL    HW182584   4.124   2.916   3.819  1.1671 -1.2438  0.2055
26714SOL    HW282585   4.237   3.005   3.771  1.5272 -2.2442 -0.8450
26715SOL     OW82586   0.423   9.899   7.645  0.6406 -0.0643  0.3208
26715SOL    HW182587   0.412   9.863   7.733  1.0506  1.6631  1.1274
26715SOL    HW282588   0.504   9.949   7.650  1.0787 -0.5778 -1.2828
26716SOL     OW82589   3.574   4.654   9.335 -0.4387  0.3435  0.3497
26716SOL    HW182590   3.504   4.608   9.288 -0.6534  1.1070 -0.0894
26716SOL    HW282591   3.537   4.740   9.354  0.7581  1.1640 -0.8672
26717SOL     OW82592   0.780  10.231   7.076 -0.3152  0.2828 -0.2669
26717SOL    HW182593   0.797  10.207   6.985 -0.9292  0.4055 -0.4144
26717SOL    HW282594   0.836  10.307   7.091 -1.0242  0.9311 -0.8700
26718SOL     OW82595   6.545   8.430   6.766  0.2770 -0.3355  0.1173
26718SOL    HW182596   6.628   8.473   6.782 -1.3049  2.6375  1.0070
26718SOL    HW282597   6.479   8.496   6.784 -2.2891 -1.9248 -2.4413
26719SOL     OW82598   4.161   0.112   3.811 -0.2532  0.6605  0.0775
26719SOL    HW182599   4.195   0.117   3.721 -0.6375  2.4346  0.0133
26719SOL    HW282600   4.069   0.137   3.804 -0.7686 -0.8773  0.7529
26720SOL     OW82601   1.274   9.156   2.273  0.3074 -0.2668 -0.4547
26720SOL    HW182602   1.265   9.173   2.367  3.4079 -0.6641  0.0056
26720SOL    HW282603   1.261   9.061   2.265  2.0944 -0.5746 -0.0578
26721SOL     OW82604   5.117   7.970   9.408 -0.0113 -0.0725  0.1051
26721SOL    HW182605   5.051   7.927   9.353  1.1414 -0.8086 -0.7449
26721SOL    HW282606   5.201   7.935   9.377  0.7043 -0.2957  2.1258
26722SOL     OW82607   4.079   5.599   4.733 -0.6956 -0.4498 -0.0787
26722SOL    HW182608   4.095   5.512   4.697  0.1449  0.5069 -2.2122
26722SOL    HW282609   4.109   5.659   4.664 -3.4165  1.5503  0.3287
26723SOL     OW82610   7.485   4.389   8.989 -0.2631 -0.3612  0.0902
26723SOL    HW182611   7.429   4.440   8.931  1.4586 -0.6654 -1.9619
26723SOL    HW282612   7.456   4.298   8.977  0.9441 -0.5958 -1.4415
26724SOL     OW82613   9.464   8.914   0.162  0.0112  0.0951 -0.7699
26724SOL    HW182614   9.470   8.824   0.130  0.5673 -0.4148  0.6993
26724SOL    HW282615   9.499   8.911   0.251 -3.5016  0.9803  0.8301
26725SOL     OW82616   4.949   5.282   2.641 -0.7398 -0.6344 -0.2195
26725SOL    HW182617   4.991   5.314   2.560 -0.2491  1.8944  0.9365
26725SOL    HW282618   5.012   5.219   2.676 -0.3406 -0.7732 -1.1290
26726SOL     OW82619   5.657   8.135   3.729 -0.0337  0.6187  0.7436
26726SOL    HW182620   5.731   8.144   3.789  1.7179 -1.6435 -0.8809
26726SOL    HW282621   5.681   8.189   3.654  0.1846 -0.3723  0.0751
26727SOL     OW82622   3.594   4.655   9.007 -0.2202  0.4616  0.3540
26727SOL    HW182623   3.560   4.600   9.077 -1.6955  1.6252  0.6148
26727SOL    HW282624   3.525   4.720   8.993  0.1063  0.3685 -2.0564
26728SOL     OW82625   3.581   0.151   8.548  0.0745  0.1747  0.0323
26728SOL    HW182626   3.642   0.209   8.503  1.3467 -1.5843 -0.6387
26728SOL    HW282627   3.611   0.063   8.525 -2.3080 -0.7690  0.2739
26729SOL     OW82628   4.296   2.974   3.340 -0.2296  0.5797  0.2941
26729SOL    HW182629   4.321   2.890   3.381 -2.0668  0.4867  1.3388
26729SOL    HW282630   4.320   3.040   3.405  0.5310  0.8126 -0.2129
26730SOL     OW82631   6.897   5.909   4.436  0.1955  0.9135  0.3604
26730SOL    HW182632   6.824   5.847   4.439  0.4992  0.5172 -0.3239
26730SOL    HW282633   6.863   5.988   4.479  0.0590  0.0335  1.9490
26731SOL     OW82634   9.254   4.047   0.763 -0.0993  0.2850  0.2866
26731SOL    HW182635   9.165   4.024   0.735  0.0247  0.9079 -0.6667
26731SOL    HW282636   9.242   4.128   0.813 -0.0464  0.5507 -0.1198
26732SOL     OW82637  10.041   6.324   0.995 -0.0122 -0.8318 -0.3225
26732SOL    HW182638  10.009   6.332   1.085 -1.0951  1.5591 -0.8291
26732SOL    HW282639  10.008   6.240   0.965 -0.6290 -1.1461  1.1485
26733SOL     OW82640   4.373   3.088   7.628 -0.0351  0.1193 -0.1907
26733SOL    HW182641   4.414   3.167   7.661  1.6186 -0.5738 -0.4694
26733SOL    HW282642   4.394   3.021   7.693 -1.2240 -0.1401 -0.0635
26734SOL     OW82643   3.896   4.429  10.106  0.1941  0.1521 -0.7113
26734SOL    HW182644   3.952   4.442  10.030  0.2928 -1.1325 -0.8866
26734SOL    HW282645   3.817   4.388  10.072 -0.2462  0.6152 -0.2689
26735SOL     OW82646   4.834   0.152   3.012  0.2337  0.2425 -0.0256
26735SOL    HW182647   4.928   0.134   3.025  0.3517  1.0629  0.3100
26735SOL    HW282648   4.790   0.083   3.062  0.6627  0.1060  0.1704
26736SOL     OW82649   9.380   0.239  10.018  0.2308 -0.0440  0.2537
26736SOL    HW182650   9.335   0.154  10.018  0.0039  0.0723 -0.3236
26736SOL    HW282651   9.396   0.258   9.925  1.8071 -0.2501  0.4528
26737SOL     OW82652   1.892   7.072   1.136 -0.1746  0.5300  0.5041
26737SOL    HW182653   1.846   7.063   1.053 -1.0894 -1.2298  1.1468
26737SOL    HW282654   1.941   7.153   1.127  0.3008  0.0594 -2.0124
26738SOL     OW82655   4.623   4.313   6.581  0.1706 -0.5743 -0.0297
26738SOL    HW182656   4.591   4.295   6.669  0.3887  0.9648  0.3801
26738SOL    HW282657   4.718   4.303   6.587  0.0146 -3.6545 -0.8976
26739SOL     OW82658   9.342   4.561   2.225  0.1307  0.0384  0.1883
26739SOL    HW182659   9.416   4.502   2.216 -0.6776 -0.7499 -2.0922
26739SOL    HW282660   9.291   4.524   2.298 -0.6224 -2.4874 -1.4835
26740SOL     OW82661   1.129   1.733   9.613 -0.3563 -0.0945  0.3649
26740SOL    HW182662   1.157   1.642   9.617 -0.6208 -0.2411 -0.6763
26740SOL    HW282663   1.179   1.770   9.540 -0.3357  0.5554  0.7053
26741SOL     OW82664   2.610   3.295   0.848 -0.2609  0.4469 -0.3148
26741SOL    HW182665   2.524   3.253   0.841 -0.1619  0.4995 -3.5883
26741SOL    HW282666   2.663   3.234   0.899 -2.2614  0.6493  2.2368
26742SOL     OW82667   1.287   5.338   2.583  0.1780 -0.1252  0.0504
26742SOL    HW182668   1.288   5.295   2.669 -1.4189  1.4691  0.9549
26742SOL    HW282669   1.201   5.317   2.547  1.1875 -1.5936 -1.6756
26743SOL     OW82670   9.043   7.666   4.700 -0.9534 -0.3572 -0.6365
26743SOL    HW182671   9.098   7.673   4.622 -0.6780 -1.7210 -0.5873
26743SOL    HW282672   8.958   7.700   4.672 -0.8244 -0.7204 -1.5020
26744SOL     OW82673   6.901   7.945   1.687  0.1682 -0.1230  0.0153
26744SOL    HW182674   6.822   7.892   1.678 -0.3443  0.4628  0.9456
26744SOL    HW282675   6.971   7.881   1.701 -0.4295 -0.5817  1.0511
26745SOL     OW82676   6.218   8.925   3.784  0.4101  0.5685  0.1863
26745SOL    HW182677   6.163   9.002   3.770 -1.2342 -0.6011 -0.0726
26745SOL    HW282678   6.158   8.851   3.775  2.0561 -0.7776 -0.2016
26746SOL     OW82679   0.196   9.253   5.716  0.3797 -0.4898  0.2453
26746SOL    HW182680   0.174   9.174   5.666  2.2486 -1.6674  1.1789
26746SOL    HW282681   0.113   9.279   5.757 -0.9155 -0.2598 -2.3004
26747SOL     OW82682   4.061   1.798   9.943 -0.1767 -0.0049  0.4531
26747SOL    HW182683   4.133   1.851   9.909 -2.0953  2.1778 -0.4961
26747SOL    HW282684   4.071   1.803  10.038  0.9040  0.2662  0.3364
26748SOL     OW82685   8.421   5.682   4.577  0.3262 -0.6305  0.3640
26748SOL    HW182686   8.393   5.596   4.546 -0.7576 -0.6925  1.4276
26748SOL    HW282687   8.343   5.737   4.569  0.5230 -0.1887  1.2505
26749SOL     OW82688   9.419   9.594   2.922 -0.9152 -0.2522 -0.5299
26749SOL    HW182689   9.385   9.508   2.948 -2.7484 -0.0645 -2.1031
26749SOL    HW282690   9.440   9.585   2.829 -2.5575  1.3741 -1.1054
26750SOL     OW82691   0.431   4.896   9.003 -0.2950  0.1317 -0.5596
26750SOL    HW182692   0.356   4.953   8.985 -0.6283 -0.2023 -0.2469
26750SOL    HW282693   0.493   4.952   9.050 -0.5295  0.2884 -0.4368
26751SOL     OW82694   7.209   4.489   5.645 -0.3248  0.2050 -0.4682
26751SOL    HW182695   7.194   4.483   5.740  1.3437  1.1996 -0.1028
26751SOL    HW282696   7.231   4.400   5.618  1.5725  0.3271  0.5503
26752SOL     OW82697  10.300   5.282   3.851  0.1582 -0.0542  0.3905
26752SOL    HW182698  10.324   5.321   3.767 -1.4037 -0.3819 -0.2449
26752SOL    HW282699  10.216   5.323   3.873 -0.6112 -1.6813  0.6153
26753SOL     OW82700   2.174  10.017   6.768  0.1752 -0.1146 -0.2299
26753SOL    HW182701   2.164  10.108   6.742  1.0017 -0.1787 -0.8427
26753SOL    HW282702   2.113  10.005   6.841 -1.0191  0.5199 -1.0976
26754SOL     OW82703   0.705   7.696   0.277  0.8896 -0.3207  0.0099
26754SOL    HW182704   0.727   7.780   0.317  0.9208  0.6429 -1.9052
26754SOL    HW282705   0.615   7.679   0.307  0.1009  1.4503 -1.1474
26755SOL     OW82706   2.396   5.253  10.219  0.8236 -0.0775 -0.1980
26755SOL    HW182707   2.383   5.324  10.282  0.1372  1.0053 -1.5086
26755SOL    HW282708   2.356   5.176  10.261 -1.2992  1.0262 -0.0563
26756SOL     OW82709   5.042   9.265   2.227 -0.1078  0.2711  0.0478
26756SOL    HW182710   5.034   9.244   2.320 -1.6567  1.4186  0.2204
26756SOL    HW282711   4.999   9.350   2.219  1.3661  0.9209 -1.4659
26757SOL     OW82712  10.136   0.953   1.059 -0.4474 -0.2047 -0.5758
26757SOL    HW182713  10.047   0.985   1.076 -0.3192 -0.7840  1.4187
26757SOL    HW282714  10.182   1.028   1.022 -1.1226  0.8590  0.6574
26758SOL     OW82715  10.362   0.576   1.341 -0.2932 -0.6421  0.2163
26758SOL    HW182716  10.330   0.652   1.293 -2.0530 -1.7087 -0.3928
26758SOL    HW282717  10.348   0.597   1.433 -1.0398 -0.3355  0.0377
26759SOL     OW82718   6.389   1.592   5.941  0.4170 -0.0619 -0.0590
26759SOL    HW182719   6.459   1.639   5.894 -0.1829  0.9046 -0.0160
26759SOL    HW282720   6.417   1.501   5.941  1.7659  0.3299  0.0943
26760SOL     OW82721   3.812   8.184   4.952  0.0742 -0.4481 -0.1735
26760SOL    HW182722   3.811   8.177   5.048 -0.4683  0.3823 -0.1173
26760SOL    HW282723   3.722   8.167   4.926 -0.4073  2.0579 -0.3269
26761SOL     OW82724   0.190   5.185   6.647 -1.2129 -0.3890  0.3846
26761SOL    HW182725   0.284   5.185   6.662 -1.2221  1.4769  0.7668
26761SOL    HW282726   0.181   5.175   6.553 -0.5076  1.3074  0.0973
26762SOL     OW82727   1.694   0.695   3.074 -0.1651  0.2261  0.3758
26762SOL    HW182728   1.724   0.620   3.126 -0.0800  0.3409  0.4937
26762SOL    HW282729   1.664   0.657   2.992 -0.0319  0.0719  0.3984
26763SOL     OW82730   9.786   1.229   1.315 -0.2755 -0.4496 -0.2496
26763SOL    HW182731   9.736   1.225   1.233 -1.5844 -0.0999  0.5030
26763SOL    HW282732   9.776   1.142   1.353 -0.1935 -0.4243 -0.1717
26764SOL     OW82733   2.907   0.768   8.230  0.1237 -0.4836  0.5207
26764SOL    HW182734   2.823   0.739   8.193  0.3190  0.1125 -0.4280
26764SOL    HW282735   2.885   0.843   8.284  0.2282  0.8144 -1.1564
26765SOL     OW82736   2.127   0.860   2.002  0.1254  0.1037  0.2814
26765SOL    HW182737   2.118   0.865   2.097 -3.6869  1.1087  0.0119
26765SOL    HW282738   2.128   0.951   1.973  0.7498 -0.1950 -0.7218
26766SOL     OW82739   9.556   2.237   9.676  0.3245 -0.2024  0.5238
26766SOL    HW182740   9.506   2.281   9.607  1.2626  1.1545  0.6688
26766SOL    HW282741   9.521   2.272   9.758  0.5691 -0.2845  0.6667
26767SOL     OW82742   6.039   7.755   8.334  0.4706  0.1766  0.5034
26767SOL    HW182743   6.133   7.751   8.356  0.3198  0.0870  1.1632
26767SOL    HW282744   6.037   7.765   8.239  1.1317 -1.1920  0.3198
26768SOL     OW82745   2.421   2.159   7.913  0.1188 -0.0368 -0.1003
26768SOL    HW182746   2.366   2.151   7.835  0.9943  0.2829 -0.7862
26768SOL    HW282747   2.500   2.108   7.892  0.2234 -0.2230  0.7174
26769SOL     OW82748   0.851   2.905   5.235  0.3157 -0.9532  0.3993
26769SOL    HW182749   0.871   2.812   5.230  0.6100 -0.8702  0.0183
26769SOL    HW282750   0.762   2.913   5.199  0.5571 -0.9977 -0.2118
26770SOL     OW82751   6.120   7.578   8.878  0.0178  0.1624 -0.7431
26770SOL    HW182752   6.186   7.545   8.817  0.6622  2.1146 -1.1773
26770SOL    HW282753   6.122   7.673   8.867 -0.7619  0.4947  1.4282
26771SOL     OW82754   1.375   5.727   9.126  0.1324  0.3444 -0.1913
26771SOL    HW182755   1.393   5.733   9.032  0.5610 -0.3884 -0.1649
26771SOL    HW282756   1.312   5.655   9.134  0.5130  0.0420  0.1311
26772SOL     OW82757   0.558   3.444   3.990 -0.0921 -0.1213 -0.2346
26772SOL    HW182758   0.592   3.532   4.005  0.0508 -0.2780  0.4048
26772SOL    HW282759   0.635   3.387   3.999 -0.1760 -0.3043 -0.6794
26773SOL     OW82760   8.264   0.070   6.681 -0.4409 -0.6853 -0.1129
26773SOL    HW182761   8.268  -0.008   6.735  0.5903 -0.6207 -0.0643
26773SOL    HW282762   8.171   0.086   6.668 -0.7335 -0.5988  1.7772
26774SOL     OW82763   0.285   9.247   9.246 -0.6149 -0.2670 -0.4801
26774SOL    HW182764   0.228   9.324   9.257  1.1469  1.2795 -1.5917
26774SOL    HW282765   0.365   9.282   9.206  0.9253 -2.4349  0.5121
26775SOL     OW82766   2.596   0.431   1.401  0.1705 -0.1069 -0.1915
26775SOL    HW182767   2.518   0.451   1.349 -0.8949  0.3255  1.5022
26775SOL    HW282768   2.654   0.387   1.339 -1.5451 -0.7808 -1.4272
26776SOL     OW82769   2.155   9.731   1.227 -0.4080  0.0557 -0.3967
26776SOL    HW182770   2.246   9.755   1.243  0.9520 -3.3372 -2.0448
26776SOL    HW282771   2.141   9.753   1.135 -0.2710 -1.8697 -0.9239
26777SOL     OW82772   3.329   0.517   7.905  0.7019  0.1880  0.0455
26777SOL    HW182773   3.272   0.590   7.927  1.0014  0.6794 -0.7848
26777SOL    HW282774   3.388   0.509   7.979 -1.6986 -1.6556  1.9247
26778SOL     OW82775   6.442   6.085   5.900  0.5232 -0.1785  0.1629
26778SOL    HW182776   6.464   6.086   5.807  0.3071  1.0988  0.1027
26778SOL    HW282777   6.523   6.059   5.944  0.6257 -0.7976 -0.3698
26779SOL     OW82778   2.503   5.513   5.831  0.5020 -0.0266  0.3361
26779SOL    HW182779   2.494   5.602   5.797 -1.6027 -1.3945 -3.2585
26779SOL    HW282780   2.429   5.502   5.890  0.1500  0.3168 -0.0344
26780SOL     OW82781   2.424   0.388   2.848  0.0284  0.0108  0.1294
26780SOL    HW182782   2.465   0.314   2.894 -0.5686 -0.9957 -0.8846
26780SOL    HW282783   2.494   0.424   2.793 -0.3473 -1.7695 -1.6814
26781SOL     OW82784   8.340   1.839   9.706 -0.1052  0.1711 -0.8356
26781SOL    HW182785   8.353   1.913   9.648 -0.6694  0.1925 -0.9408
26781SOL    HW282786   8.248   1.815   9.695 -0.5185  0.8427  0.8362
26782SOL     OW82787   7.708  10.225   8.929  0.0755 -0.3054  0.0949
26782SOL    HW182788   7.724  10.315   8.959 -0.6776 -0.9449  2.7062
26782SOL    HW282789   7.618  10.227   8.895 -1.0060 -0.5213  2.6590
26783SOL     OW82790   9.141   1.994   9.521  1.1639  0.5612  0.4083
26783SOL    HW182791   9.047   1.999   9.537  0.7848  1.9048 -1.8647
26783SOL    HW282792   9.180   2.013   9.607 -0.5409 -1.9048  1.8570
26784SOL     OW82793   9.535   6.325  10.163  0.0706  0.8642  0.3323
26784SOL    HW182794   9.592   6.292  10.094 -1.2881  0.8598 -0.8494
26784SOL    HW282795   9.460   6.265  10.163 -0.3225  1.3315  1.2597
26785SOL     OW82796   7.533   6.955   5.973  0.7294  0.5003  1.1733
26785SOL    HW182797   7.535   7.039   6.020  3.1939  0.8634  0.5604
26785SOL    HW282798   7.492   6.976   5.889  3.0067  1.6193  0.2514
26786SOL     OW82799   0.030   6.185   1.174  0.1670 -0.0693 -0.3842
26786SOL    HW182800   0.052   6.142   1.257 -2.0693  2.4204  1.6905
26786SOL    HW282801  -0.058   6.153   1.154 -0.6380  1.8058  0.0320
26787SOL     OW82802   9.799   6.380   4.286  0.1193 -0.9010 -0.1800
26787SOL    HW182803   9.736   6.308   4.300 -1.5206  0.3438 -0.8023
26787SOL    HW282804   9.833   6.365   4.198 -0.9385 -0.4332 -0.6901
26788SOL     OW82805   2.537   7.386   6.320  0.2752 -0.6510  0.5673
26788SOL    HW182806   2.548   7.291   6.319 -2.2667 -1.0051  0.6975
26788SOL    HW282807   2.599   7.417   6.253 -0.1436 -2.5732 -0.8205
26789SOL     OW82808   7.849   4.167   9.145 -0.0211  0.1069 -0.0377
26789SOL    HW182809   7.868   4.253   9.107  1.1545 -0.7746 -1.5528
26789SOL    HW282810   7.769   4.139   9.101 -0.8120  0.6844  0.9758
26790SOL     OW82811   5.868   1.280   9.742 -0.1143  0.2792  0.0842
26790SOL    HW182812   5.958   1.279   9.776  0.0360  0.4146 -0.3080
26790SOL    HW282813   5.814   1.302   9.818  0.1600 -0.0541  0.3789
26791SOL     OW82814   6.426   4.559   9.578 -0.2285 -0.0919  0.2007
26791SOL    HW182815   6.429   4.468   9.549 -0.6209  0.0568 -0.3252
26791SOL    HW282816   6.347   4.564   9.632 -0.6114  0.1054 -0.3714
26792SOL     OW82817   1.224   5.847   5.661 -0.1196  0.1000 -0.0902
26792SOL    HW182818   1.190   5.822   5.575  1.7887 -1.1447 -0.5377
26792SOL    HW282819   1.217   5.943   5.663  0.3664  0.2009 -1.8968
26793SOL     OW82820   8.257   8.950   8.625  0.0227 -0.3987  0.2351
26793SOL    HW182821   8.207   8.988   8.697  0.9998  2.9168 -0.6898
26793SOL    HW282822   8.229   8.858   8.623 -1.1106 -0.3087  3.8614
26794SOL     OW82823  10.074   6.507   6.450 -0.6717 -0.2613 -0.6403
26794SOL    HW182824  10.056   6.480   6.360 -1.3379  0.7851 -0.8292
26794SOL    HW282825   9.991   6.538   6.483 -0.9350 -2.4721  1.0372
26795SOL     OW82826   6.322   1.655   3.344  0.0279 -0.1691  0.2471
26795SOL    HW182827   6.398   1.699   3.305 -0.5310 -0.6574 -1.4882
26795SOL    HW282828   6.248   1.712   3.325 -0.1153  0.1332  1.6264
26796SOL     OW82829   7.422   0.954   5.564 -0.2721 -0.0326 -0.7824
26796SOL    HW182830   7.343   1.006   5.550  0.4022  0.9661 -0.9496
26796SOL    HW282831   7.405   0.871   5.518  0.0451  1.3952 -3.6951
26797SOL     OW82832   7.504   3.769   3.436 -0.1907 -0.2112 -0.1394
26797SOL    HW182833   7.568   3.700   3.417 -0.2341 -0.3174  0.0991
26797SOL    HW282834   7.535   3.808   3.518  0.0800  0.3465 -0.4964
26798SOL     OW82835   4.649   4.972   2.181 -0.0296 -0.3306 -0.0575
26798SOL    HW182836   4.571   4.951   2.130 -0.8847  3.7837 -0.8491
26798SOL    HW282837   4.616   5.021   2.256  1.6943  0.0253  0.5151
26799SOL     OW82838  10.292   3.867   6.421 -0.4320  0.1580  0.7425
26799SOL    HW182839  10.310   3.775   6.440 -0.1636  0.5609  2.7581
26799SOL    HW282840  10.370   3.899   6.376 -0.7388 -0.6915 -0.4335
26800SOL     OW82841   0.877   4.520   1.135  0.3250  0.2267  0.4963
26800SOL    HW182842   0.851   4.570   1.057 -1.4805 -1.4431 -0.0616
26800SOL    HW282843   0.881   4.429   1.105  3.3337 -0.0724  1.5182
26801SOL     OW82844   9.417   7.538   7.830 -0.2371 -0.0949 -0.0204
26801SOL    HW182845   9.476   7.604   7.867 -1.3467  0.2688  1.1930
26801SOL    HW282846   9.392   7.483   7.904 -0.6437 -0.8552 -0.7013
26802SOL     OW82847   6.708   6.545   7.169  0.1770 -0.3804 -0.1955
26802SOL    HW182848   6.643   6.604   7.130 -0.2194  0.8364  2.1322
26802SOL    HW282849   6.667   6.459   7.163  0.8294 -0.6094 -3.8003
26803SOL     OW82850   3.610   4.508   1.414  0.4324 -0.0996 -0.0217
26803SOL    HW182851   3.548   4.468   1.475  1.7807  1.6909  2.7571
26803SOL    HW282852   3.564   4.511   1.330 -2.6555 -0.1957  1.5330
26804SOL     OW82853   4.329  10.058   7.747 -0.0328 -0.3161 -0.1188
26804SOL    HW182854   4.298  10.020   7.665 -0.4250  1.0053 -0.6100
26804SOL    HW282855   4.423  10.039   7.749  0.1793  0.5114 -1.3744
26805SOL     OW82856   0.988   7.766   1.280 -0.3884 -0.4895 -0.3048
26805SOL    HW182857   0.934   7.828   1.230 -2.8041 -0.8516  1.6588
26805SOL    HW282858   1.062   7.747   1.222 -1.3756  1.5027 -2.3983
26806SOL     OW82859   4.682   5.547   7.121  0.7986 -0.3024  0.1976
26806SOL    HW182860   4.610   5.575   7.176  0.0578 -1.6945 -0.0218
26806SOL    HW282861   4.659   5.578   7.033 -0.4679 -2.2793 -0.2175
26807SOL     OW82862   7.296   9.678   7.679  0.1457  0.0120  0.0340
26807SOL    HW182863   7.371   9.653   7.733 -1.6331  0.4141  2.9265
26807SOL    HW282864   7.309   9.771   7.663 -0.9696  0.7842  2.9490
26808SOL     OW82865   4.077   8.892   4.539 -0.3241  0.0603 -0.1612
26808SOL    HW182866   4.071   8.881   4.634  1.7904 -0.4568 -0.0567
26808SOL    HW282867   4.046   8.809   4.503 -0.0341 -0.1742  0.1219
26809SOL     OW82868   4.021   4.020   8.746 -0.4597 -0.4134  0.0128
26809SOL    HW182869   4.089   4.023   8.814 -0.8760 -3.1565  0.6607
26809SOL    HW282870   3.956   4.083   8.775 -0.0977 -0.7246  1.6149
26810SOL     OW82871  10.071   0.966   5.194 -0.2946 -0.4096 -0.1927
26810SOL    HW182872  10.157   0.979   5.153 -0.4747 -1.0798 -0.7954
26810SOL    HW282873  10.089   0.965   5.288  0.2610  0.1154 -0.2824
26811SOL     OW82874   8.741   1.213   5.085 -0.1605 -0.0218  0.0462
26811SOL    HW182875   8.693   1.294   5.105  0.1378  0.1681 -0.0085
26811SOL    HW282876   8.761   1.176   5.171  0.5255  0.4460  0.0925
26812SOL     OW82877   7.757   1.902   2.271 -0.5765  1.1184 -0.7349
26812SOL    HW182878   7.791   1.986   2.302 -0.8720  1.4460 -1.2841
26812SOL    HW282879   7.767   1.905   2.176  1.4862 -0.3921 -0.6267
26813SOL     OW82880   7.995   0.749   0.365  0.1430  0.0921  0.2428
26813SOL    HW182881   7.956   0.831   0.334 -1.7799 -1.1616 -0.8891
26813SOL    HW282882   8.011   0.764   0.458 -1.0034  1.4486  0.2650
26814SOL     OW82883   5.090   0.948   3.262 -0.1302  0.2209 -0.3385
26814SOL    HW182884   5.089   0.913   3.173 -1.4666 -1.1900  0.1905
26814SOL    HW282885   5.119   0.875   3.316  1.9478  1.4264  0.3005
26815SOL     OW82886   8.280   5.939   3.831  0.0469 -0.3433 -0.7042
26815SOL    HW182887   8.250   6.029   3.818 -0.8425 -0.6368 -0.7317
26815SOL    HW282888   8.313   5.938   3.921 -1.2968 -0.3365 -0.1808
26816SOL     OW82889   6.407   1.088   7.596 -0.3529 -0.3701 -0.2650
26816SOL    HW182890   6.462   1.057   7.524 -1.0345 -1.2921 -0.4005
26816SOL    HW282891   6.461   1.154   7.640  0.3523 -0.3163 -1.1773
26817SOL     OW82892   3.359   4.983   7.796  0.6394  0.4562  0.2861
26817SOL    HW182893   3.302   4.998   7.720  1.6849 -0.7089 -0.7777
26817SOL    HW282894   3.386   5.071   7.823 -0.5739  0.9516 -0.0073
26818SOL     OW82895   0.630   3.522   6.521  0.1996 -0.1697 -0.4085
26818SOL    HW182896   0.692   3.560   6.583  2.5407 -3.2273 -0.6244
26818SOL    HW282897   0.580   3.596   6.488  2.1861  2.1841  1.4962
26819SOL     OW82898   9.637   9.712   8.602 -0.3071 -0.1250 -0.0878
26819SOL    HW182899   9.629   9.806   8.618 -2.4581 -0.0544 -1.1227
26819SOL    HW282900   9.557   9.675   8.641  1.0188 -1.7174  1.3049
26820SOL     OW82901   6.324   8.651   2.126 -0.2165  0.2127 -0.5454
26820SOL    HW182902   6.412   8.688   2.114 -0.8039  2.2752  0.9085
26820SOL    HW282903   6.284   8.655   2.039  0.4913  1.0139 -0.8468
26821SOL     OW82904   0.317   2.212   7.653  0.6290 -0.5719 -0.0742
26821SOL    HW182905   0.221   2.214   7.657  0.4253  2.2623 -2.3422
26821SOL    HW282906   0.336   2.192   7.561  2.1161  0.3708 -0.0094
26822SOL     OW82907   4.162   9.216   0.481  0.0444 -0.2397  0.4225
26822SOL    HW182908   4.113   9.143   0.443 -0.2687  0.6035 -0.8779
26822SOL    HW282909   4.240   9.223   0.426 -0.4880  1.1017 -0.2295
26823SOL     OW82910   9.005   8.180   2.710 -0.4472 -0.7444  0.0154
26823SOL    HW182911   9.068   8.232   2.660 -1.0850  0.0589  0.0378
26823SOL    HW282912   8.968   8.120   2.646  0.6984 -1.5895  0.1036
26824SOL     OW82913   0.691   7.297   5.907  0.2299 -0.2248 -0.5512
26824SOL    HW182914   0.755   7.349   5.954 -2.3053  0.7920  2.1050
26824SOL    HW282915   0.687   7.214   5.955 -0.6273 -0.1356 -0.4424
26825SOL     OW82916   9.345   8.218   8.783 -0.0188 -0.0034 -0.2635
26825SOL    HW182917   9.395   8.262   8.714  0.2374  0.4081  0.1835
26825SOL    HW282918   9.292   8.153   8.736  1.3586 -0.8628 -0.7020
26826SOL     OW82919  10.111   5.712   6.263  0.1422 -0.2673 -0.5465
26826SOL    HW182920  10.034   5.750   6.221  0.7514 -0.8909 -2.2978
26826SOL    HW282921  10.076   5.643   6.319 -0.5036 -1.8936 -2.8132
26827SOL     OW82922   1.930   2.813   9.587  0.1331 -0.2129  0.2541
26827SOL    HW182923   1.840   2.843   9.578 -0.1338 -0.3596  2.0065
26827SOL    HW282924   1.964   2.809   9.498 -1.2438  0.9066 -0.3469
26828SOL     OW82925   9.487  10.056   7.470 -0.1419 -0.3118 -0.2057
26828SOL    HW182926   9.498   9.961   7.478 -0.5106 -0.2483  1.8810
26828SOL    HW282927   9.573  10.092   7.489  0.2017 -0.2214 -1.8369
26829SOL     OW82928   5.508   7.609   8.503  0.5456  0.0543 -0.2351
26829SOL    HW182929   5.590   7.563   8.485 -0.1567 -0.8790 -1.1263
26829SOL    HW282930   5.475   7.566   8.582  0.0444 -0.8121 -0.8909
26830SOL     OW82931   4.969   5.220   5.011 -0.5955  0.0701  0.5207
26830SOL    HW182932   4.938   5.235   4.922 -1.1927  1.0394  0.8820
26830SOL    HW282933   4.929   5.137   5.036 -1.6564  0.5392  0.4179
26831SOL     OW82934   9.474   3.950   0.884 -0.3549 -0.3970 -0.3573
26831SOL    HW182935   9.547   4.005   0.854 -0.1831 -0.4920 -0.1159
26831SOL    HW282936   9.405   3.965   0.820 -0.6559  0.8538  0.2196
26832SOL     OW82937   0.677   1.492   9.287 -0.1740 -0.1169 -0.6225
26832SOL    HW182938   0.762   1.509   9.329  0.0387 -1.0533 -0.6615
26832SOL    HW282939   0.624   1.568   9.311 -0.2175 -0.7963  1.7769
26833SOL     OW82940   7.199   5.277   2.627 -0.4159 -0.9709 -0.1440
26833SOL    HW182941   7.147   5.287   2.706  0.1044  1.5025 -0.0449
26833SOL    HW282942   7.259   5.204   2.647  0.0056 -0.1182  1.9445
26834SOL     OW82943   6.589  10.152   6.970  0.8819 -0.8481  0.3400
26834SOL    HW182944   6.663  10.147   7.032  0.1862 -1.0069  1.1739
26834SOL    HW282945   6.527  10.211   7.013 -0.0024 -1.6613  0.2082
26835SOL     OW82946   9.546   1.356   7.571  1.0229 -0.2010 -0.6579
26835SOL    HW182947   9.583   1.421   7.631  0.1028 -1.3266  1.2379
26835SOL    HW282948   9.589   1.373   7.487  0.2499  3.3608 -0.5035
26836SOL     OW82949   2.639   2.409   9.663  0.2431  0.2577 -0.1762
26836SOL    HW182950   2.620   2.324   9.702  0.3615  0.3820  0.1579
26836SOL    HW282951   2.716   2.393   9.609  0.0323  0.0666 -0.4228
26837SOL     OW82952   0.098   4.460   8.179  0.3401 -0.1805 -0.2947
26837SOL    HW182953   0.180   4.490   8.138 -0.4219  2.1657 -0.2752
26837SOL    HW282954   0.040   4.536   8.173 -0.9505 -0.8885  2.0840
26838SOL     OW82955   2.136   6.769   4.405  0.4749 -0.3712 -0.2282
26838SOL    HW182956   2.089   6.821   4.470  1.1407 -0.0304 -0.0027
26838SOL    HW282957   2.223   6.809   4.402  0.9628 -1.4011 -0.1271
26839SOL     OW82958   6.059   3.009   2.454  0.1351  0.3220  0.1002
26839SOL    HW182959   6.087   2.956   2.380  1.8285 -0.0398  0.9449
26839SOL    HW282960   6.020   3.087   2.414  1.3722  0.3232 -1.1837
26840SOL     OW82961   7.684   4.694   3.859  0.3724  0.2066  0.3202
26840SOL    HW182962   7.713   4.773   3.813 -1.2948  0.7345  0.1247
26840SOL    HW282963   7.692   4.624   3.795  3.1330 -0.1079  0.8794
26841SOL     OW82964   6.436   4.378   5.693  0.0443  0.5180  0.1130
26841SOL    HW182965   6.428   4.387   5.598 -2.3729  0.3012  0.2191
26841SOL    HW282966   6.444   4.283   5.707  1.2748  0.6044  0.1228
26842SOL     OW82967   9.134   2.345   5.289  0.1527  0.8782  0.3253
26842SOL    HW182968   9.089   2.392   5.359  1.2629 -0.7439  2.2100
26842SOL    HW282969   9.221   2.384   5.285  0.6188 -0.0558  0.9623
26843SOL     OW82970   7.041   1.991   2.763  0.3280 -0.2617 -0.1934
26843SOL    HW182971   7.099   1.995   2.687  0.6162 -1.0919 -0.0270
26843SOL    HW282972   7.092   1.945   2.830 -0.6400 -1.3362 -0.1617
26844SOL     OW82973   7.487   2.686   2.000  0.4333  0.3115  0.5776
26844SOL    HW182974   7.447   2.676   2.086 -0.2608 -0.3047  0.1947
26844SOL    HW282975   7.508   2.779   1.995 -1.6208  0.8199  0.5330
26845SOL     OW82976   3.976   4.795   4.201 -0.6498 -0.1396  0.1708
26845SOL    HW182977   4.038   4.868   4.202 -0.2104 -0.5048 -0.5882
26845SOL    HW282978   3.913   4.818   4.133  0.1903 -1.0346 -0.9508
26846SOL     OW82979   2.993   6.619   5.214 -0.0485 -0.1483 -0.4559
26846SOL    HW182980   3.081   6.587   5.230 -0.0815 -0.1052 -0.1805
26846SOL    HW282981   2.999   6.714   5.224 -0.0376 -0.1064 -0.8553
26847SOL     OW82982   1.048   9.493   3.726 -0.4182 -0.5925  0.1057
26847SOL    HW182983   1.006   9.418   3.768 -0.4417 -0.8468 -0.3672
26847SOL    HW282984   1.119   9.517   3.786  0.1492 -1.5514 -0.1578
26848SOL     OW82985   9.422  10.466   4.745 -0.1475 -0.2734  0.1445
26848SOL    HW182986   9.356  10.522   4.705 -1.1433 -1.0161  0.6983
26848SOL    HW282987   9.410  10.479   4.839  1.4147  0.6042  0.2599
26849SOL     OW82988   1.553   6.344   1.777  0.3745  0.4584  0.1986
26849SOL    HW182989   1.605   6.321   1.854 -1.6912 -0.2885  1.4547
26849SOL    HW282990   1.504   6.264   1.757 -0.0596  1.0305 -1.1474
26850SOL     OW82991   3.041   3.424   6.135 -0.0571  0.3267  1.0779
26850SOL    HW182992   3.038   3.351   6.072  0.1837  1.6547 -0.5397
26850SOL    HW282993   3.123   3.469   6.116 -0.9559  1.9679  0.8842
26851SOL     OW82994   0.640   1.230   8.991 -0.0755 -0.5236 -0.1447
26851SOL    HW182995   0.667   1.283   8.916 -0.6943  1.7770  1.1575
26851SOL    HW282996   0.551   1.202   8.970 -0.9759  1.6757  0.4177
26852SOL     OW82997   9.049   7.229  10.093 -0.0871  0.1377  0.2315
26852SOL    HW182998   9.071   7.289  10.164 -3.0168  1.5991  0.0592
26852SOL    HW282999   9.079   7.143  10.123  0.6477  1.0641  2.2850
26853SOL     OW83000   6.208   5.704   1.685 -0.0408  0.2914 -0.4594
26853SOL    HW183001   6.195   5.742   1.772  2.8572  0.1496  0.1592
26853SOL    HW283002   6.253   5.772   1.635  1.1297 -0.6907 -0.8005
26854SOL     OW83003   5.436   7.531   9.732  0.1412  0.4885  0.1579
26854SOL    HW183004   5.524   7.535   9.769  0.1469  0.6476  0.1256
26854SOL    HW283005   5.380   7.570   9.799 -0.1914 -1.4286  1.0655
26855SOL     OW83006   4.399   3.886   0.159 -0.6109  0.3231  0.2853
26855SOL    HW183007   4.342   3.888   0.082 -0.5109  0.3226  0.2119
26855SOL    HW283008   4.358   3.822   0.217 -1.5977  1.5035  0.9352
26856SOL     OW83009   1.493   2.972   9.318 -0.2944 -0.1373  0.4034
26856SOL    HW183010   1.526   3.003   9.234  0.9689 -0.1961  0.8421
26856SOL    HW283011   1.435   2.899   9.297 -1.4296  1.0015 -0.5010
26857SOL     OW83012   3.011   0.771   1.294 -0.4078 -0.2077  0.4580
26857SOL    HW183013   3.061   0.817   1.361  0.4126  0.2155 -0.4110
26857SOL    HW283014   2.936   0.828   1.278 -0.0308  0.2436  0.2503
26858SOL     OW83015   1.912   0.902   2.732 -0.0618  0.6803 -0.1754
26858SOL    HW183016   1.994   0.852   2.729  0.7593  2.0367 -1.4504
26858SOL    HW283017   1.847   0.842   2.696  1.0172  0.6192 -2.2374
26859SOL     OW83018   7.240   8.134   1.774  0.0499  0.3526  1.1654
26859SOL    HW183019   7.312   8.165   1.718 -1.0344 -0.0354 -0.5104
26859SOL    HW283020   7.166   8.191   1.751 -1.2224 -1.6507  0.0270
26860SOL     OW83021   9.399   8.985   3.162  0.5473  0.2471  0.0124
26860SOL    HW183022   9.382   9.001   3.255  0.9733 -0.7200  0.2653
26860SOL    HW283023   9.312   8.984   3.122  0.3639  0.7413  0.3835
26861SOL     OW83024   3.634   3.710   5.963 -0.2673  0.2856 -0.0122
26861SOL    HW183025   3.621   3.705   6.058  2.4473  1.0168  0.4781
26861SOL    HW283026   3.562   3.659   5.926 -1.5953  0.2667  2.4117
26862SOL     OW83027   2.825   9.885   7.043  0.6463  0.0718  0.0611
26862SOL    HW183028   2.781   9.810   7.001  1.4590 -0.5956  0.3738
26862SOL    HW283029   2.838   9.947   6.971  0.5974 -0.3854 -0.3546
26863SOL     OW83030   6.915   1.003   4.201 -0.7829  0.5295  0.2935
26863SOL    HW183031   6.972   1.073   4.230 -0.1117  0.0798  0.0740
26863SOL    HW283032   6.886   0.960   4.281  0.6698 -0.3993  0.3431
26864SOL     OW83033   4.633   4.205   0.376 -0.1021  0.1276  0.0993
26864SOL    HW183034   4.607   4.116   0.353 -1.5378  0.2133  1.2215
26864SOL    HW283035   4.582   4.225   0.455  0.8789  1.6160  0.3965
26865SOL     OW83036  10.168   0.772   8.702  0.3995 -0.6865 -0.0902
26865SOL    HW183037  10.085   0.798   8.662  0.3295  2.2823  1.6982
26865SOL    HW283038  10.235   0.820   8.653  0.7795 -0.8053  0.3013
26866SOL     OW83039   7.727   0.341   8.769  0.0440 -0.2699 -0.5087
26866SOL    HW183040   7.658   0.395   8.808  0.6971 -1.7193  3.1175
26866SOL    HW283041   7.681   0.269   8.726 -0.7243  1.2906 -2.4216
26867SOL     OW83042   8.720   0.434   6.946 -0.3863  0.1695  0.0568
26867SOL    HW183043   8.714   0.466   7.036  0.7519 -0.2167  0.2912
26867SOL    HW283044   8.635   0.394   6.928 -1.1251  1.4988  0.4597
26868SOL     OW83045   2.796   9.044   5.112 -0.7729 -0.0648  0.3579
26868SOL    HW183046   2.756   9.096   5.183 -1.6358 -1.2090  0.7385
26868SOL    HW283047   2.821   8.962   5.154 -1.2171 -0.7305 -0.6371
26869SOL     OW83048   5.913   7.448   4.586 -0.6934  0.2773 -0.1425
26869SOL    HW183049   5.852   7.502   4.537 -0.2552  2.0115  1.1014
26869SOL    HW283050   5.877   7.446   4.675 -0.0922 -0.5465  0.0981
26870SOL     OW83051   9.691   2.520   1.606 -0.1670 -0.1192  0.1947
26870SOL    HW183052   9.740   2.520   1.688  0.9268  2.2553 -0.3725
26870SOL    HW283053   9.609   2.564   1.626 -0.3066 -0.4053  0.2431
26871SOL     OW83054   6.790   9.893  10.133  0.0330  0.3408  0.2762
26871SOL    HW183055   6.883   9.897  10.109 -0.2262 -0.2113 -0.8884
26871SOL    HW283056   6.774   9.800  10.150 -0.2407  0.4766  0.7705
26872SOL     OW83057   2.201   5.722   6.033 -0.2000 -0.3995 -0.2510
26872SOL    HW183058   2.148   5.663   5.978  0.4367 -0.5600 -0.7000
26872SOL    HW283059   2.237   5.666   6.101 -1.1935 -0.1545  0.4980
26873SOL     OW83060   1.711  10.286   6.410  0.4365  0.3893 -0.4398
26873SOL    HW183061   1.797  10.323   6.430  0.2793  0.0727  0.9069
26873SOL    HW283062   1.651  10.360   6.417  0.5817  0.6137 -1.3982
26874SOL     OW83063   5.251   8.039   4.651  0.4549 -0.0525 -1.0019
26874SOL    HW183064   5.323   8.082   4.605  0.6250  1.3782  0.5107
26874SOL    HW283065   5.277   7.947   4.656  0.9704 -0.0256 -2.6834
26875SOL     OW83066   2.439   8.121   9.966 -0.2007  0.4581  0.2097
26875SOL    HW183067   2.400   8.201  10.000  0.4737  0.2354  1.5932
26875SOL    HW283068   2.454   8.139   9.874  0.1707  2.0262  0.5450
26876SOL     OW83069   9.286   5.770   2.125 -0.0798 -0.6136 -0.1141
26876SOL    HW183070   9.267   5.684   2.163  0.1422 -0.6512 -0.0865
26876SOL    HW283071   9.286   5.754   2.030 -0.4746 -0.5525 -0.1237
26877SOL     OW83072   0.465   6.553   1.785 -0.8420  0.0457  0.1576
26877SOL    HW183073   0.428   6.571   1.699 -1.2572  1.1711  0.5608
26877SOL    HW283074   0.471   6.638   1.828  1.4944 -0.1698  0.4041
26878SOL     OW83075   5.976   2.120   7.126 -0.5508 -0.4598 -0.0450
26878SOL    HW183076   5.971   2.026   7.143  0.0126 -0.1445  2.0213
26878SOL    HW283077   5.935   2.161   7.202  0.4951  1.0004 -0.2234
26879SOL     OW83078  10.308   2.454   9.641  0.0478 -0.0831  0.0426
26879SOL    HW183079  10.256   2.435   9.563  1.3408 -2.0701 -0.4039
26879SOL    HW283080  10.255   2.422   9.714  0.2293 -1.2651 -0.3282
26880SOL     OW83081   8.395   6.639   5.402 -0.0390 -0.2680  0.1878
26880SOL    HW183082   8.446   6.699   5.456  0.3106 -1.0754  0.7783
26880SOL    HW283083   8.405   6.673   5.313  2.8607 -1.2252  0.0162
26881SOL     OW83084   8.842   7.064   9.475 -0.1347  0.0563 -0.3601
26881SOL    HW183085   8.801   7.148   9.455  0.3914  0.2300 -0.7126
26881SOL    HW283086   8.936   7.079   9.462  0.0237 -0.4035  0.2073
26882SOL     OW83087   7.499   5.686   3.392  0.2599 -0.1682  0.5831
26882SOL    HW183088   7.538   5.745   3.327 -0.9236 -1.8023 -1.7403
26882SOL    HW283089   7.472   5.744   3.463 -0.0288  1.9949 -1.1642
26883SOL     OW83090   0.838   3.004   6.798  0.5792 -0.3187  0.0405
26883SOL    HW183091   0.852   3.077   6.858 -1.8420 -1.1384  1.7275
26883SOL    HW283092   0.754   3.024   6.755  2.1360  0.1749 -3.1138
26884SOL     OW83093   1.466   3.136   4.291 -0.2247 -0.3698  0.1671
26884SOL    HW183094   1.536   3.164   4.349 -0.2386 -1.2852  0.6334
26884SOL    HW283095   1.420   3.217   4.268  1.7502  0.4393 -1.1934
26885SOL     OW83096   8.823   1.956   8.016 -0.4010  0.2622  0.2354
26885SOL    HW183097   8.852   1.882   7.962  1.0617  0.8339  0.1781
26885SOL    HW283098   8.814   2.029   7.954 -2.2749  0.0548  0.2186
26886SOL     OW83099   0.334   8.888   5.616  0.6743  0.4172 -0.2108
26886SOL    HW183100   0.256   8.943   5.612 -0.9594 -1.7417  0.1739
26886SOL    HW283101   0.374   8.896   5.529 -0.0063  1.4692 -0.4384
26887SOL     OW83102   3.958   4.633   8.346  0.2909 -0.1030  0.4230
26887SOL    HW183103   3.901   4.588   8.408  0.6524 -0.7207  0.3132
26887SOL    HW283104   3.935   4.595   8.261  0.7923 -0.2716  0.3648
26888SOL     OW83105   4.545   4.994   8.127  0.3405 -0.3444 -0.3593
26888SOL    HW183106   4.475   5.060   8.135  1.3687  1.1205 -2.4269
26888SOL    HW283107   4.521   4.926   8.189 -2.0842  0.8508  0.1387
26889SOL     OW83108   3.600   6.215   7.396 -0.1142 -0.1301  0.6554
26889SOL    HW183109   3.557   6.291   7.358  1.3389  0.0617 -0.7129
26889SOL    HW283110   3.560   6.140   7.352  0.9990  0.0558 -0.7440
26890SOL     OW83111   3.637   2.766   4.742 -0.2424 -0.2561  0.4730
26890SOL    HW183112   3.614   2.717   4.663 -0.9685  0.4847  0.2190
26890SOL    HW283113   3.733   2.763   4.744 -0.0408  1.6769 -1.7405
26891SOL     OW83114   0.364   3.014   8.633 -0.5596  0.2215 -0.1846
26891SOL    HW183115   0.407   3.072   8.695  0.0225  0.2502 -0.6007
26891SOL    HW283116   0.271   3.034   8.642 -0.7762 -1.4907  2.4318
26892SOL     OW83117   8.790   9.794   6.701 -0.0588  0.4609  0.4928
26892SOL    HW183118   8.788   9.888   6.680 -2.1659  0.7830  1.8474
26892SOL    HW283119   8.705   9.761   6.670  0.9040 -1.1643 -0.5359
26893SOL     OW83120   2.205   9.729   8.897 -0.5749  0.1896 -0.2627
26893SOL    HW183121   2.169   9.812   8.927 -1.4399 -0.9440  2.0376
26893SOL    HW283122   2.290   9.722   8.939  0.2433  0.6063 -1.7657
26894SOL     OW83123  10.489   7.094   4.176 -0.6933 -0.2706 -0.1189
26894SOL    HW183124  10.420   7.070   4.115 -1.5270 -1.1872  1.1411
26894SOL    HW283125  10.558   7.130   4.120 -1.7337 -0.3224 -1.5100
26895SOL     OW83126   2.248   5.940   8.086 -0.5790 -0.4462 -0.1794
26895SOL    HW183127   2.341   5.930   8.107 -0.5496 -1.9930 -0.9271
26895SOL    HW283128   2.246   6.008   8.018 -0.2970  1.5476  1.6825
26896SOL     OW83129   4.643   4.233   2.735  0.0136 -0.5721  0.1566
26896SOL    HW183130   4.720   4.187   2.702 -0.2737 -1.0571  0.1588
26896SOL    HW283131   4.644   4.317   2.689  0.9142 -0.2945  0.6417
26897SOL     OW83132   4.642   1.945   6.782  0.4019  0.4865  0.4231
26897SOL    HW183133   4.714   1.885   6.802  1.3361  1.4993  0.2336
26897SOL    HW283134   4.630   1.937   6.687 -0.1841 -0.1554  0.5458
26898SOL     OW83135   7.021   5.306   4.307 -0.3534  0.4937 -0.3376
26898SOL    HW183136   6.999   5.238   4.370  0.3668  0.6465  0.0874
26898SOL    HW283137   6.959   5.293   4.235 -1.0619  0.2054  0.3115
26899SOL     OW83138   5.323   4.880   8.782  0.2519 -0.2697 -0.6232
26899SOL    HW183139   5.239   4.836   8.771  0.0614 -0.1485  0.2788
26899SOL    HW283140   5.318   4.921   8.868 -0.0758  2.5691 -1.8613
26900SOL     OW83141   8.290   1.237   2.502  0.2562 -0.1377 -0.3107
26900SOL    HW183142   8.202   1.227   2.540  0.9180 -1.4780  0.9467
26900SOL    HW283143   8.280   1.207   2.412 -0.2293 -1.9803  0.3193
26901SOL     OW83144   1.386   8.857   8.928  0.1193  0.2947 -0.1048
26901SOL    HW183145   1.448   8.889   8.864  1.3858  0.6815  1.2725
26901SOL    HW283146   1.436   8.796   8.982 -0.6459  0.7226  1.1256
26902SOL     OW83147   3.932   4.304   1.280  0.1826  0.2457 -0.2795
26902SOL    HW183148   3.969   4.380   1.324 -0.5385  0.3443  0.1809
26902SOL    HW283149   3.925   4.238   1.349  2.0914 -0.7365 -0.9575
26903SOL     OW83150   8.825   8.158   3.228  0.3441  0.3557 -1.0230
26903SOL    HW183151   8.920   8.168   3.237  0.3028  0.1534 -0.3444
26903SOL    HW283152   8.813   8.067   3.203  0.1916 -0.3815  1.4564
26904SOL     OW83153   5.211  10.044   4.286 -0.2973  0.1460 -0.1074
26904SOL    HW183154   5.289  10.098   4.272  0.5468 -0.7239  1.1508
26904SOL    HW283155   5.153  10.099   4.339 -0.4623  0.6890 -0.8209
26905SOL     OW83156   8.912   1.340   6.843  0.1853  0.1263 -0.3302
26905SOL    HW183157   8.976   1.408   6.864 -1.4085  2.8978 -3.4119
26905SOL    HW283158   8.929   1.319   6.751 -3.1357  0.9952 -1.2964
26906SOL     OW83159   4.160   5.238   1.517 -0.1463 -0.1866 -0.1677
26906SOL    HW183160   4.111   5.257   1.598 -0.8559 -2.1387 -0.0846
26906SOL    HW283161   4.182   5.324   1.482 -2.0851  0.7662  0.7650
26907SOL     OW83162   7.521   8.340   7.616  0.5688  0.4235  0.1578
26907SOL    HW183163   7.431   8.324   7.590  0.3102  1.6523  0.2072
26907SOL    HW283164   7.553   8.404   7.552  1.3112  0.2209  0.3145
26908SOL     OW83165   2.109   5.998   8.375 -0.1764 -0.1322  0.1332
26908SOL    HW183166   2.178   6.053   8.411 -0.0399 -0.9368  1.1453
26908SOL    HW283167   2.147   5.959   8.297  0.5286 -0.5717  0.6871
26909SOL     OW83168   1.998   7.707   4.980 -0.0051 -0.4135  0.3025
26909SOL    HW183169   2.073   7.765   4.992 -0.5913  0.3988  0.1753
26909SOL    HW283170   2.035   7.625   4.947  0.7536  0.2119 -0.4502
26910SOL     OW83171   3.835   0.460   5.077  0.5485  0.4411 -0.5853
26910SOL    HW183172   3.845   0.365   5.078 -0.9487  0.2235 -1.7050
26910SOL    HW283173   3.923   0.494   5.091  0.9568 -1.0921  0.8484
26911SOL     OW83174   1.892   0.123   4.011 -0.6884 -0.1141 -0.3009
26911SOL    HW183175   1.923   0.033   3.998 -0.4646 -0.6254  3.0002
26911SOL    HW283176   1.965   0.177   3.981 -0.3721 -1.0388 -1.2754
26912SOL     OW83177   3.763   2.119   0.292 -0.5690 -0.0564  0.1769
26912SOL    HW183178   3.723   2.166   0.220 -0.8771 -0.1402  0.2930
26912SOL    HW283179   3.724   2.156   0.371 -0.0503  0.2072  0.3133
26913SOL     OW83180   6.785   0.765   3.554  0.3287  0.0517 -0.0261
26913SOL    HW183181   6.792   0.859   3.568 -0.3157  0.1119 -0.0751
26913SOL    HW283182   6.738   0.757   3.471  0.9168 -0.3109 -0.3299
26914SOL     OW83183   3.516  10.230  10.261 -0.4329 -0.2577 -0.8743
26914SOL    HW183184   3.425  10.238  10.292 -0.2194  1.5501 -0.6194
26914SOL    HW283185   3.569  10.257  10.336  0.2465  0.3716 -1.5757
26915SOL     OW83186   3.099   4.229   4.777 -0.4948  0.4341  0.3809
26915SOL    HW183187   3.041   4.159   4.748  0.7276 -0.0938 -0.9288
26915SOL    HW283188   3.055   4.310   4.750 -0.6062  0.0338 -0.6741
26916SOL     OW83189   2.695   4.645   6.058 -0.3010  0.1416 -0.1510
26916SOL    HW183190   2.656   4.599   6.132  0.3209  1.7231  1.2382
26916SOL    HW283191   2.700   4.580   5.988 -3.1485 -0.7671  0.3752
26917SOL     OW83192   8.621   9.306   0.639 -0.7091 -0.4509 -0.1315
26917SOL    HW183193   8.626   9.214   0.666  1.1420 -0.4339 -0.2801
26917SOL    HW283194   8.694   9.348   0.684  0.5822  0.2176 -2.6465
26918SOL     OW83195   2.923   7.060  10.381  0.0220  0.1025 -0.1111
26918SOL    HW183196   2.842   7.009  10.369 -0.5423  1.2050 -1.1469
26918SOL    HW283197   2.965   7.019  10.457 -0.4502 -1.8479 -0.8298
26919SOL     OW83198   3.499   0.813   8.549 -0.7081 -0.7651  0.2094
26919SOL    HW183199   3.431   0.787   8.611  0.0466 -4.8834 -0.4340
26919SOL    HW283200   3.460   0.796   8.463  0.3065 -0.8312 -0.2453
26920SOL     OW83201   8.914   2.158   4.755  0.7675  0.2106  0.2870
26920SOL    HW183202   8.827   2.193   4.773 -0.1157 -1.5907 -0.2458
26920SOL    HW283203   8.932   2.183   4.665  1.5512  2.0038  0.9082
26921SOL     OW83204   9.021   5.549   7.921  0.5181  0.4759 -0.0938
26921SOL    HW183205   8.991   5.475   7.975 -0.2248 -0.2348 -1.4267
26921SOL    HW283206   8.944   5.577   7.873  1.0899  1.2888 -0.5720
26922SOL     OW83207  10.360   4.280   0.982  0.4750  0.1899  0.0179
26922SOL    HW183208  10.426   4.267   0.914  1.2984 -0.0113  0.8353
26922SOL    HW283209  10.388   4.224   1.055 -2.0669 -2.0668 -0.5707
26923SOL     OW83210   4.260   9.255   1.174  0.1956 -0.1308  0.1614
26923SOL    HW183211   4.346   9.236   1.136  0.1841  0.9221 -0.4047
26923SOL    HW283212   4.242   9.345   1.150 -0.4983  0.0794  1.3869
26924SOL     OW83213   4.225   5.140   6.738 -0.2397  0.1410  0.2004
26924SOL    HW183214   4.255   5.085   6.810  0.8371  1.2542  0.6507
26924SOL    HW283215   4.295   5.204   6.726 -1.1085  0.9565 -0.7889
26925SOL     OW83216   8.510   8.576   0.245 -0.8045  0.1000  0.1126
26925SOL    HW183217   8.460   8.527   0.311  0.8227  0.0723  1.3960
26925SOL    HW283218   8.534   8.657   0.289  2.0018 -0.7498  0.3451
26926SOL     OW83219   6.964   5.265   6.977  0.2081 -0.2435 -0.3988
26926SOL    HW183220   7.029   5.304   7.036  0.0226 -0.2004 -0.2217
26926SOL    HW283221   6.939   5.184   7.020  1.4783 -1.1772 -1.3455
26927SOL     OW83222   6.698   3.692   6.099  0.1058 -0.8671  0.2287
26927SOL    HW183223   6.676   3.674   6.190  0.2920 -1.3636  0.1797
26927SOL    HW283224   6.760   3.765   6.103 -1.4580  0.4934  0.3658
26928SOL     OW83225   7.492   1.975   6.134  0.1026  0.4842 -0.4789
26928SOL    HW183226   7.562   1.930   6.182  0.0355  1.3429  0.4618
26928SOL    HW283227   7.453   1.907   6.079 -1.9596 -1.4742  3.0192
26929SOL     OW83228   2.493   2.158   9.806 -0.1631  0.5194 -0.5650
26929SOL    HW183229   2.437   2.120   9.738  0.5672 -4.9349  1.3980
26929SOL    HW283230   2.442   2.150   9.886  1.9474 -1.1994  0.7070
26930SOL     OW83231   1.333   2.498   0.229 -0.5085  0.1296 -0.2114
26930SOL    HW183232   1.395   2.493   0.157  3.4039  2.1919  2.6103
26930SOL    HW283233   1.321   2.592   0.244 -1.1762 -0.2239  1.7934
26931SOL     OW83234   8.301   9.020   2.279  0.0117  0.1136  0.0684
26931SOL    HW183235   8.375   9.021   2.340  1.1836 -2.4672 -1.1543
26931SOL    HW283236   8.336   9.060   2.199 -0.4149  0.2998 -0.0273
26932SOL     OW83237  10.336   1.082   9.027  0.0758 -0.0720 -0.3528
26932SOL    HW183238  10.325   1.005   9.083 -3.0551 -0.2175 -0.9616
26932SOL    HW283239  10.336   1.156   9.089  0.0462 -0.4032  0.0501
26933SOL     OW83240  10.105   6.187   5.154  0.3936  0.2332  0.4290
26933SOL    HW183241  10.174   6.124   5.133 -0.5908 -0.4942 -0.8157
26933SOL    HW283242  10.143   6.243   5.221  1.7107 -0.9698  0.7446
26934SOL     OW83243   0.385   4.694  10.142 -0.4064  0.1143  0.1300
26934SOL    HW183244   0.423   4.634  10.077 -2.8677 -0.8160 -0.5457
26934SOL    HW283245   0.383   4.779  10.097  0.3152  0.0469 -0.0398
26935SOL     OW83246   2.004   1.217   4.665 -0.0149  0.0377  0.0032
26935SOL    HW183247   2.032   1.283   4.603 -1.0498  1.0981  0.6208
26935SOL    HW283248   2.081   1.161   4.678 -0.1235 -1.0569 -3.2226
26936SOL     OW83249   0.837   2.190   1.265 -0.1007 -0.0722 -0.2490
26936SOL    HW183250   0.764   2.143   1.225  0.1434  0.3803 -1.2614
26936SOL    HW283251   0.908   2.126   1.270 -0.5518 -0.5136  0.7384
26937SOL     OW83252   1.079   7.063   5.200  0.4626  0.2836 -0.3524
26937SOL    HW183253   1.094   7.149   5.161  0.8283  0.5907  0.4610
26937SOL    HW283254   1.052   7.081   5.289  1.0025 -0.4597 -0.0282
26938SOL     OW83255   2.161   5.205   2.572  0.2092 -0.1542 -0.4095
26938SOL    HW183256   2.077   5.176   2.608  0.3817  2.1506  2.1632
26938SOL    HW283257   2.138   5.252   2.492 -0.9786  0.3675  0.2073
26939SOL     OW83258  10.137   9.381   5.932  0.3417 -0.4715  0.0458
26939SOL    HW183259  10.210   9.358   5.875  1.8530  1.3631  1.0972
26939SOL    HW283260  10.063   9.330   5.899  1.0717  0.5574 -3.5907
26940SOL     OW83261   9.357   7.071   9.433 -0.3604 -0.0439 -0.0017
26940SOL    HW183262   9.341   7.143   9.372  0.3721 -0.5862 -0.8576
26940SOL    HW283263   9.412   7.110   9.501  1.5065 -0.1711 -1.3599
26941SOL     OW83264   7.323   7.286   2.948 -0.3271 -0.2359  0.2151
26941SOL    HW183265   7.303   7.319   3.036  1.3606  0.8425  0.2456
26941SOL    HW283266   7.411   7.250   2.956 -0.7675 -1.5706 -0.6864
26942SOL     OW83267   2.699   9.782   3.954 -0.4457 -0.4566  0.4747
26942SOL    HW183268   2.786   9.743   3.947  1.4526  3.0875  1.7163
26942SOL    HW283269   2.675   9.804   3.864  0.8641  0.1609  0.2443
26943SOL     OW83270   8.421   6.424   2.387  0.0787 -0.1732  0.2059
26943SOL    HW183271   8.396   6.502   2.338 -0.6049  0.8132  2.0023
26943SOL    HW283272   8.469   6.370   2.325 -0.4908  1.1205 -1.4266
26944SOL     OW83273   8.767   1.261   3.933 -0.0561  0.1963  0.4128
26944SOL    HW183274   8.685   1.214   3.948 -0.0871 -0.0676 -0.5098
26944SOL    HW283275   8.830   1.192   3.911  0.6873  0.2921  2.1463
26945SOL     OW83276   0.845   9.802   0.622  0.0967 -0.2697  0.5524
26945SOL    HW183277   0.795   9.778   0.544  0.4982  2.8668 -0.7939
26945SOL    HW283278   0.784   9.854   0.674  1.0581  1.1585  0.2806
26946SOL     OW83279   9.306   9.026   3.418 -0.4343  0.0299 -0.0110
26946SOL    HW183280   9.220   9.052   3.384  0.0064  0.3674 -0.9017
26946SOL    HW283281   9.342   9.107   3.454  0.2363  0.3216 -1.2617
26947SOL     OW83282   1.499   1.474   2.389  0.3596  0.4807 -0.1157
26947SOL    HW183283   1.506   1.564   2.358  1.4170  0.8741  1.1382
26947SOL    HW283284   1.565   1.426   2.339  2.9527  1.3663  2.1812
26948SOL     OW83285   2.077   5.707   4.213  0.1692 -0.4436  0.0202
26948SOL    HW183286   1.983   5.693   4.203  0.2635 -1.2963  0.2639
26948SOL    HW283287   2.091   5.713   4.308  0.6910 -2.9282  0.1548
26949SOL     OW83288   8.727   7.283   3.117  0.1311 -0.3211  0.0376
26949SOL    HW183289   8.758   7.361   3.070 -0.8500 -0.3211 -0.6275
26949SOL    HW283290   8.667   7.317   3.183 -0.5160 -0.5359 -0.4390
26950SOL     OW83291   0.006   1.207   4.985 -0.4007 -0.2215 -0.0759
26950SOL    HW183292   0.037   1.284   4.938 -1.8967 -0.1619 -1.0388
26950SOL    HW283293   0.076   1.143   4.976 -0.1225  0.2340 -1.3117
26951SOL     OW83294   8.762   8.573   8.350 -0.6466  0.1239  0.2591
26951SOL    HW183295   8.678   8.603   8.385 -1.6573 -1.4202 -0.7170
26951SOL    HW283296   8.810   8.654   8.330 -2.1742  1.0584  0.1980
26952SOL     OW83297   7.053   7.677   9.512 -0.1568  0.3188  0.5798
26952SOL    HW183298   7.106   7.697   9.434  2.3279 -2.0980  1.4881
26952SOL    HW283299   6.964   7.671   9.478  0.3514  2.4214 -1.4560
26953SOL     OW83300   7.828   2.392   3.036  0.2076  0.3374 -0.4694
26953SOL    HW183301   7.832   2.479   2.996 -0.8900  0.8392  0.4868
26953SOL    HW283302   7.748   2.392   3.087  1.2961 -0.4787  1.3309
26954SOL     OW83303   8.398   8.907   1.134 -0.0113  0.0709  0.2162
26954SOL    HW183304   8.360   8.994   1.149  1.4221  0.5920  1.1608
26954SOL    HW283305   8.491   8.919   1.152  0.8897 -0.8443 -3.1456
26955SOL     OW83306   1.764   7.185   5.660 -0.3993  0.2950  0.3045
26955SOL    HW183307   1.833   7.239   5.699  0.8352 -0.2061 -1.1282
26955SOL    HW283308   1.740   7.123   5.729  1.9570 -0.7813  0.2279
26956SOL     OW83309  10.132   6.133   2.801  0.5525 -0.1285  0.1064
26956SOL    HW183310  10.173   6.137   2.714  2.2355  0.0956  0.8653
26956SOL    HW283311  10.128   6.224   2.829  0.2233 -0.2215  0.3616
26957SOL     OW83312   4.885   5.570  10.408 -0.0129 -0.6401 -0.5171
26957SOL    HW183313   4.813   5.546  10.465  0.3318 -1.6501 -0.4976
26957SOL    HW283314   4.943   5.624  10.462 -1.8875  2.2878 -1.1655
26958SOL     OW83315   9.274   2.240   3.479 -0.2775 -0.2512 -0.1197
26958SOL    HW183316   9.231   2.252   3.564 -0.2205  1.2095 -0.2801
26958SOL    HW283317   9.366   2.259   3.497 -0.0646 -1.0645 -0.2870
26959SOL     OW83318   9.068   0.256   5.915  0.2869 -0.4005  0.7129
26959SOL    HW183319   9.082   0.348   5.941  0.5370 -0.1367 -0.3424
26959SOL    HW283320   9.144   0.233   5.862 -0.4948 -0.7356 -0.2979
26960SOL     OW83321   2.831   0.311   8.981 -0.3134  0.5545  0.2278
26960SOL    HW183322   2.783   0.229   8.973 -0.6664  0.9080 -1.9787
26960SOL    HW283323   2.923   0.286   8.985 -0.4620  0.0329  0.3922
26961SOL     OW83324   5.278   2.086   3.018 -0.1480  0.1154 -0.4985
26961SOL    HW183325   5.311   1.996   3.018 -0.1976  0.0814 -1.5620
26961SOL    HW283326   5.215   2.088   3.091 -0.2913 -0.7712 -0.5811
26962SOL     OW83327   9.081   5.052   8.015  0.2077  0.3600 -0.0938
26962SOL    HW183328   9.060   5.072   7.924 -0.0857  0.1581 -0.0706
26962SOL    HW283329   8.999   5.020   8.053  0.1627  1.0612  0.4213
26963SOL     OW83330   4.465   8.101   6.825  0.2768  0.1738  0.9577
26963SOL    HW183331   4.545   8.151   6.805  0.9344 -1.1671  0.1041
26963SOL    HW283332   4.413   8.161   6.878  1.7314  1.1890  1.3177
26964SOL     OW83333   3.241   4.389   2.141  0.0225 -0.2220  0.0418
26964SOL    HW183334   3.238   4.459   2.206  0.4733  0.1624 -0.3415
26964SOL    HW283335   3.311   4.330   2.171  0.2643 -0.0182 -0.1124
26965SOL     OW83336   2.296   6.430   4.693  0.2099  0.2207 -0.4878
26965SOL    HW183337   2.206   6.451   4.719 -0.2720  0.0501 -1.8847
26965SOL    HW283338   2.302   6.335   4.704  0.5369  0.3478  0.4904
26966SOL     OW83339   5.597   6.275   7.420 -0.5031 -0.1994 -0.0019
26966SOL    HW183340   5.605   6.222   7.340 -2.2216 -0.6945  0.1108
26966SOL    HW283341   5.678   6.259   7.468  0.0238 -0.8614 -1.0758
26967SOL     OW83342   9.274   0.348   9.279  0.7613 -0.1206  0.2133
26967SOL    HW183343   9.297   0.440   9.294  1.2065 -0.2119  0.0854
26967SOL    HW283344   9.192   0.352   9.228  0.5546  0.1991  0.5644
26968SOL     OW83345   5.578   1.085   6.949  0.0015  0.1917  0.2004
26968SOL    HW183346   5.570   0.990   6.958  2.5174 -0.0342  0.7838
26968SOL    HW283347   5.574   1.100   6.854  0.2247 -0.5819  0.0582
26969SOL     OW83348   9.517   6.283   4.873  0.0329  0.1135  0.0105
26969SOL    HW183349   9.517   6.208   4.933  0.8516 -1.0698 -1.3800
26969SOL    HW283350   9.593   6.335   4.900 -0.0323 -0.0240  0.4637
26970SOL     OW83351   6.428   4.256   5.997 -0.0472  0.2568  0.5748
26970SOL    HW183352   6.390   4.338   6.028  0.8797  0.4643  1.2090
26970SOL    HW283353   6.503   4.283   5.943 -1.8522 -0.0793 -2.2786
26971SOL     OW83354   8.311   5.402   5.345 -0.7429  0.2123  0.5756
26971SOL    HW183355   8.318   5.309   5.327 -0.0194 -0.2391  2.8153
26971SOL    HW283356   8.266   5.439   5.269 -0.8971 -1.9129 -0.4228
26972SOL     OW83357   0.372   2.659   3.267  0.2814  0.3797 -0.3508
26972SOL    HW183358   0.401   2.595   3.202  0.1648  0.4767 -0.5005
26972SOL    HW283359   0.326   2.607   3.332  1.7253  0.0855  0.4628
26973SOL     OW83360   7.058   3.929   7.817 -0.3489  0.3075  0.1027
26973SOL    HW183361   6.995   3.961   7.881 -0.1756  2.8522 -0.9150
26973SOL    HW283362   7.122   3.999   7.808  1.4523 -1.3086 -0.5114
26974SOL     OW83363   7.040   8.708   8.133  0.2106  0.2833 -0.6243
26974SOL    HW183364   7.053   8.786   8.079 -1.4755  0.8527 -0.2748
26974SOL    HW283365   6.960   8.668   8.100 -0.1463 -0.0736  0.5902
26975SOL     OW83366  10.422   8.945   4.065 -0.0718 -0.2711 -0.0447
26975SOL    HW183367  10.400   8.919   4.155 -0.3847 -0.0145 -0.0445
26975SOL    HW283368  10.341   8.983   4.031  0.2019  0.1246 -0.2556
26976SOL     OW83369   3.285   5.381   0.830 -0.1232  0.5095 -0.4020
26976SOL    HW183370   3.378   5.392   0.815 -0.2916  1.7036 -0.6794
26976SOL    HW283371   3.275   5.380   0.925  0.0786  1.2314 -0.3743
26977SOL     OW83372   4.839   4.613  10.185  0.0831  0.1465  0.3149
26977SOL    HW183373   4.759   4.568  10.213  0.3859 -2.2176 -2.1645
26977SOL    HW283374   4.895   4.613  10.262 -1.4280 -0.2231  1.4616
26978SOL     OW83375   5.596   2.064   9.804  1.0280 -0.2661  0.7566
26978SOL    HW183376   5.612   1.977   9.767  1.4650  0.4258 -0.7434
26978SOL    HW283377   5.679   2.110   9.794  0.8093  0.3317  1.5780
26979SOL     OW83378   5.582   3.484   9.156 -0.2171  0.2899 -0.1248
26979SOL    HW183379   5.585   3.580   9.155 -0.1633  0.3466 -2.8268
26979SOL    HW283380   5.674   3.458   9.162 -0.1023  0.4657 -0.9757
26980SOL     OW83381   8.091   5.034   8.865 -0.2740 -0.1665 -0.0647
26980SOL    HW183382   8.115   4.963   8.925 -0.2795  0.5264  0.7814
26980SOL    HW283383   8.041   4.991   8.796 -2.4735 -0.6991  1.7146
26981SOL     OW83384   1.740   6.612   8.272 -0.3612  0.1744 -0.5245
26981SOL    HW183385   1.737   6.649   8.184  0.1940 -0.6712 -0.9149
26981SOL    HW283386   1.830   6.580   8.282 -1.3412 -3.1800 -1.1448
26982SOL     OW83387   9.417   0.892   8.624  0.7176  0.1796  0.0001
26982SOL    HW183388   9.466   0.971   8.648  3.0918 -0.9224 -1.0155
26982SOL    HW283389   9.393   0.905   8.533 -0.6603  0.5364  0.3770
26983SOL     OW83390   6.757   8.069   2.451  0.2136  0.0510  0.0156
26983SOL    HW183391   6.728   8.125   2.523  0.8199  0.5566 -0.1302
26983SOL    HW283392   6.744   7.980   2.484 -1.8751  0.2240 -0.1838
26984SOL     OW83393   7.929   9.742   1.253  0.3629 -0.1754  0.1800
26984SOL    HW183394   7.887   9.800   1.316  0.5611 -0.8604  0.9580
26984SOL    HW283395   7.857   9.691   1.216 -0.2004  2.1546 -2.3359
26985SOL     OW83396   4.207   3.382   1.261 -0.6152  0.7540 -0.3148
26985SOL    HW183397   4.260   3.349   1.333 -0.4257  1.0596 -0.3084
26985SOL    HW283398   4.118   3.383   1.295 -0.4909  1.1578  0.0182
26986SOL     OW83399   8.503   9.498   1.880  0.1783  0.3293 -0.5778
26986SOL    HW183400   8.510   9.429   1.814  1.8014  0.1156 -0.2233
26986SOL    HW283401   8.584   9.490   1.932  0.1759  2.1899 -0.2242
26987SOL     OW83402  10.182   5.883  10.217 -0.4787  0.0201 -0.0059
26987SOL    HW183403  10.232   5.953  10.175 -1.3014  0.7243  0.1829
26987SOL    HW283404  10.206   5.805  10.167  1.3067  0.2007  0.4713
26988SOL     OW83405   8.769   1.479   2.736  0.2455  0.3269 -0.0775
26988SOL    HW183406   8.838   1.520   2.684 -0.3750 -0.1327 -1.2922
26988SOL    HW283407   8.711   1.439   2.672  0.1993 -1.4554  0.9913
26989SOL     OW83408   5.783   8.046   4.982 -0.2496  0.0950 -0.6023
26989SOL    HW183409   5.804   7.959   5.016 -1.9034  0.5165  1.7568
26989SOL    HW283410   5.864   8.096   4.995 -0.4223 -0.1149  1.7233
26990SOL     OW83411   9.502   1.025   1.339 -0.3179 -0.2523 -0.4412
26990SOL    HW183412   9.423   0.982   1.371 -0.0829 -0.2561  0.1397
26990SOL    HW283413   9.469   1.099   1.287 -0.7258 -1.2636 -1.6554
26991SOL     OW83414   8.015   5.789   5.020 -0.4911 -0.2534  0.1613
26991SOL    HW183415   8.109   5.802   5.032 -0.5859  0.6306 -0.0176
26991SOL    HW283416   8.004   5.694   5.025  0.3657 -0.3489  0.4926
26992SOL     OW83417   6.758   9.797   3.370 -0.1418 -0.7474 -0.4799
26992SOL    HW183418   6.782   9.885   3.341 -2.4370 -0.1092 -0.6472
26992SOL    HW283419   6.832   9.768   3.425  0.1462  1.7643  0.5844
26993SOL     OW83420   9.428   5.457   7.403 -0.1803 -0.4663  0.0102
26993SOL    HW183421   9.360   5.517   7.432  0.3935  1.1885 -1.8710
26993SOL    HW283422   9.451   5.407   7.481  0.8538  3.2644  2.3761
26994SOL     OW83423   5.708   3.327   7.027  0.6446  0.2746  0.1052
26994SOL    HW183424   5.793   3.371   7.015  0.4058  0.6765 -0.1151
26994SOL    HW283425   5.728   3.253   7.085  1.0914  0.5384  0.2949
26995SOL     OW83426   4.170   8.048   4.636  0.1940  0.6008 -0.6302
26995SOL    HW183427   4.232   8.121   4.642  0.5948  0.2369 -0.2428
26995SOL    HW283428   4.135   8.039   4.724 -0.1658  0.5889 -0.7738
26996SOL     OW83429   1.467   2.559   9.786 -0.3253  0.2914  0.0261
26996SOL    HW183430   1.386   2.538   9.833 -1.1986 -0.4077 -1.6835
26996SOL    HW283431   1.525   2.486   9.805 -1.5271 -1.2293 -1.7977
26997SOL     OW83432   0.032   0.828   0.923  0.4558  0.2484  0.3936
26997SOL    HW183433   0.127   0.819   0.915  0.4097  0.8859 -1.1925
26997SOL    HW283434   0.014   0.918   0.899 -0.1291  1.8959  5.6719
26998SOL     OW83435   7.076   1.153   4.609  0.2638  0.2451 -0.0161
26998SOL    HW183436   7.164   1.152   4.648 -0.5097  3.3205  2.1429
26998SOL    HW283437   7.092   1.151   4.515  2.5890 -0.2171  0.3188
26999SOL     OW83438   4.607   0.567   9.102 -0.1189 -0.6700 -0.1641
26999SOL    HW183439   4.582   0.531   9.017 -0.6747  0.7715 -0.6390
26999SOL    HW283440   4.681   0.625   9.082  0.8125 -1.5794  0.5912
27000SOL     OW83441   9.470   4.477   0.518 -0.1386 -0.1568  0.0146
27000SOL    HW183442   9.431   4.522   0.593  0.8596 -0.9371  1.0412
27000SOL    HW283443   9.510   4.546   0.467 -0.1511  0.3097  0.6212
27001SOL     OW83444   4.966   0.388   0.859  0.1670  0.0719  0.1593
27001SOL    HW183445   4.888   0.443   0.873  0.4373  0.5139 -0.0562
27001SOL    HW283446   5.031   0.422   0.921  0.3375 -0.0028  0.0218
27002SOL     OW83447   4.117   4.940   0.022 -0.4033  0.1943 -0.4913
27002SOL    HW183448   4.209   4.944   0.048 -0.5968  0.8271  0.1227
27002SOL    HW283449   4.069   4.977   0.096 -1.1923 -0.5077 -0.6243
27003SOL     OW83450   0.434   2.417   8.902  0.3628  0.4105  0.2468
27003SOL    HW183451   0.347   2.457   8.898  0.5586  1.0759  1.9354
27003SOL    HW283452   0.419   2.331   8.940  0.4502  0.6304  0.7966
27004SOL     OW83453   1.726   5.609  10.043  0.4393 -0.2040  0.2832
27004SOL    HW183454   1.763   5.555   9.974  0.6706 -1.0418  1.0440
27004SOL    HW283455   1.671   5.549  10.094 -0.5560  0.6265  0.2342
27005SOL     OW83456   9.547   0.569   4.004 -0.5674 -0.4365 -0.5206
27005SOL    HW183457   9.592   0.600   3.925 -0.9549 -0.6226 -0.8184
27005SOL    HW283458   9.456   0.597   3.992 -0.8584 -1.4021 -0.6404
27006SOL     OW83459   4.319   0.724   8.131  0.0153 -0.5031  0.1525
27006SOL    HW183460   4.280   0.745   8.215  0.5151  0.7164  0.1007
27006SOL    HW283461   4.289   0.635   8.111  0.8128 -1.2782  2.1520
27007SOL     OW83462   7.040   8.250   5.191  0.4143 -0.2035 -0.4037
27007SOL    HW183463   6.966   8.209   5.236  1.7323 -1.8919  0.3643
27007SOL    HW283464   7.073   8.315   5.252  0.4053 -0.4038 -0.1871
27008SOL     OW83465   6.865   4.578   9.234 -0.7498 -0.7666 -0.8124
27008SOL    HW183466   6.796   4.623   9.282 -1.8129 -3.4876  0.3942
27008SOL    HW283467   6.830   4.491   9.216  0.8526 -0.9498 -3.7970
27009SOL     OW83468   0.110   3.363   7.891  0.1006  0.2375 -0.3258
27009SOL    HW183469   0.178   3.429   7.881 -0.1284  0.5953  0.4432
27009SOL    HW283470   0.060   3.390   7.968  0.3801 -1.1531  0.3872
27010SOL     OW83471   9.397   6.100   4.474  0.0878 -0.1839  0.3769
27010SOL    HW183472   9.308   6.119   4.445  0.3821 -1.9709 -2.0457
27010SOL    HW283473   9.426   6.181   4.518 -2.5041  0.6040  0.8072
27011SOL     OW83474   0.179   2.832   2.421 -0.4322 -0.1057  0.4323
27011SOL    HW183475   0.112   2.815   2.354  0.1410 -1.3150  0.1356
27011SOL    HW283476   0.261   2.840   2.372 -0.0073 -0.9772  0.9713
27012SOL     OW83477   2.883   8.317   8.598 -0.4639 -0.2659  0.3378
27012SOL    HW183478   2.797   8.340   8.564 -0.0391 -0.6373 -1.0380
27012SOL    HW283479   2.903   8.386   8.661 -0.5803  1.4336 -1.3819
27013SOL     OW83480   1.703  10.191   4.100  0.0772 -0.3646 -0.4434
27013SOL    HW183481   1.669  10.277   4.126  3.0266  0.5051  0.9111
27013SOL    HW283482   1.633  10.153   4.047 -2.8031  1.3613  1.8212
27014SOL     OW83483   4.940   4.176   7.013  0.8572 -0.3873  0.1760
27014SOL    HW183484   4.933   4.091   7.056  1.5952 -0.7122 -0.3329
27014SOL    HW283485   4.993   4.160   6.935  1.7595  0.7063  0.5275
27015SOL     OW83486   7.753   9.454   4.769 -0.1306  0.2291 -0.5098
27015SOL    HW183487   7.679   9.417   4.720 -1.1909 -0.0318  1.2036
27015SOL    HW283488   7.721   9.460   4.859  1.8731  0.3334  0.2372
27016SOL     OW83489   7.877   7.381   6.888 -0.2535 -0.3634  0.0565
27016SOL    HW183490   7.841   7.378   6.977 -0.2428  1.3604  0.1478
27016SOL    HW283491   7.858   7.295   6.851  0.3746 -1.3690  1.9680
27017SOL     OW83492   8.767   0.467   9.972  0.8064 -0.0085  0.0192
27017SOL    HW183493   8.803   0.549   9.938 -0.4236  0.4772 -0.1479
27017SOL    HW283494   8.713   0.494  10.046  0.0337 -0.6164 -0.3173
27018SOL     OW83495   8.506   1.301   6.378 -0.2369  0.0569  0.2990
27018SOL    HW183496   8.451   1.238   6.425  2.0335 -1.6462  0.8493
27018SOL    HW283497   8.491   1.283   6.286  0.0528 -0.9935  0.4539
27019SOL     OW83498   8.806   7.830   7.844  0.4538  0.0025 -0.1253
27019SOL    HW183499   8.880   7.804   7.899  0.3131  0.6997  0.4029
27019SOL    HW283500   8.807   7.925   7.845 -1.0343  0.0349  0.7046
27020SOL     OW83501   3.595  10.366   8.175 -0.0400 -0.2542  0.6750
27020SOL    HW183502   3.545  10.387   8.096 -1.5432 -0.1184  1.6254
27020SOL    HW283503   3.674  10.419   8.168  0.6288 -1.4029 -1.4851
27021SOL     OW83504   4.357   8.713   7.075  0.1936 -0.3865  0.2234
27021SOL    HW183505   4.405   8.661   7.139 -1.1336 -1.4240  0.4302
27021SOL    HW283506   4.268   8.676   7.076 -0.4455  1.0529 -0.5806
27022SOL     OW83507   5.729   4.347   2.534  0.1060 -0.2578  0.1668
27022SOL    HW183508   5.694   4.361   2.446 -0.8808 -3.7322 -0.1385
27022SOL    HW283509   5.814   4.391   2.533  0.6377 -1.1373 -2.9275
27023SOL     OW83510   3.314   5.178   9.829  0.0032 -0.4095 -0.1766
27023SOL    HW183511   3.256   5.200   9.902 -2.0283 -1.2989 -1.4193
27023SOL    HW283512   3.323   5.083   9.833  0.7668 -0.3534 -0.4484
27024SOL     OW83513   6.195   4.060   4.830  0.2125  0.2526 -0.0984
27024SOL    HW183514   6.196   3.973   4.792 -1.6175  0.2988 -0.3524
27024SOL    HW283515   6.196   4.120   4.756  1.0885  0.4516  0.0645
27025SOL     OW83516   4.739   9.338   5.782 -0.5513  0.1437  0.1306
27025SOL    HW183517   4.731   9.417   5.729  0.4306  0.2553  0.1369
27025SOL    HW283518   4.829   9.308   5.769 -0.4291 -0.0977  1.3429
27026SOL     OW83519   0.451   5.203   6.679  0.3795 -0.3248 -0.1172
27026SOL    HW183520   0.444   5.289   6.639 -1.1950 -0.2226  0.3264
27026SOL    HW283521   0.528   5.209   6.736 -0.2464  1.1056  0.6286
27027SOL     OW83522   1.775   8.358   3.078 -0.3117  0.7464  0.3833
27027SOL    HW183523   1.772   8.395   3.166 -0.2341 -0.7568  1.0403
27027SOL    HW283524   1.764   8.264   3.090  1.1096  0.3295 -1.0720
27028SOL     OW83525   6.121   0.420   6.887 -0.1142 -0.3690 -0.3729
27028SOL    HW183526   6.129   0.373   6.803  0.3833  1.4660 -1.4145
27028SOL    HW283527   6.028   0.439   6.894 -0.2443 -1.0381 -0.2033
27029SOL     OW83528   2.942   6.756   3.553  0.6714  0.1347 -0.0121
27029SOL    HW183529   2.922   6.821   3.621 -1.3221  0.2233 -0.6176
27029SOL    HW283530   3.015   6.705   3.589  0.7168  1.1933  1.4908
27030SOL     OW83531  10.317   8.970   2.483  1.0858  0.1355 -0.9766
27030SOL    HW183532  10.256   8.906   2.443 -0.0028  0.5438 -0.0303
27030SOL    HW283533  10.349   8.926   2.561  0.3202  0.7363 -0.3133
27031SOL     OW83534  10.103   8.155   7.949 -0.3441  0.1742 -0.1536
27031SOL    HW183535  10.140   8.068   7.965 -1.6628 -0.4148 -0.2261
27031SOL    HW283536  10.166   8.197   7.890  1.8177  0.3843  2.1024
27032SOL     OW83537   7.787   7.827   3.972 -0.1897  0.1487 -0.0039
27032SOL    HW183538   7.696   7.798   3.966 -0.2883  0.6937 -1.5493
27032SOL    HW283539   7.827   7.800   3.889  1.0589 -0.0101  0.6114
27033SOL     OW83540  10.488   7.825   8.179  0.2545  0.0628  0.3399
27033SOL    HW183541  10.478   7.918   8.198  1.7986  0.0912  1.1270
27033SOL    HW283542  10.463   7.816   8.087  2.1652  1.6515 -0.4008
27034SOL     OW83543   4.151   4.267   1.924  0.1370  0.4847 -0.0468
27034SOL    HW183544   4.140   4.172   1.931 -0.2865  0.4932 -0.5445
27034SOL    HW283545   4.117   4.302   2.006  2.1082  0.0760  1.0059
27035SOL     OW83546   4.909   8.028   1.355 -0.1426  0.3028 -0.0956
27035SOL    HW183547   4.946   8.105   1.398 -0.6336  0.6905 -0.3772
27035SOL    HW283548   4.946   8.029   1.267  1.1026 -0.6563  0.3636
27036SOL     OW83549   2.176   3.664   5.409 -0.5563 -0.2049  0.4974
27036SOL    HW183550   2.225   3.729   5.358  0.1902  0.5928  2.1647
27036SOL    HW283551   2.088   3.666   5.371 -0.2464  0.9462 -0.2217
27037SOL     OW83552   0.645   3.072   0.266 -0.1567 -0.0497  0.4034
27037SOL    HW183553   0.634   3.018   0.344 -2.7747 -0.6954 -0.3259
27037SOL    HW283554   0.637   3.011   0.193 -2.7097  1.1293 -0.4338
27038SOL     OW83555   2.534   1.498   0.992 -0.3188 -0.9398  0.3670
27038SOL    HW183556   2.594   1.550   0.938 -0.8766  0.4924  1.0772
27038SOL    HW283557   2.584   1.479   1.072  0.1247 -2.1317 -0.1643
27039SOL     OW83558   5.251   2.144   0.429  0.1036  0.1057  0.3665
27039SOL    HW183559   5.225   2.236   0.419 -0.0350 -0.1079 -1.8023
27039SOL    HW283560   5.236   2.124   0.521 -0.8145  1.9736  0.6640
27040SOL     OW83561   4.486   8.995   9.547  0.1509 -0.0732 -0.0275
27040SOL    HW183562   4.425   8.957   9.484  1.1964 -1.1907 -0.4260
27040SOL    HW283563   4.539   9.056   9.495  1.9343 -2.0086 -0.6418
27041SOL     OW83564   7.451   0.065   0.882 -0.2498 -0.8485 -0.3280
27041SOL    HW183565   7.448   0.110   0.967 -0.1346 -0.6525 -0.4289
27041SOL    HW283566   7.540   0.077   0.852  1.3679 -5.3031  1.8933
27042SOL     OW83567   3.820   8.408   6.608 -0.5104  0.1029  0.0419
27042SOL    HW183568   3.870   8.489   6.612 -1.4157  0.6681  0.3123
27042SOL    HW283569   3.843   8.361   6.688  1.3875 -0.7686 -0.9630
27043SOL     OW83570   2.966   0.072   2.017  0.0794  0.3393  0.2949
27043SOL    HW183571   3.031   0.075   1.946 -0.8860 -2.4467 -0.8537
27043SOL    HW283572   2.992   0.143   2.076  1.8042  1.8605 -2.0821
27044SOL     OW83573   0.492   7.797   4.536 -0.6168 -0.1202  0.2787
27044SOL    HW183574   0.544   7.877   4.527 -0.6973 -0.1276 -0.3132
27044SOL    HW283575   0.401   7.826   4.535 -0.6430 -0.2019  0.2343
27045SOL     OW83576   7.175   1.913   0.008  0.1214 -0.2365  0.3557
27045SOL    HW183577   7.243   1.927   0.073 -0.3975  0.4515  0.7707
27045SOL    HW283578   7.177   1.819  -0.010  0.6812 -0.3337  0.9082
27046SOL     OW83579   2.651   6.080   3.432  0.3986 -0.0321  0.1493
27046SOL    HW183580   2.696   6.036   3.360 -0.2283 -0.8744  0.2651
27046SOL    HW283581   2.649   6.016   3.503  1.2301  0.8728  1.0270
27047SOL     OW83582   9.979   3.216   8.843 -0.3297  0.1017  0.1547
27047SOL    HW183583   9.965   3.292   8.787 -1.4052  0.7188  1.1982
27047SOL    HW283584   9.989   3.142   8.783 -1.7368  0.6856 -0.8343
27048SOL     OW83585   5.264   0.367   2.893  0.4884  0.3809  0.1469
27048SOL    HW183586   5.357   0.345   2.885  0.4339  0.0804  0.3023
27048SOL    HW283587   5.219   0.291   2.857  0.2813 -0.0509  1.2670
27049SOL     OW83588   1.204   2.080   9.937 -0.1675  0.2038 -0.1674
27049SOL    HW183589   1.294   2.058   9.964 -0.6950 -2.5394 -0.2893
27049SOL    HW283590   1.163   1.995   9.923 -2.0578  1.4102 -2.6592
27050SOL     OW83591   6.854   8.048   8.831 -0.2371  0.3652  0.2832
27050SOL    HW183592   6.915   8.074   8.761 -1.2137 -1.5048 -1.3707
27050SOL    HW283593   6.902   7.982   8.881  0.1800  1.1469  0.9452
27051SOL     OW83594   8.774   8.895   9.674  0.0802 -0.8730  0.5081
27051SOL    HW183595   8.784   8.851   9.759  1.1285  0.3804  1.0641
27051SOL    HW283596   8.858   8.882   9.631 -0.2583 -1.0203 -0.1206
27052SOL     OW83597   5.604   9.872   4.776 -0.0530  0.0413 -0.2691
27052SOL    HW183598   5.684   9.924   4.761  0.7242 -1.1466 -0.3732
27052SOL    HW283599   5.609   9.848   4.869 -1.6747  2.1646  0.4480
27053SOL     OW83600   5.247   9.308   1.378 -0.3913  0.0477  0.0716
27053SOL    HW183601   5.255   9.217   1.406 -0.4437  0.1234  0.3348
27053SOL    HW283602   5.277   9.308   1.288 -0.9770 -0.3496 -0.1315
27054SOL     OW83603   2.960   0.445   2.381 -0.2122 -0.0326 -0.0566
27054SOL    HW183604   2.870   0.445   2.348 -0.2209  1.0544 -0.0748
27054SOL    HW283605   2.994   0.531   2.357  1.6391 -1.2383 -2.1936
27055SOL     OW83606  10.045   2.703   4.357 -0.1160 -0.3711 -0.2175
27055SOL    HW183607  10.003   2.781   4.321 -0.1803 -0.4432 -0.3007
27055SOL    HW283608   9.997   2.686   4.438  0.3157  0.0487  0.1272
27056SOL     OW83609   5.959   6.895   2.204  0.2643 -0.0866  0.2028
27056SOL    HW183610   6.033   6.842   2.233 -0.7726 -1.0558  1.1724
27056SOL    HW283611   5.912   6.839   2.142 -0.9386 -0.3959  1.3674
27057SOL     OW83612   9.266   8.064   5.246 -0.3064  0.0789 -0.2723
27057SOL    HW183613   9.206   8.081   5.318  1.2658 -2.1069  1.6889
27057SOL    HW283614   9.347   8.108   5.271  0.7491 -1.9973  0.1285
27058SOL     OW83615   0.069   1.386   8.154  0.6674 -0.0466 -0.2794
27058SOL    HW183616   0.041   1.306   8.197 -3.3646  0.5511 -1.4304
27058SOL    HW283617   0.147   1.414   8.203  1.0978 -3.5947  1.3102
27059SOL     OW83618   5.697   7.852   3.806 -0.2655  0.1151 -0.4890
27059SOL    HW183619   5.687   7.947   3.802 -3.0119 -0.0910 -0.0662
27059SOL    HW283620   5.657   7.827   3.889 -1.9220 -1.6332 -1.7374
27060SOL     OW83621   5.709   1.464   7.009 -0.2608 -0.9391  0.2585
27060SOL    HW183622   5.768   1.392   6.987 -1.7878 -2.1085 -0.1187
27060SOL    HW283623   5.766   1.529   7.052  1.1650 -2.2888  0.4851
27061SOL     OW83624   2.543   7.007   9.961  0.9122 -0.3325  0.2137
27061SOL    HW183625   2.452   7.020   9.934  1.0040  1.0892  0.5417
27061SOL    HW283626   2.594   7.053   9.894  1.4221 -1.2769 -0.0682
27062SOL     OW83627   1.226   9.957   0.218  0.1528  0.3982 -0.3115
27062SOL    HW183628   1.141   9.956   0.262  0.3214 -0.6083  0.0144
27062SOL    HW283629   1.285  10.002   0.279  0.2735 -0.5641  0.3062
27063SOL     OW83630   6.123   5.445   4.478  0.6585  0.4717  0.2818
27063SOL    HW183631   6.091   5.493   4.554  0.0983 -2.1867  1.8665
27063SOL    HW283632   6.154   5.361   4.514  1.1361 -0.5772 -2.3251
27064SOL     OW83633   2.562   6.220   3.840 -0.0903 -0.4433 -0.3894
27064SOL    HW183634   2.625   6.148   3.836 -1.2317 -1.6372  1.5487
27064SOL    HW283635   2.494   6.189   3.900 -1.4553  1.6325 -0.7640
27065SOL     OW83636   0.688   8.601   3.612  0.6444  0.3814  0.3187
27065SOL    HW183637   0.602   8.632   3.584  0.1446 -0.2052  1.1734
27065SOL    HW283638   0.720   8.670   3.670 -0.2515 -0.4133  1.8176
27066SOL     OW83639   6.190   9.787   2.588 -0.4528  0.2753 -0.2641
27066SOL    HW183640   6.166   9.768   2.497 -0.3017 -0.6912 -0.1216
27066SOL    HW283641   6.273   9.834   2.581  0.8794 -1.9525 -0.6050
27067SOL     OW83642   7.101   8.506   9.921  0.6810 -0.2871 -0.3791
27067SOL    HW183643   7.083   8.598   9.940 -0.1209 -1.1512  4.0810
27067SOL    HW283644   7.015   8.466   9.913  0.8747 -1.2076  1.5945
27068SOL     OW83645   8.577   9.117   2.099 -0.8503 -0.2291 -0.3769
27068SOL    HW183646   8.590   9.044   2.038 -1.0723 -0.8389  0.2907
27068SOL    HW283647   8.639   9.100   2.170  0.4410  1.2580 -1.1011
27069SOL     OW83648   6.799   9.267   8.556 -0.1626 -0.1986  0.0586
27069SOL    HW183649   6.805   9.175   8.530  1.1848 -0.2673  0.5609
27069SOL    HW283650   6.833   9.269   8.645  1.1138  0.9876 -0.4244
27070SOL     OW83651   1.080   8.191   8.548  0.7381  0.1210  0.3712
27070SOL    HW183652   1.052   8.237   8.628  1.2695 -0.3276  0.8240
27070SOL    HW283653   1.172   8.214   8.538  0.5394  0.6090 -0.4273
27071SOL     OW83654   1.399   8.245  10.020 -0.4557  0.1172  0.1871
27071SOL    HW183655   1.393   8.278  10.109  0.8597 -0.7083  0.6231
27071SOL    HW283656   1.317   8.271   9.978 -0.3874  1.9591  1.1304
27072SOL     OW83657   9.546   9.944  10.202  0.3987  0.6337 -0.1258
27072SOL    HW183658   9.459   9.981  10.220  0.4065  0.4911  0.2343
27072SOL    HW283659   9.561   9.960  10.109 -0.9904 -1.3166 -0.7593
27073SOL     OW83660   6.210   6.976   3.267  0.4344 -0.2363 -0.5097
27073SOL    HW183661   6.245   7.007   3.183  0.8909 -1.9346 -0.9946
27073SOL    HW283662   6.258   7.026   3.333  0.8609  0.3507 -1.2507
27074SOL     OW83663   1.860   5.312   0.887 -0.1290 -0.0965  0.2395
27074SOL    HW183664   1.844   5.224   0.853 -1.0758 -0.1573  0.7910
27074SOL    HW283665   1.884   5.363   0.810 -0.4348 -0.6418 -0.2320
27075SOL     OW83666   9.160   6.832   1.703  0.5533 -0.2553  0.0580
27075SOL    HW183667   9.120   6.916   1.678 -0.3787 -0.4457  0.8730
27075SOL    HW283668   9.088   6.769   1.701  0.6652 -0.5070  2.0567
27076SOL     OW83669   1.861   8.196   1.543 -0.2677  0.0860 -0.1693
27076SOL    HW183670   1.835   8.120   1.491 -0.7108 -0.2249  0.4948
27076SOL    HW283671   1.947   8.173   1.579 -0.1297  0.1479 -0.4591
27077SOL     OW83672   8.943   7.437   6.259  0.1606  0.3531 -0.1539
27077SOL    HW183673   9.036   7.413   6.256  0.1510  0.3748 -0.5859
27077SOL    HW283674   8.921   7.431   6.352 -0.1979 -2.6448 -0.3506
27078SOL     OW83675   1.008   5.276   6.263 -0.0004 -0.3134 -0.5402
27078SOL    HW183676   1.043   5.187   6.274 -1.3916 -0.5871  2.7429
27078SOL    HW283677   1.086   5.330   6.254  0.9938 -1.6120 -0.1719
27079SOL     OW83678   8.066   3.698   2.633 -0.6654 -0.3532 -0.7463
27079SOL    HW183679   8.016   3.778   2.613 -0.2461  0.2371  0.4774
27079SOL    HW283680   8.073   3.698   2.728  1.0182 -0.8292 -0.8467
27080SOL     OW83681   2.541   9.951   5.156  0.1489 -0.2891  0.4165
27080SOL    HW183682   2.621   9.910   5.188  0.5412 -0.9905 -1.3201
27080SOL    HW283683   2.572  10.028   5.107 -0.2089 -0.5901 -0.2999
27081SOL     OW83684   6.098   4.695   2.561  0.5611  0.5262 -0.1844
27081SOL    HW183685   6.036   4.734   2.623 -2.1943 -3.4911 -0.0114
27081SOL    HW283686   6.047   4.685   2.480  1.3793 -1.6370 -0.4957
27082SOL     OW83687   9.213  10.382   3.358  0.2473  0.3388  0.2736
27082SOL    HW183688   9.200  10.294   3.320  1.6250  0.4364 -0.4640
27082SOL    HW283689   9.132  10.398   3.406  0.2268 -1.6370  1.0266
27083SOL     OW83690   0.221  10.383   0.119 -0.2475 -0.0147 -0.6613
27083SOL    HW183691   0.152  10.317   0.121  0.0643 -0.4495 -2.7115
27083SOL    HW283692   0.263  10.376   0.205 -0.5695 -2.1191 -0.6250
27084SOL     OW83693   8.332   5.419   6.075  0.4360 -0.1399 -0.4383
27084SOL    HW183694   8.294   5.477   6.141  0.8253 -0.1731 -0.1856
27084SOL    HW283695   8.314   5.463   5.992  0.0684 -0.0286 -0.3019
27085SOL     OW83696   4.920   7.600   5.873 -0.2236 -0.3914  0.0029
27085SOL    HW183697   4.890   7.560   5.792 -0.9135  1.0276 -0.4833
27085SOL    HW283698   4.872   7.683   5.878 -2.5790 -1.6916  3.3584
27086SOL     OW83699   0.575   2.517   7.646  0.2210  0.4781 -0.3150
27086SOL    HW183700   0.617   2.439   7.609  0.9160  0.6914 -0.0006
27086SOL    HW283701   0.482   2.505   7.627  0.3247 -0.3795 -0.3620
27087SOL     OW83702   8.360   6.596   2.828  0.3325  0.4554 -0.3114
27087SOL    HW183703   8.421   6.630   2.894  0.2855  1.4301 -0.7483
27087SOL    HW283704   8.414   6.580   2.751  0.0335  1.4054 -0.7269
27088SOL     OW83705   0.771   6.048   4.987  0.3871  0.4139  0.3254
27088SOL    HW183706   0.800   6.100   5.062 -0.0095  2.2023 -0.7011
27088SOL    HW283707   0.680   6.076   4.972 -0.4415 -1.8181  0.7280
27089SOL     OW83708   2.786   5.740   7.144 -0.0265 -0.5761 -0.3516
27089SOL    HW183709   2.849   5.700   7.085 -0.9974 -3.0173  0.1279
27089SOL    HW283710   2.830   5.741   7.229  1.8803  4.1256 -1.0695
27090SOL     OW83711   7.746   1.761   0.912 -0.9058  0.2014 -0.9572
27090SOL    HW183712   7.819   1.802   0.958 -2.0112  0.4442  0.6801
27090SOL    HW283713   7.759   1.667   0.923 -1.3056  0.2632  0.1356
27091SOL     OW83714   4.174   2.244   8.513 -0.2085  0.3398  0.0374
27091SOL    HW183715   4.131   2.171   8.468 -0.1181 -0.1867  0.7764
27091SOL    HW283716   4.157   2.320   8.458  0.5724 -0.4142 -1.3011
27092SOL     OW83717   6.467   2.060   8.044 -0.3800 -0.4714 -0.4723
27092SOL    HW183718   6.514   2.050   8.127 -1.3462  1.6870  0.4436
27092SOL    HW283719   6.518   2.011   7.980  3.8854  2.5770  0.1732
27093SOL     OW83720   8.337   3.572   4.356 -0.9719 -0.2996  0.6245
27093SOL    HW183721   8.387   3.494   4.381 -2.2653 -1.7172 -0.9420
27093SOL    HW283722   8.381   3.604   4.277 -2.3443 -1.4763 -0.6833
27094SOL     OW83723   5.985   6.697   9.624 -0.1061 -0.3874 -0.3627
27094SOL    HW183724   6.012   6.774   9.574  0.4540  1.0714  2.0298
27094SOL    HW283725   5.909   6.726   9.674 -1.0788 -2.0075 -0.8171
27095SOL     OW83726   4.816   5.199   5.709 -0.0480  0.0841 -0.1429
27095SOL    HW183727   4.724   5.173   5.716 -0.0770  0.5098  4.8528
27095SOL    HW283728   4.865   5.117   5.717 -0.0466  0.1537  0.6196
27096SOL     OW83729   6.955   3.939   1.337  0.1366  0.2054  0.6934
27096SOL    HW183730   6.957   4.011   1.400 -2.0002  0.2855  0.7522
27096SOL    HW283731   6.890   3.965   1.272  1.5291 -0.3554 -1.0003
27097SOL     OW83732   9.567   3.388   6.281  0.0636 -0.4573  0.0281
27097SOL    HW183733   9.528   3.363   6.365  0.1638 -1.8760 -0.3171
27097SOL    HW283734   9.656   3.416   6.304  0.5771 -2.1591  0.2968
27098SOL     OW83735   6.558   9.335   9.557  0.0333  0.2067 -0.2163
27098SOL    HW183736   6.503   9.261   9.585 -1.3135  0.8860 -0.9679
27098SOL    HW283737   6.647   9.310   9.582 -0.3595 -1.7494 -0.6139
27099SOL     OW83738   3.497   2.101   1.490 -0.0194 -0.1145  0.3070
27099SOL    HW183739   3.460   2.188   1.477  1.0009  1.1109  4.1539
27099SOL    HW283740   3.587   2.108   1.457 -0.4610 -0.2986 -0.9706
27100SOL     OW83741   9.573   4.176   2.143  0.2369  0.2562  0.2355
27100SOL    HW183742   9.529   4.094   2.165 -1.8744  1.0299 -0.7212
27100SOL    HW283743   9.537   4.240   2.205  0.2174  0.8627 -0.3852
27101SOL     OW83744   0.544   4.564   4.493  0.6151  0.0666 -0.5063
27101SOL    HW183745   0.551   4.622   4.569  0.7209 -0.8526  0.2069
27101SOL    HW283746   0.539   4.623   4.418 -0.3193  1.0277  0.2704
27102SOL     OW83747   7.512   1.411   2.804  0.0536 -0.0347  0.1384
27102SOL    HW183748   7.511   1.417   2.709  0.4605  0.5554  0.1700
27102SOL    HW283749   7.478   1.495   2.834  0.5800  0.0416  0.5248
27103SOL     OW83750   8.933   6.457   3.721  0.4376  0.5621 -0.3700
27103SOL    HW183751   9.023   6.489   3.713 -0.0778  1.7207 -2.6669
27103SOL    HW283752   8.879   6.532   3.692 -1.1810 -0.5541 -0.3754
27104SOL     OW83753   6.714   9.119   9.204  0.1690  1.1238 -0.5958
27104SOL    HW183754   6.721   9.046   9.143 -2.2237  1.1126 -0.9524
27104SOL    HW283755   6.697   9.078   9.289  0.8652  1.2255 -0.3985
27105SOL     OW83756   5.048   8.458   8.597  0.6367 -0.2028  0.7124
27105SOL    HW183757   4.995   8.378   8.591 -0.6824  0.6928 -0.1878
27105SOL    HW283758   5.073   8.476   8.507  1.8185 -0.1608  1.0400
27106SOL     OW83759   2.175   0.975   5.844 -0.6113 -0.1601 -0.2829
27106SOL    HW183760   2.091   0.991   5.801 -0.8308 -1.7687 -0.4948
27106SOL    HW283761   2.188   0.881   5.838  1.9648  0.1816 -1.6127
27107SOL     OW83762   3.301   5.696   6.389 -0.2520  0.3403 -0.3175
27107SOL    HW183763   3.229   5.699   6.326 -0.3529 -0.0279 -0.2234
27107SOL    HW283764   3.373   5.653   6.342 -0.7465 -1.1384  0.2168
27108SOL     OW83765   6.576   8.896   6.848 -0.0562  0.0377 -0.0386
27108SOL    HW183766   6.603   8.922   6.936 -0.5501 -0.6039  0.3128
27108SOL    HW283767   6.482   8.911   6.846 -0.1559 -0.5638 -0.2279
27109SOL     OW83768   7.643  10.060   8.174 -0.0787 -0.5618 -0.0499
27109SOL    HW183769   7.584  10.120   8.219  0.4980 -0.9126  1.2259
27109SOL    HW283770   7.636  10.084   8.082  0.0697  1.4212  0.4059
27110SOL     OW83771  10.104   8.235   9.628  0.6312 -0.0461  0.3591
27110SOL    HW183772  10.167   8.294   9.669 -1.2681  1.4122  1.3700
27110SOL    HW283773  10.045   8.211   9.699  0.4024 -1.8868 -0.4082
27111SOL     OW83774   2.198   8.485   4.692  0.0371 -0.2638  0.6865
27111SOL    HW183775   2.131   8.427   4.657 -0.7648  0.6724  0.6425
27111SOL    HW283776   2.281   8.439   4.675 -0.6255 -1.9947  1.7906
27112SOL     OW83777   3.997   7.818   1.550  0.3334 -0.0795 -0.6733
27112SOL    HW183778   4.057   7.893   1.545 -0.2623  0.4299 -0.3335
27112SOL    HW283779   4.038   7.751   1.496  1.6298 -0.0344  0.2130
27113SOL     OW83780   2.807   5.887   7.668 -0.2812 -0.7143  0.7257
27113SOL    HW183781   2.741   5.956   7.676 -0.5925 -0.9582  0.3080
27113SOL    HW283782   2.889   5.929   7.691 -0.6234 -0.4819  1.5465
27114SOL     OW83783   4.916  10.185   7.243  0.4157 -0.2902  0.3288
27114SOL    HW183784   4.953  10.118   7.299 -2.0816 -0.5568  1.8311
27114SOL    HW283785   4.853  10.139   7.188  0.0164  0.5478  0.0570
27115SOL     OW83786   1.173  10.373   2.706 -0.3951  0.2001  0.4961
27115SOL    HW183787   1.242  10.379   2.640 -1.0637  0.9092 -0.1551
27115SOL    HW283788   1.211  10.319   2.775  0.4576 -0.2330 -0.2899
27116SOL     OW83789   7.310   0.894   8.812  0.7567 -0.6337  0.0372
27116SOL    HW183790   7.284   0.886   8.720  2.6676  0.5868 -0.6696
27116SOL    HW283791   7.230   0.919   8.857  0.0877  0.3512 -1.5775
27117SOL     OW83792   1.214   6.444   0.201  0.3340 -0.7391 -0.2363
27117SOL    HW183793   1.180   6.406   0.282 -1.6320  2.4547  0.6374
27117SOL    HW283794   1.155   6.413   0.133 -1.0542  0.3472  0.4138
27118SOL     OW83795   0.527   1.725   6.397  0.1592 -0.8090  0.0509
27118SOL    HW183796   0.481   1.782   6.335 -1.3091 -1.8632  0.1262
27118SOL    HW283797   0.578   1.665   6.341  2.2465  0.8930 -0.0276
27119SOL     OW83798   5.653   7.320   6.023 -0.1629  0.4158 -0.5067
27119SOL    HW183799   5.653   7.413   6.002 -0.2589  0.6047  0.3009
27119SOL    HW283800   5.646   7.317   6.119 -0.2398 -0.4188 -0.5321
27120SOL     OW83801   6.944   5.726  10.026  0.2099 -0.3193 -0.1129
27120SOL    HW183802   6.918   5.666   9.956  0.5585 -0.1777 -0.3667
27120SOL    HW283803   6.916   5.812   9.995 -0.7963 -0.4111  0.5001
27121SOL     OW83804   1.344   0.050   8.836  0.2445 -0.2172 -0.3534
27121SOL    HW183805   1.399  -0.026   8.852  1.9135  0.9423 -0.2871
27121SOL    HW283806   1.405   0.124   8.835 -1.2709  1.0907 -0.7106
27122SOL     OW83807   6.062   2.958  10.043 -0.5201 -0.4690 -0.4688
27122SOL    HW183808   6.157   2.947  10.043 -0.3916  0.4469 -1.5500
27122SOL    HW283809   6.028   2.873  10.070  0.5583 -1.6815 -2.6298
27123SOL     OW83810   2.861   0.228   2.801 -0.0885  0.1959 -0.3682
27123SOL    HW183811   2.874   0.239   2.707  0.4622  1.6817 -0.1538
27123SOL    HW283812   2.933   0.277   2.841 -1.0118  0.6309  0.8277
27124SOL     OW83813   2.894   2.706   9.702 -0.6626 -0.1088  0.4212
27124SOL    HW183814   2.800   2.689   9.699 -0.5045 -1.7133  2.2105
27124SOL    HW283815   2.904   2.795   9.669 -2.8983  0.4193  1.0214
27125SOL     OW83816   8.145   8.169   9.459 -0.2069  0.7795  0.3109
27125SOL    HW183817   8.212   8.228   9.494  0.1337  0.5325  0.0831
27125SOL    HW283818   8.101   8.221   9.392 -2.5827  2.1637  2.7754
27126SOL     OW83819   8.640  10.428   5.544 -0.0945 -0.1865  0.2491
27126SOL    HW183820   8.699  10.469   5.607 -0.3225  1.4094 -0.5268
27126SOL    HW283821   8.637  10.489   5.470  0.2160 -2.0134 -1.3642
27127SOL     OW83822   1.172   3.510  10.216 -0.3560 -0.4841 -0.0873
27127SOL    HW183823   1.180   3.599  10.183  1.2120 -0.3966  0.4715
27127SOL    HW283824   1.224   3.457  10.155  0.7078 -0.6488  0.9313
27128SOL     OW83825   7.558   5.239   3.878  0.0094  0.1172 -0.1557
27128SOL    HW183826   7.619   5.192   3.934 -0.1732  0.8078  0.6333
27128SOL    HW283827   7.602   5.243   3.793  0.2041 -1.0986 -0.1278
27129SOL     OW83828   9.726   6.947   7.897 -0.1111 -0.2420  0.1046
27129SOL    HW183829   9.720   6.903   7.812 -0.8000 -0.6061  0.3309
27129SOL    HW283830   9.655   6.908   7.948  0.4177 -0.1641  0.9108
27130SOL     OW83831   2.151  10.083   2.055  0.6652 -0.3909  0.2326
27130SOL    HW183832   2.085  10.137   2.011  1.6866  1.4201  0.8140
27130SOL    HW283833   2.187  10.027   1.985  0.0915  0.2092 -0.5646
27131SOL     OW83834   9.079   6.906   4.960  0.2239  0.2730  0.3844
27131SOL    HW183835   9.102   6.989   5.002  0.0161  0.9659 -0.8392
27131SOL    HW283836   9.116   6.840   5.018 -0.2322  1.1760  1.7726
27132SOL     OW83837   5.236   1.256   2.040 -0.3770  0.0573 -0.3580
27132SOL    HW183838   5.331   1.265   2.054 -0.2171 -1.0761 -0.6297
27132SOL    HW283839   5.197   1.312   2.107  0.4945  1.6813 -1.1539
27133SOL     OW83840   2.728   5.034   9.941  0.2572 -0.3233  0.1527
27133SOL    HW183841   2.723   5.014  10.034 -1.5206 -2.8731 -0.4021
27133SOL    HW283842   2.651   4.992   9.903  1.5847 -0.4504 -2.6635
27134SOL     OW83843   7.305   8.412   5.477  0.6971  0.5269  0.3750
27134SOL    HW183844   7.375   8.388   5.416  0.6376 -1.5100  1.0346
27134SOL    HW283845   7.336   8.381   5.562 -0.8949 -0.1987  0.7275
27135SOL     OW83846   1.819   5.587   4.398  0.1093  0.1181  0.1512
27135SOL    HW183847   1.836   5.537   4.318 -0.0091  0.1628  0.0972
27135SOL    HW283848   1.725   5.603   4.396  0.3863  1.8520 -0.7279
27136SOL     OW83849   7.724   2.362   5.075 -0.3696  0.0245  0.4283
27136SOL    HW183850   7.648   2.360   5.017  0.3989  0.1220 -0.5999
27136SOL    HW283851   7.693   2.410   5.153 -1.7183 -0.9998  0.5755
27137SOL     OW83852   0.609   4.535   8.142  0.1721  0.2169  0.5548
27137SOL    HW183853   0.675   4.605   8.148 -0.1282  0.4314  1.5876
27137SOL    HW283854   0.659   4.454   8.153  0.3091  0.3689  1.1176
27138SOL     OW83855   5.043   7.313   3.912  0.0328 -0.2453  0.1129
27138SOL    HW183856   4.969   7.370   3.891  1.2185  1.7012  0.8938
27138SOL    HW283857   5.118   7.356   3.871  1.2071 -0.3668  1.9831
27139SOL     OW83858   2.708   2.142   5.956 -0.5037 -0.1218 -0.0778
27139SOL    HW183859   2.736   2.232   5.939 -0.3751 -0.4293 -1.5889
27139SOL    HW283860   2.761   2.088   5.897  1.5691 -1.5488  2.7932
27140SOL     OW83861   4.811   8.415   8.809 -0.0586  0.3883  0.0641
27140SOL    HW183862   4.737   8.392   8.753 -1.5464  1.9751  1.2636
27140SOL    HW283863   4.780   8.400   8.898  1.5182 -0.0955  0.5640
27141SOL     OW83864   0.448   6.256   0.390 -0.5453 -0.4805  0.3406
27141SOL    HW183865   0.498   6.298   0.460 -1.2705 -0.4933  0.8804
27141SOL    HW283866   0.399   6.328   0.350 -0.0951 -0.4652 -0.1988
27142SOL     OW83867   1.629   1.982   5.276 -0.8345 -0.3900 -0.5223
27142SOL    HW183868   1.600   1.901   5.319 -0.5004  0.2620  0.9943
27142SOL    HW283869   1.635   2.046   5.347  1.3123  0.3101 -1.2703
27143SOL     OW83870   7.144   8.108   7.223 -1.0735 -0.1973 -0.0364
27143SOL    HW183871   7.181   8.020   7.231  1.2303  0.6946 -0.2084
27143SOL    HW283872   7.110   8.127   7.310  0.6936 -0.3385  0.7364
27144SOL     OW83873   7.858   6.827   0.705  0.6527 -0.2670  0.3339
27144SOL    HW183874   7.904   6.766   0.647  1.3337  1.1557 -0.6810
27144SOL    HW283875   7.919   6.901   0.715  0.0423  0.0614  1.9045
27145SOL     OW83876   3.290   8.317   6.373 -0.0677  0.9254 -0.0629
27145SOL    HW183877   3.298   8.386   6.439 -1.5959  1.0910 -0.0198
27145SOL    HW283878   3.196   8.305   6.362  0.1680 -0.3784 -0.8918
27146SOL     OW83879   5.719   0.223   0.047  0.0919 -0.3463 -0.1940
27146SOL    HW183880   5.774   0.172  -0.013  2.8805 -1.0092  2.6120
27146SOL    HW283881   5.745   0.314   0.031  0.3088 -0.4535 -0.4628
27147SOL     OW83882   9.184   2.627   6.869  0.2972 -0.4992 -0.0345
27147SOL    HW183883   9.212   2.550   6.919 -2.6220 -1.4881  0.2397
27147SOL    HW283884   9.093   2.610   6.847 -0.4826  2.9185  0.0138
27148SOL     OW83885   4.799   7.044   2.895  0.1071  0.2366  0.3518
27148SOL    HW183886   4.790   7.137   2.876  0.2644  0.1304 -0.2560
27148SOL    HW283887   4.844   7.042   2.980  0.6820  0.7124  0.0664
27149SOL     OW83888   8.574   2.193   0.676 -0.3948 -0.1597 -0.2599
27149SOL    HW183889   8.654   2.169   0.722 -0.1287  0.6099 -0.3030
27149SOL    HW283890   8.579   2.147   0.592  0.1814  0.1836 -0.4133
27150SOL     OW83891   5.504   9.566   5.419  0.3234  0.3799 -0.0200
27150SOL    HW183892   5.541   9.632   5.360  1.0115  0.1814  0.1826
27150SOL    HW283893   5.465   9.501   5.360  0.4427  0.5053 -0.2400
27151SOL     OW83894   8.713   6.745   4.636  0.2192 -0.3119 -0.2683
27151SOL    HW183895   8.619   6.736   4.653  0.1024 -0.1817 -0.8191
27151SOL    HW283896   8.738   6.824   4.685  0.3674 -1.1850  1.1161
27152SOL     OW83897   3.544   0.753   2.187  0.6550  0.8797  0.5731
27152SOL    HW183898   3.464   0.775   2.138  1.3017  2.1340  0.0408
27152SOL    HW283899   3.615   0.788   2.133  1.8564 -2.7368 -0.4742
27153SOL     OW83900   7.179   2.480   0.113 -0.2496  0.4847 -0.6330
27153SOL    HW183901   7.227   2.409   0.070  1.6256  0.8659  0.6886
27153SOL    HW283902   7.209   2.559   0.069  0.6125  0.7457  0.3567
27154SOL     OW83903   1.888   3.196   6.152  0.1464 -0.3736  0.4250
27154SOL    HW183904   1.855   3.282   6.125  1.3695 -0.1045 -0.2929
27154SOL    HW283905   1.901   3.149   6.070 -1.0720 -1.4881  0.8377
27155SOL     OW83906   7.751   5.157   1.331  0.6151  0.1770 -0.0121
27155SOL    HW183907   7.696   5.096   1.282 -0.0230 -0.3468  1.3058
27155SOL    HW283908   7.772   5.226   1.268 -3.1861  1.4507 -0.1402
27156SOL     OW83909   0.481   9.523   0.486  0.1095  0.1457 -0.3211
27156SOL    HW183910   0.547   9.454   0.494 -1.2960 -1.1661  0.7319
27156SOL    HW283911   0.411   9.483   0.434 -0.8892  0.6289  0.6063
27157SOL     OW83912   4.498   0.031   3.786 -0.4218  0.1140 -0.2293
27157SOL    HW183913   4.563   0.100   3.801 -0.0258 -0.5981  1.6055
27157SOL    HW283914   4.506   0.010   3.693 -0.3940  2.3469 -0.7769
27158SOL     OW83915   0.009   3.506   9.481  0.3120  0.2718 -0.8482
27158SOL    HW183916  -0.007   3.412   9.491 -2.2585  0.7587  0.4061
27158SOL    HW283917   0.074   3.511   9.411  0.5147 -2.4178 -0.9894
27159SOL     OW83918   8.135   9.996   3.901 -0.6030  0.3690 -0.5088
27159SOL    HW183919   8.115  10.072   3.846  0.7549  1.4549  0.4469
27159SOL    HW283920   8.137  10.030   3.990 -2.6031 -1.3313  0.2735
27160SOL     OW83921  10.296   2.844   0.489  0.4111 -0.1020  0.3348
27160SOL    HW183922  10.387   2.815   0.485  0.0431 -1.1587 -1.8783
27160SOL    HW283923  10.259   2.798   0.564  1.9173  1.1805  1.9421
27161SOL     OW83924   3.404   9.255   4.482  0.4930  0.0328  0.0124
27161SOL    HW183925   3.475   9.256   4.418  0.5363  0.2032  0.0609
27161SOL    HW283926   3.394   9.347   4.508  1.2177 -0.1614  1.0616
27162SOL     OW83927   8.492   4.322   0.729 -0.4912  0.5682 -0.2856
27162SOL    HW183928   8.490   4.330   0.824 -1.3156  0.7722 -0.3041
27162SOL    HW283929   8.506   4.229   0.712 -1.8836  0.2637  0.0683
27163SOL     OW83930   9.383   4.277   3.166  0.1384  0.1768 -0.3097
27163SOL    HW183931   9.320   4.208   3.145  0.6853 -1.2131  2.1626
27163SOL    HW283932   9.329   4.352   3.193 -0.4553 -0.1854 -0.4832
27164SOL     OW83933   1.487   9.001   6.234  0.0248  0.5043 -0.2325
27164SOL    HW183934   1.579   9.005   6.258 -0.0093 -2.0356  0.6774
27164SOL    HW283935   1.443   8.966   6.312 -1.2186 -1.0139 -1.5328
27165SOL     OW83936   0.575   3.868   4.202 -0.1419  0.0273  0.2927
27165SOL    HW183937   0.570   3.868   4.298  2.1205 -0.2788  0.4551
27165SOL    HW283938   0.664   3.898   4.182 -0.4850 -0.1469 -1.7219
27166SOL     OW83939   6.355   9.721   7.250  0.0216  0.1332  0.1918
27166SOL    HW183940   6.297   9.738   7.177  0.9322 -1.2237 -0.8989
27166SOL    HW283941   6.399   9.639   7.227  3.1717  1.6199  0.4126
27167SOL     OW83942   4.110   4.328   2.923  0.8175  0.3403  0.3514
27167SOL    HW183943   4.035   4.334   2.983  1.0616  0.9096  0.6017
27167SOL    HW283944   4.101   4.404   2.865  1.8951  1.1217  1.1886
27168SOL     OW83945   8.405   0.980   6.411 -0.3887  0.1942  0.5397
27168SOL    HW183946   8.397   0.989   6.316 -1.8702 -2.5056  0.3109
27168SOL    HW283947   8.496   0.952   6.425 -0.3755 -0.1132 -0.1511
27169SOL     OW83948   6.912   1.234   1.278  0.0523 -0.0176  0.8226
27169SOL    HW183949   6.844   1.293   1.248 -2.1420 -1.8919  1.8330
27169SOL    HW283950   6.952   1.279   1.352 -0.5136  0.8306  0.6221
27170SOL     OW83951   7.445   9.355   7.149 -0.4021 -0.0810 -0.3450
27170SOL    HW183952   7.434   9.393   7.236 -1.0608  2.0705 -1.2972
27170SOL    HW283953   7.539   9.362   7.132 -0.6740  2.8620 -1.1481
27171SOL     OW83954   9.103  10.385   4.784 -0.4969  0.0651 -0.3982
27171SOL    HW183955   9.099  10.361   4.877 -0.9655  0.0641 -0.4148
27171SOL    HW283956   9.124  10.478   4.784  0.5186 -0.1584 -0.3149
27172SOL     OW83957   7.573   7.275   3.290 -0.6099 -0.0978  0.0324
27172SOL    HW183958   7.608   7.362   3.307 -1.8693  0.2663  0.9591
27172SOL    HW283959   7.487   7.290   3.250 -1.2677 -0.8579  1.0759
27173SOL     OW83960   7.452   9.465   5.675  0.3823 -0.3718 -0.2049
27173SOL    HW183961   7.359   9.452   5.658  0.0510  2.2391 -0.8076
27173SOL    HW283962   7.467   9.426   5.761 -1.5265  0.1063  0.3862
27174SOL     OW83963   3.533   3.692   2.560 -0.0142 -0.5632  0.7073
27174SOL    HW183964   3.474   3.753   2.515 -0.2705 -0.6187  0.9650
27174SOL    HW283965   3.475   3.628   2.601  0.2483 -0.9145  0.5396
27175SOL     OW83966   0.092   2.416   7.502  0.0105  0.1451 -0.2231
27175SOL    HW183967   0.034   2.361   7.554  1.1266  0.1914  1.1442
27175SOL    HW283968   0.138   2.355   7.445 -0.4243 -0.0512 -0.3689
27176SOL     OW83969   0.761   0.982   9.790 -0.0287  0.4126  0.4762
27176SOL    HW183970   0.771   0.888   9.774  0.8647  0.7089 -0.8886
27176SOL    HW283971   0.777   0.992   9.884 -1.8859 -0.9888  1.0034
27177SOL     OW83972   3.476   4.364   8.570  0.3309 -0.0867  0.5079
27177SOL    HW183973   3.412   4.349   8.639  0.0091  0.3528  0.3059
27177SOL    HW283974   3.559   4.377   8.617 -0.1154  1.4946  0.8924
27178SOL     OW83975   5.415   5.227   8.449 -0.3801 -0.1061  0.8136
27178SOL    HW183976   5.388   5.315   8.422 -1.1006 -0.8671 -1.1340
27178SOL    HW283977   5.381   5.217   8.538 -1.9295  0.9102  0.3652
27179SOL     OW83978   7.697   8.460   0.642  0.0276 -0.3807 -0.1395
27179SOL    HW183979   7.789   8.456   0.668 -0.0927 -1.2142  0.1855
27179SOL    HW283980   7.648   8.435   0.720 -0.4048 -1.3704 -0.7103
27180SOL     OW83981   7.550   8.391   3.063 -0.4000  0.6415  0.3591
27180SOL    HW183982   7.637   8.356   3.044 -0.7240  0.6759 -1.3877
27180SOL    HW283983   7.494   8.313   3.070 -0.8990  0.6284 -2.3722
27181SOL     OW83984   9.633   1.555   8.596 -0.3937 -0.1102  0.3387
27181SOL    HW183985   9.710   1.593   8.638 -0.4724  2.0813 -1.3015
27181SOL    HW283986   9.603   1.488   8.657  2.6035 -0.8413  1.1724
27182SOL     OW83987   0.131   2.459  10.323  0.5602  0.0273  0.4927
27182SOL    HW183988   0.176   2.462  10.239 -0.1510  1.0102  0.1393
27182SOL    HW283989   0.135   2.549  10.356 -1.4760  0.2571  0.2541
27183SOL     OW83990   0.868   1.560   8.396 -0.1040  0.0632 -0.2225
27183SOL    HW183991   0.776   1.534   8.400 -0.0093 -0.4274 -0.9816
27183SOL    HW283992   0.916   1.478   8.406  0.2399  0.2407 -0.3961
27184SOL     OW83993   2.446   4.053   6.827 -0.1813 -0.8045  0.2557
27184SOL    HW183994   2.392   3.981   6.860 -0.0447 -0.6302  0.8828
27184SOL    HW283995   2.469   4.028   6.738 -1.3463 -0.8514 -0.0384
27185SOL     OW83996   1.575   8.778   5.467  0.1692 -0.1275 -0.3295
27185SOL    HW183997   1.582   8.717   5.394 -0.7437 -0.5457 -0.0886
27185SOL    HW283998   1.643   8.844   5.450  0.7718 -0.8788 -0.9015
27186SOL     OW83999   1.215   8.674   2.513  0.4277  0.2812 -0.1436
27186SOL    HW184000   1.136   8.711   2.554 -0.2276 -0.7672 -0.4239
27186SOL    HW284001   1.286   8.727   2.547 -0.2012  0.0684  1.5914
27187SOL     OW84002   8.031   7.117   7.774  0.3718  0.0742 -0.8095
27187SOL    HW184003   7.958   7.118   7.712 -0.9085  1.3043  0.6517
27187SOL    HW284004   8.098   7.172   7.732  0.1093 -0.2849 -1.7329
27188SOL     OW84005   2.827   9.162   5.543  0.5848 -0.0668 -0.5888
27188SOL    HW184006   2.844   9.214   5.465  1.0083 -1.6401 -1.5884
27188SOL    HW284007   2.896   9.096   5.545 -0.0930 -0.7965  0.4571
27189SOL     OW84008   8.767  10.240   7.945  0.5972  0.1569  0.2245
27189SOL    HW184009   8.729  10.194   7.870  1.6659  3.5423 -2.6145
27189SOL    HW284010   8.860  10.221   7.940  0.8784  1.5763 -0.2491
27190SOL     OW84011   0.209   9.629   4.596  0.0832  0.5663  0.1737
27190SOL    HW184012   0.222   9.719   4.567  2.5210 -0.2946 -1.7364
27190SOL    HW284013   0.169   9.585   4.521  0.8370 -0.3882  0.3140
27191SOL     OW84014  10.339   2.899   3.881 -0.3851 -0.0173  0.2850
27191SOL    HW184015  10.270   2.905   3.947 -0.2864 -0.7908  0.4636
27191SOL    HW284016  10.406   2.843   3.921  1.4327  2.5269  1.0441
27192SOL     OW84017   8.292   5.255   8.074 -0.3350 -0.2733 -0.1784
27192SOL    HW184018   8.285   5.177   8.129 -0.7513  0.0031  0.1682
27192SOL    HW284019   8.242   5.322   8.121 -0.8296 -0.0737 -0.9625
27193SOL     OW84020   4.152   7.045   1.292 -0.1862  0.6228 -0.4693
27193SOL    HW184021   4.198   6.965   1.314 -0.6759  0.1801 -1.0186
27193SOL    HW284022   4.173   7.106   1.363  0.5824  0.1716 -0.3059
27194SOL     OW84023   7.614   5.918   0.912 -0.5165  0.0529  0.3957
27194SOL    HW184024   7.614   5.866   0.832  0.1530  1.3388 -0.4822
27194SOL    HW284025   7.528   5.959   0.915 -0.4046  0.3147  0.1091
27195SOL     OW84026   2.847   0.913   6.740 -0.2030 -0.0792  0.4928
27195SOL    HW184027   2.796   0.991   6.715  1.3766  1.1357  0.9391
27195SOL    HW284028   2.829   0.850   6.670 -1.4469  0.6966  0.0725
27196SOL     OW84029   5.939   8.515   9.929  0.0136  0.1615 -0.1811
27196SOL    HW184030   5.889   8.594   9.950  0.7579  0.5516  0.1351
27196SOL    HW284031   6.029   8.536   9.953 -0.0496 -1.4541  1.7884
27197SOL     OW84032   6.822   1.464   3.373 -0.4201 -0.1988 -0.5795
27197SOL    HW184033   6.886   1.395   3.355 -1.3683 -1.8224  1.7475
27197SOL    HW284034   6.875   1.543   3.384  1.2253 -1.4245  0.9479
27198SOL     OW84035   4.578   2.339   2.769  0.2046 -0.8294  0.3795
27198SOL    HW184036   4.560   2.426   2.804  0.1493 -1.0230  0.8360
27198SOL    HW284037   4.543   2.279   2.834  1.1019 -1.2000  0.5339
27199SOL     OW84038   8.594   8.627   5.520  0.3820  0.0674 -0.5336
27199SOL    HW184039   8.687   8.648   5.526  0.2274  0.9825 -1.2462
27199SOL    HW284040   8.552   8.685   5.584  0.3067 -0.4478 -0.1058
27200SOL     OW84041   4.071   3.850   5.771 -0.2758 -0.3040  0.1737
27200SOL    HW184042   4.007   3.907   5.812  0.0304  0.4094 -0.3063
27200SOL    HW284043   4.060   3.765   5.814 -1.2128 -0.0676  0.4123
27201SOL     OW84044   5.796   2.113   5.643 -0.4740  0.2246 -0.0348
27201SOL    HW184045   5.845   2.036   5.614 -0.3986  0.7077 -1.2628
27201SOL    HW284046   5.776   2.096   5.735  2.5513  0.2842  0.7339
27202SOL     OW84047   6.101   6.320   3.050  0.5364  0.3288 -0.3246
27202SOL    HW184048   6.007   6.337   3.061  0.0013 -0.6060 -2.6810
27202SOL    HW284049   6.124   6.260   3.121 -1.0088 -0.4680 -0.4503
27203SOL     OW84050   4.787   1.031   6.420 -0.3760 -0.5480 -0.9350
27203SOL    HW184051   4.849   0.958   6.430 -0.1929 -0.4283 -1.2017
27203SOL    HW284052   4.812   1.093   6.488  0.9877  0.3487 -2.2096
27204SOL     OW84053   0.707   5.077   6.782  0.0831  0.1056  0.2155
27204SOL    HW184054   0.729   5.094   6.873  0.0927  1.3776  0.0012
27204SOL    HW284055   0.791   5.086   6.735 -0.0135 -0.0024  0.0203
27205SOL     OW84056   8.861   8.306   2.928  0.4826  0.6681  0.4898
27205SOL    HW184057   8.903   8.273   2.849 -1.0973  2.5591 -1.2667
27205SOL    HW284058   8.915   8.274   3.000  2.4719 -0.4282 -1.3916
27206SOL     OW84059   3.993   9.498   9.689  0.1987 -0.2891  0.0698
27206SOL    HW184060   4.006   9.538   9.603  0.1445  0.8758  0.5960
27206SOL    HW284061   3.899   9.509   9.706  0.1338 -0.8690  0.1183
27207SOL     OW84062   1.013   9.941   4.808  0.2376 -0.0017  0.1679
27207SOL    HW184063   0.936   9.884   4.811  0.6771 -0.5943  0.3923
27207SOL    HW284064   1.087   9.881   4.810  0.7132  0.5842  0.3496
27208SOL     OW84065  10.158   1.446   0.284  0.7885  0.2836  0.2215
27208SOL    HW184066  10.215   1.487   0.219  0.4474  0.3294 -0.0536
27208SOL    HW284067  10.142   1.358   0.251  1.5364 -0.0848  0.8242
27209SOL     OW84068   3.200   4.905   3.389  0.2639  0.7777  0.4727
27209SOL    HW184069   3.121   4.920   3.338 -0.4327  0.9031  1.5570
27209SOL    HW284070   3.259   4.858   3.330 -1.3085 -0.9763  0.2239
27210SOL     OW84071   9.116   1.643   0.667  0.1745  0.2555 -0.3783
27210SOL    HW184072   9.166   1.712   0.712 -0.3896  1.0018 -0.8619
27210SOL    HW284073   9.044   1.624   0.727 -0.8314  1.5691 -1.1138
27211SOL     OW84074   3.159   2.744   4.403  0.6402  0.3421  0.4895
27211SOL    HW184075   3.188   2.670   4.349 -2.0830  0.0772 -0.8095
27211SOL    HW284076   3.145   2.706   4.490  0.0191 -0.5200  0.0314
27212SOL     OW84077   6.176   8.525   2.716 -0.6750  0.3033 -0.2690
27212SOL    HW184078   6.224   8.481   2.646  1.0635  0.8082  0.5419
27212SOL    HW284079   6.244   8.566   2.769 -2.0372  1.1148  0.9182
27213SOL     OW84080   7.522   4.073   7.720 -0.3297  0.2879  0.3793
27213SOL    HW184081   7.521   4.017   7.642 -1.9100  2.7752 -1.5147
27213SOL    HW284082   7.600   4.127   7.710  0.0342 -0.0897  1.0991
27214SOL     OW84083   5.375   7.835   8.880 -0.5857  0.0343  0.4467
27214SOL    HW184084   5.390   7.929   8.876 -1.8330  0.2069 -2.0092
27214SOL    HW284085   5.456   7.799   8.915  0.6109  1.8706 -0.3000
27215SOL     OW84086   5.878   6.505   0.454  0.0846 -0.3059 -0.1844
27215SOL    HW184087   5.852   6.557   0.378 -1.1276  1.0274  1.1044
27215SOL    HW284088   5.927   6.566   0.509 -0.4998 -0.7749  0.8820
27216SOL     OW84089   8.165   4.870   7.603 -0.1573  1.0309  0.0419
27216SOL    HW184090   8.112   4.941   7.638 -1.3730 -0.6876  1.8938
27216SOL    HW284091   8.102   4.803   7.577  0.9727  0.4087 -1.2666
27217SOL     OW84092   4.594   7.691   1.280  0.4206 -0.2765 -0.2607
27217SOL    HW184093   4.602   7.740   1.362  1.9417  1.4240 -1.3457
27217SOL    HW284094   4.591   7.599   1.306 -0.8458  0.2788  1.7631
27218SOL     OW84095   1.897   8.176   6.643 -0.1171 -0.1322 -0.3191
27218SOL    HW184096   1.954   8.142   6.574  1.4777 -0.7506  1.2335
27218SOL    HW284097   1.872   8.264   6.612  0.5408 -0.3918 -1.6761
27219SOL     OW84098   0.604  10.274   4.347  0.4391 -0.2525 -0.3823
27219SOL    HW184099   0.564  10.325   4.418 -0.9110 -0.2242 -1.1308
27219SOL    HW284100   0.606  10.334   4.272  3.2102  0.2081 -0.0339
27220SOL     OW84101   7.021   5.453   9.500  0.3605 -0.2264 -0.3543
27220SOL    HW184102   6.959   5.514   9.462 -0.5412 -1.1966 -0.5007
27220SOL    HW284103   7.106   5.494   9.488 -0.2386  1.1158 -0.1951
27221SOL     OW84104   7.373   4.487   1.746 -0.0110 -0.0892  0.5102
27221SOL    HW184105   7.455   4.513   1.704 -0.0206 -0.1296  0.4660
27221SOL    HW284106   7.324   4.569   1.755 -0.4457 -0.2256 -0.5148
27222SOL     OW84107   3.814   0.518   7.787 -0.2304 -0.2694 -0.3326
27222SOL    HW184108   3.818   0.429   7.821 -0.4000  0.1142  0.7195
27222SOL    HW284109   3.720   0.534   7.773 -0.2161 -0.1866 -0.3347
27223SOL     OW84110   8.303   7.035   5.793  0.2592 -0.3168  0.0049
27223SOL    HW184111   8.315   7.119   5.748  2.0501  0.8668  2.4799
27223SOL    HW284112   8.364   6.976   5.750 -1.5357 -0.6888 -2.2572
27224SOL     OW84113   8.223  10.046   8.073 -0.2136  0.1188  0.2860
27224SOL    HW184114   8.196   9.955   8.085  1.1982 -0.4052 -0.2949
27224SOL    HW284115   8.211  10.086   8.159  0.5016 -0.9922  0.9224
27225SOL     OW84116   2.670   7.359   4.364 -0.1645  0.3303 -0.2648
27225SOL    HW184117   2.710   7.431   4.411 -0.6218  0.0034  0.6534
27225SOL    HW284118   2.687   7.282   4.418 -1.6927  0.1239 -0.0143
27226SOL     OW84119   5.240   5.678   3.285  0.2703  0.3433 -0.3637
27226SOL    HW184120   5.307   5.681   3.216 -0.7853  1.0152 -1.4034
27226SOL    HW284121   5.261   5.753   3.340  0.0850  0.8563 -0.9764
27227SOL     OW84122  10.350   7.581  10.066 -0.6488 -0.8169 -0.4212
27227SOL    HW184123  10.414   7.651  10.079 -0.7027 -0.7849 -0.3254
27227SOL    HW284124  10.401   7.500  10.065 -0.6678 -0.8395  0.2226
27228SOL     OW84125   3.709   9.590   9.971  0.3002  0.0785  0.0334
27228SOL    HW184126   3.754   9.663   9.929 -0.2415  0.4185  0.0292
27228SOL    HW284127   3.764   9.568  10.047  1.2587 -0.5078 -0.7979
27229SOL     OW84128   3.186   5.058   2.914  0.1052 -0.3678  0.3650
27229SOL    HW184129   3.125   5.093   2.978  1.3688 -0.5498  1.7285
27229SOL    HW284130   3.259   5.121   2.913  0.2035 -0.4787 -0.7460
27230SOL     OW84131   0.177   6.663   2.287 -0.8006  0.0466  0.4388
27230SOL    HW184132   0.181   6.713   2.205 -1.3011  0.3190  0.5771
27230SOL    HW284133   0.208   6.575   2.262  0.3951  0.4988  0.2686
27231SOL     OW84134   8.097   5.341   9.225 -0.3689 -0.1754  0.2800
27231SOL    HW184135   8.052   5.320   9.143 -0.4239  0.6383  0.1014
27231SOL    HW284136   8.036   5.395   9.274  0.5445  1.2804 -0.1315
27232SOL     OW84137   1.330   6.988   4.870 -0.1114  0.5574 -0.2622
27232SOL    HW184138   1.330   7.084   4.868  0.7197  0.5743  0.1097
27232SOL    HW284139   1.354   6.965   4.960 -1.8877 -0.0190  0.0911
27233SOL     OW84140   2.548   8.292   6.599 -0.1609 -0.1505 -0.1622
27233SOL    HW184141   2.501   8.273   6.680 -1.5542 -1.1947 -1.1440
27233SOL    HW284142   2.640   8.275   6.620 -0.5641 -1.0320  1.0368
27234SOL     OW84143   7.570   0.053   2.460  0.0906 -0.3831  0.1719
27234SOL    HW184144   7.527  -0.027   2.431 -1.1014  0.6066 -0.9070
27234SOL    HW284145   7.582   0.104   2.380  2.7848 -0.3458  0.5026
27235SOL     OW84146   5.125   2.436   6.723 -0.4097 -0.1195 -0.5233
27235SOL    HW184147   5.115   2.464   6.813  1.5067  0.8305 -0.5557
27235SOL    HW284148   5.036   2.417   6.693 -1.0951 -0.2507  1.4774
27236SOL     OW84149   2.612   2.936   2.559  0.1328 -0.5484 -0.4286
27236SOL    HW184150   2.706   2.920   2.558  0.4260  0.9553 -1.8266
27236SOL    HW284151   2.592   2.955   2.650  1.8995  2.6394 -0.5726
27237SOL     OW84152   1.767   9.835   8.912 -0.0672 -0.2907  0.3094
27237SOL    HW184153   1.828   9.766   8.936 -1.6914 -1.6837  0.5646
27237SOL    HW284154   1.756   9.887   8.992  1.8636  0.8999 -0.1282
27238SOL     OW84155   1.805   6.624   1.146  0.0540  0.0246  0.3327
27238SOL    HW184156   1.805   6.703   1.198 -0.7193 -0.2045  0.6947
27238SOL    HW284157   1.862   6.563   1.193 -0.4913 -0.1166  0.8290
27239SOL     OW84158   6.266   6.974   8.928 -0.4033 -0.0579 -0.7119
27239SOL    HW184159   6.185   7.017   8.955 -1.2323 -2.5683  1.1132
27239SOL    HW284160   6.335   7.017   8.979 -0.9920  0.1198 -0.0563
27240SOL     OW84161   6.113   0.780   0.542 -0.3642 -0.2959 -0.2256
27240SOL    HW184162   6.093   0.752   0.452 -2.0787 -0.2928  0.1144
27240SOL    HW284163   6.072   0.866   0.549  0.2245 -0.0652  0.3976
27241SOL     OW84164   2.871   8.144   4.758  0.9349 -0.2539 -0.4346
27241SOL    HW184165   2.792   8.194   4.776  0.5565 -1.0733  0.1946
27241SOL    HW284166   2.932   8.209   4.722 -0.1776  0.2872 -1.4257
27242SOL     OW84167   4.829   4.431   1.590 -0.2518 -0.0053  0.3069
27242SOL    HW184168   4.771   4.505   1.604  0.1973  0.8060 -1.8028
27242SOL    HW284169   4.914   4.461   1.623 -0.5402 -0.4238  1.4727
27243SOL     OW84170   1.998  10.141   0.370 -0.4029 -0.2440 -0.5228
27243SOL    HW184171   2.019  10.048   0.357 -0.4800 -0.2021 -0.9459
27243SOL    HW284172   2.026  10.159   0.460  0.9760 -0.3028 -0.9171
27244SOL     OW84173   5.511   8.125   1.094 -0.1794  0.0458 -0.2102
27244SOL    HW184174   5.505   8.122   1.189  1.9754 -0.0482 -0.0316
27244SOL    HW284175   5.573   8.055   1.071 -0.9936 -0.2262 -1.7269
27245SOL     OW84176   1.378   0.214   2.940 -0.5475  0.3681  0.4439
27245SOL    HW184177   1.468   0.183   2.945 -0.2721  1.4229  3.3977
27245SOL    HW284178   1.339   0.161   2.869  1.9003 -1.2532  0.1903
27246SOL     OW84179   8.713  10.239   6.003 -0.4517  0.1412  0.0845
27246SOL    HW184180   8.689  10.325   6.036  0.6892  0.7828 -0.7056
27246SOL    HW284181   8.800  10.222   6.038 -1.0526 -1.1367  1.0267
27247SOL     OW84182   2.742   0.595  10.049  0.7257 -0.2922 -0.0489
27247SOL    HW184183   2.766   0.671   9.996 -0.5856 -0.5784 -1.0885
27247SOL    HW284184   2.665   0.624  10.099  2.2228  0.1461  2.1709
27248SOL     OW84185   5.615   8.422   1.408 -0.0206 -0.1400 -0.4134
27248SOL    HW184186   5.564   8.352   1.448  0.5527 -1.0053 -1.1572
27248SOL    HW284187   5.701   8.414   1.448 -0.8740  2.5887  2.3658
27249SOL     OW84188  10.031   3.741   5.156 -0.2564 -0.4792 -0.2162
27249SOL    HW184189   9.989   3.826   5.140 -1.5494 -1.2170 -0.9913
27249SOL    HW284190  10.080   3.754   5.237 -1.3712  0.6892  0.3285
27250SOL     OW84191   7.486   1.395  10.070 -0.3932 -0.1592 -0.3708
27250SOL    HW184192   7.510   1.370  10.159 -0.2424  3.9537  0.9489
27250SOL    HW284193   7.568   1.386  10.020  0.2751  0.2900  0.6194
27251SOL     OW84194   0.284   6.310   4.804  0.2825  0.3692 -0.0153
27251SOL    HW184195   0.236   6.229   4.781 -0.8258  0.5931  1.4068
27251SOL    HW284196   0.234   6.347   4.876  0.1583  2.9101 -1.3059
27252SOL     OW84197   9.569   6.374   7.037  0.4152 -0.2732 -0.1989
27252SOL    HW184198   9.547   6.467   7.038 -0.2611 -0.3904  1.8492
27252SOL    HW284199   9.611   6.359   7.122 -1.3061 -2.2079  0.4080
27253SOL     OW84200   4.733   2.105   4.224 -0.2094  0.1818 -0.9507
27253SOL    HW184201   4.662   2.048   4.253 -0.3709  0.5655 -0.5896
27253SOL    HW284202   4.806   2.045   4.205  0.2318 -0.0375  1.1572
27254SOL     OW84203   7.946   3.766   6.922 -0.1115  0.4233 -0.2478
27254SOL    HW184204   7.901   3.688   6.956  0.4401 -0.2170 -0.9356
27254SOL    HW284205   7.903   3.784   6.839 -1.8693  2.3573  0.9937
27255SOL     OW84206   1.667   9.794   5.686 -0.5568 -0.2491 -0.0240
27255SOL    HW184207   1.652   9.701   5.669  0.4707 -0.7932  1.8643
27255SOL    HW284208   1.633   9.809   5.774 -0.4480  1.1089 -0.1832
27256SOL     OW84209   9.484   1.186   9.548  0.1102 -0.3814 -0.2693
27256SOL    HW184210   9.534   1.244   9.491 -0.0587 -2.7301 -3.0218
27256SOL    HW284211   9.407   1.162   9.496 -0.2773 -2.3101  1.0836
27257SOL     OW84212   1.120   3.331   3.604  0.1854  0.1630 -0.4407
27257SOL    HW184213   1.161   3.358   3.522  1.2382  0.8115  0.2777
27257SOL    HW284214   1.027   3.320   3.582  0.5799 -0.4529 -1.8883
27258SOL     OW84215  10.057   2.246   5.820 -0.2907  0.1629 -0.5323
27258SOL    HW184216  10.032   2.196   5.898  1.5834 -0.6779 -0.3957
27258SOL    HW284217  10.121   2.190   5.776  0.2323  1.5201 -1.5739
27259SOL     OW84218   5.924   6.477   7.464  0.2577 -0.1030  0.2604
27259SOL    HW184219   5.881   6.496   7.380 -0.2827 -0.5077  0.4385
27259SOL    HW284220   5.881   6.397   7.495 -1.0231  1.1351  1.8986
27260SOL     OW84221   6.434   2.967   2.102  0.0407 -0.4405  0.5731
27260SOL    HW184222   6.487   3.046   2.110  0.8694 -0.6572 -1.9341
27260SOL    HW284223   6.482   2.901   2.153 -1.3400  0.8481  3.8158
27261SOL     OW84224   9.835   2.989   4.733  0.3585  0.0673 -0.0896
27261SOL    HW184225   9.835   2.923   4.664 -2.4410 -0.8278  0.6283
27261SOL    HW284226   9.746   3.022   4.734  1.3781  3.1108  0.3772
27262SOL     OW84227   0.515   6.706   9.093 -0.0366  0.3752 -0.1092
27262SOL    HW184228   0.542   6.797   9.100 -2.8390  1.3038  0.0375
27262SOL    HW284229   0.490   6.681   9.182 -1.7290  0.3845 -0.5368
27263SOL     OW84230   2.619   0.981   6.996 -0.3109 -0.2440 -0.4633
27263SOL    HW184231   2.559   0.959   7.068 -0.5756 -0.9474 -0.8880
27263SOL    HW284232   2.575   1.051   6.948 -1.8564 -2.2200 -2.0583
27264SOL     OW84233  10.133   8.128   9.190  0.2235 -0.4811  0.1689
27264SOL    HW184234  10.109   8.039   9.216 -2.2864  0.3511  0.9754
27264SOL    HW284235  10.089   8.142   9.107 -1.4791  0.7867  1.2323
27265SOL     OW84236  10.135   3.945   6.617 -0.7133  0.2087  0.3258
27265SOL    HW184237  10.203   3.897   6.570 -1.1795 -0.2949  0.1500
27265SOL    HW284238  10.182   3.995   6.683  0.0394  1.5254 -1.1527
27266SOL     OW84239   5.844   3.923   7.040  0.3592 -0.4215 -0.6019
27266SOL    HW184240   5.896   3.875   6.975  0.1725  0.3066 -1.3053
27266SOL    HW284241   5.753   3.904   7.017  0.2698 -2.2513  1.0498
27267SOL     OW84242   0.925   8.425   0.357  0.4596  0.6875 -0.1943
27267SOL    HW184243   0.926   8.350   0.416  1.6893  1.0815  0.3306
27267SOL    HW284244   0.840   8.422   0.314 -0.2834  0.1238  1.2687
27268SOL     OW84245   0.813   9.893  10.300 -0.0532 -0.1664 -0.4955
27268SOL    HW184246   0.790   9.846  10.380  0.0129  0.1387 -0.2952
27268SOL    HW284247   0.729   9.918  10.261 -0.0960 -0.6336 -0.7180
27269SOL     OW84248   5.497   2.676  10.366  0.9792 -0.0987 -0.6688
27269SOL    HW184249   5.476   2.725  10.445  2.2623 -0.8580  0.1790
27269SOL    HW284250   5.575   2.720  10.331  0.0556  0.6249 -1.8876
27270SOL     OW84251   5.088   4.364   0.646 -0.0232 -0.4141  0.8563
27270SOL    HW184252   5.068   4.429   0.579  1.1895 -1.9538 -1.1103
27270SOL    HW284253   5.008   4.314   0.657 -0.4683  0.3475  1.2063
27271SOL     OW84254   0.936   8.841   8.304 -0.2095 -0.1617  0.4922
27271SOL    HW184255   1.014   8.798   8.339  1.3471  1.4665 -0.7907
27271SOL    HW284256   0.873   8.837   8.376  0.6590 -2.4152  1.2249
27272SOL     OW84257   2.960   5.444   4.098  1.0534 -0.1324 -0.2457
27272SOL    HW184258   2.937   5.352   4.107  2.4752 -0.5374 -0.4543
27272SOL    HW284259   3.025   5.459   4.167  1.1872  0.5785 -0.5192
27273SOL     OW84260   4.707   8.854   4.409 -0.2099  0.4062  0.8025
27273SOL    HW184261   4.693   8.915   4.337  0.7039 -1.4640 -1.0890
27273SOL    HW284262   4.802   8.845   4.415 -0.3144 -0.8563  0.9506
27274SOL     OW84263   8.568   5.512   8.416 -0.2117  0.0387 -0.5547
27274SOL    HW184264   8.514   5.538   8.491  1.7510  0.1037  0.8982
27274SOL    HW284265   8.550   5.419   8.404  0.0139 -0.1500  0.4958
27275SOL     OW84266   5.637   6.292   4.186  0.2147  0.4756 -0.6560
27275SOL    HW184267   5.594   6.232   4.125 -0.5289  0.6324 -0.2968
27275SOL    HW284268   5.595   6.274   4.270 -0.3899  1.8471 -0.6418
27276SOL     OW84269   4.011   2.534   0.803  0.0230  0.5562  0.0846
27276SOL    HW184270   4.035   2.563   0.891  0.0713 -0.9174  0.5989
27276SOL    HW284271   4.072   2.462   0.785  0.4528  1.2690 -1.4438
27277SOL     OW84272   3.229   9.762   3.812  0.0970 -0.3401 -0.2883
27277SOL    HW184273   3.160   9.828   3.802  2.5311  2.4104 -0.0723
27277SOL    HW284274   3.258   9.744   3.723 -0.5026 -1.1289 -0.3396
27278SOL     OW84275   1.237   2.715   6.818 -0.6521 -0.0748 -0.1944
27278SOL    HW184276   1.192   2.648   6.766 -0.1257  1.2792 -2.5580
27278SOL    HW284277   1.307   2.746   6.760  0.9254  0.5346  1.9235
27279SOL     OW84278   1.402   1.385   3.098 -0.0145  0.3893 -0.3026
27279SOL    HW184279   1.366   1.474   3.099  1.1357  0.8820 -0.2248
27279SOL    HW284280   1.425   1.369   3.007 -3.9911 -1.5066 -1.1967
27280SOL     OW84281   2.646   3.549   6.632  0.0269  0.0462 -0.0617
27280SOL    HW184282   2.570   3.524   6.580 -0.4895  0.9611  0.2271
27280SOL    HW284283   2.721   3.535   6.574 -0.5417  1.0376 -1.0731
27281SOL     OW84284   0.493   5.582   3.564 -0.1490 -0.0427 -0.0455
27281SOL    HW184285   0.447   5.666   3.571  0.5944  0.2994  0.9963
27281SOL    HW284286   0.430   5.518   3.597 -0.8486  0.0352 -1.1675
27282SOL     OW84287   8.167   6.651   9.525 -0.0879  0.1379 -0.0245
27282SOL    HW184288   8.221   6.641   9.447 -0.7033  1.0198 -0.5888
27282SOL    HW284289   8.213   6.718   9.577  0.8224 -1.1238  0.8418
27283SOL     OW84290  10.203   1.906   2.862  0.0760  0.5048  0.2997
27283SOL    HW184291  10.236   1.955   2.787  2.1097 -1.2892 -0.0757
27283SOL    HW284292  10.132   1.852   2.826  2.5128 -2.0509 -0.9825
27284SOL     OW84293   3.412   4.553   4.537 -0.1542  0.2515  0.4859
27284SOL    HW184294   3.469   4.517   4.469  1.6768  1.6115  1.2060
27284SOL    HW284295   3.333   4.581   4.490  0.8519  0.6808 -1.0236
27285SOL     OW84296   9.389   9.057   3.811  0.4281 -0.1335  0.4652
27285SOL    HW184297   9.300   9.022   3.811  0.8922 -1.4855 -1.0000
27285SOL    HW284298   9.401   9.094   3.898 -0.8809 -1.7301  1.3817
27286SOL     OW84299   1.567   9.859   6.924  0.2718  0.2585 -0.2219
27286SOL    HW184300   1.501   9.839   6.858  0.3789 -0.9066  0.0025
27286SOL    HW284301   1.612   9.776   6.940  0.6873  0.6583  0.8368
27287SOL     OW84302   5.363  10.196   3.503  0.3359  0.0367  0.0870
27287SOL    HW184303   5.418  10.126   3.467 -0.3584 -0.8971  0.8111
27287SOL    HW284304   5.275  10.175   3.473 -0.4091 -1.1731  2.8199
27288SOL     OW84305   4.442   7.399   5.995 -0.1232  0.4095 -0.7944
27288SOL    HW184306   4.478   7.440   5.916  0.2938 -1.1745 -1.4815
27288SOL    HW284307   4.504   7.423   6.064  1.4166 -0.8979 -1.6409
27289SOL     OW84308   4.832  10.142   2.888 -0.2091 -0.6743  0.0666
27289SOL    HW184309   4.757  10.147   2.947 -0.8847  0.5144 -0.8418
27289SOL    HW284310   4.804  10.189   2.809  1.1081 -1.1425 -0.7249
27290SOL     OW84311   7.032   4.076   0.463 -0.4048  0.1562  0.4499
27290SOL    HW184312   7.036   4.008   0.531 -0.3601  0.4537  0.7498
27290SOL    HW284313   7.034   4.159   0.512 -2.5693  0.4013  0.2283
27291SOL     OW84314   8.168   9.976   5.769  0.1931  0.1242  0.3488
27291SOL    HW184315   8.206   9.888   5.779  0.8035  0.3235 -0.1487
27291SOL    HW284316   8.211  10.027   5.838  0.1503  0.1380  0.3650
27292SOL     OW84317   7.082   9.407   7.791 -0.1077  0.1338  0.1259
27292SOL    HW184318   7.003   9.366   7.827 -0.2113  0.7568  0.6393
27292SOL    HW284319   7.148   9.396   7.860  0.3592 -0.6731 -0.4349
27293SOL     OW84320   8.780   0.901   4.127  0.1723 -0.3044 -0.1902
27293SOL    HW184321   8.801   0.982   4.079 -1.9916 -0.2260 -1.0993
27293SOL    HW284322   8.686   0.889   4.114 -0.0456 -1.6050  2.0853
27294SOL     OW84323   1.476   4.421   9.668 -0.0660  0.7237 -0.1572
27294SOL    HW184324   1.393   4.389   9.632  0.3930 -0.3879 -0.2610
27294SOL    HW284325   1.512   4.478   9.600 -1.4997  2.5856  0.5337
27295SOL     OW84326   1.273   4.078   1.651  0.0533 -0.2041 -0.5768
27295SOL    HW184327   1.339   4.099   1.716  0.8386 -0.4630 -1.2744
27295SOL    HW284328   1.253   3.985   1.666 -1.8609  0.3936  1.1160
27296SOL     OW84329   4.697   7.785   3.914 -0.6052 -0.1177  0.1448
27296SOL    HW184330   4.750   7.861   3.889 -0.9593  1.5608  3.7881
27296SOL    HW284331   4.756   7.710   3.904  1.7797  1.3987  1.7895
27297SOL     OW84332   4.619   8.451   0.982 -0.1769 -0.3195  0.1503
27297SOL    HW184333   4.620   8.544   1.004 -0.0221 -0.0110 -1.0991
27297SOL    HW284334   4.562   8.411   1.048  0.5074  0.4992  1.2716
27298SOL     OW84335   1.224  10.287   0.114  0.5034  0.1779 -0.0455
27298SOL    HW184336   1.320  10.278   0.112  0.4470 -0.3947 -0.1509
27298SOL    HW284337   1.191  10.198   0.125  0.0240  0.5490  1.8681
27299SOL     OW84338   7.007   5.561   1.213 -0.3552  0.1307  0.5271
27299SOL    HW184339   6.959   5.487   1.177 -0.9887  0.6105  0.3635
27299SOL    HW284340   7.100   5.537   1.205 -0.5149 -0.0848 -0.7291
27300SOL     OW84341   4.216   9.374   6.007 -0.0887 -0.2409  0.6044
27300SOL    HW184342   4.302   9.354   6.044  0.3850 -1.7233 -1.1384
27300SOL    HW284343   4.222   9.344   5.916 -2.5766 -0.7301  0.5381
27301SOL     OW84344   1.789   3.353   8.896  0.2844 -0.4796 -0.5135
27301SOL    HW184345   1.834   3.293   8.837  0.1367 -1.2981  0.1916
27301SOL    HW284346   1.696   3.339   8.879  0.2361 -0.9275  0.1208
27302SOL     OW84347   0.473   8.152   1.845 -0.2981  0.0107  0.2835
27302SOL    HW184348   0.378   8.148   1.855 -0.2392 -0.8995  0.5187
27302SOL    HW284349   0.507   8.101   1.918  0.4337  1.5912  1.1070
27303SOL     OW84350   4.931   4.860   7.243  0.3281  0.2982  0.1198
27303SOL    HW184351   4.874   4.882   7.316  1.1437 -0.3548  0.9835
27303SOL    HW284352   4.949   4.766   7.254  0.8675  0.3029 -0.6280
27304SOL     OW84353   6.718   6.661   6.879 -0.1536  0.0432 -0.0464
27304SOL    HW184354   6.679   6.574   6.868  1.7552 -0.6146 -2.3127
27304SOL    HW284355   6.807   6.645   6.909  0.1342  1.2275 -0.2049
27305SOL     OW84356   1.438   0.462   7.845  0.0523  0.3150  0.5413
27305SOL    HW184357   1.500   0.445   7.917 -0.4824  1.0978  1.2050
27305SOL    HW284358   1.494   0.474   7.768  0.6378 -0.5085  0.8201
27306SOL     OW84359   3.255   2.964   4.806  0.2873 -0.0054 -0.4354
27306SOL    HW184360   3.283   2.891   4.750  0.1300  0.2979 -0.9206
27306SOL    HW284361   3.182   3.004   4.759  0.2777  0.3767 -0.1069
27307SOL     OW84362   6.976   8.691   6.206 -0.0780  0.9060  0.4539
27307SOL    HW184363   7.066   8.659   6.209 -0.0532  0.3948 -2.4582
27307SOL    HW284364   6.977   8.758   6.137 -2.1001  0.0637 -0.4811
27308SOL     OW84365   5.948   7.856   5.747  0.2074 -0.1905 -0.1003
27308SOL    HW184366   6.014   7.918   5.717 -0.7981  0.0256 -2.0193
27308SOL    HW284367   5.966   7.846   5.840  2.5507  0.3159 -0.4202
27309SOL     OW84368   6.811   3.455   2.813 -0.0278 -0.5078  0.3358
27309SOL    HW184369   6.891   3.403   2.802  0.2738 -0.0198  0.2263
27309SOL    HW284370   6.805   3.471   2.907 -1.4443 -2.8212  0.7366
27310SOL     OW84371  10.376  10.193   5.277  0.6951  0.2504 -0.1449
27310SOL    HW184372  10.316  10.189   5.352 -0.9619 -0.1637 -1.4484
27310SOL    HW284373  10.351  10.274   5.232  1.4068  0.2815 -0.4843
27311SOL     OW84374   6.751   4.096   9.348  0.2128  0.0281 -0.1787
27311SOL    HW184375   6.846   4.099   9.347  0.2785 -1.1401  0.3198
27311SOL    HW284376   6.730   4.002   9.353 -0.9426  0.3075  0.5787
27312SOL     OW84377   0.541   1.197   7.871  0.2301 -0.5101 -0.2234
27312SOL    HW184378   0.598   1.145   7.927  0.9553  0.9240  0.4436
27312SOL    HW284379   0.487   1.248   7.932  1.2377  1.3019 -0.7524
27313SOL     OW84380   4.648  10.449   3.146 -0.4378 -0.3180  0.5939
27313SOL    HW184381   4.646  10.368   3.196 -0.8892  0.0080  1.1103
27313SOL    HW284382   4.567  10.447   3.094 -0.7558  0.0844  1.0659
27314SOL     OW84383   9.295  10.016   2.161 -0.0946 -0.4441  0.0761
27314SOL    HW184384   9.226   9.958   2.127  0.1818  0.3243 -1.9884
27314SOL    HW284385   9.250  10.072   2.224 -1.3510 -0.0833 -1.0907
27315SOL     OW84386   9.260   1.095   9.456  0.1082 -0.2834  0.0828
27315SOL    HW184387   9.261   1.000   9.472 -0.4740 -0.1054  1.2425
27315SOL    HW284388   9.176   1.111   9.413 -0.0498 -0.2140  0.4158
27316SOL     OW84389   7.237   1.620   9.221 -0.2102  0.4436 -0.5515
27316SOL    HW184390   7.245   1.569   9.140  1.0239 -0.6698  0.2462
27316SOL    HW284391   7.254   1.710   9.193  1.7947 -0.1220 -1.3008
27317SOL     OW84392   1.110   8.652   5.791  0.2392  0.3583  0.5692
27317SOL    HW184393   1.170   8.610   5.853 -1.5798 -1.9895  0.9011
27317SOL    HW284394   1.152   8.641   5.706  1.1240  0.3908  0.9939
27318SOL     OW84395   7.910   9.454   7.601 -0.2768  0.0793 -0.4668
27318SOL    HW184396   8.001   9.479   7.611 -0.9598  3.1502 -0.8772
27318SOL    HW284397   7.875   9.450   7.690 -0.2037  0.9969 -0.3890
27319SOL     OW84398   9.557   7.962   2.931 -0.0201 -0.4197 -0.4021
27319SOL    HW184399   9.638   7.940   2.886  0.5069  1.4143 -0.4562
27319SOL    HW284400   9.504   7.883   2.926  1.4170 -1.3776 -1.1330
27320SOL     OW84401   5.257   5.127   1.234  0.8948  0.1654  0.1298
27320SOL    HW184402   5.173   5.097   1.268  1.3350 -1.3092  0.0028
27320SOL    HW284403   5.292   5.184   1.302 -0.6564  1.6835 -0.2768
27321SOL     OW84404   1.357   1.243   1.060 -0.7089 -0.4624 -0.5143
27321SOL    HW184405   1.374   1.237   0.966 -0.8805 -2.1266 -0.4596
27321SOL    HW284406   1.440   1.221   1.101  0.2659  3.1540 -0.1915
27322SOL     OW84407   9.201   4.074   6.020  0.0608 -0.1470 -0.0703
27322SOL    HW184408   9.272   4.120   6.064  0.4928 -1.2646  0.4488
27322SOL    HW284409   9.139   4.142   5.995  0.0761  0.5817  1.7691
27323SOL     OW84410   0.321   5.853   6.267  0.3027 -0.3158  0.2168
27323SOL    HW184411   0.240   5.804   6.252 -0.2233  0.5653  0.1086
27323SOL    HW284412   0.291   5.942   6.288  1.2062 -0.2695  1.3522
27324SOL     OW84413   2.753   5.443  10.134 -0.4055  0.2760 -0.1582
27324SOL    HW184414   2.720   5.406  10.052 -1.0542  1.0365 -0.2531
27324SOL    HW284415   2.689   5.511  10.158  0.8043  1.4354 -0.0690
27325SOL     OW84416   4.315   5.031   2.380 -0.1522  0.4159  0.8402
27325SOL    HW184417   4.292   5.109   2.432 -1.5056 -0.1265  1.0933
27325SOL    HW284418   4.231   4.990   2.360  0.3766  0.2651 -1.2736
27326SOL     OW84419   5.563   2.519   7.204  0.1582 -0.3497  0.1418
27326SOL    HW184420   5.472   2.545   7.214  0.5162  0.8166  0.6231
27326SOL    HW284421   5.586   2.547   7.115 -0.2753 -1.7414 -0.4258
27327SOL     OW84422   2.247   2.625   2.542  0.3800  0.2252  0.2576
27327SOL    HW184423   2.249   2.538   2.582 -1.2103  0.7721  1.6669
27327SOL    HW284424   2.220   2.683   2.613 -0.9264  1.5004 -1.2064
27328SOL     OW84425   8.414   5.893   4.064 -0.5924 -0.4381 -0.2057
27328SOL    HW184426   8.496   5.918   4.105 -0.2115 -0.2855 -1.0235
27328SOL    HW284427   8.412   5.798   4.070  0.8679 -0.6810 -2.3232
27329SOL     OW84428   3.321   4.856   5.760 -0.2173 -0.0853  0.5134
27329SOL    HW184429   3.268   4.876   5.684 -1.1340 -1.4312  0.7682
27329SOL    HW284430   3.362   4.771   5.740 -0.2985 -0.3504  1.4042
27330SOL     OW84431   8.520   5.453   9.341 -0.1573 -0.6871  0.0904
27330SOL    HW184432   8.431   5.484   9.357 -0.1152 -0.3890 -0.2358
27330SOL    HW284433   8.515   5.406   9.259 -0.1732 -1.3648  0.4755
27331SOL     OW84434   7.832   5.188   6.040 -0.0374  0.2037 -0.7129
27331SOL    HW184435   7.787   5.113   6.000 -2.5310  1.9945 -1.5158
27331SOL    HW284436   7.781   5.264   6.012  0.1719  1.9288  2.9926
27332SOL     OW84437   6.984   8.589   5.102  0.4187 -0.2138  0.2971
27332SOL    HW184438   6.923   8.520   5.130  0.1545 -0.0854  0.0417
27332SOL    HW284439   6.928   8.658   5.068  0.7410 -0.4773 -0.8010
27333SOL     OW84440   5.806   0.640   4.390 -0.1170 -0.2863  0.6951
27333SOL    HW184441   5.715   0.609   4.384 -0.6599  1.3333 -0.4943
27333SOL    HW284442   5.809   0.714   4.329  1.3620  1.2106  2.4585
27334SOL     OW84443   5.503   2.472   3.899 -0.2115  0.6326  0.4020
27334SOL    HW184444   5.475   2.521   3.821 -0.9687 -2.3918 -1.4139
27334SOL    HW284445   5.426   2.470   3.955 -1.4055 -1.2856 -1.1445
27335SOL     OW84446   5.881   9.820   1.341  0.0929 -0.7028 -0.7466
27335SOL    HW184447   5.885   9.837   1.247 -1.0668  0.4645 -0.6065
27335SOL    HW284448   5.946   9.881   1.378 -0.4202 -0.1818 -0.6878
27336SOL     OW84449   5.691   0.767   3.309 -0.4746 -0.3719  0.0052
27336SOL    HW184450   5.611   0.717   3.293  0.1510 -1.1638 -0.7908
27336SOL    HW284451   5.732   0.773   3.223  0.1099  0.3958  0.3335
27337SOL     OW84452  10.103   7.586   8.616  0.2812 -0.2147 -0.1285
27337SOL    HW184453  10.195   7.609   8.622  0.1559  0.4266 -0.4916
27337SOL    HW284454  10.101   7.508   8.561  0.6713 -0.7543  0.6090
27338SOL     OW84455   3.546   1.996   4.725  0.2579 -0.4142  0.3009
27338SOL    HW184456   3.590   2.079   4.742 -0.7964  0.2138  0.0755
27338SOL    HW284457   3.567   1.941   4.800  0.7132  0.1678  0.6030
27339SOL     OW84458   2.261   3.426   0.218  0.4905 -0.0369 -0.2389
27339SOL    HW184459   2.245   3.504   0.165 -1.2572 -0.1133  0.0910
27339SOL    HW284460   2.217   3.444   0.302  1.6403 -0.6383  0.5219
27340SOL     OW84461   4.786   6.403   4.285 -0.0662 -0.0714 -0.1545
27340SOL    HW184462   4.865   6.349   4.291 -0.3334 -0.6766 -1.4820
27340SOL    HW284463   4.719   6.354   4.333  0.1079 -0.0912  0.0655
27341SOL     OW84464   3.711  10.103   5.345  1.0446  0.1543  0.6168
27341SOL    HW184465   3.793  10.079   5.302  0.6463 -1.2217  0.6015
27341SOL    HW284466   3.737  10.170   5.409  1.9491  0.7656 -0.3466
27342SOL     OW84467  10.099   6.852   9.148  0.1081 -0.1701 -0.5006
27342SOL    HW184468  10.050   6.790   9.094 -0.9080  1.5285 -1.6250
27342SOL    HW284469  10.141   6.911   9.085 -0.4782  1.4062  0.5312
27343SOL     OW84470   1.023   7.375   3.230 -0.5497 -0.7649  0.0731
27343SOL    HW184471   0.974   7.452   3.257 -2.2932 -1.6200 -0.5059
27343SOL    HW284472   1.102   7.376   3.284 -0.9154  0.9675  0.6319
27344SOL     OW84473   0.170   6.254   5.710 -0.3560  0.1262  0.0667
27344SOL    HW184474   0.199   6.249   5.801  0.1455 -1.4029 -0.1502
27344SOL    HW284475   0.075   6.252   5.714 -0.3439  0.4144  0.5630
27345SOL     OW84476   2.446   9.735   7.030 -0.1777 -0.4528 -0.3311
27345SOL    HW184477   2.502   9.684   6.972 -0.3742 -1.1045  0.0438
27345SOL    HW284478   2.357   9.707   7.007 -0.2087 -1.7288  1.1902
27346SOL     OW84479   6.141   0.296   2.344 -0.9336  0.5717 -0.2248
27346SOL    HW184480   6.088   0.220   2.367 -1.2903 -0.0522 -2.7992
27346SOL    HW284481   6.141   0.350   2.423 -1.3762 -1.6693  1.4063
27347SOL     OW84482   7.469   6.547   7.297 -0.4021  0.3760  0.2463
27347SOL    HW184483   7.498   6.615   7.236 -0.3675 -0.1150 -0.2978
27347SOL    HW284484   7.514   6.468   7.267 -0.3645  0.1333  0.9303
27348SOL     OW84485   1.546   8.394   5.924 -0.3191 -0.1989  0.0988
27348SOL    HW184486   1.531   8.355   6.010  0.3675 -0.8236 -0.0582
27348SOL    HW284487   1.572   8.321   5.868 -1.8774 -0.0024 -0.9544
27349SOL     OW84488   2.276   2.038   5.461 -0.1494  0.6531  0.2239
27349SOL    HW184489   2.190   1.996   5.455  0.3535 -0.3478 -0.1223
27349SOL    HW284490   2.273   2.087   5.544 -0.4616 -0.7341  1.0630
27350SOL     OW84491   1.722   3.296   0.750  0.0050 -0.1160  0.2297
27350SOL    HW184492   1.723   3.335   0.663 -2.1033 -0.0806  0.1643
27350SOL    HW284493   1.643   3.331   0.792 -0.8543 -2.6325  0.9342
27351SOL     OW84494   2.836   2.091   1.900 -0.1079  0.4981  0.8118
27351SOL    HW184495   2.865   2.037   1.974  2.4213  1.1906  0.4057
27351SOL    HW284496   2.857   2.180   1.925  0.1869  0.8074 -0.4898
27352SOL     OW84497   6.803   4.228   2.343 -0.0825 -0.2630  0.3965
27352SOL    HW184498   6.872   4.259   2.402  0.7227  1.3810 -1.3163
27352SOL    HW284499   6.734   4.294   2.351 -0.3107 -0.4640  0.0959
27353SOL     OW84500   0.895   3.447   4.684  0.2210 -0.1502 -0.0585
27353SOL    HW184501   0.986   3.433   4.709 -0.0836 -1.2539  0.5056
27353SOL    HW284502   0.861   3.359   4.665 -0.5132  0.3198 -1.0501
27354SOL     OW84503   0.029   3.329   5.827 -0.2516  0.6469  0.1625
27354SOL    HW184504   0.050   3.334   5.921  0.3594 -0.6066  0.1107
27354SOL    HW284505  -0.061   3.360   5.821 -0.1875  1.0631  1.1177
27355SOL     OW84506   1.369   7.369   3.857  0.1863  0.1539 -0.0094
27355SOL    HW184507   1.451   7.398   3.818 -0.1171 -0.3197 -1.0591
27355SOL    HW284508   1.301   7.407   3.801 -0.2438 -1.2903 -0.5278
27356SOL     OW84509   6.510   2.555   7.815 -0.0241  0.2103  0.3681
27356SOL    HW184510   6.532   2.625   7.876 -3.4490  1.4397  0.4031
27356SOL    HW284511   6.533   2.475   7.861 -0.5817  1.1727  2.4298
27357SOL     OW84512   9.774   3.803   2.866 -0.1807 -0.0265 -0.2810
27357SOL    HW184513   9.692   3.813   2.817 -0.1628 -1.2518 -0.5790
27357SOL    HW284514   9.788   3.889   2.906 -1.2399  0.4077 -0.8003
27358SOL     OW84515   4.441  10.058   1.035  0.3737  0.0961 -0.7141
27358SOL    HW184516   4.479   9.978   0.998  2.3282 -0.1148  1.5582
27358SOL    HW284517   4.505  10.127   1.014  0.4056  0.3857  0.2816
27359SOL     OW84518   0.261   5.433   3.320 -0.3596  0.5365 -0.2897
27359SOL    HW184519   0.236   5.367   3.384 -2.6473  0.4648 -1.1472
27359SOL    HW284520   0.213   5.511   3.346  1.0463  1.4036 -0.2208
27360SOL     OW84521   5.029   3.298   2.983  0.2383 -0.4763  0.2095
27360SOL    HW184522   4.999   3.223   2.932  1.2438  0.5429 -2.0484
27360SOL    HW284523   5.036   3.369   2.919 -1.5277  1.8553  2.3764
27361SOL     OW84524   3.265   8.754   3.102  0.0049 -0.4850  0.1564
27361SOL    HW184525   3.250   8.825   3.040  0.5943  0.5245  1.1300
27361SOL    HW284526   3.177   8.729   3.133 -0.1285  1.0144  1.0756
27362SOL     OW84527   3.536   6.373   5.236 -0.4637 -0.0229  0.2340
27362SOL    HW184528   3.557   6.303   5.297 -2.5402 -0.6320  0.3299
27362SOL    HW284529   3.497   6.329   5.161 -0.4719  0.9178 -0.3325
27363SOL     OW84530   0.592   2.155   6.494 -0.5438  0.1707 -0.6882
27363SOL    HW184531   0.619   2.065   6.512  0.4518  0.5182 -0.3763
27363SOL    HW284532   0.586   2.160   6.398 -2.6376 -0.7744 -0.6504
27364SOL     OW84533   6.738   7.323   7.755  0.0398  0.2596 -0.2805
27364SOL    HW184534   6.751   7.316   7.661  1.8857  0.2931 -0.0505
27364SOL    HW284535   6.819   7.362   7.789  0.0548 -1.1671  1.4954
27365SOL     OW84536   9.996   9.235   7.462 -0.5530  0.0191 -0.0361
27365SOL    HW184537   9.937   9.296   7.418  0.9708 -0.4988 -3.0217
27365SOL    HW284538  10.033   9.286   7.535 -0.9790  1.9199 -1.0812
27366SOL     OW84539   7.900   9.864   4.149  0.0614  0.2887 -0.4026
27366SOL    HW184540   7.814   9.872   4.190  0.4982 -0.4573  0.6980
27366SOL    HW284541   7.947   9.943   4.176  0.2763 -0.0997  0.3878
27367SOL     OW84542   4.481   7.976   6.106  0.0904  0.3901  0.2221
27367SOL    HW184543   4.488   8.011   6.017  2.3768  0.8107  0.5052
27367SOL    HW284544   4.509   7.884   6.098  1.6306  0.7820  0.6539
27368SOL     OW84545   6.679   8.884   9.383  0.0021 -0.2664 -0.1988
27368SOL    HW184546   6.622   8.919   9.314  0.4624 -0.3788 -0.6451
27368SOL    HW284547   6.714   8.803   9.345  1.9709  0.7699 -0.7062
27369SOL     OW84548   9.911   0.004   1.404 -0.0746 -0.0616 -0.1450
27369SOL    HW184549   9.820   0.017   1.379 -0.5664 -2.0897  0.4484
27369SOL    HW284550   9.960   0.019   1.323 -0.8536  1.5266 -0.3547
27370SOL     OW84551   5.547   5.565   6.255 -0.5300  0.1455  0.3422
27370SOL    HW184552   5.504   5.481   6.239  1.5412 -0.7283 -1.1644
27370SOL    HW284553   5.489   5.630   6.214 -1.2908 -0.7360 -0.0165
27371SOL     OW84554   3.460   5.922   7.488  0.6582 -0.4054  0.1643
27371SOL    HW184555   3.412   5.843   7.512  2.4535 -1.2499  1.1550
27371SOL    HW284556   3.483   5.909   7.396 -0.6862 -0.1330 -0.2294
27372SOL     OW84557   9.537   1.434   5.636 -0.1509  0.3496  0.2808
27372SOL    HW184558   9.473   1.503   5.620  0.6665  1.5086  1.7059
27372SOL    HW284559   9.621   1.480   5.639  0.5661 -0.9016  0.0292
27373SOL     OW84560   3.786   5.277  10.463  0.4835  0.0817  0.3825
27373SOL    HW184561   3.731   5.337  10.413  0.3749 -0.5788 -0.3167
27373SOL    HW284562   3.801   5.204  10.403 -0.1293 -1.0081  1.5323
27374SOL     OW84563   0.902   1.612   7.102 -0.2019  0.2931 -0.4476
27374SOL    HW184564   0.986   1.588   7.063  0.0406 -0.1643  0.3225
27374SOL    HW284565   0.860   1.669   7.038  1.3565  1.7899 -0.1755
27375SOL     OW84566   8.604   2.951   5.072 -0.4472 -0.2228  0.4882
27375SOL    HW184567   8.667   2.889   5.036 -0.4084  0.0446  0.0857
27375SOL    HW284568   8.643   2.979   5.155  0.2988  0.4480 -0.0691
27376SOL     OW84569   2.621   0.699   9.709  0.5136  0.0866  0.4450
27376SOL    HW184570   2.560   0.716   9.781  1.6101  1.3762  1.1310
27376SOL    HW284571   2.638   0.786   9.673  0.3197 -0.4962 -1.1269
27377SOL     OW84572  10.148   9.046   7.714  0.1756 -0.2516  0.2332
27377SOL    HW184573  10.229   9.048   7.765 -0.1206 -1.8649  0.8312
27377SOL    HW284574  10.174   9.070   7.625  1.3093 -0.7190  0.4303
27378SOL     OW84575   6.866   9.977   2.371  0.1522 -0.9288  0.1802
27378SOL    HW184576   6.910   9.980   2.286 -1.3351 -1.3287 -0.6331
27378SOL    HW284577   6.934   9.949   2.432  1.4039 -0.0427 -0.7554
27379SOL     OW84578   9.610   2.937   9.921  0.1479  0.4914 -0.5928
27379SOL    HW184579   9.666   2.920   9.997  1.1163 -1.3493 -1.6485
27379SOL    HW284580   9.628   3.028   9.897 -0.0612  1.0595  1.2346
27380SOL     OW84581  10.091   2.609  10.384 -0.1650  0.1933 -0.2993
27380SOL    HW184582  10.074   2.700  10.407  1.1361  0.9858 -2.1953
27380SOL    HW284583  10.186   2.603  10.379 -0.2502 -1.1421 -0.7056
27381SOL     OW84584   1.725   9.805   9.840 -0.3096 -0.5106 -0.5606
27381SOL    HW184585   1.723   9.733   9.903 -0.9523 -0.9998 -1.1190
27381SOL    HW284586   1.679   9.876   9.885  0.3976 -0.4055  0.0249
27382SOL     OW84587   6.681   3.194   1.827  0.3194  0.0877  0.3418
27382SOL    HW184588   6.603   3.181   1.773  1.0287 -0.8341 -0.4857
27382SOL    HW284589   6.701   3.287   1.817 -1.2182  0.5634  1.3504
27383SOL     OW84590   6.071   1.036   2.858  0.0142 -0.0011 -0.2800
27383SOL    HW184591   5.992   1.020   2.806 -0.3650 -1.1528  0.6171
27383SOL    HW284592   6.040   1.045   2.948  0.9213 -0.8654  0.1400
27384SOL     OW84593   3.371   9.098   7.015 -0.0760 -0.5110 -0.0825
27384SOL    HW184594   3.328   9.183   7.018  0.3636 -0.3100  1.2610
27384SOL    HW284595   3.302   9.037   6.988 -0.2316  0.3393 -1.7392
27385SOL     OW84596   6.413   8.696   5.462  0.3321  0.4921 -0.0675
27385SOL    HW184597   6.347   8.633   5.492  1.9140 -0.8662  0.6891
27385SOL    HW284598   6.379   8.781   5.490 -1.3017 -0.1050 -0.1011
27386SOL     OW84599   9.216   5.303   4.392 -0.0941  0.4634  0.5094
27386SOL    HW184600   9.292   5.303   4.334 -0.8621 -0.1813 -0.5226
27386SOL    HW284601   9.161   5.374   4.359 -0.7828 -0.2503  0.1075
27387SOL     OW84602   0.885   5.027   0.179 -0.1973 -0.3633 -0.7828
27387SOL    HW184603   0.935   4.948   0.158  2.8538  1.8889 -2.7615
27387SOL    HW284604   0.835   5.045   0.100 -0.1144  0.1917 -0.7092
27388SOL     OW84605   7.510   9.980   1.131  0.2873 -0.3984 -0.1888
27388SOL    HW184606   7.443  10.023   1.184  0.9971  0.1458  0.2951
27388SOL    HW284607   7.585  10.040   1.135 -0.0363  0.3454 -2.9112
27389SOL     OW84608   0.684   0.048   7.356 -0.1413  0.7571 -0.0061
27389SOL    HW184609   0.658   0.132   7.318  1.3117  1.8672  1.3127
27389SOL    HW284610   0.642   0.048   7.442 -0.3848 -0.0270 -0.1179
27390SOL     OW84611   7.943   6.839   9.345 -0.4008 -0.7915 -0.3733
27390SOL    HW184612   7.941   6.935   9.344 -1.8310 -0.8076 -1.1720
27390SOL    HW284613   8.030   6.817   9.312 -0.3302  0.2289 -0.9309
27391SOL     OW84614   4.044   9.298   0.193 -0.2736  0.8525 -0.3230
27391SOL    HW184615   3.978   9.248   0.145  0.0978 -0.0489  0.0829
27391SOL    HW284616   4.055   9.251   0.276  0.2359  1.4888 -0.0164
27392SOL     OW84617   8.491   7.961   1.499  0.3006 -0.8087 -0.1362
27392SOL    HW184618   8.439   8.006   1.433  1.2812 -0.5104 -0.7303
27392SOL    HW284619   8.562   8.022   1.520 -0.2175 -0.7248  1.5116
27393SOL     OW84620  10.229   8.830   8.007 -0.3418 -0.1553 -0.0935
27393SOL    HW184621  10.262   8.742   7.989 -2.8807 -2.1913  3.7769
27393SOL    HW284622  10.289   8.865   8.072 -0.6520 -0.0171  0.1204
27394SOL     OW84623   2.326   0.298   4.105  0.2633 -0.3460  0.1723
27394SOL    HW184624   2.288   0.287   4.192 -0.5747  3.2530  0.3850
27394SOL    HW284625   2.385   0.372   4.113 -0.5887  0.7399 -2.5181
27395SOL     OW84626   3.979   7.874   0.261  0.2403 -0.0283 -0.6794
27395SOL    HW184627   3.929   7.948   0.293  0.4489  0.0890 -0.6223
27395SOL    HW284628   3.942   7.855   0.175  1.1115  1.0381 -1.3118
27396SOL     OW84629   6.209   6.864   1.988 -0.1625 -0.0398  0.2769
27396SOL    HW184630   6.210   6.786   1.932  0.7833  0.0124  0.2049
27396SOL    HW284631   6.203   6.937   1.927 -2.1444 -0.0437  0.3747
27397SOL     OW84632   2.974   9.721   3.941  0.3821  0.1600  0.6597
27397SOL    HW184633   2.961   9.632   3.973  0.2284  0.2253  0.7795
27397SOL    HW284634   3.048   9.714   3.880 -0.5175 -0.3063 -0.4258
27398SOL     OW84635   7.286   0.494   8.613 -0.1758  0.1976  0.7868
27398SOL    HW184636   7.316   0.545   8.688  0.6226 -1.1461  1.4188
27398SOL    HW284637   7.359   0.498   8.551 -0.0681 -0.2499  0.8815
27399SOL     OW84638   4.840   6.783   6.901 -0.2640 -0.3947 -0.1340
27399SOL    HW184639   4.919   6.769   6.849 -0.0735 -0.8764  0.2725
27399SOL    HW284640   4.867   6.766   6.992  0.1057  3.0736  0.5244
27400SOL     OW84641   2.253   2.698   6.585  0.0695 -0.0999  0.5201
27400SOL    HW184642   2.341   2.672   6.614  0.7679  0.5251 -0.9590
27400SOL    HW284643   2.260   2.792   6.568 -0.7611 -0.1329 -0.0614
27401SOL     OW84644   0.407   4.031   5.511  0.6415  0.1809 -0.3162
27401SOL    HW184645   0.403   3.946   5.556  1.6299 -0.3960 -1.2630
27401SOL    HW284646   0.398   4.096   5.581  0.2033 -0.6941  0.4680
27402SOL     OW84647   5.892   3.148   2.657 -0.0192  0.4149 -0.1741
27402SOL    HW184648   5.908   3.237   2.686 -1.7378  1.2627 -1.6093
27402SOL    HW284649   5.845   3.158   2.574  2.4887 -1.8450 -2.0466
27403SOL     OW84650   3.828   0.594   7.330 -0.0387  0.4642  0.4879
27403SOL    HW184651   3.904   0.614   7.385  1.3057 -0.6854 -0.8766
27403SOL    HW284652   3.823   0.498   7.331 -0.8469  0.4919 -0.2772
27404SOL     OW84653   0.136   4.279   7.751  0.0269 -0.3804 -0.4904
27404SOL    HW184654   0.070   4.344   7.723 -0.0160 -0.7632 -1.2978
27404SOL    HW284655   0.207   4.289   7.687 -0.2430 -1.5392 -0.9873
27405SOL     OW84656   7.689   2.887   0.552 -0.4154 -0.2939  0.4422
27405SOL    HW184657   7.760   2.867   0.491  0.1833  0.2921  0.9260
27405SOL    HW284658   7.609   2.883   0.499 -0.1034 -1.7030  0.0639
27406SOL     OW84659   8.427   9.355   4.929  0.0616  0.5857  0.0680
27406SOL    HW184660   8.352   9.336   4.985 -0.0898  2.5774  0.6289
27406SOL    HW284661   8.503   9.346   4.986  0.0779  0.5163  0.0344
27407SOL     OW84662   1.844   0.571   1.769 -0.2455 -0.4702 -0.1606
27407SOL    HW184663   1.755   0.604   1.763  0.0477  0.4414  0.2495
27407SOL    HW284664   1.837   0.492   1.823 -0.3582  1.7079  3.3583
27408SOL     OW84665   9.502   4.136   4.362 -0.3853 -0.1650  0.5175
27408SOL    HW184666   9.462   4.049   4.355 -0.5409 -0.1624  1.2639
27408SOL    HW284667   9.499   4.170   4.273  2.9194 -2.2899 -0.5952
27409SOL     OW84668   0.610   0.703   7.654 -0.1215  0.1736 -0.0542
27409SOL    HW184669   0.638   0.705   7.745 -2.2453 -1.2431  0.6949
27409SOL    HW284670   0.690   0.684   7.605  1.2759  2.0422  1.3340
27410SOL     OW84671   8.151   9.687   6.058  0.0702  0.3931 -0.2487
27410SOL    HW184672   8.121   9.621   6.120  0.3354 -1.3532 -1.8791
27410SOL    HW284673   8.118   9.657   5.973  2.4462  0.8895 -1.4291
27411SOL     OW84674   2.154   1.198   5.502  0.1888  0.6883 -0.2368
27411SOL    HW184675   2.089   1.263   5.528  0.0333 -0.3421  2.1485
27411SOL    HW284676   2.103   1.123   5.472  0.2968  0.3946  0.3082
27412SOL     OW84677   5.866   3.068   9.898  0.1713 -0.1714 -0.4189
27412SOL    HW184678   5.949   3.030   9.926  0.5492  0.7590 -0.2435
27412SOL    HW284679   5.829   3.003   9.838  0.3076 -1.2799  0.6562
27413SOL     OW84680   1.015   6.999   8.217  0.0151 -0.3260  0.8061
27413SOL    HW184681   0.974   6.988   8.303 -2.5805 -1.3207 -0.4452
27413SOL    HW284682   0.986   7.084   8.186  2.1275  0.6898  1.4238
27414SOL     OW84683   1.944   4.486   2.180  0.1167  0.2698  1.1218
27414SOL    HW184684   1.897   4.526   2.107 -0.7151 -1.2066  0.8215
27414SOL    HW284685   1.905   4.399   2.190  1.2911 -0.1594  2.3086
27415SOL     OW84686   7.515   1.200   7.924 -0.7943  0.3389  0.2136
27415SOL    HW184687   7.536   1.216   8.016  1.2360  1.6049 -0.3884
27415SOL    HW284688   7.590   1.150   7.891 -0.6037  1.4264 -1.1188
27416SOL     OW84689   3.579   3.230   4.140  0.5276 -0.0896  0.0811
27416SOL    HW184690   3.667   3.198   4.120  1.0304  0.4905  1.2615
27416SOL    HW284691   3.585   3.325   4.135  0.4309  0.0515  1.8083
27417SOL     OW84692   8.764  10.207   4.991 -0.1742 -0.4746  0.0862
27417SOL    HW184693   8.700  10.250   4.935  1.6707  1.2719 -0.7782
27417SOL    HW284694   8.737  10.229   5.080 -0.1016  1.3357 -0.3001
27418SOL     OW84695   8.390   8.721   2.106 -0.7570  0.2531 -0.5113
27418SOL    HW184696   8.476   8.763   2.110 -0.8869  0.4464  0.7431
27418SOL    HW284697   8.329   8.793   2.090 -0.7547  0.2236 -0.6527
27419SOL     OW84698   3.541   0.496   0.646 -0.9112  0.8096  0.0393
27419SOL    HW184699   3.591   0.486   0.565 -0.4650 -1.6538  0.5347
27419SOL    HW284700   3.586   0.567   0.693  1.2958 -0.3468 -0.1741
27420SOL     OW84701   1.275   9.614   6.639 -0.1207  0.0429  0.4036
27420SOL    HW184702   1.201   9.673   6.633 -0.5281 -0.5986 -1.4413
27420SOL    HW284703   1.347   9.669   6.671 -1.0440  0.9606  0.9742
27421SOL     OW84704   1.354   2.582   1.093 -0.7013 -0.0679  0.1513
27421SOL    HW184705   1.425   2.576   1.157  0.7306  2.6556 -1.0020
27421SOL    HW284706   1.332   2.675   1.090 -2.2681 -0.4263 -1.7118
27422SOL     OW84707   5.646   2.688   4.172 -0.8182  0.0446  0.3077
27422SOL    HW184708   5.698   2.682   4.252  0.0346  0.5669 -0.1886
27422SOL    HW284709   5.625   2.598   4.149  1.9763 -0.4360 -0.8031
27423SOL     OW84710   8.426   6.017   6.645 -0.4725  0.3071 -0.4028
27423SOL    HW184711   8.358   6.064   6.694 -0.0735  0.4980 -0.0332
27423SOL    HW284712   8.395   5.926   6.643 -1.0992  0.5196 -0.8646
27424SOL     OW84713   5.952   5.044   6.897  0.0029 -0.2830  0.2104
27424SOL    HW184714   5.986   5.061   6.809 -3.6350  1.3920 -1.0934
27424SOL    HW284715   5.966   5.126   6.944  0.3739 -0.5776  0.6121
27425SOL     OW84716   2.370   6.416   5.669 -0.4056 -0.5513  0.0262
27425SOL    HW184717   2.403   6.372   5.748  2.1817 -0.1507 -0.7392
27425SOL    HW284718   2.442   6.411   5.607 -0.8242  2.7210 -0.9238
27426SOL     OW84719  10.061   7.035   4.755 -0.0755  0.4598  0.3617
27426SOL    HW184720  10.102   6.958   4.715 -0.1426  0.8314 -0.4540
27426SOL    HW284721   9.967   7.025   4.736 -0.6195 -1.0660  3.3679
27427SOL     OW84722   3.186   9.082   5.825 -0.3780  0.0950  0.1043
27427SOL    HW184723   3.149   9.064   5.912  0.3205 -1.7874  0.0619
27427SOL    HW284724   3.262   9.136   5.843  0.4608 -1.2645  0.8223
27428SOL     OW84725   6.547  10.310   4.975  0.4799 -0.1250 -0.5626
27428SOL    HW184726   6.526  10.400   4.951  0.2581 -0.1797 -0.5746
27428SOL    HW284727   6.634  10.296   4.939  1.6562  0.9353  1.7005
27429SOL     OW84728   6.945   1.361   4.072 -0.2229  0.3255 -0.3590
27429SOL    HW184729   7.006   1.399   4.008  1.4680 -1.2446  0.2447
27429SOL    HW284730   6.991   1.366   4.155 -0.8408 -1.0326  0.0921
27430SOL     OW84731   1.790   5.697   3.615 -0.4334 -0.3630 -0.1188
27430SOL    HW184732   1.710   5.721   3.662  0.5515  0.5304  1.2001
27430SOL    HW284733   1.820   5.618   3.660  2.0982  2.0933  2.9643
27431SOL     OW84734   0.520   2.455   7.107 -0.2092  0.2338  0.0579
27431SOL    HW184735   0.609   2.432   7.131 -0.6407 -3.6430 -1.3626
27431SOL    HW284736   0.523   2.466   7.012 -1.1909  0.3865  0.0337
27432SOL     OW84737   6.201   2.523   6.949  0.4822 -0.0632 -0.1675
27432SOL    HW184738   6.212   2.601   6.894 -0.2697 -0.0963 -0.3696
27432SOL    HW284739   6.202   2.450   6.887  0.6948 -0.1835 -0.0254
27433SOL     OW84740   6.910   7.510   6.495 -0.2088  0.5102  0.2675
27433SOL    HW184741   6.928   7.598   6.530  0.1375  0.2579  0.7334
27433SOL    HW284742   6.948   7.510   6.408 -0.3373  0.8710  0.2090
27434SOL     OW84743   3.971   1.810   8.437  0.1633 -0.0775  0.4341
27434SOL    HW184744   4.024   1.749   8.385 -0.3959  0.1783 -0.4568
27434SOL    HW284745   3.964   1.768   8.523  0.9636 -0.5897  0.2608
27435SOL     OW84746   6.770   4.251   5.662 -0.1336  0.7246 -0.0053
27435SOL    HW184747   6.748   4.216   5.575  0.7405  1.5020 -0.5568
27435SOL    HW284748   6.853   4.209   5.684 -0.1540  0.8362  0.2854
27436SOL     OW84749   3.589   7.229   0.473  0.3837 -0.0480  0.3212
27436SOL    HW184750   3.644   7.237   0.551  0.2849  2.3599  0.2259
27436SOL    HW284751   3.599   7.138   0.445  2.4096 -0.2975  1.6841
27437SOL     OW84752   4.339   0.694   5.963 -0.0011 -0.5476  0.0324
27437SOL    HW184753   4.300   0.610   5.939  0.0469 -1.5160  2.8672
27437SOL    HW284754   4.265   0.754   5.970 -0.3388 -0.9838  0.2450
27438SOL     OW84755   3.854   1.351   4.212  0.1608  0.8113  0.0509
27438SOL    HW184756   3.868   1.272   4.264  0.6840 -0.4688 -1.9469
27438SOL    HW284757   3.764   1.346   4.182  0.1043  1.1285  0.1601
27439SOL     OW84758   9.992   1.169   5.025 -0.1073  0.1045  0.0991
27439SOL    HW184759  10.006   1.104   5.094  1.8751  1.1119  0.7265
27439SOL    HW284760   9.952   1.120   4.953  0.2920 -1.5599  0.9590
27440SOL     OW84761  10.215   5.076   6.801  0.3756 -0.0553  0.5373
27440SOL    HW184762  10.307   5.074   6.776  0.0648 -2.0365 -0.6506
27440SOL    HW284763  10.213   5.037   6.889  0.6997  0.2134  0.6640
27441SOL     OW84764   0.417   1.418  10.169  0.7999 -0.2990  0.6271
27441SOL    HW184765   0.329   1.452  10.181  0.9333  0.5961 -0.7143
27441SOL    HW284766   0.440   1.380  10.253 -0.1398  1.1848  1.6063
27442SOL     OW84767   8.024   2.663   9.148  0.2516 -0.1605 -0.0234
27442SOL    HW184768   7.950   2.610   9.180 -0.4415  1.2742  0.8445
27442SOL    HW284769   7.984   2.726   9.088  0.9564 -0.1011 -0.4447
27443SOL     OW84770   6.432   0.329   5.750 -0.4676 -0.0690 -0.5292
27443SOL    HW184771   6.408   0.295   5.664 -1.9863 -1.3544  0.3460
27443SOL    HW284772   6.395   0.266   5.812  2.5599 -0.4670  1.0678
27444SOL     OW84773   2.863   2.747   4.739 -0.0674  0.2400 -0.0526
27444SOL    HW184774   2.815   2.825   4.709  0.0880  0.1196 -0.6385
27444SOL    HW284775   2.805   2.674   4.718 -0.3219  0.2111  0.7318
27445SOL     OW84776   3.404   3.234   6.010 -0.3902 -0.2287  0.2041
27445SOL    HW184777   3.339   3.163   6.014 -0.3647 -0.3210 -0.8132
27445SOL    HW284778   3.479   3.200   6.058 -1.4852  0.3360  2.4738
27446SOL     OW84779   7.043   2.110   2.376  0.2961 -0.1651  0.4001
27446SOL    HW184780   6.955   2.120   2.339 -0.1329 -1.1246  1.0988
27446SOL    HW284781   7.081   2.197   2.370 -1.3643  0.7224  1.6624
27447SOL     OW84782   6.386   5.822   7.966 -0.1038 -0.1565  0.3587
27447SOL    HW184783   6.402   5.916   7.971  1.0088 -0.3265  0.2782
27447SOL    HW284784   6.400   5.791   8.056 -0.2053 -0.2851  0.3296
27448SOL     OW84785   7.515   6.531   6.826 -0.1085 -0.4148  0.5934
27448SOL    HW184786   7.556   6.546   6.741 -1.6226  0.6013 -0.0145
27448SOL    HW284787   7.545   6.445   6.853  2.0205  0.0873 -0.0038
27449SOL     OW84788   6.440   6.021   5.128  0.4043  0.1147 -0.1910
27449SOL    HW184789   6.425   5.936   5.087  2.4351  0.1806 -1.1784
27449SOL    HW284790   6.435   6.004   5.222 -0.0965 -0.8986 -0.3940
27450SOL     OW84791   0.241   7.410   6.642  0.1064 -0.0527  0.0976
27450SOL    HW184792   0.170   7.406   6.706  0.0055  1.2536  0.0953
27450SOL    HW284793   0.320   7.425   6.695  0.2634 -0.6416  0.0356
27451SOL     OW84794   0.190   1.313   0.869  0.0361  0.5449  0.0333
27451SOL    HW184795   0.278   1.291   0.900 -0.9335 -0.1421  2.4679
27451SOL    HW284796   0.187   1.409   0.872 -0.2465  0.5165  2.9714
27452SOL     OW84797   8.014   2.524   8.676  0.1351 -0.2341  0.1504
27452SOL    HW184798   7.970   2.573   8.746 -1.1615  0.3952 -1.0550
27452SOL    HW284799   7.969   2.440   8.674  1.7816 -1.2224  1.6332
27453SOL     OW84800   3.632   0.686   6.271  0.1732 -0.4825 -0.4860
27453SOL    HW184801   3.558   0.745   6.255 -0.9462 -1.2796  1.4897
27453SOL    HW284802   3.593   0.601   6.290  1.5003 -0.7066  1.5946
27454SOL     OW84803   3.873   6.380   5.541  0.0596  0.1172 -0.2917
27454SOL    HW184804   3.898   6.295   5.577  0.6948  0.2026 -0.5098
27454SOL    HW284805   3.840   6.360   5.453  2.0078  0.2589 -1.1064
27455SOL     OW84806   6.583   2.192   4.603 -0.3344 -0.5371 -0.2295
27455SOL    HW184807   6.557   2.228   4.687 -0.6105 -0.0900 -0.5072
27455SOL    HW284808   6.547   2.252   4.538  0.1022 -0.7309 -0.6605
27456SOL     OW84809   9.273   9.207   8.607 -0.3248  0.3488 -0.8174
27456SOL    HW184810   9.178   9.208   8.608 -0.3249  0.4339 -0.9059
27456SOL    HW284811   9.299   9.276   8.669 -0.3182 -0.2519 -0.1451
27457SOL     OW84812   5.306   5.995   7.200  0.7176  0.1533 -0.5945
27457SOL    HW184813   5.239   5.959   7.142  0.7077  1.0794 -1.1747
27457SOL    HW284814   5.388   5.980   7.153  0.8024  0.0776 -0.4223
27458SOL     OW84815   7.118   7.462   9.244  0.0838  0.0711  0.6748
27458SOL    HW184816   7.200   7.504   9.220 -0.5258  0.3608 -1.0238
27458SOL    HW284817   7.143   7.374   9.270  0.8987  0.0023 -0.2820
27459SOL     OW84818   7.331   3.344   1.148  0.3721  0.3517  0.1860
27459SOL    HW184819   7.402   3.399   1.181 -0.0533 -0.2285  2.2743
27459SOL    HW284820   7.372   3.289   1.082  1.2610  1.7418 -0.4719
27460SOL     OW84821   7.352   1.805  10.164 -0.1940 -0.2241 -0.3793
27460SOL    HW184822   7.314   1.892  10.153 -3.2655 -1.2868  0.7528
27460SOL    HW284823   7.319   1.755  10.090  4.3469  0.2063 -3.0605
27461SOL     OW84824   1.105   9.823   0.559 -0.5217  0.4008 -0.3900
27461SOL    HW184825   1.018   9.807   0.597 -0.8024  0.5802 -0.9496
27461SOL    HW284826   1.088   9.841   0.466 -0.2325  3.4937  0.0349
27462SOL     OW84827   7.630   7.693   3.687 -0.1854 -0.5130 -0.2206
27462SOL    HW184828   7.615   7.766   3.747  0.9289 -0.0249 -0.5210
27462SOL    HW284829   7.543   7.655   3.674 -0.4522 -0.7864  1.8708
27463SOL     OW84830   1.536   8.368   4.210 -0.1330 -0.1549 -0.4663
27463SOL    HW184831   1.499   8.450   4.179  1.6300  0.1402 -1.9248
27463SOL    HW284832   1.498   8.301   4.154  1.8105  0.2093 -2.3652
27464SOL     OW84833   0.435   3.008   7.386 -0.0546 -0.3231  0.2817
27464SOL    HW184834   0.360   3.038   7.333  1.2709  0.0792 -1.4511
27464SOL    HW284835   0.403   2.929   7.429 -2.4832  1.5144  2.1457
27465SOL     OW84836   6.370   9.903   9.649 -0.1636 -0.0536 -0.1377
27465SOL    HW184837   6.455   9.944   9.629  0.1161 -1.0217 -1.0289
27465SOL    HW284838   6.391   9.838   9.717  0.0011 -0.9139 -0.9829
27466SOL     OW84839   7.416   3.149   4.854  0.5776 -0.1559 -0.6332
27466SOL    HW184840   7.347   3.177   4.914 -1.7721 -0.8212 -2.8299
27466SOL    HW284841   7.454   3.071   4.895  0.6194  0.6620  0.9770
27467SOL     OW84842   6.775   1.514   4.342 -0.6577 -0.4988 -0.1210
27467SOL    HW184843   6.756   1.562   4.261  1.4461 -0.8846 -0.8992
27467SOL    HW284844   6.870   1.504   4.342 -0.4359  0.6119  3.0642
27468SOL     OW84845   5.944   9.132   9.139 -0.1321  0.0487 -0.0188
27468SOL    HW184846   5.899   9.188   9.203 -1.6535 -1.2713  0.1224
27468SOL    HW284847   5.889   9.136   9.061  1.8623  1.8915 -1.4808
27469SOL     OW84848   1.756   6.214   4.195 -0.2574 -0.3463 -0.2748
27469SOL    HW184849   1.768   6.205   4.289 -1.7547  0.4279  0.0295
27469SOL    HW284850   1.669   6.253   4.186 -0.2882 -0.7317 -1.9921
27470SOL     OW84851   3.533   3.189   6.865  0.6009 -0.1005 -1.1343
27470SOL    HW184852   3.478   3.235   6.802  0.6212  0.0645 -1.0295
27470SOL    HW284853   3.482   3.112   6.890  0.0090  0.5383 -0.3131
27471SOL     OW84854   8.979   0.494   0.803  0.1643 -0.1794  0.6669
27471SOL    HW184855   9.070   0.512   0.826  0.5094 -0.4267 -0.4329
27471SOL    HW284856   8.977   0.499   0.707 -0.8903 -0.5822  0.6541
27472SOL     OW84857   9.736   3.097   0.248  0.2723 -0.0081  0.4639
27472SOL    HW184858   9.725   3.118   0.340 -1.0810 -0.3120  0.3883
27472SOL    HW284859   9.678   3.157   0.202 -0.9976 -1.5327  0.0028
27473SOL     OW84860   1.512   4.943   0.542  0.4304 -0.0843 -0.5528
27473SOL    HW184861   1.538   5.034   0.531  1.3380  0.3078  3.3964
27473SOL    HW284862   1.426   4.937   0.500  0.7824  2.2983 -1.7599
27474SOL     OW84863   5.531   1.367   6.411  0.6718  0.8640  0.0598
27474SOL    HW184864   5.589   1.296   6.437 -1.4660 -1.2231 -0.5555
27474SOL    HW284865   5.512   1.413   6.493 -1.2025 -1.9239  1.3345
27475SOL     OW84866   8.895  10.174  10.212  0.0956  0.2881 -0.8162
27475SOL    HW184867   8.953  10.245  10.183  0.3910 -0.1382 -1.2951
27475SOL    HW284868   8.845  10.212  10.284  0.9580  0.6704 -0.3997
27476SOL     OW84869   0.829   7.664   6.843 -0.3508 -0.1632  0.2802
27476SOL    HW184870   0.867   7.576   6.836  0.9960  0.3294  0.9622
27476SOL    HW284871   0.864   7.711   6.767 -1.5577 -0.3665 -0.4250
27477SOL     OW84872   2.241   2.509   3.358  0.7309  0.3821 -0.6852
27477SOL    HW184873   2.243   2.415   3.341 -0.1244  0.1668  0.3128
27477SOL    HW284874   2.333   2.534   3.368  0.9132 -0.5066 -0.0972
27478SOL     OW84875  10.471   5.509   4.317 -0.1502  0.0321 -0.1072
27478SOL    HW184876  10.441   5.578   4.258  1.1094  0.5330 -0.1819
27478SOL    HW284877  10.407   5.438   4.305 -0.7579  0.7022 -0.9431
27479SOL     OW84878   8.691   4.871   6.900 -0.0204 -0.4730 -0.4905
27479SOL    HW184879   8.642   4.848   6.979  2.8634 -2.3138  0.9371
27479SOL    HW284880   8.757   4.933   6.930  0.6435 -0.6233 -1.5790
27480SOL     OW84881   6.503  10.445   2.880  0.1081 -0.1973 -0.0338
27480SOL    HW184882   6.587  10.402   2.898  0.0590 -0.0425  0.5691
27480SOL    HW284883   6.477  10.483   2.964 -1.2398 -1.4231  0.1492
27481SOL     OW84884   6.614   0.239   3.544  0.0594 -1.0453 -0.0719
27481SOL    HW184885   6.575   0.155   3.569  1.6913 -1.5612  0.8927
27481SOL    HW284886   6.604   0.294   3.621 -2.1796  0.1431 -1.1388
27482SOL     OW84887   2.046   8.083   1.241  0.5689 -0.0944  0.5058
27482SOL    HW184888   1.960   8.121   1.258  0.7756  1.0547 -0.8427
27482SOL    HW284889   2.057   8.088   1.147  1.7791 -1.0094  0.5687
27483SOL     OW84890   9.420   4.012   7.152 -0.3779 -0.0835  0.2906
27483SOL    HW184891   9.329   3.983   7.164  0.1848 -2.0638  0.0438
27483SOL    HW284892   9.470   3.932   7.145  1.4343  0.9832  0.4704
27484SOL     OW84893   1.716   7.548   0.635 -0.2509  0.4688  0.4754
27484SOL    HW184894   1.761   7.504   0.563 -0.5084 -0.2256  0.7340
27484SOL    HW284895   1.675   7.625   0.595  0.7371  0.8398  0.1388
27485SOL     OW84896   4.371   4.924   0.439 -0.3678 -0.1237 -0.0750
27485SOL    HW184897   4.447   4.872   0.412 -0.3150 -0.5493  0.8299
27485SOL    HW284898   4.374   4.921   0.535 -0.4085  1.4983  0.0087
27486SOL     OW84899   9.493   4.243   7.292  0.7369  0.3401  0.2767
27486SOL    HW184900   9.572   4.212   7.336  0.7528  0.0170  0.0172
27486SOL    HW284901   9.484   4.187   7.215  0.2089  0.3169  0.3504
27487SOL     OW84902   2.969   0.132   5.128 -0.2506 -1.0101  0.3970
27487SOL    HW184903   2.954   0.222   5.155 -1.3237 -1.0544 -0.0223
27487SOL    HW284904   3.049   0.137   5.075  0.6468 -0.5958  1.7287
27488SOL     OW84905   7.399   7.720   7.905  0.1961  0.3174 -0.1759
27488SOL    HW184906   7.411   7.625   7.912  0.1509  0.2372 -1.0950
27488SOL    HW284907   7.484   7.757   7.931 -0.0224  0.0736  0.9606
27489SOL     OW84908   7.915   7.135   8.754  0.5912  0.5007 -0.2574
27489SOL    HW184909   7.893   7.053   8.799  2.1425 -0.5846 -1.3890
27489SOL    HW284910   7.988   7.171   8.805  1.8734 -0.3662 -1.4120
27490SOL     OW84911   6.900   0.452   6.672  0.6540 -0.2038 -0.1216
27490SOL    HW184912   6.896   0.524   6.609 -1.2595  0.1917  0.3766
27490SOL    HW284913   6.842   0.385   6.636 -0.5744  0.0847  1.2420
27491SOL     OW84914   0.252   1.144   7.010 -0.0983  0.9891 -0.3397
27491SOL    HW184915   0.167   1.101   7.024  0.2352  0.8542  1.5723
27491SOL    HW284916   0.257   1.210   7.079  2.0979 -0.2295  0.7796
27492SOL     OW84917   2.897   8.217   0.492  0.1789  0.4418  0.1995
27492SOL    HW184918   2.940   8.135   0.468 -0.2398 -0.3023  1.8616
27492SOL    HW284919   2.942   8.245   0.572 -1.3037  0.5095  1.0430
27493SOL     OW84920   4.594   7.427   1.368  0.2109  0.5594  0.8755
27493SOL    HW184921   4.608   7.419   1.462  1.6071 -0.9202  0.5803
27493SOL    HW284922   4.668   7.381   1.328  0.2580  2.0889 -0.9780
27494SOL     OW84923   4.124   4.311   7.542  0.2809 -0.3556  0.1364
27494SOL    HW184924   4.101   4.403   7.548 -0.0516 -0.3431 -0.9567
27494SOL    HW284925   4.151   4.299   7.450  1.4678 -1.0869  0.5549
27495SOL     OW84926   0.045   0.755   9.533  0.4189 -0.5331  0.1320
27495SOL    HW184927  -0.022   0.686   9.535  1.1355 -1.2991 -0.9741
27495SOL    HW284928   0.096   0.742   9.613 -0.1051 -0.6063  0.4571
27496SOL     OW84929   9.361   6.750   0.552  0.1658 -0.4836 -0.1671
27496SOL    HW184930   9.318   6.761   0.636  2.1062  2.1564  0.6218
27496SOL    HW284931   9.384   6.657   0.548 -1.1229 -0.9303  1.5761
27497SOL     OW84932   8.255   9.158   1.156 -0.3129  0.2106  0.0427
27497SOL    HW184933   8.165   9.162   1.121 -0.6046  1.6594  0.8980
27497SOL    HW284934   8.268   9.243   1.197  2.0690  0.6823 -1.5081
27498SOL     OW84935   2.448   2.318   0.015 -0.1434 -0.6742  0.3954
27498SOL    HW184936   2.427   2.234   0.057 -1.8958 -0.0737  0.8318
27498SOL    HW284937   2.438   2.301  -0.078  1.4189 -1.4060  0.3174
27499SOL     OW84938   9.103   5.544   0.889  0.4245 -0.6987  0.1575
27499SOL    HW184939   9.121   5.537   0.795  0.3357  1.2743 -0.0557
27499SOL    HW284940   9.176   5.498   0.931  2.0900  0.8208 -0.8624
27500SOL     OW84941   3.801   4.116   5.230  0.2869 -0.2512 -0.0099
27500SOL    HW184942   3.773   4.203   5.199  0.8022  0.3983  1.2801
27500SOL    HW284943   3.863   4.087   5.163  0.0853  0.3476 -0.4790
27501SOL     OW84944   2.585   3.607   7.186 -0.0893 -0.2874  0.4371
27501SOL    HW184945   2.597   3.597   7.092  0.4683  0.2288  0.4479
27501SOL    HW284946   2.625   3.529   7.224 -0.6691 -0.6889  0.2262
27502SOL     OW84947   2.993   4.555   3.325 -0.3258  0.0433 -0.3674
27502SOL    HW184948   3.081   4.534   3.293 -0.7976 -0.8138 -1.1484
27502SOL    HW284949   2.978   4.646   3.298  0.0182 -0.0606 -0.9156
27503SOL     OW84950   2.550   1.630   4.946  0.1364  0.4058  0.3280
27503SOL    HW184951   2.583   1.602   5.032 -0.8255 -1.1483  0.2251
27503SOL    HW284952   2.613   1.697   4.917  1.0120  0.2698  1.8093
27504SOL     OW84953   8.255   3.336   3.635 -0.6054 -0.4585  0.0240
27504SOL    HW184954   8.223   3.422   3.663 -0.6242 -0.4012 -0.1645
27504SOL    HW284955   8.334   3.321   3.687 -1.0031 -0.6521  0.5692
27505SOL     OW84956   0.442   3.305   9.796 -0.1176 -0.2726 -0.9709
27505SOL    HW184957   0.494   3.372   9.842 -1.5580 -0.3146  0.8204
27505SOL    HW284958   0.505   3.263   9.737  1.9630 -0.4437  1.2131
27506SOL     OW84959   7.184   7.858   1.590  0.2688  0.0945  0.6003
27506SOL    HW184960   7.262   7.802   1.597  0.1280  0.0421  2.1356
27506SOL    HW284961   7.128   7.830   1.662 -1.1143  0.2528 -0.3727
27507SOL     OW84962   8.596   9.767   8.633  0.4413  0.3858  0.0227
27507SOL    HW184963   8.606   9.675   8.658 -0.1140 -0.1028 -1.4543
27507SOL    HW284964   8.679   9.808   8.658  0.6914 -0.5043  0.7031
27508SOL     OW84965   9.396   7.918   6.166  0.2777 -0.2066 -0.3557
27508SOL    HW184966   9.338   7.843   6.182 -0.7794  0.7400  0.4415
27508SOL    HW284967   9.377   7.944   6.076 -0.0070 -0.3600 -0.3429
27509SOL     OW84968   0.426   1.126   6.752  0.0298  0.0640  0.0518
27509SOL    HW184969   0.439   1.034   6.726 -0.3367  0.1848 -0.5851
27509SOL    HW284970   0.504   1.171   6.720 -1.0124  0.4504 -2.0765
27510SOL     OW84971   5.146   0.851   3.000  0.5899  0.1774  0.6132
27510SOL    HW184972   5.133   0.774   2.945  2.0194  0.1872  0.2172
27510SOL    HW284973   5.123   0.925   2.944 -1.1221  0.0535  1.1047
27511SOL     OW84974   0.764   2.709   4.252  0.2906  0.0386  0.2464
27511SOL    HW184975   0.832   2.752   4.200  0.5210  0.5566  0.9649
27511SOL    HW284976   0.735   2.777   4.313 -0.0453 -0.5401  0.7275
27512SOL     OW84977   1.878   7.551   6.967  0.5748  0.2462 -0.0794
27512SOL    HW184978   1.829   7.562   6.885  1.3811 -2.5286 -1.0516
27512SOL    HW284979   1.911   7.639   6.986  0.0748  1.0717 -2.5371
27513SOL     OW84980   5.133   8.748   5.149 -0.2075  0.2639  0.3459
27513SOL    HW184981   5.070   8.769   5.081  0.7631  0.4996 -0.4959
27513SOL    HW284982   5.210   8.800   5.128  0.2305  0.0884  1.4368
27514SOL     OW84983   7.653   3.766   4.519 -0.2605 -0.0748  0.4984
27514SOL    HW184984   7.719   3.747   4.452 -0.1446 -1.7613  1.0454
27514SOL    HW284985   7.573   3.783   4.469 -0.4632 -2.4634 -0.0973
27515SOL     OW84986   8.210   6.483   8.876  0.1242  0.3143 -0.5617
27515SOL    HW184987   8.288   6.484   8.932  0.1860  2.2984 -0.6401
27515SOL    HW284988   8.137   6.478   8.938  0.2568 -0.4334 -0.4481
27516SOL     OW84989   9.397   1.905   4.524  0.3674  0.5539  0.0299
27516SOL    HW184990   9.304   1.923   4.538  0.3262 -0.0969  0.6484
27516SOL    HW284991   9.441   1.987   4.550 -0.0280  0.8784 -0.3106
27517SOL     OW84992   0.804  10.407   3.214  0.1783 -0.1775  0.4559
27517SOL    HW184993   0.820  10.463   3.138  1.7341  0.1335  0.9905
27517SOL    HW284994   0.794  10.319   3.178  1.9097 -0.1876 -0.0421
27518SOL     OW84995   1.944   8.881   1.051  0.5240 -0.1877 -0.0797
27518SOL    HW184996   1.892   8.961   1.058  2.4840  1.0881  0.7695
27518SOL    HW284997   1.922   8.846   0.964 -2.2665 -0.1787  0.5201
27519SOL     OW84998   8.791  10.378   7.256  0.2755 -0.3594  0.3944
27519SOL    HW184999   8.860  10.380   7.323  1.9588  0.0143 -1.2479
27519SOL    HW285000   8.804  10.459   7.206 -1.5815 -0.1417  0.2165
27520SOL     OW85001   6.576   7.390   3.778  0.5931 -0.0998 -0.6668
27520SOL    HW185002   6.634   7.314   3.780 -0.2386 -0.7673 -1.4344
27520SOL    HW285003   6.510   7.373   3.845  0.5075  0.0322 -0.7150
27521SOL     OW85004   9.853   1.454   0.932 -0.9528 -0.4165 -0.5088
27521SOL    HW185005   9.781   1.516   0.918 -0.4542  0.2679 -0.1119
27521SOL    HW285006   9.928   1.509   0.957 -0.8352 -1.2546  1.1574
27522SOL     OW85007   5.754   0.301   5.225  0.0382 -0.4427 -0.2337
27522SOL    HW185008   5.683   0.359   5.255  0.7244  0.2729  0.0362
27522SOL    HW285009   5.832   0.334   5.269  0.5567 -1.1836 -0.5839
27523SOL     OW85010   0.061   9.126   3.451  0.2260  0.1241 -0.3137
27523SOL    HW185011   0.071   9.194   3.517 -0.0401 -0.5662  0.4562
27523SOL    HW285012  -0.032   9.103   3.454  0.3078 -0.2517 -0.5808
27524SOL     OW85013   3.001   0.568   8.704 -0.0735  0.3328 -0.1917
27524SOL    HW185014   2.919   0.607   8.673  1.0022  1.3945 -1.8708
27524SOL    HW285015   3.013   0.490   8.651  0.1505  0.3516 -0.1724
27525SOL     OW85016   5.698   4.889   4.941 -0.1645 -0.1279 -0.4165
27525SOL    HW185017   5.666   4.838   5.016 -0.1931  1.8397  0.9987
27525SOL    HW285018   5.627   4.952   4.923  0.4270  0.3382 -1.1675
27526SOL     OW85019   2.630   5.349   0.851  0.4605  0.7038  0.0374
27526SOL    HW185020   2.536   5.358   0.865  0.2894 -0.7944 -0.0056
27526SOL    HW285021   2.664   5.439   0.855 -1.2328  1.4928 -1.9255
27527SOL     OW85022   4.652   5.864   6.245  0.0113 -0.5212 -0.4616
27527SOL    HW185023   4.563   5.898   6.246  0.1358 -0.1552  1.0264
27527SOL    HW285024   4.703   5.927   6.296  0.7384 -1.6556  0.2698
27528SOL     OW85025   7.813   2.598   2.865  0.3364  0.4451  0.1371
27528SOL    HW185026   7.897   2.638   2.842  0.8600 -1.1978 -0.9756
27528SOL    HW285027   7.758   2.672   2.892  2.0978  1.5659  0.8245
27529SOL     OW85028   4.956   0.382   5.588  0.1397 -0.0715 -0.3103
27529SOL    HW185029   4.922   0.444   5.654  0.4504 -0.9935  0.7522
27529SOL    HW285030   4.952   0.297   5.632  2.6534 -0.3863 -0.5829
27530SOL     OW85031  10.085   1.030   4.025  0.6128 -0.0925 -0.2638
27530SOL    HW185032  10.004   1.081   4.020 -0.3510 -1.4598  0.7213
27530SOL    HW285033  10.151   1.086   3.985  0.0416  2.7506  2.4628
27531SOL     OW85034   4.855   6.859   2.493  0.0996  0.1257  0.3236
27531SOL    HW185035   4.893   6.885   2.576  0.2479  1.3427 -0.1091
27531SOL    HW285036   4.904   6.780   2.468  0.2081 -0.1101  1.2674
27532SOL     OW85037   0.190   9.015   4.187  0.2635  0.0682  0.2630
27532SOL    HW185038   0.135   9.008   4.265 -1.3840  2.6994 -0.5212
27532SOL    HW285039   0.133   8.988   4.115 -0.1189  2.7618 -0.5586
27533SOL     OW85040   5.769   2.472   7.634  0.3860 -0.0087  0.4602
27533SOL    HW185041   5.799   2.449   7.721 -1.9628 -1.5526  0.9381
27533SOL    HW285042   5.822   2.418   7.575  0.1745 -0.9443  1.1092
27534SOL     OW85043   1.750   2.443  10.228 -0.4150  0.2931 -0.2495
27534SOL    HW185044   1.666   2.487  10.242 -0.7291 -0.2102 -0.5195
27534SOL    HW285045   1.786   2.485  10.150 -1.0014 -0.3332 -0.8775
27535SOL     OW85046   2.272   5.694   0.784 -0.7519 -0.2831 -0.0305
27535SOL    HW185047   2.334   5.675   0.714 -0.9016 -0.5569 -0.0920
27535SOL    HW285048   2.267   5.790   0.787 -2.1726 -0.2422 -1.6854
27536SOL     OW85049   7.151   9.645   6.266 -0.1659 -0.0807 -0.0144
27536SOL    HW185050   7.201   9.724   6.243  0.3890  0.3193  2.2891
27536SOL    HW285051   7.072   9.650   6.213  0.8487  0.8574 -1.5349
27537SOL     OW85052   9.436   9.845   2.337  0.2592 -0.1258 -0.4867
27537SOL    HW185053   9.394   9.893   2.265  0.6968 -0.1529 -0.7651
27537SOL    HW285054   9.504   9.904   2.369 -1.6493  1.0275  1.7173
27538SOL     OW85055   2.601   9.472  10.384 -0.1507 -0.1036 -0.0163
27538SOL    HW185056   2.547   9.544  10.414 -0.4684 -1.0928  1.9443
27538SOL    HW285057   2.670   9.513  10.332 -0.8129  1.5115  0.3480
27539SOL     OW85058   1.974   2.666   0.366  0.2413  0.2234  0.1445
27539SOL    HW185059   2.010   2.743   0.409  2.7704 -1.0906  0.6093
27539SOL    HW285060   2.000   2.675   0.274  0.5944 -0.0748  0.2113
27540SOL     OW85061   0.262   7.763   3.999  0.3000  0.2253  0.0848
27540SOL    HW185062   0.238   7.692   4.059  3.1361 -0.9349  0.0003
27540SOL    HW285063   0.348   7.737   3.965  0.2235  2.4409 -2.0167
27541SOL     OW85064   0.343   4.698   6.573  0.2323  0.7696  0.1968
27541SOL    HW185065   0.317   4.758   6.503  1.1449  1.1712  0.1823
27541SOL    HW285066   0.408   4.747   6.623  3.1031 -1.0900 -1.4414
27542SOL     OW85067  10.485   2.773   0.945  0.6844 -0.0294  0.2749
27542SOL    HW185068  10.576   2.744   0.945  0.7146  0.0641  0.4721
27542SOL    HW285069  10.441   2.711   1.003  0.7833  0.4283  0.8401
27543SOL     OW85070   4.798   9.870   9.990 -0.0631  0.6796 -1.0951
27543SOL    HW185071   4.732   9.937  10.009  0.4355  1.4641 -2.0707
27543SOL    HW285072   4.877   9.920   9.968  1.4936 -0.1975  1.9010
27544SOL     OW85073   2.866   9.341   2.850  0.0105  0.3373  0.1477
27544SOL    HW185074   2.795   9.372   2.794  1.0809 -0.2349 -1.6198
27544SOL    HW285075   2.910   9.274   2.798  1.4683  0.2155  1.4489
27545SOL     OW85076   4.715   4.039   3.614  0.5133  0.2071  0.4252
27545SOL    HW185077   4.755   4.077   3.692 -0.8961 -0.5288  1.5534
27545SOL    HW285078   4.776   3.971   3.586  1.2172  0.7400  0.6511
27546SOL     OW85079   5.922   2.526   9.304 -0.6326 -0.2749  0.1338
27546SOL    HW185080   5.995   2.473   9.335 -0.6454 -0.1865  0.3211
27546SOL    HW285081   5.928   2.522   9.209 -0.3124 -0.1726  0.1477
27547SOL     OW85082   5.329   6.076   4.551 -0.3593  0.4007 -0.6769
27547SOL    HW185083   5.391   6.124   4.496 -0.9552  0.2099 -1.5396
27547SOL    HW285084   5.324   6.127   4.631 -0.1326  1.1695 -1.1380
27548SOL     OW85085   9.676   7.315   6.552 -0.2506  0.2306 -0.3069
27548SOL    HW185086   9.674   7.408   6.572 -1.8334  0.7293 -2.4548
27548SOL    HW285087   9.728   7.308   6.472  1.2458 -0.9844  0.7018
27549SOL     OW85088   9.720   0.868   6.810 -0.0276  0.2793 -0.2876
27549SOL    HW185089   9.702   0.895   6.720 -1.3532  1.4654  0.2778
27549SOL    HW285090   9.815   0.857   6.814  0.9245  5.5226 -0.5684
27550SOL     OW85091   2.812   7.342   7.250  0.2587 -0.2371 -0.0600
27550SOL    HW185092   2.854   7.378   7.172  0.5352  1.0588  0.6729
27550SOL    HW285093   2.884   7.318   7.307  0.0601 -1.3940 -0.2667
27551SOL     OW85094   1.852   1.325   9.327 -0.5675 -0.2696  0.3881
27551SOL    HW185095   1.920   1.260   9.345  0.5986  1.2004  1.5148
27551SOL    HW285096   1.796   1.283   9.261  2.2078 -1.0319 -1.6754
27552SOL     OW85097   3.598  10.459   5.320  0.7008  0.3558 -0.7520
27552SOL    HW185098   3.558  10.529   5.372 -1.8738 -0.0974 -1.9330
27552SOL    HW285099   3.661  10.418   5.379 -0.7166  1.0407  1.3662
27553SOL     OW85100   0.440   2.432   7.399  0.0098 -0.2910 -0.1296
27553SOL    HW185101   0.366   2.377   7.374 -0.1768 -0.2335  0.2705
27553SOL    HW285102   0.482   2.456   7.317 -1.9254  1.7734 -0.6081
27554SOL     OW85103   6.001   0.081   1.903 -0.6524 -0.6962  0.2483
27554SOL    HW185104   5.950   0.162   1.900  0.4265 -0.0241 -0.3806
27554SOL    HW285105   6.053   0.088   1.983 -2.0179 -1.7113  1.2858
27555SOL     OW85106   7.604   2.107   1.528 -0.3975  0.5364 -0.7331
27555SOL    HW185107   7.698   2.121   1.538 -0.3619 -0.0984 -0.1552
27555SOL    HW285108   7.595   2.016   1.501 -0.8417  0.6245 -0.8950
27556SOL     OW85109   9.085   3.923   8.705  0.6242 -0.2333  0.2865
27556SOL    HW185110   9.163   3.974   8.727  0.3431  0.4057 -0.1656
27556SOL    HW285111   9.072   3.939   8.612  0.0337 -0.4401  0.3301
27557SOL     OW85112   7.937   2.072   6.607  0.0728 -0.2086  0.0732
27557SOL    HW185113   8.015   2.120   6.578  0.9416 -1.1540  0.8080
27557SOL    HW285114   7.956   2.046   6.697 -1.0567 -0.5395  0.2313
27558SOL     OW85115   8.617   1.156   2.193 -0.2674 -0.3592 -0.5759
27558SOL    HW185116   8.612   1.085   2.129 -1.5239 -0.6084 -0.2250
27558SOL    HW285117   8.527   1.170   2.221  0.1426  0.3959  0.4357
27559SOL     OW85118   8.041   6.076   5.955  0.5059  0.9310  0.5111
27559SOL    HW185119   7.991   6.020   6.014  0.6574  1.0888  0.7875
27559SOL    HW285120   7.978   6.140   5.924 -0.0852 -0.3279 -1.0541
27560SOL     OW85121   2.765   9.263   3.323  0.2516 -0.1813 -0.4904
27560SOL    HW185122   2.679   9.229   3.297  0.7067 -0.8359 -1.2169
27560SOL    HW285123   2.786   9.329   3.257  0.5970 -0.5078 -0.7126
27561SOL     OW85124   6.747   5.799  10.475 -0.0079 -0.4356  0.1408
27561SOL    HW185125   6.689   5.734  10.435 -0.4103 -0.0723  0.1322
27561SOL    HW285126   6.701   5.829  10.553  1.4168 -2.2465  1.8031
27562SOL     OW85127   6.804   4.943   3.815 -0.0065 -0.0844  0.1328
27562SOL    HW185128   6.885   4.917   3.772 -0.3036 -1.9262  0.5960
27562SOL    HW285129   6.829   4.959   3.906  0.7476  4.4240 -0.6191
27563SOL     OW85130   2.921   7.445   5.966 -0.3940 -0.0403 -0.0667
27563SOL    HW185131   2.948   7.534   5.988 -1.3626  0.3340 -0.3611
27563SOL    HW285132   2.876   7.453   5.882 -0.6162 -0.7815 -0.0242
27564SOL     OW85133   2.532   2.498   6.676  0.7946 -0.2767  0.3120
27564SOL    HW185134   2.548   2.469   6.586  1.7738 -2.4801  1.1139
27564SOL    HW285135   2.551   2.592   6.674  1.6323 -0.4261 -1.5922
27565SOL     OW85136   7.068   6.795  10.295 -0.2168  0.1382 -0.1825
27565SOL    HW185137   7.129   6.728  10.263  0.9471  0.8940  0.3641
27565SOL    HW285138   7.113   6.878  10.280 -1.4099  0.7748 -0.3578
27566SOL     OW85139   8.480   3.612   6.982  0.2680  0.5997 -0.3214
27566SOL    HW185140   8.410   3.662   6.939 -0.3240  1.7347  1.8314
27566SOL    HW285141   8.560   3.642   6.939 -0.3578  1.0060 -1.2475
27567SOL     OW85142   5.097   1.197   4.964  0.1967  0.7759 -0.0900
27567SOL    HW185143   5.125   1.224   5.052 -0.0867 -0.0490  0.2578
27567SOL    HW285144   5.109   1.102   4.963 -0.9426  0.6237 -0.5275
27568SOL     OW85145   5.848   8.429   7.205 -0.8519  0.3476  0.2850
27568SOL    HW185146   5.789   8.432   7.279 -2.2573 -0.1658 -0.7649
27568SOL    HW285147   5.907   8.356   7.224 -0.1477  1.2227  1.6030
27569SOL     OW85148   1.919   8.403   4.973 -0.1093 -0.1177 -0.2212
27569SOL    HW185149   1.955   8.317   4.951  1.9571  0.3914  0.9193
27569SOL    HW285150   1.909   8.401   5.068  0.7199  1.1619 -0.0890
27570SOL     OW85151   8.477   5.163   6.286 -0.3770 -0.5017  0.2202
27570SOL    HW185152   8.505   5.074   6.263 -1.7568 -1.1063  0.7756
27570SOL    HW285153   8.501   5.173   6.378 -0.2236 -0.2943  0.1584
27571SOL     OW85154   7.558   7.146   9.705  0.3478 -0.1899  0.4485
27571SOL    HW185155   7.498   7.110   9.770  0.6696 -1.1222  0.2428
27571SOL    HW285156   7.629   7.082   9.699  0.4078 -0.0360 -0.6954
27572SOL     OW85157   3.914   3.829   2.862  0.3530  0.6934  0.6665
27572SOL    HW185158   3.902   3.765   2.791 -1.2985 -0.4759  1.9269
27572SOL    HW285159   4.009   3.843   2.865  0.7371 -1.4346  0.1130
27573SOL     OW85160   1.537   0.452   1.070  0.2298 -0.4501 -0.0709
27573SOL    HW185161   1.617   0.457   1.017 -0.0671 -1.1014 -0.5912
27573SOL    HW285162   1.473   0.505   1.022 -0.3140 -1.7857 -0.8946
27574SOL     OW85163  10.341   4.416   5.987  0.8005 -0.1361 -0.6692
27574SOL    HW185164  10.401   4.488   6.004  0.7934 -0.4230  0.7274
27574SOL    HW285165  10.355   4.356   6.060 -1.4880  0.0009 -0.0436
27575SOL     OW85166   3.481   4.732   7.703 -0.3563 -0.0902 -0.6620
27575SOL    HW185167   3.489   4.758   7.611 -1.3538  0.0207 -0.7332
27575SOL    HW285168   3.472   4.815   7.751  0.3936 -0.1347 -0.4269
27576SOL     OW85169   7.256   5.590   9.367 -0.1304 -0.1146  0.2721
27576SOL    HW185170   7.334   5.535   9.378 -1.2779 -1.3725  3.4328
27576SOL    HW285171   7.276   5.670   9.416 -0.0202  0.5290 -0.8078
27577SOL     OW85172   8.193   6.070   2.430 -0.5657 -0.5394 -0.7082
27577SOL    HW185173   8.240   6.021   2.498  0.2400  0.1850 -0.7321
27577SOL    HW285174   8.251   6.069   2.354 -0.7809 -0.0245 -0.8872
27578SOL     OW85175   1.790   0.019   9.469 -0.7367  0.0908  0.1447
27578SOL    HW185176   1.758  -0.063   9.431  3.3464 -1.1521 -1.0699
27578SOL    HW285177   1.758   0.018   9.560 -1.9034 -2.1419 -0.2332
27579SOL     OW85178   3.793   0.858   6.757  0.6038  0.4059  0.0085
27579SOL    HW185179   3.779   0.842   6.664  1.3416  2.6384 -0.5507
27579SOL    HW285180   3.842   0.781   6.788  2.7895  0.8331 -2.0998
27580SOL     OW85181   3.585   4.215   2.905 -0.0129  0.0087 -0.0096
27580SOL    HW185182   3.646   4.158   2.857  2.4832 -0.0653  2.9289
27580SOL    HW285183   3.635   4.296   2.918 -1.5945  0.9739  0.2210
27581SOL     OW85184   6.273   2.127   2.840  0.0237 -0.2781 -0.2696
27581SOL    HW185185   6.261   2.036   2.813 -1.3215 -0.5561  1.1005
27581SOL    HW285186   6.184   2.162   2.846  0.4787  0.8748  0.0617
27582SOL     OW85187   8.819   0.690   0.926 -0.0601  0.0840 -0.2944
27582SOL    HW185188   8.804   0.756   0.858  1.3292  0.0934 -0.6276
27582SOL    HW285189   8.864   0.619   0.881  1.8603  0.5424  0.7916
27583SOL     OW85190   8.098   3.524   7.148 -0.0005 -0.0600  0.2685
27583SOL    HW185191   8.016   3.475   7.143 -0.6948  1.1011 -0.1079
27583SOL    HW285192   8.132   3.523   7.058  0.4205 -0.5805  0.4345
27584SOL     OW85193   1.990   5.170   9.318  0.2956  0.0296 -0.1396
27584SOL    HW185194   1.994   5.242   9.381 -0.0254 -0.4141  0.3844
27584SOL    HW285195   1.932   5.203   9.249 -0.5367 -0.0487  0.5131
27585SOL     OW85196  10.432   1.186   6.705  0.4103  0.4428  0.3892
27585SOL    HW185197  10.348   1.140   6.703  0.9204 -0.5253  0.7617
27585SOL    HW285198  10.448   1.209   6.613 -0.5383  1.1849  0.3837
27586SOL     OW85199   1.416   4.746   3.848  0.5037 -0.0005  0.7529
27586SOL    HW185200   1.383   4.779   3.931  1.5465  0.4459  1.0149
27586SOL    HW285201   1.511   4.739   3.861  0.5300 -1.2725  0.0637
27587SOL     OW85202   7.198   8.727   5.654  0.0092 -0.6051  0.1408
27587SOL    HW185203   7.151   8.696   5.576  1.6210 -0.5577 -0.9158
27587SOL    HW285204   7.278   8.673   5.656  0.8746  0.6489  0.6912
27588SOL     OW85205   7.531   3.631   6.281  0.1017  0.2095  0.7111
27588SOL    HW185206   7.603   3.653   6.222 -0.2181 -0.1006  0.1976
27588SOL    HW285207   7.487   3.714   6.298 -0.5565  0.1242 -0.4934
27589SOL     OW85208   9.306   2.099   1.873 -0.0829 -0.2641 -0.0912
27589SOL    HW185209   9.379   2.158   1.895 -0.2257  0.4974 -1.5191
27589SOL    HW285210   9.317   2.082   1.780 -1.8129 -0.0181 -0.3690
27590SOL     OW85211   5.498   0.921   3.825  0.1596 -0.0313 -0.2306
27590SOL    HW185212   5.469   0.833   3.799 -2.0655  0.5706 -0.0351
27590SOL    HW285213   5.430   0.951   3.886  0.1739  2.2822 -1.2560
27591SOL     OW85214   2.819   3.971   0.920  0.1573  0.4311  0.1370
27591SOL    HW185215   2.816   4.066   0.908  0.7028  0.7686  2.2482
27591SOL    HW285216   2.874   3.940   0.848  0.3999  1.7842 -0.3018
27592SOL     OW85217   6.824   6.452   2.607  0.2139  0.2327 -0.0221
27592SOL    HW185218   6.859   6.365   2.588 -0.8446 -0.4007  0.8548
27592SOL    HW285219   6.820   6.457   2.702  0.4354  1.3276 -0.0524
27593SOL     OW85220   4.112   5.998   8.012 -0.4353 -0.6091  0.3658
27593SOL    HW185221   4.194   6.003   8.061 -0.4550  0.5150  0.3036
27593SOL    HW285222   4.088   5.905   8.014  0.5324 -0.8557  0.8791
27594SOL     OW85223   1.050   5.669   1.555  0.4489 -0.3015 -0.0126
27594SOL    HW185224   0.969   5.682   1.605  0.0551  0.6418 -0.8543
27594SOL    HW285225   1.035   5.718   1.473  1.7391 -0.3971 -0.3173
27595SOL     OW85226   6.255   0.434   3.204 -0.2539 -0.0446 -0.5837
27595SOL    HW185227   6.257   0.499   3.274 -1.6664 -0.8044  0.2221
27595SOL    HW285228   6.331   0.379   3.220 -0.3484  0.0196  0.1452
27596SOL     OW85229   4.557   7.577   4.892 -0.1867 -0.3855  0.6007
27596SOL    HW185230   4.508   7.525   4.955 -0.3801 -0.1847  0.6212
27596SOL    HW285231   4.648   7.567   4.917 -0.1843 -1.0742  0.3315
27597SOL     OW85232   1.948   5.689   7.253 -0.3283  0.6697 -0.4199
27597SOL    HW185233   1.996   5.653   7.328 -0.2118  1.0291 -0.3185
27597SOL    HW285234   2.002   5.764   7.224  0.1378 -0.0456 -1.4674
27598SOL     OW85235   5.614   5.598   5.232  0.1153 -0.0390  0.1717
27598SOL    HW185236   5.673   5.575   5.160  0.4566  0.7694  0.1779
27598SOL    HW285237   5.550   5.657   5.192 -0.0692 -0.0850  0.3959
27599SOL     OW85238   1.492   6.888  10.483  0.0846 -0.2369  0.4378
27599SOL    HW185239   1.490   6.793  10.473  0.2418 -0.2016  0.0559
27599SOL    HW285240   1.583   6.912  10.468  0.1398 -0.0730  1.0046
27600SOL     OW85241   3.870   7.602   5.456 -0.1949 -0.2573 -0.6512
27600SOL    HW185242   3.886   7.641   5.371  0.6220  0.0863 -0.3496
27600SOL    HW285243   3.778   7.573   5.453 -1.2003  2.6158 -0.5153
27601SOL     OW85244   1.883   7.870   0.755 -0.1544 -0.6889  0.3873
27601SOL    HW185245   1.943   7.870   0.680  0.9945 -0.1194  1.2747
27601SOL    HW285246   1.817   7.805   0.733  1.5973 -2.4330 -0.0029
27602SOL     OW85247   6.483   3.728   5.896  0.1736 -0.1730 -0.2343
27602SOL    HW185248   6.570   3.727   5.937 -0.5384  0.9291  1.3990
27602SOL    HW285249   6.464   3.821   5.882 -1.7020 -0.1770  1.6939
27603SOL     OW85250   8.990   3.553   2.563 -0.6761  0.3307  0.6941
27603SOL    HW185251   8.987   3.631   2.618  3.5357  2.2229 -1.3088
27603SOL    HW285252   9.028   3.486   2.619  0.3305  1.2177  1.0980
27604SOL     OW85253   8.054   8.812   9.267  0.1781 -0.2398 -0.5121
27604SOL    HW185254   8.129   8.872   9.260  0.7187 -0.9858 -1.3370
27604SOL    HW285255   8.011   8.838   9.349  2.5222 -1.1108  1.1073
27605SOL     OW85256   3.414   9.449   6.713  0.2942 -0.0572  0.0006
27605SOL    HW185257   3.431   9.379   6.649 -0.6089 -0.8294  0.5849
27605SOL    HW285258   3.325   9.432   6.744 -0.0763  1.5670 -0.0994
27606SOL     OW85259   6.020   7.343   8.699 -0.0100  0.5785  1.1071
27606SOL    HW185260   6.016   7.378   8.788  1.3195  1.0194  1.0135
27606SOL    HW285261   6.105   7.372   8.666 -0.1863 -0.1795 -0.0571
27607SOL     OW85262   2.829   4.778   4.570 -0.3708  0.2490  0.6087
27607SOL    HW185263   2.865   4.765   4.657  1.2649  0.0082 -0.0689
27607SOL    HW285264   2.897   4.827   4.523 -0.7879 -0.4921 -0.8246
27608SOL     OW85265   9.687   2.831   9.607 -0.0601  0.1029  0.7147
27608SOL    HW185266   9.762   2.772   9.597 -0.0164  0.4077 -1.1305
27608SOL    HW285267   9.723   2.911   9.644  0.7323  0.5735 -0.9976
27609SOL     OW85268   7.120   2.682   0.645 -0.4712  0.1197  0.2782
27609SOL    HW185269   7.186   2.641   0.700  0.0078  1.1618  0.5042
27609SOL    HW285270   7.038   2.668   0.692 -0.2443 -0.1313  0.6046
27610SOL     OW85271   2.470   7.182   2.249 -0.3855  0.1485 -0.1378
27610SOL    HW185272   2.554   7.136   2.247 -0.7090 -0.5450  1.0649
27610SOL    HW285273   2.433   7.160   2.335 -2.0863 -0.0620 -0.8887
27611SOL     OW85274   5.929   0.504   2.596 -0.1944 -0.1163 -0.6980
27611SOL    HW185275   5.919   0.586   2.645 -0.8208  0.0034 -1.0088
27611SOL    HW285276   6.021   0.502   2.571 -0.4104  1.0944 -1.7144
27612SOL     OW85277   4.044   4.944   3.135 -0.3487  0.0107  0.1286
27612SOL    HW185278   3.983   5.013   3.163 -0.6205  0.0180 -0.4712
27612SOL    HW285279   4.062   4.895   3.215 -0.4596  0.5362  0.4875
27613SOL     OW85280   8.926   2.249   5.898  0.0212 -0.0163  0.5985
27613SOL    HW185281   9.014   2.211   5.898  0.8118  1.7018  0.2694
27613SOL    HW285282   8.933   2.326   5.956 -0.7033  1.2757 -0.9471
27614SOL     OW85283   8.030   3.048   5.401  0.3362 -0.3555  0.2391
27614SOL    HW185284   8.120   3.077   5.384  0.8720 -1.6588  0.6958
27614SOL    HW285285   7.995   3.115   5.460  1.3556 -0.3319  0.8564
27615SOL     OW85286   1.598   7.737   7.111 -0.1930  0.6297 -0.3288
27615SOL    HW185287   1.600   7.642   7.121  1.4213  0.7006  0.4025
27615SOL    HW285288   1.519   7.754   7.060 -1.5646 -0.9123  1.1651
27616SOL     OW85289   9.383   8.024   6.834 -0.6510  0.0035  0.5462
27616SOL    HW185290   9.396   7.943   6.785 -0.0343  1.3496 -1.6391
27616SOL    HW285291   9.315   8.071   6.786  0.5460  1.7374  0.4647
27617SOL     OW85292   6.612   7.569   3.292  0.1406 -0.2474 -0.1981
27617SOL    HW185293   6.614   7.505   3.362  1.1159 -0.5298 -0.4704
27617SOL    HW285294   6.524   7.607   3.296 -0.6954 -2.0748 -0.4636
27618SOL     OW85295   1.096   4.582   4.048  0.7782 -0.5565 -0.6213
27618SOL    HW185296   1.038   4.560   4.121  2.0673 -2.5633 -0.1066
27618SOL    HW285297   1.104   4.677   4.051 -2.6801 -0.1342 -0.9434
27619SOL     OW85298   5.011   5.810   4.739  0.3556 -0.2955 -0.8049
27619SOL    HW185299   5.050   5.846   4.819  1.4778  0.4184 -1.6545
27619SOL    HW285300   5.070   5.836   4.669 -0.3688 -1.3084 -1.8320
27620SOL     OW85301   0.658   7.781   0.905 -0.0774  0.0013  0.0905
27620SOL    HW185302   0.712   7.860   0.915 -0.8556  0.5521  0.0119
27620SOL    HW285303   0.680   7.727   0.981  1.5126 -0.3592 -0.5825
27621SOL     OW85304   9.010   3.639   8.461  0.1894  0.3472  0.2149
27621SOL    HW185305   9.002   3.734   8.449  0.9884  0.2141 -1.9569
27621SOL    HW285306   9.102   3.621   8.440 -0.3329 -1.0769 -0.9635
27622SOL     OW85307   1.444   0.363   7.385 -0.1490  0.0638  0.5691
27622SOL    HW185308   1.496   0.377   7.464 -0.4507 -0.5800  0.8912
27622SOL    HW285309   1.416   0.271   7.391  0.2875 -0.1459 -0.5643
27623SOL     OW85310   5.608   4.135   4.158  0.1154 -0.3189  0.7242
27623SOL    HW185311   5.528   4.175   4.123  1.4659  1.0310 -0.9839
27623SOL    HW285312   5.594   4.041   4.148 -1.2092 -0.1080  0.3752
27624SOL     OW85313   8.646   5.855   2.314  0.1788 -0.3022 -0.2124
27624SOL    HW185314   8.572   5.821   2.264  0.7424  0.5000 -1.6466
27624SOL    HW285315   8.684   5.923   2.258  0.6544  0.8703  1.4425
27625SOL     OW85316   5.019   6.560   0.884 -0.3682  0.1234 -0.0816
27625SOL    HW185317   5.089   6.612   0.924 -1.4057  0.5051  1.3343
27625SOL    HW285318   4.946   6.621   0.875 -0.7893 -0.4691 -0.7533
27626SOL     OW85319   3.126   6.138   4.237  0.5778  0.3820 -0.0300
27626SOL    HW185320   3.122   6.044   4.254 -1.2509  0.0968 -1.6739
27626SOL    HW285321   3.189   6.146   4.165  0.0953  0.3011 -0.4664
27627SOL     OW85322   6.014   5.068   9.416  0.0867  0.1727  0.0911
27627SOL    HW185323   6.029   5.017   9.336 -1.1471 -0.1690  0.0581
27627SOL    HW285324   5.920   5.064   9.430 -0.0232  2.3251  0.1971
27628SOL     OW85325   6.880   3.740   1.911  0.1811  0.1576  0.3885
27628SOL    HW185326   6.819   3.796   1.865  0.4728  0.2003  0.0500
27628SOL    HW285327   6.900   3.788   1.992 -1.6386 -0.6903  1.3882
27629SOL     OW85328   6.428   4.000   5.825 -0.2992 -0.2153  0.0767
27629SOL    HW185329   6.422   4.080   5.877  1.9320  0.4904 -0.6474
27629SOL    HW285330   6.441   4.030   5.735 -0.0784 -1.3976 -0.3037
27630SOL     OW85331   2.405   1.199   9.989  0.2206 -0.3262  0.3989
27630SOL    HW185332   2.393   1.289  10.018  1.3616 -0.1250  0.2602
27630SOL    HW285333   2.340   1.188   9.920  0.3496  0.5207  0.1290
27631SOL     OW85334   6.667   1.326   8.275 -0.1660 -0.6934 -0.2000
27631SOL    HW185335   6.604   1.362   8.337  1.1461  1.5856 -0.0641
27631SOL    HW285336   6.650   1.372   8.193  0.2784 -1.2144 -0.5943
27632SOL     OW85337   0.729   5.177   7.598 -0.3121  0.0506  0.6648
27632SOL    HW185338   0.698   5.122   7.670  0.8782  0.9753  1.9432
27632SOL    HW285339   0.817   5.145   7.580 -0.6107 -0.1956 -0.4376
27633SOL     OW85340   6.758   3.490   8.808 -0.1643  0.2429 -0.2376
27633SOL    HW185341   6.832   3.433   8.786 -1.4835 -1.3408 -0.8246
27633SOL    HW285342   6.774   3.571   8.759  1.1247 -0.0981 -0.4137
27634SOL     OW85343   9.317   7.870   8.758 -0.2350  0.8766  0.4471
27634SOL    HW185344   9.284   7.925   8.686 -0.4429  0.1805  0.0081
27634SOL    HW285345   9.240   7.849   8.810 -0.7139 -1.4387 -1.0381
27635SOL     OW85346   2.925   3.601   2.581 -0.1988 -0.5011 -0.2427
27635SOL    HW185347   2.987   3.581   2.511  2.1480 -1.3530  1.8908
27635SOL    HW285348   2.947   3.690   2.608  1.5948 -1.4422  1.7698
27636SOL     OW85349   0.775   4.633  10.097 -0.0372  0.1536  0.0549
27636SOL    HW185350   0.757   4.693  10.169  0.5328 -1.1926  1.3578
27636SOL    HW285351   0.737   4.550  10.124  1.1234 -0.6602 -0.6866
27637SOL     OW85352   6.790  10.363   4.859 -0.3056  0.1921  0.2177
27637SOL    HW185353   6.859  10.327   4.803 -1.7805 -0.2597 -1.3727
27637SOL    HW285354   6.796  10.458   4.846  0.4835  0.2283  0.7095
27638SOL     OW85355   1.811   7.835   4.770 -0.2592  0.1624  0.2327
27638SOL    HW185356   1.800   7.748   4.730 -1.9625  0.0939  0.7875
27638SOL    HW285357   1.869   7.820   4.844  0.5632 -0.2320 -0.4621
27639SOL     OW85358   4.269   3.464   0.721  0.2650 -0.2115  0.1053
27639SOL    HW185359   4.197   3.527   0.721 -0.0630 -0.5730  0.6033
27639SOL    HW285360   4.244   3.400   0.789  0.5018 -0.9675 -0.5004
27640SOL     OW85361   6.675   7.274   4.075 -0.2152  0.2853  0.0369
27640SOL    HW185362   6.737   7.232   4.135 -0.8507  0.5619  0.9077
27640SOL    HW285363   6.730   7.331   4.020  0.4805 -0.6259 -0.2393
27641SOL     OW85364  10.255   5.795   0.948  0.4445 -0.1358  0.3203
27641SOL    HW185365  10.338   5.842   0.947 -0.5454  1.7765  1.3517
27641SOL    HW285366  10.230   5.788   0.856 -0.1229  2.9396  0.1091
27642SOL     OW85367   3.119   3.199   4.983  0.2788  0.6619 -0.3771
27642SOL    HW185368   3.038   3.158   4.952  0.2322  0.6139 -0.1924
27642SOL    HW285369   3.089   3.273   5.036  0.3479  2.4011 -2.5905
27643SOL     OW85370   5.845   6.280   8.112  0.4555 -0.3779 -0.2419
27643SOL    HW185371   5.810   6.266   8.200 -0.6981 -1.1445 -0.7886
27643SOL    HW285372   5.769   6.309   8.061  0.6677 -1.7504 -1.3890
27644SOL     OW85373   7.205   1.765   1.384  0.4128 -0.4329 -0.1497
27644SOL    HW185374   7.154   1.841   1.354 -0.5031 -0.9187  0.1504
27644SOL    HW285375   7.293   1.800   1.397  0.3486  0.2473 -1.4250
27645SOL     OW85376   8.216   6.729   9.250  0.2293  0.2308 -0.2822
27645SOL    HW185377   8.239   6.637   9.237  0.3145  0.2423 -0.2154
27645SOL    HW285378   8.250   6.774   9.172 -0.9112  0.0244 -0.9114
27646SOL     OW85379   8.549   8.165   8.335  0.2154  0.0448 -0.1994
27646SOL    HW185380   8.528   8.245   8.287 -2.2814 -0.0278  0.6315
27646SOL    HW285381   8.591   8.195   8.415 -1.6993  0.6596  0.6241
27647SOL     OW85382   7.840   6.639   4.531  0.0204  0.3422  0.3550
27647SOL    HW185383   7.752   6.666   4.503  1.0506  1.0517 -2.5054
27647SOL    HW285384   7.897   6.712   4.505  1.7525 -1.0764  0.0143
27648SOL     OW85385   7.564   4.196   8.701 -0.0725  0.4242 -0.1994
27648SOL    HW185386   7.647   4.156   8.726  0.1712  1.4723  0.7344
27648SOL    HW285387   7.498   4.151   8.753  0.0140  0.2392 -0.2484
27649SOL     OW85388   2.428   6.006   8.548  0.3240  0.2312  0.2304
27649SOL    HW185389   2.495   5.938   8.547  1.1514  1.0271  0.6889
27649SOL    HW285390   2.470   6.082   8.589 -1.0029  0.5935  0.9856
27650SOL     OW85391   4.814   7.584   9.909  0.7201  0.2891 -0.1921
27650SOL    HW185392   4.845   7.495   9.890  0.6512  0.5344 -1.5648
27650SOL    HW285393   4.824   7.631   9.826  1.2138  1.7150  0.6458
27651SOL     OW85394   3.778   7.009   0.940  0.5646  0.4028  0.3604
27651SOL    HW185395   3.686   7.001   0.917  0.2495  1.9535  0.9536
27651SOL    HW285396   3.825   6.999   0.856  0.0562 -2.2756  0.2921
27652SOL     OW85397  10.469   4.768   5.174 -0.5436  0.1245 -0.7214
27652SOL    HW185398  10.428   4.682   5.170 -1.0941  0.0911  2.9059
27652SOL    HW285399  10.455   4.804   5.086 -2.0809 -2.6416 -1.7562
27653SOL     OW85400   8.064   9.897   8.427 -0.0699 -0.3341 -0.3965
27653SOL    HW185401   7.970   9.894   8.409 -1.0728 -0.4301  3.7982
27653SOL    HW285402   8.083   9.815   8.473  1.8599  0.1710 -0.1745
27654SOL     OW85403   9.239   0.815   8.851  0.2564 -0.1287  0.1714
27654SOL    HW185404   9.316   0.845   8.802 -0.5519  2.5165  0.3786
27654SOL    HW285405   9.275   0.765   8.924  1.7756  0.8105  0.1070
27655SOL     OW85406   2.577   4.276   0.203  0.1134  0.0378  0.1748
27655SOL    HW185407   2.595   4.275   0.297  2.4642 -1.0025 -0.2252
27655SOL    HW285408   2.663   4.280   0.161 -0.8757  1.0299 -1.9736
27656SOL     OW85409   6.244  10.263   4.921  0.0619  0.2332  0.0891
27656SOL    HW185410   6.208  10.174   4.928  0.0215  0.1310 -1.2190
27656SOL    HW285411   6.338  10.252   4.939 -0.0223  0.0116  0.4079
27657SOL     OW85412   5.638   6.845   8.199 -0.8885 -0.0979  0.2629
27657SOL    HW185413   5.629   6.863   8.292 -0.1946 -1.6321  0.6630
27657SOL    HW285414   5.727   6.870   8.177 -1.0835  0.3632 -0.0289
27658SOL     OW85415   6.075   5.292   7.032  0.6589  0.2110 -0.0175
27658SOL    HW185416   6.064   5.225   7.100 -2.1309 -0.4951 -1.0607
27658SOL    HW285417   6.165   5.279   7.000  0.4799 -2.5028  0.3764
27659SOL     OW85418   1.273   4.060  10.452 -0.7420  0.0895  0.1484
27659SOL    HW185419   1.289   4.019  10.367 -0.6643 -0.2092  0.3043
27659SOL    HW285420   1.260   4.153  10.432 -0.1068  0.1262 -0.1222
27660SOL     OW85421   6.635   2.214   0.439 -0.2487  0.2400  0.0061
27660SOL    HW185422   6.712   2.161   0.421  0.9684  1.9795 -0.0893
27660SOL    HW285423   6.593   2.226   0.354 -1.1630 -1.4122  0.1719
27661SOL     OW85424   7.306   5.242   9.473  0.3918  0.0388 -0.2240
27661SOL    HW185425   7.232   5.200   9.428 -0.7198 -1.6838  2.9404
27661SOL    HW285426   7.370   5.172   9.486  0.3262  0.2495  1.5021
27662SOL     OW85427   2.264   9.584  10.243  0.2453  0.3600 -0.0283
27662SOL    HW185428   2.341   9.564  10.189  0.3063  0.7661 -0.0965
27662SOL    HW285429   2.193   9.533  10.204  0.5269 -0.1924  0.1697
27663SOL     OW85430   9.087   7.217   7.053  0.0152  0.0948  0.1814
27663SOL    HW185431   9.013   7.249   7.001 -0.6926 -2.7526 -0.7508
27663SOL    HW285432   9.136   7.161   6.992  2.5339  1.2359  1.0134
27664SOL     OW85433   9.033   9.448   6.810 -0.1845  0.1233 -0.7072
27664SOL    HW185434   8.980   9.438   6.889  0.6413 -0.9425 -0.2507
27664SOL    HW285435   9.011   9.371   6.756  0.1978  0.1572 -0.9222
27665SOL     OW85436   9.416   9.449   2.674 -0.3662 -0.8663 -0.5867
27665SOL    HW185437   9.358   9.385   2.716 -0.7211 -0.8679 -1.0694
27665SOL    HW285438   9.358   9.520   2.647 -0.1685 -0.9357 -1.2148
27666SOL     OW85439   9.585   8.239   5.010  1.1973  0.0181  0.2020
27666SOL    HW185440   9.543   8.242   4.924  2.3809  1.1389 -0.3720
27666SOL    HW285441   9.559   8.320   5.053 -0.4563 -1.1293  1.4715
27667SOL     OW85442   7.430   2.558   6.722 -0.3325  0.9357  0.0769
27667SOL    HW185443   7.478   2.593   6.648 -1.1662  4.0869  0.8490
27667SOL    HW285444   7.339   2.586   6.708 -0.7832  0.3659  1.5634
27668SOL     OW85445   3.016   1.379   1.253 -0.0948 -0.9709  0.4930
27668SOL    HW185446   3.106   1.370   1.222 -0.4641 -0.8970 -0.6863
27668SOL    HW285447   2.983   1.457   1.208 -0.6885 -0.8908  1.0514
27669SOL     OW85448   5.503   5.878   1.602  0.7377  0.1225 -0.2530
27669SOL    HW185449   5.481   5.849   1.691  0.8214  0.6726 -0.0518
27669SOL    HW285450   5.594   5.906   1.607  0.8274 -0.1036 -0.5800
27670SOL     OW85451   6.091   7.836   3.355  0.3895 -0.3491 -0.1429
27670SOL    HW185452   6.060   7.748   3.337 -1.0468  0.2737 -0.7887
27670SOL    HW285453   6.128   7.830   3.444  0.5598 -1.6378 -0.2804
27671SOL     OW85454   1.303   3.563   8.042 -0.2029  0.1549  0.1497
27671SOL    HW185455   1.296   3.584   7.949  1.2534  0.9035  0.1810
27671SOL    HW285456   1.384   3.513   8.049  0.4550  1.2995  1.1776
27672SOL     OW85457   5.066   5.660   1.860 -0.0331  0.3884  0.2778
27672SOL    HW185458   5.131   5.688   1.924  0.7619 -1.5114  0.3858
27672SOL    HW285459   5.023   5.585   1.901  0.2407 -0.6363 -1.2087
27673SOL     OW85460   7.036   4.198   9.412 -0.1079  0.0722 -0.0943
27673SOL    HW185461   7.059   4.289   9.394  2.4721 -0.5702 -0.4648
27673SOL    HW285462   7.115   4.160   9.450 -2.0410 -1.3242  2.9011
27674SOL     OW85463   7.474   0.616   7.644  0.5344 -0.3110 -0.4085
27674SOL    HW185464   7.441   0.531   7.615 -0.4404 -0.8222  1.9802
27674SOL    HW285465   7.407   0.679   7.614  1.1271 -0.3576 -1.9428
27675SOL     OW85466   5.812   8.773   7.382  0.5575 -0.5128 -0.4218
27675SOL    HW185467   5.730   8.820   7.365  1.4571  1.6901  0.8901
27675SOL    HW285468   5.786   8.698   7.436 -0.7763 -0.8476 -1.4691
27676SOL     OW85469   8.053   8.896   1.219  0.2031  0.2872 -0.5598
27676SOL    HW185470   8.056   8.964   1.286  1.2252  0.2209 -0.5276
27676SOL    HW285471   8.133   8.846   1.232 -0.9563 -1.5238  0.0341
27677SOL     OW85472   5.920   2.548   3.988 -0.2856  0.3993  0.1059
27677SOL    HW185473   5.829   2.524   4.005  0.0796  0.0974  1.8674
27677SOL    HW285474   5.969   2.466   3.994  0.1736  0.6392 -0.2479
27678SOL     OW85475   9.202   2.489   9.887 -0.3426 -0.3241  0.3059
27678SOL    HW185476   9.166   2.577   9.899  3.3997  1.3884  0.5082
27678SOL    HW285477   9.143   2.432   9.936 -1.8133  2.3619  1.9138
27679SOL     OW85478   6.860   1.203   6.416  0.2200  0.0668  0.1951
27679SOL    HW185479   6.934   1.194   6.356  0.4660 -0.7724  0.6090
27679SOL    HW285480   6.892   1.258   6.487  1.2975 -2.2462  1.6300
27680SOL     OW85481   9.268   0.700   1.095  0.4947  0.4550  0.5385
27680SOL    HW185482   9.354   0.728   1.127  0.9638 -0.8833  0.5156
27680SOL    HW285483   9.208   0.768   1.126  1.3666  0.7145  1.7414
27681SOL     OW85484   1.247   2.992   4.239 -0.1850 -0.5191 -0.2021
27681SOL    HW185485   1.321   3.049   4.260  0.3099 -0.3051 -2.3272
27681SOL    HW285486   1.284   2.927   4.179 -1.5775 -0.8462 -0.7358
27682SOL     OW85487   6.410   7.418   8.348  0.4585 -0.1726  0.0340
27682SOL    HW185488   6.469   7.367   8.403  0.9062  1.3099  0.9848
27682SOL    HW285489   6.465   7.450   8.276  0.6439  0.5576  0.4933
27683SOL     OW85490   0.843   0.043  10.464 -0.3284  0.0110 -0.4007
27683SOL    HW185491   0.792   0.052  10.545  0.4480 -0.9176  0.2084
27683SOL    HW285492   0.934   0.058  10.491  0.3381 -3.2675 -0.4430
27684SOL     OW85493   9.411   3.664   1.911  0.1387  0.4495 -0.6507
27684SOL    HW185494   9.482   3.610   1.876 -0.4819 -0.0566 -1.1391
27684SOL    HW285495   9.332   3.634   1.866 -0.5895  0.2074  0.7192
27685SOL     OW85496   2.978   6.166   9.603 -0.1570 -0.0753 -0.2277
27685SOL    HW185497   3.021   6.250   9.591  1.2872 -1.0543 -2.8924
27685SOL    HW285498   3.043   6.111   9.646  0.4733 -0.8609 -2.0521
27686SOL     OW85499   6.398   7.056   4.382  0.4765 -0.5773 -0.2424
27686SOL    HW185500   6.462   7.020   4.321  1.6959  0.2574  0.4981
27686SOL    HW285501   6.313   7.034   4.344  1.1961 -0.6138 -1.9056
27687SOL     OW85502  10.426   6.744   7.967 -0.2804  0.0378 -0.2419
27687SOL    HW185503  10.364   6.795   7.915  0.8174 -0.3339 -2.0005
27687SOL    HW285504  10.511   6.762   7.926  0.4205 -1.4179  0.5311
27688SOL     OW85505   3.740   5.555   6.637  0.3585 -0.2659 -0.5663
27688SOL    HW185506   3.789   5.519   6.564  0.1711 -0.7830 -0.4404
27688SOL    HW285507   3.651   5.564   6.604  0.3009 -0.3819 -0.4456
27689SOL     OW85508   6.519   8.795   6.141 -0.1930 -0.0903  0.3061
27689SOL    HW185509   6.600   8.822   6.097 -0.0451 -0.7806  0.1362
27689SOL    HW285510   6.502   8.863   6.205  2.0046 -1.2246  2.2546
27690SOL     OW85511   6.264   6.083   8.928  0.5878 -0.1956 -0.3179
27690SOL    HW185512   6.342   6.031   8.945 -0.1535 -1.4999 -0.7023
27690SOL    HW285513   6.295   6.157   8.876  1.3720 -1.5179 -1.8290
27691SOL     OW85514   9.293   6.043   2.406 -0.7831 -0.1528 -0.3129
27691SOL    HW185515   9.233   5.971   2.423 -0.2072 -0.3635  0.9873
27691SOL    HW285516   9.332   6.063   2.491 -0.7520  1.5483 -0.6805
27692SOL     OW85517   6.975  10.125   3.960 -0.1540  0.3087  0.6215
27692SOL    HW185518   7.012  10.069   4.028  1.4274 -0.3513 -0.7327
27692SOL    HW285519   6.913  10.069   3.913 -0.3943  0.4280  0.7945
27693SOL     OW85520   2.479   6.707   0.708  0.0789  0.2451  0.5295
27693SOL    HW185521   2.390   6.673   0.711 -0.2808  1.0069 -0.8072
27693SOL    HW285522   2.534   6.629   0.714 -0.6812 -0.2913  0.7112
27694SOL     OW85523   3.529   5.933   0.898 -0.2153  0.5485 -0.5013
27694SOL    HW185524   3.573   6.014   0.924 -0.4105  0.5736 -0.2330
27694SOL    HW285525   3.524   5.937   0.803  1.3183  0.0316 -0.6255
27695SOL     OW85526   7.142   1.857   4.863  0.2966 -0.0565 -0.4547
27695SOL    HW185527   7.169   1.824   4.778 -1.7322 -0.7980 -0.8675
27695SOL    HW285528   7.151   1.782   4.922  1.0556  0.2711 -0.1333
27696SOL     OW85529   3.254   4.891   4.621 -0.2740 -0.1989 -0.2895
27696SOL    HW185530   3.224   4.950   4.690  1.6630 -1.0324  1.3582
27696SOL    HW285531   3.224   4.805   4.648  1.5669 -0.7144  0.2301
27697SOL     OW85532   3.391   5.570   1.690  0.1525  0.3285 -0.3436
27697SOL    HW185533   3.409   5.492   1.637 -0.3532 -0.1411  0.1524
27697SOL    HW285534   3.301   5.593   1.667 -0.0029  0.2368  0.1578
27698SOL     OW85535   3.523   4.116   1.560  0.2870  0.2118  0.4521
27698SOL    HW185536   3.512   4.209   1.540 -0.9612 -0.2428 -1.2023
27698SOL    HW285537   3.546   4.075   1.477 -1.9091 -1.3308  0.5006
27699SOL     OW85538   2.869   2.428   1.610 -0.3924 -0.5553  0.3711
27699SOL    HW185539   2.935   2.460   1.672 -1.4026  1.5010  0.4840
27699SOL    HW285540   2.810   2.502   1.599 -1.1849 -1.4397 -1.7888
27700SOL     OW85541   0.401   7.252   6.199  0.4075  0.0376  0.1151
27700SOL    HW185542   0.329   7.239   6.261  1.0219  1.9899  1.3567
27700SOL    HW285543   0.479   7.259   6.254  0.8372  2.9808 -0.6680
27701SOL     OW85544   0.367   2.044   4.789  0.1693 -0.0346  0.0747
27701SOL    HW185545   0.439   1.988   4.820  1.0277  0.0624 -1.6120
27701SOL    HW285546   0.384   2.129   4.829 -0.7685 -0.7515  2.1210
27702SOL     OW85547   6.227   7.179   1.102 -0.0108 -0.2651  0.9094
27702SOL    HW185548   6.219   7.248   1.037  2.2106 -1.6015 -0.9118
27702SOL    HW285549   6.294   7.211   1.163 -0.1334 -0.1707  0.9969
27703SOL     OW85550  10.312   6.151   1.840  0.3880  0.4519 -0.1634
27703SOL    HW185551  10.399   6.187   1.821  1.0638  0.1104  1.9300
27703SOL    HW285552  10.317   6.125   1.932 -1.4502 -1.0630 -0.4269
27704SOL     OW85553   6.982   0.938   8.174  0.0777  0.6299  0.1466
27704SOL    HW185554   6.963   0.995   8.100  1.6162 -0.2242 -0.9626
27704SOL    HW285555   7.065   0.971   8.209  0.0076  0.2422  0.6989
27705SOL     OW85556   8.931   2.678   7.853  0.0058 -0.3150 -0.1123
27705SOL    HW185557   8.893   2.735   7.786 -0.4063 -0.5725 -0.0951
27705SOL    HW285558   8.890   2.593   7.840 -0.3898 -0.2665  0.7267
27706SOL     OW85559   9.857   0.396   5.553 -0.1704  0.4028 -0.2747
27706SOL    HW185560   9.810   0.409   5.635  2.3201 -0.4566  1.3698
27706SOL    HW285561   9.855   0.301   5.539 -0.7494  0.5573 -1.3605
27707SOL     OW85562   7.664   1.421   8.464 -0.1339  0.4150 -0.1638
27707SOL    HW185563   7.751   1.409   8.502 -0.7782 -0.8396  1.0114
27707SOL    HW285564   7.619   1.338   8.482 -1.3246  0.7616 -1.4143
27708SOL     OW85565   4.636   2.724   4.141  0.3881  0.4825  0.1308
27708SOL    HW185566   4.550   2.763   4.127  1.2375  1.8046 -2.0028
27708SOL    HW285567   4.625   2.633   4.114 -0.2698  0.7478 -0.5627
27709SOL     OW85568   2.536   2.559   3.429 -0.3710 -0.3343  0.2762
27709SOL    HW185569   2.550   2.649   3.456  1.0352 -0.3768 -0.2437
27709SOL    HW285570   2.555   2.507   3.507  0.7253 -0.2809  0.0568
27710SOL     OW85571   4.084   3.014   1.683 -0.3319  0.3306  0.1158
27710SOL    HW185572   4.176   2.996   1.702 -0.8689 -1.1777  1.5560
27710SOL    HW285573   4.063   2.957   1.609 -0.2995  0.0854  0.2941
27711SOL     OW85574   0.590   8.834  10.218 -0.0455  0.5228  0.2028
27711SOL    HW185575   0.655   8.871  10.278  0.9429 -3.1004  1.6147
27711SOL    HW285576   0.521   8.801  10.275 -1.7784  1.7037 -1.1093
27712SOL     OW85577   8.347   6.868   6.234  0.5469  0.4129  0.3451
27712SOL    HW185578   8.252   6.862   6.232  0.5180  1.0158 -0.2434
27712SOL    HW285579   8.371   6.917   6.155  1.1991  2.1224  1.5344
27713SOL     OW85580   0.217   8.088   0.524 -0.1048 -0.2351  0.3938
27713SOL    HW185581   0.268   8.053   0.597  1.5354  0.8976 -0.1427
27713SOL    HW285582   0.198   8.178   0.550 -2.4060 -0.7874  0.8307
27714SOL     OW85583   9.414   4.428   5.210 -0.2412  0.5291 -0.2606
27714SOL    HW185584   9.397   4.446   5.118  1.6167  1.3770 -0.4857
27714SOL    HW285585   9.395   4.510   5.255 -3.0735 -0.4214  0.4689
27715SOL     OW85586   0.588   6.692   4.165  0.4839 -0.7226  0.9708
27715SOL    HW185587   0.633   6.655   4.090 -1.7123  0.8921 -1.3392
27715SOL    HW285588   0.578   6.619   4.226 -1.5293 -3.4331 -2.2587
27716SOL     OW85589   0.182   9.264   8.101  0.7975  0.1021 -0.2225
27716SOL    HW185590   0.128   9.333   8.137 -1.2662 -1.8623  0.7137
27716SOL    HW285591   0.168   9.268   8.007  0.5254  0.7891 -0.1541
27717SOL     OW85592   6.366   0.117   6.173  0.1640 -0.0440 -0.0996
27717SOL    HW185593   6.364   0.203   6.215  4.4358 -0.5700  1.6710
27717SOL    HW285594   6.350   0.056   6.245  0.0558 -0.8260 -0.7739
27718SOL     OW85595   3.004   4.726   1.960  0.3021  0.3085  0.1716
27718SOL    HW185596   2.948   4.658   1.998 -0.6118  1.5613  1.1393
27718SOL    HW285597   2.984   4.805   2.010  2.9537  0.8239  0.5358
27719SOL     OW85598   6.555   9.164   0.407 -0.8507 -0.0820 -0.5920
27719SOL    HW185599   6.544   9.098   0.475 -1.8814  0.2281 -0.4381
27719SOL    HW285600   6.559   9.115   0.325  1.5175 -0.5477 -0.2680
27720SOL     OW85601   8.979   2.336   7.088 -0.9260  0.1323 -0.3331
27720SOL    HW185602   9.018   2.390   7.157  1.9526 -0.6803 -1.1606
27720SOL    HW285603   8.985   2.246   7.122  0.2362 -0.2437 -1.4584
27721SOL     OW85604  10.437   8.284   0.814  0.0604  0.0735 -0.1732
27721SOL    HW185605  10.453   8.214   0.876 -2.1637  0.5598  1.0496
27721SOL    HW285606  10.372   8.249   0.754  0.1667  0.5418 -0.5711
27722SOL     OW85607   9.785   3.339   1.767 -0.2450  0.0118  0.2737
27722SOL    HW185608   9.832   3.311   1.689  1.3735 -1.9051  1.8089
27722SOL    HW285609   9.710   3.389   1.735 -0.3021 -1.6924 -2.5171
27723SOL     OW85610   5.776   6.559  10.414 -0.7413 -0.2401  0.4723
27723SOL    HW185611   5.845   6.619  10.387 -0.8198  0.5152  1.8334
27723SOL    HW285612   5.747   6.517  10.333  2.2660 -1.6782  0.0033
27724SOL     OW85613   2.338  10.118   7.593  0.1392  0.1946 -0.3824
27724SOL    HW185614   2.360  10.129   7.686  1.4280  0.9929 -0.7543
27724SOL    HW285615   2.420  10.089   7.552 -0.2917  0.2934 -1.3396
27725SOL     OW85616   1.874   7.805   7.434 -0.6643 -0.1441  0.0046
27725SOL    HW185617   1.786   7.785   7.468 -0.5809 -1.4883 -0.4905
27725SOL    HW285618   1.929   7.734   7.469 -0.2722 -0.6726 -1.6217
27726SOL     OW85619   6.921   2.764   0.096 -0.0852 -0.4712 -0.1749
27726SOL    HW185620   7.007   2.774   0.135 -0.6485  0.0080  0.9839
27726SOL    HW285621   6.925   2.813   0.014  0.3818  0.5539  0.4482
27727SOL     OW85622   5.461   3.304  10.260  0.0286 -0.2065 -0.4130
27727SOL    HW185623   5.505   3.376  10.215  0.3988 -0.8910 -1.1716
27727SOL    HW285624   5.525   3.272  10.323  0.0060 -0.1230 -0.3473
27728SOL     OW85625   8.495   7.281   0.996 -0.0245  0.1810 -0.0082
27728SOL    HW185626   8.480   7.375   1.007  1.7678  0.3928  0.8994
27728SOL    HW285627   8.452   7.260   0.913  2.6241  2.5845 -2.1911
27729SOL     OW85628   1.005   5.082   1.746  0.4050 -0.0391 -0.3339
27729SOL    HW185629   1.052   5.026   1.807  2.8486  1.4155 -0.7691
27729SOL    HW285630   1.015   5.170   1.782  0.2503  0.6174 -1.8356
27730SOL     OW85631   9.724   7.696  10.321  0.3779 -0.5333 -0.7497
27730SOL    HW185632   9.669   7.618  10.311  0.2253 -0.6203  0.6577
27730SOL    HW285633   9.711   7.724  10.411  2.0778 -0.1396 -0.5798
27731SOL     OW85634   6.018   8.648   0.557  0.3112  0.0006 -0.3544
27731SOL    HW185635   5.971   8.697   0.625  0.9578  0.8334 -0.4971
27731SOL    HW285636   5.979   8.561   0.560 -0.5478  0.3847  0.2169
27732SOL     OW85637   4.528   7.373   7.115 -0.1165 -0.0276 -0.1479
27732SOL    HW185638   4.547   7.424   7.036  1.3394  1.3951  1.0320
27732SOL    HW285639   4.579   7.293   7.104  2.5128  1.3973  0.5092
27733SOL     OW85640   9.720   8.499   9.566  1.1175 -0.2814 -0.9220
27733SOL    HW185641   9.660   8.572   9.576  0.0089 -1.2187 -0.5070
27733SOL    HW285642   9.807   8.537   9.582  0.6036  1.0010 -1.0843
27734SOL     OW85643   8.701   0.567   1.815 -0.3532  0.0282  0.6243
27734SOL    HW185644   8.788   0.595   1.787 -0.9878  0.4942 -0.9907
27734SOL    HW285645   8.681   0.491   1.761 -1.0041  0.0006  0.8866
27735SOL     OW85646   9.984   5.967   8.797 -0.4942 -0.3057 -0.1013
27735SOL    HW185647  10.069   5.967   8.842 -0.8220  3.1344  0.7807
27735SOL    HW285648   9.961   5.874   8.791  1.9687 -1.2158  2.2049
27736SOL     OW85649   7.643   8.721   7.783  0.1526 -0.1881  0.7314
27736SOL    HW185650   7.574   8.678   7.833 -0.0002  0.2816  0.9332
27736SOL    HW285651   7.611   8.811   7.771  0.0217 -0.3932 -0.5281
27737SOL     OW85652  10.341   9.079  10.422 -0.2763 -0.0433 -0.1376
27737SOL    HW185653  10.408   9.100  10.357  0.8390 -0.2053  0.9322
27737SOL    HW285654  10.336   8.983  10.422  0.8728 -0.1292  1.1069
27738SOL     OW85655   2.028   3.458   3.087  0.4269 -0.2551 -0.3640
27738SOL    HW185656   2.027   3.533   3.147 -0.4368  1.2470 -2.1680
27738SOL    HW285657   2.110   3.467   3.039  1.9511 -2.4194  1.6517
27739SOL     OW85658   8.927   2.370   0.435  0.2768  0.7183  0.2337
27739SOL    HW185659   8.956   2.324   0.356  0.3375 -1.3720  1.4010
27739SOL    HW285660   8.862   2.433   0.404  0.9676  0.5961 -1.5751
27740SOL     OW85661   3.726   0.685   8.556 -0.3735  0.2230 -0.0943
27740SOL    HW185662   3.634   0.713   8.562 -0.4175 -0.0463  0.6513
27740SOL    HW285663   3.754   0.679   8.647  0.1319 -0.5320 -0.3010
27741SOL     OW85664   9.766   7.122   8.105 -0.2082  0.0535 -0.5280
27741SOL    HW185665   9.806   7.058   8.164 -1.1730 -0.5910 -0.5403
27741SOL    HW285666   9.766   7.078   8.020 -2.6748 -0.8079 -0.1701
27742SOL     OW85667   7.281   0.931   6.719 -0.2443  0.2845  0.4182
27742SOL    HW185668   7.221   0.857   6.726 -0.6144  0.5036 -0.3611
27742SOL    HW285669   7.233   0.996   6.667  1.2465 -0.1653 -1.6365
27743SOL     OW85670   2.009   8.308   4.603 -0.2728  0.6112  0.0541
27743SOL    HW185671   1.925   8.353   4.608 -0.7643 -0.2096 -0.5467
27743SOL    HW285672   1.986   8.215   4.602  0.6828  0.3567  0.6063
27744SOL     OW85673   6.137   1.487   1.472 -0.3883  0.0590 -0.7550
27744SOL    HW185674   6.220   1.445   1.449  0.6482  0.3358  2.0651
27744SOL    HW285675   6.071   1.418   1.465  0.7085 -1.1662  0.4155
27745SOL     OW85676   1.123   2.495   1.194 -0.0870  0.6231  0.4794
27745SOL    HW185677   1.209   2.528   1.170 -0.3615  1.8169  1.0614
27745SOL    HW285678   1.133   2.400   1.194  1.1325  0.7354  0.2193
27746SOL     OW85679   6.673   1.478   8.049  0.0553  0.3421  0.1678
27746SOL    HW185680   6.601   1.500   7.990 -0.6370 -1.5640  0.2293
27746SOL    HW285681   6.750   1.473   7.992 -0.0199  1.3795 -0.0577
27747SOL     OW85682   5.603   8.709   8.625 -0.1489  0.3600 -0.3629
27747SOL    HW185683   5.633   8.622   8.653  0.1370  0.9634  1.3805
27747SOL    HW285684   5.512   8.713   8.652  0.2591  1.1264  1.0206
27748SOL     OW85685   6.677  10.484  10.317 -0.4551  0.5266 -0.2037
27748SOL    HW185686   6.738  10.424  10.275 -0.0673  1.1817 -0.5941
27748SOL    HW285687   6.722  10.569  10.316  0.4582  0.2404  3.3380
27749SOL     OW85688   1.122   6.112   0.694  0.5334  0.2612  0.1947
27749SOL    HW185689   1.096   6.031   0.651  0.0167 -0.3655  1.6082
27749SOL    HW285690   1.113   6.179   0.627  0.3268 -0.7435 -0.8188
27750SOL     OW85691   1.667   2.492   0.937  0.5956 -0.1376  0.1256
27750SOL    HW185692   1.628   2.484   0.850 -0.8367 -0.1680  0.7344
27750SOL    HW285693   1.633   2.576   0.970  2.2177  0.5389  0.1449
27751SOL     OW85694   6.878   4.783   6.715 -0.1258 -0.0802 -0.7514
27751SOL    HW185695   6.785   4.804   6.730 -0.1604  0.2664 -1.4379
27751SOL    HW285696   6.877   4.690   6.691 -0.4930  0.3240 -2.4151
27752SOL     OW85697   0.695   8.454   3.371  0.2842  0.1463 -0.4065
27752SOL    HW185698   0.682   8.490   3.459  0.1168  0.5142 -0.5795
27752SOL    HW285699   0.643   8.510   3.314  1.0754  0.4461 -0.8504
27753SOL     OW85700   4.250   6.463   1.619  0.3700 -0.5097  0.3378
27753SOL    HW185701   4.179   6.449   1.682  0.2782  0.4166  0.4653
27753SOL    HW285702   4.329   6.447   1.670  0.5191  3.9507  1.9494
27754SOL     OW85703   4.136   1.416   4.165  0.2552  0.3258 -0.0585
27754SOL    HW185704   4.126   1.510   4.150  2.2464  0.7394  0.8930
27754SOL    HW285705   4.148   1.408   4.260 -1.4077 -1.0767  0.0808
27755SOL     OW85706   5.593  10.124   2.996  0.7129 -0.2339  0.2499
27755SOL    HW185707   5.511  10.095   2.955  1.2753 -0.7165 -0.5546
27755SOL    HW285708   5.661  10.070   2.956  1.5908  1.0580 -0.0615
27756SOL     OW85709   5.682   0.971   0.221  0.5633  0.3272  0.1546
27756SOL    HW185710   5.774   0.996   0.233  0.4040  0.7286  0.5922
27756SOL    HW285711   5.641   0.989   0.306  0.5233 -1.8518  0.6540
27757SOL     OW85712   5.004   9.259   6.688  0.1772 -0.9209 -0.5495
27757SOL    HW185713   4.927   9.239   6.635 -0.7470 -0.7530  0.6902
27757SOL    HW285714   5.008   9.189   6.752  0.9707 -0.8321 -0.4886
27758SOL     OW85715   3.002   4.178   5.148 -0.1060 -0.2298 -0.0631
27758SOL    HW185716   3.047   4.105   5.105 -0.3846 -0.5704  0.2092
27758SOL    HW285717   2.920   4.187   5.099 -0.4080 -0.5949  0.3566
27759SOL     OW85718   7.883   5.997   5.251  0.2578  0.1617  0.2255
27759SOL    HW185719   7.845   5.939   5.186  1.0427 -0.6737  0.5016
27759SOL    HW285720   7.941   6.054   5.201 -0.9712  1.1597 -0.1347
27760SOL     OW85721   0.026   4.842   1.951  0.2777  0.2351 -0.1923
27760SOL    HW185722   0.026   4.772   2.016 -2.8617  0.7543  0.5029
27760SOL    HW285723   0.045   4.921   2.002  0.1603  0.3534 -0.3326
27761SOL     OW85724   1.956   4.515   0.620  0.1233  0.1067  0.4180
27761SOL    HW185725   1.911   4.487   0.699  2.0634  0.4887  1.7429
27761SOL    HW285726   2.044   4.538   0.650  0.4781  1.6877 -1.6153
27762SOL     OW85727   9.571   2.598   7.645 -0.1144 -0.0089 -0.3590
27762SOL    HW185728   9.507   2.560   7.585  1.4016 -1.3526 -1.2183
27762SOL    HW285729   9.522   2.613   7.726 -1.9617  0.8763 -1.5737
27763SOL     OW85730   4.301   4.309   3.938  0.0087 -0.1113 -0.1305
27763SOL    HW185731   4.211   4.302   3.905  0.0585  1.0630 -0.5546
27763SOL    HW285732   4.303   4.392   3.985  0.3006 -1.1194  1.7886
27764SOL     OW85733   3.585   9.913   0.486  0.0295  0.1903 -0.0254
27764SOL    HW185734   3.519   9.950   0.544  0.6998  0.2315  0.7370
27764SOL    HW285735   3.553   9.931   0.398 -0.4137  1.2054  0.3289
27765SOL     OW85736   0.137   4.989   5.249  0.0467 -0.5373 -0.4580
27765SOL    HW185737   0.080   4.929   5.202 -0.8037 -1.5708  1.7379
27765SOL    HW285738   0.180   4.935   5.315  2.7763  0.4397 -1.2885
27766SOL     OW85739   1.216   3.156   9.328 -0.3125  0.0152 -0.0905
27766SOL    HW185740   1.287   3.108   9.286 -0.8320 -0.2341 -0.7065
27766SOL    HW285741   1.136   3.111   9.299 -0.7122  0.1521  0.7683
27767SOL     OW85742   5.629   8.238   4.820  0.5034  0.3347 -0.5831
27767SOL    HW185743   5.546   8.239   4.867  0.5862  0.1249 -0.4293
27767SOL    HW285744   5.626   8.315   4.763  0.5550  0.7927  0.0303
27768SOL     OW85745   5.710   4.154   2.826  0.4218  0.1453  0.0681
27768SOL    HW185746   5.803   4.176   2.817  0.4402 -0.0674 -0.2565
27768SOL    HW285747   5.674   4.225   2.879  0.4288  1.0957 -1.1759
27769SOL     OW85748   5.742   2.819  10.312  0.0068  0.0382  0.0998
27769SOL    HW185749   5.787   2.868  10.381 -0.1303 -0.8866  0.8636
27769SOL    HW285750   5.812   2.778  10.262  0.0740 -0.2544  0.4265
27770SOL     OW85751   7.331   1.143   2.791 -0.3575  0.3739  0.3756
27770SOL    HW185752   7.268   1.203   2.831 -0.0390 -0.9465  3.1133
27770SOL    HW285753   7.408   1.197   2.772 -0.3341  1.0392  2.1445
27771SOL     OW85754   8.080   3.798   8.869 -0.0110  0.0143  0.1822
27771SOL    HW185755   8.171   3.815   8.845  0.5361 -1.6581  0.8782
27771SOL    HW285756   8.058   3.866   8.933  1.2381 -0.3930  1.0816
27772SOL     OW85757   1.064   9.256   0.978 -0.0376  0.0383 -0.3636
27772SOL    HW185758   1.057   9.351   0.990 -3.4977 -0.3180  1.8219
27772SOL    HW285759   1.001   9.236   0.908 -1.2053 -0.8004  0.8665
27773SOL     OW85760   0.495   7.634   7.709  0.2242  0.0258 -0.5509
27773SOL    HW185761   0.556   7.646   7.636  2.3295  0.8176  1.2239
27773SOL    HW285762   0.552   7.621   7.785 -1.8398  1.1675  1.2810
27774SOL     OW85763   4.239   6.270   4.139  0.6700 -0.0196  0.5514
27774SOL    HW185764   4.247   6.176   4.153 -0.6839 -0.6468 -2.1224
27774SOL    HW285765   4.186   6.301   4.212  1.2769 -1.2698  1.5633
27775SOL     OW85766   1.862   3.263   3.237  0.2155  0.1728  0.5952
27775SOL    HW185767   1.933   3.322   3.211  0.7416 -1.3999 -1.9662
27775SOL    HW285768   1.789   3.320   3.258  1.5808  1.7914  1.1597
27776SOL     OW85769   1.746   9.885   7.777  0.3001  0.2923  0.3503
27776SOL    HW185770   1.781   9.836   7.851  0.9364 -1.4488 -1.0366
27776SOL    HW285771   1.805   9.866   7.705 -0.4229  1.7596 -0.6852
27777SOL     OW85772   7.311   3.101   8.717  0.0322  0.5002 -0.8009
27777SOL    HW185773   7.332   3.008   8.728  3.5639  1.2835  0.3869
27777SOL    HW285774   7.275   3.107   8.628 -1.2144 -2.0786 -0.5656
27778SOL     OW85775   8.096   9.426   2.685 -0.2031  0.2354 -0.5982
27778SOL    HW185776   8.091   9.372   2.764 -1.2749  1.1815  0.0108
27778SOL    HW285777   8.162   9.383   2.631  0.4881 -0.4983  0.7683
27779SOL     OW85778   0.336   4.761   0.933 -0.3248 -0.2612 -0.5502
27779SOL    HW185779   0.405   4.707   0.971 -0.3235 -0.5542 -0.9699
27779SOL    HW285780   0.351   4.757   0.839 -0.3384  0.4493 -0.5913
27780SOL     OW85781   6.751   0.979   6.537  0.1096 -0.2317 -0.1876
27780SOL    HW185782   6.799   1.048   6.492  0.7559  0.5682  1.6238
27780SOL    HW285783   6.661   1.011   6.541 -0.0162 -0.4530 -1.1602
27781SOL     OW85784   9.590   7.555   4.447  0.0730  0.1595  0.7324
27781SOL    HW185785   9.649   7.550   4.372  3.0515  2.2280  2.7219
27781SOL    HW285786   9.529   7.626   4.426 -3.0698 -2.9880 -2.0126
27782SOL     OW85787   8.971   1.648   8.170  0.1608  0.3064 -0.0142
27782SOL    HW185788   8.993   1.659   8.078 -2.4374 -0.2774 -0.7733
27782SOL    HW285789   8.999   1.558   8.191 -0.0748  0.1255 -0.4813
27783SOL     OW85790   1.124   2.786   1.545 -1.1511 -0.0395 -0.0828
27783SOL    HW185791   1.094   2.730   1.473 -0.5464  1.3318 -1.4475
27783SOL    HW285792   1.219   2.786   1.537 -1.1484  1.2555 -0.1759
27784SOL     OW85793   4.245   3.490   5.057 -0.0636 -0.0861 -0.0798
27784SOL    HW185794   4.327   3.504   5.011  0.0958  1.4942  0.6083
27784SOL    HW285795   4.262   3.521   5.146 -1.6497  1.1294 -0.1503
27785SOL     OW85796  10.035   7.907   5.474 -0.2167  0.1248  0.6500
27785SOL    HW185797  10.108   7.891   5.415 -1.3005 -0.7890 -0.5106
27785SOL    HW285798  10.038   7.835   5.537 -0.7881 -0.5834 -0.1149
27786SOL     OW85799   1.081   3.377  10.471 -0.2012  0.1856  0.1394
27786SOL    HW185800   1.008   3.317  10.457 -1.3468  1.6104 -0.2813
27786SOL    HW285801   1.095   3.419  10.386  0.9567  0.1187  0.2780
27787SOL     OW85802   3.885   6.415   5.143 -0.2850 -0.2400 -0.4139
27787SOL    HW185803   3.972   6.378   5.158 -1.0208 -1.3990  1.3022
27787SOL    HW285804   3.878   6.421   5.047  0.9879 -1.8759 -0.6620
27788SOL     OW85805   3.630   4.859   2.418 -0.2256  0.3411 -0.0945
27788SOL    HW185806   3.583   4.789   2.372 -0.1784  0.2173  0.0454
27788SOL    HW285807   3.642   4.825   2.507 -0.2230  0.5366 -0.0194
27789SOL     OW85808   8.561   0.501   9.079 -0.0528 -0.2079 -0.2797
27789SOL    HW185809   8.611   0.474   9.003 -0.4870 -0.3001 -0.5390
27789SOL    HW285810   8.547   0.419   9.128  0.7570 -0.0506  0.2228
27790SOL     OW85811   6.606   4.617   1.252 -0.5656 -0.0383 -0.2425
27790SOL    HW185812   6.585   4.676   1.325  1.8051  0.4230  0.1351
27790SOL    HW285813   6.536   4.551   1.254 -1.8634  1.2913  0.9320
27791SOL     OW85814   3.456   0.563   1.813  0.5162 -0.5274  0.3487
27791SOL    HW185815   3.428   0.496   1.876 -1.4506  1.5693  1.8742
27791SOL    HW285816   3.388   0.562   1.746  1.6610 -1.5151 -0.8442
27792SOL     OW85817   4.708   3.617   7.144 -0.1642 -0.0604 -0.4173
27792SOL    HW185818   4.803   3.619   7.143 -0.0460 -1.7322  1.0863
27792SOL    HW285819   4.683   3.686   7.206  0.3261 -1.9248  2.0150
27793SOL     OW85820   7.282  10.023   0.184 -0.0546  0.6054  0.2751
27793SOL    HW185821   7.353   9.962   0.165 -0.1847  0.7713 -0.7667
27793SOL    HW285822   7.228   9.977   0.249 -0.0145 -0.2912 -0.3139
27794SOL     OW85823   9.076   8.279   1.470 -0.2333  0.0558  0.3661
27794SOL    HW185824   9.128   8.320   1.539 -0.6644  0.4985  0.4413
27794SOL    HW285825   9.140   8.242   1.409  0.1502 -0.9782  1.3717
27795SOL     OW85826   3.000   5.529   3.839 -0.1017  0.3821 -0.4262
27795SOL    HW185827   3.014   5.494   3.927  1.0915  1.5725 -0.1058
27795SOL    HW285828   2.909   5.559   3.839 -0.6498 -1.1846 -0.1950
27796SOL     OW85829   0.452   2.380   3.922  0.5228 -0.6388  0.3750
27796SOL    HW185830   0.509   2.390   3.998 -0.3189  1.5356  0.7837
27796SOL    HW285831   0.407   2.464   3.914 -1.5171 -1.7601 -0.8265
27797SOL     OW85832   0.328   5.079   4.537  0.1774  0.2540 -0.4672
27797SOL    HW185833   0.412   5.067   4.493  0.1150  3.8243 -1.9094
27797SOL    HW285834   0.350   5.123   4.619 -0.1625 -1.4102  0.5744
27798SOL     OW85835   3.180   5.069   5.152  0.2909 -0.1522  1.0771
27798SOL    HW185836   3.156   5.159   5.171 -3.1886 -0.6501 -0.2110
27798SOL    HW285837   3.120   5.016   5.205  0.8634 -1.6519  0.2991
27799SOL     OW85838   1.259  10.018   3.022 -0.2187 -0.0635  0.2414
27799SOL    HW185839   1.292  10.106   3.003  1.8830 -0.9412 -0.5486
27799SOL    HW285840   1.212   9.992   2.943 -0.2295  0.0811  0.1997
27800SOL     OW85841   1.697   9.665   3.083 -0.0230  0.3895  0.1833
27800SOL    HW185842   1.634   9.609   3.037 -0.9061 -0.5447  2.3652
27800SOL    HW285843   1.644   9.714   3.146  1.4395 -1.0804  2.7241
27801SOL     OW85844   3.086   0.639   8.952 -0.3081  0.1503  0.0351
27801SOL    HW185845   3.065   0.597   8.869  0.7719 -1.7411  0.6549
27801SOL    HW285846   3.107   0.567   9.011  3.9638  1.5214  0.5384
27802SOL     OW85847   6.764   1.188   0.291  0.0020  0.4835  0.1717
27802SOL    HW185848   6.756   1.181   0.195 -0.4778  0.1140  0.2341
27802SOL    HW285849   6.685   1.235   0.318  1.2027  2.6210  0.1795
27803SOL     OW85850   1.799   6.863   3.689 -0.7767  0.2618  0.3164
27803SOL    HW185851   1.796   6.943   3.637  0.1550  1.6771  2.2859
27803SOL    HW285852   1.887   6.827   3.671  0.2926  1.7582  2.1963
27804SOL     OW85853   6.454   0.891   8.662 -0.1704 -0.0356 -0.3305
27804SOL    HW185854   6.494   0.811   8.694 -0.0478  0.2085  0.1397
27804SOL    HW285855   6.485   0.959   8.722  0.1837  0.4587 -1.0640
27805SOL     OW85856   7.782   2.264   5.569 -0.0450 -0.1339 -0.5585
27805SOL    HW185857   7.812   2.334   5.627 -2.3813 -0.3087  0.9792
27805SOL    HW285858   7.827   2.186   5.601  0.1226  0.1000 -0.2137
27806SOL     OW85859   3.648   8.177   5.796 -0.0574 -0.0039  0.4951
27806SOL    HW185860   3.678   8.267   5.783  1.2612 -0.4462  0.3164
27806SOL    HW285861   3.714   8.123   5.754 -0.9703 -1.0598  0.3677
27807SOL     OW85862   0.657   3.671   9.674  0.3933 -0.2423  0.4944
27807SOL    HW185863   0.617   3.664   9.587  0.8299  1.5740  0.1255
27807SOL    HW285864   0.750   3.682   9.657  0.4255  0.6022  1.1699
27808SOL     OW85865   5.459   5.312   3.203  0.7689 -0.0566 -0.6956
27808SOL    HW185866   5.390   5.351   3.149  0.1221  0.6792  0.6208
27808SOL    HW285867   5.494   5.385   3.254  0.0276 -1.0337  1.3021
27809SOL     OW85868   4.383   8.640   0.743  0.0092  0.2812  0.1348
27809SOL    HW185869   4.406   8.564   0.689  0.1867  0.1102  0.4541
27809SOL    HW285870   4.320   8.607   0.806 -0.6891  0.6236 -0.3664
27810SOL     OW85871   2.157   9.471   5.824  0.0749  0.1339 -0.1683
27810SOL    HW185872   2.070   9.509   5.839 -0.2666 -0.5577 -0.3599
27810SOL    HW285873   2.180   9.497   5.735 -0.5507 -0.8540 -0.6276
27811SOL     OW85874  10.155  10.475   3.723 -0.0838  0.1522  0.4473
27811SOL    HW185875  10.222  10.489   3.791 -0.3918  1.6828  0.4720
27811SOL    HW285876  10.196  10.414   3.662  0.5139 -0.6166  1.5679
27812SOL     OW85877   9.689   8.879   5.658  0.0209 -0.0012  0.5977
27812SOL    HW185878   9.617   8.838   5.705 -0.2403 -0.7196 -0.3804
27812SOL    HW285879   9.768   8.845   5.698 -0.1991 -0.7245  0.4214
27813SOL     OW85880  10.417   0.944   9.949  0.6163 -0.4242 -0.3330
27813SOL    HW185881  10.471   0.866   9.959 -0.2511 -0.9951  0.0457
27813SOL    HW285882  10.337   0.912   9.908 -0.6721 -0.1675  1.8367
27814SOL     OW85883   4.956   0.000   1.182  0.0733 -0.0472 -0.0040
27814SOL    HW185884   4.983   0.091   1.167 -0.2222 -0.0953 -0.8478
27814SOL    HW285885   4.924  -0.030   1.097 -3.4709  0.2641  1.0781
27815SOL     OW85886   9.750   3.787   8.064 -0.1139 -0.4878  0.6120
27815SOL    HW185887   9.779   3.874   8.039  2.1452 -0.9228  1.5002
27815SOL    HW285888   9.752   3.787   8.160  1.6129 -1.9980  0.6241
27816SOL     OW85889   6.876   7.416   7.420 -0.6691  0.4527 -0.0215
27816SOL    HW185890   6.809   7.387   7.359 -0.4604  1.4514 -0.7475
27816SOL    HW285891   6.929   7.337   7.436 -0.7702  0.1591 -1.0659
27817SOL     OW85892   9.581   2.511   9.396  0.1319 -0.6361  0.0008
27817SOL    HW185893   9.660   2.457   9.405  0.7582  0.3585  0.8176
27817SOL    HW285894   9.511   2.459   9.435  0.6985 -0.9302  0.6664
27818SOL     OW85895   8.213   0.193   6.022 -0.3887 -0.3570  0.1182
27818SOL    HW185896   8.193   0.119   5.965  1.5590 -1.0672  0.2914
27818SOL    HW285897   8.155   0.182   6.097  0.9881 -2.7119  0.9386
27819SOL     OW85898   3.704   0.234   7.572 -0.6949  0.3278 -0.3610
27819SOL    HW185899   3.714   0.232   7.667 -0.0035 -0.1799 -0.4318
27819SOL    HW285900   3.787   0.268   7.539 -0.8604  0.3297 -0.7897
27820SOL     OW85901   7.261   6.638   6.792  0.0483 -0.5309  0.5988
27820SOL    HW185902   7.336   6.586   6.766 -0.0195 -0.4270  0.1898
27820SOL    HW285903   7.295   6.698   6.859  0.2759 -0.6340  0.5747
27821SOL     OW85904   5.837   6.366  10.038 -0.2301 -0.0828  0.8436
27821SOL    HW185905   5.779   6.442  10.038  1.8667  1.6269  1.5355
27821SOL    HW285906   5.858   6.353  10.131  1.2242 -0.0217  0.5452
27822SOL     OW85907   3.844   1.221   6.602  0.0018  0.0180  0.2837
27822SOL    HW185908   3.769   1.188   6.552  0.3393  1.5633 -1.3208
27822SOL    HW285909   3.918   1.168   6.571  0.0875  0.5160 -0.3927
27823SOL     OW85910   8.997   3.482   3.191  0.0056  0.1174  0.1297
27823SOL    HW185911   9.007   3.431   3.111  0.1500 -0.1312  0.3059
27823SOL    HW285912   8.977   3.571   3.161  0.6562  0.1610 -0.1899
27824SOL     OW85913   6.639   4.365   5.885  0.0189  0.8472 -0.5128
27824SOL    HW185914   6.691   4.336   5.810 -0.8447 -0.7886 -0.5031
27824SOL    HW285915   6.621   4.457   5.866  0.6649  0.7361 -1.8109
27825SOL     OW85916   9.273   3.121   7.528 -0.1022 -1.4912 -0.1817
27825SOL    HW185917   9.302   3.043   7.481  0.4746 -1.0675 -0.5510
27825SOL    HW285918   9.329   3.125   7.605  0.0900 -1.2668 -0.3314
27826SOL     OW85919   2.157   0.011   6.415  0.3634 -0.1443 -0.2165
27826SOL    HW185920   2.189   0.092   6.376 -1.8826 -0.7370 -3.7258
27826SOL    HW285921   2.186  -0.058   6.356 -1.6412 -1.3596  0.1249
27827SOL     OW85922   9.037   4.077   7.392  0.0021  0.2638  0.6287
27827SOL    HW185923   9.080   4.159   7.414 -2.1319  1.4572  0.6466
27827SOL    HW285924   9.092   4.009   7.430  1.1654  1.7535  1.6871
27828SOL     OW85925   9.437   6.778   8.390  0.6063  0.1096  0.5180
27828SOL    HW185926   9.391   6.706   8.347 -0.4756 -0.0199  1.8256
27828SOL    HW285927   9.524   6.777   8.351 -0.4403  0.3508 -2.0449
27829SOL     OW85928   9.649   2.537   8.620 -0.2424 -0.6140 -0.0276
27829SOL    HW185929   9.644   2.618   8.671  1.8917 -1.0005  0.9111
27829SOL    HW285930   9.742   2.522   8.609 -0.5082 -3.6513  1.0012
27830SOL     OW85931   0.282   6.086   1.058  0.0989 -0.3534  0.5798
27830SOL    HW185932   0.323   6.003   1.082 -0.8550 -0.4744  1.8931
27830SOL    HW285933   0.196   6.084   1.100 -1.3582 -0.1719 -2.1867
27831SOL     OW85934   0.879   4.522   3.675  0.1109  0.0762  0.0375
27831SOL    HW185935   0.823   4.600   3.675  1.3473  0.9980 -0.2865
27831SOL    HW285936   0.881   4.494   3.584  0.0232 -0.0717  0.0813
27832SOL     OW85937   3.051   1.632   9.092 -0.0123 -0.5657 -0.2614
27832SOL    HW185938   3.044   1.582   9.174 -0.4230  1.1492  0.7891
27832SOL    HW285939   2.988   1.589   9.034  0.7093 -2.1883  0.0732
27833SOL     OW85940   0.092   3.311   7.646 -0.5342  0.0801 -0.3045
27833SOL    HW185941   0.169   3.355   7.610 -1.7376  0.5083 -2.4881
27833SOL    HW285942   0.099   3.324   7.741  1.3546  1.2698 -0.5618
27834SOL     OW85943   9.375   9.525   7.408 -0.0794 -0.3521 -0.2330
27834SOL    HW185944   9.293   9.547   7.452  0.5068  1.3693  0.0710
27834SOL    HW285945   9.360   9.550   7.317  0.5145  1.2255  0.0720
27835SOL     OW85946   8.993   6.778   3.095 -0.3387  0.2431  0.1563
27835SOL    HW185947   8.996   6.847   3.162  1.0066  0.8855 -0.5173
27835SOL    HW285948   8.920   6.802   3.039  0.1688  1.1949 -0.1226
27836SOL     OW85949   6.506  10.236   8.436  0.6485  0.3311 -0.3627
27836SOL    HW185950   6.472  10.161   8.485  2.7380 -0.1929  0.4060
27836SOL    HW285951   6.428  10.281   8.405 -0.7002 -2.3955 -1.2711
27837SOL     OW85952   0.664   7.604   7.903  0.4479  0.2445 -0.8414
27837SOL    HW185953   0.760   7.602   7.897  0.3744  1.1480 -3.4336
27837SOL    HW285954   0.645   7.684   7.951  0.9944  0.3834 -0.8504
27838SOL     OW85955   1.703   2.504   3.382  0.1810 -0.5132 -0.1079
27838SOL    HW185956   1.698   2.521   3.288  1.4709 -1.5614 -0.3899
27838SOL    HW285957   1.714   2.591   3.421  1.7080 -0.2108 -1.1140
27839SOL     OW85958   9.306   4.660   4.222  0.0662  0.1958  0.1924
27839SOL    HW185959   9.266   4.591   4.275  0.7535  0.6638  1.3632
27839SOL    HW285960   9.232   4.702   4.179 -0.3693 -1.2916 -0.6072
27840SOL     OW85961   5.190  10.104   2.635 -0.6182  0.2853 -0.5378
27840SOL    HW185962   5.149  10.018   2.629 -1.2570  0.5938 -0.7207
27840SOL    HW285963   5.125  10.164   2.597 -0.4874  0.9331  0.2280
27841SOL     OW85964   7.494   9.583   3.043 -0.1824 -0.4245  0.1839
27841SOL    HW185965   7.531   9.650   2.985  0.7728 -0.0798  1.1554
27841SOL    HW285966   7.569   9.552   3.093 -1.0383 -0.4688  1.4604
27842SOL     OW85967   8.263   0.404   5.502 -0.2799  0.6977  0.1200
27842SOL    HW185968   8.301   0.465   5.565  0.0438  1.0432 -0.4026
27842SOL    HW285969   8.168   0.419   5.507 -0.1918  1.3300 -0.0894
27843SOL     OW85970   0.868   5.537  10.109 -0.3081  0.0855 -0.2332
27843SOL    HW185971   0.802   5.477  10.074  1.7251 -2.0266 -0.6331
27843SOL    HW285972   0.883   5.600  10.039  1.1372 -1.9909 -1.9099
27844SOL     OW85973   5.105   3.795  10.002  0.6572 -0.4013 -0.4642
27844SOL    HW185974   5.116   3.889  10.015 -0.7390 -0.5688  2.9183
27844SOL    HW285975   5.175   3.755  10.055 -0.8912 -1.2139  1.0609
27845SOL     OW85976   3.411   6.111   2.299 -0.3236  0.3226  0.0498
27845SOL    HW185977   3.356   6.109   2.221  0.5178 -0.2611 -0.5327
27845SOL    HW285978   3.485   6.166   2.275 -0.3390  0.6098  0.6369
27846SOL     OW85979   9.806   7.990  10.008 -0.1792 -0.0286 -0.1038
27846SOL    HW185980   9.856   8.071  10.003  1.8567 -1.2874 -2.4760
27846SOL    HW285981   9.730   8.006   9.952 -0.4488  0.6357  0.4392
27847SOL     OW85982   4.253   3.247   6.275 -0.0006  0.4301  0.1908
27847SOL    HW185983   4.319   3.186   6.240 -0.7586 -0.8050  0.8300
27847SOL    HW285984   4.180   3.241   6.213  0.1013  1.0593  0.0056
27848SOL     OW85985   5.826   3.780   0.658  0.2515  0.0216 -0.3702
27848SOL    HW185986   5.731   3.782   0.673  0.3719 -1.4616  0.8202
27848SOL    HW285987   5.837   3.720   0.585  0.3302 -0.6523  0.1871
27849SOL     OW85988   4.651   7.755   1.022  0.2949 -0.3424 -0.0024
27849SOL    HW185989   4.628   7.743   1.115 -0.5827 -1.0239 -0.2949
27849SOL    HW285990   4.573   7.726   0.975  0.3162  1.0298 -0.9340
27850SOL     OW85991   6.416   3.162  10.235 -0.1016  0.1449 -0.0739
27850SOL    HW185992   6.397   3.197  10.323 -2.2332 -0.2089 -0.3373
27850SOL    HW285993   6.461   3.080  10.252 -3.3364 -1.6028  0.9156
27851SOL     OW85994   3.821   5.383   2.829  0.0014  0.1736  0.0188
27851SOL    HW185995   3.766   5.390   2.751  2.2893 -0.7585 -1.8163
27851SOL    HW285996   3.908   5.409   2.800  0.9682 -0.2850  2.2580
27852SOL     OW85997   0.986   7.438   6.901  0.1236  0.3425 -0.1477
27852SOL    HW185998   1.019   7.363   6.951 -1.2283 -1.2119 -1.4514
27852SOL    HW285999   1.007   7.417   6.810  0.4261  1.9533 -0.4706
27853SOL     OW86000   7.021   0.594   3.946 -0.2722 -0.4329  0.7004
27853SOL    HW186001   6.984   0.668   3.897 -0.1101 -0.4085  0.6156
27853SOL    HW286002   7.032   0.628   4.035  0.6699 -0.0624  0.4479
27854SOL     OW86003   7.369   3.336   2.713  0.0048  0.7472  0.5742
27854SOL    HW186004   7.329   3.340   2.626  0.0391  1.8084  0.5979
27854SOL    HW286005   7.366   3.243   2.736  0.3924  0.3821 -0.7400
27855SOL     OW86006   8.288   2.746   6.006  0.8499 -0.1865  0.4764
27855SOL    HW186007   8.326   2.833   6.009 -1.1744  0.7288  1.8939
27855SOL    HW286008   8.261   2.728   6.096  0.8791 -2.1298  0.1496
27856SOL     OW86009   6.427   3.449   1.236 -0.9146  0.0893 -0.0480
27856SOL    HW186010   6.376   3.515   1.189 -1.2195 -0.6219 -0.7331
27856SOL    HW286011   6.392   3.365   1.207 -1.0554 -0.3901  1.3898
27857SOL     OW86012   4.684   6.641   2.566 -0.7595 -0.6100  0.4290
27857SOL    HW186013   4.746   6.714   2.564 -2.2302  0.7521  1.9011
27857SOL    HW286014   4.728   6.575   2.620 -0.3166  0.0833  0.9449
27858SOL     OW86015  10.284   9.570  10.481 -0.4419 -0.2395 -0.2773
27858SOL    HW186016  10.285   9.493  10.425 -0.1238 -1.1409  0.9442
27858SOL    HW286017  10.326   9.543  10.562  0.4471  1.4617 -0.1117
27859SOL     OW86018   6.006   8.170   1.417  0.1009 -0.6664  0.0131
27859SOL    HW186019   5.940   8.128   1.473 -0.5377 -0.3088 -0.4664
27859SOL    HW286020   5.980   8.262   1.415 -0.5390 -0.8499 -1.7653
27860SOL     OW86021  10.333   7.044   2.201 -0.1532 -0.4126  0.2702
27860SOL    HW186022  10.265   7.068   2.137  0.5518  1.9557  0.3008
27860SOL    HW286023  10.299   7.076   2.285  1.2354  1.4498  0.1754
27861SOL     OW86024   0.252   6.783   4.103 -0.0198 -0.1923  0.2728
27861SOL    HW186025   0.298   6.862   4.131  0.3129 -0.7226  1.2499
27861SOL    HW286026   0.247   6.728   4.181 -0.5649 -0.9909 -0.3025
27862SOL     OW86027   2.803   9.448   3.098 -0.9570 -0.2718 -0.2765
27862SOL    HW186028   2.743   9.519   3.073 -1.0548 -0.3288 -0.2057
27862SOL    HW286029   2.838   9.416   3.015  1.7156  2.1083 -0.2182
27863SOL     OW86030   4.217   4.991   5.373  0.0026 -0.0142 -0.7037
27863SOL    HW186031   4.253   5.075   5.403 -0.5387 -0.6771  2.0877
27863SOL    HW286032   4.125   5.009   5.357 -0.2589 -0.1629  0.5160
27864SOL     OW86033   5.753   4.193   2.034 -0.2981  0.3243 -0.1475
27864SOL    HW186034   5.789   4.214   2.121  1.2638  0.9285 -0.9063
27864SOL    HW286035   5.826   4.205   1.974 -0.5464 -2.8432 -1.2620
27865SOL     OW86036   4.636   0.066   0.876  0.4267  0.1484  0.5575
27865SOL    HW186037   4.620   0.005   0.948 -0.5963  0.0020  0.2272
27865SOL    HW286038   4.571   0.042   0.810  0.6840  0.9358  0.0080
27866SOL     OW86039   9.766   1.817   9.145 -0.1194  0.1402 -0.5446
27866SOL    HW186040   9.685   1.853   9.181  1.8309  2.7634  1.6306
27866SOL    HW286041   9.788   1.875   9.073  0.0784 -0.2735 -0.8202
27867SOL     OW86042   9.620   9.604   9.846 -0.6101  0.0212  0.7739
27867SOL    HW186043   9.539   9.615   9.896 -1.5566  1.1492 -0.9037
27867SOL    HW286044   9.654   9.693   9.836 -1.3957  0.0950 -2.0017
27868SOL     OW86045   9.116   5.092   1.377 -0.0539  0.4151 -0.2028
27868SOL    HW186046   9.060   5.083   1.454  0.6221 -2.9580  0.0249
27868SOL    HW286047   9.058   5.126   1.309 -1.5051  0.2701  0.9251
27869SOL     OW86048   4.610   2.193   7.222 -0.4340 -0.4557  0.2376
27869SOL    HW186049   4.597   2.195   7.127  2.1090 -0.0360 -0.1628
27869SOL    HW286050   4.522   2.176   7.257 -1.6045  0.2221 -2.1192
27870SOL     OW86051   3.648   6.029  10.176  0.5954  0.0752 -0.2008
27870SOL    HW186052   3.590   6.012  10.251  0.9572  1.1500  0.3485
27870SOL    HW286053   3.674   6.121  10.187  0.0099  0.5054 -2.1128
27871SOL     OW86054   9.238   3.363  10.081  0.4433 -0.1618  0.4556
27871SOL    HW186055   9.255   3.308  10.004 -1.6198  0.3302 -0.4022
27871SOL    HW286056   9.178   3.430  10.050 -0.8429 -0.2344  2.6207
27872SOL     OW86057  10.212   0.190   2.038  0.3817  0.4531 -0.7725
27872SOL    HW186058  10.258   0.117   2.080 -3.7420 -2.0460 -0.0748
27872SOL    HW286059  10.194   0.159   1.949 -1.9346  0.2230 -0.2845
27873SOL     OW86060   7.657   9.771  10.483  0.3846 -0.3776 -0.0099
27873SOL    HW186061   7.697   9.685  10.471  0.0287 -0.2417 -2.7787
27873SOL    HW286062   7.700   9.827  10.418  0.3730  1.5028  1.4998
27874SOL     OW86063   9.053   5.124   0.118 -0.1122  0.3149 -0.0197
27874SOL    HW186064   9.143   5.143   0.092  0.3540  0.4517  1.5813
27874SOL    HW286065   9.036   5.036   0.084  0.4577  0.4679 -0.7243
27875SOL     OW86066   2.744   6.417   3.329  0.1757 -0.5390 -0.4350
27875SOL    HW186067   2.718   6.431   3.238  0.4732 -0.4764 -0.5106
27875SOL    HW286068   2.672   6.454   3.380  0.0517 -0.4877 -0.6431
27876SOL     OW86069   6.006   4.551   9.548 -0.7153  0.4740 -0.2834
27876SOL    HW186070   6.048   4.574   9.465  0.1973 -0.7038 -0.1793
27876SOL    HW286071   5.964   4.467   9.531  0.5560 -0.4271  0.7504
27877SOL     OW86072   3.961   3.501   6.887  0.4233  0.0097 -0.6525
27877SOL    HW186073   3.945   3.593   6.863 -0.6265 -0.5175 -2.0843
27877SOL    HW286074   3.952   3.500   6.983 -0.0171  1.3063 -0.6506
27878SOL     OW86075   1.264   5.957   3.666  0.0660 -0.0051  0.0907
27878SOL    HW186076   1.357   5.953   3.642 -0.4834 -0.6072 -2.1509
27878SOL    HW286077   1.223   5.890   3.612 -1.4753 -0.9126  2.2560
27879SOL     OW86078   1.205   2.907   5.735  0.7620 -0.2022 -0.6786
27879SOL    HW186079   1.114   2.933   5.725  1.3084  1.5552 -1.4885
27879SOL    HW286080   1.224   2.924   5.827  1.1991  2.8734 -1.2443
27880SOL     OW86081   5.201   3.483   2.546  0.2007 -0.6376 -0.0866
27880SOL    HW186082   5.250   3.508   2.468  1.0922  1.7928  1.1597
27880SOL    HW286083   5.115   3.524   2.535  0.3088 -0.3376  0.1718
27881SOL     OW86084   9.436   4.589  10.092 -0.4141  0.0487  0.0596
27881SOL    HW186085   9.496   4.561  10.161  0.3098 -2.4809 -1.4420
27881SOL    HW286086   9.358   4.534  10.104 -0.7995  0.4998 -0.3502
27882SOL     OW86087   2.900   0.514   2.035  0.6669  0.1160  0.1800
27882SOL    HW186088   2.836   0.585   2.028 -0.6691 -1.1510 -1.2249
27882SOL    HW286089   2.975   0.544   1.983  0.8221  1.1782  0.9859
27883SOL     OW86090   8.275   6.242   6.309 -0.2158  0.1832 -0.1591
27883SOL    HW186091   8.285   6.207   6.220  2.4148 -0.3712  0.2708
27883SOL    HW286092   8.254   6.334   6.296 -0.5471 -0.0359 -1.3450
27884SOL     OW86093   4.649   1.833   4.052  0.0212 -0.2888 -0.3102
27884SOL    HW186094   4.712   1.825   4.124 -0.1703 -1.9888 -0.2784
27884SOL    HW286095   4.564   1.814   4.093 -0.1571 -0.7161 -0.8706
27885SOL     OW86096   5.900   2.759   7.549 -0.1143 -0.3278 -0.2933
27885SOL    HW186097   5.953   2.687   7.582 -2.0432 -1.4536  0.5240
27885SOL    HW286098   5.899   2.746   7.454  1.0205 -0.2943 -0.3212
27886SOL     OW86099   6.302   5.898   2.727  0.5955  0.2228 -0.0953
27886SOL    HW186100   6.341   5.834   2.668 -0.2810 -0.5284  0.1157
27886SOL    HW286101   6.227   5.933   2.679  0.6586  0.5735  0.0605
27887SOL     OW86102   1.543   4.337  10.065 -0.0546  0.2705  0.1805
27887SOL    HW186103   1.516   4.310   9.977 -1.7214 -0.9691  1.0160
27887SOL    HW286104   1.505   4.425  10.075 -1.3875 -0.2818  0.2577
27888SOL     OW86105   6.431   2.194   9.804  0.3214  0.3747 -0.0929
27888SOL    HW186106   6.485   2.158   9.873  0.4351  0.3468 -0.1966
27888SOL    HW286107   6.477   2.273   9.776  0.1496  0.5225  0.0316
27889SOL     OW86108   3.832  10.040   4.561 -0.1320 -0.0958  0.3420
27889SOL    HW186109   3.750  10.090   4.554 -1.3625 -2.1057 -0.4463
27889SOL    HW286110   3.878  10.059   4.479 -0.8921 -0.7299 -0.2447
27890SOL     OW86111   6.586   4.490   5.130 -0.0986 -0.0778 -0.1454
27890SOL    HW186112   6.565   4.559   5.067  0.0310  0.6749  0.6088
27890SOL    HW286113   6.636   4.426   5.080  0.5200  0.7989 -0.6866
27891SOL     OW86114   4.114   5.924   5.805 -0.6226 -0.2345 -0.1295
27891SOL    HW186115   4.109   5.968   5.721  0.3704 -0.9281 -0.5763
27891SOL    HW286116   4.110   5.830   5.784 -2.0056 -0.3999  0.7390
27892SOL     OW86117   8.250   3.616   6.201  0.2616 -0.0764 -0.1688
27892SOL    HW186118   8.168   3.576   6.174 -1.2199  1.7841  1.2875
27892SOL    HW286119   8.231   3.709   6.206  1.9964  0.2471  1.7692
27893SOL     OW86120   5.526   0.440   6.650  0.1775  0.0903  0.1640
27893SOL    HW186121   5.483   0.357   6.630  0.7569 -0.1270 -0.1939
27893SOL    HW286122   5.456   0.496   6.683 -0.1911 -0.5844  0.5413
27894SOL     OW86123   7.274   3.536   8.398 -0.1475  0.0014 -0.3870
27894SOL    HW186124   7.271   3.541   8.303  0.1938 -1.9802 -0.5580
27894SOL    HW286125   7.206   3.472   8.421 -0.1963  0.4099  0.7011
27895SOL     OW86126   8.836   0.658   6.323  0.1179  0.2275 -0.1684
27895SOL    HW186127   8.752   0.614   6.308 -0.2024  1.0554 -0.9011
27895SOL    HW286128   8.899   0.587   6.331 -0.8390 -0.4752  1.7647
27896SOL     OW86129   0.167   8.191   6.575 -0.0073  0.1568 -0.3395
27896SOL    HW186130   0.156   8.147   6.660  2.3387 -1.5061 -0.7926
27896SOL    HW286131   0.089   8.167   6.525  0.9640 -3.4097 -0.4175
27897SOL     OW86132   2.884   7.451   2.183 -0.2188  0.0553 -0.1629
27897SOL    HW186133   2.812   7.485   2.130  0.6193 -1.5533 -2.4722
27897SOL    HW286134   2.841   7.395   2.248 -1.2043  1.2027  0.2040
27898SOL     OW86135   6.087   1.138   3.136 -0.2273  0.2846  0.7294
27898SOL    HW186136   6.075   1.104   3.225 -1.9386 -2.2855 -0.3724
27898SOL    HW286137   6.181   1.155   3.130  0.4326 -2.3103  2.1547
27899SOL     OW86138   0.436   0.631   6.945  0.0700 -0.3888 -0.1100
27899SOL    HW186139   0.502   0.581   6.897 -1.9410 -2.8109 -0.5519
27899SOL    HW286140   0.354   0.613   6.900 -0.9183  3.1438 -0.0634
27900SOL     OW86141   7.174  10.483   5.389 -0.2714 -0.9380  0.4064
27900SOL    HW186142   7.119  10.559   5.371 -0.0151 -0.8632 -0.0786
27900SOL    HW286143   7.241  10.516   5.448 -0.4272 -0.8987  0.5622
27901SOL     OW86144   4.247   7.997   5.753 -0.0611 -0.5200  0.1662
27901SOL    HW186145   4.173   8.056   5.740 -1.5596 -2.2411  0.5912
27901SOL    HW286146   4.253   7.947   5.671  0.6540 -0.4035  0.1347
27902SOL     OW86147   1.412   4.400   8.086 -0.3246 -0.0158  0.2863
27902SOL    HW186148   1.422   4.451   8.006  0.0169  0.0553  0.3722
27902SOL    HW286149   1.496   4.356   8.097 -0.2015  0.3596  0.8741
27903SOL     OW86150   0.220   8.807   7.905  0.3260  0.0986  0.3853
27903SOL    HW186151   0.181   8.818   7.818  2.3341  0.4692 -0.5230
27903SOL    HW286152   0.285   8.738   7.893  0.9643  0.4954  1.4856
27904SOL     OW86153   6.348   6.215   7.268  0.3596  0.1216 -0.0377
27904SOL    HW186154   6.413   6.251   7.328  2.7234 -1.3429 -1.5350
27904SOL    HW286155   6.323   6.289   7.212  2.5038  0.2938 -0.8578
27905SOL     OW86156   1.526   0.974   4.913  0.5158  0.1101  0.5499
27905SOL    HW186157   1.594   0.941   4.854 -0.2952 -0.3849 -0.1353
27905SOL    HW286158   1.474   0.896   4.934 -2.4961  1.1015 -2.4579
27906SOL     OW86159   3.799   7.405   2.949  0.0766 -0.9405 -0.6749
27906SOL    HW186160   3.851   7.384   2.872  0.6442 -0.3931 -0.4521
27906SOL    HW286161   3.747   7.481   2.923  0.8157 -0.2837 -0.3078
27907SOL     OW86162   9.485  10.336   4.007  0.4413 -0.4016 -0.4154
27907SOL    HW186163   9.560  10.313   4.062 -0.8715 -0.1951  1.5343
27907SOL    HW286164   9.472  10.258   3.953  1.0000 -1.1212  0.4421
27908SOL     OW86165   6.710   3.858   8.307 -0.4156  0.2616  0.5190
27908SOL    HW186166   6.681   3.767   8.310 -2.2802  0.8005  0.1810
27908SOL    HW286167   6.730   3.880   8.398  0.4734 -0.5765  0.5512
27909SOL     OW86168   7.762   9.115   2.354 -0.0922 -0.1252 -0.8868
27909SOL    HW186169   7.748   9.044   2.417  1.8954  0.6353  0.5370
27909SOL    HW286170   7.789   9.070   2.273 -2.3509 -1.1024 -1.1618
27910SOL     OW86171   7.452   8.783   4.866  0.0325 -0.2864 -0.1298
27910SOL    HW186172   7.409   8.698   4.873 -2.3778  0.8527  0.0050
27910SOL    HW286173   7.445   8.820   4.954 -0.9668  0.9133 -0.6872
27911SOL     OW86174  10.038   5.745   1.450  0.7155  0.0008 -0.3687
27911SOL    HW186175  10.047   5.650   1.459 -0.1978  0.0414  1.2366
27911SOL    HW286176   9.959   5.767   1.499  1.0132  1.6272 -0.5532
27912SOL     OW86177   9.478   0.607   3.279  0.1703  0.2269  0.3407
27912SOL    HW186178   9.556   0.633   3.328  0.4017 -1.1448  0.7592
27912SOL    HW286179   9.471   0.513   3.295 -1.5454  0.3187  0.2533
27913SOL     OW86180   6.685   0.588   3.181  0.5471 -0.3204 -0.2486
27913SOL    HW186181   6.641   0.557   3.260 -1.3644  0.9751 -0.7514
27913SOL    HW286182   6.698   0.682   3.195  2.5429 -0.5133 -0.4412
27914SOL     OW86183   5.698   8.721   2.277 -0.4236 -0.1701 -0.0282
27914SOL    HW186184   5.647   8.737   2.198 -0.8521 -0.6737  0.1408
27914SOL    HW286185   5.636   8.735   2.348 -0.0950  0.0722  0.2176
27915SOL     OW86186   3.795   4.880   3.871  0.5314 -0.0096  0.1472
27915SOL    HW186187   3.723   4.943   3.881 -0.3748 -1.1028  0.8054
27915SOL    HW286188   3.849   4.916   3.802  0.3644  1.7853  0.8991
27916SOL     OW86189   1.351   5.845   0.127 -0.4663 -0.2684  0.0987
27916SOL    HW186190   1.285   5.816   0.064 -0.6112 -1.5878  0.8329
27916SOL    HW286191   1.411   5.899   0.075 -1.1424 -0.4955 -0.9461
27917SOL     OW86192   7.343   0.743   1.762 -0.1906 -0.1037 -0.1755
27917SOL    HW186193   7.282   0.814   1.743 -2.2637 -1.9549 -0.9542
27917SOL    HW286194   7.317   0.711   1.849  0.7586  0.0864  0.1961
27918SOL     OW86195   6.283   4.970   2.009 -0.3327 -0.5870  0.5020
27918SOL    HW186196   6.235   5.005   1.934  1.7405  1.9020  0.2188
27918SOL    HW286197   6.360   4.928   1.971 -0.2810 -1.1279  1.1701
27919SOL     OW86198   6.180   9.767   0.987 -0.3000  0.3755 -0.1461
27919SOL    HW186199   6.183   9.787   0.893  0.1449  1.2973  0.0522
27919SOL    HW286200   6.224   9.842   1.028 -1.3604  0.4614  0.8652
27920SOL     OW86201   2.201   5.658   9.991  0.5727  0.4332 -0.1491
27920SOL    HW186202   2.247   5.574   9.998 -1.0607 -0.4874  0.2083
27920SOL    HW286203   2.145   5.647   9.914  0.2903  1.1825 -0.0550
27921SOL     OW86204   7.663   4.506   3.657  0.0050  0.1802 -0.0258
27921SOL    HW186205   7.731   4.482   3.594 -0.6063 -2.9258  0.3272
27921SOL    HW286206   7.591   4.539   3.603 -0.2247 -1.7059 -0.9394
27922SOL     OW86207   2.175   4.623   7.905  0.2350 -0.2026 -0.0132
27922SOL    HW186208   2.149   4.531   7.896 -0.2404 -0.4630  2.9507
27922SOL    HW286209   2.270   4.621   7.898  0.2114 -0.8736 -0.2683
27923SOL     OW86210   7.353   1.545   4.664 -0.1912 -0.1947  0.1250
27923SOL    HW186211   7.403   1.518   4.741 -1.3504  0.1415  1.0268
27923SOL    HW286212   7.268   1.502   4.674 -0.6710  0.5698 -0.4939
27924SOL     OW86213   0.013   2.378   9.060  0.5516  0.3440  0.1446
27924SOL    HW186214   0.054   2.292   9.055  0.3309  0.1604  1.2770
27924SOL    HW286215   0.077   2.437   9.019  1.2835 -0.1618  0.5508
27925SOL     OW86216   8.662   9.434   8.925 -0.0394  0.2285  0.0046
27925SOL    HW186217   8.729   9.470   8.983 -0.0328  1.0281 -0.4809
27925SOL    HW286218   8.682   9.472   8.840 -0.1894 -0.7500 -0.4847
27926SOL     OW86219   9.762   5.111   9.484 -0.0704  0.2181 -0.3388
27926SOL    HW186220   9.740   5.116   9.577 -0.5704 -1.3552 -0.3536
27926SOL    HW286221   9.824   5.183   9.471  0.5609  0.0300  1.3637
27927SOL     OW86222   5.246   6.988   5.127  0.2342  0.4819 -0.1103
27927SOL    HW186223   5.188   7.056   5.161 -2.6429 -1.0224 -1.6335
27927SOL    HW286224   5.274   7.021   5.041  0.2932  0.5267 -0.0732
27928SOL     OW86225   1.050   5.697   4.770  0.6645 -0.6269 -0.0455
27928SOL    HW186226   0.984   5.767   4.766  0.2458 -1.0559 -0.8310
27928SOL    HW286227   1.086   5.704   4.859  1.4498  1.3112 -0.4596
27929SOL     OW86228   8.695   6.841   0.924 -0.2542 -0.4743 -0.2481
27929SOL    HW186229   8.618   6.798   0.888 -1.5606  1.4628  0.0638
27929SOL    HW286230   8.688   6.828   1.019 -0.1209 -0.4143 -0.2294
27930SOL     OW86231   9.142   5.003   2.719  0.1787  0.1752  0.2379
27930SOL    HW186232   9.121   4.973   2.807  0.1298 -0.9138 -0.1254
27930SOL    HW286233   9.076   4.961   2.663  0.0963  0.9947 -0.3017
27931SOL     OW86234   6.865   9.591   3.979 -0.2569 -0.2778  0.2084
27931SOL    HW186235   6.927   9.664   3.971 -0.1325 -0.2997  0.9383
27931SOL    HW286236   6.909   9.518   3.935 -0.6236  0.2190 -1.0332
27932SOL     OW86237   4.936   0.236   1.571  0.7620 -0.0467 -0.5609
27932SOL    HW186238   5.019   0.234   1.523  0.4838 -0.4649 -1.0483
27932SOL    HW286239   4.934   0.321   1.613  1.7331 -0.2829 -0.0138
27933SOL     OW86240  10.109   1.596   4.890  0.3497  0.3641 -0.0411
27933SOL    HW186241  10.018   1.625   4.904  0.8133  1.5773  0.6774
27933SOL    HW286242  10.109   1.504   4.916 -0.3069  0.8273  1.8149
27934SOL     OW86243   9.491   4.514   4.340 -0.3971  0.0390 -0.4220
27934SOL    HW186244   9.546   4.564   4.401 -0.4803 -2.4658  1.9145
27934SOL    HW286245   9.436   4.580   4.298  1.3446  2.1669  0.3877
27935SOL     OW86246   6.734  10.474   5.626  0.2052 -0.5351  0.0817
27935SOL    HW186247   6.814  10.425   5.604  0.1322 -1.7305  2.1714
27935SOL    HW286248   6.663  10.422   5.589  0.2292 -1.2724  1.0194
27936SOL     OW86249   2.326  10.244   0.636  0.0579  0.4591 -0.0263
27936SOL    HW186250   2.362  10.333   0.633 -0.0878  0.5586  0.7863
27936SOL    HW286251   2.402  10.187   0.625  0.3796  0.6782  0.9319
27937SOL     OW86252   5.653   7.017   3.131  0.2768 -1.1341 -0.3742
27937SOL    HW186253   5.693   7.099   3.160  0.9790 -0.7780 -2.2193
27937SOL    HW286254   5.560   7.027   3.151  0.2215  0.4505 -1.2160
27938SOL     OW86255   7.754   3.679   8.875  0.2960  0.2536  0.0038
27938SOL    HW186256   7.846   3.659   8.889  0.0604 -0.3235  0.7833
27938SOL    HW286257   7.726   3.722   8.955 -0.4243 -0.7360  0.3019
27939SOL     OW86258   6.202   3.915   3.078  0.1326 -0.2082 -0.2520
27939SOL    HW186259   6.279   3.911   3.134 -0.3114  0.3276  0.4157
27939SOL    HW286260   6.164   4.001   3.095 -0.7993 -0.5882 -0.3209
27940SOL     OW86261   8.822  10.087   9.194  0.5045 -0.0717  0.3637
27940SOL    HW186262   8.905  10.041   9.202  0.7279  0.5811  2.3701
27940SOL    HW286263   8.807  10.126   9.281 -0.9847  1.3736 -0.4712
27941SOL     OW86264   8.527   5.220   7.166  0.1271 -0.4658 -0.5751
27941SOL    HW186265   8.550   5.128   7.171  1.0681 -0.2830 -1.2120
27941SOL    HW286266   8.439   5.221   7.128 -0.9324 -1.1755  1.6769
27942SOL     OW86267   9.836   1.290   2.728  0.0329 -0.3323 -0.9240
27942SOL    HW186268   9.874   1.310   2.643  0.0619 -0.7271 -1.0049
27942SOL    HW286269   9.793   1.205   2.717  0.4580 -0.6243 -0.4192
27943SOL     OW86270   7.593   0.618   5.153  0.6021 -0.3786 -0.2185
27943SOL    HW186271   7.674   0.660   5.124 -0.1948  1.7109  0.3920
27943SOL    HW286272   7.609   0.524   5.144  3.5162 -0.0904  0.9810
27944SOL     OW86273   0.547   8.502   4.445  0.2066  0.1953 -0.1091
27944SOL    HW186274   0.586   8.546   4.520 -0.3301  0.1299  0.2120
27944SOL    HW286275   0.467   8.462   4.479  0.8501 -1.3245 -0.2999
27945SOL     OW86276   3.860   3.813   4.579 -0.3266  0.5014 -0.2648
27945SOL    HW186277   3.771   3.801   4.613 -0.6256  0.8180 -0.9328
27945SOL    HW286278   3.851   3.812   4.484  0.5387 -0.5812 -0.3598
27946SOL     OW86279   5.795   0.353   6.432 -0.3288  0.3721  0.4030
27946SOL    HW186280   5.837   0.318   6.354  2.2739  2.3789  0.7558
27946SOL    HW286281   5.797   0.281   6.495 -0.3980 -0.5653 -0.6441
27947SOL     OW86282   7.926   6.212   6.788  0.0313  0.5036  0.4227
27947SOL    HW186283   7.946   6.176   6.702 -4.1207 -1.4048 -0.0059
27947SOL    HW286284   7.863   6.282   6.771 -1.5494 -0.5009  1.8656
27948SOL     OW86285   8.921   1.021   0.563 -0.4013  0.1628 -0.1824
27948SOL    HW186286   8.930   1.116   0.562  1.0722  0.0439 -1.0942
27948SOL    HW286287   8.903   0.998   0.472 -1.8855 -0.3572  0.2248
27949SOL     OW86288   8.803   5.903   0.561  0.1061 -0.0096  0.4544
27949SOL    HW186289   8.826   5.822   0.606 -0.8237  0.2679  1.4850
27949SOL    HW286290   8.845   5.896   0.476  2.2983 -0.3898  1.4852
27950SOL     OW86291   9.770   9.253   3.312  0.6096  0.3116 -0.1239
27950SOL    HW186292   9.818   9.276   3.233  1.6015  1.9599  0.9055
27950SOL    HW286293   9.808   9.169   3.339  1.6361  0.6961 -0.3368
27951SOL     OW86294   4.347   0.051   2.487 -0.0802  0.7599  0.4903
27951SOL    HW186295   4.253   0.063   2.495 -0.5754 -2.5396  1.1571
27951SOL    HW286296   4.383   0.083   2.570 -0.5077  2.2907  0.1223
27952SOL     OW86297   3.149   0.812   6.630 -0.4861 -0.4287  0.1371
27952SOL    HW186298   3.098   0.783   6.706  2.0443 -0.4417  1.9616
27952SOL    HW286299   3.117   0.758   6.558 -2.4222 -1.0091  1.3450
27953SOL     OW86300   9.800   6.361   9.323  0.0621 -0.2152 -0.1363
27953SOL    HW186301   9.888   6.398   9.333  0.3369 -1.0678  0.7204
27953SOL    HW286302   9.802   6.280   9.374 -2.2380  1.3996  2.8337
27954SOL     OW86303   6.667   7.463   0.356  0.1564 -0.5288  0.3084
27954SOL    HW186304   6.656   7.377   0.396  1.3386 -0.4623  0.8133
27954SOL    HW286305   6.595   7.469   0.293  0.2602 -2.0322  0.0042
27955SOL     OW86306   8.142   4.299   2.684 -0.2918  0.0562  0.4488
27955SOL    HW186307   8.149   4.378   2.629 -3.4811  0.2684  0.1449
27955SOL    HW286308   8.102   4.234   2.627  0.7193 -1.2663  1.2083
27956SOL     OW86309   9.816   1.557   9.087 -0.5356  0.3337 -0.8162
27956SOL    HW186310   9.788   1.637   9.132 -0.1185  0.9781 -1.6744
27956SOL    HW286311   9.738   1.503   9.082 -0.4719 -0.0028  1.1718
27957SOL     OW86312   9.737   3.461   2.614 -0.3164 -0.6236  0.2239
27957SOL    HW186313   9.818   3.469   2.664  1.4793 -0.4472 -2.5184
27957SOL    HW286314   9.719   3.367   2.612  1.2763 -0.9551 -1.1639
27958SOL     OW86315   6.164   5.892   6.370 -0.2923  0.0165 -0.1812
27958SOL    HW186316   6.162   5.797   6.357 -0.5616  0.1424 -1.1018
27958SOL    HW286317   6.186   5.928   6.284 -1.5787  0.8609 -0.1756
27959SOL     OW86318   0.416   3.235   7.649 -0.3583  0.2195 -0.2698
27959SOL    HW186319   0.493   3.261   7.699 -0.9676  0.6984  0.4452
27959SOL    HW286320   0.388   3.316   7.605  0.4719 -0.3090 -1.8151
27960SOL     OW86321   5.583   3.943   5.978 -0.4397 -0.1435  0.1511
27960SOL    HW186322   5.495   3.924   6.011 -1.0212 -2.7161 -2.4609
27960SOL    HW286323   5.580   3.917   5.886  2.4741  1.7668 -0.6111
27961SOL     OW86324   5.774   9.798   8.258 -0.1654 -0.0054 -0.4142
27961SOL    HW186325   5.814   9.721   8.218  1.3915  0.1578  0.7333
27961SOL    HW286326   5.841   9.832   8.317 -1.4659  1.2148  0.4276
27962SOL     OW86327   2.022   3.689   5.718 -0.3944 -0.0355  0.2259
27962SOL    HW186328   2.093   3.631   5.691 -0.2051 -0.7422  2.0615
27962SOL    HW286329   2.065   3.757   5.769 -1.0633 -1.0944  2.3405
27963SOL     OW86330   5.291   9.898  10.058 -0.0883 -0.5401 -0.2258
27963SOL    HW186331   5.376   9.888  10.102 -0.5762  0.9245  1.1418
27963SOL    HW286332   5.227   9.873  10.124 -0.8149  0.9055 -0.3605
27964SOL     OW86333   4.435   3.082   1.503  0.0346 -0.2243  0.2370
27964SOL    HW186334   4.410   2.992   1.524 -1.6306 -0.2858 -1.6559
27964SOL    HW286335   4.516   3.072   1.453 -0.8690 -0.8591 -1.1802
27965SOL     OW86336   1.609   8.427   8.848 -0.3348 -0.2483 -0.6742
27965SOL    HW186337   1.515   8.411   8.854 -0.2723 -0.6006 -0.6139
27965SOL    HW286338   1.638   8.373   8.775 -0.4360  1.0627 -1.7068
27966SOL     OW86339   4.932   2.754   6.181  0.1544  0.4438 -0.3877
27966SOL    HW186340   4.952   2.703   6.103 -0.6039  0.9835 -0.9464
27966SOL    HW286341   4.942   2.692   6.253 -1.8006 -0.8273 -1.1142
27967SOL     OW86342   7.071   5.851  10.419 -0.0552  0.5458  0.3977
27967SOL    HW186343   7.140   5.785  10.410 -0.4785  0.2844 -1.1081
27967SOL    HW286344   7.009   5.831  10.350 -1.6758  0.7845  1.7303
27968SOL     OW86345   8.891   1.965   0.586 -0.2108  0.0041  0.2681
27968SOL    HW186346   8.895   1.983   0.492  3.4546  0.4256  0.3408
27968SOL    HW286347   8.798   1.952   0.604 -1.0516 -0.3598 -3.4273
27969SOL     OW86348   4.988   1.652   8.343  0.6571 -0.1919  0.5932
27969SOL    HW186349   5.059   1.625   8.285 -0.1218  1.0613 -1.0011
27969SOL    HW286350   4.910   1.609   8.309  0.4352 -0.7212  1.7060
27970SOL     OW86351   5.985   5.875   3.261 -0.6093 -0.7979  0.3756
27970SOL    HW186352   5.904   5.881   3.312 -0.5977 -0.9675  0.4139
27970SOL    HW286353   6.042   5.820   3.314  0.0165  0.4016  1.0034
27971SOL     OW86354   2.433   3.080   8.940 -0.0522  0.1110 -0.4280
27971SOL    HW186355   2.444   3.094   9.034 -0.4626 -0.2130 -0.3309
27971SOL    HW286356   2.471   2.993   8.925 -3.0134 -1.3845  0.0438
27972SOL     OW86357   7.805   9.351   7.027  0.0684 -0.2390  0.1425
27972SOL    HW186358   7.740   9.311   7.085  1.2158 -2.1400  0.2080
27972SOL    HW286359   7.857   9.407   7.084 -2.1464  2.2358 -0.1137
27973SOL     OW86360   0.905   7.007   0.012  0.4315 -0.3254 -0.1982
27973SOL    HW186361   0.965   7.082   0.005  1.1633 -0.9008 -0.2703
27973SOL    HW286362   0.962   6.934   0.037 -0.2690 -0.8636 -0.1640
27974SOL     OW86363   5.500   8.418   8.990 -0.0707 -0.9200  0.0212
27974SOL    HW186364   5.479   8.505   9.024  1.6196  0.1368 -1.4391
27974SOL    HW286365   5.416   8.377   8.975 -0.9421 -0.8063  3.6481
27975SOL     OW86366   1.337   4.063   9.380 -0.1296 -0.0075 -0.0079
27975SOL    HW186367   1.423   4.059   9.422  0.5287 -1.3786 -1.3678
27975SOL    HW286368   1.353   4.105   9.295 -0.3571 -2.0027 -1.1141
27976SOL     OW86369   0.007   7.579   4.584  0.6307 -0.4044 -0.4627
27976SOL    HW186370   0.070   7.553   4.652 -0.5690 -1.3202  0.3583
27976SOL    HW286371   0.005   7.505   4.524  0.1213 -0.5270 -0.3038
27977SOL     OW86372   3.896   5.270   0.728 -0.3716 -0.4506  0.6963
27977SOL    HW186373   3.822   5.285   0.787  0.4481  0.1634  1.6157
27977SOL    HW286374   3.938   5.191   0.761  1.6869  1.3443  2.7471
27978SOL     OW86375   9.860   1.953   4.759 -0.0711  0.4656 -0.7021
27978SOL    HW186376   9.787   1.893   4.774  0.9612 -0.1491  2.7101
27978SOL    HW286377   9.828   2.039   4.787  0.1685  0.3995 -0.2157
27979SOL     OW86378   4.364   3.227   0.343  0.2616 -0.5677 -0.1225
27979SOL    HW186379   4.448   3.183   0.330  0.0959 -1.4771  1.5675
27979SOL    HW286380   4.387   3.311   0.381  0.4253 -0.7315  0.1472
27980SOL     OW86381   2.165   5.800   0.513  0.0062 -0.2427  0.2090
27980SOL    HW186382   2.168   5.875   0.453  0.1291 -1.6550 -1.6166
27980SOL    HW286383   2.257   5.782   0.533  0.1673 -1.3863 -1.3491
27981SOL     OW86384   4.361   5.486   5.762 -0.0076  0.1013  0.2210
27981SOL    HW186385   4.361   5.414   5.700  0.5129  0.2802  0.0062
27981SOL    HW286386   4.431   5.544   5.731  0.6920 -0.1221  1.3420
27982SOL     OW86387   8.708   9.662  10.163 -0.0544  0.6997  0.2917
27982SOL    HW186388   8.682   9.636  10.075  3.6272  1.2482 -1.1617
27982SOL    HW286389   8.691   9.756  10.166  0.5518  0.8328 -0.1846
27983SOL     OW86390   3.410   7.740   4.955 -0.1632 -0.0634 -0.0140
27983SOL    HW186391   3.328   7.783   4.978 -0.3579 -0.5611  0.2375
27983SOL    HW286392   3.384   7.656   4.917  0.2157 -0.0415 -0.3274
27984SOL     OW86393   2.304   6.176   0.077  0.6053 -0.1277  0.9335
27984SOL    HW186394   2.307   6.083   0.053 -0.6390  0.3908 -1.6247
27984SOL    HW286395   2.243   6.181   0.150 -1.5916 -1.1078 -0.7061
27985SOL     OW86396   7.494   5.378   0.470 -0.0344  0.0256  0.2873
27985SOL    HW186397   7.519   5.468   0.487 -0.2481  0.1223  0.0900
27985SOL    HW286398   7.576   5.331   0.459  0.0938  0.0851  0.9508
27986SOL     OW86399   6.756   4.672   2.262 -0.0037  0.4304  0.4035
27986SOL    HW186400   6.695   4.728   2.311 -1.7452  0.9276 -2.1094
27986SOL    HW286401   6.757   4.589   2.309  0.8316  1.7702  2.9247
27987SOL     OW86402   0.190   0.459   9.417  0.0603 -0.3128 -0.0021
27987SOL    HW186403   0.255   0.395   9.447  1.0178  0.8038  0.3737
27987SOL    HW286404   0.115   0.446   9.475  0.3083 -0.9774  0.1821
27988SOL     OW86405  10.167   0.222   5.440  0.2725 -0.2346 -0.8352
27988SOL    HW186406  10.086   0.262   5.471 -0.2892  0.1616 -2.6634
27988SOL    HW286407  10.227   0.296   5.429  0.7022 -0.4575 -0.0264
27989SOL     OW86408   0.154   2.591   4.485 -0.2849  0.0335  0.7499
27989SOL    HW186409   0.060   2.594   4.465 -0.0850  2.6891 -0.1446
27989SOL    HW286410   0.164   2.653   4.557  1.0221  1.1888 -0.3853
27990SOL     OW86411   5.942   9.560   6.328  0.3122  0.6100  0.2820
27990SOL    HW186412   6.028   9.524   6.303 -0.6884 -0.7008 -1.5317
27990SOL    HW286413   5.944   9.651   6.298 -0.1191 -0.3602 -3.1856
27991SOL     OW86414   3.616   3.626   8.828  0.4317  0.7010  0.0906
27991SOL    HW186415   3.562   3.571   8.771  0.8359  1.2878 -0.8781
27991SOL    HW286416   3.706   3.601   8.809  0.5837  1.1377  0.2124
27992SOL     OW86417   8.946   1.148   0.874 -0.3137  0.1672 -0.6212
27992SOL    HW186418   8.895   1.202   0.935 -0.6542  0.0228 -0.7711
27992SOL    HW286419   8.975   1.074   0.927 -0.6381  0.0248 -0.6382
27993SOL     OW86420   5.714   8.288   0.417  0.0824 -0.3457  0.4252
27993SOL    HW186421   5.637   8.232   0.413  0.8278 -1.4705  1.0565
27993SOL    HW286422   5.771   8.256   0.348  0.1386  0.2490  0.1889
27994SOL     OW86423   9.873   2.706   3.652 -0.1483 -0.1031  0.9727
27994SOL    HW186424   9.882   2.613   3.673  0.4118  0.0160  1.2681
27994SOL    HW286425   9.903   2.714   3.562  0.0933 -0.1582  1.0489
27995SOL     OW86426   4.867   7.325   7.786  0.2230 -0.2987  0.2656
27995SOL    HW186427   4.775   7.339   7.762  0.4801  0.0559 -0.5573
27995SOL    HW286428   4.866   7.316   7.881 -0.8047 -1.4632  0.1650
27996SOL     OW86429   0.851   1.872   0.270  0.6598  0.0742 -0.0266
27996SOL    HW186430   0.755   1.873   0.264  0.6986  1.4262 -0.7877
27996SOL    HW286431   0.879   1.810   0.203  0.3200 -0.4019  0.2678
27997SOL     OW86432   2.704   4.303   4.803 -0.2358  0.2496  0.1202
27997SOL    HW186433   2.671   4.260   4.724 -0.2787  1.1515 -0.3652
27997SOL    HW286434   2.628   4.346   4.840 -0.0386  0.5533  0.1750
27998SOL     OW86435   3.690   5.227   2.615 -0.4558  0.2852 -0.0091
27998SOL    HW186436   3.601   5.240   2.647 -0.2316  1.9037  0.0237
27998SOL    HW286437   3.686   5.255   2.523 -0.4227 -1.5509 -0.6046
27999SOL     OW86438   5.199   6.647   9.236 -0.5226  0.2162  0.4225
27999SOL    HW186439   5.230   6.630   9.147  0.5607  1.0769  0.6092
27999SOL    HW286440   5.194   6.743   9.242  2.0081  0.3665  2.0590
28000SOL     OW86441   7.538   8.942   9.440 -0.5859  0.1784  0.0865
28000SOL    HW186442   7.508   8.894   9.363  0.7203 -0.7487  0.1222
28000SOL    HW286443   7.599   8.882   9.483  1.3929  1.9655 -0.0681
28001SOL     OW86444   3.965   8.227   6.428 -0.3120  0.8678  0.0913
28001SOL    HW186445   3.925   8.150   6.468  0.3804 -0.1601 -1.1426
28001SOL    HW286446   3.927   8.231   6.340 -0.5062  2.0806  0.2118
28002SOL     OW86447   1.572   0.760   4.558 -0.2370 -0.0166 -0.6312
28002SOL    HW186448   1.607   0.835   4.607  0.5357 -0.5917 -0.2832
28002SOL    HW286449   1.477   0.771   4.563 -0.1358  1.0776 -0.8040
28003SOL     OW86450   5.678   7.233   3.623  0.1606  0.2896  0.5211
28003SOL    HW186451   5.693   7.154   3.572 -0.9825  0.3653  0.0402
28003SOL    HW286452   5.763   7.278   3.624 -0.0778  1.0048 -2.5740
28004SOL     OW86453  10.009   5.243   6.784 -0.0902 -0.3592 -0.3940
28004SOL    HW186454   9.932   5.193   6.813  0.0289 -0.5160 -0.3477
28004SOL    HW286455  10.082   5.184   6.797  0.2467  0.3378  1.0552
28005SOL     OW86456   4.572   8.459   4.541 -0.1032 -0.2048 -0.2179
28005SOL    HW186457   4.575   8.539   4.594  0.1678 -0.8228  0.7207
28005SOL    HW286458   4.656   8.416   4.557 -0.8613 -1.4605  0.5627
28006SOL     OW86459   8.587   1.417   5.196  0.0985  0.2454  0.4428
28006SOL    HW186460   8.595   1.466   5.278 -0.5046  0.0734  0.6146
28006SOL    HW286461   8.514   1.357   5.212 -0.8268  1.0506 -0.6449
28007SOL     OW86462   1.776   9.998   1.568  0.3832 -0.1657 -0.1024
28007SOL    HW186463   1.831  10.070   1.536  0.6206  0.5097  1.7169
28007SOL    HW286464   1.829   9.920   1.553  1.2750  0.3302  0.3356
28008SOL     OW86465   0.842   3.791   1.217  0.3559 -0.2188 -0.6172
28008SOL    HW186466   0.847   3.705   1.176  1.3129 -0.7515  0.5829
28008SOL    HW286467   0.749   3.801   1.240  0.1744 -0.7606 -1.0974
28009SOL     OW86468   2.022   5.917   9.949  0.4154  0.3343 -0.3751
28009SOL    HW186469   2.015   5.822   9.958 -1.8550  0.5367  0.5217
28009SOL    HW286470   1.935   5.950   9.969  1.4104  2.7063  0.4210
28010SOL     OW86471   1.003   9.190   8.898  0.0135 -0.0502 -0.2705
28010SOL    HW186472   1.024   9.184   8.992 -0.9758 -0.2641 -0.0412
28010SOL    HW286473   1.064   9.129   8.856  1.3489  1.0148  0.0598
28011SOL     OW86474   1.112  10.002   1.440  0.1861  0.1352  0.3915
28011SOL    HW186475   1.061   9.958   1.507 -0.3499  0.4356  0.1923
28011SOL    HW286476   1.153   9.931   1.390 -1.6783 -0.2158 -0.7175
28012SOL     OW86477   8.460   1.625   0.926  0.4348  0.0169 -0.5869
28012SOL    HW186478   8.410   1.635   1.007  0.7805  1.9987 -0.5744
28012SOL    HW286479   8.551   1.614   0.955  0.5886  0.9396 -0.6778
28013SOL     OW86480   2.115   0.963   5.092  0.4229  0.3184 -0.2021
28013SOL    HW186481   2.077   0.907   5.160 -1.5137  0.9196 -0.7038
28013SOL    HW286482   2.191   1.004   5.133  1.0488 -1.5732  0.6221
28014SOL     OW86483   6.711   2.491   8.315  0.2400  0.7773 -0.7138
28014SOL    HW186484   6.774   2.420   8.332 -2.3257 -1.8009 -1.1207
28014SOL    HW286485   6.724   2.512   8.222 -1.0721 -1.5702 -1.5192
28015SOL     OW86486   8.974   5.763   2.210 -0.0029 -0.5473  0.2805
28015SOL    HW186487   9.017   5.827   2.267 -0.1235 -0.5602  0.3854
28015SOL    HW286488   8.881   5.786   2.214 -0.0511 -0.7557  0.3530
28016SOL     OW86489   5.090   7.418   4.814 -0.4516  0.3603  0.5756
28016SOL    HW186490   5.158   7.459   4.867  0.3583 -1.8841  1.3923
28016SOL    HW286491   5.008   7.451   4.850  0.1184  2.8269 -0.1908
28017SOL     OW86492   5.633   3.333   7.757  0.5400  0.0689  0.3727
28017SOL    HW186493   5.572   3.263   7.735  0.4156  0.2778  0.0451
28017SOL    HW286494   5.597   3.372   7.837 -0.8516  1.4582 -0.8715
28018SOL     OW86495   6.551   6.556   8.818 -0.7005  0.5990  0.1062
28018SOL    HW186496   6.501   6.637   8.820  0.3935  1.2864  0.1298
28018SOL    HW286497   6.628   6.573   8.873 -0.5281 -0.5038  0.2453
28019SOL     OW86498   7.616   2.580   4.286 -0.9811 -0.1264 -0.8938
28019SOL    HW186499   7.671   2.609   4.213 -0.9510 -0.5941 -1.0597
28019SOL    HW286500   7.577   2.498   4.256  0.2606 -1.1658  0.1825
28020SOL     OW86501   1.814   7.310   4.536  0.1340  0.4562  0.6177
28020SOL    HW186502   1.726   7.275   4.543  0.4291 -0.3522  0.4025
28020SOL    HW286503   1.840   7.292   4.446  0.2968  1.2384  0.5022
28021SOL     OW86504   7.234   9.392   6.320  0.2580  0.1480 -0.2322
28021SOL    HW186505   7.175   9.327   6.358  0.1894 -0.2047 -0.9199
28021SOL    HW286506   7.177   9.466   6.300  0.1322  0.0039 -0.4244
28022SOL     OW86507   8.323   7.491   6.335 -0.1175 -0.4110  0.1548
28022SOL    HW186508   8.361   7.403   6.341  2.1130  0.5319  0.9581
28022SOL    HW286509   8.303   7.515   6.425 -0.1126  0.1702  0.0057
28023SOL     OW86510  10.016   4.107   3.758  0.1181  0.2376 -0.0102
28023SOL    HW186511   9.967   4.181   3.722  0.4154  1.2308  1.5408
28023SOL    HW286512  10.066   4.074   3.684 -1.0235  0.7455 -1.0430
28024SOL     OW86513   7.863   2.936   1.990  0.0608  0.5275 -0.3976
28024SOL    HW186514   7.856   2.851   1.947 -0.5292  0.0316  0.6254
28024SOL    HW286515   7.773   2.957   2.015  0.4854  0.2888  1.4860
28025SOL     OW86516  10.467   3.103   0.545 -0.1192 -0.5805 -0.4469
28025SOL    HW186517  10.406   3.139   0.609  0.4019 -0.0968 -0.2087
28025SOL    HW286518  10.486   3.015   0.576 -1.4649 -1.1116 -1.0707
28026SOL     OW86519   0.236   0.148   6.762 -0.7189 -0.4158  0.0853
28026SOL    HW186520   0.182   0.073   6.790 -1.2745 -0.6335 -1.4346
28026SOL    HW286521   0.201   0.170   6.675 -0.7538  1.8037  0.6168
28027SOL     OW86522   3.358   4.782   2.661  0.6605  0.4293  0.5973
28027SOL    HW186523   3.402   4.720   2.603  1.0381  1.3316 -0.0924
28027SOL    HW286524   3.313   4.726   2.725  0.6370 -0.5646 -0.2591
28028SOL     OW86525  10.161   7.845   0.638  0.0096 -0.1673 -0.1208
28028SOL    HW186526  10.160   7.940   0.639 -0.7579 -0.1579  1.0394
28028SOL    HW286527  10.246   7.821   0.675  0.2016  0.0600 -0.4095
28029SOL     OW86528   7.601   5.185   4.742 -0.3978 -0.4093 -0.2344
28029SOL    HW186529   7.523   5.178   4.688 -0.7633  0.4677  0.1632
28029SOL    HW286530   7.580   5.252   4.807  0.5902 -0.3382  0.0368
28030SOL     OW86531   8.198   4.728   9.405  0.6077  0.0315  0.5301
28030SOL    HW186532   8.120   4.767   9.443  0.3349  0.5703 -0.5644
28030SOL    HW286533   8.239   4.799   9.355  2.0039 -0.1347  1.3867
28031SOL     OW86534   1.835   6.231   9.558 -0.6989 -0.8731 -0.2841
28031SOL    HW186535   1.792   6.238   9.473 -0.7231 -2.2049 -0.3931
28031SOL    HW286536   1.921   6.194   9.538  0.4049  1.3718 -0.0295
28032SOL     OW86537   7.985  10.125   6.984  0.0099 -0.3985  0.4914
28032SOL    HW186538   7.942  10.211   6.992  1.2692  0.6097 -2.1807
28032SOL    HW286539   7.948  10.073   7.055 -1.5260  2.0528  1.6374
28033SOL     OW86540   3.711   6.256   0.556  0.2472 -0.0739 -0.3383
28033SOL    HW186541   3.640   6.310   0.523  0.8996  2.0001  1.3884
28033SOL    HW286542   3.740   6.301   0.635  1.1609 -2.7621  0.9763
28034SOL     OW86543   0.002   4.302   6.223 -0.4470 -0.2765  0.2842
28034SOL    HW186544  -0.000   4.298   6.319  0.1488  0.8309  0.3598
28034SOL    HW286545   0.095   4.300   6.201 -0.5901 -0.8591 -0.2946
28035SOL     OW86546   5.405   7.523   6.715 -0.1313  0.6572 -0.0549
28035SOL    HW186547   5.317   7.505   6.746 -0.4480  1.4242 -0.4908
28035SOL    HW286548   5.398   7.523   6.619  0.8307 -1.6737 -0.2107
28036SOL     OW86549   8.129   4.119   7.843 -0.0387  0.0188  0.3070
28036SOL    HW186550   8.206   4.175   7.858  0.7707 -0.8049 -0.5779
28036SOL    HW286551   8.129   4.104   7.748  1.5243 -3.8041  0.7395
28037SOL     OW86552   7.074   2.570   5.684  0.6173 -0.1689 -0.1156
28037SOL    HW186553   7.067   2.648   5.629  1.2009 -1.1530 -1.6476
28037SOL    HW286554   7.103   2.603   5.769  2.0245  1.1877 -1.0698
28038SOL     OW86555   0.103  10.331   2.908  0.0377  0.3215  0.2933
28038SOL    HW186556   0.050  10.377   2.973 -0.7579 -1.9691  1.3656
28038SOL    HW286557   0.045  10.263   2.874  1.5492 -0.7544 -0.2542
28039SOL     OW86558   1.477   3.252   7.518  0.0871  0.0576 -0.4539
28039SOL    HW186559   1.429   3.248   7.435 -0.6297 -0.7622 -0.0143
28039SOL    HW286560   1.516   3.164   7.527  0.7880  0.3779 -0.2821
28040SOL     OW86561   8.317   3.242   7.230 -0.1568 -0.3245  0.0895
28040SOL    HW186562   8.333   3.310   7.164  0.7825 -0.9127 -0.3161
28040SOL    HW286563   8.404   3.218   7.261 -0.5790 -0.0659  1.5636
28041SOL     OW86564   3.508   2.100  10.087  0.3332  0.5827  0.5909
28041SOL    HW186565   3.448   2.063  10.152 -0.5091 -0.1790 -0.5785
28041SOL    HW286566   3.588   2.047  10.095 -0.0318  0.0080  0.5198
28042SOL     OW86567   6.344   0.974   1.121 -0.1618 -0.0913 -0.2021
28042SOL    HW186568   6.352   0.984   1.026 -1.3911  1.6957 -0.1798
28042SOL    HW286569   6.273   1.035   1.145 -0.6436 -1.3352  1.7193
28043SOL     OW86570   5.887   6.685   0.714 -0.4842 -0.7250 -0.3411
28043SOL    HW186571   5.810   6.741   0.729  0.4911  0.1210  1.9465
28043SOL    HW286572   5.935   6.688   0.796  1.3688 -2.2679 -1.2935
28044SOL     OW86573   9.324   0.893   5.021 -0.1558 -0.1521 -0.2649
28044SOL    HW186574   9.332   0.804   5.056  0.1631  0.3023  0.8941
28044SOL    HW286575   9.414   0.925   5.017 -0.3954  0.8366  1.3559
28045SOL     OW86576   6.955   2.645   2.399 -0.5912 -0.4689 -0.0546
28045SOL    HW186577   7.009   2.568   2.386  0.7461  0.6506 -1.4396
28045SOL    HW286578   6.901   2.650   2.320 -1.5577 -0.6365  0.5735
28046SOL     OW86579   4.515   5.398   2.689 -0.3919  0.8216 -0.9826
28046SOL    HW186580   4.562   5.470   2.648  1.9507 -0.2834 -0.3903
28046SOL    HW286581   4.447   5.441   2.741 -1.8173  2.3533 -3.8588
28047SOL     OW86582   3.358   0.495   8.541  0.3828 -0.1648 -0.1177
28047SOL    HW186583   3.313   0.573   8.507  0.0148 -0.4516 -0.3008
28047SOL    HW286584   3.337   0.495   8.635  1.5393  0.7217  0.1585
28048SOL     OW86585   8.407   2.298  10.234 -0.1878 -0.0007  0.2657
28048SOL    HW186586   8.490   2.315  10.190 -0.1596  1.1584  0.7061
28048SOL    HW286587   8.394   2.375  10.290 -0.5368 -1.1298  1.7863
28049SOL     OW86588   8.405   2.091   9.984 -0.2923  0.1855 -0.1646
28049SOL    HW186589   8.415   2.179  10.022 -0.5226  0.0666  0.1847
28049SOL    HW286590   8.362   2.106   9.900  0.0287  0.4382 -0.2854
28050SOL     OW86591   1.303   6.907   8.715  0.1147 -0.2510 -0.0916
28050SOL    HW186592   1.365   6.835   8.725 -0.9959 -1.1275  0.7016
28050SOL    HW286593   1.325   6.946   8.630  2.2106 -0.0473  0.4948
28051SOL     OW86594   4.277   3.829   6.820 -0.0359  0.1643  0.2986
28051SOL    HW186595   4.365   3.815   6.787  0.1837  0.1800  0.8615
28051SOL    HW286596   4.255   3.748   6.866 -0.1141  0.3511  0.5958
28052SOL     OW86597   6.819   6.541   8.148 -0.1542 -0.1877 -0.3222
28052SOL    HW186598   6.774   6.462   8.118  0.7167 -0.9619  0.3305
28052SOL    HW286599   6.904   6.538   8.105 -0.4201  0.8631 -0.9548
28053SOL     OW86600   3.731   3.262   2.233 -0.0015 -0.3163 -0.0509
28053SOL    HW186601   3.743   3.332   2.169 -0.5274  0.2373  0.4420
28053SOL    HW286602   3.819   3.227   2.248  0.4043  0.8744  0.4089
28054SOL     OW86603   5.500   5.067   4.836  0.1841  0.0286 -0.0690
28054SOL    HW186604   5.435   5.005   4.803 -0.8672  0.3003  1.4002
28054SOL    HW286605   5.544   5.100   4.758 -2.2543  0.7428 -1.2388
28055SOL     OW86606   4.898   2.855   8.214  0.4524  0.2251 -0.2234
28055SOL    HW186607   4.871   2.787   8.152 -0.0080 -0.3949  0.6507
28055SOL    HW286608   4.973   2.818   8.259  0.2642  0.3393  0.1841
28056SOL     OW86609   3.184   9.737   2.263  0.4143  0.2127  0.3644
28056SOL    HW186610   3.241   9.745   2.339  0.2690 -0.9684  0.6143
28056SOL    HW286611   3.220   9.663   2.214  0.4610  0.9112 -0.6849
28057SOL     OW86612   1.355   7.310   5.217 -0.2169 -0.2418 -0.4722
28057SOL    HW186613   1.433   7.343   5.173 -0.1843  1.0855  0.5368
28057SOL    HW286614   1.386   7.280   5.302 -0.2988 -2.7093 -1.2265
28058SOL     OW86615   6.334   3.688   8.819 -0.4064  0.0951  0.6297
28058SOL    HW186616   6.421   3.648   8.813 -0.6353 -0.4532  0.9180
28058SOL    HW286617   6.301   3.661   8.905 -1.2342 -0.4841  0.1440
28059SOL     OW86618   1.483   1.329   0.563  0.3081 -0.5010  0.6140
28059SOL    HW186619   1.461   1.282   0.483 -0.5701  0.5485  0.2145
28059SOL    HW286620   1.441   1.415   0.553 -1.0639 -0.8278  2.8280
28060SOL     OW86621   3.840   6.558   2.373  0.1819 -0.0852  0.5216
28060SOL    HW186622   3.769   6.594   2.427 -2.2581 -0.8378 -1.9613
28060SOL    HW286623   3.885   6.496   2.430 -2.0800 -0.6420  1.7868
28061SOL     OW86624   0.234   6.027   3.988 -0.3015 -0.0902  0.1791
28061SOL    HW186625   0.143   6.049   3.972 -0.5896 -0.5461  1.1146
28061SOL    HW286626   0.232   5.974   4.068  0.8067  0.1561  0.3871
28062SOL     OW86627   5.848   8.618   6.030  0.1070 -0.0476 -0.4015
28062SOL    HW186628   5.800   8.540   6.000  0.4000 -0.5072  0.3026
28062SOL    HW286629   5.903   8.641   5.955 -0.3563 -0.2094 -0.8009
28063SOL     OW86630   1.568   8.375   3.495 -0.2882 -0.3948  0.3981
28063SOL    HW186631   1.548   8.337   3.409 -0.0789 -0.9520  0.5918
28063SOL    HW286632   1.483   8.387   3.537 -0.2930 -3.2309  1.4316
28064SOL     OW86633   8.532   6.822   9.731 -0.6769  0.2321 -0.3700
28064SOL    HW186634   8.621   6.856   9.720  0.2952 -1.4964  1.4997
28064SOL    HW286635   8.535   6.773   9.813 -2.4749 -2.5761 -1.8373
28065SOL     OW86636   7.085   4.484   9.385  0.3141 -0.3621  0.3268
28065SOL    HW186637   7.082   4.561   9.442  2.2093  0.4224 -0.5433
28065SOL    HW286638   7.028   4.507   9.311 -0.7521 -0.6640  1.0346
28066SOL     OW86639   7.600   8.734   6.553  0.2741  0.2477 -0.5531
28066SOL    HW186640   7.543   8.810   6.566  1.4955  1.1074 -0.1076
28066SOL    HW286641   7.656   8.758   6.478  0.7445 -0.1620 -0.3379
28067SOL     OW86642   6.399   2.337   5.720  0.2371 -0.3205 -0.1016
28067SOL    HW186643   6.319   2.383   5.697  0.5626  1.9107  2.6101
28067SOL    HW286644   6.467   2.380   5.668  0.5432  2.5914  2.4313
28068SOL     OW86645   6.765   9.651   9.048  0.9347  0.2106 -0.1156
28068SOL    HW186646   6.715   9.732   9.057 -1.4458 -1.2650  1.2077
28068SOL    HW286647   6.850   9.678   9.015  0.1502  3.1960  0.0447
28069SOL     OW86648   9.251   0.616   3.604 -0.3837 -0.1982  0.5312
28069SOL    HW186649   9.261   0.666   3.684  1.0830  0.1224  0.1914
28069SOL    HW286650   9.240   0.682   3.535 -2.2934 -0.4841  0.5057
28070SOL     OW86651   8.678  10.271   5.242 -0.1204 -0.3727 -0.6362
28070SOL    HW186652   8.630  10.344   5.281  2.8325  1.5643 -0.2344
28070SOL    HW286653   8.701  10.215   5.316 -0.2101 -0.2942 -0.5502
28071SOL     OW86654   0.575   4.209   2.778  0.1708 -0.2492 -0.8011
28071SOL    HW186655   0.489   4.251   2.780 -0.2544 -1.0387 -1.5381
28071SOL    HW286656   0.579   4.166   2.692  0.7386 -1.3496 -0.2517
28072SOL     OW86657   7.679   6.020   0.206 -0.0342  0.3897 -0.0100
28072SOL    HW186658   7.625   6.044   0.281  0.3967  1.1967  0.0531
28072SOL    HW286659   7.638   5.941   0.171 -1.4822  1.2104 -0.2040
28073SOL     OW86660   0.976   6.181   4.555 -0.0353 -0.1624  0.2124
28073SOL    HW186661   0.934   6.185   4.469  1.2919  0.9887 -0.4025
28073SOL    HW286662   0.910   6.217   4.615 -0.7569 -0.4404 -0.3973
28074SOL     OW86663   6.102   2.101   4.720  0.2089  0.1281 -0.2229
28074SOL    HW186664   6.189   2.119   4.756  0.2255  1.0142 -0.7004
28074SOL    HW286665   6.043   2.113   4.794  0.4855 -0.4884  0.1077
28075SOL     OW86666   8.264   9.314   3.323 -0.4328 -0.2264  0.4957
28075SOL    HW186667   8.267   9.405   3.294  1.3638  0.1161  1.5993
28075SOL    HW286668   8.200   9.312   3.394 -0.1554  0.2762  0.7619
28076SOL     OW86669   3.137   8.598   4.350  0.1077 -0.0562  0.7063
28076SOL    HW186670   3.213   8.557   4.308 -0.9234 -1.2372 -0.0462
28076SOL    HW286671   3.158   8.596   4.444  0.0519 -2.4911  0.7338
28077SOL     OW86672   2.699   3.516   5.099 -0.2275 -0.2620 -0.4265
28077SOL    HW186673   2.663   3.538   5.013 -0.2204 -0.0052 -0.3667
28077SOL    HW286674   2.633   3.547   5.161  0.2610  0.5694 -0.3014
28078SOL     OW86675   7.035   8.894   0.725  0.7007  0.3098 -0.1444
28078SOL    HW186676   6.970   8.823   0.729  0.7830  0.2818  2.1466
28078SOL    HW286677   6.991   8.963   0.676 -1.1199  0.2916  1.3431
28079SOL     OW86678   4.121   1.605   7.772 -0.4778 -0.4201  0.7526
28079SOL    HW186679   4.159   1.554   7.701  1.6033 -0.1318  1.5833
28079SOL    HW286680   4.186   1.600   7.843 -0.7873  2.2670  1.3394
28080SOL     OW86681   7.156  10.346   9.592 -0.0114 -0.0853 -0.0187
28080SOL    HW186682   7.138  10.439   9.600  0.1400 -0.0835  0.3022
28080SOL    HW286683   7.236  10.332   9.642  0.5167 -0.2162 -0.8633
28081SOL     OW86684   8.102   7.781   9.356 -0.2705  0.3405  0.0666
28081SOL    HW186685   8.130   7.872   9.358  0.9679 -0.0204  0.3897
28081SOL    HW286686   8.177   7.734   9.319 -1.2787 -0.4236 -1.0904
28082SOL     OW86687   8.977   9.194   8.899 -0.3381  0.3966 -0.3243
28082SOL    HW186688   8.988   9.194   8.994 -0.6348  0.0800 -0.2892
28082SOL    HW286689   8.894   9.149   8.884  0.8431 -1.7737 -0.8462
28083SOL     OW86690   5.543   0.554   8.644 -0.1127 -0.1401  0.4232
28083SOL    HW186691   5.520   0.575   8.554  1.4939  0.2911  0.0849
28083SOL    HW286692   5.460   0.528   8.685 -0.8590 -0.3314 -1.1569
28084SOL     OW86693   8.848   3.017   6.115  0.2648 -0.6407  0.1997
28084SOL    HW186694   8.943   3.019   6.105  0.1835  0.7279 -0.6453
28084SOL    HW286695   8.828   3.096   6.165 -0.4255 -1.0000  0.5074
28085SOL     OW86696   0.278   0.595   7.793  0.4533 -0.2295 -0.3221
28085SOL    HW186697   0.343   0.655   7.830  1.1358 -1.3138  0.2954
28085SOL    HW286698   0.314   0.571   7.708  0.4002 -0.1253 -0.3750
28086SOL     OW86699   0.139   0.239   7.509 -0.4450  0.1192  0.0900
28086SOL    HW186700   0.134   0.159   7.560 -1.2582 -0.4039 -0.7691
28086SOL    HW286701   0.200   0.295   7.557  1.3422 -1.5776 -0.0922
28087SOL     OW86702   5.502   5.953   6.088 -0.0712  0.2395 -0.0180
28087SOL    HW186703   5.541   5.865   6.085  0.9248  0.6396  0.7208
28087SOL    HW286704   5.471   5.962   6.178  0.5746  0.9538  0.1392
28088SOL     OW86705  10.061  10.098   8.230  0.4776  0.0346 -0.3746
28088SOL    HW186706   9.989  10.137   8.279  1.9649  0.7131  1.4112
28088SOL    HW286707  10.127  10.167   8.225  1.5993 -1.0189 -0.6375
28089SOL     OW86708   8.566   6.952   3.529 -0.3062  0.1029 -0.3106
28089SOL    HW186709   8.508   6.881   3.558  0.8325 -0.7837 -0.1114
28089SOL    HW286710   8.604   6.987   3.610  0.6530 -0.4279 -0.5054
28090SOL     OW86711   1.889   9.302   1.909 -0.0473  0.1333 -0.1307
28090SOL    HW186712   1.979   9.287   1.938  0.3225  0.9678 -0.8241
28090SOL    HW286713   1.867   9.224   1.858  0.1246 -0.2595  0.3782
28091SOL     OW86714   0.779   0.698   6.090 -0.4345  0.4410 -0.1375
28091SOL    HW186715   0.767   0.606   6.068  2.6000 -0.1888  0.4357
28091SOL    HW286716   0.726   0.711   6.169 -0.9517 -0.7710 -0.2572
28092SOL     OW86717   4.278   1.389   7.291 -0.3171  0.0884 -0.0393
28092SOL    HW186718   4.205   1.347   7.245 -0.6054 -0.5083  0.9431
28092SOL    HW286719   4.289   1.473   7.246 -1.0142 -0.1949 -0.7727
28093SOL     OW86720   0.106   7.553   0.596  0.2824  0.1844 -0.3064
28093SOL    HW186721   0.015   7.545   0.625  0.4458  0.2048  0.2280
28093SOL    HW286722   0.100   7.585   0.506 -0.2368  0.2296 -0.2599
28094SOL     OW86723  10.099   0.252   7.435 -0.2109  0.2702  0.5802
28094SOL    HW186724  10.048   0.173   7.415 -1.4490  1.1330  0.1632
28094SOL    HW286725  10.095   0.259   7.530 -0.6588  0.1696  0.5752
28095SOL     OW86726   1.700   3.579   7.217 -0.3236 -0.2725  0.0155
28095SOL    HW186727   1.651   3.661   7.218 -1.4542 -0.8950  2.0856
28095SOL    HW286728   1.782   3.600   7.172 -1.3718  1.4746 -1.1993
28096SOL     OW86729   6.682   1.922   6.527 -0.5699  0.1107 -0.1654
28096SOL    HW186730   6.748   1.936   6.594 -0.7187  0.6844 -0.1303
28096SOL    HW286731   6.629   1.849   6.559 -1.4483  1.2225  0.9800
28097SOL     OW86732   1.849   9.394   7.174 -0.0883  0.0804 -0.0052
28097SOL    HW186733   1.823   9.369   7.086 -2.4311 -1.9536  1.1418
28097SOL    HW286734   1.940   9.364   7.182  1.0387  2.4194 -2.3775
28098SOL     OW86735   4.512   1.518   1.680  0.0528 -0.0859  0.4081
28098SOL    HW186736   4.470   1.441   1.643  0.5060 -0.0655 -0.1736
28098SOL    HW286737   4.593   1.527   1.630  0.0358  0.7244  0.5099
28099SOL     OW86738   5.271   4.377   0.284  0.3759 -0.1344  0.4461
28099SOL    HW186739   5.313   4.301   0.325  2.5961  1.7813  2.0048
28099SOL    HW286740   5.211   4.410   0.351 -0.1527 -0.1589 -0.0082
28100SOL     OW86741   1.518   1.659   4.202 -0.1378  0.3550  0.2408
28100SOL    HW186742   1.520   1.575   4.156  2.3815 -0.3538  1.4856
28100SOL    HW286743   1.599   1.704   4.175 -0.1966  1.2881  1.5073
28101SOL     OW86744   8.727   8.809   1.686  0.1247 -0.0495 -0.5756
28101SOL    HW186745   8.799   8.832   1.627  1.0426 -0.3830  0.3888
28101SOL    HW286746   8.759   8.732   1.733 -1.2696 -0.8223 -0.8372
28102SOL     OW86747  10.001   4.323   3.991  0.5055  0.0654  0.6885
28102SOL    HW186748  10.016   4.413   4.020  1.7294 -0.3224  1.3136
28102SOL    HW286749  10.064   4.310   3.920  0.3563 -0.3036  0.6216
28103SOL     OW86750   5.339   8.585   1.737 -0.4761  0.0268 -0.5487
28103SOL    HW186751   5.308   8.637   1.810  0.8765 -0.1128  0.1659
28103SOL    HW286752   5.393   8.517   1.777  0.7218  0.2542 -1.6963
28104SOL     OW86753   1.333   3.900   2.151 -0.2227  0.5237  0.1241
28104SOL    HW186754   1.306   3.955   2.078  0.0675  1.5681  0.7639
28104SOL    HW286755   1.424   3.878   2.132 -0.2133  0.6206  0.0566
28105SOL     OW86756   7.324   8.576   1.673  0.5544  0.5369  0.2282
28105SOL    HW186757   7.399   8.620   1.633  1.0327  1.1167  1.6704
28105SOL    HW286758   7.358   8.544   1.757 -0.4626 -0.3834  0.3115
28106SOL     OW86759   5.514   7.265   8.226  0.1602 -0.1631 -0.3220
28106SOL    HW186760   5.512   7.350   8.181 -0.4647 -0.0886 -0.1619
28106SOL    HW286761   5.429   7.227   8.208 -0.4151  0.2067  1.4519
28107SOL     OW86762   8.548   0.552   3.397  0.0624 -0.3526  0.1309
28107SOL    HW186763   8.588   0.636   3.421  0.9005 -0.6549 -0.1483
28107SOL    HW286764   8.454   0.570   3.395  0.0887  0.1759  1.6705
28108SOL     OW86765   8.504   0.603   0.896 -0.2845  0.3238 -0.1708
28108SOL    HW186766   8.479   0.635   0.983  1.1955  1.7157 -0.2146
28108SOL    HW286767   8.560   0.672   0.861  2.3603 -1.9149 -0.6599
28109SOL     OW86768   8.755   0.771   5.468 -0.5037 -0.2197 -1.1924
28109SOL    HW186769   8.675   0.739   5.426 -0.1329 -0.7304 -1.5141
28109SOL    HW286770   8.750   0.737   5.557  0.2860 -1.9068 -1.7631
28110SOL     OW86771   1.002   0.746   5.440  0.2856  0.2631  0.5752
28110SOL    HW186772   0.951   0.712   5.513 -0.4814  2.0572  0.9226
28110SOL    HW286773   0.948   0.815   5.402  1.7579  1.1020 -0.0881
28111SOL     OW86774   2.173   9.513   4.767 -0.7657 -0.1022  0.0180
28111SOL    HW186775   2.172   9.425   4.728 -0.4561 -0.4025  0.6776
28111SOL    HW286776   2.082   9.541   4.766 -0.9766 -0.7433  0.4978
28112SOL     OW86777   4.682   4.192   9.083 -0.2323 -0.3095 -0.0339
28112SOL    HW186778   4.668   4.194   9.177 -1.3138 -2.1851 -0.1034
28112SOL    HW286779   4.612   4.247   9.047  1.3149  2.0060  0.2780
28113SOL     OW86780   3.073   6.943   2.675  0.2209 -0.1133 -0.2362
28113SOL    HW186781   3.066   6.894   2.758  0.3554 -0.4841 -0.4418
28113SOL    HW286782   3.158   6.917   2.639  1.0677  1.5595  0.4550
28114SOL     OW86783   8.834   5.243   3.731 -0.2366 -0.1207 -0.2469
28114SOL    HW186784   8.831   5.212   3.821  0.6195 -1.0708 -0.5205
28114SOL    HW286785   8.873   5.170   3.682  1.5076  1.2388 -1.0038
28115SOL     OW86786   2.345   7.247   2.727 -0.2353 -0.5708  0.5708
28115SOL    HW186787   2.264   7.291   2.753  0.3105  1.4320 -0.8667
28115SOL    HW286788   2.403   7.257   2.803  0.1956  2.2065 -0.0078
28116SOL     OW86789   1.449   1.027  10.063  0.4114 -0.5867 -0.3372
28116SOL    HW186790   1.384   1.096  10.055  0.8886 -0.1253 -0.3305
28116SOL    HW286791   1.407   0.949  10.027  0.2109 -0.0681 -1.2466
28117SOL     OW86792   9.477   1.442   4.263  0.2457  0.1893 -0.0967
28117SOL    HW186793   9.507   1.383   4.333 -1.3651 -0.3810  0.1569
28117SOL    HW286794   9.427   1.510   4.308 -1.5327 -0.6491 -0.7077
28118SOL     OW86795   9.431   2.003   9.525 -0.0483 -0.1795  0.1889
28118SOL    HW186796   9.344   2.019   9.489 -0.0459 -0.5699  0.0090
28118SOL    HW286797   9.437   2.063   9.599  0.2365  1.1673 -0.8896
28119SOL     OW86798   0.220   8.034   1.299 -0.4888 -0.0508 -0.0321
28119SOL    HW186799   0.296   7.976   1.307 -0.3184  0.2868  1.0502
28119SOL    HW286800   0.258   8.121   1.284 -0.5823  0.2893  1.4916
28120SOL     OW86801   8.848   0.508   6.732 -0.1398 -0.6550  0.2404
28120SOL    HW186802   8.826   0.426   6.686  1.6721 -2.3772  2.2360
28120SOL    HW286803   8.835   0.487   6.824 -0.8207  1.7654  0.7456
28121SOL     OW86804   1.300   0.751   6.539 -0.2110 -0.5100 -0.3927
28121SOL    HW186805   1.257   0.729   6.456 -0.1619 -0.9982 -0.2920
28121SOL    HW286806   1.379   0.798   6.514  0.0362 -1.0458 -0.6468
28122SOL     OW86807   9.008   4.373   6.943  0.2599  0.1958 -0.1790
28122SOL    HW186808   9.085   4.354   6.997 -0.1999 -1.0610  0.0738
28122SOL    HW286809   9.012   4.307   6.873 -1.1194 -0.5532  0.4076
28123SOL     OW86810   7.839   9.577  10.358  0.1991 -0.1287 -0.3231
28123SOL    HW186811   7.904   9.525  10.310  1.3888  0.0233  1.0572
28123SOL    HW286812   7.880   9.593  10.443 -2.4373 -1.7785  1.4056
28124SOL     OW86813   1.704   5.191   2.946 -0.3669 -0.7656  0.3075
28124SOL    HW186814   1.643   5.208   2.875  1.2367 -0.6179 -1.0857
28124SOL    HW286815   1.758   5.119   2.915 -0.3580 -1.4848  1.8748
28125SOL     OW86816   1.623   2.328   8.090  0.5781 -0.1042 -0.3286
28125SOL    HW186817   1.632   2.297   8.000  1.5075 -1.6645  0.2579
28125SOL    HW286818   1.710   2.363   8.112 -0.4603  3.2718 -1.0162
28126SOL     OW86819   1.939   2.172   0.529  0.0741 -0.3097 -0.4297
28126SOL    HW186820   1.963   2.234   0.598  2.2426  0.0225 -1.3805
28126SOL    HW286821   1.988   2.202   0.452  0.6512 -2.7621 -1.1135
28127SOL     OW86822   1.471   4.737   9.054  0.3556 -0.8424 -0.2134
28127SOL    HW186823   1.436   4.809   9.002 -0.4039 -1.5543 -0.7267
28127SOL    HW286824   1.416   4.662   9.031 -0.3841 -1.0735  2.0415
28128SOL     OW86825   5.749   1.143   7.139 -0.1363  0.4666  0.3017
28128SOL    HW186826   5.820   1.114   7.082  0.4483  2.5580 -0.1227
28128SOL    HW286827   5.674   1.154   7.081  0.1394  1.4713  0.1157
28129SOL     OW86828   0.455   6.791   3.035  0.3462  0.3803  0.5395
28129SOL    HW186829   0.425   6.803   3.125  1.4658  0.7242  0.8862
28129SOL    HW286830   0.499   6.706   3.035 -0.1448  0.1229  0.1716
28130SOL     OW86831   9.644   9.937   0.846 -0.6333  0.5599  0.4818
28130SOL    HW186832   9.723   9.889   0.821 -0.5143  1.1723 -0.3444
28130SOL    HW286833   9.676  10.022   0.875 -0.9847  0.7429  0.3278
28131SOL     OW86834   3.674   9.827   4.640  0.3322  0.7813 -0.4148
28131SOL    HW186835   3.723   9.899   4.601  0.0431 -0.9941 -4.6861
28131SOL    HW286836   3.739   9.758   4.652  0.1175  0.8029  0.9872
28132SOL     OW86837   1.651   7.819   5.195  0.2553  0.4893  0.1197
28132SOL    HW186838   1.595   7.864   5.259 -1.2413  1.3904 -1.7063
28132SOL    HW286839   1.697   7.889   5.151  2.9567 -0.2448  1.5617
28133SOL     OW86840   7.173   5.238   7.869 -0.0326 -0.2285  0.2732
28133SOL    HW186841   7.225   5.225   7.789  0.0058  2.1164 -0.1612
28133SOL    HW286842   7.129   5.321   7.855  2.7318  2.2054  4.0482
28134SOL     OW86843   6.117   8.187   2.550  0.4819  0.0241 -0.4968
28134SOL    HW186844   6.035   8.235   2.561  0.8395  0.5135  0.1002
28134SOL    HW286845   6.183   8.255   2.532  0.5108 -0.4805 -2.5027
28135SOL     OW86846   6.849   3.038   1.686 -0.1234 -0.5074 -0.6808
28135SOL    HW186847   6.777   3.081   1.731  0.5127  0.3048 -0.4243
28135SOL    HW286848   6.820   3.031   1.595 -0.3499  0.2154 -0.6672
28136SOL     OW86849   7.089   4.132   9.974 -0.0995 -0.1256  0.4901
28136SOL    HW186850   7.098   4.128   9.879  0.3990  0.4481  0.5040
28136SOL    HW286851   7.000   4.164   9.989 -0.4601 -0.9901  0.2366
28137SOL     OW86852   1.704   5.480   2.139 -0.0536  0.0557 -0.2609
28137SOL    HW186853   1.764   5.407   2.153 -1.2633 -0.6177  1.8850
28137SOL    HW286854   1.686   5.513   2.227 -0.2263  2.4063 -1.1122
28138SOL     OW86855   3.877   0.308   7.362  0.1030  0.2994  0.4359
28138SOL    HW186856   3.831   0.249   7.301 -0.1618 -0.4809  1.3502
28138SOL    HW286857   3.967   0.277   7.361  0.0845  0.2438  0.4915
28139SOL     OW86858   5.994   1.125   7.857  0.1206 -0.5455  0.2715
28139SOL    HW186859   6.008   1.219   7.852 -0.4984 -0.4804 -0.4178
28139SOL    HW286860   5.902   1.115   7.881 -0.4492 -0.9577 -1.8650
28140SOL     OW86861   6.661   6.672   6.335  0.2891 -0.2463 -0.2723
28140SOL    HW186862   6.686   6.688   6.426  0.8977 -0.6880 -0.3568
28140SOL    HW286863   6.597   6.601   6.339  3.1121 -3.0053 -0.4210
28141SOL     OW86864   5.419   7.882   2.710 -0.3322  0.4953 -0.9410
28141SOL    HW186865   5.367   7.893   2.790  1.5677 -0.2988  0.5001
28141SOL    HW286866   5.355   7.866   2.641 -1.9891 -0.2207  0.6800
28142SOL     OW86867  10.127   2.258  10.245  0.6387 -0.1978 -0.7300
28142SOL    HW186868  10.047   2.216  10.278  1.0573 -0.1169  0.4385
28142SOL    HW286869  10.104   2.350  10.237  0.8707 -0.0074  0.5349
28143SOL     OW86870   7.336   5.448   8.561 -0.3701 -0.4842 -0.1008
28143SOL    HW186871   7.384   5.420   8.639  0.0834 -0.2584 -0.2945
28143SOL    HW286872   7.250   5.474   8.594 -0.1856 -0.4032  0.3205
28144SOL     OW86873  10.389   1.887   0.139 -0.2381 -0.2148 -0.1543
28144SOL    HW186874  10.317   1.931   0.094 -0.8609 -0.4027  0.6199
28144SOL    HW286875  10.455   1.872   0.072 -0.9088  0.0045 -0.8706
28145SOL     OW86876   1.188   0.130   0.616 -0.6875  0.3853  0.1411
28145SOL    HW186877   1.169   0.067   0.685  0.1190  0.2203  0.2231
28145SOL    HW286878   1.282   0.143   0.621 -0.7857  1.2612 -0.1716
28146SOL     OW86879   1.752   5.028   6.205 -0.0652 -0.0356 -0.1007
28146SOL    HW186880   1.689   5.009   6.136  0.8853  0.9781 -1.2684
28146SOL    HW286881   1.699   5.026   6.286 -0.9460 -2.5872 -0.6247
28147SOL     OW86882   4.842   1.232   4.422  0.2214  0.2184 -0.2617
28147SOL    HW186883   4.932   1.201   4.430 -0.0569 -0.5170  0.1589
28147SOL    HW286884   4.819   1.261   4.510  0.8120  2.6664 -0.8334
28148SOL     OW86885   7.309   9.848   0.779 -0.2329 -0.0058 -0.1128
28148SOL    HW186886   7.270   9.884   0.859  0.4588  0.2766  0.1017
28148SOL    HW286887   7.399   9.879   0.780  0.0492 -0.7866 -0.5286
28149SOL     OW86888   5.068   4.466   6.764 -0.4356  0.3026  0.4155
28149SOL    HW186889   5.160   4.460   6.738 -0.4780  1.7503 -0.1283
28149SOL    HW286890   5.061   4.550   6.808 -1.5775  0.3582  0.1420
28150SOL     OW86891   3.281   4.978   2.169  0.0780 -0.1652  0.4319
28150SOL    HW186892   3.258   4.942   2.255 -1.3225  0.2472  0.2554
28150SOL    HW286893   3.253   4.911   2.107 -1.0356  0.4732  0.1985
28151SOL     OW86894   2.666   5.752   4.580  0.4004 -0.4897 -0.1819
28151SOL    HW186895   2.608   5.676   4.588  1.8826 -1.6724 -0.0233
28151SOL    HW286896   2.754   5.714   4.583  1.1837  1.2381 -0.3224
28152SOL     OW86897   8.409   9.706  10.259  0.5084 -0.2782 -0.5677
28152SOL    HW186898   8.456   9.786  10.282 -0.4885  0.3583 -0.6751
28152SOL    HW286899   8.454   9.637  10.308  0.6382  0.5285  0.4843
28153SOL     OW86900   4.266   0.109   0.780  0.4424 -0.1143  0.1440
28153SOL    HW186901   4.187   0.129   0.730  0.6001  1.9882  0.6227
28153SOL    HW286902   4.311   0.194   0.788  1.1813 -0.6641  2.5407
28154SOL     OW86903   5.584   4.880   9.083 -0.5458 -0.3322 -0.0710
28154SOL    HW186904   5.534   4.840   9.154  0.7722  1.4268  1.9678
28154SOL    HW286905   5.620   4.806   9.035 -2.2054 -1.5867  0.5247
28155SOL     OW86906   3.766   2.281   6.023  0.4452 -0.0609  0.1117
28155SOL    HW186907   3.726   2.366   6.002  0.6735 -0.0190 -0.1539
28155SOL    HW286908   3.843   2.277   5.967  0.3956 -0.4766  0.0752
28156SOL     OW86909  10.400   0.246   4.277  0.2641  0.4158 -0.2311
28156SOL    HW186910  10.470   0.181   4.274  0.9608  1.1488 -0.2171
28156SOL    HW286911  10.356   0.230   4.361  0.4915  0.0319 -0.1840
28157SOL     OW86912   2.028   2.903   6.968  0.6213 -0.2056  0.1896
28157SOL    HW186913   2.048   2.820   7.010 -0.3663  0.0414  1.2040
28157SOL    HW286914   1.934   2.900   6.951  0.4935  0.8346  0.5869
28158SOL     OW86915   8.930  10.196   7.478  0.3077  0.4537 -0.1794
28158SOL    HW186916   8.976  10.213   7.396  2.0986  0.1693  0.7145
28158SOL    HW286917   8.938  10.277   7.528  0.3240  0.2193  0.2089
28159SOL     OW86918   1.840   5.151   5.931 -0.2787 -0.0673  0.4182
28159SOL    HW186919   1.784   5.226   5.914  1.0444  0.8139 -0.2438
28159SOL    HW286920   1.799   5.106   6.005 -2.3901 -0.0520 -0.6571
28160SOL     OW86921   2.376   2.879  10.393  0.2962 -0.0338 -0.1443
28160SOL    HW186922   2.360   2.882  10.488  0.1541  0.9944 -0.1880
28160SOL    HW286923   2.378   2.785  10.372  0.0558 -0.2701  0.8300
28161SOL     OW86924   1.052   1.862   9.839  0.8759 -0.3255 -0.1534
28161SOL    HW186925   1.079   1.821   9.757 -0.0549 -1.2122 -0.0386
28161SOL    HW286926   1.007   1.792   9.887 -0.8460  0.8335  0.0045
28162SOL     OW86927   7.868   6.662   2.893 -0.7744 -0.0649  0.4733
28162SOL    HW186928   7.924   6.594   2.855 -1.7493 -0.8515  0.4086
28162SOL    HW286929   7.827   6.704   2.817  1.5912  2.2368  0.3407
28163SOL     OW86930   7.367   6.285   1.542 -0.0163 -0.3022  0.0912
28163SOL    HW186931   7.392   6.242   1.460 -1.6506  0.4907 -0.8793
28163SOL    HW286932   7.402   6.229   1.611  0.7370 -1.3968 -1.1350
28164SOL     OW86933   5.053   0.857   7.355 -0.0182 -0.3391 -0.2225
28164SOL    HW186934   4.974   0.910   7.354  1.0108  1.2935  0.8236
28164SOL    HW286935   5.055   0.818   7.442  0.6008  0.0891 -0.0365
28165SOL     OW86936   3.180   9.651   1.283 -0.4329 -0.0011  0.6170
28165SOL    HW186937   3.180   9.654   1.187 -0.1512  1.6067  0.6296
28165SOL    HW286938   3.192   9.559   1.305 -0.8815 -0.4382 -0.8891
28166SOL     OW86939   3.758   3.072   5.683  0.5438 -0.2463  0.4822
28166SOL    HW186940   3.778   3.152   5.634 -1.6015  0.0698  0.0261
28166SOL    HW286941   3.715   3.015   5.619 -1.2080 -0.3079  1.6345
28167SOL     OW86942   9.452  10.111   5.293 -0.2636  0.4338 -0.3433
28167SOL    HW186943   9.428  10.053   5.366  0.3274 -0.1603 -0.6049
28167SOL    HW286944   9.425  10.062   5.215  1.6428 -0.2187 -0.6413
28168SOL     OW86945   4.327   8.197   5.456 -0.3790 -0.4190  0.3145
28168SOL    HW186946   4.400   8.140   5.478 -0.5043 -0.5768  0.3196
28168SOL    HW286947   4.348   8.280   5.500  1.0880  0.4022 -1.7865
28169SOL     OW86948   1.298   3.493   1.871  0.1734 -0.0850 -0.2384
28169SOL    HW186949   1.216   3.530   1.904 -0.0976  1.2401 -2.2608
28169SOL    HW286950   1.361   3.510   1.941 -0.9937 -0.1522  0.8883
28170SOL     OW86951   5.749   7.900   0.109  0.5171 -0.1852 -0.1587
28170SOL    HW186952   5.771   7.807   0.117  2.1764  0.3259  2.6971
28170SOL    HW286953   5.806   7.932   0.039 -0.0157 -1.2578 -1.1203
28171SOL     OW86954   0.310   9.826   8.821 -0.3649 -0.4030 -0.3763
28171SOL    HW186955   0.353   9.763   8.879  0.1224  1.4045  1.3476
28171SOL    HW286956   0.300   9.904   8.875 -3.2518  0.2044 -1.6154
28172SOL     OW86957   2.133   4.898   7.348 -0.0920 -0.0843  0.0032
28172SOL    HW186958   2.084   4.863   7.273 -1.3249 -0.3839  0.9329
28172SOL    HW286959   2.084   4.870   7.425 -0.1623  2.1840  0.8766
28173SOL     OW86960   0.566   3.507   2.334 -0.4043 -0.1601  0.2805
28173SOL    HW186961   0.534   3.461   2.257  0.2968 -1.0341  0.4904
28173SOL    HW286962   0.541   3.598   2.320 -1.5385 -0.5408 -0.2958
28174SOL     OW86963  10.130   9.751   9.837 -0.0621 -0.2715 -0.0854
28174SOL    HW186964  10.079   9.824   9.873  0.5983  0.2355 -0.1704
28174SOL    HW286965  10.088   9.733   9.753 -1.3199 -1.1605  0.6828
28175SOL     OW86966   8.226   4.311   3.233 -0.3895 -0.0229  0.1037
28175SOL    HW186967   8.139   4.351   3.239  0.1423  0.9352  2.6837
28175SOL    HW286968   8.283   4.383   3.205 -0.3115 -0.5211 -1.0760
28176SOL     OW86969   0.749   0.498   4.876  0.5508  0.1867  0.4200
28176SOL    HW186970   0.740   0.592   4.892  0.3156 -0.0733  1.9273
28176SOL    HW286971   0.674   0.459   4.921 -0.4057 -0.6147 -1.7153
28177SOL     OW86972   7.314   7.309   0.285 -1.0458 -0.0637  0.0532
28177SOL    HW186973   7.321   7.214   0.271 -1.2859 -0.4435  2.2136
28177SOL    HW286974   7.265   7.340   0.209 -2.0259 -1.8725 -0.1265
28178SOL     OW86975   2.823   6.643   7.609 -0.0149 -0.3359 -0.1172
28178SOL    HW186976   2.810   6.696   7.530  1.3935 -0.1714 -0.2552
28178SOL    HW286977   2.917   6.628   7.613 -0.3210 -2.5700  0.0971
28179SOL     OW86978   7.486   3.888   2.622 -0.1428  0.0797 -0.1537
28179SOL    HW186979   7.527   3.921   2.542 -0.5478 -0.0436 -0.4167
28179SOL    HW286980   7.399   3.858   2.593  0.4841 -1.9087 -0.0666
28180SOL     OW86981   4.360   8.549   8.651  0.2260 -0.5813  0.0865
28180SOL    HW186982   4.448   8.581   8.631  0.6402 -1.2258  0.8148
28180SOL    HW286983   4.367   8.512   8.740 -1.2444  1.0956  0.9612
28181SOL     OW86984   9.309   4.811   6.138  0.0376 -0.2110 -0.2268
28181SOL    HW186985   9.266   4.776   6.216  0.9330  1.5164  1.1075
28181SOL    HW286986   9.265   4.895   6.122  0.3731 -0.1973 -1.1398
28182SOL     OW86987   6.571   8.177   9.360  0.0579 -0.1359 -0.6889
28182SOL    HW186988   6.523   8.138   9.287  0.7595 -2.9153  0.1744
28182SOL    HW286989   6.643   8.116   9.376  0.4068  0.7994  1.7893
28183SOL     OW86990   7.595   3.547   7.227 -0.0749 -0.0332  0.2331
28183SOL    HW186991   7.633   3.631   7.251 -1.8903  1.0781 -0.5677
28183SOL    HW286992   7.512   3.569   7.186 -0.6486 -2.2363  0.0757
28184SOL     OW86993   8.548   4.981   4.616  0.0850  0.2503 -0.2012
28184SOL    HW186994   8.585   4.893   4.619  0.2262  0.2936 -0.6460
28184SOL    HW286995   8.581   5.019   4.535 -3.3369 -0.7691 -2.2482
28185SOL     OW86996   1.057  10.367   9.385  0.6717  0.3095  0.2179
28185SOL    HW186997   1.034  10.373   9.292 -1.3119 -0.0992  0.6428
28185SOL    HW286998   1.024  10.448   9.423  0.5041 -0.0114  0.7617
28186SOL     OW86999   8.604   4.078   5.523  0.4296  0.3374  0.6550
28186SOL    HW187000   8.632   4.169   5.529 -0.7441  0.7792 -0.3887
28186SOL    HW287001   8.630   4.050   5.435  2.2296 -0.8715  1.4880
28187SOL     OW87002   9.338  10.291   9.151  0.1354 -0.4016 -0.5081
28187SOL    HW187003   9.292  10.240   9.218 -0.8479 -1.7786 -2.1342
28187SOL    HW287004   9.337  10.381   9.184  1.6079 -1.3208  2.2919
28188SOL     OW87005   3.050   6.390   0.065  0.2655  0.2332  0.1924
28188SOL    HW187006   3.054   6.306   0.020  1.9258  0.5103 -0.2604
28188SOL    HW287007   2.966   6.390   0.110  0.0899 -1.5199 -0.0853
28189SOL     OW87008   5.248   7.873   1.708  0.0660  0.1430  0.0112
28189SOL    HW187009   5.260   7.799   1.768  1.0749  1.5121  1.5667
28189SOL    HW287010   5.320   7.864   1.645  0.0275 -0.3394  0.0283
28190SOL     OW87011   5.066   3.786   3.790  0.4635  0.2375 -0.5002
28190SOL    HW187012   4.999   3.822   3.848 -1.6798  0.4283 -2.9356
28190SOL    HW287013   5.132   3.855   3.784 -0.9512  1.6157 -0.9001
28191SOL     OW87014   2.766   4.557   6.666 -0.3050 -0.5894  0.4243
28191SOL    HW187015   2.813   4.609   6.600 -3.2515  1.2987 -0.3533
28191SOL    HW287016   2.789   4.466   6.644  2.3971  0.1487 -0.2517
28192SOL     OW87017   3.770   0.120   5.101 -0.0370 -0.9918  0.1220
28192SOL    HW187018   3.826   0.077   5.037  0.6565 -2.2511  1.5010
28192SOL    HW287019   3.746   0.050   5.162 -1.5159 -0.0564  0.6637
28193SOL     OW87020  10.376   2.153   7.941  0.3248 -0.3891 -0.4845
28193SOL    HW187021  10.462   2.111   7.941 -0.0223 -1.1150 -0.5758
28193SOL    HW287022  10.395   2.245   7.960  1.0857 -0.6036 -0.1357
28194SOL     OW87023   6.220   2.687   9.907 -0.4606 -0.5980  0.2315
28194SOL    HW187024   6.218   2.627   9.982 -0.1463  0.0653  0.7753
28194SOL    HW287025   6.240   2.772   9.945 -0.8425 -0.1565 -0.5483
28195SOL     OW87026   8.188  10.168   2.033 -0.1572  0.3224 -0.8738
28195SOL    HW187027   8.237  10.206   2.106  0.0673 -1.5198 -0.0129
28195SOL    HW287028   8.172  10.242   1.974  1.5137  1.4478 -0.0017
28196SOL     OW87029   0.152   6.957   7.951 -0.0580 -0.1461 -0.1069
28196SOL    HW187030   0.158   6.911   7.868  0.7946  0.6217 -0.4769
28196SOL    HW287031   0.236   6.940   7.994  1.0854  2.5945 -1.0761
28197SOL     OW87032   7.312   0.308   4.059 -0.1795  0.3385  0.1506
28197SOL    HW187033   7.346   0.369   4.124 -0.8807 -0.4140  1.2412
28197SOL    HW287034   7.366   0.324   3.981  0.3979  1.5352  0.7691
28198SOL     OW87035   7.202  10.170   9.937  0.7021  0.2080  0.3972
28198SOL    HW187036   7.224  10.255   9.898 -0.1020  0.5024  0.5616
28198SOL    HW287037   7.227  10.106   9.870 -0.0269  0.6677 -0.3401
28199SOL     OW87038   3.843   9.270   5.759 -0.0824  0.5768  0.1072
28199SOL    HW187039   3.824   9.298   5.848 -0.0066  3.2421 -0.6244
28199SOL    HW287040   3.758   9.262   5.716 -0.0546  1.2498 -0.0883
28200SOL     OW87041   9.508   7.142   4.249 -0.1835 -0.8167  0.8454
28200SOL    HW187042   9.444   7.097   4.194 -0.0452  1.3054 -1.2140
28200SOL    HW287043   9.517   7.228   4.209  4.1710 -1.0757  0.8592
28201SOL     OW87044   2.096   5.902   3.202 -0.1223  0.4517 -0.0776
28201SOL    HW187045   2.147   5.957   3.262 -0.4380  2.5065 -1.5965
28201SOL    HW287046   2.020   5.876   3.253  0.7562  0.1678  1.1426
28202SOL     OW87047   6.457   8.974   9.230 -0.1365  0.1441  0.0761
28202SOL    HW187048   6.444   8.907   9.163 -0.7221 -0.7301  1.0335
28202SOL    HW287049   6.393   9.042   9.209 -1.8776 -1.1402  0.9881
28203SOL     OW87050  10.246   1.924   0.446  0.3108  0.0479  0.8129
28203SOL    HW187051  10.197   1.973   0.380  1.7688 -1.0705 -1.2343
28203SOL    HW287052  10.215   1.834   0.437 -0.2496  0.0393  2.4720
28204SOL     OW87053   5.686   6.900   8.481 -0.2525 -0.0982  0.0509
28204SOL    HW187054   5.604   6.880   8.527 -0.4372 -0.4845 -0.4382
28204SOL    HW287055   5.747   6.834   8.513  0.1680  0.7848  1.1664
28205SOL     OW87056   3.859   7.487   4.236 -0.3555 -0.1972 -0.5649
28205SOL    HW187057   3.773   7.522   4.259  0.1182 -0.4726  1.8358
28205SOL    HW287058   3.846   7.392   4.230  0.0918 -0.4402  1.6224
28206SOL     OW87059   2.800   4.998   2.184 -0.1699 -0.0308  0.2847
28206SOL    HW187060   2.802   5.093   2.195 -1.0598 -0.1231  1.5233
28206SOL    HW287061   2.875   4.966   2.233  0.3210  0.0460 -0.4084
28207SOL     OW87062   8.717   4.758   4.339  0.8321  0.4518 -0.0511
28207SOL    HW187063   8.769   4.683   4.368  1.7417  1.1820  0.2535
28207SOL    HW287064   8.665   4.724   4.266  1.1786 -0.4864  0.1209
28208SOL     OW87065   1.082   8.186   1.898 -0.1629  0.7976 -0.0758
28208SOL    HW187066   1.170   8.159   1.871  0.2272  1.8677  0.0749
28208SOL    HW287067   1.040   8.216   1.817 -0.2094  0.7648 -0.0641
28209SOL     OW87068   8.246   8.768   9.692  0.2292 -0.2450  0.2117
28209SOL    HW187069   8.227   8.854   9.654  1.4649  0.5371  1.2530
28209SOL    HW287070   8.217   8.775   9.783  0.6523 -0.8121  0.3972
28210SOL     OW87071   6.135   6.403   4.253  0.7186 -0.1590 -0.0379
28210SOL    HW187072   6.052   6.408   4.301  1.1739 -0.7816  0.8293
28210SOL    HW287073   6.111   6.424   4.163 -0.2188  0.6315  0.3781
28211SOL     OW87074   4.652   5.668   7.675  0.6388  0.1319  0.1933
28211SOL    HW187075   4.597   5.684   7.752  0.0124 -0.2071 -0.1751
28211SOL    HW287076   4.606   5.711   7.603 -1.4565 -3.6427 -0.9634
28212SOL     OW87077   9.794   0.604   5.742  0.2630  0.1321 -0.9492
28212SOL    HW187078   9.846   0.635   5.816 -0.0322 -1.8292  0.1557
28212SOL    HW287079   9.817   0.662   5.670  1.0161  1.7296  0.5257
28213SOL     OW87080   0.250  10.278   9.918 -0.2065 -0.1619 -0.0866
28213SOL    HW187081   0.334  10.254   9.877 -0.3153  0.8212 -0.9414
28213SOL    HW287082   0.257  10.373   9.933 -0.5105 -0.3492  1.4310
28214SOL     OW87083   1.993   0.039   4.654  0.8435  0.1118  0.6216
28214SOL    HW187084   1.948   0.011   4.575  2.9632 -0.4034 -0.4691
28214SOL    HW287085   1.942   0.001   4.726 -0.7303  0.0173 -0.5035
28215SOL     OW87086   7.761   7.846   5.614 -0.0362 -0.2129 -0.2727
28215SOL    HW187087   7.840   7.835   5.667 -0.1868 -0.5701 -0.1153
28215SOL    HW287088   7.712   7.915   5.658 -0.5488 -1.0611  0.5430
28216SOL     OW87089   6.971   7.204   0.163  0.3299  0.5884  0.3182
28216SOL    HW187090   6.899   7.170   0.109  1.4981  1.7366 -2.1290
28216SOL    HW287091   7.028   7.127   0.177 -0.7871 -0.0758  1.3212
28217SOL     OW87092   9.106   6.356   6.432 -0.2032  0.7221  0.9539
28217SOL    HW187093   9.017   6.347   6.398  0.0281  0.9748  0.2805
28217SOL    HW287094   9.112   6.290   6.501 -0.5859  0.0313  0.3321
28218SOL     OW87095   3.601   6.942   6.557  0.2976  0.0254  0.0924
28218SOL    HW187096   3.545   6.958   6.632  1.1861  0.6759  0.6306
28218SOL    HW287097   3.546   6.960   6.481 -0.1965  0.7219  0.6119
28219SOL     OW87098   3.266   6.039   4.653 -0.4663  0.6972 -0.4397
28219SOL    HW187099   3.349   5.997   4.630  0.2497  2.4225 -1.2466
28219SOL    HW287100   3.200   5.971   4.643  0.7807 -0.5680 -0.3334
28220SOL     OW87101   9.922  10.379   1.884 -0.4313  0.1323 -0.3989
28220SOL    HW187102   9.864  10.368   1.959  1.1925 -0.5451  0.8366
28220SOL    HW287103   9.884  10.324   1.815 -1.7633  0.4864  0.0263
28221SOL     OW87104   9.146   3.197   1.580  0.2733  0.2242 -0.4988
28221SOL    HW187105   9.220   3.137   1.573  0.6174  0.7418 -1.4835
28221SOL    HW287106   9.083   3.150   1.635  0.5076 -1.0544 -1.2776
28222SOL     OW87107   9.501   5.417   9.964 -0.2057  0.8234  0.0235
28222SOL    HW187108   9.541   5.499   9.933  2.2201 -0.1679  0.2620
28222SOL    HW287109   9.450   5.386   9.890  0.3209  1.6505 -0.7168
28223SOL     OW87110   7.547   5.400   3.489  0.3349  0.0653  0.0567
28223SOL    HW187111   7.457   5.399   3.520  0.5749 -2.8753  0.9340
28223SOL    HW287112   7.561   5.489   3.457 -2.9887  0.4942 -0.4976
28224SOL     OW87113   8.589   8.934   9.479 -0.2862 -0.1504 -0.4680
28224SOL    HW187114   8.551   9.012   9.517 -0.2967 -0.0443 -0.6947
28224SOL    HW287115   8.646   8.899   9.547 -0.5192 -0.1177 -0.2548
28225SOL     OW87116   9.870   7.169   2.544  0.5444  0.1738  0.5583
28225SOL    HW187117   9.793   7.200   2.496  1.3912 -0.5884 -1.3954
28225SOL    HW287118   9.903   7.247   2.588  0.2930  1.1908 -0.9563
28226SOL     OW87119   8.295   7.180   4.901  0.1514  0.3308  0.0219
28226SOL    HW187120   8.341   7.102   4.870 -1.8919 -0.6702 -0.6610
28226SOL    HW287121   8.307   7.244   4.831 -1.4000 -0.7282 -1.3019
28227SOL     OW87122   4.721   0.443  10.106 -0.1508 -0.5853  0.3755
28227SOL    HW187123   4.714   0.431  10.011 -0.5579  2.4277 -0.0709
28227SOL    HW287124   4.813   0.427  10.126  0.1230 -0.3832 -0.6824
28228SOL     OW87125   1.727   1.913   5.030  0.3137  0.1457 -0.7126
28228SOL    HW187126   1.799   1.852   5.042  0.6278  0.7137  0.4408
28228SOL    HW287127   1.705   1.942   5.119  0.3898  1.9484 -1.2395
28229SOL     OW87128   5.651   4.606   2.625 -0.4898  0.2701  0.3222
28229SOL    HW187129   5.683   4.632   2.539 -0.8212  0.9704  0.4038
28229SOL    HW287130   5.654   4.510   2.624  0.2806  0.2936 -0.1662
28230SOL     OW87131   9.982   5.422   2.042 -0.3363 -0.2340 -0.0611
28230SOL    HW187132   9.894   5.429   2.079 -0.5839  2.4388 -0.9950
28230SOL    HW287133   9.971   5.366   1.965 -1.3819  0.6834 -0.6028
28231SOL     OW87134   3.061   4.435   7.229  0.0623  0.2465 -0.2405
28231SOL    HW187135   3.024   4.417   7.143 -0.8980 -0.4976  0.3142
28231SOL    HW287136   3.006   4.386   7.290  1.0056  0.3893  0.7587
28232SOL     OW87137  10.322   5.291   4.294 -0.3853  0.1631  0.5264
28232SOL    HW187138  10.320   5.245   4.378 -1.4964 -0.8121  0.0052
28232SOL    HW287139  10.349   5.225   4.231 -0.1772  0.7229  0.0213
28233SOL     OW87140   4.934   6.435   6.571 -0.3052  0.1334  0.7967
28233SOL    HW187141   4.995   6.362   6.584 -0.7901 -0.3494  0.4431
28233SOL    HW287142   4.885   6.440   6.653 -0.5843 -0.2544  0.6632
28234SOL     OW87143   7.650   4.215   4.511  0.0016  0.6204 -0.0322
28234SOL    HW187144   7.686   4.174   4.589  0.9340  0.6685 -0.4204
28234SOL    HW287145   7.572   4.163   4.490 -2.3058  2.6367  2.8535
28235SOL     OW87146   5.438   4.867  10.305 -0.4772  0.2836  0.2364
28235SOL    HW187147   5.469   4.880  10.395  1.4043  0.9664 -0.4609
28235SOL    HW287148   5.487   4.793  10.273 -0.6911  0.4244 -0.4330
28236SOL     OW87149   7.232   7.245   1.293 -0.3853 -0.1796 -0.0572
28236SOL    HW187150   7.264   7.333   1.273 -1.0279 -0.2952 -1.7355
28236SOL    HW287151   7.146   7.241   1.251 -0.5311 -1.4819  0.3373
28237SOL     OW87152   3.729   6.055   9.188 -0.3164  0.2662  0.1305
28237SOL    HW187153   3.818   6.074   9.160 -0.5220 -0.0112 -0.7309
28237SOL    HW287154   3.739   6.002   9.267  0.2701  1.1777  0.6827
28238SOL     OW87155   7.201   1.106   7.557  0.1203 -0.6644  0.4476
28238SOL    HW187156   7.190   1.047   7.631 -0.1094 -0.1175  0.8589
28238SOL    HW287157   7.124   1.092   7.502 -0.7141  0.3302  1.3193
28239SOL     OW87158   9.628   2.099   3.020  0.7422  0.3223  0.3870
28239SOL    HW187159   9.598   2.185   2.991  0.5491  0.8082  1.9485
28239SOL    HW287160   9.628   2.046   2.940  0.6324  1.6919 -0.5597
28240SOL     OW87161   8.839   4.998   8.099  0.9148  0.2479  0.2212
28240SOL    HW187162   8.793   5.040   8.172  1.0350  0.5208  0.1409
28240SOL    HW287163   8.774   4.994   8.029  0.0466 -2.0983  1.0475
28241SOL     OW87164   3.562   4.010   9.263  0.2716 -0.2735 -0.3360
28241SOL    HW187165   3.503   3.963   9.322 -1.2130 -0.5268 -1.9383
28241SOL    HW287166   3.650   3.986   9.293 -0.4182 -0.8544  1.3684
28242SOL     OW87167   4.814   9.964   0.539 -0.8332 -0.0305 -0.3699
28242SOL    HW187168   4.815   9.916   0.622 -1.5511 -2.0350 -1.4552
28242SOL    HW287169   4.820   9.896   0.472  0.4024  1.5802 -1.9789
28243SOL     OW87170   7.368   8.270   6.546 -0.1452  0.3116  0.5026
28243SOL    HW187171   7.375   8.271   6.642 -1.5669 -1.2945  0.6693
28243SOL    HW287172   7.275   8.283   6.529  0.2576  1.8120 -0.7507
28244SOL     OW87173   7.309   3.789  10.126 -0.4067 -0.1993 -0.4616
28244SOL    HW187174   7.361   3.829  10.196 -0.9409  1.1789 -0.8171
28244SOL    HW287175   7.219   3.808  10.150 -0.6251 -0.3968 -1.1155
28245SOL     OW87176   7.663   2.232   1.878 -0.2996  0.0258 -0.7660
28245SOL    HW187177   7.663   2.259   1.970  0.4557  0.3435 -0.8566
28245SOL    HW287178   7.592   2.282   1.838 -0.2237  0.3529 -0.4918
28246SOL     OW87179   8.255   6.028   5.556  0.1886  0.2585 -0.3814
28246SOL    HW187180   8.290   6.021   5.467 -0.1973 -1.3486 -0.4348
28246SOL    HW287181   8.298   5.958   5.605 -0.3316  0.5029  0.4494
28247SOL     OW87182   0.720   6.889   6.787  0.1816  0.0723  0.0678
28247SOL    HW187183   0.752   6.931   6.707  0.3405 -0.8402 -0.3610
28247SOL    HW287184   0.712   6.961   6.850 -2.1134  1.2132 -1.4076
28248SOL     OW87185   1.301   9.196   5.647 -0.1165 -0.1101 -0.3194
28248SOL    HW187186   1.308   9.108   5.609  0.4838  0.1831 -0.9249
28248SOL    HW287187   1.368   9.199   5.715  1.3931  0.5653 -1.7563
28249SOL     OW87188   5.750   2.263   8.665 -0.5491  0.1480  0.9694
28249SOL    HW187189   5.804   2.317   8.607  0.5621  1.1510  2.8444
28249SOL    HW287190   5.680   2.322   8.693  0.3785  0.5412  2.6129
28250SOL     OW87191  10.061   7.928   1.149 -0.5480 -0.2387  0.5202
28250SOL    HW187192  10.016   7.925   1.065 -0.1872 -1.6736  0.3536
28250SOL    HW287193  10.057   8.020   1.175 -0.1580  0.3472 -1.3376
28251SOL     OW87194   6.673   9.889   6.110 -0.3089 -0.2387 -0.2006
28251SOL    HW187195   6.674   9.968   6.055  1.6301 -0.1863 -0.1385
28251SOL    HW287196   6.658   9.922   6.198  1.1984  0.1747 -0.0699
28252SOL     OW87197   8.150   2.948   6.766 -0.1170  0.5549 -0.6379
28252SOL    HW187198   8.071   2.999   6.782  0.1350  0.1579  2.4860
28252SOL    HW287199   8.153   2.937   6.671 -2.0071  3.3628 -1.1283
28253SOL     OW87200   8.132   2.809   0.944 -0.0131  0.0055  0.1735
28253SOL    HW187201   8.202   2.873   0.954 -1.4640  1.7405 -0.1733
28253SOL    HW287202   8.166   2.744   0.883  0.8163  1.5479 -1.0675
28254SOL     OW87203   7.003   7.035   2.913 -0.6013 -0.2327  0.0461
28254SOL    HW187204   6.956   7.097   2.970 -0.4221  0.7062 -0.8058
28254SOL    HW287205   6.963   7.047   2.827  0.3869 -0.3131 -0.4275
28255SOL     OW87206   1.929   1.405   2.887 -0.0781  0.8127  0.5683
28255SOL    HW187207   1.863   1.429   2.953 -1.5215 -0.5289 -0.3054
28255SOL    HW287208   1.914   1.311   2.872 -0.9439  1.3646 -2.8117
28256SOL     OW87209   2.164   5.920   6.882  0.2833  0.3483  0.0694
28256SOL    HW187210   2.254   5.943   6.903  0.3173 -0.0327  0.3463
28256SOL    HW287211   2.149   5.959   6.796  0.3784  1.2898  0.4710
28257SOL     OW87212   0.991   4.170   0.124  0.3080 -0.0108 -0.2395
28257SOL    HW187213   0.983   4.258   0.087  0.4412  0.8423  1.6931
28257SOL    HW287214   1.054   4.126   0.066  2.8032  2.2163  0.5916
28258SOL     OW87215   7.521   6.962   7.097 -0.2073  0.1829  0.0697
28258SOL    HW187216   7.551   7.043   7.056 -0.6335  1.0282  1.3711
28258SOL    HW287217   7.428   6.958   7.075 -0.2041  0.0845  0.0746
28259SOL     OW87218   6.393   2.987   5.575 -0.1516  0.0701  0.1728
28259SOL    HW187219   6.384   2.892   5.568  0.5867  0.0251 -0.3960
28259SOL    HW287220   6.476   2.999   5.622 -0.3411  0.4348  0.4156
28260SOL     OW87221   9.832   1.131   4.111  0.5935  0.0116  0.0356
28260SOL    HW187222   9.780   1.211   4.111  2.2931  1.1689 -1.3875
28260SOL    HW287223   9.772   1.064   4.144 -2.4550  0.8508 -3.1693
28261SOL     OW87224   0.742   0.172   2.681 -0.4106 -0.6959 -0.3798
28261SOL    HW187225   0.663   0.149   2.729 -0.9062 -0.0169 -0.8570
28261SOL    HW287226   0.801   0.097   2.693  0.6798  0.5796  3.7504
28262SOL     OW87227   6.917   3.524   6.048  0.5154  0.6162 -1.0841
28262SOL    HW187228   6.968   3.580   5.989  0.5774  1.0094 -0.6653
28262SOL    HW287229   6.845   3.580   6.078  0.5117  0.4392 -0.7515
28263SOL     OW87230   5.593   7.640   0.344  0.1518 -0.0606  0.4696
28263SOL    HW187231   5.558   7.556   0.373  1.9220 -0.8739  0.3697
28263SOL    HW287232   5.572   7.643   0.250  0.5197 -0.6266  0.3660
28264SOL     OW87233   0.668   5.460   6.817 -0.1356  0.4314 -0.2070
28264SOL    HW187234   0.619   5.403   6.876 -0.3402 -1.0272 -1.7061
28264SOL    HW287235   0.673   5.544   6.863 -2.4815  0.1013  0.7723
28265SOL     OW87236   7.520   8.236   9.446  0.2799 -0.0863  0.8530
28265SOL    HW187237   7.456   8.246   9.376  1.5806  1.4731 -0.1758
28265SOL    HW287238   7.530   8.324   9.482  0.6409 -0.6197  2.1280
28266SOL     OW87239   5.425   8.805   6.788  0.6075 -0.3140  1.1898
28266SOL    HW187240   5.513   8.795   6.750  0.6746 -1.0047  1.5154
28266SOL    HW287241   5.406   8.899   6.779 -0.2322 -0.6823 -2.4119
28267SOL     OW87242   2.353   8.914   0.827 -0.0567  0.0967 -0.0944
28267SOL    HW187243   2.374   8.888   0.916  1.0175  0.2967 -0.2738
28267SOL    HW287244   2.408   8.858   0.772  0.0727  0.6927 -0.5881
28268SOL     OW87245   0.077   8.972   4.810  0.5678  0.5120 -0.3255
28268SOL    HW187246   0.156   8.919   4.823  0.7543  0.6422 -0.9224
28268SOL    HW287247   0.011   8.909   4.782  0.8596  0.6191 -1.2982
28269SOL     OW87248   8.054   1.944   2.965 -0.0395  0.4967  0.3710
28269SOL    HW187249   8.116   1.964   2.895  1.4064  0.3440  1.5569
28269SOL    HW287250   8.000   2.022   2.973  0.8086  1.1207  0.1192
28270SOL     OW87251   7.722   8.429   5.985  0.4795  0.1470  0.3652
28270SOL    HW187252   7.784   8.412   5.914 -0.0292  0.3130 -0.1242
28270SOL    HW287253   7.647   8.373   5.965  1.0646 -1.2074  1.7774
28271SOL     OW87254   5.614   0.811   2.149  0.9496  0.2544 -0.6388
28271SOL    HW187255   5.636   0.876   2.216  1.5407 -0.6825  0.0967
28271SOL    HW287256   5.697   0.793   2.104  0.9408 -0.5269 -0.3533
28272SOL     OW87257   0.896   6.376   0.240  0.7485 -0.1169  0.1157
28272SOL    HW187258   0.934   6.363   0.153  1.5235 -0.5850  0.5087
28272SOL    HW287259   0.938   6.309   0.294  1.2828  1.0063  1.1473
28273SOL     OW87260   3.407   4.890   3.648 -0.5786 -0.1074  0.4879
28273SOL    HW187261   3.391   4.802   3.682  0.7886 -0.9302 -0.8718
28273SOL    HW287262   3.379   4.886   3.556  0.2176  0.6411  0.1938
28274SOL     OW87263   9.612  10.103   5.533 -0.2940 -0.6278 -0.2485
28274SOL    HW187264   9.618  10.095   5.437  1.0136 -1.6164 -0.0989
28274SOL    HW287265   9.672  10.037   5.567  1.7291  1.8164  1.2283
28275SOL     OW87266   4.466   5.655   4.644 -0.1162 -0.0192  0.2240
28275SOL    HW187267   4.541   5.631   4.699  2.9707  1.7511 -2.8148
28275SOL    HW287268   4.444   5.744   4.671 -1.5238 -0.6606  1.3572
28276SOL     OW87269   3.333   8.530   7.011  0.5593 -0.1874  0.3804
28276SOL    HW187270   3.357   8.464   6.946  0.5100 -1.2877  1.4548
28276SOL    HW287271   3.411   8.584   7.021  0.3890  0.3667 -0.9941
28277SOL     OW87272   2.432   8.808   3.964 -0.3871 -0.0244 -0.2350
28277SOL    HW187273   2.397   8.893   3.938  0.6696  0.5570  0.2144
28277SOL    HW287274   2.361   8.767   4.013 -0.9183  0.5673 -0.4964
28278SOL     OW87275   4.269   6.133   7.367 -0.2390 -0.4986 -0.2320
28278SOL    HW187276   4.202   6.201   7.367  0.5361  0.3121  0.6569
28278SOL    HW287277   4.330   6.160   7.298  0.3278  0.0025  0.4481
28279SOL     OW87278   9.905   5.255   7.941 -0.2520  0.7550  0.2237
28279SOL    HW187279   9.942   5.216   7.862 -0.2009 -0.1046  0.6610
28279SOL    HW287280   9.934   5.346   7.939  1.0247  0.3650  0.0213
28280SOL     OW87281   3.313   7.992   3.211 -0.3475  0.2611  0.7413
28280SOL    HW187282   3.369   7.914   3.218 -0.7741 -0.1223 -0.0363
28280SOL    HW287283   3.374   8.064   3.197  0.0702  0.1162  1.6855
28281SOL     OW87284   1.658   6.093   1.971 -0.6838  0.0284 -0.1502
28281SOL    HW187285   1.649   6.043   1.890  1.1478 -0.3882 -0.1481
28281SOL    HW287286   1.634   6.031   2.040  0.4618 -0.5122 -0.2198
28282SOL     OW87287   1.226   9.697   1.771  0.1476  0.3025 -0.2703
28282SOL    HW187288   1.203   9.617   1.818  0.3006  0.7300  0.5698
28282SOL    HW287289   1.310   9.724   1.809  0.5857  0.3319 -1.2370
28283SOL     OW87290   2.319   2.293   9.276  0.0580 -0.1594  0.6509
28283SOL    HW187291   2.263   2.355   9.229 -1.4028  0.8772  3.4806
28283SOL    HW287292   2.405   2.335   9.278 -0.1054  0.2341 -0.2404
28284SOL     OW87293   0.942   6.683   6.507 -0.5200  0.1705  0.6088
28284SOL    HW187294   0.872   6.704   6.570 -0.3166 -0.1504  0.9463
28284SOL    HW287295   0.972   6.596   6.533  1.7296  1.2940  2.0606
28285SOL     OW87296   2.535   4.043   6.513  0.0265 -0.1487 -0.5924
28285SOL    HW187297   2.444   4.048   6.484  0.3185 -0.4378 -1.5785
28285SOL    HW287298   2.569   3.962   6.475  0.8036  0.1361 -0.5333
28286SOL     OW87299   1.116   5.294   7.804  0.1949 -0.0005  0.2198
28286SOL    HW187300   1.038   5.257   7.763  1.2765 -0.8913 -1.1715
28286SOL    HW287301   1.128   5.379   7.761  0.0048  0.1145  0.3976
28287SOL     OW87302   1.852   0.486   0.426  0.1931  0.1067 -0.3503
28287SOL    HW187303   1.872   0.570   0.468 -0.0756  0.7793 -1.5354
28287SOL    HW287304   1.821   0.510   0.339 -1.3017 -1.1488 -0.1996
28288SOL     OW87305   8.954   8.974   3.615  0.0796  0.2355  0.8821
28288SOL    HW187306   8.951   8.966   3.520  2.3573 -0.0793  0.7929
28288SOL    HW287307   8.863   8.991   3.640 -0.3385  1.9402 -1.4738
28289SOL     OW87308  10.400   9.581   5.653  0.7600 -0.3670  0.0004
28289SOL    HW187309  10.472   9.574   5.590  1.3032  1.3344  0.3780
28289SOL    HW287310  10.442   9.572   5.738  0.3398 -0.5677  0.1872
28290SOL     OW87311   4.069   9.015   4.810 -0.2932  0.2986 -0.0465
28290SOL    HW187312   4.000   9.081   4.801 -0.7111 -0.3165 -1.6916
28290SOL    HW287313   4.026   8.939   4.847 -0.7606 -0.3799 -1.8557
28291SOL     OW87314   9.483   3.630   6.567  0.2436 -0.3521  0.4010
28291SOL    HW187315   9.489   3.603   6.658  1.3087  0.6937  0.6678
28291SOL    HW287316   9.560   3.685   6.553  0.9513 -1.7351 -1.5747
28292SOL     OW87317   8.575   8.849   8.095 -0.1877  0.3892  0.2671
28292SOL    HW187318   8.599   8.900   8.173  2.2737  2.5153 -1.7115
28292SOL    HW287319   8.481   8.865   8.085 -0.3109  1.0964  2.0579
28293SOL     OW87320   7.709   9.802   2.600  0.1071 -0.1679 -0.3663
28293SOL    HW187321   7.784   9.764   2.554  0.0858 -1.1355  0.3580
28293SOL    HW287322   7.632   9.763   2.557  0.0836 -0.9095  0.3138
28294SOL     OW87323   7.996   8.977   3.291  0.3309  0.7762 -0.1177
28294SOL    HW187324   7.909   9.002   3.324  0.1747 -1.2789  1.1618
28294SOL    HW287325   8.038   8.934   3.365  3.0053  2.8125 -0.2877
28295SOL     OW87326  10.397   6.409   2.813  0.0909  0.4642 -0.2594
28295SOL    HW187327  10.390   6.495   2.770  1.4110 -1.2881 -4.5318
28295SOL    HW287328  10.491   6.392   2.816 -0.1795 -1.1760 -0.3962
28296SOL     OW87329   3.284   3.345   5.522  0.0075  0.1678 -0.1174
28296SOL    HW187330   3.219   3.277   5.505 -0.3723  0.5276 -0.1423
28296SOL    HW287331   3.263   3.377   5.610  1.3442 -1.0035  0.6573
28297SOL     OW87332  10.307   0.925   2.636 -0.3322 -0.2456  0.3195
28297SOL    HW187333  10.228   0.973   2.614  0.8197  1.7701  0.3376
28297SOL    HW287334  10.314   0.857   2.569 -1.2461  0.5367 -0.5920
28298SOL     OW87335   0.011   9.856   5.698 -0.8257  0.6378 -0.0557
28298SOL    HW187336  -0.048   9.843   5.773 -2.1906 -0.8033 -1.3135
28298SOL    HW287337  -0.047   9.866   5.623  0.5227  1.9098 -0.9833
28299SOL     OW87338   2.576  10.077   2.867 -0.3029  0.6509  0.3656
28299SOL    HW187339   2.519  10.031   2.804  1.0845  0.9395 -1.1787
28299SOL    HW287340   2.664  10.064   2.832  0.4262  1.5929  1.7999
28300SOL     OW87341   4.460   4.814   4.608  0.1280  0.0167 -0.5631
28300SOL    HW187342   4.526   4.819   4.676 -0.3777 -3.4314  0.3759
28300SOL    HW287343   4.510   4.808   4.526  0.8084  0.9751 -0.2409
28301SOL     OW87344   3.461   6.774   8.099  0.1517  0.1905 -0.1348
28301SOL    HW187345   3.377   6.813   8.122  0.5670  0.7759  0.4234
28301SOL    HW287346   3.505   6.840   8.046 -0.6571 -1.0072 -2.4438
28302SOL     OW87347   9.680   0.878   8.979 -0.2478  0.4158 -0.3875
28302SOL    HW187348   9.768   0.853   8.952  1.3805  4.0040  1.0378
28302SOL    HW287349   9.649   0.803   9.030  2.5432 -0.4445  0.2123
28303SOL     OW87350   9.433   3.436   0.322  0.3657  0.0131 -0.0932
28303SOL    HW187351   9.449   3.529   0.339  0.4181  0.3117 -1.5701
28303SOL    HW287352   9.387   3.404   0.399  1.5811  0.9152  1.0541
28304SOL     OW87353   1.181   6.232   1.325 -0.3556  0.4778  0.5234
28304SOL    HW187354   1.090   6.259   1.342 -0.1952  0.3065  1.7812
28304SOL    HW287355   1.181   6.138   1.342 -0.1482  0.2917 -0.4540
28305SOL     OW87356   8.885  10.298   8.774 -0.3715  0.0437 -0.3219
28305SOL    HW187357   8.825  10.305   8.699 -0.1254  2.1439 -0.3840
28305SOL    HW287358   8.916  10.387   8.788  2.1250 -0.8287  0.2474
28306SOL     OW87359   7.509   6.429   5.185 -0.3322  0.0516  0.2803
28306SOL    HW187360   7.554   6.483   5.249  0.1176 -0.4801  0.4216
28306SOL    HW287361   7.566   6.353   5.173 -1.1639 -0.6061  0.4126
28307SOL     OW87362   0.564   8.767   4.807 -0.2092  0.7450 -0.5047
28307SOL    HW187363   0.590   8.675   4.799 -0.6967  0.5136  0.4111
28307SOL    HW287364   0.595   8.793   4.893 -0.1455  1.4220 -0.7283
28308SOL     OW87365   2.155   2.027   8.309 -0.0498  0.3022 -0.0302
28308SOL    HW187366   2.243   2.023   8.272 -0.4782 -2.4839 -1.0229
28308SOL    HW287367   2.116   2.105   8.270  0.8447 -0.3772 -2.4670
28309SOL     OW87368   0.886   5.278   8.623  0.1971 -0.0570  0.1680
28309SOL    HW187369   0.941   5.275   8.545 -0.8769 -1.4127 -0.5919
28309SOL    HW287370   0.882   5.371   8.646 -0.1635  0.5070 -1.9298
28310SOL     OW87371   7.125   9.489   2.538  0.1378  0.4325 -0.1967
28310SOL    HW187372   7.188   9.423   2.510  0.4910  0.5859  0.2313
28310SOL    HW287373   7.167   9.534   2.611 -1.4108 -1.0820  1.7739
28311SOL     OW87374   6.201   8.219   9.294  0.0938  0.5881  0.7647
28311SOL    HW187375   6.248   8.148   9.337 -1.1152 -0.7471 -0.0383
28311SOL    HW287376   6.183   8.282   9.365 -0.4168 -0.7768  1.8942
28312SOL     OW87377   7.574   8.417   6.384  0.5251 -0.2752  0.3609
28312SOL    HW187378   7.518   8.404   6.461 -1.5462 -0.3692 -1.0678
28312SOL    HW287379   7.587   8.329   6.349  1.0725 -0.1928  0.3622
28313SOL     OW87380   9.717   8.951   3.624  0.0731 -0.7005  0.0964
28313SOL    HW187381   9.735   9.036   3.663 -0.5493  0.1870 -1.4709
28313SOL    HW287382   9.779   8.892   3.666 -0.1555  0.3031  1.9504
28314SOL     OW87383   8.058   9.148   2.323 -0.1509 -0.1023 -0.0658
28314SOL    HW187384   7.999   9.082   2.360 -0.5080  0.1236 -0.2205
28314SOL    HW287385   8.140   9.101   2.307 -0.9244 -0.9902 -1.8096
28315SOL     OW87386   3.454   2.884   0.530 -0.5605 -0.1224  0.1057
28315SOL    HW187387   3.496   2.837   0.601 -0.7964  1.4906  1.3742
28315SOL    HW287388   3.490   2.845   0.450  2.1516  0.1045  1.1138
28316SOL     OW87389   1.156   6.691   4.325 -0.1346  0.3569  0.0140
28316SOL    HW187390   1.101   6.710   4.249  1.0788 -0.4899 -1.1136
28316SOL    HW287391   1.101   6.637   4.382 -1.6860  2.4389  0.6455
28317SOL     OW87392   9.574   8.914   0.418  0.5131  0.4886  0.9806
28317SOL    HW187393   9.598   8.839   0.471  0.2953  0.8520  1.5976
28317SOL    HW287394   9.557   8.984   0.480  2.2492  1.5329  0.3565
28318SOL     OW87395   6.656   3.120   7.330 -0.0768 -0.2872  0.4375
28318SOL    HW187396   6.707   3.122   7.411  0.0453  0.8970  0.3388
28318SOL    HW287397   6.671   3.205   7.289 -1.1473 -0.3934 -0.2163
28319SOL     OW87398   9.535   5.246   5.322 -0.4095 -0.2827 -0.1068
28319SOL    HW187399   9.617   5.224   5.278 -0.4460 -0.8842  0.1133
28319SOL    HW287400   9.514   5.168   5.373 -1.0498 -0.0809 -0.0569
28320SOL     OW87401   2.643   7.734   5.482 -0.1459 -0.2975 -0.1304
28320SOL    HW187402   2.640   7.639   5.486 -0.2259 -0.2668  1.2357
28320SOL    HW287403   2.733   7.756   5.457  0.2147 -0.7268  0.7538
28321SOL     OW87404   8.883   8.095   5.221 -0.6378  0.1733 -0.6490
28321SOL    HW187405   8.799   8.089   5.176 -0.6265 -0.1487 -0.6267
28321SOL    HW287406   8.941   8.037   5.172 -0.0516  1.4136 -1.4828
28322SOL     OW87407   9.982   2.971   8.420  0.0546 -0.0385 -0.3845
28322SOL    HW187408   9.906   3.011   8.377  0.0937 -0.3146 -0.7125
28322SOL    HW287409   9.984   2.882   8.386 -0.5987 -0.6363  1.0408
28323SOL     OW87410   5.767   7.808   3.556 -0.2771 -0.1729 -0.0955
28323SOL    HW187411   5.762   7.818   3.651  2.8025 -1.6428  0.3495
28323SOL    HW287412   5.802   7.891   3.524 -0.7666  0.1108  0.0875
28324SOL     OW87413   1.510   0.452   2.806 -0.5138  0.2628  0.1329
28324SOL    HW187414   1.480   0.378   2.754  0.2174 -0.2352  0.4099
28324SOL    HW287415   1.544   0.413   2.886 -1.4050  1.0056  0.8840
28325SOL     OW87416   0.501   0.563   4.064  0.2995  0.6208 -0.1103
28325SOL    HW187417   0.534   0.502   4.131 -2.4025  0.0655  0.8909
28325SOL    HW287418   0.524   0.650   4.097 -0.9679  0.3633  1.6767
28326SOL     OW87419   8.141   6.861   3.371  0.3781  0.2061  0.0957
28326SOL    HW187420   8.051   6.854   3.339  0.2569 -0.9269  0.6296
28326SOL    HW287421   8.132   6.898   3.459  0.4907  0.6820 -0.0907
28327SOL     OW87422   8.209   1.055   8.298 -0.3946 -0.0543  0.1763
28327SOL    HW187423   8.173   1.070   8.385 -0.2641 -0.9033  0.3897
28327SOL    HW287424   8.267   0.979   8.309 -0.0754  0.0727 -0.5656
28328SOL     OW87425   8.256   7.389   2.002  0.9074  0.2333 -0.1114
28328SOL    HW187426   8.256   7.302   2.043  0.7996  0.2415 -0.0932
28328SOL    HW287427   8.163   7.412   1.995  0.9454  0.4518  0.1061
28329SOL     OW87428   7.100   9.619   8.033  0.7508 -0.2620 -0.1908
28329SOL    HW187429   7.066   9.628   7.944  0.3320  1.1897  0.0868
28329SOL    HW287430   7.194   9.631   8.024  0.5093  2.2242 -0.2170
28330SOL     OW87431   0.611   6.419   8.596 -0.2059  0.4719  0.2625
28330SOL    HW187432   0.532   6.393   8.549 -0.9369  0.0906  1.6407
28330SOL    HW287433   0.579   6.470   8.670  0.9719  1.8188 -0.1271
28331SOL     OW87434   8.014   3.212   0.143  0.4366  0.3367 -0.4385
28331SOL    HW187435   7.963   3.132   0.142  2.2404 -0.8837 -0.2328
28331SOL    HW287436   8.035   3.230   0.051 -0.0781  0.6614 -0.4958
28332SOL     OW87437   1.859   1.390   1.236  0.1387  0.2027 -0.3550
28332SOL    HW187438   1.868   1.318   1.173  0.7645  0.7003 -0.8506
28332SOL    HW287439   1.802   1.454   1.191 -1.7455 -0.6478  0.7071
28333SOL     OW87440   5.763   4.802   0.945 -0.5416  0.5065 -0.7512
28333SOL    HW187441   5.713   4.883   0.951  1.1431  1.8952 -3.8040
28333SOL    HW287442   5.698   4.736   0.920 -1.5852  1.2490 -0.0949
28334SOL     OW87443   5.156   7.788   9.149  0.5481  0.3752 -0.0223
28334SOL    HW187444   5.232   7.843   9.166 -0.5371  1.6048  1.0136
28334SOL    HW287445   5.164   7.717   9.213  1.0557  0.2375 -0.2294
28335SOL     OW87446   5.702  10.082   0.947 -0.1384  0.1628  0.3643
28335SOL    HW187447   5.794  10.093   0.972 -0.0838 -0.7819  0.6244
28335SOL    HW287448   5.696  10.117   0.859  0.4007  0.5206  0.4670
28336SOL     OW87449   6.413   5.561   8.302 -0.2801 -0.0167 -0.1224
28336SOL    HW187450   6.329   5.521   8.323  0.4223 -0.4827  2.0988
28336SOL    HW287451   6.400   5.655   8.317 -0.1880 -0.1903  1.1398
28337SOL     OW87452   2.003   3.306   7.208 -0.0661  0.0169  0.1958
28337SOL    HW187453   2.061   3.254   7.151 -2.2459 -2.3246 -0.0810
28337SOL    HW287454   2.021   3.274   7.296  0.7581  1.0553  0.4169
28338SOL     OW87455   8.258  10.170   5.268 -0.1047 -0.2320  0.2183
28338SOL    HW187456   8.263  10.256   5.310 -0.2428  0.0733 -0.3797
28338SOL    HW287457   8.240  10.110   5.340 -2.8150  0.5664  0.3174
28339SOL     OW87458   6.014   9.028   9.444  0.3449  0.4411  0.3375
28339SOL    HW187459   5.953   8.985   9.504  1.2625  0.0825  1.0200
28339SOL    HW287460   6.030   9.114   9.483 -0.1253  0.7428 -0.1202
28340SOL     OW87461   0.582   0.326   3.463 -0.1518  0.1989  0.6562
28340SOL    HW187462   0.489   0.350   3.452 -0.2161  0.3417  1.4970
28340SOL    HW287463   0.621   0.347   3.378 -0.6199  1.4010  0.7111
28341SOL     OW87464   5.551   7.969   9.791 -0.4790 -0.4875  0.2790
28341SOL    HW187465   5.523   7.924   9.872 -0.2197 -0.3142  0.4660
28341SOL    HW287466   5.498   7.929   9.722 -0.8633 -0.4815  0.5663
28342SOL     OW87467   1.657   1.336   9.983  0.7649 -0.3068  0.0417
28342SOL    HW187468   1.711   1.415   9.981  2.8415 -1.6417 -2.4596
28342SOL    HW287469   1.700   1.280  10.048 -0.5595  0.4368  1.6263
28343SOL     OW87470   3.240   6.616   7.145 -0.3263 -0.2046 -0.0135
28343SOL    HW187471   3.316   6.670   7.125  0.4033 -0.5226  1.7619
28343SOL    HW287472   3.165   6.668   7.113  0.6483 -0.7505 -3.6151
28344SOL     OW87473   5.251  10.050   9.410 -0.3844  0.1835  0.1480
28344SOL    HW187474   5.161  10.024   9.389  0.2090 -2.3384  0.4171
28344SOL    HW287475   5.244  10.096   9.494 -1.3499 -0.6213  0.5306
28345SOL     OW87476  10.423   9.008   5.054 -0.2632  0.7941  0.9884
28345SOL    HW187477  10.515   8.986   5.067  0.2236  1.8824 -0.4205
28345SOL    HW287478  10.376   8.927   5.076  1.1357 -0.2825  0.2233
28346SOL     OW87479   2.616   9.703  10.005  0.1772 -0.7026 -0.0779
28346SOL    HW187480   2.703   9.727   9.974  1.0515 -2.7991  0.5596
28346SOL    HW287481   2.559   9.716   9.930  1.0575  0.5098 -0.5680
28347SOL     OW87482   4.999   8.195   1.834  0.1603  0.4987 -0.1868
28347SOL    HW187483   5.062   8.205   1.763  0.5559 -0.4762  0.0070
28347SOL    HW287484   4.977   8.102   1.833  0.0291  0.5094  0.8419
28348SOL     OW87485   0.150   9.966   9.221 -0.1814  0.3083 -0.0239
28348SOL    HW187486   0.208   9.890   9.227 -1.2755 -0.5007  0.7668
28348SOL    HW287487   0.181  10.026   9.288  0.1769  0.1865 -0.0802
28349SOL     OW87488   9.834   1.927   2.188 -0.4771 -0.3220 -0.1151
28349SOL    HW187489   9.844   1.860   2.120  0.2410 -0.2399 -0.1078
28349SOL    HW287490   9.924   1.953   2.208 -0.7912  1.3874 -0.8518
28350SOL     OW87491   6.097   1.612   5.718 -0.1622 -0.2643  0.8556
28350SOL    HW187492   6.097   1.524   5.682 -1.0198 -0.1448  0.5340
28350SOL    HW287493   6.013   1.619   5.764 -1.3435  1.2229 -1.3187
28351SOL     OW87494   4.878   1.723   3.130  0.5327 -0.1278 -0.0650
28351SOL    HW187495   4.795   1.738   3.176  1.9202 -1.0479  2.9749
28351SOL    HW287496   4.889   1.628   3.131  0.5191 -0.2385 -2.7017
28352SOL     OW87497   0.235   9.864   9.872  0.1611 -0.2816  0.5903
28352SOL    HW187498   0.175   9.892   9.803  0.2911 -2.3616 -0.4488
28352SOL    HW287499   0.184   9.804   9.925  1.4116 -2.5970 -0.6943
28353SOL     OW87500   8.811   8.570   5.722 -0.2416  0.1358 -0.2662
28353SOL    HW187501   8.720   8.541   5.718 -0.0071 -0.7935  0.5496
28353SOL    HW287502   8.844   8.531   5.803  0.4655  1.7002  0.2416
28354SOL     OW87503   1.142   5.153   3.160  0.0194  0.6640  0.0975
28354SOL    HW187504   1.205   5.132   3.092  0.1750  1.3311  0.0277
28354SOL    HW287505   1.159   5.090   3.229  1.6618  1.6311  0.6428
28355SOL     OW87506   8.901   8.922   5.666 -0.0872  0.4076  0.4533
28355SOL    HW187507   8.930   8.956   5.581  1.0904 -0.0904  0.6351
28355SOL    HW287508   8.982   8.911   5.716 -0.6571 -0.5245  1.1933
28356SOL     OW87509   6.508   6.750   6.732  0.1485 -0.7085 -0.5624
28356SOL    HW187510   6.470   6.676   6.684 -0.0885 -0.6074 -0.5347
28356SOL    HW287511   6.581   6.712   6.781  0.0537 -0.9174 -0.5799
28357SOL     OW87512   2.133   4.049   5.117 -0.5260 -0.1994  0.0735
28357SOL    HW187513   2.139   4.135   5.076 -0.8272 -0.9280 -1.5730
28357SOL    HW287514   2.055   4.054   5.173 -0.2926  0.7162  0.3239
28358SOL     OW87515   8.839   0.585   8.750 -0.0774  0.5182 -0.2069
28358SOL    HW187516   8.784   0.660   8.772  1.1051  2.1071 -2.2769
28358SOL    HW287517   8.918   0.624   8.712  0.6686 -1.7749 -1.1656
28359SOL     OW87518   9.844   7.284   1.101  0.0996  0.3283  0.9105
28359SOL    HW187519   9.890   7.324   1.027 -0.5641 -0.8876 -0.2029
28359SOL    HW287520   9.752   7.306   1.086  0.0323  0.7084  1.8085
28360SOL     OW87521   7.036   5.321   8.464  0.0925 -0.5281 -0.2337
28360SOL    HW187522   7.068   5.242   8.422 -0.6074 -0.3420 -1.1497
28360SOL    HW287523   7.043   5.389   8.397  1.6768  0.4640  0.8528
28361SOL     OW87524   8.100   6.230   0.850  0.3482 -0.6544 -0.3869
28361SOL    HW187525   8.018   6.241   0.898 -0.5927 -1.1176 -1.8165
28361SOL    HW287526   8.084   6.155   0.792  1.6554 -0.5248 -0.9509
28362SOL     OW87527   5.261   3.223   3.115 -0.5243  0.3145  0.3135
28362SOL    HW187528   5.317   3.196   3.041  1.9105  1.1665  1.7076
28362SOL    HW287529   5.178   3.247   3.075 -0.0594 -1.4278 -1.8683
28363SOL     OW87530   7.133   4.711   9.575  0.1832 -0.5558  0.3695
28363SOL    HW187531   7.215   4.699   9.623 -1.3058 -0.5101  3.1657
28363SOL    HW287532   7.122   4.806   9.569  1.0032 -0.5425 -1.3419
28364SOL     OW87533   0.366   2.130   6.659  0.1725  0.9017 -0.3142
28364SOL    HW187534   0.425   2.135   6.584  0.3323 -2.0477 -0.5304
28364SOL    HW287535   0.423   2.131   6.735  0.4946 -0.7452 -0.4831
28365SOL     OW87536   8.083   3.237  10.318 -0.7453 -0.1692 -0.6622
28365SOL    HW187537   8.050   3.272  10.236 -0.1964  1.2869 -0.3130
28365SOL    HW287538   8.169   3.201  10.296 -0.1346  1.1604 -0.5802
28366SOL     OW87539   9.299   2.430   0.712  0.3460  0.3611 -0.0248
28366SOL    HW187540   9.264   2.456   0.798 -0.0495  2.8406 -0.8723
28366SOL    HW287541   9.391   2.412   0.728  0.1401  0.1691  1.0265
28367SOL     OW87542   0.905   0.920   2.371 -0.0127  0.9969  0.1838
28367SOL    HW187543   0.984   0.973   2.378 -0.3793  2.0861 -2.5357
28367SOL    HW287544   0.938   0.830   2.361  0.9721  1.4737 -1.2892
28368SOL     OW87545   8.748   7.598   9.407 -0.0512 -0.4839  0.1515
28368SOL    HW187546   8.781   7.686   9.390 -2.2942  0.4933  0.4594
28368SOL    HW287547   8.727   7.598   9.501  0.2669 -1.4757  0.2350
28369SOL     OW87548   3.519   6.966   0.874 -0.1945 -0.6328  0.6314
28369SOL    HW187549   3.475   6.983   0.791 -1.2213 -0.0051  1.2786
28369SOL    HW287550   3.495   6.876   0.897 -0.8738 -0.4104  0.8092
28370SOL     OW87551   2.042   7.382   3.064 -0.3701  0.1464 -0.7075
28370SOL    HW187552   1.957   7.395   3.106  0.0882 -2.2271  1.2079
28370SOL    HW287553   2.092   7.460   3.088 -0.8714 -0.0854  1.3167
28371SOL     OW87554   3.404   8.939   9.621 -0.0682  0.2288 -0.0343
28371SOL    HW187555   3.443   9.019   9.588 -2.1158  0.6887 -1.4665
28371SOL    HW287556   3.470   8.871   9.603  1.1014  1.3345 -0.0656
28372SOL     OW87557   7.491   0.350   5.894 -0.2695 -0.2719 -0.7502
28372SOL    HW187558   7.517   0.397   5.972  0.1455  1.2721 -1.7742
28372SOL    HW287559   7.572   0.317   5.857 -0.2373  0.5880 -1.4863
28373SOL     OW87560   4.271   8.197   6.278 -0.0347 -0.3883 -0.0116
28373SOL    HW187561   4.241   8.238   6.197  1.7562  0.5742 -0.2595
28373SOL    HW287562   4.347   8.144   6.251  0.3352 -0.3771  0.9626
28374SOL     OW87563   0.396   7.906   5.072 -0.2048 -0.5644 -0.7945
28374SOL    HW187564   0.400   7.855   5.152  0.8271 -0.8032 -0.9814
28374SOL    HW287565   0.373   7.994   5.100 -1.0595 -0.9114 -0.3743
28375SOL     OW87566   3.098   6.418   8.857 -0.0465  0.4849  0.3195
28375SOL    HW187567   3.108   6.455   8.769 -0.8780  0.1101  0.0596
28375SOL    HW287568   3.107   6.324   8.845 -3.0606  0.1031  0.1041
28376SOL     OW87569   0.158   9.557   0.157  0.3219  0.6089 -0.6997
28376SOL    HW187570   0.149   9.577   0.064  2.0675  0.6480 -0.8998
28376SOL    HW287571   0.086   9.498   0.176  0.5993 -0.3289 -2.3746
28377SOL     OW87572   0.497   3.258   1.428  0.0988 -0.2616  0.2085
28377SOL    HW187573   0.408   3.237   1.457  0.2323  0.3109  1.0579
28377SOL    HW287574   0.537   3.172   1.411 -0.0403 -0.6346  1.5965
28378SOL     OW87575   0.019   8.621   6.806 -0.6449 -0.0453  0.5101
28378SOL    HW187576   0.093   8.562   6.793 -0.0874  1.0238 -1.6807
28378SOL    HW287577   0.034   8.661   6.892  0.9005 -0.4324  0.4402
28379SOL     OW87578   5.296   6.099   8.064  0.6267 -0.1765 -0.6054
28379SOL    HW187579   5.293   6.195   8.058 -0.7872 -0.1824 -0.3559
28379SOL    HW287580   5.268   6.070   7.977  0.4808 -0.3518 -0.4997
28380SOL     OW87581   0.167   8.229   0.068 -0.1453  0.1912 -0.3183
28380SOL    HW187582   0.164   8.249  -0.026  3.6373  1.4473 -0.3511
28380SOL    HW287583   0.198   8.310   0.109  0.7434 -1.0615  1.6434
28381SOL     OW87584   0.948   9.743   6.801 -0.6075 -0.1321 -0.0336
28381SOL    HW187585   0.951   9.833   6.768 -0.7653  0.3777  1.3071
28381SOL    HW287586   0.855   9.725   6.813 -0.5136  0.2957  1.6553
28382SOL     OW87587   1.909   7.687   0.290  0.6169  0.8996 -0.4193
28382SOL    HW187588   2.000   7.671   0.315  0.7374 -0.6904 -1.7373
28382SOL    HW287589   1.889   7.619   0.225 -2.4614 -0.7757  2.0058
28383SOL     OW87590   1.765   1.490   3.085  0.1096  0.0546  0.2845
28383SOL    HW187591   1.690   1.520   3.034  1.7521  1.3849 -1.4846
28383SOL    HW287592   1.726   1.458   3.167 -2.2690  2.0320  0.0679
28384SOL     OW87593   7.138   6.806   7.302  0.1181 -0.3235  0.2760
28384SOL    HW187594   7.149   6.781   7.394  0.9948  0.7391  0.4821
28384SOL    HW287595   7.048   6.840   7.298  0.4859  0.8059  1.0505
28385SOL     OW87596   4.745   5.077   0.182 -0.0924 -0.1066 -0.4703
28385SOL    HW187597   4.817   5.016   0.201  0.1837  0.1054 -0.8296
28385SOL    HW287598   4.788   5.158   0.155 -0.4231  0.7787  1.4958
28386SOL     OW87599   5.103   4.829   1.819 -0.2273 -0.2979 -0.3908
28386SOL    HW187600   5.087   4.736   1.835  1.0062 -0.3901  0.4490
28386SOL    HW287601   5.075   4.872   1.900  0.3407 -0.0768 -0.3095
28387SOL     OW87602   7.146   4.896   7.089 -0.5472 -0.1961  0.8272
28387SOL    HW187603   7.068   4.952   7.094 -0.1032  0.3502  3.1040
28387SOL    HW287604   7.123   4.820   7.142  0.3185 -0.1993  1.2064
28388SOL     OW87605   0.166   4.249   2.557 -0.1245  0.3650 -0.5357
28388SOL    HW187606   0.103   4.305   2.602 -0.7421 -0.8108  0.1262
28388SOL    HW287607   0.112   4.179   2.519  0.7321 -0.4997 -0.2058
28389SOL     OW87608   1.334   9.626   0.263  0.1824  0.8541  0.1304
28389SOL    HW187609   1.283   9.617   0.183 -0.4591 -1.0861  0.7056
28389SOL    HW287610   1.301   9.557   0.321  0.1498  2.5852  2.3423
28390SOL     OW87611   1.350   7.981   1.865 -0.3125 -0.5916  0.6453
28390SOL    HW187612   1.415   8.031   1.815 -0.9875  0.1025  0.4427
28390SOL    HW287613   1.322   7.911   1.806  1.2467 -1.7578  1.2224
28391SOL     OW87614  10.444   5.291   8.791 -0.2787 -0.0185  0.2205
28391SOL    HW187615  10.424   5.206   8.829 -0.0575 -0.3768 -0.4474
28391SOL    HW287616  10.408   5.286   8.702 -1.1112  0.9251  0.4784
28392SOL     OW87617   8.242   8.973   5.623  0.1916 -0.0614  0.1121
28392SOL    HW187618   8.328   8.986   5.663 -0.0469 -1.6892  1.2215
28392SOL    HW287619   8.180   9.011   5.686 -0.0498 -0.8794  0.3729
28393SOL     OW87620   6.129  10.027   7.572  0.1104  0.7598 -0.0012
28393SOL    HW187621   6.102   9.939   7.598 -1.2317  1.0388 -0.3500
28393SOL    HW287622   6.197  10.051   7.634 -0.1633 -0.1654  0.6753
28394SOL     OW87623   1.902   5.890   2.817  0.0778 -0.4956 -0.3449
28394SOL    HW187624   1.968   5.949   2.854 -2.6374  1.5099  1.7504
28394SOL    HW287625   1.940   5.861   2.734  3.5256  0.5088  0.7153
28395SOL     OW87626   5.748   9.504  10.046  0.2029  0.0234 -0.2038
28395SOL    HW187627   5.794   9.550  10.116  0.0488  0.1501 -0.1863
28395SOL    HW287628   5.698   9.573  10.001 -0.1446 -0.1484 -0.0857
28396SOL     OW87629   9.221   6.441   7.935  0.3448 -0.4870  0.7688
28396SOL    HW187630   9.197   6.533   7.925  0.0194 -0.6430 -0.0215
28396SOL    HW287631   9.227   6.427   8.029  1.1959  0.5409  0.8853
28397SOL     OW87632   5.859   0.015  10.011 -0.4047 -0.0654  0.5801
28397SOL    HW187633   5.870  -0.050   9.942 -0.4397  0.4589  0.0668
28397SOL    HW287634   5.809   0.085   9.969 -2.3513 -0.6868  1.7459
28398SOL     OW87635   2.489   2.479   8.710  0.2636  0.5776  0.2592
28398SOL    HW187636   2.397   2.506   8.710  0.1102  0.3396  2.8827
28398SOL    HW287637   2.536   2.553   8.670 -1.0523  0.6568 -1.1978
28399SOL     OW87638   9.914   0.529   9.200 -0.2284  0.0353 -0.3869
28399SOL    HW187639   9.876   0.530   9.112  0.9925 -0.2461 -0.9318
28399SOL    HW287640   9.907   0.620   9.230  2.4571  0.9475 -2.1877
28400SOL     OW87641   8.398   1.980   6.062  0.2643  0.0451  0.4797
28400SOL    HW187642   8.464   1.973   5.993  1.1441  0.0173  1.2936
28400SOL    HW287643   8.315   1.988   6.016  0.6070 -1.8739 -0.5943
28401SOL     OW87644   6.251   4.541   8.834  0.2252 -0.1038  0.0027
28401SOL    HW187645   6.244   4.449   8.807 -3.1331 -0.0151  0.1281
28401SOL    HW287646   6.237   4.590   8.753  2.6042  0.3741 -0.1744
28402SOL     OW87647   7.112   1.950   8.950  0.2692  0.5438  0.5423
28402SOL    HW187648   7.187   2.010   8.951  1.4774 -0.8077 -1.4384
28402SOL    HW287649   7.146   1.870   8.989 -0.7417  0.4983  1.3629
28403SOL     OW87650   4.583   6.421   7.090  0.3794  0.2762  0.3621
28403SOL    HW187651   4.549   6.372   7.165  0.0896 -0.9915 -0.5716
28403SOL    HW287652   4.667   6.455   7.121  1.2343 -1.9233  0.6735
28404SOL     OW87653   0.683   1.215   6.701  0.1601  0.4177  0.2030
28404SOL    HW187654   0.704   1.307   6.713 -1.2779  0.7484  0.3446
28404SOL    HW287655   0.762   1.168   6.728  0.5023  1.5578  1.2350
28405SOL     OW87656   4.582   3.021   8.861 -0.4874 -0.1627  0.1764
28405SOL    HW187657   4.615   3.081   8.929 -1.5869  1.9086 -1.0200
28405SOL    HW287658   4.496   2.993   8.894 -0.0877 -0.9084  0.6118
28406SOL     OW87659   4.917   1.165   0.907 -0.0875 -0.6208  0.3344
28406SOL    HW187660   4.843   1.109   0.885  0.7353 -1.7981  0.4701
28406SOL    HW287661   4.900   1.193   0.997  0.7985 -2.8997  1.2785
28407SOL     OW87662   6.109   7.996   7.406  0.3978 -0.0448  0.6574
28407SOL    HW187663   6.116   7.910   7.365 -1.2284  0.4789 -0.8138
28407SOL    HW287664   6.125   7.980   7.499  1.2786 -1.7327  0.2474
28408SOL     OW87665   6.889   7.397   6.088 -0.1937  0.5520 -0.3615
28408SOL    HW187666   6.980   7.409   6.115  0.2731  0.6843 -1.8913
28408SOL    HW287667   6.863   7.314   6.128  0.7764  0.2541 -0.3211
28409SOL     OW87668   3.807  10.452   3.876 -0.1956  0.1844 -0.1198
28409SOL    HW187669   3.784  10.526   3.820 -0.9770 -0.2408 -0.3720
28409SOL    HW287670   3.902  10.443   3.866 -0.0193  1.4063  0.2336
28410SOL     OW87671   3.311   1.753   0.496  0.6528 -0.0803 -0.0255
28410SOL    HW187672   3.404   1.744   0.518  1.1333  1.1104 -1.4465
28410SOL    HW287673   3.305   1.837   0.451 -0.4846 -1.6646 -3.0839
28411SOL     OW87674   0.451   8.663   7.793 -0.3601  0.1614 -0.4608
28411SOL    HW187675   0.480   8.598   7.728 -0.1749 -0.4071  0.1858
28411SOL    HW287676   0.471   8.623   7.877 -1.2764  0.5851 -0.0374
28412SOL     OW87677   8.065   2.857   6.519 -0.1229  0.1720  0.0840
28412SOL    HW187678   8.038   2.946   6.495  1.3884  0.3986 -0.9204
28412SOL    HW287679   7.992   2.802   6.489  0.2561  0.7849 -2.1932
28413SOL     OW87680   9.409   8.692   7.702  0.1080  0.2452 -0.2081
28413SOL    HW187681   9.364   8.719   7.782  0.9814 -0.3052  0.4867
28413SOL    HW287682   9.406   8.597   7.703  1.1850  0.1930 -0.1892
28414SOL     OW87683   9.658   0.013   1.611  0.2379  0.6054  0.4485
28414SOL    HW187684   9.675   0.019   1.517 -2.0567 -1.4304 -0.1968
28414SOL    HW287685   9.714  -0.060   1.640 -1.4974 -1.0109 -0.0991
28415SOL     OW87686   6.991   5.639   0.149 -0.3055  0.0098  0.2025
28415SOL    HW187687   6.942   5.646   0.231  0.9905  1.8557  0.8762
28415SOL    HW287688   6.961   5.714   0.097 -1.1246 -1.1530 -1.0506
28416SOL     OW87689   4.865   9.037   5.539  0.1442 -0.2153 -0.2583
28416SOL    HW187690   4.904   9.111   5.585 -0.9456  1.8221 -2.3490
28416SOL    HW287691   4.939   8.981   5.517  1.2414  1.0141  0.1219
28417SOL     OW87692   7.956   7.193   3.001 -0.0353 -0.2642  0.0779
28417SOL    HW187693   8.022   7.207   3.069  0.3448 -0.7503 -0.1856
28417SOL    HW287694   7.955   7.099   2.987  0.2400 -0.1361 -0.9161
28418SOL     OW87695   3.249   0.585   5.975  0.2148  0.0383  0.1351
28418SOL    HW187696   3.270   0.519   5.909  0.4920  1.7534 -1.5795
28418SOL    HW287697   3.221   0.534   6.051  0.2961 -2.0394 -1.1331
28419SOL     OW87698   6.282   9.959   3.351  0.0721  0.2963  0.4631
28419SOL    HW187699   6.276   9.886   3.291 -0.7571  0.4426  0.3549
28419SOL    HW287700   6.269  10.037   3.296 -1.8148  0.3863  0.9404
28420SOL     OW87701   9.422   7.502   9.476 -0.5173  0.3416  0.5429
28420SOL    HW187702   9.444   7.585   9.434 -0.5936  0.4777  0.7693
28420SOL    HW287703   9.504   7.453   9.480 -0.1997  0.9376  1.5963
28421SOL     OW87704   1.920   3.545   4.531 -0.1190  0.2595 -0.0020
28421SOL    HW187705   1.945   3.606   4.461 -1.4400  1.0393  0.1816
28421SOL    HW287706   1.878   3.472   4.485 -2.0226  1.2911 -0.0054
28422SOL     OW87707   3.860   5.625   1.581 -0.0541  0.5950 -0.3534
28422SOL    HW187708   3.941   5.622   1.632  0.0280 -0.7669 -0.5399
28422SOL    HW287709   3.791   5.618   1.646  0.0571 -1.5568 -0.4123
28423SOL     OW87710   2.187   1.836   7.426 -0.9486 -0.2406  0.2680
28423SOL    HW187711   2.236   1.903   7.474  0.4170 -1.2167  0.2739
28423SOL    HW287712   2.233   1.827   7.343 -0.8167 -1.4939  0.4515
28424SOL     OW87713   7.159   1.889   7.317  0.1580  0.4230  0.2703
28424SOL    HW187714   7.133   1.933   7.399 -0.9906 -0.3648  0.3559
28424SOL    HW287715   7.102   1.929   7.251 -1.8625 -1.7794  0.5597
28425SOL     OW87716   4.751   1.757   9.766  0.4334 -0.1215 -0.0224
28425SOL    HW187717   4.708   1.815   9.830  0.3870 -0.1803 -0.0003
28425SOL    HW287718   4.779   1.816   9.696  2.8600  0.3798  1.2440
28426SOL     OW87719   0.773   7.134   4.736  0.5687 -0.2550 -0.1326
28426SOL    HW187720   0.824   7.113   4.658  1.5455  1.3573  0.0114
28426SOL    HW287721   0.836   7.175   4.795 -0.9267  2.2735 -0.1359
28427SOL     OW87722   4.272   4.049   5.785 -0.2526  0.4835 -0.3053
28427SOL    HW187723   4.234   4.083   5.704 -2.1511  0.0273  0.3427
28427SOL    HW287724   4.211   3.982   5.814  0.8651  0.0007  1.0537
28428SOL     OW87725   1.661   4.392   0.332  0.3617 -0.1133  0.2756
28428SOL    HW187726   1.612   4.315   0.361 -0.0044  1.1811  3.5284
28428SOL    HW287727   1.625   4.412   0.246  0.3281 -3.3612 -0.5979
28429SOL     OW87728   7.987   7.069   0.778  0.1665  0.7719  0.6587
28429SOL    HW187729   8.032   7.056   0.695  0.8397  0.0438  1.1247
28429SOL    HW287730   7.986   7.164   0.790  1.0366  0.8309  0.3383
28430SOL     OW87731   6.137   2.194   7.440 -0.0050 -0.8007 -0.2545
28430SOL    HW187732   6.182   2.256   7.382 -2.0594  1.3108  0.2292
28430SOL    HW287733   6.056   2.240   7.465 -0.3815 -2.6606  2.2756
28431SOL     OW87734   5.735   7.384   5.101  0.1035 -0.4170 -0.1506
28431SOL    HW187735   5.723   7.425   5.187 -0.6510  0.3717 -0.6240
28431SOL    HW287736   5.801   7.316   5.117 -1.0437 -1.2511  1.3591
28432SOL     OW87737   0.145  10.357   8.969  0.1130  0.0128 -0.1440
28432SOL    HW187738   0.078  10.422   8.948 -0.1070 -0.5047 -1.0885
28432SOL    HW287739   0.170  10.320   8.884  2.9345  1.4860 -0.0728
28433SOL     OW87740   3.206   1.064   9.406  0.3983 -0.3626 -0.6791
28433SOL    HW187741   3.263   1.004   9.453 -0.3782 -0.8916 -0.3951
28433SOL    HW287742   3.233   1.151   9.436 -1.9668 -0.7152  3.0651
28434SOL     OW87743   7.548   7.048   2.188  0.2793 -0.0075  0.1267
28434SOL    HW187744   7.586   7.095   2.262  1.0804  0.9632 -0.8522
28434SOL    HW287745   7.620   6.998   2.151  0.7625  1.9272 -1.8077
28435SOL     OW87746   3.747   8.626   3.096 -0.8831  0.0020  0.0503
28435SOL    HW187747   3.660   8.624   3.135 -0.2219  2.4534  1.9182
28435SOL    HW287748   3.797   8.560   3.146 -1.0872  0.2386  0.5726
28436SOL     OW87749   2.741   8.544   2.840 -0.3897 -0.0064 -0.4331
28436SOL    HW187750   2.732   8.630   2.880  1.4246  1.1174 -2.2522
28436SOL    HW287751   2.795   8.494   2.903  0.0262  0.7727 -0.1568
28437SOL     OW87752   1.150   4.889   1.890 -0.2507  0.4658  0.1037
28437SOL    HW187753   1.135   4.799   1.921 -0.3484  0.9135  1.3871
28437SOL    HW287754   1.227   4.881   1.833  1.6280  0.0084  2.5490
28438SOL     OW87755   5.686   0.068   6.536 -0.0104 -0.2771  0.3399
28438SOL    HW187756   5.696   0.097   6.627 -2.0460  0.8901  0.2536
28438SOL    HW287757   5.754   0.002   6.525  2.0917  1.4657  1.8785
28439SOL     OW87758   4.185   0.168   3.299  0.5937 -0.2506  0.0617
28439SOL    HW187759   4.230   0.134   3.222  0.5302 -0.5352  0.1492
28439SOL    HW287760   4.095   0.136   3.290  0.2208  0.8820 -0.4716
28440SOL     OW87761   0.653   2.538   6.327  0.4006  0.1334 -0.3138
28440SOL    HW187762   0.628   2.602   6.393  0.9078  0.8065 -0.7571
28440SOL    HW287763   0.590   2.550   6.256 -0.4352 -0.9143  0.2252
28441SOL     OW87764   1.558   0.735   9.362  0.0849 -1.0027  0.7208
28441SOL    HW187765   1.574   0.691   9.279 -1.5361 -0.8859  0.3092
28441SOL    HW287766   1.642   0.732   9.408  1.3130 -0.1278 -1.3536
28442SOL     OW87767   6.191   9.076   7.156  0.2016  0.3161  0.4171
28442SOL    HW187768   6.272   9.095   7.109 -0.3417 -2.4196 -1.9162
28442SOL    HW287769   6.123   9.079   7.088 -1.2042 -0.3151  1.7437
28443SOL     OW87770   2.071   3.523   2.493  1.3989  0.2118 -0.4655
28443SOL    HW187771   2.072   3.580   2.416 -0.0179 -1.1084 -1.5141
28443SOL    HW287772   2.133   3.453   2.473  1.0218 -0.1424 -0.4240
28444SOL     OW87773   9.744   5.650   8.614 -0.4074  0.1548 -0.1887
28444SOL    HW187774   9.760   5.680   8.524  0.1141  0.0766 -0.1206
28444SOL    HW287775   9.673   5.707   8.645 -1.9280 -1.0584 -1.2856
28445SOL     OW87776   2.075   9.822   9.356 -0.2348  0.7092  0.3576
28445SOL    HW187777   2.116   9.777   9.430 -0.7121 -0.8442 -0.2819
28445SOL    HW287778   1.985   9.790   9.355  0.3133 -1.0632 -2.1603
28446SOL     OW87779   8.154   6.538  10.160 -0.2748  0.1638 -0.4900
28446SOL    HW187780   8.219   6.484  10.205  0.9463  1.0296 -1.1466
28446SOL    HW287781   8.106   6.476  10.105  0.7008 -0.3709 -0.7745
28447SOL     OW87782   2.183   3.873   5.815 -0.3794  0.0852 -0.6117
28447SOL    HW187783   2.269   3.866   5.775 -0.7191 -0.2915 -1.2924
28447SOL    HW287784   2.176   3.964   5.844  0.1242  0.1910 -0.8247
28448SOL     OW87785   2.947   2.165   1.482  0.2687 -0.1697  0.4026
28448SOL    HW187786   2.915   2.088   1.529 -1.4023 -1.1263 -2.0902
28448SOL    HW287787   2.889   2.236   1.509 -0.5732 -0.6754 -0.0140
28449SOL     OW87788   0.305   6.631   1.477 -0.1800 -0.5707 -0.1172
28449SOL    HW187789   0.212   6.611   1.469  0.1596 -1.6463 -1.8663
28449SOL    HW287790   0.348   6.545   1.472  0.9602  0.0132 -0.5305
28450SOL     OW87791   4.934   6.242   9.696 -0.8987 -0.2260  0.2131
28450SOL    HW187792   5.024   6.225   9.668 -1.2093 -2.6288  0.5238
28450SOL    HW287793   4.942   6.310   9.763  1.2668 -3.4518  3.5439
28451SOL     OW87794   8.810   8.529   7.342 -0.0906 -0.3304  0.3323
28451SOL    HW187795   8.801   8.516   7.436 -2.1416  0.1700  0.2411
28451SOL    HW287796   8.747   8.469   7.303  0.2036  0.0068 -0.6921
28452SOL     OW87797   8.667   1.032   8.085  0.1966 -0.2112  0.0637
28452SOL    HW187798   8.762   1.044   8.075  0.0144  0.4554 -1.0150
28452SOL    HW287799   8.637   1.008   7.997 -0.7733  0.6026  0.1547
28453SOL     OW87800   7.845   0.252   7.752 -0.1805 -0.2820 -0.3655
28453SOL    HW187801   7.799   0.283   7.829  1.0017  0.1064  0.2102
28453SOL    HW287802   7.937   0.273   7.768  0.6070 -3.2584 -0.3306
28454SOL     OW87803   5.939   9.372   4.767  0.0027 -0.3478  0.0939
28454SOL    HW187804   5.906   9.414   4.847 -1.0606  0.9141 -0.9603
28454SOL    HW287805   5.899   9.285   4.768 -1.9977  0.5094 -0.2416
28455SOL     OW87806   0.932   7.991   6.943  0.1040 -0.7249  0.3531
28455SOL    HW187807   0.988   8.069   6.944 -0.2640 -0.4246 -1.0762
28455SOL    HW287808   0.916   7.974   6.850 -1.5064 -1.2947  0.7129
28456SOL     OW87809   5.472   2.577   0.422  0.1427 -0.2221  0.8954
28456SOL    HW187810   5.399   2.589   0.483  0.0148  0.5147  0.6076
28456SOL    HW287811   5.550   2.593   0.475  0.1102 -1.0883  1.2232
28457SOL     OW87812   7.595   1.947   9.859  0.2344  0.1513 -0.2579
28457SOL    HW187813   7.598   1.896   9.941 -0.6569  0.0928 -0.2584
28457SOL    HW287814   7.668   1.913   9.808  0.9505  0.3496  0.6061
28458SOL     OW87815   5.557  10.402   6.767  0.2823  0.2632 -0.6392
28458SOL    HW187816   5.645  10.413   6.802  0.6562 -0.2663 -1.3715
28458SOL    HW287817   5.555  10.311   6.736 -1.0441 -0.2231  0.7695
28459SOL     OW87818   3.827   7.057   5.390  0.6477 -0.4975  0.1166
28459SOL    HW187819   3.738   7.032   5.417  0.2064  0.6970 -0.1856
28459SOL    HW287820   3.867   7.092   5.469  0.7912 -0.8675  0.2092
28460SOL     OW87821   5.060   8.445   0.952 -0.3501  0.1576  0.2796
28460SOL    HW187822   5.073   8.504   0.878 -1.0258 -1.1893 -0.9562
28460SOL    HW287823   4.975   8.404   0.936 -0.2053 -0.6585  1.4575
28461SOL     OW87824   5.371   8.459   2.663 -0.0918  0.3049 -0.2847
28461SOL    HW187825   5.382   8.385   2.722  1.1547  2.4553  2.3990
28461SOL    HW287826   5.432   8.526   2.696 -1.5887  2.7727 -2.1265
28462SOL     OW87827   6.793   7.141   2.044 -0.2914  0.1170  0.7222
28462SOL    HW187828   6.811   7.196   1.968 -0.9587  0.9188  1.1338
28462SOL    HW287829   6.705   7.106   2.028  0.0094 -0.6071  0.6021
28463SOL     OW87830   0.847   8.149   5.169 -1.1551 -1.0392  0.1212
28463SOL    HW187831   0.929   8.101   5.154 -1.1394 -0.4056 -2.3036
28463SOL    HW287832   0.815   8.169   5.081 -2.8219  0.6179  1.0343
28464SOL     OW87833   4.535   8.677   7.528 -0.0953 -0.1677  0.5487
28464SOL    HW187834   4.523   8.590   7.489 -2.9938  0.2918  0.1882
28464SOL    HW287835   4.449   8.700   7.561  0.7063  2.4263  1.0089
28465SOL     OW87836   8.312   5.068  10.444  0.4072  0.1693  0.3261
28465SOL    HW187837   8.373   5.052  10.372  0.0080 -0.1296  0.0461
28465SOL    HW287838   8.362   5.047  10.523  0.1185 -1.9340  0.0100
28466SOL     OW87839   9.358   9.403   9.063  0.3279  0.3716 -0.0587
28466SOL    HW187840   9.416   9.335   9.030  0.4346  0.4618 -0.0564
28466SOL    HW287841   9.307   9.431   8.986 -0.7705 -0.7504  0.2332
28467SOL     OW87842   8.561   7.956   2.424 -0.1344  0.4845  0.0133
28467SOL    HW187843   8.583   8.028   2.483  0.2988  0.5223 -0.1968
28467SOL    HW287844   8.484   7.987   2.377  0.0794  0.8305 -0.1102
28468SOL     OW87845   6.808   6.071   5.838 -0.0684  0.8278 -0.0200
28468SOL    HW187846   6.771   6.010   5.901  0.8846  0.8933  0.6183
28468SOL    HW287847   6.896   6.038   5.820  0.0119  1.3295 -0.6096
28469SOL     OW87848   7.398   6.092   0.927  0.4090 -0.7643 -0.3898
28469SOL    HW187849   7.361   6.179   0.939  0.6558 -0.9535  2.1998
28469SOL    HW287850   7.323   6.033   0.934  0.6641 -0.9293  1.2662
28470SOL     OW87851   4.988   2.701   0.215 -0.4735  0.7551 -0.3206
28470SOL    HW187852   4.893   2.696   0.208 -0.4370 -0.9576  0.0373
28470SOL    HW287853   5.018   2.613   0.191  0.9145  0.8073  1.1325
28471SOL     OW87854   6.896   4.030   8.025 -0.2801 -0.9388 -0.1709
28471SOL    HW187855   6.923   4.071   8.107 -1.0176 -0.3449 -0.2070
28471SOL    HW287856   6.834   3.962   8.052 -1.2973 -0.0871 -0.2677
28472SOL     OW87857   7.259   2.576   6.377 -0.0540  0.2491 -0.4771
28472SOL    HW187858   7.330   2.640   6.372  0.8606 -0.8194 -1.9743
28472SOL    HW287859   7.232   2.577   6.469  0.5619  2.0770 -0.2799
28473SOL     OW87860   6.503   2.417   3.728  0.4096  0.0517 -0.0802
28473SOL    HW187861   6.570   2.428   3.795  2.0666  1.9930 -1.9033
28473SOL    HW287862   6.545   2.363   3.661 -0.5298 -0.2552 -0.4305
28474SOL     OW87863   3.736   4.024  10.124 -0.8533 -0.0870  0.1415
28474SOL    HW187864   3.738   3.928  10.117 -2.0528 -0.2450  1.4771
28474SOL    HW287865   3.659   4.042  10.178  0.0663  1.5860  0.9512
28475SOL     OW87866   5.130   7.424   0.357 -0.1767 -0.5661  0.1085
28475SOL    HW187867   5.070   7.483   0.312 -1.5520 -0.1733  2.2921
28475SOL    HW287868   5.105   7.337   0.326 -0.5551 -0.2622 -0.4588
28476SOL     OW87869   5.389   0.038   8.689  0.2327 -0.0663 -0.2107
28476SOL    HW187870   5.394   0.096   8.613  0.7592 -1.0296 -0.9425
28476SOL    HW287871   5.468   0.057   8.740 -0.6743  1.3887  0.7419
28477SOL     OW87872   9.652   8.611   3.016  0.0218 -0.1544  0.2358
28477SOL    HW187873   9.561   8.641   3.012  0.1699  0.5936  1.7682
28477SOL    HW287874   9.700   8.672   2.960 -0.2948 -0.0301  0.0956
28478SOL     OW87875   5.363   7.736   3.992  0.4401  0.4870 -0.2080
28478SOL    HW187876   5.389   7.771   3.907  0.0660 -1.1855 -1.0545
28478SOL    HW287877   5.270   7.713   3.981  0.2545  0.6918  0.8087
28479SOL     OW87878   8.372   7.090   2.604 -0.4645  0.7554  0.0304
28479SOL    HW187879   8.399   7.007   2.564 -1.3713 -0.0680  1.0590
28479SOL    HW287880   8.452   7.125   2.643 -0.2900 -0.2299  0.5958
28480SOL     OW87881   4.804   8.609   5.807 -0.4381  0.0121 -0.0370
28480SOL    HW187882   4.814   8.674   5.737 -0.6743  0.6230  0.4841
28480SOL    HW287883   4.852   8.533   5.776 -1.5412 -0.1662 -1.3981
28481SOL     OW87884   3.305   1.807   0.165 -0.1378 -0.0140 -0.0725
28481SOL    HW187885   3.323   1.891   0.207 -0.4357 -0.8460  1.8328
28481SOL    HW287886   3.237   1.767   0.220  0.9862 -2.0923 -0.1005
28482SOL     OW87887   7.989   1.774   8.715 -0.0672 -0.4005  0.2169
28482SOL    HW187888   8.029   1.690   8.739  0.8555 -0.3555 -1.0232
28482SOL    HW287889   8.020   1.835   8.781  0.9833 -0.6247 -0.0362
28483SOL     OW87890   4.587   0.110   0.308  0.3905 -0.3672  0.4710
28483SOL    HW187891   4.515   0.155   0.353 -0.0561  1.0549 -1.5498
28483SOL    HW287892   4.545   0.061   0.238  1.2530 -0.8113  0.2498
28484SOL     OW87893   4.720   7.247   1.617 -0.5100  0.0557  0.0178
28484SOL    HW187894   4.713   7.325   1.672 -0.0064  0.5512 -0.6037
28484SOL    HW287895   4.638   7.199   1.632 -0.9760  0.8765  0.1397
28485SOL     OW87896   4.195   9.337   4.651  0.3654  0.5165  0.5704
28485SOL    HW187897   4.102   9.353   4.637  0.3677  0.9641  1.0060
28485SOL    HW287898   4.203   9.326   4.746  0.7032  0.1139  0.4958
28486SOL     OW87899   6.328   3.560   7.129  0.3327 -0.1468 -0.0783
28486SOL    HW187900   6.421   3.557   7.108  0.0613 -0.7447 -1.2652
28486SOL    HW287901   6.319   3.636   7.188  1.5346 -0.0075 -0.0555
28487SOL     OW87902   5.655   7.836   7.920  0.5514 -0.2554  0.9029
28487SOL    HW187903   5.703   7.914   7.892  0.7097 -0.6175  0.1478
28487SOL    HW287904   5.661   7.837   8.016 -0.1785  1.1142  0.9630
28488SOL     OW87905   9.565   5.182   5.031 -0.3177 -0.5413 -0.8084
28488SOL    HW187906   9.515   5.219   4.959 -0.9136  2.6299  1.0296
28488SOL    HW287907   9.656   5.189   5.003 -0.5494  0.4268 -1.3849
28489SOL     OW87908   9.997   5.888   6.570  0.3418 -0.2638 -0.4541
28489SOL    HW187909  10.008   5.800   6.535  0.2851  0.1472 -1.5279
28489SOL    HW287910   9.983   5.874   6.664 -0.6086 -1.4569 -0.7455
28490SOL     OW87911   0.464   4.194   9.794  0.4371 -0.3372 -0.5284
28490SOL    HW187912   0.442   4.223   9.883 -0.1378 -2.6394  0.1651
28490SOL    HW287913   0.409   4.247   9.737 -0.8317 -0.3132  0.6657
28491SOL     OW87914   2.795   8.708   0.710 -0.4149 -0.3455  0.1549
28491SOL    HW187915   2.876   8.658   0.697 -0.2451  0.1293 -0.6604
28491SOL    HW287916   2.818   8.798   0.686 -1.4060 -0.3632 -0.9328
28492SOL     OW87917   2.147   4.819   0.474 -0.1510 -0.2614  0.2978
28492SOL    HW187918   2.134   4.813   0.379 -1.1722 -0.9911  0.4715
28492SOL    HW287919   2.210   4.890   0.485  2.0268 -1.8563 -1.0887
28493SOL     OW87920   6.819   1.800   7.946 -0.3105  0.1018  0.0266
28493SOL    HW187921   6.890   1.794   7.882  0.5031  1.0093  0.8185
28493SOL    HW287922   6.769   1.877   7.919  0.4158  0.8794  0.8244
28494SOL     OW87923   5.909   5.783   0.981  0.3689  0.1361  0.0632
28494SOL    HW187924   5.992   5.781   1.029  0.8110 -1.1575 -0.7113
28494SOL    HW287925   5.930   5.827   0.899 -0.0214  0.9373  0.3826
28495SOL     OW87926   0.446   0.785   9.795  0.2120 -0.2363 -0.3144
28495SOL    HW187927   0.406   0.854   9.848  0.7361  0.4856 -0.8291
28495SOL    HW287928   0.498   0.734   9.856  0.2842  0.1821 -0.0272
28496SOL     OW87929   8.425   3.146   4.942 -0.3490 -0.0999  0.3257
28496SOL    HW187930   8.471   3.081   4.996 -3.2232  0.4188  3.7983
28496SOL    HW287931   8.368   3.094   4.885  0.9028 -0.6349 -0.4700
28497SOL     OW87932   5.196   3.673   6.392  0.0810  0.2587  0.3905
28497SOL    HW187933   5.238   3.596   6.354 -1.1066  0.0597 -0.5901
28497SOL    HW287934   5.191   3.736   6.320 -0.4046  0.6364  0.7430
28498SOL     OW87935  10.313   6.663   0.112  0.4930 -0.0510 -0.6715
28498SOL    HW187936  10.371   6.720   0.161 -0.4611  0.9947 -0.7113
28498SOL    HW287937  10.236   6.652   0.169  0.7993 -1.5916 -0.5178
28499SOL     OW87938   5.616   4.165   7.888 -0.2162 -0.5486 -0.8587
28499SOL    HW187939   5.582   4.114   7.962 -1.1096  1.3260  0.0772
28499SOL    HW287940   5.539   4.188   7.837 -0.0876  1.4816 -0.1942
28500SOL     OW87941   2.553   7.202   4.963  0.3711  0.0278 -0.4430
28500SOL    HW187942   2.484   7.152   4.919  1.0220  0.4070 -1.9793
28500SOL    HW287943   2.507   7.277   5.002 -0.2889 -0.5352 -0.1305
28501SOL     OW87944   0.489   7.983   4.074 -0.0849  0.0508 -0.2601
28501SOL    HW187945   0.415   7.986   4.133 -0.3201  0.2123 -0.5603
28501SOL    HW287946   0.466   7.917   4.009 -0.2524  0.5633 -0.7271
28502SOL     OW87947   5.138   7.036   2.308  0.0207 -0.6439  0.4360
28502SOL    HW187948   5.157   7.017   2.399 -1.1091 -0.3933  0.7466
28502SOL    HW287949   5.047   7.007   2.296 -0.1586  0.1924 -0.3459
28503SOL     OW87950   5.363   5.263   2.727  1.0877  0.1098  0.1462
28503SOL    HW187951   5.429   5.198   2.703 -0.6850 -1.9286  0.4330
28503SOL    HW287952   5.295   5.212   2.771  0.2831  2.4287  1.7906
28504SOL     OW87953   2.899   3.439   8.936  0.0021 -0.1738  0.0724
28504SOL    HW187954   2.847   3.408   8.861 -1.4307 -1.3432  1.4579
28504SOL    HW287955   2.989   3.416   8.915 -0.5685 -1.8741 -0.6504
28505SOL     OW87956   0.082   6.198   0.667  0.2892  0.1847 -0.1317
28505SOL    HW187957   0.125   6.279   0.697  1.7735 -0.3671 -0.6847
28505SOL    HW287958   0.009   6.187   0.727  0.5204  1.5217  0.4482
28506SOL     OW87959  10.342  10.291   8.545  0.0593 -0.0328 -0.2229
28506SOL    HW187960  10.290  10.215   8.574 -0.1295 -0.6160 -1.9524
28506SOL    HW287961  10.278  10.362   8.537 -0.1606 -0.2653 -0.5960
28507SOL     OW87962   3.886   4.482   3.892 -0.2576  0.2507  0.2956
28507SOL    HW187963   3.903   4.496   3.985 -0.0122  1.7769  0.0445
28507SOL    HW287964   3.814   4.419   3.890  0.1449 -0.2815  1.4961
28508SOL     OW87965   5.507   1.253   2.003  0.9822 -0.2943 -0.5318
28508SOL    HW187966   5.525   1.333   1.953 -1.2804 -0.6510 -2.0771
28508SOL    HW287967   5.543   1.183   1.950 -0.2805 -0.5695 -1.0587
28509SOL     OW87968   6.883   3.654   0.293 -0.6312  0.2901  0.1827
28509SOL    HW187969   6.970   3.664   0.255 -0.4923  0.6165  0.5726
28509SOL    HW287970   6.826   3.703   0.234 -0.2566  1.7162  0.9636
28510SOL     OW87971   9.442   0.303   6.910 -0.1148  0.4029  0.2957
28510SOL    HW187972   9.511   0.308   6.843 -0.0935  2.1434  0.4071
28510SOL    HW287973   9.444   0.212   6.940 -1.3331 -1.0362 -3.3404
28511SOL     OW87974   0.509   1.941   8.117 -0.3197 -0.4471 -0.3737
28511SOL    HW187975   0.518   1.849   8.139  1.3012 -0.4489 -0.9130
28511SOL    HW287976   0.538   1.947   8.026  1.5191  0.8612  0.2336
28512SOL     OW87977   6.025   4.902   5.888  0.1288  0.0091 -0.0561
28512SOL    HW187978   6.042   4.992   5.918  0.8470 -0.3112  0.5301
28512SOL    HW287979   5.938   4.906   5.848  0.4810  1.1462 -0.7584
28513SOL     OW87980  10.061   0.415   4.524  0.5330 -0.8102 -0.5425
28513SOL    HW187981  10.014   0.446   4.601  0.8603  1.6637 -1.2739
28513SOL    HW287982   9.996   0.414   4.455  1.1021  1.0486 -1.1694
28514SOL     OW87983   4.416   6.884   6.605 -0.0374  0.0108  0.0886
28514SOL    HW187984   4.420   6.939   6.683 -0.7501  0.2167 -0.0170
28514SOL    HW287985   4.499   6.837   6.606 -0.7232 -1.2978  1.9356
28515SOL     OW87986   5.122   8.369  10.092 -0.6154 -0.3288 -0.6192
28515SOL    HW187987   5.028   8.389  10.092 -0.5641 -0.0414  0.2630
28515SOL    HW287988   5.138   8.328  10.007 -1.1827  1.2691 -1.5489
28516SOL     OW87989   1.970   5.235   5.025  0.1459  0.0859 -0.1919
28516SOL    HW187990   2.053   5.273   4.994 -0.5089  0.4900 -1.5167
28516SOL    HW287991   1.904   5.301   5.004 -0.5724 -0.3934  0.5037
28517SOL     OW87992   5.137  10.136   3.351 -0.0793 -0.5508 -0.1626
28517SOL    HW187993   5.202  10.112   3.285  1.8596  0.2525  1.3455
28517SOL    HW287994   5.093  10.054   3.373 -0.3947 -0.9159 -2.0338
28518SOL     OW87995   6.791   2.502   7.570  0.4556  0.0548 -0.5670
28518SOL    HW187996   6.744   2.559   7.510 -1.2254  0.1033  0.7425
28518SOL    HW287997   6.763   2.529   7.658  0.7189 -1.7908  0.1463
28519SOL     OW87998   0.206   7.587   1.036 -0.4137  0.5019  0.3369
28519SOL    HW187999   0.216   7.501   0.997  1.1689  0.9472 -0.3126
28519SOL    HW288000   0.116   7.588   1.070 -0.5820 -1.2386  0.0157
28520SOL     OW88001   2.078   4.591   5.964  0.6665 -0.3797 -0.0549
28520SOL    HW188002   2.165   4.551   5.968  0.4078 -0.8417  1.5588
28520SOL    HW288003   2.038   4.570   6.048 -1.0066 -0.1553 -0.7486
28521SOL     OW88004   5.640   1.962   4.326  0.6130  0.3232  0.0459
28521SOL    HW188005   5.702   1.897   4.359 -0.3574 -0.1614  0.9827
28521SOL    HW288006   5.624   2.020   4.401  0.4883  0.8812 -0.4044
28522SOL     OW88007   6.325   6.866   6.090 -0.4759 -0.6706  0.1754
28522SOL    HW188008   6.415   6.884   6.060  0.0392  0.7697  2.3247
28522SOL    HW288009   6.274   6.939   6.056 -0.1666  0.2216  1.5767
28523SOL     OW88010   0.643   5.875   1.904 -0.2558  0.0220 -0.0488
28523SOL    HW188011   0.685   5.789   1.909  1.2360  0.7678  1.2044
28523SOL    HW288012   0.658   5.903   1.814  0.0024 -0.6707 -0.2333
28524SOL     OW88013   0.108   6.011   9.705 -0.1996 -0.2531 -0.3210
28524SOL    HW188014   0.065   5.961   9.636 -1.3719 -0.8197  0.7547
28524SOL    HW288015   0.176   6.061   9.661 -0.6094 -0.9465 -1.7953
28525SOL     OW88016   8.024   2.829   4.798 -0.1188 -0.0008  0.5575
28525SOL    HW188017   8.001   2.857   4.709 -0.1903  0.3712  0.6905
28525SOL    HW288018   7.944   2.841   4.848 -0.1362 -0.4132  0.6253
28526SOL     OW88019  10.322   7.673   1.586 -0.1700 -0.3758  0.8446
28526SOL    HW188020  10.405   7.703   1.549 -0.5518  0.7704  0.8790
28526SOL    HW288021  10.344   7.594   1.634  0.6315 -0.9626 -0.4497
28527SOL     OW88022   0.789   7.533   1.383 -0.2792 -0.3575 -0.2296
28527SOL    HW188023   0.826   7.621   1.391  0.3728 -0.4984 -1.5268
28527SOL    HW288024   0.743   7.520   1.466 -3.4947  2.5845 -1.3002
28528SOL     OW88025   1.338   3.028   5.343 -0.0183  0.2067 -0.0221
28528SOL    HW188026   1.395   3.102   5.322 -0.7255  0.7159 -0.2089
28528SOL    HW288027   1.346   3.018   5.438  0.0694  0.5377  0.0080
28529SOL     OW88028   1.835   5.840   3.399  0.3407 -0.4225  0.2010
28529SOL    HW188029   1.800   5.787   3.328 -0.6492 -1.9079  1.7451
28529SOL    HW288030   1.836   5.782   3.475  2.4329  0.7680  1.1839
28530SOL     OW88031   1.487   0.991   3.297  0.6259  0.4779 -0.0116
28530SOL    HW188032   1.395   1.001   3.320  0.3432  0.2785 -1.0185
28530SOL    HW288033   1.507   0.899   3.314  0.2889  0.2146 -0.9451
28531SOL     OW88034   9.110   9.710   6.651 -0.1538 -0.5029 -0.2633
28531SOL    HW188035   9.145   9.799   6.661 -1.3956  0.0347 -0.5068
28531SOL    HW288036   9.188   9.654   6.648  0.6745  0.6279 -0.6410
28532SOL     OW88037   7.998   8.504   9.500 -0.2422 -0.1635 -0.2386
28532SOL    HW188038   8.088   8.472   9.508 -0.0483  0.2594 -0.6374
28532SOL    HW288039   7.989   8.568   9.570  0.1505  0.6366 -0.9039
28533SOL     OW88040   1.804   8.309   7.149  0.1432 -0.4263  0.0737
28533SOL    HW188041   1.774   8.393   7.183  2.1119  0.0114  0.8742
28533SOL    HW288042   1.724   8.265   7.120 -0.9702  1.5972 -0.1384
28534SOL     OW88043   1.029   1.993   1.285  0.9632 -0.6285 -0.1699
28534SOL    HW188044   0.982   1.953   1.358  2.0791  1.4358  1.8049
28534SOL    HW288045   1.122   1.982   1.308  1.3283  1.8159 -0.1748
28535SOL     OW88046   0.011  10.191   0.122 -0.0233 -0.3701  0.0266
28535SOL    HW188047  -0.003  10.215   0.030  1.7428  0.4310 -0.0713
28535SOL    HW288048  -0.068  10.142   0.146 -2.6594  3.1992 -0.5613
28536SOL     OW88049   1.045   3.796   5.262 -0.1726 -0.7815  0.5301
28536SOL    HW188050   0.983   3.737   5.219  0.9812 -0.8922 -1.0603
28536SOL    HW288051   1.128   3.747   5.263 -0.3438 -1.2995  4.0500
28537SOL     OW88052   0.537   6.633   8.765  0.2350  0.1267 -0.1266
28537SOL    HW188053   0.514   6.725   8.777 -1.6128 -0.1021 -1.5907
28537SOL    HW288054   0.627   6.627   8.798 -0.5662  1.8101  2.7128
28538SOL     OW88055   4.005   1.279   2.068 -0.7051 -0.1374  0.3924
28538SOL    HW188056   4.012   1.261   1.974  0.7275 -2.3021  0.8269
28538SOL    HW288057   4.088   1.321   2.091 -0.6530 -0.4580  0.8158
28539SOL     OW88058   1.796   3.706   6.812 -0.0769 -0.1097  0.2530
28539SOL    HW188059   1.707   3.687   6.781 -0.4602  0.0006  1.2334
28539SOL    HW288060   1.791   3.694   6.907  0.1764  2.7648  0.7378
28540SOL     OW88061   7.914   8.816   7.259 -0.1954  0.2098  0.2137
28540SOL    HW188062   7.952   8.739   7.216  0.5660  0.9210 -0.4221
28540SOL    HW288063   7.985   8.851   7.313 -0.3367  0.8141  0.0169
28541SOL     OW88064   2.302   4.693   0.990  0.5910 -0.0207 -0.0740
28541SOL    HW188065   2.337   4.615   0.948  1.3511  0.3209 -0.0902
28541SOL    HW288066   2.262   4.743   0.919  1.4073  0.3003 -0.3278
28542SOL     OW88067   2.719   3.421  10.421 -0.7803 -0.1388  0.0188
28542SOL    HW188068   2.804   3.445  10.459 -1.6573 -0.9829  2.6902
28542SOL    HW288069   2.735   3.337  10.378 -0.2100 -0.1650  0.2693
28543SOL     OW88070   5.291   8.618   5.490 -0.5344 -0.0947  0.4601
28543SOL    HW188071   5.300   8.523   5.496  0.4668 -0.1506 -1.2088
28543SOL    HW288072   5.198   8.632   5.474 -0.4621 -0.9160 -0.8146
28544SOL     OW88073   2.862  10.173   9.639  0.0987  0.2954  0.6372
28544SOL    HW188074   2.916  10.137   9.710  2.3037  0.9254 -0.5970
28544SOL    HW288075   2.842  10.097   9.584 -1.1275 -0.1005  1.5994
28545SOL     OW88076   8.597   4.984   7.256 -0.1586  0.0781  0.1388
28545SOL    HW188077   8.650   4.917   7.214  2.1340  0.0647  2.7255
28545SOL    HW288078   8.531   4.936   7.305 -0.8882 -0.0543 -0.9512
28546SOL     OW88079   1.560   5.754   0.754  0.4325 -0.0542 -0.4613
28546SOL    HW188080   1.496   5.684   0.735 -1.2905  1.3546 -0.1230
28546SOL    HW288081   1.632   5.709   0.798 -1.4407 -1.3957  1.4697
28547SOL     OW88082   6.937   0.364   3.192  0.2981 -0.1564  0.2764
28547SOL    HW188083   6.884   0.443   3.187  0.2392 -0.2239 -0.2058
28547SOL    HW288084   6.911   0.322   3.274 -1.1249 -0.7044 -0.4351
28548SOL     OW88085   5.357   3.946  10.175  0.4912 -0.4909  0.2710
28548SOL    HW188086   5.287   4.011  10.183 -1.3200 -2.2414 -0.5463
28548SOL    HW288087   5.437   3.994  10.198 -0.7740  1.9315 -0.0511
28549SOL     OW88088   1.941   6.108   7.224 -0.4895  0.2414 -0.2468
28549SOL    HW188089   1.932   6.108   7.320  2.3796  1.8826  0.1301
28549SOL    HW288090   1.986   6.025   7.205 -0.0399  0.4221 -0.0048
28550SOL     OW88091   1.444   5.432   9.521  0.0153 -0.2924 -0.1741
28550SOL    HW188092   1.399   5.483   9.588 -2.4343 -0.6785 -1.4231
28550SOL    HW288093   1.498   5.496   9.474 -1.4261  0.8001 -0.4084
28551SOL     OW88094   6.857   9.928   3.053 -0.4412 -0.0405  0.5767
28551SOL    HW188095   6.917   9.987   3.099 -2.0110 -0.0074  2.7137
28551SOL    HW288096   6.911   9.888   2.985  1.6479  1.0086  1.5219
28552SOL     OW88097   8.959   4.406  10.094  0.6379  0.2717 -0.1602
28552SOL    HW188098   8.958   4.399   9.999 -0.1289  0.3608 -0.1641
28552SOL    HW288099   8.878   4.452  10.116 -0.3595 -1.7807  0.6998
28553SOL     OW88100   1.719   1.895   9.763 -0.4133 -0.1196 -0.2089
28553SOL    HW188101   1.644   1.835   9.760 -1.5053  1.2285 -0.8151
28553SOL    HW288102   1.719   1.938   9.677  0.2308  0.8840  0.2801
28554SOL     OW88103   5.347   4.394   8.513 -0.4283 -0.6187  0.0398
28554SOL    HW188104   5.367   4.323   8.452 -0.2468  0.1125 -0.7707
28554SOL    HW288105   5.426   4.402   8.567 -0.2541 -0.6933 -0.2033
28555SOL     OW88106   5.823   6.484   7.055 -0.3658  0.1155  0.3557
28555SOL    HW188107   5.745   6.448   7.015 -1.2239  0.1156  1.9353
28555SOL    HW288108   5.886   6.412   7.056 -0.3622  0.0935 -0.8536
28556SOL     OW88109   7.835   3.806   5.546  0.3466  0.2487  0.4333
28556SOL    HW188110   7.770   3.782   5.480  0.6392 -0.0980  0.2686
28556SOL    HW288111   7.847   3.900   5.536 -0.9952  0.5376  1.2426
28557SOL     OW88112   0.407   7.282   3.246 -0.6339 -0.0929  0.0656
28557SOL    HW188113   0.459   7.206   3.218 -1.3743 -0.5805 -0.0087
28557SOL    HW288114   0.472   7.351   3.260  0.1230 -0.9208  0.7717
28558SOL     OW88115   8.629   9.924   2.714 -0.5351  0.6340 -0.0309
28558SOL    HW188116   8.599   9.941   2.624 -0.7637 -0.5810 -0.2095
28558SOL    HW288117   8.659  10.008   2.746 -2.1673  1.4879 -0.6133
28559SOL     OW88118   2.308   7.046   4.623  0.3496  0.0724 -0.0101
28559SOL    HW188119   2.226   6.998   4.614  0.3238  0.0032  0.6009
28559SOL    HW288120   2.372   6.995   4.572 -0.0845  0.3809 -0.8853
28560SOL     OW88121   4.190   7.773   6.562  0.1337 -0.1775 -0.2837
28560SOL    HW188122   4.254   7.828   6.608 -1.1348  0.4106  0.8665
28560SOL    HW288123   4.153   7.830   6.494  0.4759 -0.3598 -0.6240
28561SOL     OW88124   8.285   7.923   7.393 -0.3664  0.1367 -0.1959
28561SOL    HW188125   8.314   7.833   7.399 -1.0965 -0.0666  0.4119
28561SOL    HW288126   8.361   7.971   7.359  1.0134 -0.2148  2.1732
28562SOL     OW88127   4.554   2.876   9.586 -0.3282 -0.1363  0.0682
28562SOL    HW188128   4.536   2.923   9.668  0.8023  1.1215 -0.3816
28562SOL    HW288129   4.574   2.787   9.615  0.0715  0.2865  1.1897
28563SOL     OW88130   8.056   9.365   5.543  0.2948 -0.5638  0.0969
28563SOL    HW188131   8.151   9.359   5.554  0.4333  0.6272 -0.3391
28563SOL    HW288132   8.044   9.414   5.462 -0.7062 -1.5580 -0.3892
28564SOL     OW88133   7.266   9.007   9.010 -0.1127 -0.1662  0.1043
28564SOL    HW188134   7.192   9.040   8.959 -0.8624 -0.7786  0.7535
28564SOL    HW288135   7.229   8.990   9.097  0.3932 -1.9772  0.0020
28565SOL     OW88136   4.194   7.581   3.290  0.3650  0.1692  0.0983
28565SOL    HW188137   4.163   7.640   3.359  0.6103  1.9557 -1.2455
28565SOL    HW288138   4.289   7.576   3.305  0.6936  1.9979 -1.1022
28566SOL     OW88139   2.708   0.115   6.418 -0.3683  0.1708 -0.8248
28566SOL    HW188140   2.704   0.043   6.355  1.1230 -0.4895 -0.2224
28566SOL    HW288141   2.641   0.094   6.483 -0.7719 -0.0214 -1.2938
28567SOL     OW88142   0.989   7.850   3.375 -0.1331 -0.5713 -0.1665
28567SOL    HW188143   1.067   7.895   3.341 -0.9006 -0.0005 -1.2527
28567SOL    HW288144   0.956   7.908   3.444  0.8305 -1.2061  0.8613
28568SOL     OW88145   8.423   0.033   0.546  0.5443  0.0925 -0.2177
28568SOL    HW188146   8.431  -0.049   0.593 -3.3134 -0.1415  0.3082
28568SOL    HW288147   8.436   0.009   0.454  0.4228 -0.9128  0.0192
28569SOL     OW88148  10.153   6.611   2.035 -0.4048  0.4564  0.1442
28569SOL    HW188149  10.079   6.662   2.001 -0.6565 -0.7481 -1.2031
28569SOL    HW288150  10.227   6.637   1.981 -0.7143 -1.1652 -1.1294
28570SOL     OW88151  10.105   4.672   1.926  0.3856  0.1721 -0.7318
28570SOL    HW188152  10.085   4.664   2.019  0.2515 -2.5845 -0.9166
28570SOL    HW288153  10.024   4.703   1.887 -0.2145 -0.6089 -0.1446
28571SOL     OW88154   3.893   6.549   6.091 -0.3973  0.0722 -0.2887
28571SOL    HW188155   3.911   6.499   6.010  3.6488  0.5053  0.1329
28571SOL    HW288156   3.875   6.482   6.157 -2.5545 -0.3347 -1.1970
28572SOL     OW88157   5.676   4.798   1.952 -0.0673  0.6632  0.0294
28572SOL    HW188158   5.587   4.779   1.923 -0.3236  0.7466  0.7497
28572SOL    HW288159   5.685   4.892   1.942 -0.5262  0.8448  1.2188
28573SOL     OW88160   3.146   4.005   6.448  0.3200  0.2268  0.1536
28573SOL    HW188161   3.194   4.059   6.511  0.5073 -0.6593  0.7812
28573SOL    HW288162   3.213   3.973   6.388  0.4488 -0.5389  0.6888
28574SOL     OW88163   2.017  10.185   4.954  0.1765 -0.2421  0.1807
28574SOL    HW188164   2.090  10.216   5.008  0.6154 -1.0281  0.0631
28574SOL    HW288165   2.051  10.188   4.865  0.1487 -0.8161  0.1471
28575SOL     OW88166   2.546   0.841   3.507 -0.4395 -0.6754 -0.1580
28575SOL    HW188167   2.627   0.876   3.544 -0.1224 -2.7056  1.2496
28575SOL    HW288168   2.544   0.875   3.418  0.3817  1.8607  0.7171
28576SOL     OW88169   7.195   8.507   7.892  0.7076  0.0120  0.6150
28576SOL    HW188170   7.138   8.525   7.817  1.7605  0.7916 -0.0430
28576SOL    HW288171   7.224   8.417   7.879  1.3366  0.3194 -0.2756
28577SOL     OW88172   1.775   3.115   5.485  0.3575  0.4231  0.7893
28577SOL    HW188173   1.697   3.148   5.530 -0.4130  1.6986 -1.3680
28577SOL    HW288174   1.831   3.191   5.475  0.9714 -0.0650  0.4889
28578SOL     OW88175   9.799   8.299   0.375  0.6401 -0.0504  0.1411
28578SOL    HW188176   9.867   8.234   0.357 -0.8216 -1.6827  0.3291
28578SOL    HW288177   9.803   8.358   0.300  2.2045 -0.1215  0.1200
28579SOL     OW88178   0.319   7.792   5.528  0.1008 -0.3524 -0.2361
28579SOL    HW188179   0.279   7.852   5.591  0.7643 -1.0827  0.9235
28579SOL    HW288180   0.340   7.714   5.580 -0.0776 -1.3085 -1.5419
28580SOL     OW88181  10.270   0.294   3.703 -0.0500  0.2172  0.1348
28580SOL    HW188182  10.243   0.204   3.685 -1.2201  0.5093  0.3763
28580SOL    HW288183  10.336   0.286   3.772  2.3754 -0.6974 -2.0904
28581SOL     OW88184   8.885   1.657   7.689  0.1230  0.1736  0.3430
28581SOL    HW188185   8.966   1.690   7.728  0.1127  0.5568  0.0570
28581SOL    HW288186   8.914   1.596   7.621  0.1564 -0.0595  0.5639
28582SOL     OW88187   1.476   9.633  10.098  0.1143  0.1768  0.0578
28582SOL    HW188188   1.426   9.642  10.017 -0.5159  1.9024  0.6035
28582SOL    HW288189   1.411   9.613  10.165  0.1693  1.9676  0.6903
28583SOL     OW88190   0.982   8.778   6.915 -0.1027 -0.5318 -0.2629
28583SOL    HW188191   1.072   8.795   6.943 -0.9351  1.7791  1.3464
28583SOL    HW288192   0.928   8.830   6.974 -2.5084 -1.5564 -1.4025
28584SOL     OW88193   6.370   8.501  10.361 -0.5156  0.0295  0.1879
28584SOL    HW188194   6.320   8.582  10.364 -2.3442 -1.0410  0.4617
28584SOL    HW288195   6.362   8.464  10.449 -0.1331 -0.6829 -0.0675
28585SOL     OW88196   7.456   7.881   2.205 -0.1799 -0.3825  0.0147
28585SOL    HW188197   7.411   7.844   2.280  0.6984 -1.6001 -0.0456
28585SOL    HW288198   7.399   7.954   2.177 -0.8948 -0.3987  1.3599
28586SOL     OW88199   1.313   8.646   0.416  0.6796 -0.8912 -0.0028
28586SOL    HW188200   1.292   8.592   0.493  0.1982 -0.3656  0.2383
28586SOL    HW288201   1.230   8.685   0.390  1.4030  2.1517  1.6666
28587SOL     OW88202   3.870   8.134   3.755 -0.1008  0.1246 -0.0646
28587SOL    HW188203   3.868   8.089   3.671  0.1473  1.4338 -0.8056
28587SOL    HW288204   3.778   8.148   3.777 -0.2101  2.0836 -1.4624
28588SOL     OW88205   7.484   4.980   1.674  0.3242  0.0378  0.0228
28588SOL    HW188206   7.543   4.906   1.663 -0.1837 -0.4445  0.5177
28588SOL    HW288207   7.534   5.055   1.641  1.0610 -0.4230  0.0694
28589SOL     OW88208   2.514   4.605   1.545  0.3210  0.2983 -0.0487
28589SOL    HW188209   2.542   4.552   1.471 -0.3396 -0.6332  0.3499
28589SOL    HW288210   2.578   4.585   1.613 -0.4265 -0.7251  0.3942
28590SOL     OW88211   4.381   1.476   9.319 -0.1714  0.2183 -0.1794
28590SOL    HW188212   4.403   1.557   9.272  1.8818  0.3463  0.9173
28590SOL    HW288213   4.304   1.499   9.371 -0.4024  1.0675 -0.8678
28591SOL     OW88214   5.125   2.050   7.391 -0.1490  0.5594  0.2243
28591SOL    HW188215   5.059   2.094   7.444 -0.7985  0.6166 -0.6127
28591SOL    HW288216   5.078   1.977   7.350  0.1508  0.9771 -0.8732
28592SOL     OW88217   7.220   9.893  10.455  0.1038 -0.8074  0.1595
28592SOL    HW188218   7.251   9.957  10.519  0.3476  0.3876 -1.1172
28592SOL    HW288219   7.139   9.858  10.494  0.6739 -0.7268  1.4814
28593SOL     OW88220   7.585   7.133   5.371  0.3952 -0.5209  0.0354
28593SOL    HW188221   7.517   7.179   5.321 -0.1053 -1.1179  0.1554
28593SOL    HW288222   7.667   7.175   5.344 -0.0423  0.4022  0.1094
28594SOL     OW88223   8.627   9.691   6.300 -0.1308  0.1255 -0.1798
28594SOL    HW188224   8.691   9.631   6.261 -0.2712 -1.5937  1.9792
28594SOL    HW288225   8.569   9.715   6.228  1.8232  0.2490 -1.8065
28595SOL     OW88226   0.843   2.318   6.672 -0.0687 -0.3567  0.4884
28595SOL    HW188227   0.835   2.386   6.739 -0.6499 -0.0301  0.0875
28595SOL    HW288228   0.758   2.315   6.629  0.4428 -0.2271 -0.5646
28596SOL     OW88229   7.812   7.270   4.130 -0.3813 -0.1676 -0.3161
28596SOL    HW188230   7.755   7.309   4.196 -0.1557 -1.1540  0.4834
28596SOL    HW288231   7.827   7.341   4.067 -2.3177  0.1756 -0.4519
28597SOL     OW88232   0.265   4.290   6.140 -0.6130 -0.3944 -0.5073
28597SOL    HW188233   0.264   4.383   6.163 -1.5848 -0.4163 -0.3962
28597SOL    HW288234   0.324   4.284   6.065 -0.0104  0.2016 -0.0858
28598SOL     OW88235   1.049   7.186   2.378  0.2269 -0.1510 -0.1553
28598SOL    HW188236   1.019   7.258   2.322  2.7856  1.6201  0.6025
28598SOL    HW288237   1.140   7.173   2.354  0.5096 -1.4711  1.4782
28599SOL     OW88238   6.894   8.766   8.367  0.7935  0.3111 -0.4093
28599SOL    HW188239   6.935   8.726   8.289  1.2623 -1.8662  0.8611
28599SOL    HW288240   6.813   8.717   8.379  1.6238 -0.7070  1.4927
28600SOL     OW88241  10.348   1.168   0.096  0.1387  0.1543 -0.7366
28600SOL    HW188242  10.363   1.138   0.186  1.0768  0.0273 -0.9199
28600SOL    HW288243  10.390   1.254   0.093  2.2720 -0.8504 -1.6908
28601SOL     OW88244   9.829   8.063   2.095 -0.2650 -0.0308 -0.2930
28601SOL    HW188245   9.768   8.076   2.168  0.8107 -1.4083  0.9167
28601SOL    HW288246   9.839   7.968   2.089 -0.3249  0.0521 -2.2775
28602SOL     OW88247   1.890   4.279   0.496 -0.6327 -0.1399  0.3101
28602SOL    HW188248   1.820   4.277   0.431  0.0038  0.0909 -0.4033
28602SOL    HW288249   1.929   4.366   0.486  1.1443 -1.0136 -0.8454
28603SOL     OW88250   8.101   9.917   4.825  0.2000  0.1876 -0.1239
28603SOL    HW188251   8.068   9.930   4.914  1.1147  1.4742  0.0594
28603SOL    HW288252   8.058   9.985   4.774 -1.2492 -1.2838 -0.9663
28604SOL     OW88253   7.762   0.521   8.470 -0.6653  0.4361 -0.4376
28604SOL    HW188254   7.816   0.581   8.418  0.1757  1.5332  1.5808
28604SOL    HW288255   7.737   0.572   8.547 -0.8556 -1.4593  0.8380
28605SOL     OW88256   2.709   1.161   4.753 -0.4954  0.3465 -0.8454
28605SOL    HW188257   2.687   1.152   4.660  1.8150 -1.5067 -1.2822
28605SOL    HW288258   2.628   1.137   4.799 -0.8769 -1.4604 -2.3726
28606SOL     OW88259   4.807   6.732   0.857  0.0332 -0.5667  0.2924
28606SOL    HW188260   4.836   6.823   0.869 -0.4202 -0.6575  2.6474
28606SOL    HW288261   4.749   6.735   0.782  1.5909  0.6937 -0.9252
28607SOL     OW88262   7.624   7.071   1.388 -0.3743 -0.3799 -0.8800
28607SOL    HW188263   7.667   7.153   1.415 -1.3319 -0.5920  1.4889
28607SOL    HW288264   7.597   7.088   1.298 -0.5498  1.9397 -0.4652
28608SOL     OW88265   2.898   2.966   9.550  0.1742 -0.6767 -0.4774
28608SOL    HW188266   2.971   3.011   9.508 -1.1331  1.1738 -0.9425
28608SOL    HW288267   2.849   2.927   9.477  0.1399 -1.0115 -0.2752
28609SOL     OW88268   0.940   5.170   1.290 -0.1656 -0.1244  0.6138
28609SOL    HW188269   1.034   5.152   1.301 -0.2979 -0.9311  0.4713
28609SOL    HW288270   0.906   5.171   1.380 -0.1584 -0.6268  0.6246
28610SOL     OW88271   8.499   6.683   9.481 -0.2256 -0.2506  0.0606
28610SOL    HW188272   8.529   6.736   9.555  1.2475 -0.4071 -0.3932
28610SOL    HW288273   8.514   6.739   9.405 -0.7864 -0.4696 -0.2135
28611SOL     OW88274   0.906   8.516   8.365 -0.1117 -0.5445  0.2253
28611SOL    HW188275   0.996   8.513   8.335  0.2629  0.5063  1.1586
28611SOL    HW288276   0.857   8.465   8.301  0.9400 -0.0134 -1.0381
28612SOL     OW88277   8.359   0.266   5.300  0.2788  0.4892 -0.2195
28612SOL    HW188278   8.316   0.309   5.375  2.1563 -1.7188  2.2967
28612SOL    HW288279   8.287   0.238   5.244 -1.1716  2.8075  0.3432
28613SOL     OW88280   4.912   8.527   6.396  0.6340 -0.5697 -0.0246
28613SOL    HW188281   4.981   8.567   6.343 -0.6675  0.4128 -1.0607
28613SOL    HW288282   4.863   8.472   6.334 -1.6796  1.5748 -0.2426
28614SOL     OW88283   8.856   3.866  10.091  0.3958 -0.1298 -0.0064
28614SOL    HW188284   8.889   3.792  10.141  0.3179 -0.5717 -0.6012
28614SOL    HW288285   8.772   3.887  10.134  1.0335  0.4715  0.9854
28615SOL     OW88286   2.686  10.375   4.815  0.3111 -0.2109  0.0914
28615SOL    HW188287   2.694  10.366   4.720 -0.4280  1.3969 -0.1687
28615SOL    HW288288   2.715  10.465   4.833 -1.2018  0.1160  1.1320
28616SOL     OW88289   8.533   6.777   3.223  0.3303  0.3214  0.1018
28616SOL    HW188290   8.499   6.759   3.311 -1.1582 -0.7614 -0.6510
28616SOL    HW288291   8.620   6.815   3.238 -0.0136  0.4248  2.0357
28617SOL     OW88292   2.891   2.942   6.031 -0.1693  0.2485  0.0310
28617SOL    HW188293   2.858   3.028   6.059 -1.0870 -0.5396  1.4796
28617SOL    HW288294   2.844   2.879   6.086 -2.5452 -1.5060 -3.5919
28618SOL     OW88295   7.603   9.705   5.679 -0.2681 -0.2262 -0.1110
28618SOL    HW188296   7.539   9.635   5.675 -1.4825  0.8317  0.1725
28618SOL    HW288297   7.593   9.742   5.767  0.7174 -0.0242 -0.0666
28619SOL     OW88298   8.796   2.498   8.590  0.4628  0.0277  0.2597
28619SOL    HW188299   8.813   2.561   8.520  0.4297 -0.9366 -0.6367
28619SOL    HW288300   8.792   2.413   8.546  2.1023 -0.8300  1.6304
28620SOL     OW88301   0.698   9.348  10.041  0.0082  0.2609 -0.1674
28620SOL    HW188302   0.731   9.259  10.048 -1.9889 -0.4052  3.0506
28620SOL    HW288303   0.770   9.403  10.073  0.6914 -0.3600 -0.6246
28621SOL     OW88304   0.251   7.356   3.550 -0.0855  0.3688  0.2426
28621SOL    HW188305   0.226   7.298   3.479  1.2513 -0.4532  0.3930
28621SOL    HW288306   0.250   7.444   3.512 -0.9095  0.1117 -0.3415
28622SOL     OW88307   8.866   3.616   3.948 -0.1269  0.5510  0.7687
28622SOL    HW188308   8.920   3.613   3.869 -1.1221  0.4533  0.0672
28622SOL    HW288309   8.841   3.708   3.957 -0.4450  0.4747  0.6704
28623SOL     OW88310   3.005   3.422   9.385 -0.3147  0.3220  0.7679
28623SOL    HW188311   2.933   3.393   9.442  0.5551  1.3661  2.4541
28623SOL    HW288312   3.032   3.506   9.420 -0.0412  1.2750 -1.5275
28624SOL     OW88313   1.011   4.679   6.150  0.5871  0.0942  0.2491
28624SOL    HW188314   0.916   4.681   6.142  0.6345 -1.5080 -1.4118
28624SOL    HW288315   1.028   4.619   6.223  0.2967 -1.2419 -0.7354
28625SOL     OW88316   0.092   0.463   1.218 -0.6636  0.4294 -0.2687
28625SOL    HW188317   0.018   0.518   1.241  0.2616  1.3156  0.7115
28625SOL    HW288318   0.127   0.433   1.302  0.5126  0.6195 -0.6740
28626SOL     OW88319   5.317   4.475   6.980  0.1179 -0.6022  0.0019
28626SOL    HW188320   5.337   4.537   7.050 -0.8002  1.0190 -1.1081
28626SOL    HW288321   5.223   4.458   6.988 -0.2416  0.4747 -1.4528
28627SOL     OW88322   0.487   1.815   4.897  0.2061 -0.0152 -0.1051
28627SOL    HW188323   0.490   1.737   4.843  0.1328  0.3465 -0.6377
28627SOL    HW288324   0.404   1.809   4.944  0.5379 -0.6234  0.4214
28628SOL     OW88325   3.357   3.926   7.132 -0.4906  0.2165  0.2545
28628SOL    HW188326   3.359   3.886   7.219  0.7491 -0.7965 -0.2079
28628SOL    HW288327   3.265   3.939   7.114 -0.8464 -0.8667  1.1455
28629SOL     OW88328   5.498   8.340   1.796 -0.0831 -0.1324 -0.8311
28629SOL    HW188329   5.425   8.285   1.766 -0.6349  0.3013 -0.3286
28629SOL    HW288330   5.576   8.291   1.772 -0.5562 -1.4466  0.1313
28630SOL     OW88331   1.255   2.528   2.937  0.1988 -0.4753  0.5951
28630SOL    HW188332   1.200   2.451   2.927  0.7911 -0.8713  0.3418
28630SOL    HW288333   1.205   2.600   2.898  0.0194 -0.8999  0.0426
28631SOL     OW88334   5.876   7.972   0.616  0.2123 -0.6601  0.1650
28631SOL    HW188335   5.930   7.898   0.591  2.2439  0.2635  1.5394
28631SOL    HW288336   5.820   7.988   0.540  2.4981 -1.1297 -1.7243
28632SOL     OW88337  10.451   5.493   6.601 -0.4411  0.1833  0.3646
28632SOL    HW188338  10.388   5.448   6.544  0.8280 -0.2815 -0.7143
28632SOL    HW288339  10.420   5.583   6.605  0.0104  0.4958 -1.9815
28633SOL     OW88340   5.198  10.397  10.474 -0.2662 -0.2167 -0.0229
28633SOL    HW188341   5.199  10.438  10.560 -1.4328 -2.5531  1.1957
28633SOL    HW288342   5.283  10.354  10.466 -0.0731  0.1854 -0.1406
28634SOL     OW88343   1.121   7.970   0.170 -0.3584  0.1409 -0.1868
28634SOL    HW188344   1.127   8.053   0.123  3.0744  0.1784  0.0505
28634SOL    HW288345   1.087   7.908   0.106 -0.1235  1.1351 -1.2940
28635SOL     OW88346   6.901   9.645   4.433 -0.3623  0.3314  0.1993
28635SOL    HW188347   6.849   9.612   4.506 -0.0544  0.6556  0.5729
28635SOL    HW288348   6.886   9.582   4.362  1.4399 -1.5678  1.3712
28636SOL     OW88349   2.966   3.858   9.904 -0.4160 -0.7565 -0.4056
28636SOL    HW188350   2.888   3.889   9.858 -0.2848 -0.3469 -0.3643
28636SOL    HW288351   3.002   3.938   9.944 -0.9541 -1.2078  1.0492
28637SOL     OW88352   5.738   3.960   3.932 -0.4091 -0.8299 -0.0961
28637SOL    HW188353   5.797   3.910   3.876  0.5165  0.1717 -0.0536
28637SOL    HW288354   5.735   3.911   4.014 -0.9104 -1.7262 -0.6379
28638SOL     OW88355   3.863   9.695   8.016  0.2020 -0.3967 -0.0268
28638SOL    HW188356   3.917   9.665   8.089 -0.0329  1.1398  0.8121
28638SOL    HW288357   3.923   9.746   7.961 -0.1021  0.2666  0.2502
28639SOL     OW88358   3.098   0.104   8.529 -0.0405  0.1717  0.4447
28639SOL    HW188359   3.182   0.060   8.518  0.4680  1.2362  0.0434
28639SOL    HW288360   3.116   0.196   8.512 -1.2829  0.4166  0.3829
28640SOL     OW88361   3.042   8.351   2.677 -0.3205  0.3577 -0.0311
28640SOL    HW188362   3.068   8.265   2.642  1.0359 -0.5447  2.8855
28640SOL    HW288363   3.115   8.408   2.657 -1.1402  0.8592 -1.7999
28641SOL     OW88364   7.044   3.127   8.910  0.3435 -0.4145  0.2907
28641SOL    HW188365   7.047   3.064   8.837  0.7853 -1.1087  0.8962
28641SOL    HW288366   7.128   3.116   8.955 -0.0326 -0.1926  1.0643
28642SOL     OW88367   3.795   7.366   0.944  0.8650 -0.3576 -0.4112
28642SOL    HW188368   3.822   7.304   1.012  2.1758  1.5624  0.9343
28642SOL    HW288369   3.712   7.331   0.911  0.8796 -2.0866  1.2276
28643SOL     OW88370   7.632   6.725   1.329  0.0677  0.4649 -0.3588
28643SOL    HW188371   7.556   6.765   1.286 -1.2229 -0.4388  1.0061
28643SOL    HW288372   7.668   6.794   1.385  0.5924  1.0464 -1.3775
28644SOL     OW88373   1.497   6.877   2.718 -0.5005 -0.5565 -0.5806
28644SOL    HW188374   1.501   6.816   2.644  0.3410 -0.4310 -0.6533
28644SOL    HW288375   1.489   6.963   2.677 -3.2268 -0.6789 -0.4596
28645SOL     OW88376   4.878   2.635   7.788  0.0862 -0.1628  0.2470
28645SOL    HW188377   4.935   2.711   7.772 -1.4820  0.4911 -3.0327
28645SOL    HW288378   4.802   2.650   7.731 -1.2577 -3.2015  1.0685
28646SOL     OW88379   1.540   8.202   0.020  0.2809  0.0310 -0.3099
28646SOL    HW188380   1.450   8.195   0.053  0.4921  1.0945  0.5376
28646SOL    HW288381   1.589   8.242   0.091  1.3404 -0.1102 -0.9351
28647SOL     OW88382   2.364   9.227   4.857  0.3101  0.3022 -0.5060
28647SOL    HW188383   2.434   9.163   4.842 -0.1908 -0.4900  0.3846
28647SOL    HW288384   2.319   9.233   4.773 -1.0165 -2.2596 -0.0682
28648SOL     OW88385   6.475   0.133   0.108  0.5315 -0.1886  0.2127
28648SOL    HW188386   6.428   0.053   0.082  0.8751 -0.5002  0.5364
28648SOL    HW288387   6.430   0.203   0.061  0.7367 -0.6601 -0.7177
28649SOL     OW88388   8.486   6.519   6.949  0.7059  0.0942  0.6156
28649SOL    HW188389   8.460   6.588   7.010  0.8808  0.4875  0.2426
28649SOL    HW288390   8.492   6.562   6.864  0.5070 -0.4472  0.3249
28650SOL     OW88391   7.557   7.340   2.763  0.3658 -0.3206 -0.6766
28650SOL    HW188392   7.558   7.286   2.843 -0.2990 -1.6247 -1.5130
28650SOL    HW288393   7.465   7.356   2.746  0.2158 -2.8988 -2.9646
28651SOL     OW88394   3.734   3.131   1.789  0.4364 -0.6581 -0.2404
28651SOL    HW188395   3.817   3.174   1.804 -0.9658  1.6949  1.3430
28651SOL    HW288396   3.677   3.162   1.859 -2.2670 -0.8516 -2.1834
28652SOL     OW88397   3.281   0.746   1.168 -0.2484 -0.3124  0.2478
28652SOL    HW188398   3.187   0.752   1.182 -0.6244 -1.0822 -1.6164
28652SOL    HW288399   3.290   0.728   1.074  1.7758  0.1850  0.3049
28653SOL     OW88400   7.921  10.120   6.558 -0.1967 -0.9624 -0.5145
28653SOL    HW188401   7.861  10.157   6.624 -1.7715 -1.2212 -1.7257
28653SOL    HW288402   8.008  10.137   6.593 -0.9542 -0.2359  1.1698
28654SOL     OW88403   1.347   4.790   1.697  0.3813 -0.1051 -0.0129
28654SOL    HW188404   1.427   4.737   1.699  0.9470  0.7481  1.6539
28654SOL    HW288405   1.373   4.870   1.651  0.3503 -0.0228  0.1139
28655SOL     OW88406   9.826   3.439   5.726 -0.0572 -0.4205  0.1430
28655SOL    HW188407   9.858   3.350   5.711  1.7786  0.5305 -2.3753
28655SOL    HW288408   9.783   3.463   5.643  0.3271  1.3399  0.4160
28656SOL     OW88409   8.597   6.384  10.120 -0.7600 -0.0790  0.3885
28656SOL    HW188410   8.668   6.433  10.077 -0.6195 -0.3119  0.3513
28656SOL    HW288411   8.526   6.384  10.057 -0.6319 -0.2304  0.2444
28657SOL     OW88412   8.877   5.870   3.938 -0.3429 -0.0305  0.1653
28657SOL    HW188413   8.829   5.790   3.915  1.3753 -0.7110 -1.2423
28657SOL    HW288414   8.808   5.935   3.955 -1.7654 -1.3108 -0.4926
28658SOL     OW88415   6.511   0.156   2.681  0.1122 -0.1397  0.5157
28658SOL    HW188416   6.604   0.164   2.662 -0.1031 -1.1040 -1.1542
28658SOL    HW288417   6.506   0.086   2.747  0.5966  0.3327  1.0648
28659SOL     OW88418   0.625   7.367   7.441 -0.3632  0.9823 -0.1467
28659SOL    HW188419   0.563   7.304   7.477 -0.3931  0.3213 -1.3278
28659SOL    HW288420   0.573   7.419   7.379  0.0588  0.9969 -0.4917
28660SOL     OW88421   2.763   7.831   6.806  0.0606  0.2883  0.4887
28660SOL    HW188422   2.693   7.875   6.855  0.0596  0.3776  0.4067
28660SOL    HW288423   2.742   7.847   6.714  0.1936  0.3218  0.4646
28661SOL     OW88424   8.472  10.053   3.997 -0.0160  1.1290  0.2657
28661SOL    HW188425   8.432   9.967   3.985 -0.5157  1.5396 -1.1941
28661SOL    HW288426   8.445  10.103   3.920  2.9053  1.6123 -0.5444
28662SOL     OW88427   7.240   0.109   9.538  0.2264 -0.3234  0.7064
28662SOL    HW188428   7.275   0.140   9.622 -1.4422  0.0584  1.3082
28662SOL    HW288429   7.198   0.185   9.500  0.8698 -0.5291 -0.4434
28663SOL     OW88430   8.348   0.316   8.642 -0.0994  0.0604 -0.3094
28663SOL    HW188431   8.424   0.275   8.601 -0.5938 -1.9888  0.6956
28663SOL    HW288432   8.285   0.326   8.571  1.0093  1.6171 -1.1141
28664SOL     OW88433   2.096   5.671  10.451 -0.2564 -0.3447  0.1067
28664SOL    HW188434   2.163   5.740  10.444 -0.3916 -0.2287 -0.0342
28664SOL    HW288435   2.081   5.642  10.361 -1.2699  0.4632  0.0021
28665SOL     OW88436   7.801   6.606   4.958  0.2763  0.2892  0.1482
28665SOL    HW188437   7.717   6.630   4.920  1.1394  0.0241 -2.0646
28665SOL    HW288438   7.792   6.513   4.981 -0.6664  0.7645  1.9146
28666SOL     OW88439   3.484   3.352   7.937 -0.5935 -0.2170  0.3345
28666SOL    HW188440   3.563   3.323   7.982 -0.3367 -0.0153  0.0101
28666SOL    HW288441   3.470   3.287   7.868  0.1119  0.5425 -0.5423
28667SOL     OW88442   0.158   4.704   0.196  0.2629  0.3987 -0.4665
28667SOL    HW188443   0.244   4.660   0.197 -0.2067 -0.5970  1.6404
28667SOL    HW288444   0.107   4.654   0.131  0.7549 -0.0668 -0.5098
28668SOL     OW88445   6.570   8.274   4.056 -0.1592 -0.5237  0.3008
28668SOL    HW188446   6.552   8.332   3.983 -0.9121 -2.2323 -0.9410
28668SOL    HW288447   6.489   8.273   4.107 -0.3547 -0.9409 -0.0152
28669SOL     OW88448   2.795   8.161   1.089 -0.4565  0.3231 -0.3410
28669SOL    HW188449   2.818   8.095   1.025 -1.0357  2.1726 -2.6107
28669SOL    HW288450   2.699   8.158   1.094 -0.5725  1.5872 -1.2354
28670SOL     OW88451   4.980   5.607   3.217  0.5059 -0.1515  0.8361
28670SOL    HW188452   5.067   5.642   3.234  0.1092  0.9880  0.6007
28670SOL    HW288453   4.958   5.557   3.296  0.5023  1.3298  1.7974
28671SOL     OW88454   7.714   0.241   3.912 -0.5034  0.3413 -0.2005
28671SOL    HW188455   7.651   0.296   3.867 -0.9030  0.1795  0.1528
28671SOL    HW288456   7.755   0.189   3.843 -0.9004  0.3043 -0.4085
28672SOL     OW88457   8.074   5.026   7.175  0.4560  0.2461 -0.2580
28672SOL    HW188458   8.126   4.950   7.202 -0.7794 -1.2811 -1.9898
28672SOL    HW288459   8.131   5.075   7.116  0.7046 -0.2161 -0.4030
28673SOL     OW88460   1.853   0.674   9.991  0.1751 -0.6243  0.2128
28673SOL    HW188461   1.832   0.634   9.907  1.8362  1.3936 -1.2824
28673SOL    HW288462   1.799   0.752   9.995  1.3572  0.2352  0.1257
28674SOL     OW88463   4.446   2.082   5.409 -0.3720  0.0014 -0.0366
28674SOL    HW188464   4.506   2.058   5.339  1.0499  1.2047  0.6930
28674SOL    HW288465   4.479   2.034   5.486  0.5612  1.6946  0.6828
28675SOL     OW88466   8.600   6.727   6.134 -0.2158  0.0947 -0.7117
28675SOL    HW188467   8.569   6.813   6.161 -1.9441 -0.8432  0.5152
28675SOL    HW288468   8.607   6.677   6.216  0.5030 -1.0066 -1.4154
28676SOL     OW88469   3.650   5.869   5.916 -0.2925  0.6021  0.2606
28676SOL    HW188470   3.580   5.933   5.930  0.5434  1.1296  2.3757
28676SOL    HW288471   3.725   5.922   5.887 -0.3538  0.2082 -0.6549
28677SOL     OW88472   4.045   3.261   2.765 -0.7714  0.0204  0.6298
28677SOL    HW188473   4.095   3.251   2.684 -0.6472  1.8286  0.4591
28677SOL    HW288474   3.960   3.221   2.746 -0.4978 -0.2027 -0.1393
28678SOL     OW88475   0.348   0.552   2.490 -0.3685 -0.2642 -0.3739
28678SOL    HW188476   0.345   0.632   2.439 -0.5519  0.4023  0.6400
28678SOL    HW288477   0.407   0.494   2.442  0.4116  0.7783 -0.7051
28679SOL     OW88478  10.303   8.665   2.445  0.2058 -0.0407 -0.1155
28679SOL    HW188479  10.344   8.689   2.362  0.5038  1.5069  0.4546
28679SOL    HW288480  10.361   8.598   2.482 -0.1691 -1.0950 -1.3289
28680SOL     OW88481  10.087   0.911   0.523  0.0382  0.0759  0.8290
28680SOL    HW188482  10.144   0.937   0.595  0.3573  0.3862  0.4676
28680SOL    HW288483  10.003   0.952   0.543  0.1476  0.2291  0.9851
28681SOL     OW88484   3.598   2.754   0.699  0.1126 -0.1964  0.3819
28681SOL    HW188485   3.648   2.832   0.722 -0.5173  0.8922 -1.6747
28681SOL    HW288486   3.664   2.687   0.682  0.7683  0.5172  0.0757
28682SOL     OW88487   6.169   5.833  10.445 -0.6483 -0.1374  0.0101
28682SOL    HW188488   6.140   5.903  10.503  0.0612  1.1015 -1.0607
28682SOL    HW288489   6.264   5.843  10.442 -0.5098 -1.3025 -0.0011
28683SOL     OW88490   7.683   9.763   2.861  0.5989 -0.1479 -0.4034
28683SOL    HW188491   7.764   9.742   2.908  0.2456  2.5964  1.7372
28683SOL    HW288492   7.712   9.782   2.772  2.2351  0.1382  0.1473
28684SOL     OW88493   4.333   8.411   7.252  0.2858 -0.0456 -0.0204
28684SOL    HW188494   4.306   8.326   7.287  0.1519 -0.0298 -0.0845
28684SOL    HW288495   4.263   8.471   7.279  1.5772  0.5767  2.2640
28685SOL     OW88496   8.096   7.020   9.698 -0.0549 -0.2207  0.8501
28685SOL    HW188497   8.078   7.023   9.604  1.6400  1.1806  0.5255
28685SOL    HW288498   8.152   6.943   9.710 -0.8335 -0.8004  0.8440
28686SOL     OW88499   8.187   9.581   0.969 -0.4799  0.3134  0.7637
28686SOL    HW188500   8.202   9.664   0.923  2.2338  0.1310  1.1258
28686SOL    HW288501   8.193   9.604   1.061  0.8451 -0.3219  0.8614
28687SOL     OW88502   0.062   8.563   1.127 -0.1146 -0.0875  0.7661
28687SOL    HW188503   0.112   8.607   1.196 -0.4837  0.4423  0.7006
28687SOL    HW288504   0.105   8.478   1.117 -0.7296 -0.6207  2.4044
28688SOL     OW88505   4.716   2.356   4.343  0.5357  0.4419  0.4800
28688SOL    HW188506   4.698   2.347   4.436  2.3672  0.5469  0.8893
28688SOL    HW288507   4.733   2.267   4.312 -3.1848 -0.0956 -0.5720
28689SOL     OW88508   4.074   7.932   2.790  0.0223  0.1355 -0.0291
28689SOL    HW188509   4.126   7.857   2.818 -0.7085  0.0656  1.2280
28689SOL    HW288510   4.033   7.903   2.708  2.0128  0.2449 -1.1103
28690SOL     OW88511   5.474   7.387   1.984  0.1228 -0.2840  0.3757
28690SOL    HW188512   5.513   7.447   2.046 -1.2460  0.6423  0.3829
28690SOL    HW288513   5.429   7.322   2.037 -0.0501 -0.1763  0.3622
28691SOL     OW88514   9.659   0.207   7.983  0.3474 -0.4025  0.1393
28691SOL    HW188515   9.599   0.193   8.056 -1.6345  0.1993 -1.2933
28691SOL    HW288516   9.616   0.272   7.928  1.2793 -1.5613 -2.0976
28692SOL     OW88517   0.169   8.456   7.837  0.3249 -0.5354 -0.3624
28692SOL    HW188518   0.160   8.434   7.930 -2.0352 -0.6235 -0.5399
28692SOL    HW288519   0.255   8.423   7.813  1.5273  0.5853  2.0544
28693SOL     OW88520   1.579  10.403   8.161 -0.3160 -0.1529  0.1110
28693SOL    HW188521   1.612  10.427   8.075 -1.9459 -0.5358 -0.6669
28693SOL    HW288522   1.657  10.400   8.217  0.6856  0.8035 -1.1657
28694SOL     OW88523   0.092   9.011   5.625 -0.0953  0.8145  0.5046
28694SOL    HW188524   0.046   8.974   5.550  1.1477  0.1116  0.0540
28694SOL    HW288525   0.046   8.976   5.701 -0.0848 -0.1859  0.0689
28695SOL     OW88526   4.689   1.513   5.055 -0.1385  0.1380 -0.1772
28695SOL    HW188527   4.670   1.423   5.084  0.8575 -0.6051 -1.6924
28695SOL    HW288528   4.658   1.568   5.126  0.5045 -1.4847  1.4480
28696SOL     OW88529   8.337   0.116   8.331 -0.0302  0.8892 -0.4422
28696SOL    HW188530   8.383   0.196   8.305 -0.7364  1.3304 -0.3757
28696SOL    HW288531   8.252   0.147   8.362 -0.8147  0.0013 -1.6444
28697SOL     OW88532   4.346   8.169   1.438  0.2078  0.2406 -0.2085
28697SOL    HW188533   4.436   8.156   1.407 -0.6992  0.2276 -3.1726
28697SOL    HW288534   4.352   8.243   1.498  2.4237 -0.9086  1.0925
28698SOL     OW88535   2.069   3.170   7.447  0.2845 -0.3634 -0.7120
28698SOL    HW188536   2.028   3.084   7.440 -0.6677  0.1607 -1.7984
28698SOL    HW288537   2.026   3.212   7.521  1.4982 -1.1783  0.5225
28699SOL     OW88538   4.683   7.708   6.384 -0.2596 -0.1814 -0.1952
28699SOL    HW188539   4.726   7.786   6.348 -1.4439  0.3020 -0.6151
28699SOL    HW288540   4.645   7.737   6.467 -3.0655  0.5301 -1.5950
28700SOL     OW88541   0.270   1.718   2.302 -0.1857  0.6680 -0.0482
28700SOL    HW188542   0.275   1.624   2.284 -0.7784  0.6689 -0.2235
28700SOL    HW288543   0.305   1.758   2.222  3.1667  0.5759  1.1817
28701SOL     OW88544   5.042   9.850   0.048  0.3356  0.3038  0.3201
28701SOL    HW188545   4.970   9.841   0.110  1.9762 -1.1411  2.1442
28701SOL    HW288546   5.095   9.921   0.082  0.4028  0.5993 -0.3780
28702SOL     OW88547   6.431   9.014   1.980  0.6203  0.3080  0.4688
28702SOL    HW188548   6.468   8.926   1.976 -0.3983 -0.2104 -4.7972
28702SOL    HW288549   6.507   9.071   1.990  1.9012 -1.0555 -0.9834
28703SOL     OW88550   7.869   1.006   6.317  0.3260 -0.1780 -0.0413
28703SOL    HW188551   7.902   0.927   6.359 -1.0990 -1.5235 -1.3007
28703SOL    HW288552   7.794   1.032   6.370  1.9708  1.6345  1.5797
28704SOL     OW88553   7.792   4.181  10.484 -0.4458 -0.0785  0.3211
28704SOL    HW188554   7.740   4.113  10.527 -0.9450 -1.7672 -2.6987
28704SOL    HW288555   7.730   4.253  10.470 -1.0441 -0.6797 -0.1585
28705SOL     OW88556   6.651   1.076   3.354  0.4355  0.0431 -1.0211
28705SOL    HW188557   6.725   1.071   3.414  0.3263  0.0173 -0.8887
28705SOL    HW288558   6.611   1.161   3.370  0.2391 -0.0780 -0.8584
28706SOL     OW88559   7.618   2.273   4.687 -0.2415 -0.3542  0.4672
28706SOL    HW188560   7.552   2.342   4.690 -1.6784 -1.6105 -0.9797
28706SOL    HW288561   7.615   2.233   4.774 -0.0196  0.7998  1.0244
28707SOL     OW88562   5.514   0.949   1.869  0.5913 -0.1001  0.0743
28707SOL    HW188563   5.479   0.865   1.898  0.9463 -0.0564  0.6482
28707SOL    HW288564   5.597   0.958   1.917  1.2083 -0.0410 -0.9774
28708SOL     OW88565   4.143   4.667   3.271  0.3659  0.1639 -0.1712
28708SOL    HW188566   4.182   4.717   3.343 -1.7046  1.8740 -0.1359
28708SOL    HW288567   4.188   4.583   3.273  1.0146  0.4889  2.5163
28709SOL     OW88568   8.854   8.270   3.488  0.3414 -0.2290 -0.4623
28709SOL    HW188569   8.884   8.184   3.517  4.1566  1.3867  1.1734
28709SOL    HW288570   8.875   8.273   3.395  1.1675 -0.7502 -0.3011
28710SOL     OW88571   2.688   1.462   4.616  0.0137  0.3194 -0.1967
28710SOL    HW188572   2.754   1.394   4.602  0.0829  0.8699 -2.9329
28710SOL    HW288573   2.737   1.536   4.653  1.1809  1.0138 -2.9434
28711SOL     OW88574   1.189   2.868  10.426  0.3606  0.0154 -0.2068
28711SOL    HW188575   1.153   2.908  10.347 -0.0652 -0.1681 -0.1066
28711SOL    HW288576   1.162   2.777  10.421  0.2746  0.0206  0.1892
28712SOL     OW88577   2.191   1.733   9.495  0.3550  0.1586 -0.4460
28712SOL    HW188578   2.210   1.650   9.452  2.7775 -0.3285  1.3862
28712SOL    HW288579   2.196   1.714   9.588  0.7720  2.3007  0.0284
28713SOL     OW88580   1.447   6.327   0.068 -0.3138  0.2236 -0.2330
28713SOL    HW188581   1.406   6.355  -0.014  0.8792  0.5010 -0.7481
28713SOL    HW288582   1.403   6.379   0.136 -0.8008  0.5167 -0.7636
28714SOL     OW88583   8.061   2.457   3.198  0.0105  0.2125  0.4629
28714SOL    HW188584   8.127   2.432   3.133 -0.1864  2.1768 -0.5635
28714SOL    HW288585   7.981   2.411   3.170  0.4394 -0.6333  0.5906
28715SOL     OW88586   2.107   4.236   3.749 -0.0551  0.3326  0.0068
28715SOL    HW188587   2.172   4.278   3.692 -1.4004  0.6090 -1.3752
28715SOL    HW288588   2.028   4.230   3.695 -0.8670 -0.9935  1.2847
28716SOL     OW88589   0.663   8.911   9.903 -0.0047 -0.1400  0.4581
28716SOL    HW188590   0.569   8.895   9.913  0.0693 -2.4343 -1.5931
28716SOL    HW288591   0.702   8.823   9.906  1.9636  0.6775  0.1891
28717SOL     OW88592   4.744   4.316   5.120 -0.1448  0.0270  0.4171
28717SOL    HW188593   4.778   4.255   5.055  0.7596  0.9288  0.0188
28717SOL    HW288594   4.804   4.391   5.117  1.1945 -0.7240  3.7431
28718SOL     OW88595   9.452   9.555   5.731 -0.4597  0.2340 -0.0498
28718SOL    HW188596   9.389   9.582   5.797 -0.0758  1.2151 -0.0660
28718SOL    HW288597   9.529   9.528   5.782 -0.8126 -0.8112 -0.0367
28719SOL     OW88598   7.717   6.685   9.296 -0.1338  0.4090 -0.1473
28719SOL    HW188599   7.801   6.715   9.331 -0.5622  1.5186 -0.0282
28719SOL    HW288600   7.683   6.626   9.362  0.7844 -0.4753 -0.4329
28720SOL     OW88601  10.186   2.324   1.573 -0.5698  0.1167  0.3363
28720SOL    HW188602  10.214   2.347   1.485  2.1350  1.7617  1.4957
28720SOL    HW288603  10.149   2.405   1.609 -2.6862 -0.8276  0.4029
28721SOL     OW88604   8.495   3.761   4.848 -0.0607 -0.2656 -0.1974
28721SOL    HW188605   8.585   3.765   4.814  0.0846 -0.6386  0.1329
28721SOL    HW288606   8.455   3.688   4.803  0.5007 -1.5274  1.2542
28722SOL     OW88607   7.846   5.450   0.315 -0.1488 -0.5866 -0.2821
28722SOL    HW188608   7.885   5.435   0.228 -0.8554  0.5649 -0.8229
28722SOL    HW288609   7.759   5.485   0.296 -0.6480 -1.1250  0.9074
28723SOL     OW88610   0.010  10.294   0.376 -0.7176 -0.3478  0.4580
28723SOL    HW188611  -0.043  10.373   0.359 -0.4789 -0.1804  0.4865
28723SOL    HW288612   0.002  10.242   0.296  0.8008  0.6622 -0.3979
28724SOL     OW88613   2.488   1.145   2.416  0.2147 -0.0031  0.0440
28724SOL    HW188614   2.448   1.199   2.484 -2.2003 -0.8246 -0.6375
28724SOL    HW288615   2.483   1.199   2.337  0.0798 -0.2743 -0.1333
28725SOL     OW88616   5.271   6.069   0.726 -0.2418 -0.2227 -0.6446
28725SOL    HW188617   5.180   6.096   0.714 -0.5315  0.2063  1.9228
28725SOL    HW288618   5.269   5.973   0.717 -1.1600 -0.3159  0.3661
28726SOL     OW88619   6.048   1.803   8.464 -0.0434  0.4989  0.3176
28726SOL    HW188620   5.968   1.810   8.516 -0.3928 -1.2922  0.1158
28726SOL    HW288621   6.067   1.892   8.435 -1.6664  1.0310  0.7972
28727SOL     OW88622   0.496   6.660   0.451 -0.2073 -0.1256  0.9702
28727SOL    HW188623   0.449   6.743   0.453  0.2984  0.1795  0.5033
28727SOL    HW288624   0.428   6.593   0.446 -0.6039  0.3601 -1.8351
28728SOL     OW88625   1.169   7.700   1.083 -0.0708  0.2443 -0.8491
28728SOL    HW188626   1.176   7.668   0.993  0.6329 -1.8989 -0.1038
28728SOL    HW288627   1.258   7.722   1.108 -0.1387  0.0806 -0.4467
28729SOL     OW88628   7.761   1.974   5.614  0.5828 -0.0504  0.4853
28729SOL    HW188629   7.712   1.962   5.532 -1.2359 -1.3329  1.6904
28729SOL    HW288630   7.853   1.960   5.589  0.1144 -0.0269 -1.4039
28730SOL     OW88631   3.085   2.776   5.886 -0.4677  0.4175 -0.3298
28730SOL    HW188632   3.034   2.822   5.952 -0.0111 -1.4701  1.4387
28730SOL    HW288633   3.064   2.684   5.899  3.4908 -0.5315  0.7372
28731SOL     OW88634   7.296   7.999   9.158 -0.1709 -0.4902 -0.4762
28731SOL    HW188635   7.254   8.084   9.174  0.5541 -0.5239  2.1405
28731SOL    HW288636   7.387   8.022   9.138  0.4224 -0.6094  1.7951
28732SOL     OW88637   4.478   9.830   8.577  0.0209  0.2621  0.6176
28732SOL    HW188638   4.465   9.908   8.631  2.2341  0.9045  0.3283
28732SOL    HW288639   4.549   9.854   8.518 -1.9616 -0.6063 -2.3034
28733SOL     OW88640   2.922   0.621   4.955  0.0559 -0.6042 -0.3260
28733SOL    HW188641   2.889   0.702   4.914  0.4460 -0.6440 -0.7342
28733SOL    HW288642   2.988   0.589   4.893  3.1099  1.0586  1.7759
28734SOL     OW88643   5.572   5.281   6.993  0.0147 -0.2862  0.5485
28734SOL    HW188644   5.651   5.252   7.040  0.1033 -0.0001  0.5799
28734SOL    HW288645   5.556   5.212   6.929  1.1906  0.3800 -0.4946
28735SOL     OW88646   0.829   9.723  10.061  0.5716  0.0010  0.5871
28735SOL    HW188647   0.856   9.811  10.087 -0.9354  0.5008  0.5744
28735SOL    HW288648   0.834   9.723   9.965  4.3194 -1.2422  0.6142
28736SOL     OW88649   6.537   4.781   7.524  0.0478  0.0134  0.9081
28736SOL    HW188650   6.579   4.700   7.555 -1.4180 -1.9088 -1.7067
28736SOL    HW288651   6.555   4.783   7.431 -2.3436  1.1600  0.3864
28737SOL     OW88652  10.380   0.401   0.581 -0.4632  0.7490  0.4342
28737SOL    HW188653  10.380   0.484   0.629 -0.5934  0.4462  0.9585
28737SOL    HW288654  10.288   0.375   0.577 -0.5780  1.2694 -0.8590
28738SOL     OW88655   8.014   3.815   6.600 -0.3671 -0.6106 -0.3715
28738SOL    HW188656   8.095   3.852   6.634 -0.5599  0.5957 -1.1250
28738SOL    HW288657   8.040   3.736   6.554  0.6334  0.5228 -1.8731
28739SOL     OW88658   8.339   1.493   1.724 -0.0305  0.0586  0.1558
28739SOL    HW188659   8.315   1.511   1.633 -0.3977  0.5377  0.3416
28739SOL    HW288660   8.407   1.427   1.719  2.1803  2.2432 -0.6478
28740SOL     OW88661   7.073   9.490   7.232  0.3244 -0.3613 -0.0236
28740SOL    HW188662   7.141   9.540   7.188 -0.5763  1.6336  0.7158
28740SOL    HW288663   7.094   9.498   7.325 -1.7514  1.8155  0.3784
28741SOL     OW88664   2.833   1.965   8.854 -0.6074  0.3345 -0.7959
28741SOL    HW188665   2.860   2.050   8.888  0.3260 -0.0381 -0.5667
28741SOL    HW288666   2.909   1.908   8.869 -1.0858 -0.4477 -1.2693
28742SOL     OW88667   5.830   2.035   1.289 -0.2267  0.3181  0.4394
28742SOL    HW188668   5.771   2.088   1.343 -0.8490  0.3648 -0.2718
28742SOL    HW288669   5.785   1.951   1.281 -0.2340  0.3726 -0.1627
28743SOL     OW88670   8.780   9.493   4.143  0.0658  0.6625  0.6843
28743SOL    HW188671   8.834   9.547   4.201  0.3309  1.1776 -0.0253
28743SOL    HW288672   8.767   9.547   4.065  0.5163 -0.3852 -0.1365
28744SOL     OW88673   3.326   2.209   7.563 -0.0261 -0.2492  0.1320
28744SOL    HW188674   3.244   2.197   7.611 -1.2152  0.6029 -1.5950
28744SOL    HW288675   3.380   2.136   7.590 -1.0676 -0.4189  1.8897
28745SOL     OW88676   3.791   8.870   0.521 -0.6035 -0.2402 -0.3537
28745SOL    HW188677   3.791   8.809   0.595  1.2790  0.4999  0.3095
28745SOL    HW288678   3.773   8.955   0.561  0.1612  0.1256 -0.7811
28746SOL     OW88679   7.443   9.294   6.482 -0.4417 -0.0221  0.1738
28746SOL    HW188680   7.355   9.318   6.453  0.3938  1.3445 -1.4124
28746SOL    HW288681   7.472   9.227   6.419 -0.2858 -0.3588  0.5984
28747SOL     OW88682   5.454   3.982   8.576 -0.1881 -0.3697  0.3069
28747SOL    HW188683   5.545   3.981   8.605 -0.6499  0.8525  1.8988
28747SOL    HW288684   5.427   3.890   8.581  1.2274 -0.9251 -1.2191
28748SOL     OW88685   2.006   9.360   2.800  0.3782  0.0442 -0.5019
28748SOL    HW188686   2.085   9.382   2.751  0.9193  0.6465  0.5944
28748SOL    HW288687   2.034   9.295   2.864  0.2658  1.0613  0.6204
28749SOL     OW88688   9.986   2.955   6.852 -0.4595  0.3273 -0.2025
28749SOL    HW188689   9.993   2.879   6.909  0.1332  1.0533  0.7085
28749SOL    HW288690  10.055   3.014   6.881 -0.5711  0.9931 -1.2428
28750SOL     OW88691   9.158   2.060   1.155  0.1938 -0.0107 -0.0917
28750SOL    HW188692   9.202   2.080   1.073  0.3699 -0.9994 -0.2589
28750SOL    HW288693   9.179   2.133   1.212 -1.4855  1.6495 -1.4882
28751SOL     OW88694   5.007   8.156   0.291  0.1848 -0.2611  1.0535
28751SOL    HW188695   4.926   8.113   0.261 -0.3625  0.7801  1.0168
28751SOL    HW288696   5.001   8.153   0.387  1.4429 -2.6529  1.1496
28752SOL     OW88697   8.340   3.957   2.142 -0.2013  0.0508 -0.5861
28752SOL    HW188698   8.255   3.914   2.157  0.3947 -1.0170 -0.1720
28752SOL    HW288699   8.401   3.885   2.128  0.7087  0.7999 -0.5796
28753SOL     OW88700   6.055   0.059   6.294 -0.2103 -0.0997 -0.8819
28753SOL    HW188701   6.015   0.137   6.254 -0.0709  0.6114  0.3282
28753SOL    HW288702   6.134   0.092   6.336  0.3821 -1.0827 -1.1910
28754SOL     OW88703   9.780   8.890   6.962 -0.1089  0.1155 -0.7364
28754SOL    HW188704   9.733   8.825   7.014 -2.3521  1.1494 -1.3641
28754SOL    HW288705   9.787   8.851   6.875 -0.8119  0.4051 -0.9271
28755SOL     OW88706   1.524   9.492   2.879  0.3851 -0.0933 -0.0605
28755SOL    HW188707   1.598   9.469   2.823  1.5323 -0.4296  1.5256
28755SOL    HW288708   1.497   9.410   2.918 -0.8742  0.0246 -0.6192
28756SOL     OW88709   9.890   7.691   4.541  0.4289 -0.1901 -0.0839
28756SOL    HW188710   9.823   7.629   4.513  1.2635 -0.9093 -0.5526
28756SOL    HW288711   9.863   7.719   4.628 -1.1310  0.4955 -0.7614
28757SOL     OW88712   5.284   6.997   7.369  0.0670  0.6020 -0.3785
28757SOL    HW188713   5.324   6.916   7.337 -1.4558  0.6137 -2.5487
28757SOL    HW288714   5.274   6.984   7.463  1.9475 -0.7540 -0.3152
28758SOL     OW88715   5.626   6.607   6.663 -0.0512 -0.0368 -0.2753
28758SOL    HW188716   5.667   6.600   6.577  0.7574  0.2826  0.0727
28758SOL    HW288717   5.611   6.516   6.691  0.9618 -0.1712 -0.1581
28759SOL     OW88718   5.657   3.738   3.020 -0.3057  0.0392 -0.8528
28759SOL    HW188719   5.690   3.651   3.041  0.7276  1.0780  2.4493
28759SOL    HW288720   5.562   3.729   3.020 -0.2074 -1.2335 -1.5813
28760SOL     OW88721   0.012   8.045   7.370  0.0597 -0.6423  0.4399
28760SOL    HW188722   0.055   8.045   7.284 -0.9072 -0.3769 -0.0646
28760SOL    HW288723  -0.014   7.954   7.383 -1.4119 -0.3755 -0.4158
28761SOL     OW88724   5.382   9.648   5.656  0.6500 -0.1517  0.2880
28761SOL    HW188725   5.415   9.617   5.572 -1.2214 -0.5151 -0.3522
28761SOL    HW288726   5.378   9.744   5.646 -0.8721 -0.2755 -0.5875
28762SOL     OW88727   2.196   7.870   1.341  0.0589 -0.2237  0.1978
28762SOL    HW188728   2.129   7.937   1.341 -0.6431 -0.8741  1.7057
28762SOL    HW288729   2.157   7.796   1.293  0.3875  0.0224 -0.4579
28763SOL     OW88730   0.402   2.982   0.461 -0.1786  0.3666  0.9787
28763SOL    HW188731   0.375   3.008   0.373  1.0600  0.2435  0.5409
28763SOL    HW288732   0.385   3.059   0.515 -2.4398 -0.0798  0.9872
28764SOL     OW88733   2.914   9.478   4.041 -0.6136  0.4254  0.2690
28764SOL    HW188734   2.970   9.402   4.025 -0.3786  0.6747 -0.1210
28764SOL    HW288735   2.952   9.520   4.118  1.3035  1.9968 -1.3925
28765SOL     OW88736  10.311   8.060   9.433  0.5650 -0.2272 -0.4965
28765SOL    HW188737  10.234   8.088   9.482  0.2917 -1.3776 -0.2461
28765SOL    HW288738  10.299   7.966   9.421  0.8953 -0.0727 -2.2883
28766SOL     OW88739   3.115  10.234   1.938  0.1681 -0.0059  0.4383
28766SOL    HW188740   3.105  10.317   1.891 -0.0791 -1.2327 -1.8117
28766SOL    HW288741   3.026  10.204   1.955  0.2499 -0.0439  0.8060
28767SOL     OW88742  10.335  10.380   0.921  0.0700  0.2484 -0.4946
28767SOL    HW188743  10.348  10.396   1.015 -0.7403 -1.7842  0.0221
28767SOL    HW288744  10.305  10.464   0.887 -0.0870  0.9128  1.1643
28768SOL     OW88745   5.045   5.980   2.811  0.5959  0.1173 -0.4724
28768SOL    HW188746   5.108   5.941   2.750  0.0730 -0.7027 -0.4961
28768SOL    HW288747   5.036   5.915   2.881  1.2206  1.0608  0.5207
28769SOL     OW88748  10.166   4.281   4.385 -0.3290  0.3075 -0.3489
28769SOL    HW188749  10.226   4.224   4.336 -0.7502  0.5750 -1.1916
28769SOL    HW288750  10.188   4.369   4.358 -1.2300  0.3992 -0.8259
28770SOL     OW88751   4.630   7.094   4.928 -0.0478  0.5714 -0.5913
28770SOL    HW188752   4.699   7.124   4.987  1.6479 -2.4317 -0.8194
28770SOL    HW288753   4.629   7.159   4.858  0.8386  1.9694  0.6285
28771SOL     OW88754   2.581  10.140   0.590  0.3236  0.1649  0.3787
28771SOL    HW188755   2.640  10.198   0.638  0.9448 -0.8720  0.9195
28771SOL    HW288756   2.639  10.087   0.535 -0.0214 -1.1899  1.2536
28772SOL     OW88757   4.194   2.880   1.193 -0.0983  0.3555  0.4355
28772SOL    HW188758   4.184   2.814   1.124 -0.2446  0.0711  0.7234
28772SOL    HW288759   4.271   2.930   1.167  1.1125 -1.0670  1.1337
28773SOL     OW88760   0.652  10.335   8.979  0.4627 -0.1052  0.4702
28773SOL    HW188761   0.635  10.426   8.952 -0.3196 -0.6772 -1.0718
28773SOL    HW288762   0.662  10.287   8.897  1.0341 -1.4039  1.2628
28774SOL     OW88763   0.759   1.406   2.936  0.2429  0.4195  0.2992
28774SOL    HW188764   0.770   1.492   2.976 -0.0247  1.1756 -1.2154
28774SOL    HW288765   0.679   1.371   2.975 -0.2474  1.3167  0.1103
28775SOL     OW88766   1.893   8.489   7.681  0.4459 -0.5127  0.2492
28775SOL    HW188767   1.872   8.398   7.663 -0.7757 -0.4869  1.3644
28775SOL    HW288768   1.896   8.494   7.777 -1.0791  0.9319  0.2625
28776SOL     OW88769  10.207   0.607   6.156 -0.5566  0.0348  0.0067
28776SOL    HW188770  10.274   0.600   6.224  0.4046  1.0359 -0.8047
28776SOL    HW288771  10.214   0.525   6.106  1.2574  0.8097 -1.1031
28777SOL     OW88772   3.135   9.084   5.333 -0.1415  0.2919  0.7076
28777SOL    HW188773   3.065   9.145   5.313 -2.1449 -1.8074  0.9087
28777SOL    HW288774   3.113   9.049   5.419  1.1550 -0.4485  0.7675
28778SOL     OW88775   9.524   8.633   9.184  0.0417  0.5508 -0.0311
28778SOL    HW188776   9.510   8.725   9.160  1.7257  1.3343  1.7709
28778SOL    HW288777   9.585   8.600   9.118 -1.5278  0.2964 -1.4300
28779SOL     OW88778   9.267   4.241   4.510  0.1753 -0.5490 -0.0021
28779SOL    HW188779   9.339   4.195   4.467  0.7463 -1.5473  1.8890
28779SOL    HW288780   9.190   4.188   4.489  0.4710 -1.1124  0.2954
28780SOL     OW88781   2.435   2.284   4.767  0.3674 -0.0125 -0.0109
28780SOL    HW188782   2.474   2.371   4.766  2.0438 -0.7161 -1.7374
28780SOL    HW288783   2.496   2.231   4.818 -0.2978 -0.3437  0.4557
28781SOL     OW88784   1.754   6.218  10.327  0.2174  0.3879  0.0472
28781SOL    HW188785   1.785   6.308  10.319 -0.4140  0.7979  1.8290
28781SOL    HW288786   1.701   6.204  10.248 -1.0479  2.1858  0.5114
28782SOL     OW88787   7.535   9.306   6.750  0.0837  0.0796  0.0776
28782SOL    HW188788   7.443   9.315   6.777 -0.0570  0.1800 -0.4298
28782SOL    HW288789   7.532   9.302   6.655  0.5586 -0.5038  0.0807
28783SOL     OW88790   1.709   8.072   7.335  0.3207  0.1837 -0.5303
28783SOL    HW188791   1.689   8.160   7.303  0.5043 -0.5436 -2.8099
28783SOL    HW288792   1.625   8.026   7.334  0.6491 -0.4403 -2.0405
28784SOL     OW88793   5.329   1.691   1.227 -0.2508  0.6729 -0.1275
28784SOL    HW188794   5.376   1.774   1.236  0.0095  0.5153 -0.0117
28784SOL    HW288795   5.323   1.677   1.133  1.4015 -0.1137 -0.1569
28785SOL     OW88796   3.370   4.126   4.145 -0.1712 -0.2327  0.2365
28785SOL    HW188797   3.405   4.102   4.060 -0.0014  0.6992  0.0313
28785SOL    HW288798   3.391   4.219   4.154  0.1596 -0.4076  1.4613
28786SOL     OW88799   1.782   1.946   1.261  0.3010  0.0683 -0.5552
28786SOL    HW188800   1.822   1.936   1.348 -0.5132 -0.1318 -0.1938
28786SOL    HW288801   1.825   1.878   1.208 -1.1906 -1.7710  0.4460
28787SOL     OW88802   7.499   3.567   8.781  0.4963  0.4067  0.4235
28787SOL    HW188803   7.464   3.554   8.869  0.4402  1.8918  0.6444
28787SOL    HW288804   7.593   3.577   8.795  1.0017 -2.6441 -0.0719
28788SOL     OW88805   1.644   0.552   1.547 -0.7912 -0.2701  0.0244
28788SOL    HW188806   1.718   0.538   1.488 -0.1328 -1.6023  1.1079
28788SOL    HW288807   1.605   0.465   1.559 -1.6827  0.1789  0.5594
28789SOL     OW88808   4.986   4.700   2.182  0.6762  0.0655  0.5613
28789SOL    HW188809   5.035   4.619   2.191  0.3877 -0.2244 -0.3813
28789SOL    HW288810   5.037   4.753   2.122 -1.5147 -1.4137 -2.9153
28790SOL     OW88811   9.914   5.999   8.200 -0.2291  0.2829 -0.1181
28790SOL    HW188812   9.998   6.009   8.155 -0.2121  0.5717 -0.0249
28790SOL    HW288813   9.850   5.993   8.129  0.0306 -1.6170 -0.2366
28791SOL     OW88814   9.352   0.317   2.957 -0.0793 -0.3341  0.3717
28791SOL    HW188815   9.368   0.298   2.865  0.1715  1.1442  0.1013
28791SOL    HW288816   9.263   0.354   2.959  0.1373  0.1744  0.6464
28792SOL     OW88817   8.537   5.182   0.828 -0.0934  0.0167  0.0361
28792SOL    HW188818   8.538   5.162   0.922  0.9262  0.3368  0.1040
28792SOL    HW288819   8.492   5.266   0.821  1.4605  0.9061  0.4424
28793SOL     OW88820   9.748   6.509   4.794 -0.6085  1.0036 -0.0684
28793SOL    HW188821   9.721   6.452   4.722 -2.8771  1.0935  0.6580
28793SOL    HW288822   9.694   6.587   4.785 -0.8429  1.0766  1.6266
28794SOL     OW88823   4.454   9.546   9.837  0.2046  0.3430  0.0824
28794SOL    HW188824   4.407   9.499   9.768  0.0935 -0.9129  0.9705
28794SOL    HW288825   4.395   9.544   9.912  0.6935  0.8785  0.4938
28795SOL     OW88826   2.042   7.401   6.416 -0.0219 -0.4081 -0.1554
28795SOL    HW188827   1.983   7.363   6.350 -0.9888  1.9987 -0.8023
28795SOL    HW288828   1.992   7.396   6.498 -0.2339 -0.3660 -0.2801
28796SOL     OW88829  10.434   3.588   6.266 -0.0187 -0.1046 -0.0143
28796SOL    HW188830  10.474   3.517   6.216  0.5707  0.5468 -0.4952
28796SOL    HW288831  10.421   3.658   6.201 -2.0497 -0.3175  0.0983
28797SOL     OW88832   6.158   0.759   4.394  0.4176  0.4101  0.1662
28797SOL    HW188833   6.128   0.820   4.462 -0.9289 -0.4267  0.3669
28797SOL    HW288834   6.209   0.693   4.441  0.3312  0.3795  0.2170
28798SOL     OW88835   6.954   9.215   2.990  0.9199 -0.1480  0.2287
28798SOL    HW188836   6.874   9.243   3.034  0.9792  1.5214 -0.6491
28798SOL    HW288837   6.928   9.140   2.937  0.8581 -2.2944  3.0585
28799SOL     OW88838   8.628   7.827   0.732 -0.3239 -0.3393 -0.4113
28799SOL    HW188839   8.555   7.888   0.724 -0.6734 -0.6746  0.1610
28799SOL    HW288840   8.589   7.740   0.717  0.3904 -0.3501 -2.4614
28800SOL     OW88841   0.407   7.878   5.948  0.6398 -0.2063  0.7131
28800SOL    HW188842   0.477   7.828   5.906  0.8631 -0.0920  0.9494
28800SOL    HW288843   0.376   7.821   6.018  0.7801 -0.0856  0.8748
28801SOL     OW88844   8.244   0.736   1.358  0.6784  0.1978 -0.0327
28801SOL    HW188845   8.223   0.730   1.265  0.5647  0.8033 -0.0490
28801SOL    HW288846   8.188   0.671   1.399  0.4330  0.2111 -0.3434
28802SOL     OW88847   2.486   9.807   0.115  0.1346  0.2792 -0.5972
28802SOL    HW188848   2.511   9.730   0.167 -0.4439 -1.5624 -2.8619
28802SOL    HW288849   2.398   9.787   0.083 -1.5725  3.5031  1.4857
28803SOL     OW88850   4.560   1.997   3.517  0.4540  0.3585  0.1068
28803SOL    HW188851   4.597   2.086   3.515 -0.1497  0.6431  1.0390
28803SOL    HW288852   4.496   1.997   3.446 -0.6757  1.2027  1.0735
28804SOL     OW88853   9.900   9.068   6.608 -0.2816 -0.2931 -0.1160
28804SOL    HW188854   9.960   9.001   6.641 -0.0802 -0.0986 -0.0827
28804SOL    HW288855   9.927   9.148   6.653 -0.6601 -0.2333  0.0069
28805SOL     OW88856  10.461   5.286   1.598  0.0832  0.1332  0.5916
28805SOL    HW188857  10.490   5.325   1.680  0.7996 -0.1749  0.4892
28805SOL    HW288858  10.538   5.287   1.542 -0.3135  0.0416  0.0321
28806SOL     OW88859   1.056   4.974   9.607  0.0678 -0.3682 -0.2497
28806SOL    HW188860   1.026   4.884   9.618  0.4230 -0.4625 -0.0539
28806SOL    HW288861   1.029   5.018   9.689  0.7289 -0.5270  0.0572
28807SOL     OW88862   4.634   5.587  10.241  0.0286 -0.3959 -0.3912
28807SOL    HW188863   4.650   5.535  10.162  0.1077  0.5501 -1.0255
28807SOL    HW288864   4.721   5.607  10.275  0.2318  2.0741 -2.0462
28808SOL     OW88865   9.731   7.516   1.490 -0.7725  0.3071  0.6988
28808SOL    HW188866   9.804   7.561   1.447 -0.7314  0.4321  0.8979
28808SOL    HW288867   9.678   7.482   1.418  0.9165 -2.1587  0.4993
28809SOL     OW88868   5.544   9.814   6.244  0.6290  0.1492 -0.4184
28809SOL    HW188869   5.490   9.849   6.172  0.3378  1.6610  0.4914
28809SOL    HW288870   5.623   9.783   6.201 -0.4539 -1.0515 -1.6537
28810SOL     OW88871   2.493   0.956   6.465 -0.3080  0.0235 -0.0168
28810SOL    HW188872   2.454   1.019   6.406  2.0749  1.2986 -0.3498
28810SOL    HW288873   2.438   0.959   6.543 -0.7076  1.9628 -0.3230
28811SOL     OW88874   9.109   4.936   5.680 -0.1192 -0.2517  0.0229
28811SOL    HW188875   9.096   5.021   5.723 -0.3776 -0.8935  1.2578
28811SOL    HW288876   9.114   4.957   5.587  0.5395  1.1971  0.3569
28812SOL     OW88877   5.535   7.238   4.362 -0.2254  0.1569  0.3873
28812SOL    HW188878   5.492   7.316   4.396  0.0525  0.3280  0.3506
28812SOL    HW288879   5.623   7.267   4.340  0.2690 -0.4405  1.4776
28813SOL     OW88880   7.317   7.282   5.379 -0.6223  0.1250  0.2031
28813SOL    HW188881   7.381   7.353   5.368 -1.1006  0.6794  0.9062
28813SOL    HW288882   7.249   7.301   5.314 -0.5401  0.0786  0.1047
28814SOL     OW88883   8.568   6.052   7.398  0.6919  0.7122 -0.4467
28814SOL    HW188884   8.475   6.075   7.407 -0.1831 -1.1890 -3.4817
28814SOL    HW288885   8.573   5.961   7.425  1.4689  0.5014 -1.2598
28815SOL     OW88886   3.373   2.794   8.955  0.1080 -0.2448  0.1711
28815SOL    HW188887   3.434   2.724   8.933  3.4056  2.8156 -1.4761
28815SOL    HW288888   3.368   2.793   9.051  1.4649 -1.6487  0.2612
28816SOL     OW88889   6.118   8.652   0.323 -0.0411  0.2068  0.2276
28816SOL    HW188890   6.213   8.657   0.331  0.1220  0.1833 -1.3111
28816SOL    HW288891   6.086   8.647   0.413  1.5220 -2.1658  0.7240
28817SOL     OW88892   2.180   6.817   5.264  0.1464  0.4827 -0.0329
28817SOL    HW188893   2.189   6.880   5.192 -1.0716  1.1339  0.3713
28817SOL    HW288894   2.086   6.799   5.269  0.4675 -1.5627 -0.2849
28818SOL     OW88895   7.393   9.760   5.461  0.0674 -0.0478 -0.1160
28818SOL    HW188896   7.330   9.782   5.530 -0.2112 -1.5989  0.1540
28818SOL    HW288897   7.479   9.769   5.503  0.0589  1.7683 -0.3992
28819SOL     OW88898   3.538   0.622   4.087 -0.7454 -0.2505 -0.6284
28819SOL    HW188899   3.573   0.689   4.027  1.1014 -1.0046 -0.4656
28819SOL    HW288900   3.509   0.671   4.164  1.5584  0.3200 -0.0625
28820SOL     OW88901   7.333   6.386  10.357  0.1742  0.0521  0.1679
28820SOL    HW188902   7.385   6.372  10.278 -1.3749  1.4381 -1.1814
28820SOL    HW288903   7.356   6.313  10.414  1.6100 -0.8077 -1.4087
28821SOL     OW88904   0.514   7.144   8.176 -0.3998  0.0768 -0.4119
28821SOL    HW188905   0.466   7.161   8.094  1.5519 -1.9369 -2.0819
28821SOL    HW288906   0.599   7.185   8.163 -0.3039  0.3442  0.9460
28822SOL     OW88907   9.248   4.281   0.872 -0.6789 -0.2840 -0.0383
28822SOL    HW188908   9.218   4.363   0.833  1.2002 -0.7475 -2.6981
28822SOL    HW288909   9.330   4.303   0.915 -0.1228 -0.7672 -0.8363
28823SOL     OW88910   7.213   2.666  10.430  0.4392 -0.1104 -0.5278
28823SOL    HW188911   7.128   2.685  10.390 -0.2729 -0.5585  0.7256
28823SOL    HW288912   7.273   2.656  10.356 -0.8006 -0.7612 -1.4698
28824SOL     OW88913   5.659   2.463   1.300 -0.0115  0.2677 -0.1068
28824SOL    HW188914   5.698   2.378   1.280  1.6932  1.0936 -0.4438
28824SOL    HW288915   5.571   2.458   1.264  0.5002 -0.9169 -1.2673
28825SOL     OW88916   3.152   1.233   0.731  0.2032 -0.5785  0.1903
28825SOL    HW188917   3.103   1.279   0.800 -0.1679 -1.8262  0.7810
28825SOL    HW288918   3.187   1.303   0.677  0.1848  0.4408  1.4331
28826SOL     OW88919   8.414   9.742   3.557 -0.1188 -0.0218 -0.5525
28826SOL    HW188920   8.392   9.747   3.464 -1.6264 -0.3865 -0.2495
28826SOL    HW288921   8.334   9.769   3.602 -0.2331 -2.1376  0.6529
28827SOL     OW88922   8.109   0.600   1.820  0.0550 -0.4297 -0.5105
28827SOL    HW188923   8.151   0.679   1.784  1.1078 -1.3267 -1.3194
28827SOL    HW288924   8.181   0.551   1.859 -0.8277 -0.2543  1.4772
28828SOL     OW88925   4.077   9.059   2.791 -0.4193 -0.0965  0.2390
28828SOL    HW188926   4.066   9.084   2.699  1.7320  0.3130  0.0329
28828SOL    HW288927   4.027   9.125   2.839  1.3190  1.8969 -0.5232
28829SOL     OW88928   4.266   1.912   9.423 -0.7032  0.0745  0.7118
28829SOL    HW188929   4.351   1.951   9.444 -0.6702  0.8558 -0.7397
28829SOL    HW288930   4.283   1.856   9.348 -1.4250 -0.0040  0.6009
28830SOL     OW88931   8.307   0.257   0.166 -0.8495 -0.4755  0.3621
28830SOL    HW188932   8.359   0.197   0.221  0.6465  0.8565  0.4716
28830SOL    HW288933   8.220   0.218   0.164  0.1596 -2.8907  0.0809
28831SOL     OW88934   7.787   7.916   7.176  0.2532  0.5467 -0.5341
28831SOL    HW188935   7.729   7.978   7.131  0.0986  0.1401 -0.8998
28831SOL    HW288936   7.862   7.907   7.117 -0.5179 -0.9573 -1.3489
28832SOL     OW88937   6.247   2.187  10.233 -0.6893 -0.1683  0.0771
28832SOL    HW188938   6.174   2.231  10.278  0.0034 -0.0486  1.1165
28832SOL    HW288939   6.323   2.203  10.290  0.8579  2.3328 -2.3942
28833SOL     OW88940   2.306   2.243   0.304 -0.2329  0.1734 -0.5664
28833SOL    HW188941   2.325   2.327   0.261 -0.9155  0.5940 -0.0639
28833SOL    HW288942   2.214   2.248   0.327 -0.0662 -0.3690  0.2463
28834SOL     OW88943   2.103   8.407   2.102  0.1490 -0.0992 -0.5966
28834SOL    HW188944   2.150   8.487   2.127 -2.3134  1.0412  0.8043
28834SOL    HW288945   2.052   8.431   2.025 -2.5694  0.6339  1.2662
28835SOL     OW88946   6.124   6.768   4.423  0.2307 -0.1703  0.7035
28835SOL    HW188947   6.138   6.808   4.509  0.5608  0.4750  0.3596
28835SOL    HW288948   6.042   6.805   4.392  0.4974  0.1922  0.4175
28836SOL     OW88949   3.377   4.122   1.977  0.3068  0.0805 -0.5218
28836SOL    HW188950   3.412   4.209   1.960  0.1054 -0.0421 -1.6371
28836SOL    HW288951   3.414   4.067   1.908  0.6007 -0.7684  0.2931
28837SOL     OW88952   7.496   3.435   1.366  0.2611  0.6147 -0.0135
28837SOL    HW188953   7.552   3.361   1.343 -1.2716 -0.0395 -1.8701
28837SOL    HW288954   7.469   3.416   1.456  3.8493  1.5881  1.4637
28838SOL     OW88955   4.005   7.373   1.730 -0.0068  0.2413  0.1991
28838SOL    HW188956   3.977   7.458   1.695  0.2437  0.1019 -0.3503
28838SOL    HW288957   3.947   7.358   1.805 -1.0399  0.2222 -0.5684
28839SOL     OW88958   3.033   3.551   1.208  0.0048 -0.8039  0.0479
28839SOL    HW188959   3.017   3.645   1.205 -0.9719 -0.9807 -0.5353
28839SOL    HW288960   3.099   3.536   1.139 -0.4966 -0.6654 -0.4699
28840SOL     OW88961   2.865   2.624   6.038  0.3230 -0.3619  0.1713
28840SOL    HW188962   2.783   2.670   6.021  0.6646  0.1334 -0.1543
28840SOL    HW288963   2.844   2.532   6.025 -0.5019 -0.3714  1.3282
28841SOL     OW88964   7.761   7.929   2.712 -0.1910  0.2289  0.2992
28841SOL    HW188965   7.789   7.875   2.638 -1.4474  0.3177 -0.2662
28841SOL    HW288966   7.834   7.925   2.773  1.6128  1.4579 -1.6153
28842SOL     OW88967   9.956   4.048   4.649  0.1643  0.0058  0.0287
28842SOL    HW188968  10.049   4.042   4.671  0.8712 -1.3183 -2.8691
28842SOL    HW288969   9.945   4.136   4.615 -0.0013  0.6262  1.6042
28843SOL     OW88970   7.189   2.411   3.056 -0.3312 -0.3266 -0.1093
28843SOL    HW188971   7.136   2.428   2.979  2.3028  2.6818 -1.4807
28843SOL    HW288972   7.280   2.412   3.024  0.7840 -1.2303  2.6821
28844SOL     OW88973   9.221   7.555   2.519  0.3011  0.3349 -0.3077
28844SOL    HW188974   9.310   7.584   2.538  0.5743 -0.7931  0.2075
28844SOL    HW288975   9.167   7.633   2.535  1.2115  1.1035 -0.8881
28845SOL     OW88976   9.905   5.418   7.418 -0.2139  0.0825 -0.1050
28845SOL    HW188977   9.919   5.341   7.362  0.1481 -0.0418  0.1583
28845SOL    HW288978   9.971   5.481   7.389  0.0297 -0.0131  0.2346
28846SOL     OW88979   9.084   1.124   4.363  0.5071 -0.2021 -0.0542
28846SOL    HW188980   9.054   1.160   4.447 -0.5455 -1.9696  0.3865
28846SOL    HW288981   9.168   1.084   4.383  1.2854  1.2081 -0.3628
28847SOL     OW88982   7.633   9.942   4.781 -0.3077 -0.5212  0.1419
28847SOL    HW188983   7.656   9.858   4.742  1.6044 -0.3589  0.8363
28847SOL    HW288984   7.683   9.945   4.862 -2.1532  0.2939  1.3146
28848SOL     OW88985   4.954   8.780   6.742 -0.6675  0.0265 -0.6927
28848SOL    HW188986   5.038   8.766   6.699 -0.6005  0.3341 -0.6645
28848SOL    HW288987   4.955   8.872   6.768  0.2432 -0.6697  2.0060
28849SOL     OW88988   9.551   7.746   9.409  0.2096 -0.6166 -0.0702
28849SOL    HW188989   9.519   7.817   9.354  1.0837 -0.8167 -0.8646
28849SOL    HW288990   9.564   7.787   9.495 -1.2473 -0.3261  0.0430
28850SOL     OW88991   0.076   5.939   0.513  0.3589  0.2295  0.2665
28850SOL    HW188992   0.160   5.950   0.468  0.9803  0.8575  1.5035
28850SOL    HW288993   0.065   6.020   0.563  0.5433 -1.0318  2.5194
28851SOL     OW88994   0.780   2.755   8.109 -0.5509 -0.4866  0.1476
28851SOL    HW188995   0.813   2.669   8.135  0.6755 -0.4462 -1.1321
28851SOL    HW288996   0.725   2.738   8.033 -1.3608 -0.2473  0.6586
28852SOL     OW88997   0.268   7.784   8.727  0.1720  0.2126 -0.2711
28852SOL    HW188998   0.244   7.703   8.683  2.1822  0.9407 -2.9657
28852SOL    HW288999   0.208   7.849   8.690 -1.2552  0.0817  1.6782
28853SOL     OW89000   6.089   0.402   5.936  0.0531  0.0048  0.1327
28853SOL    HW189001   6.058   0.366   6.020  1.3404 -1.3431  0.0661
28853SOL    HW289002   6.021   0.379   5.874 -0.6799  0.5734  0.7069
28854SOL     OW89003   0.601   5.858   1.600 -0.1893 -0.3706  0.3734
28854SOL    HW189004   0.627   5.801   1.528  0.7017 -1.1411  1.2667
28854SOL    HW289005   0.509   5.837   1.616 -0.7883  0.7405 -1.3491
28855SOL     OW89006   2.445   8.809   1.815  0.1829  0.2937 -0.1050
28855SOL    HW189007   2.450   8.748   1.741 -0.3846  0.1342 -0.0157
28855SOL    HW289008   2.443   8.753   1.893  1.2517  0.4720  0.0688
28856SOL     OW89009   4.065   2.479   1.406  0.3976 -0.4817 -0.0639
28856SOL    HW189010   4.009   2.430   1.346 -0.3835  1.3592 -0.9315
28856SOL    HW289011   4.005   2.539   1.451  1.3632  0.0025  0.6211
28857SOL     OW89012   6.053   0.821   5.613 -0.3856  0.3642  0.1065
28857SOL    HW189013   6.129   0.788   5.565 -1.1128  0.1801 -0.9501
28857SOL    HW289014   6.075   0.808   5.705  0.5915 -0.2749 -0.2041
28858SOL     OW89015   3.527   9.818   5.326 -0.0131 -0.2611 -0.0109
28858SOL    HW189016   3.500   9.902   5.363  1.0834  0.2359 -0.3078
28858SOL    HW289017   3.445   9.769   5.316 -1.0816  1.7514 -2.2838
28859SOL     OW89018   9.119   6.118   4.759  0.0103 -0.6787  1.0319
28859SOL    HW189019   9.073   6.202   4.752 -2.0626 -1.8657 -1.2368
28859SOL    HW289020   9.212   6.142   4.759 -0.4172  1.6131 -1.7590
28860SOL     OW89021  10.202   3.260   7.857  0.7513  0.9742  0.5403
28860SOL    HW189022  10.239   3.245   7.770  1.0142 -0.2210  0.8432
28860SOL    HW289023  10.108   3.267   7.843  0.7966  0.8424  0.1636
28861SOL     OW89024   3.871   4.760   5.309 -0.1741  0.3947 -0.2432
28861SOL    HW189025   3.788   4.724   5.280 -0.0367 -0.1305 -0.0001
28861SOL    HW289026   3.929   4.684   5.317  0.4591  0.8045 -0.8256
28862SOL     OW89027   6.098   1.177   6.305 -0.1227 -0.1671 -0.2801
28862SOL    HW189028   6.139   1.234   6.240 -0.3272 -0.5458 -0.7461
28862SOL    HW289029   6.160   1.105   6.316 -0.3246 -0.3671 -0.4421
28863SOL     OW89030   0.925   1.698   9.237  0.0753  0.4426  0.1570
28863SOL    HW189031   0.979   1.650   9.174 -0.5121  0.5600 -0.4521
28863SOL    HW289032   0.946   1.660   9.322  0.5296 -0.0440 -0.1724
28864SOL     OW89033   9.718   5.980   4.719  0.2943 -0.2431  0.1090
28864SOL    HW189034   9.755   6.068   4.720  0.9828 -0.5349  0.9890
28864SOL    HW289035   9.633   5.988   4.763  0.2276  0.0269 -0.0676
28865SOL     OW89036   2.546   4.084   8.514 -0.6060  0.0611 -0.5766
28865SOL    HW189037   2.570   4.077   8.607 -1.0057  0.2230 -0.4616
28865SOL    HW289038   2.618   4.132   8.474 -0.3000 -0.2493 -0.4016
28866SOL     OW89039   5.727   7.454   8.512  0.3241  0.1087 -0.2018
28866SOL    HW189040   5.745   7.362   8.531  1.4881  0.3041 -0.2834
28866SOL    HW289041   5.775   7.472   8.431 -0.6643  0.5446 -0.7069
28867SOL     OW89042   6.649   5.309   5.627 -0.1803  0.2619 -0.2394
28867SOL    HW189043   6.588   5.374   5.593  0.5868  1.2011  0.1147
28867SOL    HW289044   6.734   5.354   5.628  0.2695 -0.5672  0.5342
28868SOL     OW89045   8.156   7.728   6.464 -0.2444 -0.1703  0.7531
28868SOL    HW189046   8.229   7.771   6.509 -0.6159  0.4751  0.7561
28868SOL    HW289047   8.193   7.701   6.380 -0.2589  1.1022  0.3067
28869SOL     OW89048   9.327   2.514   2.474  0.6068 -0.0425 -0.8351
28869SOL    HW189049   9.376   2.434   2.492  0.5273  0.3256  1.3445
28869SOL    HW289050   9.237   2.494   2.501 -0.1715 -0.1768 -3.2449
28870SOL     OW89051   3.827   8.861   6.711 -0.0230 -0.1297 -0.1239
28870SOL    HW189052   3.870   8.887   6.630  0.1020 -1.7299 -0.6050
28870SOL    HW289053   3.862   8.921   6.777  2.0414 -0.5909 -0.7202
28871SOL     OW89054   0.106   0.404   2.516  0.4334  0.0278 -0.2761
28871SOL    HW189055   0.190   0.446   2.535  0.6005  0.5610 -1.9626
28871SOL    HW289056   0.041   0.473   2.532  0.1809 -0.6306  1.8514
28872SOL     OW89057   3.376   7.682   7.277  0.2382  0.2860  0.1811
28872SOL    HW189058   3.432   7.613   7.313  1.5867  1.4411  0.3596
28872SOL    HW289059   3.347   7.647   7.193 -0.4036 -1.1404  0.9456
28873SOL     OW89060   2.606   4.445   6.233 -0.4923  0.4477  0.2750
28873SOL    HW189061   2.565   4.364   6.203  1.2141 -0.8321  1.2630
28873SOL    HW289062   2.551   4.474   6.306 -0.7938 -0.0925  0.2666
28874SOL     OW89063   2.960   5.090   4.057  0.2172 -0.3049 -0.1533
28874SOL    HW189064   3.032   5.113   4.116  1.0252  0.0604 -1.2569
28874SOL    HW289065   2.993   5.015   4.007  0.9202  1.4816 -2.5229
28875SOL     OW89066   3.878   1.715  10.294  0.2845  0.0893  0.3606
28875SOL    HW189067   3.786   1.694  10.312 -0.3418  0.8259 -1.7115
28875SOL    HW289068   3.927   1.653  10.347 -1.4341 -2.1593 -0.4932
28876SOL     OW89069   2.121   8.593   0.493  0.1722  0.2849  0.4798
28876SOL    HW189070   2.190   8.526   0.495  0.1942  0.2906 -0.1138
28876SOL    HW289071   2.154   8.662   0.550  2.0421  1.6310 -2.0450
28877SOL     OW89072   1.968   4.452   7.473  0.5435  0.0135 -0.2866
28877SOL    HW189073   2.033   4.490   7.532  1.2213 -0.4047 -0.7429
28877SOL    HW289074   2.001   4.471   7.385 -0.1019  0.0416 -0.5276
28878SOL     OW89075   0.424   8.911   1.009 -0.5623 -0.3104  0.0095
28878SOL    HW189076   0.440   8.838   1.069 -2.2295  0.5457  1.6172
28878SOL    HW289077   0.342   8.888   0.964  0.4937 -0.7860 -1.7867
28879SOL     OW89078   6.088   7.537   9.347 -0.1729 -0.1132  0.2540
28879SOL    HW189079   6.135   7.597   9.404 -0.0426  0.0938 -0.0694
28879SOL    HW289080   6.073   7.587   9.267  0.3529 -0.6663 -0.1963
28880SOL     OW89081   4.772   9.993   5.183  0.6110 -0.1315 -0.2095
28880SOL    HW189082   4.809  10.003   5.270 -0.2645 -1.9849  0.4420
28880SOL    HW289083   4.763  10.082   5.150  1.4688  0.5807  1.3624
28881SOL     OW89084   9.896   8.248   5.295  0.4146  0.1545 -0.1575
28881SOL    HW189085   9.824   8.224   5.236  0.0888  2.2258 -0.6696
28881SOL    HW289086   9.968   8.190   5.269 -0.9517 -1.8204  0.2217
28882SOL     OW89087   6.143   5.011   2.433 -0.5066  0.2625  0.2470
28882SOL    HW189088   6.082   5.063   2.381 -0.8478 -0.0587  0.3263
28882SOL    HW289089   6.088   4.950   2.482 -0.0447 -0.9629 -0.7040
28883SOL     OW89090  10.351   7.281   9.717  0.6428 -0.6609  0.3382
28883SOL    HW189091  10.392   7.279   9.630 -2.6678 -1.6115 -1.3735
28883SOL    HW289092  10.299   7.201   9.720 -0.3307 -0.0023  2.6938
28884SOL     OW89093   3.841   4.480   5.613 -0.1105 -0.4072  0.1489
28884SOL    HW189094   3.923   4.520   5.644 -1.7244  1.0121  3.0911
28884SOL    HW289095   3.784   4.555   5.594 -1.8649 -1.2655  1.7344
28885SOL     OW89096   1.382   8.009   1.139 -0.0762  0.2471 -0.0388
28885SOL    HW189097   1.470   8.034   1.167 -0.3498  0.9309  0.2254
28885SOL    HW289098   1.389   7.916   1.118  0.8542  0.4311 -0.5917
28886SOL     OW89099   3.987   4.095   9.996 -0.0483 -0.2682 -0.1256
28886SOL    HW189100   4.054   4.105  10.063  0.5754  0.0249 -0.7826
28886SOL    HW289101   3.906   4.081  10.045  0.2242  0.9368  0.7122
28887SOL     OW89102   8.825   5.964   4.494 -0.1958  0.0708 -0.1398
28887SOL    HW189103   8.848   6.037   4.437 -1.1057 -0.2503 -0.9392
28887SOL    HW289104   8.731   5.975   4.511 -0.8898 -2.0892 -2.0718
28888SOL     OW89105   6.960   3.885   5.675  0.6091 -0.2418  0.2385
28888SOL    HW189106   6.968   3.920   5.586 -0.4889  1.0873  0.6294
28888SOL    HW289107   6.887   3.824   5.670  0.8150 -0.4810  0.1396
28889SOL     OW89108   3.462   5.179   8.972 -0.2180 -0.6198 -0.4240
28889SOL    HW189109   3.466   5.231   9.053 -0.6597  0.5238 -1.1192
28889SOL    HW289110   3.412   5.232   8.911 -1.5424 -2.2901 -0.8858
28890SOL     OW89111   1.281   4.299   3.661 -0.3924 -0.5558 -0.2466
28890SOL    HW189112   1.229   4.351   3.722 -1.0946 -1.6042  0.0901
28890SOL    HW289113   1.304   4.359   3.590  0.2918  0.6577  0.9426
28891SOL     OW89114   1.996   6.583   7.437 -0.1684  0.0047 -0.2319
28891SOL    HW189115   1.993   6.488   7.450 -1.4796  0.3915  3.5800
28891SOL    HW289116   2.089   6.605   7.442  0.1266 -1.0426 -0.8955
28892SOL     OW89117   8.062   9.186  10.172  0.2996 -0.3356  0.0406
28892SOL    HW189118   8.070   9.281  10.166  1.6640 -0.3842  0.8810
28892SOL    HW289119   7.967   9.170  10.165  0.1570  0.9450 -1.6446
28893SOL     OW89120   7.916   0.696   6.731  0.4494 -0.2460 -0.1521
28893SOL    HW189121   7.930   0.677   6.638  1.1051 -0.7236  0.0388
28893SOL    HW289122   7.831   0.657   6.750  0.2357 -0.0019 -0.5900
28894SOL     OW89123  10.120   3.120   4.611 -0.3847  1.2842 -0.4355
28894SOL    HW189124  10.064   3.124   4.533 -1.6978  1.4662  0.4870
28894SOL    HW289125  10.134   3.027   4.627 -0.6443  1.2303 -0.5239
28895SOL     OW89126   0.671   1.991   2.215  0.3485 -0.3583 -0.4455
28895SOL    HW189127   0.737   1.937   2.172 -0.3521 -0.1209 -1.8986
28895SOL    HW289128   0.624   1.931   2.273  0.7328 -0.8951 -0.6795
28896SOL     OW89129   5.802   1.655   5.886 -0.0065  0.3615 -0.3081
28896SOL    HW189130   5.775   1.610   5.806  1.5139 -0.1320 -0.5700
28896SOL    HW289131   5.733   1.635   5.949 -1.6444  1.4072 -1.6807
28897SOL     OW89132   2.910   1.612   4.588  0.4707 -0.0828 -0.3754
28897SOL    HW189133   2.956   1.694   4.572 -0.5510  1.0018  1.7395
28897SOL    HW289134   2.956   1.573   4.662 -0.7514  0.0424  0.4885
28898SOL     OW89135   8.458   4.804   1.658 -0.6376 -0.2613 -0.3599
28898SOL    HW189136   8.456   4.712   1.685 -0.4449  0.2412  1.4457
28898SOL    HW289137   8.550   4.821   1.636 -0.8247 -0.7139 -1.5990
28899SOL     OW89138   9.584   9.313   2.339  0.2461  0.3494  0.5890
28899SOL    HW189139   9.537   9.326   2.421  0.4700 -0.7048  0.9019
28899SOL    HW289140   9.603   9.402   2.307  0.5369  0.7711  1.8956
28900SOL     OW89141   0.737   6.803   1.149 -0.0777  0.0191  0.2676
28900SOL    HW189142   0.798   6.754   1.094  0.1269  0.3475  0.1985
28900SOL    HW289143   0.652   6.765   1.130 -0.2510  1.1624 -1.4744
28901SOL     OW89144   8.647   5.723   5.289 -0.1892 -0.1879  0.6027
28901SOL    HW189145   8.606   5.722   5.203 -0.5169 -2.8510  0.6979
28901SOL    HW289146   8.688   5.637   5.297  2.9599  1.2959  1.7145
28902SOL     OW89147   8.950   3.383   3.428  0.5417 -0.4040 -0.0350
28902SOL    HW189148   9.010   3.424   3.490 -0.5461  0.2151  0.6326
28902SOL    HW289149   8.961   3.433   3.347 -0.4951  1.0246  0.6593
28903SOL     OW89150   9.103   9.124   8.176  0.1237  0.0667 -0.2041
28903SOL    HW189151   9.078   9.055   8.238  0.6200 -0.3841 -0.5041
28903SOL    HW289152   9.031   9.187   8.181 -0.8235 -0.9481 -0.6545
28904SOL     OW89153   7.579   7.176   2.979 -0.7695  0.2090 -0.0118
28904SOL    HW189154   7.637   7.182   3.055 -0.4014  3.5299 -0.3994
28904SOL    HW289155   7.565   7.082   2.966 -0.0705 -0.5069  3.5299
28905SOL     OW89156   4.198   4.856   4.556 -0.1013 -0.7488  0.7637
28905SOL    HW189157   4.293   4.848   4.564  0.5439  1.0905 -2.9031
28905SOL    HW289158   4.173   4.784   4.498 -0.8891 -0.9208  1.3046
28906SOL     OW89159   6.518   2.698   0.223 -0.3542  0.2389  0.4269
28906SOL    HW189160   6.504   2.619   0.276  0.5894 -0.7478 -0.7220
28906SOL    HW289161   6.589   2.745   0.268  1.2324 -1.1655 -0.4970
28907SOL     OW89162   9.691   7.756   3.621 -0.2842 -0.8125 -0.1702
28907SOL    HW189163   9.696   7.682   3.561  0.9605 -0.9135  0.0289
28907SOL    HW289164   9.672   7.717   3.706  0.8787 -0.9740  0.0301
28908SOL     OW89165   7.451   7.083   2.571  0.2755  0.2337 -0.2405
28908SOL    HW189166   7.427   7.007   2.518  0.6114  0.3340 -0.5378
28908SOL    HW289167   7.385   7.085   2.641  1.3662 -1.4991  0.9410
28909SOL     OW89168   3.633   0.528   1.049  0.8272 -0.1342  0.3787
28909SOL    HW189169   3.680   0.604   1.084  1.3706 -0.9641  1.5101
28909SOL    HW289170   3.692   0.492   0.983  1.2740 -0.4833  0.9593
28910SOL     OW89171   1.146   5.401   1.467  0.4814  0.1302 -0.0907
28910SOL    HW189172   1.116   5.436   1.383  0.6357  0.1053 -0.1550
28910SOL    HW289173   1.144   5.476   1.526 -2.4463 -0.3975  0.6432
28911SOL     OW89174   1.932   7.680   1.853 -0.9863  0.5224 -0.5940
28911SOL    HW189175   2.000   7.744   1.870 -0.6534 -0.1411  0.7414
28911SOL    HW289176   1.914   7.640   1.938 -1.1583 -1.1649 -1.3604
28912SOL     OW89177  10.212   4.355   2.232  0.3103  0.0419 -0.3842
28912SOL    HW189178  10.156   4.300   2.178  1.3339 -0.9731 -0.4549
28912SOL    HW289179  10.213   4.312   2.317 -0.0917  0.8083  0.0208
28913SOL     OW89180   6.312   7.716   8.376 -0.7496 -0.0038  0.0974
28913SOL    HW189181   6.392   7.765   8.394  0.3215 -0.2169 -3.3533
28913SOL    HW289182   6.338   7.624   8.387 -1.2644 -0.0244  1.3330
28914SOL     OW89183   6.124   9.633   8.753 -0.1319  0.3704  0.7117
28914SOL    HW189184   6.060   9.590   8.809 -1.1777  0.2645 -0.5134
28914SOL    HW289185   6.152   9.710   8.802 -1.8843  0.9204  0.9200
28915SOL     OW89186  10.284   2.952   0.872  0.1706 -0.6069  0.5233
28915SOL    HW189187  10.245   2.903   0.800  0.7397 -0.3594  0.0372
28915SOL    HW289188  10.362   2.902   0.896  1.3625  0.5736 -0.6928
28916SOL     OW89189   6.797   4.797   1.121 -0.2999  0.2614  0.3655
28916SOL    HW189190   6.743   4.738   1.174  0.9156 -1.3238 -0.0655
28916SOL    HW289191   6.868   4.823   1.180  0.3432 -0.4737 -0.0563
28917SOL     OW89192   7.682   6.937   5.544  0.0978 -0.1505  0.3883
28917SOL    HW189193   7.748   6.877   5.510 -0.7194 -0.7833 -0.1313
28917SOL    HW289194   7.669   7.001   5.474  0.6360  0.3684  0.7573
28918SOL     OW89195   7.740   9.939  10.286 -0.6891 -0.1046  0.2358
28918SOL    HW189196   7.700   9.948  10.200  1.4349 -2.0150 -1.0689
28918SOL    HW289197   7.788  10.021  10.300 -1.6768  0.5276 -0.0098
28919SOL     OW89198   1.721   2.085   2.274  0.5058  0.3807  0.3499
28919SOL    HW189199   1.702   2.073   2.368  0.1400 -1.7702  0.0557
28919SOL    HW289200   1.659   2.028   2.230  0.6487  1.4002 -1.2394
28920SOL     OW89201   8.152   2.048   1.461 -0.5386 -0.8075 -0.1314
28920SOL    HW189202   8.188   2.132   1.485 -2.6277 -0.0314  0.5367
28920SOL    HW289203   8.211   1.983   1.499  0.7374  0.3441 -0.1114
28921SOL     OW89204   7.893   0.408   2.240  0.1270 -0.2199 -0.6386
28921SOL    HW189205   7.980   0.408   2.279 -0.0606  0.6661 -0.1871
28921SOL    HW289206   7.834   0.385   2.313 -0.0376 -0.5936 -0.8880
28922SOL     OW89207   6.065   1.813   4.434 -0.6848 -0.0459  0.1950
28922SOL    HW189208   6.114   1.764   4.367 -0.8208 -1.1300  0.8733
28922SOL    HW289209   6.121   1.888   4.453 -1.5972  1.5390 -2.6939
28923SOL     OW89210   2.127   9.867   6.278  0.6426 -0.3496 -0.6171
28923SOL    HW189211   2.172   9.913   6.208 -0.7490 -2.3730 -3.0142
28923SOL    HW289212   2.053   9.924   6.300  0.8885  0.1415 -1.0327
28924SOL     OW89213   5.552   1.663   9.349 -0.1025 -0.4674  0.0807
28924SOL    HW189214   5.629   1.654   9.405 -0.1095 -0.8828  0.0258
28924SOL    HW289215   5.581   1.718   9.277 -0.1596  0.2774  0.6172
28925SOL     OW89216   8.271   1.895   2.790 -0.3636 -0.2159  0.4622
28925SOL    HW189217   8.343   1.953   2.765 -0.2825 -0.8153 -0.7591
28925SOL    HW289218   8.220   1.885   2.710 -1.2351 -0.6189  1.0559
28926SOL     OW89219   4.866   7.028   3.171 -0.0551  0.0587  0.6198
28926SOL    HW189220   4.896   7.090   3.237 -0.7606  0.8531  0.2120
28926SOL    HW289221   4.772   7.018   3.188  0.0134 -0.7675  0.5658
28927SOL     OW89222   1.421   6.247   5.544  0.5179 -0.3787  0.2213
28927SOL    HW189223   1.503   6.235   5.592  0.2565  1.5510  1.2472
28927SOL    HW289224   1.427   6.335   5.507  0.0020 -1.2147 -1.9679
28928SOL     OW89225   6.160   3.052   8.784  0.0481  0.0040 -0.1944
28928SOL    HW189226   6.166   3.003   8.702  0.8173 -4.4743  2.1988
28928SOL    HW289227   6.250   3.077   8.805 -0.1141  0.9202 -0.5575
28929SOL     OW89228   6.190   8.494   1.505 -0.0290  0.3751 -0.2515
28929SOL    HW189229   6.229   8.473   1.589  0.3511  1.3060 -0.1864
28929SOL    HW289230   6.244   8.449   1.440  0.1954  0.3694 -0.0572
28930SOL     OW89231   5.354   2.029   1.879 -0.1948  0.1657 -0.4282
28930SOL    HW189232   5.308   2.095   1.931 -1.8602 -1.1727 -0.1135
28930SOL    HW289233   5.311   2.033   1.793  0.5460  0.3290 -0.7984
28931SOL     OW89234   9.554   8.271   0.940  0.4103  0.1671 -0.0793
28931SOL    HW189235   9.582   8.221   1.016 -0.1865  2.1058  1.4879
28931SOL    HW289236   9.607   8.351   0.943 -2.1439  1.9759  0.5104
28932SOL     OW89237   8.797   2.300   8.397 -0.0208  0.1788  0.1876
28932SOL    HW189238   8.767   2.213   8.373 -1.0065  0.4353  0.4281
28932SOL    HW289239   8.834   2.337   8.317 -0.7472  0.0022 -0.2334
28933SOL     OW89240   5.300   1.617   4.168 -0.1309  0.0363  0.1799
28933SOL    HW189241   5.222   1.632   4.116 -0.0213  0.5076  0.1458
28933SOL    HW289242   5.289   1.528   4.203 -1.1339  0.4443  0.9499
28934SOL     OW89243   5.893   4.881   3.810 -0.1181  0.0073  0.3127
28934SOL    HW189244   5.863   4.905   3.722  0.2485  1.4228  0.5454
28934SOL    HW289245   5.815   4.891   3.865  0.1598  1.3494  0.5079
28935SOL     OW89246   3.393   3.781   7.394  0.0394 -0.3309 -0.6708
28935SOL    HW189247   3.414   3.692   7.366 -0.4754 -1.8552  3.1315
28935SOL    HW289248   3.297   3.784   7.394  0.0542  0.3718 -1.0873
28936SOL     OW89249   9.431   8.112   7.573  0.0419  0.2516  0.1284
28936SOL    HW189250   9.343   8.121   7.611 -1.0995 -0.7286 -2.0710
28936SOL    HW289251   9.421   8.145   7.483  1.1073 -2.6194 -1.1469
28937SOL     OW89252   4.973   1.347   2.711  0.3214  0.0652  0.2367
28937SOL    HW189253   4.897   1.302   2.674  0.5016  0.7026 -0.9650
28937SOL    HW289254   5.003   1.405   2.641  1.8633 -0.0999  0.7196
28938SOL     OW89255   9.675   9.778  10.399  0.6349 -0.6362  0.2288
28938SOL    HW189256   9.631   9.806  10.319  0.0379 -1.0927  0.3855
28938SOL    HW289257   9.742   9.844  10.414  0.7768 -0.5695 -0.6651
28939SOL     OW89258   1.551   7.505   6.054  0.5514  0.9332 -0.3258
28939SOL    HW189259   1.456   7.506   6.043  0.5698  0.3506 -0.5683
28939SOL    HW289260   1.577   7.418   6.027  0.9099  0.2921  1.9071
28940SOL     OW89261   4.671   7.110   3.434 -0.6304  0.5120 -0.5573
28940SOL    HW189262   4.590   7.136   3.478  0.2095 -0.7131  1.8886
28940SOL    HW289263   4.641   7.060   3.358 -2.1491  3.0196 -1.7462
28941SOL     OW89264   4.999   8.169   3.561 -0.1535 -0.0303 -0.2735
28941SOL    HW189265   5.033   8.134   3.643 -1.6638 -0.8409  0.0438
28941SOL    HW289266   4.949   8.246   3.587 -0.5296 -0.2160 -0.4360
28942SOL     OW89267   7.795   6.837   8.349 -0.3893  0.4771 -0.2711
28942SOL    HW189268   7.711   6.797   8.372  0.3411 -0.4213  0.9909
28942SOL    HW289269   7.803   6.912   8.408 -0.0724  0.2458 -0.0174
28943SOL     OW89270   1.348   8.222   2.371 -0.3106 -0.3144  0.5711
28943SOL    HW189271   1.302   8.275   2.435  1.4076  0.6311  1.0855
28943SOL    HW289272   1.315   8.251   2.286 -0.2836  0.7171  0.9037
28944SOL     OW89273   7.807   5.366   1.155  0.2046 -0.6297 -0.2340
28944SOL    HW189274   7.836   5.329   1.072 -1.9435 -0.7882 -0.9859
28944SOL    HW289275   7.860   5.445   1.166  1.9625 -1.7025 -0.6751
28945SOL     OW89276   4.037   1.706   2.362  0.0290  0.6060 -0.5648
28945SOL    HW189277   4.118   1.753   2.343 -0.6418  1.6944 -0.8472
28945SOL    HW289278   3.981   1.723   2.286 -0.8707  0.8103  0.1229
28946SOL     OW89279   8.208   8.052   6.380  0.0780 -0.1287 -0.3026
28946SOL    HW189280   8.137   8.027   6.321  1.1044 -2.9960 -0.5178
28946SOL    HW289281   8.246   8.131   6.340 -1.1772 -0.2179 -1.7611
28947SOL     OW89282   8.758  10.313   1.266 -0.3888 -0.1683  0.2478
28947SOL    HW189283   8.701  10.347   1.197  0.1997  1.4940  0.5351
28947SOL    HW289284   8.699  10.285   1.335 -0.9402 -0.9654 -0.5120
28948SOL     OW89285   8.479  10.168   0.198  0.4767 -0.5354  0.3244
28948SOL    HW189286   8.486  10.111   0.121 -0.2141 -0.1705 -0.0099
28948SOL    HW289287   8.509  10.253   0.168 -0.2469 -0.2762  0.3323
28949SOL     OW89288  10.059   6.917   0.152 -0.2879 -0.3859  0.1800
28949SOL    HW189289  10.062   6.885   0.242 -0.7689 -1.2411 -0.0987
28949SOL    HW289290  10.105   7.001   0.155 -0.4878 -0.2979  1.2635
28950SOL     OW89291   9.883   3.269   7.593  0.2619  0.3380  0.6343
28950SOL    HW189292   9.918   3.196   7.542 -3.2179  0.3730 -2.1588
28950SOL    HW289293   9.889   3.239   7.684 -0.4075 -3.2279 -0.3315
28951SOL     OW89294   5.833   4.089  10.172 -0.0925 -0.1473  0.4643
28951SOL    HW189295   5.902   4.044  10.123 -1.6670 -2.8276  0.5423
28951SOL    HW289296   5.871   4.101  10.260  0.1105 -2.2619  0.7263
28952SOL     OW89297   3.330   1.195   2.914 -0.2281 -0.0923  0.5289
28952SOL    HW189298   3.272   1.159   2.980 -1.7307  1.8767  0.3740
28952SOL    HW289299   3.384   1.258   2.961  2.3446 -2.2980  0.7922
28953SOL     OW89300  10.205   8.866   5.136 -0.2580  0.4874  0.1134
28953SOL    HW189301  10.141   8.844   5.203 -0.6720 -0.4072 -0.5596
28953SOL    HW289302  10.186   8.807   5.064  0.4329  1.1660 -0.6479
28954SOL     OW89303   3.138   0.298   9.667 -0.4644 -0.6927 -0.7517
28954SOL    HW189304   3.206   0.301   9.600  0.2588 -0.1917 -0.0142
28954SOL    HW289305   3.172   0.238   9.734 -0.1109  0.5973  0.2674
28955SOL     OW89306   8.787   2.644   0.023 -0.5376 -0.1342 -0.0943
28955SOL    HW189307   8.840   2.621  -0.053  1.2029 -1.2714  1.3690
28955SOL    HW289308   8.710   2.589   0.017 -1.3722  1.1348 -1.9730
28956SOL     OW89309   6.853   7.407   3.873  0.4032 -0.1640 -0.6673
28956SOL    HW189310   6.946   7.415   3.894  0.5627  0.1419 -1.4519
28956SOL    HW289311   6.848   7.426   3.779 -0.1291 -2.5498 -1.1883
28957SOL     OW89312   6.992   1.875   3.098 -0.1513  0.1490  0.5693
28957SOL    HW189313   6.901   1.855   3.074  0.1408 -0.3324 -0.1866
28957SOL    HW289314   6.998   1.970   3.092 -0.7950  0.2448  1.3378
28958SOL     OW89315   9.446   4.655   4.656  0.3256  0.6395  0.9170
28958SOL    HW189316   9.408   4.574   4.690 -1.8802  0.9037 -0.7403
28958SOL    HW289317   9.540   4.638   4.654 -0.0323 -1.6619  1.1126
28959SOL     OW89318   0.823   6.694   0.877 -0.0477  0.2927 -0.3541
28959SOL    HW189319   0.893   6.751   0.846  1.2346 -1.5943 -1.1162
28959SOL    HW289320   0.865   6.609   0.889 -2.0813 -0.7402 -0.1868
28960SOL     OW89321   5.041  10.023   6.705 -0.4436 -0.0450  0.5622
28960SOL    HW189322   5.061  10.027   6.611  3.6633 -0.7221  1.2213
28960SOL    HW289323   5.043   9.930   6.726  0.4633  0.1928  1.5896
28961SOL     OW89324   2.217   1.899   8.719 -0.0782  0.1662 -0.1264
28961SOL    HW189325   2.285   1.865   8.778 -0.3797 -1.9464 -0.9097
28961SOL    HW289326   2.138   1.903   8.773  0.1566  0.4374  0.1986
28962SOL     OW89327   9.729   5.090   9.884 -0.3870 -0.1895  0.2417
28962SOL    HW189328   9.691   5.172   9.853 -2.1776 -0.6523  1.0518
28962SOL    HW289329   9.703   5.025   9.818 -0.6024 -0.4263  0.5548
28963SOL     OW89330   8.988   4.541   7.752  0.1305 -0.8257  0.3263
28963SOL    HW189331   9.018   4.451   7.744  0.8739 -0.5387 -0.1588
28963SOL    HW289332   8.970   4.552   7.846  2.9326 -0.5913  0.9182
28964SOL     OW89333   7.728   4.639   7.566 -0.1949 -0.5262 -0.1564
28964SOL    HW189334   7.672   4.706   7.604 -0.3316  0.2525 -1.6505
28964SOL    HW289335   7.711   4.644   7.471 -0.4561 -2.8862 -0.2996
28965SOL     OW89336   9.856   8.083   4.171  0.2874 -0.3853 -0.1121
28965SOL    HW189337   9.943   8.121   4.158 -0.2416  0.9108 -0.1107
28965SOL    HW289338   9.812   8.145   4.230 -1.2024 -0.0901 -1.4546
28966SOL     OW89339  10.446   7.525   8.102  0.1305  0.5955  0.6729
28966SOL    HW189340  10.484   7.479   8.177 -1.4605 -0.4548  0.9066
28966SOL    HW289341  10.474   7.616   8.112  1.6575  0.0838  1.3684
28967SOL     OW89342   2.686   4.118   5.462 -0.4935  0.1308 -0.4481
28967SOL    HW189343   2.735   4.140   5.542  0.3053 -1.2190 -0.5368
28967SOL    HW289344   2.740   4.052   5.418 -2.6798 -1.9530 -0.2065
28968SOL     OW89345   5.205   3.982   2.042  0.0767  0.2912 -0.0833
28968SOL    HW189346   5.158   4.052   2.088 -0.6985 -0.0113 -0.3993
28968SOL    HW289347   5.218   4.015   1.954  3.0037  1.5550  0.6828
28969SOL     OW89348   4.725   3.028   1.562 -0.0864  0.3162 -0.1179
28969SOL    HW189349   4.670   2.950   1.553 -1.2437  1.0728  0.2455
28969SOL    HW289350   4.752   3.028   1.654  0.8051 -0.2212 -0.3660
28970SOL     OW89351   9.638  10.229   5.120  0.1487 -0.6404 -0.0338
28970SOL    HW189352   9.707  10.174   5.156  0.1258  0.2660  1.4867
28970SOL    HW289353   9.561  10.208   5.173 -0.8951 -1.9025 -1.9302
28971SOL     OW89354   4.255   9.479   5.367 -0.0447 -0.3584 -0.0212
28971SOL    HW189355   4.240   9.417   5.295 -0.5845 -2.6016  1.8829
28971SOL    HW289356   4.350   9.482   5.377  0.2419  1.9957 -2.3618
28972SOL     OW89357   2.939   2.598   1.875  0.5037  0.0318  0.5121
28972SOL    HW189358   2.990   2.548   1.939 -0.2695 -2.4495 -0.6918
28972SOL    HW289359   2.849   2.594   1.908  0.4783  1.0772  0.6188
28973SOL     OW89360   8.628   4.448   9.169 -0.1039  0.3191  0.2375
28973SOL    HW189361   8.570   4.524   9.167  0.3519  0.7524  1.7070
28973SOL    HW289362   8.627   4.419   9.260  1.3552 -0.1406  0.1448
28974SOL     OW89363   6.444   1.810   6.920  0.1991  0.1060  0.2840
28974SOL    HW189364   6.466   1.725   6.882 -0.9708  0.5175 -1.3971
28974SOL    HW289365   6.392   1.854   6.853 -0.4514  1.5808  1.6935
28975SOL     OW89366   6.335   2.890   6.189  0.4611  0.0397 -0.1660
28975SOL    HW189367   6.369   2.912   6.102 -1.2487  0.6710 -0.7127
28975SOL    HW289368   6.251   2.936   6.194  0.4230 -0.1730  1.7422
28976SOL     OW89369   6.234   3.613   7.536 -0.9919 -0.3005  0.0331
28976SOL    HW189370   6.222   3.700   7.498 -0.5052 -1.0543 -2.0001
28976SOL    HW289371   6.150   3.592   7.577 -0.7987  1.4890  1.4680
28977SOL     OW89372   0.969   6.046  10.261  0.0150  0.3566  0.4798
28977SOL    HW189373   0.977   6.123  10.205  2.0159  0.3014  0.6115
28977SOL    HW289374   0.937   5.977  10.202 -0.8216  1.0202  0.1344
28978SOL     OW89375   7.114   3.044   2.079 -0.0559  0.1718  0.6294
28978SOL    HW189376   7.206   3.058   2.058 -0.0542 -0.0104  0.5182
28978SOL    HW289377   7.068   3.114   2.032 -0.2544 -1.4164 -1.6604
28979SOL     OW89378   4.464   5.279   5.615 -0.1132 -0.3104 -0.4237
28979SOL    HW189379   4.464   5.255   5.523 -0.2490  1.0835 -0.8172
28979SOL    HW289380   4.490   5.200   5.661  1.8568 -0.5468 -1.8007
28980SOL     OW89381   5.628   3.148   1.790  0.3229  0.3280 -0.0932
28980SOL    HW189382   5.607   3.226   1.737 -2.8143  1.3807  2.3155
28980SOL    HW289383   5.715   3.166   1.825 -0.7187  3.4947  1.3091
28981SOL     OW89384   6.749   0.816   0.340  0.1144  0.6032 -0.2782
28981SOL    HW189385   6.685   0.758   0.381 -0.7959 -0.2305 -2.7202
28981SOL    HW289386   6.697   0.878   0.289  1.1921  1.7437 -0.0738
28982SOL     OW89387   1.384   8.590   4.745  0.3523 -0.1046  0.3276
28982SOL    HW189388   1.382   8.571   4.839 -0.6960  0.5514  0.4504
28982SOL    HW289389   1.368   8.505   4.704 -1.9580  0.0372  0.8161
28983SOL     OW89390   5.224   5.422  10.218  0.0663  0.7950 -0.6525
28983SOL    HW189391   5.311   5.387  10.239 -0.0406 -0.2432 -1.7953
28983SOL    HW289392   5.203   5.385  10.132 -1.8543  0.3656 -0.0551
28984SOL     OW89393   6.175  10.225   4.475  0.3761 -0.2827 -0.0655
28984SOL    HW189394   6.139  10.233   4.564  1.3847 -1.2351  0.4538
28984SOL    HW289395   6.237  10.297   4.468  1.5819 -1.2075  0.6717
28985SOL     OW89396  10.138  10.052   2.831  0.2623  0.5626  0.1367
28985SOL    HW189397  10.225  10.067   2.796 -0.0181  0.2270 -0.7357
28985SOL    HW289398  10.149  10.056   2.926  0.8827  2.4367  0.0247
28986SOL     OW89399   2.126   3.307   5.611 -0.0260  0.6693  0.4816
28986SOL    HW189400   2.198   3.370   5.624  0.0703  0.7916 -0.5146
28986SOL    HW289401   2.109   3.310   5.517  0.8981 -1.8042  0.1545
28987SOL     OW89402   1.110   3.819   8.632 -0.4723 -0.4474 -0.8570
28987SOL    HW189403   1.199   3.815   8.668 -0.5143 -0.5689 -0.7644
28987SOL    HW289404   1.071   3.897   8.671 -0.6673 -0.8241 -0.2902
28988SOL     OW89405   9.855   9.834   0.702  0.2573  0.0791  0.1173
28988SOL    HW189406   9.856   9.799   0.612  0.0207  1.4981 -0.4625
28988SOL    HW289407   9.937   9.881   0.710 -0.5978  1.6570 -0.0800
28989SOL     OW89408   9.456  10.248   6.324 -0.4142 -0.2113  0.2788
28989SOL    HW189409   9.546  10.277   6.309 -1.1968  1.9652 -0.6306
28989SOL    HW289410   9.454  10.158   6.291  1.0551  0.2032 -1.0779
28990SOL     OW89411   8.310   3.832   6.392  0.3382 -0.0312 -0.5832
28990SOL    HW189412   8.241   3.874   6.340 -1.0624  0.0715  1.2734
28990SOL    HW289413   8.362   3.904   6.427  0.2375 -0.0278 -0.4428
28991SOL     OW89414   3.997   9.002   0.713 -0.1992  0.0349  0.2172
28991SOL    HW189415   3.961   8.976   0.628  0.8221 -0.5410 -0.0543
28991SOL    HW289416   4.091   8.984   0.706 -0.3106 -1.6110  2.0163
28992SOL     OW89417   5.210   8.170   5.687  0.2669  0.0452 -0.0245
28992SOL    HW189418   5.275   8.193   5.753  2.4531 -1.6297 -1.4381
28992SOL    HW289419   5.186   8.080   5.706  0.1798 -0.1350 -0.9327
28993SOL     OW89420   8.019  10.029   0.697  0.0964 -0.0078 -0.4776
28993SOL    HW189421   7.981   9.998   0.779  0.8583  0.1431 -0.0542
28993SOL    HW289422   8.003   9.957   0.635 -0.5972 -0.0676 -0.2405
28994SOL     OW89423   9.135  10.164   1.626 -0.1852 -0.2334 -0.0748
28994SOL    HW189424   9.151  10.173   1.720  0.6496  1.6749 -0.3565
28994SOL    HW289425   9.055  10.112   1.620 -1.1506  0.9499  1.7422
28995SOL     OW89426   5.105   0.478   1.409 -0.5270  0.6743  0.0014
28995SOL    HW189427   5.081   0.523   1.490 -0.1731 -0.8244  0.9775
28995SOL    HW289428   5.129   0.390   1.437  3.6840  1.2543 -1.1966
28996SOL     OW89429   7.333   8.558   9.807  0.2738  0.4680 -0.1669
28996SOL    HW189430   7.396   8.549   9.878  0.0186 -3.2172 -0.2440
28996SOL    HW289431   7.250   8.525   9.843 -0.2889  0.1735 -1.6574
28997SOL     OW89432   9.673   3.125   2.206  0.1096  0.6787 -0.1396
28997SOL    HW189433   9.751   3.075   2.230 -0.5554 -0.5446 -0.4300
28997SOL    HW289434   9.631   3.073   2.137 -0.1976  2.0546 -1.0130
28998SOL     OW89435   5.651   5.294   7.778 -0.0736  1.1915  0.8420
28998SOL    HW189436   5.588   5.366   7.769 -2.5815 -0.8178  1.0516
28998SOL    HW289437   5.690   5.286   7.691 -1.6027  1.2482  0.1129
28999SOL     OW89438   9.639   4.687  10.482 -0.3313  0.5797  0.4041
28999SOL    HW189439   9.648   4.738  10.401 -0.3106 -0.1050 -0.0331
28999SOL    HW289440   9.604   4.602  10.453  1.5191 -0.3961  0.8433
29000SOL     OW89441   0.860   3.860   0.619 -0.1188 -0.3392 -0.3061
29000SOL    HW189442   0.817   3.784   0.658 -0.9728 -0.4941 -1.4969
29000SOL    HW289443   0.944   3.827   0.587  0.7765 -0.1275  1.6635
29001SOL     OW89444   8.198   3.179   6.926 -0.4577  0.3599  0.2297
29001SOL    HW189445   8.271   3.238   6.945  0.0838 -0.3975  0.5386
29001SOL    HW289446   8.236   3.111   6.871 -1.3768  1.0048 -1.2610
29002SOL     OW89447   6.050   2.085   4.175  0.9515 -0.0640 -0.0343
29002SOL    HW189448   6.032   2.126   4.260  1.7863 -1.7688  1.0158
29002SOL    HW289449   5.991   2.009   4.172  0.2052  0.5423 -1.4536
29003SOL     OW89450   0.756   4.176   9.725  0.0015  0.4033  0.0311
29003SOL    HW189451   0.663   4.153   9.731 -0.0126 -0.1615 -1.8167
29003SOL    HW289452   0.798   4.123   9.793 -1.1002  1.4021  1.5804
29004SOL     OW89453   7.559   4.554   3.354  0.2209  0.3492 -0.5092
29004SOL    HW189454   7.544   4.459   3.347 -0.9268  0.6111 -2.0894
29004SOL    HW289455   7.521   4.578   3.438  1.6522 -0.7545  0.5193
29005SOL     OW89456   3.488   2.952   7.350 -0.5561 -0.3408  0.3307
29005SOL    HW189457   3.411   2.956   7.293  0.7605  0.0590 -1.5087
29005SOL    HW289458   3.484   2.864   7.388 -1.4154 -0.6618 -0.4483
29006SOL     OW89459  10.322   2.609   6.863 -0.2558  0.0493 -0.0736
29006SOL    HW189460  10.386   2.672   6.828 -1.1879 -0.5112 -3.0693
29006SOL    HW289461  10.311   2.634   6.955  0.6287  3.2123 -0.7181
29007SOL     OW89462   5.560   9.900   2.012  0.0560 -0.2375  0.2750
29007SOL    HW189463   5.583   9.973   2.068 -0.7621  2.4113 -2.5661
29007SOL    HW289464   5.465   9.905   2.004  0.1394 -0.5214 -1.2815
29008SOL     OW89465   4.366   7.789   0.587  0.5425  0.3250 -0.1080
29008SOL    HW189466   4.369   7.765   0.679  0.6592  0.8680  0.0329
29008SOL    HW289467   4.349   7.883   0.587  1.9201  0.6060 -0.5907
29009SOL     OW89468   9.005   5.454   2.606  0.3304  0.1062 -0.7713
29009SOL    HW189469   9.095   5.440   2.577  0.5505  0.4900 -0.2924
29009SOL    HW289470   9.012   5.524   2.671  0.3346 -2.6142  2.4237
29010SOL     OW89471   3.866   4.421   1.563 -0.6224  0.1792 -0.4778
29010SOL    HW189472   3.776   4.420   1.532 -0.9448  2.1844  0.2298
29010SOL    HW289473   3.894   4.330   1.560 -3.6309 -0.9992  2.0898
29011SOL     OW89474   0.726   8.545   4.882  0.2639 -0.2706  0.0133
29011SOL    HW189475   0.784   8.576   4.952  0.1404 -0.0911  0.0367
29011SOL    HW289476   0.776   8.476   4.838  1.3494  1.2738 -1.2855
29012SOL     OW89477   3.545   1.445   2.958 -0.2611  0.0889  0.2593
29012SOL    HW189478   3.475   1.504   2.927 -1.3290 -1.2524  0.0133
29012SOL    HW289479   3.568   1.478   3.044 -1.3863  0.4147  0.4520
29013SOL     OW89480   5.258   7.703   2.523 -0.3069 -0.5705 -0.9263
29013SOL    HW189481   5.237   7.785   2.479  2.0089  1.4389  1.3682
29013SOL    HW289482   5.353   7.694   2.514 -0.3050 -2.2043  0.1949
29014SOL     OW89483   3.774   1.341  10.214 -0.4821 -0.2757 -0.3471
29014SOL    HW189484   3.830   1.399  10.162  0.2764 -0.6656  0.0158
29014SOL    HW289485   3.748   1.393  10.290 -0.2035 -0.2529 -0.2672
29015SOL     OW89486   4.869   8.968   7.091  0.1083 -0.0316  0.1164
29015SOL    HW189487   4.943   8.915   7.062 -0.0449  0.3798 -1.0773
29015SOL    HW289488   4.890   8.992   7.181  1.4642  0.1445 -0.2388
29016SOL     OW89489   1.292   4.319   1.208  0.1843 -0.1425  0.4216
29016SOL    HW189490   1.307   4.394   1.151 -0.0291 -0.6399 -0.3072
29016SOL    HW289491   1.294   4.355   1.297  0.7774  0.5973  0.1138
29017SOL     OW89492   9.196   5.568   7.123 -0.0117  0.5133  0.1586
29017SOL    HW189493   9.176   5.648   7.171 -1.2598 -0.0354  0.5921
29017SOL    HW289494   9.136   5.503   7.160  1.5435 -0.8337  0.4029
29018SOL     OW89495   3.229   9.046   2.510  0.0127  0.0537 -0.4179
29018SOL    HW189496   3.150   8.994   2.527 -0.7477  1.4854  0.6529
29018SOL    HW289497   3.300   8.995   2.547 -0.4902 -0.9284 -0.7620
29019SOL     OW89498   0.258   8.395   4.080  0.8055  0.4778 -0.2463
29019SOL    HW189499   0.235   8.484   4.054  0.4432 -0.0571 -1.9229
29019SOL    HW289500   0.342   8.403   4.124  1.6187  1.4871 -1.8999
29020SOL     OW89501   2.862   7.367   0.737  0.0678  0.4905  0.4843
29020SOL    HW189502   2.885   7.284   0.778  1.7149  1.8064  2.4218
29020SOL    HW289503   2.862   7.348   0.643  0.1840 -1.7139  0.8787
29021SOL     OW89504   4.339   8.018   3.024  0.0186 -0.2383 -0.1529
29021SOL    HW189505   4.314   8.070   2.947  1.2719 -0.8336 -0.9982
29021SOL    HW289506   4.433   8.002   3.012  0.0996 -0.8486  1.2051
29022SOL     OW89507   1.587   5.872   4.245 -0.0995  0.0020 -0.4668
29022SOL    HW189508   1.604   5.967   4.241  0.2544  0.0039  0.7007
29022SOL    HW289509   1.540   5.859   4.327 -2.3047 -0.5610 -1.7430
29023SOL     OW89510   1.363   8.423   3.314  0.0092  0.2919 -0.4898
29023SOL    HW189511   1.387   8.455   3.227  0.4597  0.3513 -0.3459
29023SOL    HW289512   1.330   8.335   3.299  0.6386  0.0753 -0.6614
29024SOL     OW89513   1.473   3.116   1.387  0.5041  0.0176  0.6790
29024SOL    HW189514   1.560   3.148   1.365  1.1387  0.7992  3.8078
29024SOL    HW289515   1.474   3.024   1.361  2.2098  0.0546  0.5080
29025SOL     OW89516  10.379   7.213   6.736 -0.2239  0.1665 -0.3430
29025SOL    HW189517  10.436   7.159   6.682  1.9726  1.2757  0.7272
29025SOL    HW289518  10.352   7.155   6.808 -1.5070 -0.7218 -1.5037
29026SOL     OW89519   3.611   3.408   5.126 -0.0399 -0.5116  0.5402
29026SOL    HW189520   3.658   3.423   5.208  2.7297 -0.0559 -1.0173
29026SOL    HW289521   3.677   3.373   5.066 -1.0974  2.1767 -2.4648
29027SOL     OW89522   2.414  10.267   4.365  0.1605 -0.4569 -0.4887
29027SOL    HW189523   2.420  10.180   4.325 -0.7711 -0.3713 -0.8251
29027SOL    HW289524   2.329  10.269   4.407  0.4392  0.0756  0.0623
29028SOL     OW89525   3.420   7.516   7.814 -0.1210 -0.2920  0.3985
29028SOL    HW189526   3.347   7.558   7.769 -0.2995 -1.5689 -0.5368
29028SOL    HW289527   3.427   7.429   7.775  0.5339 -0.9931  1.9682
29029SOL     OW89528   0.345   2.849   9.945  0.7531  0.5441  0.1229
29029SOL    HW189529   0.377   2.935   9.918  0.6734  0.9890  1.3939
29029SOL    HW289530   0.319   2.861  10.036  1.8452 -1.1186  0.6979
29030SOL     OW89531   7.592   3.293   4.500  0.6515 -0.0992 -0.0029
29030SOL    HW189532   7.677   3.258   4.526  0.1728 -2.6739 -1.4523
29030SOL    HW289533   7.558   3.336   4.578  1.9297 -1.8376  1.6118
29031SOL     OW89534   1.874   1.168   4.910  0.4216  0.2331  0.3060
29031SOL    HW189535   1.956   1.204   4.943  0.6802 -0.2379  0.1850
29031SOL    HW289536   1.889   1.158   4.816  0.1044  0.4644  0.2302
29032SOL     OW89537   0.208   3.455   9.207  0.5019  0.5775 -0.0514
29032SOL    HW189538   0.204   3.372   9.158 -0.0590  0.1141  0.7468
29032SOL    HW289539   0.138   3.508   9.170 -0.7699 -0.2534  1.0533
29033SOL     OW89540   9.695   2.007   9.735  0.5475 -0.3956  0.1274
29033SOL    HW189541   9.653   2.093   9.733  2.3579  0.5673  1.2231
29033SOL    HW289542   9.649   1.957   9.667 -0.5085  1.4454 -0.6013
29034SOL     OW89543   5.517   2.383  10.483 -0.3701 -0.6158  0.0218
29034SOL    HW189544   5.521   2.478  10.477 -0.1792 -0.4681  1.8150
29034SOL    HW289545   5.427   2.361  10.457 -0.4434  0.0643 -0.3142
29035SOL     OW89546   9.491   8.611   8.513  0.1723 -0.7059 -0.3537
29035SOL    HW189547   9.538   8.575   8.437 -0.5850 -0.7760 -0.8024
29035SOL    HW289548   9.543   8.686   8.540  0.9725 -1.2531 -0.3376
29036SOL     OW89549   1.163   0.008  10.215 -0.0599  0.4084 -0.0205
29036SOL    HW189550   1.228  -0.007  10.147 -1.9021  0.3314 -1.8555
29036SOL    HW289551   1.094   0.057  10.172 -1.6941 -0.3759  1.5612
29037SOL     OW89552   3.084   0.130   9.024  0.6340 -0.5887 -0.7286
29037SOL    HW189553   3.078   0.069   9.098 -0.8359 -0.0680 -0.3857
29037SOL    HW289554   3.094   0.074   8.947 -1.5059 -1.3373 -0.5148
29038SOL     OW89555  10.307   7.732   6.930  0.1071 -0.2041  0.0844
29038SOL    HW189556  10.250   7.666   6.970  0.7336 -0.6414  0.2784
29038SOL    HW289557  10.374   7.681   6.885  1.3997  0.2896  1.3800
29039SOL     OW89558   3.999   7.963   8.051  0.2510 -0.6777  0.3295
29039SOL    HW189559   4.003   8.030   7.983  1.8447  0.7665  1.7696
29039SOL    HW289560   3.913   7.922   8.039 -0.0539  0.4291 -1.6779
29040SOL     OW89561   4.916   4.779   9.686  0.0615 -0.5170  0.8364
29040SOL    HW189562   4.846   4.716   9.668  1.5665 -2.1269  0.3503
29040SOL    HW289563   4.900   4.807   9.777 -1.9828  0.2590  0.2985
29041SOL     OW89564   0.026   9.411   1.351  0.1338 -0.1922  0.1254
29041SOL    HW189565  -0.008   9.400   1.262  0.8164  1.5216 -0.3794
29041SOL    HW289566   0.031   9.506   1.364  1.5234 -0.3925  1.4011
29042SOL     OW89567   0.307   3.670   6.524 -0.2585  0.7988 -0.6194
29042SOL    HW189568   0.275   3.745   6.473 -2.4722 -0.0717 -0.6156
29042SOL    HW289569   0.266   3.594   6.483 -0.2609 -0.1409  1.0265
29043SOL     OW89570   4.409   9.006   2.587 -0.5916 -0.4920  0.1581
29043SOL    HW189571   4.399   8.964   2.673  0.0726  1.4169  1.2399
29043SOL    HW289572   4.327   8.988   2.542 -1.2451 -0.9546  1.4607
29044SOL     OW89573   8.360   8.052   4.706 -0.2765  0.1777  0.2212
29044SOL    HW189574   8.342   7.960   4.687 -1.3956  0.5803 -0.7922
29044SOL    HW289575   8.312   8.069   4.787 -0.0774 -0.1282  0.4038
29045SOL     OW89576   7.910   2.201   4.840  0.1627  0.4185 -0.7273
29045SOL    HW189577   7.933   2.147   4.916 -0.4041 -1.2336 -1.6842
29045SOL    HW289578   7.847   2.265   4.875  0.3250  0.0379  0.3047
29046SOL     OW89579   6.792   3.266   0.659 -0.7186  0.5608  0.9741
29046SOL    HW189580   6.862   3.328   0.676 -0.0116  0.3994 -1.0972
29046SOL    HW289581   6.835   3.180   0.660 -1.3252  0.2448  1.8579
29047SOL     OW89582   0.946   5.490   5.570 -0.1228 -0.0009  0.5402
29047SOL    HW189583   1.027   5.440   5.584 -0.2008 -0.0901  0.6733
29047SOL    HW289584   0.892   5.469   5.646  0.4122  1.4121  1.3489
29048SOL     OW89585   9.383   0.907   2.130 -0.0740  0.1824 -0.2085
29048SOL    HW189586   9.289   0.886   2.131 -0.1101  0.3439  0.9844
29048SOL    HW289587   9.421   0.850   2.197  0.6560  0.2403 -0.5644
29049SOL     OW89588   8.769   9.560   0.536  0.0569 -0.1914  0.7484
29049SOL    HW189589   8.806   9.537   0.621  0.6921  1.6045  1.0027
29049SOL    HW289590   8.833   9.528   0.473  0.5473  0.1661  1.0502
29050SOL     OW89591   6.131   1.298   9.801  0.5546 -0.2921  0.1784
29050SOL    HW189592   6.216   1.292   9.759  0.1041 -0.4665 -0.7251
29050SOL    HW289593   6.148   1.346   9.882  1.3478  0.4908 -0.4374
29051SOL     OW89594   6.672   9.422   3.788  0.5215  0.0482 -0.1990
29051SOL    HW189595   6.648   9.388   3.701  0.1747  0.9394 -0.4591
29051SOL    HW289596   6.608   9.382   3.847  0.7698 -0.5771 -0.3432
29052SOL     OW89597   9.166   5.696   5.568 -0.2963  0.1196  0.2241
29052SOL    HW189598   9.212   5.641   5.632  0.0849 -0.9739 -0.9377
29052SOL    HW289599   9.079   5.708   5.605 -0.8393 -2.4203 -0.0451
29053SOL     OW89600   8.430   2.735   1.822 -0.0808 -0.1167 -0.0770
29053SOL    HW189601   8.416   2.767   1.911  2.6192  1.1923 -0.0338
29053SOL    HW289602   8.493   2.796   1.784 -0.5159 -1.1352 -2.6323
29054SOL     OW89603   4.766   8.573   6.740  0.7799 -0.1632 -0.5682
29054SOL    HW189604   4.842   8.609   6.786  0.7756  0.2020 -0.8483
29054SOL    HW289605   4.758   8.627   6.662  0.3323 -0.3106 -0.6224
29055SOL     OW89606   7.170   4.540   2.067  0.4406  0.0905  0.4860
29055SOL    HW189607   7.159   4.602   2.139 -0.9987  0.2857  0.1327
29055SOL    HW289608   7.220   4.589   2.001 -0.4830  0.8246  0.3041
29056SOL     OW89609   7.113   3.149  10.432  0.1970 -0.2133 -0.3046
29056SOL    HW189610   7.118   3.239  10.400 -0.0384 -0.4574 -1.0600
29056SOL    HW289611   7.194   3.136  10.480  0.0661  0.5178  0.1186
29057SOL     OW89612   4.171   4.866   9.362  0.2556 -0.4457 -0.4730
29057SOL    HW189613   4.166   4.952   9.404 -0.6009 -0.8741  0.3502
29057SOL    HW289614   4.104   4.870   9.294  1.4551  0.1523 -1.6517
29058SOL     OW89615   8.172   9.571   4.915  0.1044  0.2508  0.0613
29058SOL    HW189616   8.256   9.565   4.960 -0.6156 -1.6533  1.2679
29058SOL    HW289617   8.191   9.619   4.834  2.0110  1.2076  1.0214
29059SOL     OW89618   4.927   5.786   7.490 -0.2016  0.6179  0.2460
29059SOL    HW189619   4.838   5.813   7.513 -0.9538 -0.1582 -1.5778
29059SOL    HW289620   4.916   5.716   7.426  1.7329 -1.1445  1.6873
29060SOL     OW89621   0.421   5.294   4.290 -0.3826  0.4029 -0.6878
29060SOL    HW189622   0.347   5.319   4.234 -0.0827  0.2494 -1.1624
29060SOL    HW289623   0.398   5.328   4.376 -1.4988 -0.5793 -0.5716
29061SOL     OW89624  10.479   3.438   8.845 -0.6337  0.2013 -0.3569
29061SOL    HW189625  10.421   3.454   8.919 -0.1024  0.8013 -0.0532
29061SOL    HW289626  10.556   3.492   8.864 -1.1173  1.5702 -2.0893
29062SOL     OW89627   2.435   3.319  10.057 -0.7579  0.0299  0.4609
29062SOL    HW189628   2.340   3.308  10.067 -0.9112  0.1797 -0.7565
29062SOL    HW289629   2.465   3.233  10.027 -0.4371 -0.1326  1.2128
29063SOL     OW89630   7.745   4.283   6.303 -0.0053 -0.7845 -0.2083
29063SOL    HW189631   7.717   4.286   6.395  0.7204 -0.0953  0.0069
29063SOL    HW289632   7.700   4.207   6.267 -0.3821 -1.0113  0.6955
29064SOL     OW89633   7.698  10.161   7.297 -0.3199  0.3109 -0.1503
29064SOL    HW189634   7.694  10.220   7.371 -0.1170  0.4190 -0.2259
29064SOL    HW289635   7.673  10.076   7.333 -1.2471  0.5643 -0.1766
29065SOL     OW89636   1.613   9.818  10.244  0.3318  0.0748 -0.3314
29065SOL    HW189637   1.569   9.758  10.183  0.0170 -0.7330  0.6531
29065SOL    HW289638   1.622   9.767  10.324  2.8732  0.2897 -0.4109
29066SOL     OW89639   4.857   8.965   2.363 -0.4076  0.0836  0.6151
29066SOL    HW189640   4.769   9.002   2.350 -1.1446 -1.2833  1.4397
29066SOL    HW289641   4.870   8.908   2.288 -1.5476 -2.0576  1.9440
29067SOL     OW89642   2.698  10.106   6.023  0.0890 -0.6469 -0.6017
29067SOL    HW189643   2.652  10.175   5.975 -0.1923 -1.1017 -0.9857
29067SOL    HW289644   2.657  10.106   6.110  0.1603 -0.2655 -0.5642
29068SOL     OW89645   9.569   4.664   6.149 -0.0561 -0.1565 -0.2288
29068SOL    HW189646   9.482   4.686   6.114  0.0958  0.2499 -0.3538
29068SOL    HW289647   9.578   4.717   6.228  0.0809 -0.1939 -0.2187
29069SOL     OW89648   6.230   1.844   5.395  0.1330  0.2937 -0.0674
29069SOL    HW189649   6.182   1.843   5.313 -0.2940 -1.5597  0.1479
29069SOL    HW289650   6.278   1.761   5.396  1.0680  0.8149  1.0159
29070SOL     OW89651   7.138   6.172   9.392 -0.1124  0.1898 -0.0164
29070SOL    HW189652   7.170   6.235   9.328 -1.2053  0.2691 -0.5093
29070SOL    HW289653   7.157   6.087   9.354  0.7717  0.2158  0.3475
29071SOL     OW89654  10.230   5.048  10.157 -0.0369 -0.4926 -0.3488
29071SOL    HW189655  10.147   5.004  10.172 -0.2782 -0.2660 -1.0026
29071SOL    HW289656  10.218   5.137  10.191 -0.0457 -0.4721 -0.4058
29072SOL     OW89657  10.279   3.516   4.563  0.4443 -0.6157 -0.2084
29072SOL    HW189658  10.238   3.473   4.639  1.1562  0.5987  0.8940
29072SOL    HW289659  10.242   3.604   4.563  2.1369  0.1223  0.1061
29073SOL     OW89660   4.361   6.011   3.887 -0.2322  0.2459  0.0876
29073SOL    HW189661   4.367   5.978   3.798 -0.1953  0.4759  0.0059
29073SOL    HW289662   4.444   6.057   3.902 -0.2790  0.2932  0.2056
29074SOL     OW89663   2.345   2.003  10.086 -0.2691  0.2124 -0.0121
29074SOL    HW189664   2.404   1.946  10.036  1.2641 -0.3818  2.3391
29074SOL    HW289665   2.268   1.949  10.103  0.7333 -0.8748  1.2922
29075SOL     OW89666  10.374   3.381   1.427 -0.1071 -0.5647 -0.4339
29075SOL    HW189667  10.461   3.370   1.389  0.5432 -1.3669  1.1956
29075SOL    HW289668  10.328   3.437   1.364  1.8276  0.5521 -0.9687
29076SOL     OW89669   9.805   0.670   7.500 -0.3749 -0.0641 -0.1222
29076SOL    HW189670   9.788   0.606   7.569  2.4804 -2.5009 -1.4568
29076SOL    HW289671   9.758   0.637   7.424 -0.5217  0.5924 -0.3292
29077SOL     OW89672   7.380   4.051   8.915 -0.0061  0.4036  0.1905
29077SOL    HW189673   7.366   3.976   8.857 -1.6673 -0.0243  1.0986
29077SOL    HW289674   7.302   4.055   8.970  1.1781  1.2572  1.9189
29078SOL     OW89675   6.874   6.904   2.180  0.1272 -0.2338  0.2060
29078SOL    HW189676   6.870   6.995   2.152 -1.3477  0.4373  2.3080
29078SOL    HW289677   6.806   6.860   2.129 -1.2535  0.5545  1.2857
29079SOL     OW89678   9.737   0.805   7.725  0.3894 -0.0724  0.1226
29079SOL    HW189679   9.653   0.787   7.684  0.9981  2.2060 -2.4387
29079SOL    HW289680   9.799   0.807   7.653  1.9649  1.9771  1.4132
29080SOL     OW89681   4.671   3.492   4.408  0.1902 -0.5383 -0.0911
29080SOL    HW189682   4.766   3.482   4.418  0.4223  1.8656  0.8135
29080SOL    HW289683   4.657   3.498   4.313  1.4772  2.4228 -0.2167
29081SOL     OW89684   9.650   5.171   9.246  0.0653 -0.1804  0.1531
29081SOL    HW189685   9.559   5.199   9.257 -0.4035 -1.8056  0.6724
29081SOL    HW289686   9.681   5.155   9.335  1.5399  2.2222  0.1590
29082SOL     OW89687   9.949   8.153   1.534 -0.6624  0.3129 -0.0461
29082SOL    HW189688   9.907   8.237   1.517  1.0312  1.1325 -0.3816
29082SOL    HW289689   9.928   8.134   1.625 -0.4580  1.4953  0.2697
29083SOL     OW89690   3.931   4.477   6.280  0.1647  0.3590 -0.2490
29083SOL    HW189691   4.004   4.528   6.247  2.1260 -1.6534  0.6797
29083SOL    HW289692   3.893   4.436   6.202 -1.4099  3.0053 -0.9968
29084SOL     OW89693   7.906   5.685   3.965  0.1392 -0.2090 -0.3209
29084SOL    HW189694   7.970   5.714   3.900 -0.8080 -0.0002 -1.1934
29084SOL    HW289695   7.888   5.594   3.943 -0.3433 -0.0753 -0.4827
29085SOL     OW89696   8.306   5.687   0.466  0.2437  0.3344 -0.3139
29085SOL    HW189697   8.389   5.640   0.474 -0.5325 -1.2042 -0.8768
29085SOL    HW289698   8.314   5.736   0.384  0.0036 -1.1217 -1.2401
29086SOL     OW89699   3.079   9.210   6.304  0.1788 -0.6575  0.1942
29086SOL    HW189700   3.030   9.228   6.384  1.1466  0.2951  0.5904
29086SOL    HW289701   3.075   9.292   6.255  0.5885 -0.8728 -0.1960
29087SOL     OW89702   8.008   3.606   4.108  0.1429 -0.1242  0.8658
29087SOL    HW189703   7.982   3.527   4.156  2.0935 -0.3867  1.5979
29087SOL    HW289704   7.957   3.603   4.027  0.5546 -2.4624  0.6160
29088SOL     OW89705   6.156   2.885   9.080 -0.0238  0.4156  0.4194
29088SOL    HW189706   6.212   2.811   9.106  1.1964  0.7608 -1.1107
29088SOL    HW289707   6.076   2.844   9.049  0.9345 -0.3734 -1.1646
29089SOL     OW89708   1.583  10.194   6.079 -0.3312  0.4597 -0.1887
29089SOL    HW189709   1.579  10.266   6.143  1.0297  0.7803 -0.4466
29089SOL    HW289710   1.512  10.136   6.105 -0.8805  1.4383  0.5847
29090SOL     OW89711  10.435   8.984   0.391  0.6849  0.0969  0.0810
29090SOL    HW189712  10.472   9.024   0.470  0.3539  0.4342  0.0709
29090SOL    HW289713  10.492   9.013   0.321  1.3846 -0.7660  0.2830
29091SOL     OW89714  10.262   1.576   6.958 -0.6226  0.3762 -0.0850
29091SOL    HW189715  10.326   1.533   6.901 -0.2268  0.3271  0.3949
29091SOL    HW289716  10.276   1.538   7.044  0.3003  2.0304  0.5376
29092SOL     OW89717   2.360   3.424   3.057 -0.3467 -0.0903 -0.0036
29092SOL    HW189718   2.424   3.466   3.115  0.5693  0.2965 -1.2412
29092SOL    HW289719   2.306   3.370   3.115  0.0058  0.9122  1.3017
29093SOL     OW89720   1.078   9.763   5.868 -0.0258  0.3318 -0.0338
29093SOL    HW189721   1.106   9.853   5.850  3.0553 -1.0788 -3.7249
29093SOL    HW289722   1.140   9.731   5.933  1.3983 -0.1470 -1.5653
29094SOL     OW89723   3.466   2.838   9.989 -0.0552 -0.5763  0.0106
29094SOL    HW189724   3.386   2.785   9.994  0.1615 -0.9050  0.0142
29094SOL    HW289725   3.435   2.925   9.962 -0.7064  0.0135  2.4253
29095SOL     OW89726   4.850   1.263   7.542  0.3397  0.1080 -0.6181
29095SOL    HW189727   4.897   1.302   7.616 -1.4857 -0.4574  0.9154
29095SOL    HW289728   4.822   1.177   7.574 -1.6198  0.3776 -1.4633
29096SOL     OW89729   4.548   2.667  10.235 -0.3417  0.2694  0.0328
29096SOL    HW189730   4.554   2.679  10.140 -1.6175  0.4540 -0.0450
29096SOL    HW289731   4.467   2.713  10.260  0.2749  0.7073  1.2943
29097SOL     OW89732   7.345   0.123  10.273  0.0636 -0.0304 -0.1868
29097SOL    HW189733   7.404   0.135  10.198  0.1511 -0.6638 -0.2299
29097SOL    HW289734   7.358   0.031  10.298 -1.1541 -0.2773 -0.4075
29098SOL     OW89735   3.593   5.338   6.329 -0.9388  0.5141 -0.1780
29098SOL    HW189736   3.503   5.336   6.363 -0.9599 -0.3965 -0.2657
29098SOL    HW289737   3.630   5.254   6.354  0.7971  1.8271  2.2023
29099SOL     OW89738   4.223   1.127   7.677 -0.3463  0.0916  0.0372
29099SOL    HW189739   4.267   1.133   7.592  0.1249  0.6069  0.3142
29099SOL    HW289740   4.294   1.117   7.740 -0.7540 -1.9922  0.2417
29100SOL     OW89741   9.728   9.783   1.347  0.1836 -0.0655  0.4930
29100SOL    HW189742   9.782   9.822   1.415  0.9221 -2.2216  1.2387
29100SOL    HW289743   9.787   9.768   1.274 -0.3601  1.2361 -0.2414
29101SOL     OW89744   8.581   4.334   1.044 -0.3451  0.3552 -0.2536
29101SOL    HW189745   8.565   4.394   1.117 -1.1881  0.7856 -0.7742
29101SOL    HW289746   8.659   4.368   1.000  0.2730 -0.0078  0.5382
29102SOL     OW89747   0.084  10.237   3.631  0.4173  0.0741  0.3125
29102SOL    HW189748   0.061  10.227   3.723 -1.4103 -1.2079 -0.2351
29102SOL    HW289749   0.179  10.240   3.630  0.6867 -3.4357  1.9707
29103SOL     OW89750   3.176   5.171   8.472 -0.2570 -0.0767 -0.7285
29103SOL    HW189751   3.230   5.249   8.487  1.0913 -0.9210 -1.0256
29103SOL    HW289752   3.167   5.131   8.558 -0.7880  0.2905 -0.6082
29104SOL     OW89753   9.601   4.378   6.179  0.1917  1.0172 -0.4975
29104SOL    HW189754   9.692   4.353   6.163 -0.0860  0.3110 -1.0093
29104SOL    HW289755   9.598   4.472   6.162  0.7206  0.9548 -0.9525
29105SOL     OW89756   9.178   2.622   7.729 -0.0545 -0.3907  0.2548
29105SOL    HW189757   9.184   2.527   7.723  0.8032 -0.2598 -1.5118
29105SOL    HW289758   9.103   2.645   7.674  0.7539  0.0558 -0.6850
29106SOL     OW89759   0.464   4.691   9.677  0.2726  0.1289 -0.0960
29106SOL    HW189760   0.422   4.775   9.660 -0.0304 -0.1600 -0.7826
29106SOL    HW289761   0.418   4.629   9.622  0.0191 -0.6294  0.9333
29107SOL     OW89762   7.992   8.243   3.446  0.0110 -0.0144  0.9274
29107SOL    HW189763   8.029   8.305   3.509  1.1225  0.9183 -0.5791
29107SOL    HW289764   8.063   8.180   3.431 -0.8731 -1.2926  1.9306
29108SOL     OW89765   7.228   9.393   6.734 -0.1437  0.1891 -0.1835
29108SOL    HW189766   7.209   9.394   6.640 -0.9562  0.6346 -0.0177
29108SOL    HW289767   7.230   9.485   6.759 -0.3242  0.0555  0.3214
29109SOL     OW89768   8.059   9.364   3.509  0.3915 -0.1532 -0.0919
29109SOL    HW189769   8.009   9.296   3.553 -0.0727  0.2205 -0.0371
29109SOL    HW289770   8.101   9.413   3.579 -0.7233  0.7332 -0.0177
29110SOL     OW89771   8.824   0.064   5.119  0.3661  0.9624  0.4050
29110SOL    HW189772   8.733   0.037   5.124  0.5288  0.6662  2.4872
29110SOL    HW289773   8.858   0.052   5.207  2.5634  0.6163 -0.4179
29111SOL     OW89774   8.197   5.596   5.904 -1.0304 -0.2891 -0.0080
29111SOL    HW189775   8.110   5.632   5.887 -0.0463  1.6437 -1.3791
29111SOL    HW289776   8.244   5.667   5.948  1.1661  0.5397 -3.3007
29112SOL     OW89777   8.431   4.682   0.804  0.2763 -0.5104  0.1603
29112SOL    HW189778   8.413   4.681   0.898 -0.3003 -0.6866  0.0507
29112SOL    HW289779   8.526   4.693   0.798  0.2414  0.2138  0.7541
29113SOL     OW89780   0.761   0.520   7.105  0.1909  0.2731 -0.3605
29113SOL    HW189781   0.723   0.443   7.147  0.9409  0.5772  0.9274
29113SOL    HW289782   0.811   0.485   7.032  0.5333 -0.4789  0.2239
29114SOL     OW89783   9.257   1.645   6.610  0.0599 -0.8025  0.2333
29114SOL    HW189784   9.345   1.607   6.614  0.3951 -0.0079  0.8264
29114SOL    HW289785   9.209   1.602   6.681  0.3198 -0.4295  0.6471
29115SOL     OW89786   9.116   3.336   9.002  0.2173 -0.4147 -0.1485
29115SOL    HW189787   9.037   3.287   9.024  0.4470 -0.8354 -0.2420
29115SOL    HW289788   9.181   3.307   9.066  0.0594  0.5823  0.4743
29116SOL     OW89789   8.790   5.446   6.670 -0.2673 -0.0924  0.4172
29116SOL    HW189790   8.793   5.447   6.766  1.7312 -0.6308  0.4092
29116SOL    HW289791   8.862   5.387   6.645 -0.7939 -0.0067 -1.4120
29117SOL     OW89792   5.453   4.579   1.192 -0.0924 -0.4786 -0.2655
29117SOL    HW189793   5.405   4.657   1.219 -0.6911 -0.8941 -0.0819
29117SOL    HW289794   5.385   4.512   1.183  0.2956 -0.7685 -1.2271
29118SOL     OW89795   0.345   9.810   7.220 -0.0837 -0.3326  0.4778
29118SOL    HW189796   0.298   9.835   7.299  1.6720 -0.0883  1.5154
29118SOL    HW289797   0.334   9.715   7.214 -2.1032 -0.0888 -0.2978
29119SOL     OW89798   8.018   9.710   3.948  0.0022  0.2042 -0.4737
29119SOL    HW189799   7.945   9.730   4.006  0.9585 -0.9324  1.2091
29119SOL    HW289800   8.077   9.785   3.956 -0.1180  0.2862 -0.3635
29120SOL     OW89801   3.726   0.779   5.727  0.3770 -0.4325  0.6557
29120SOL    HW189802   3.642   0.790   5.771  0.5380 -0.0236  0.8654
29120SOL    HW289803   3.785   0.839   5.772  1.2053 -1.9013  1.6074
29121SOL     OW89804   3.976   6.405  10.008  0.4524 -0.4528 -0.5730
29121SOL    HW189805   4.043   6.389  10.074 -0.1227  0.6951  0.3125
29121SOL    HW289806   4.012   6.475   9.953  0.0772  0.0228 -0.2200
29122SOL     OW89807   1.920   6.684   4.289 -0.1200 -0.2004 -0.3072
29122SOL    HW189808   1.929   6.716   4.199  0.8618 -0.1081 -0.1942
29122SOL    HW289809   2.007   6.696   4.327 -0.8371  0.9648  1.0573
29123SOL     OW89810   5.934   2.782   0.477 -0.2889  0.1274 -0.1234
29123SOL    HW189811   5.981   2.711   0.433  1.2656  0.8017  0.3696
29123SOL    HW289812   5.984   2.798   0.557 -0.9749  1.3624  0.0850
29124SOL     OW89813   5.171   5.693   0.392  0.2061  0.2445 -0.2330
29124SOL    HW189814   5.241   5.717   0.332  0.2620 -0.9355 -0.6620
29124SOL    HW289815   5.090   5.713   0.345  0.2448  0.6960 -0.1148
29125SOL     OW89816   9.459   2.790   8.981 -0.4981  0.5176 -0.0743
29125SOL    HW189817   9.426   2.866   9.028  0.8769  0.5872  0.8286
29125SOL    HW289818   9.443   2.716   9.039  0.5062  0.4963  0.1977
29126SOL     OW89819   3.205   8.869   6.379 -0.0128  0.0004  0.0877
29126SOL    HW189820   3.193   8.775   6.394 -1.5531  0.0238 -0.8337
29126SOL    HW289821   3.126   8.909   6.414 -1.1214  0.5633 -2.8053
29127SOL     OW89822   5.881   6.406   1.186 -0.1190 -0.1409  0.3958
29127SOL    HW189823   5.854   6.431   1.098 -1.4187  1.3708  1.1681
29127SOL    HW289824   5.974   6.430   1.190 -0.5049  1.5795  0.0094
29128SOL     OW89825   7.928   1.336   5.889 -0.6480  0.1301 -0.9616
29128SOL    HW189826   7.835   1.319   5.871 -0.6771  0.6581 -1.3423
29128SOL    HW289827   7.928   1.421   5.934 -0.4766 -0.6109  0.4983
29129SOL     OW89828   7.747   5.178   7.641 -0.2286 -0.0588 -0.0203
29129SOL    HW189829   7.809   5.164   7.569  0.0563  0.6124  0.0812
29129SOL    HW289830   7.662   5.190   7.599  0.1544  1.7333 -0.3711
29130SOL     OW89831   6.275   8.559   7.210  0.0742  0.3323  0.3701
29130SOL    HW189832   6.199   8.585   7.262  0.2273  1.1007  0.2241
29130SOL    HW289833   6.262   8.465   7.194 -0.8919  0.4728  0.2578
29131SOL     OW89834   2.804   6.548   1.027 -0.0519  0.0434 -0.1199
29131SOL    HW189835   2.714   6.522   1.046  0.1550 -1.1644 -0.7250
29131SOL    HW289836   2.858   6.483   1.070  0.5867  1.1584  0.8334
29132SOL     OW89837   8.464   0.335   5.976  0.2230 -0.3504 -0.5742
29132SOL    HW189838   8.495   0.306   5.890  0.6669 -2.3623  0.2101
29132SOL    HW289839   8.371   0.313   5.977 -0.3625  1.8351 -1.3603
29133SOL     OW89840   9.066   6.773  10.147  0.1627  0.0719  0.4742
29133SOL    HW189841   9.052   6.732  10.062 -1.6275  0.8872  0.3240
29133SOL    HW289842   9.008   6.726  10.207  1.2269 -0.3360  1.2197
29134SOL     OW89843   1.800   7.396   3.220 -0.3735  0.0207  0.0266
29134SOL    HW189844   1.828   7.439   3.300 -0.6753  1.5694 -0.6703
29134SOL    HW289845   1.735   7.455   3.182 -1.1027 -1.2415 -0.7813
29135SOL     OW89846   8.323   6.406   4.978  0.5832 -0.4637 -0.2016
29135SOL    HW189847   8.395   6.437   4.923 -0.3157  2.8506  0.2844
29135SOL    HW289848   8.365   6.356   5.048  2.2463  0.1825 -0.7063
29136SOL     OW89849   7.443   4.621   7.159 -0.1201 -0.0553  0.0568
29136SOL    HW189850   7.376   4.561   7.191 -0.9989  0.3325 -1.0194
29136SOL    HW289851   7.399   4.674   7.092  0.9516  0.9894  0.1472
29137SOL     OW89852   0.565   1.629   1.843 -0.2248  0.0534 -0.0746
29137SOL    HW189853   0.476   1.599   1.829  0.2883 -0.5719 -2.4069
29137SOL    HW289854   0.569   1.715   1.802  0.4076 -0.2187 -0.6095
29138SOL     OW89855   4.963   9.479   3.267  0.0572  0.4845  0.0248
29138SOL    HW189856   5.049   9.480   3.308  0.3761 -0.3780 -0.6095
29138SOL    HW289857   4.913   9.416   3.318  0.7759 -1.4037 -1.4915
29139SOL     OW89858   6.567   1.025   2.977  0.3945  0.7297 -0.3327
29139SOL    HW189859   6.528   0.939   2.957  1.7799 -0.5413  1.9458
29139SOL    HW289860   6.492   1.080   3.001 -0.3663 -0.5626  0.3980
29140SOL     OW89861   3.703   1.488   5.930 -0.1247 -0.2068 -0.8373
29140SOL    HW189862   3.765   1.478   5.858  0.4569 -2.2335 -0.1130
29140SOL    HW289863   3.621   1.453   5.897 -0.2636  0.2637 -1.0001
29141SOL     OW89864   9.216   6.511  10.333 -0.0782  0.0167  0.4021
29141SOL    HW189865   9.256   6.441  10.384 -1.1024  0.0264  1.2411
29141SOL    HW289866   9.196   6.470  10.248  0.7799 -0.2574  0.3263
29142SOL     OW89867   3.071   9.455   5.908  0.2002 -0.0394 -0.1641
29142SOL    HW189868   2.995   9.513   5.907 -0.0695 -0.3893 -0.1188
29142SOL    HW289869   3.146   9.513   5.897 -0.1374  0.2153 -1.2471
29143SOL     OW89870   9.397   5.266   9.214  0.8242  0.4774 -0.8849
29143SOL    HW189871   9.336   5.319   9.267  1.3201  1.0791 -0.8986
29143SOL    HW289872   9.384   5.298   9.125  0.8493  0.2983 -0.9523
29144SOL     OW89873   0.483   5.310   1.459 -0.2911 -0.0607 -0.3511
29144SOL    HW189874   0.520   5.356   1.384  0.2058 -0.6232 -0.4544
29144SOL    HW289875   0.519   5.357   1.535  1.4410 -1.1611 -0.4239
29145SOL     OW89876   8.157   4.253   6.406  0.2372 -0.9991  0.6471
29145SOL    HW189877   8.167   4.325   6.469  2.2776 -0.7585  0.1096
29145SOL    HW289878   8.238   4.254   6.356 -1.0870 -1.5375 -1.6440
29146SOL     OW89879   6.081   4.691   7.092  0.2222  1.0015  0.2106
29146SOL    HW189880   6.110   4.665   7.179  2.3359 -0.9068 -0.9496
29146SOL    HW289881   6.035   4.614   7.058  0.0583  1.4432 -0.6033
29147SOL     OW89882   8.037   3.924   0.327  0.1269 -0.2591  0.1275
29147SOL    HW189883   7.978   3.852   0.348 -2.2263  0.8895 -1.9567
29147SOL    HW289884   8.034   3.981   0.404 -1.2528 -0.4050  0.1994
29148SOL     OW89885   5.572   4.575   6.020 -0.0510 -0.6528  0.0384
29148SOL    HW189886   5.597   4.660   5.984  0.8340 -0.1759  1.6938
29148SOL    HW289887   5.482   4.562   5.988  0.1588  0.4135 -1.0736
29149SOL     OW89888   9.736   2.164   8.487  0.5397 -0.0365 -0.3856
29149SOL    HW189889   9.806   2.184   8.549 -0.2845 -2.9621  1.7042
29149SOL    HW289890   9.766   2.083   8.444 -0.1647  0.4494 -1.8810
29150SOL     OW89891   4.656  10.296   7.070  0.0392 -0.0841  0.7234
29150SOL    HW189892   4.660  10.346   7.152 -1.0062 -0.8528  1.2722
29150SOL    HW289893   4.684  10.207   7.095  0.3293 -0.1683  0.1100
29151SOL     OW89894   7.658   9.012   4.978  0.5185 -0.9108  0.2322
29151SOL    HW189895   7.618   9.021   4.891 -0.9232  0.3364  0.9871
29151SOL    HW289896   7.752   9.003   4.960  0.3864  0.4286 -1.4334
29152SOL     OW89897   6.188   8.416   0.599  0.0450  0.0319 -0.3255
29152SOL    HW189898   6.137   8.446   0.675 -0.4539 -0.4883 -0.4387
29152SOL    HW289899   6.130   8.352   0.557 -1.0494  2.5643 -2.9825
29153SOL     OW89900   4.511   6.559   5.492  0.1012  0.3020 -0.0881
29153SOL    HW189901   4.601   6.582   5.468  0.0764 -0.1366 -0.6355
29153SOL    HW289902   4.459   6.585   5.416  0.0846 -1.5977 -0.7856
29154SOL     OW89903   4.011   6.236   6.002 -0.6591  0.2590  0.7437
29154SOL    HW189904   3.963   6.244   6.084  0.8581  1.8903  1.5204
29154SOL    HW289905   4.093   6.191   6.026 -0.8436 -0.6276 -0.1831
29155SOL     OW89906   1.283   1.495   2.101  0.0564 -0.5864 -0.3333
29155SOL    HW189907   1.198   1.496   2.059 -0.7390 -1.1403  1.1974
29155SOL    HW289908   1.279   1.566   2.165  1.0824 -0.0361 -0.8439
29156SOL     OW89909   5.326  10.472   1.751 -0.4498 -0.0729 -0.4407
29156SOL    HW189910   5.301  10.529   1.824  0.3495  0.5987 -0.6745
29156SOL    HW289911   5.365  10.531   1.687  2.6954 -1.1025  0.3281
29157SOL     OW89912   4.801   3.593   7.946 -0.0595  0.4084  0.1488
29157SOL    HW189913   4.811   3.549   7.862  0.8105  2.2617 -0.7819
29157SOL    HW289914   4.810   3.524   8.011 -0.3594 -1.0029 -1.2554
29158SOL     OW89915   6.613   3.757   8.938 -0.0293  0.3125  0.0974
29158SOL    HW189916   6.652   3.684   8.986 -0.0459 -0.0982 -0.5070
29158SOL    HW289917   6.660   3.759   8.854  1.0587  1.9802  0.6964
29159SOL     OW89918   5.624   3.605   0.227  0.1964  0.4652 -0.1755
29159SOL    HW189919   5.715   3.586   0.246  0.0018  1.7913  2.5370
29159SOL    HW289920   5.621   3.699   0.212 -0.7835  0.5333  0.3441
29160SOL     OW89921   0.867   1.742   7.690 -0.3402 -0.6736  0.3302
29160SOL    HW189922   0.948   1.702   7.722  0.2709 -0.4107 -0.8004
29160SOL    HW289923   0.797   1.686   7.723  0.1403  0.1222  2.9194
29161SOL     OW89924   1.807   7.916   7.100  0.4350  0.0778 -0.3320
29161SOL    HW189925   1.806   7.965   7.018  0.7607 -0.2946 -0.5650
29161SOL    HW289926   1.725   7.865   7.098  0.2115  0.4318 -0.1999
29162SOL     OW89927   7.801   7.063   8.521 -0.3103  0.0753 -0.1786
29162SOL    HW189928   7.823   7.104   8.604 -1.2264 -1.2688  0.7593
29162SOL    HW289929   7.847   7.115   8.455  1.7031  0.2352  1.2819
29163SOL     OW89930   8.687   2.387   2.345  0.0434  0.6039 -0.5298
29163SOL    HW189931   8.751   2.330   2.303  0.7086  1.2142 -0.3722
29163SOL    HW289932   8.643   2.432   2.272 -0.8121 -0.4325 -0.6743
29164SOL     OW89933   2.671   4.832   3.830 -0.1131  0.0752 -0.3953
29164SOL    HW189934   2.580   4.833   3.799 -0.3407 -0.3108  0.2473
29164SOL    HW289935   2.677   4.906   3.890  0.2131  0.5626 -1.0132
29165SOL     OW89936   4.469   8.442   5.173  0.3305  0.3359 -0.3891
29165SOL    HW189937   4.530   8.496   5.223  0.8620  0.7093 -1.3907
29165SOL    HW289938   4.401   8.503   5.144 -0.1535  0.0572  0.1454
29166SOL     OW89939   2.472   4.538   2.830  0.1902  0.0040 -0.2246
29166SOL    HW189940   2.516   4.453   2.833  0.1922 -0.0711 -1.7267
29166SOL    HW289941   2.432   4.542   2.743 -0.9982  0.9595  0.3311
29167SOL     OW89942   9.870   5.035   6.915  0.0048  0.4014  0.0457
29167SOL    HW189943   9.866   4.971   6.986  1.1515 -0.3187 -0.5117
29167SOL    HW289944   9.916   4.990   6.844 -2.6629  0.4689 -1.8854
29168SOL     OW89945   0.318   8.776   1.804  0.4494  0.3823  0.0102
29168SOL    HW189946   0.284   8.730   1.881 -0.4784 -0.4463 -0.8695
29168SOL    HW289947   0.338   8.864   1.836  0.0410  0.0671  1.1902
29169SOL     OW89948   0.690   2.647   8.861 -0.4594 -0.0986 -0.0829
29169SOL    HW189949   0.640   2.676   8.937 -0.1355  0.2525 -0.0008
29169SOL    HW289950   0.780   2.674   8.880 -0.3726 -0.0249 -0.5808
29170SOL     OW89951   7.972   4.390   3.232 -0.5414  0.3982  0.2517
29170SOL    HW189952   7.906   4.458   3.220 -1.1285 -0.5899 -3.0523
29170SOL    HW289953   7.924   4.308   3.224  0.8473 -0.3541 -0.8029
29171SOL     OW89954   8.751   0.489   1.250  0.1712 -0.4125 -0.3409
29171SOL    HW189955   8.720   0.544   1.179  0.7105  0.5433  0.1445
29171SOL    HW289956   8.674   0.440   1.278 -0.8904  1.6560  0.6210
29172SOL     OW89957   9.482   1.321   2.613 -0.5319 -0.0690 -0.3112
29172SOL    HW189958   9.432   1.361   2.684 -0.2214  0.0724 -0.1670
29172SOL    HW289959   9.424   1.323   2.537 -0.3547  1.1046 -0.4371
29173SOL     OW89960   0.563   0.881   6.680  0.4657 -0.0041  0.0931
29173SOL    HW189961   0.507   0.818   6.634 -0.2891  0.7304 -0.0136
29173SOL    HW289962   0.619   0.827   6.736  0.1256 -0.7940 -0.3093
29174SOL     OW89963   2.398   7.409   4.302  0.1590  0.4529  0.0504
29174SOL    HW189964   2.359   7.382   4.385  0.0742 -0.8024 -0.3818
29174SOL    HW289965   2.491   7.416   4.320  0.7063 -3.3899 -0.5491
29175SOL     OW89966   4.559   8.429   1.934  0.3773 -1.1122  0.1015
29175SOL    HW189967   4.560   8.349   1.881 -1.0050 -1.8851  1.1517
29175SOL    HW289968   4.592   8.401   2.019  1.3800 -0.1758  0.0325
29176SOL     OW89969   1.941   9.505   3.977 -0.4284  0.2105 -0.6125
29176SOL    HW189970   1.986   9.586   3.954  0.5097  0.3456  1.4399
29176SOL    HW289971   1.857   9.533   4.012 -0.3896  0.2491 -0.5505
29177SOL     OW89972   3.887   1.729   2.122  0.2009 -0.9999  0.3635
29177SOL    HW189973   3.792   1.730   2.127  0.1802 -1.4122  0.1045
29177SOL    HW289974   3.908   1.782   2.045  0.1096 -2.0848 -0.4302
29178SOL     OW89975   7.378   9.313   2.900 -0.3823 -0.1056 -0.0940
29178SOL    HW189976   7.343   9.296   2.812 -1.2819  0.7225  0.0820
29178SOL    HW289977   7.459   9.361   2.885 -0.9683  0.7995 -0.4775
29179SOL     OW89978   9.293   3.332   6.961 -0.4709  0.0394 -0.0414
29179SOL    HW189979   9.285   3.424   6.988 -2.1798 -0.1807  0.3393
29179SOL    HW289980   9.283   3.282   7.042 -1.4735 -0.5103 -0.4803
29180SOL     OW89981   5.529  10.200   4.847 -0.0121  0.3216  0.9926
29180SOL    HW189982   5.556  10.109   4.856 -0.3206 -0.3355 -2.8482
29180SOL    HW289983   5.437  10.200   4.872  0.1623 -0.2813  1.6515
29181SOL     OW89984   6.711   5.175   3.469  0.5897  0.3082 -0.7144
29181SOL    HW189985   6.716   5.083   3.442  1.4079  0.0494  0.2539
29181SOL    HW289986   6.802   5.205   3.467  0.2359  1.3531 -1.8414
29182SOL     OW89987   2.896   6.852   6.223  0.2251 -0.3709  0.3793
29182SOL    HW189988   2.819   6.849   6.166 -0.4630  0.4414  1.2228
29182SOL    HW289989   2.901   6.764   6.261  0.3123 -0.7227 -0.4381
29183SOL     OW89990   9.610   2.637   7.949 -0.0139 -0.2673  0.4603
29183SOL    HW189991   9.652   2.591   8.021  1.4755  1.2023  0.5862
29183SOL    HW289992   9.540   2.688   7.991 -0.1234 -0.5723  0.6495
29184SOL     OW89993   1.300   9.447   9.103 -0.5551  0.0611  0.0220
29184SOL    HW189994   1.321   9.406   9.019 -1.2071 -1.6437  0.6341
29184SOL    HW289995   1.311   9.540   9.088  0.3335 -0.2745 -1.6679
29185SOL     OW89996   1.091   8.812   3.665  0.7068 -0.2363 -0.0793
29185SOL    HW189997   1.143   8.775   3.737  1.3594  0.2554 -0.2920
29185SOL    HW289998   1.101   8.749   3.594  0.2705 -0.5952  0.1760
29186SOL     OW89999  10.264   5.673   2.657  0.2054 -0.2749 -0.3782
29186SOL    HW190000  10.330   5.714   2.601 -0.7277  1.7738 -0.0712
29186SOL    HW290001  10.203   5.633   2.596  0.3994 -0.0190 -0.7452
29187SOL     OW90002  10.076   6.122   1.702 -0.0604 -0.3585  0.3298
29187SOL    HW190003  10.162   6.122   1.744  0.4383  0.3472 -0.6587
29187SOL    HW290004  10.019   6.164   1.767  0.4094 -0.4951  0.8428
29188SOL     OW90005   4.867   4.663  10.491  0.6092 -0.0254  0.5690
29188SOL    HW190006   4.784   4.665  10.539  0.3956  0.8667  0.1908
29188SOL    HW290007   4.910   4.745  10.514  0.3353  0.6142 -1.0161
29189SOL     OW90008   5.519   0.970  10.102 -0.0447 -0.3682  0.3237
29189SOL    HW190009   5.498   1.050  10.150  0.0720  0.7084 -1.3154
29189SOL    HW290010   5.484   0.985  10.014  1.0006 -1.6321 -0.3570
29190SOL     OW90011   1.143   8.860   4.238  0.1937 -0.0787 -0.1709
29190SOL    HW190012   1.062   8.907   4.257 -0.3372 -0.6049 -1.0778
29190SOL    HW290013   1.115   8.770   4.221  0.8289 -0.0262 -1.6366
29191SOL     OW90014   5.748   2.281   1.107 -0.2339 -0.1561  0.1772
29191SOL    HW190015   5.697   2.200   1.096  0.2301 -0.3313 -0.7728
29191SOL    HW290016   5.838   2.255   1.089 -0.1093  0.6224 -0.3397
29192SOL     OW90017   0.678   9.296   2.623 -0.1014  0.8214 -0.6632
29192SOL    HW190018   0.687   9.300   2.527 -0.7824  0.3774 -0.7496
29192SOL    HW290019   0.594   9.338   2.641 -1.9456 -2.5784 -0.6360
29193SOL     OW90020   5.376   2.629   6.453  0.0996 -0.3737  0.3552
29193SOL    HW190021   5.323   2.676   6.388  0.5913 -1.7218 -1.0926
29193SOL    HW290022   5.338   2.654   6.537 -0.2241  1.8588 -0.3903
29194SOL     OW90023   6.334   4.233   3.010  0.0789  0.0717  0.7803
29194SOL    HW190024   6.239   4.225   3.015 -0.3483  3.5083  0.6434
29194SOL    HW290025   6.364   4.222   3.100 -0.8420  1.9086  1.3643
29195SOL     OW90026   7.506   1.024   1.643  0.3151  0.3191 -0.1887
29195SOL    HW190027   7.534   1.072   1.722  0.8177  0.4513 -0.4443
29195SOL    HW290028   7.582   0.971   1.619  0.4124  0.8016 -0.9856
29196SOL     OW90029   3.577   1.421   0.413  0.0457  0.1187  0.0692
29196SOL    HW190030   3.604   1.478   0.485 -1.4164  2.4457 -1.1187
29196SOL    HW290031   3.599   1.469   0.334 -2.9355 -0.0442 -0.9825
29197SOL     OW90032   9.792   2.380   4.414 -0.0055  0.0405  0.0326
29197SOL    HW190033   9.883   2.408   4.428  0.3904 -0.0248 -2.0781
29197SOL    HW290034   9.739   2.450   4.452  0.8981  0.2502  0.9833
29198SOL     OW90035   5.274   2.422   3.091 -0.1167  0.9066  0.6612
29198SOL    HW190036   5.190   2.393   3.126 -0.4054 -1.7615 -1.9174
29198SOL    HW290037   5.338   2.358   3.124 -0.0124 -0.1873 -1.5208
29199SOL     OW90038   8.116   7.218   8.511  0.6632 -0.3428  0.1683
29199SOL    HW190039   8.057   7.213   8.436  0.0238 -1.8852  0.7351
29199SOL    HW290040   8.076   7.283   8.569  0.2676 -0.3586 -0.0837
29200SOL     OW90041   6.653   9.298   2.685  0.0137 -0.4480 -0.2179
29200SOL    HW190042   6.676   9.366   2.747  0.8930 -1.4965  0.6445
29200SOL    HW290043   6.720   9.303   2.617 -0.4525  0.1337 -0.6440
29201SOL     OW90044   1.809   8.992   7.134 -0.1341 -0.1529  0.4277
29201SOL    HW190045   1.724   8.952   7.116 -0.6602  0.5364  1.2922
29201SOL    HW290046   1.800   9.028   7.222  0.6612  0.9652  0.0723
29202SOL     OW90047   5.985   8.217   0.547 -0.3074  0.1375 -0.0032
29202SOL    HW190048   5.964   8.132   0.586 -0.2548  0.8866  1.7433
29202SOL    HW290049   5.902   8.263   0.543 -0.1480  0.4368  0.1409
29203SOL     OW90050  10.422   4.681   6.072  0.0418  0.6844 -0.7004
29203SOL    HW190051  10.470   4.712   6.148  0.7484 -1.4555 -0.2136
29203SOL    HW290052  10.343   4.735   6.070 -0.8510 -0.2736  2.5857
29204SOL     OW90053   3.059   7.772   1.031  0.0512  0.5899 -0.3416
29204SOL    HW190054   2.990   7.710   1.004 -0.1715  0.0976  1.2823
29204SOL    HW290055   3.141   7.727   1.010 -0.1135  0.1771 -0.1139
29205SOL     OW90056   6.249   0.382   9.724  0.1290 -0.5723 -0.4259
29205SOL    HW190057   6.165   0.380   9.678 -0.7566 -0.2976  1.0728
29205SOL    HW290058   6.315   0.364   9.657 -1.2240 -2.1141 -1.4087
29206SOL     OW90059   6.086   5.228   7.724  0.5558  0.0865 -0.0144
29206SOL    HW190060   6.112   5.161   7.787 -0.8618  1.0945  1.7125
29206SOL    HW290061   6.108   5.311   7.767  0.3287  0.7968 -1.2219
29207SOL     OW90062   9.113   1.909   4.003  0.1129  0.5126  0.7603
29207SOL    HW190063   9.159   1.981   4.045  1.4811  0.7022 -0.9904
29207SOL    HW290064   9.167   1.885   3.928 -2.5235  0.6368 -1.3249
29208SOL     OW90065   4.978   9.212   0.859  0.1073  0.6452 -0.0486
29208SOL    HW190066   5.004   9.303   0.874 -0.7061  0.5455  2.4292
29208SOL    HW290067   5.047   9.161   0.900  0.8216  0.0865 -1.8724
29209SOL     OW90068   8.334   8.422   2.942  0.3632 -0.0663 -0.1337
29209SOL    HW190069   8.419   8.461   2.964 -0.0477  0.4825  0.5329
29209SOL    HW290070   8.275   8.497   2.933  0.0646 -0.4078 -1.1553
29210SOL     OW90071   2.813   3.196   6.100  0.3949  0.1476  0.1060
29210SOL    HW190072   2.811   3.195   6.196 -3.0185 -1.6624  0.1464
29210SOL    HW290073   2.766   3.275   6.076 -0.6999 -0.4989  0.0223
29211SOL     OW90074   3.586  10.002   5.117 -0.1144  0.6835 -0.1302
29211SOL    HW190075   3.520  10.048   5.066 -0.2138  0.5139 -0.1527
29211SOL    HW290076   3.614  10.066   5.183 -0.3123  0.7484 -0.1096
29212SOL     OW90077   6.219   6.847   9.182 -0.0838 -0.1193  0.3625
29212SOL    HW190078   6.256   6.762   9.159  1.6772  0.5606  0.5245
29212SOL    HW290079   6.206   6.892   9.098 -1.1394 -0.5719  0.2686
29213SOL     OW90080   0.304   1.365   4.609  0.3019 -0.6515  0.1573
29213SOL    HW190081   0.368   1.435   4.599  0.0661 -0.1282  1.9498
29213SOL    HW290082   0.337   1.293   4.555  2.6435 -0.5626  1.3710
29214SOL     OW90083   6.877   1.289   3.659  0.0983  0.1802 -0.2959
29214SOL    HW190084   6.793   1.312   3.697  0.2545 -0.8489  0.7348
29214SOL    HW290085   6.882   1.340   3.578 -0.9248  1.2468  0.2922
29215SOL     OW90086   9.698   5.089   1.935 -0.1329  0.3516  0.5179
29215SOL    HW190087   9.772   5.148   1.922 -2.1521  2.8243 -0.6500
29215SOL    HW290088   9.708   5.023   1.866  1.3476  0.1828  0.8657
29216SOL     OW90089   4.206   2.748   8.720  0.3508  0.2225 -0.2774
29216SOL    HW190090   4.155   2.697   8.783  0.4016 -0.7999 -1.0304
29216SOL    HW290091   4.250   2.682   8.666  0.7539  1.0733 -1.0152
29217SOL     OW90092   4.480   9.889   0.134  0.1410 -0.3114  0.0931
29217SOL    HW190093   4.430   9.843   0.067 -0.0906 -0.1667  0.1679
29217SOL    HW290094   4.435   9.870   0.216  0.1381 -0.0877  0.1454
29218SOL     OW90095   3.157   2.178   6.461  0.1040  0.3258  0.0088
29218SOL    HW190096   3.190   2.267   6.471  2.3068 -0.5844  1.7752
29218SOL    HW290097   3.203   2.145   6.383 -0.2317  0.5350 -0.2781
29219SOL     OW90098   1.700   8.970   3.936 -0.3029  0.0142  0.4585
29219SOL    HW190099   1.645   9.021   3.876  0.6034  0.7798  0.2694
29219SOL    HW290100   1.690   9.014   4.021 -1.1029 -0.7062  0.7529
29220SOL     OW90101   0.612   6.332  10.102 -0.3260  0.4844 -0.4146
29220SOL    HW190102   0.646   6.255  10.056  0.5252 -0.9445  2.3776
29220SOL    HW290103   0.525   6.305  10.132  0.1688  0.3837  0.9882
29221SOL     OW90104   7.648   4.021   1.913  0.5678  0.5099  0.7549
29221SOL    HW190105   7.585   4.093   1.911 -0.4607 -0.3804  0.5190
29221SOL    HW290106   7.669   4.010   2.006 -3.2180 -2.1756  1.5418
29222SOL     OW90107  10.000   3.229   5.677 -0.4106  0.5839 -0.1034
29222SOL    HW190108  10.045   3.173   5.739 -0.6396 -0.0568 -0.5135
29222SOL    HW290109  10.070   3.268   5.624 -0.1470  1.7512  1.0355
29223SOL     OW90110   0.642   4.345   6.070 -0.1285 -0.3821  0.2339
29223SOL    HW190111   0.668   4.370   5.981  1.8494 -0.8346  0.6267
29223SOL    HW290112   0.560   4.297   6.058  0.3669 -0.8969 -1.4233
29224SOL     OW90113   5.419   0.049   5.661 -0.3541 -0.3690 -0.3816
29224SOL    HW190114   5.387  -0.039   5.639 -0.2182 -0.2312 -1.1879
29224SOL    HW290115   5.449   0.042   5.751 -1.5567 -0.8081 -0.0006
29225SOL     OW90116   9.021  10.241   9.689  0.5205 -0.1302 -0.4011
29225SOL    HW190117   9.039  10.170   9.751 -1.6654 -1.5765 -1.3023
29225SOL    HW290118   9.105  10.257   9.646  1.5803 -0.5615  1.4011
29226SOL     OW90119   7.616   1.416   9.667 -0.6902 -0.3954  0.4728
29226SOL    HW190120   7.562   1.372   9.602 -1.7846  0.0613  1.0484
29226SOL    HW290121   7.563   1.490   9.697  1.0428  1.2793 -0.3660
29227SOL     OW90122   8.311   5.443   2.086  0.0387  0.4484 -0.0480
29227SOL    HW190123   8.346   5.355   2.098  0.6896  0.6779 -0.2042
29227SOL    HW290124   8.310   5.456   1.991 -1.0917  0.2057 -0.0763
29228SOL     OW90125   7.237   5.930   9.737  0.0729 -0.2917 -0.6580
29228SOL    HW190126   7.228   6.022   9.713  0.9755 -0.6156 -2.3298
29228SOL    HW290127   7.312   5.929   9.796 -0.1558  0.0716 -0.3473
29229SOL     OW90128   7.183  10.451   2.425  0.2421  0.3480  0.0575
29229SOL    HW190129   7.092  10.426   2.442  0.8504 -1.0789  1.4726
29229SOL    HW290130   7.188  10.544   2.445 -1.3415  0.9354 -2.0027
29230SOL     OW90131   9.098   0.434   7.912 -0.1901 -1.0432  0.3700
29230SOL    HW190132   9.038   0.503   7.882  0.5821 -1.2104 -1.7712
29230SOL    HW290133   9.125   0.462   8.000  1.6118  2.5358 -1.0849
29231SOL     OW90134   4.772   0.504   1.549  0.0229  0.8711  0.4376
29231SOL    HW190135   4.704   0.479   1.610  0.9642 -1.2745  0.7012
29231SOL    HW290136   4.838   0.547   1.603 -0.8465  2.4933  0.2606
29232SOL     OW90137   2.335   5.507   3.141  0.8366 -0.3028  0.3052
29232SOL    HW190138   2.299   5.451   3.073 -0.8786  0.4046  0.5865
29232SOL    HW290139   2.260   5.535   3.193  1.8448  0.8436  1.2415
29233SOL     OW90140   1.593   8.676   2.591 -0.1051  0.1796  0.1067
29233SOL    HW190141   1.556   8.654   2.506  0.5904  0.8765 -0.3873
29233SOL    HW290142   1.686   8.654   2.584  0.0925  0.8819  0.4513
29234SOL     OW90143   4.122  10.022   2.028  0.0522  0.4574  0.1833
29234SOL    HW190144   4.204  10.052   1.988  0.8543  0.3379  1.6870
29234SOL    HW290145   4.126   9.927   2.019 -0.4256  0.5030 -0.6501
29235SOL     OW90146   2.689   1.117   2.840 -0.6974  0.3914  0.3454
29235SOL    HW190147   2.768   1.111   2.893 -0.6384  1.3824  0.3967
29235SOL    HW290148   2.662   1.027   2.826  0.5662  0.0343  0.1278
29236SOL     OW90149  10.055   8.150   3.348  0.2657 -0.1217 -0.1435
29236SOL    HW190150  10.117   8.222   3.337 -0.4456  0.7758  1.3506
29236SOL    HW290151  10.104   8.084   3.398 -0.3971  1.2721  2.4937
29237SOL     OW90152   0.760   9.754   7.670  0.1218 -0.5353  0.1849
29237SOL    HW190153   0.831   9.764   7.733 -0.1537  1.0811  0.2802
29237SOL    HW290154   0.764   9.833   7.617 -1.5244 -0.4775  0.1056
29238SOL     OW90155   6.102   4.236   9.856  0.0612  0.0017 -0.1456
29238SOL    HW190156   6.032   4.192   9.808  0.8365 -0.0356 -1.2866
29238SOL    HW290157   6.073   4.326   9.865 -1.4108 -0.6180  1.9482
29239SOL     OW90158   1.174   6.391   4.174 -0.3101 -0.5722  0.0936
29239SOL    HW190159   1.170   6.346   4.090 -0.8033 -1.8243  0.7659
29239SOL    HW290160   1.085   6.387   4.208  0.0003 -0.5916  0.9289
29240SOL     OW90161   2.158   2.239   4.743 -0.1383  0.0301 -0.3404
29240SOL    HW190162   2.248   2.266   4.727 -0.3498  1.5774  0.8259
29240SOL    HW290163   2.115   2.248   4.658  0.4869  0.6794 -0.6003
29241SOL     OW90164   2.287   2.540   8.377 -0.2356  0.1225 -0.2770
29241SOL    HW190165   2.369   2.500   8.347 -0.8910 -0.5540 -1.2142
29241SOL    HW290166   2.308   2.576   8.463  1.2513  0.6335 -0.8241
29242SOL     OW90167   2.827  10.195   6.332 -0.3504  0.0882 -0.4780
29242SOL    HW190168   2.915  10.208   6.298 -0.3035  0.5476 -0.1736
29242SOL    HW290169   2.833  10.216   6.425 -1.0450  1.3265 -0.6932
29243SOL     OW90170   3.493   5.747   2.636  0.5152  0.1233  0.1708
29243SOL    HW190171   3.434   5.767   2.708 -0.6136  1.5551 -1.0753
29243SOL    HW290172   3.448   5.679   2.586  0.8680 -0.2185  0.3150
29244SOL     OW90173   6.529   9.277   3.990 -0.0368 -0.6381  0.2928
29244SOL    HW190174   6.453   9.222   4.008  0.8429 -1.5536  1.3958
29244SOL    HW290175   6.524   9.347   4.055  0.4838 -1.1606  0.9093
29245SOL     OW90176   6.153   9.095  10.386 -0.3030  0.1334 -0.0421
29245SOL    HW190177   6.227   9.083  10.327 -1.1711  0.2286 -1.1858
29245SOL    HW290178   6.083   9.041  10.349 -1.2722  1.2067  0.1646
29246SOL     OW90179   0.530   2.017   5.319  0.6277  0.3975  0.0678
29246SOL    HW190180   0.582   2.063   5.385  1.6138  0.1250 -0.4945
29246SOL    HW290181   0.453   2.072   5.305  1.1726  1.2319  0.3162
29247SOL     OW90182   5.626   9.315   5.951 -0.5017 -0.4296 -0.5338
29247SOL    HW190183   5.714   9.328   5.916 -0.5982 -0.6332 -0.8598
29247SOL    HW290184   5.612   9.388   6.010 -0.3595 -0.0391 -0.9748
29248SOL     OW90185   5.186   1.817  10.152 -0.4285  0.5989  0.1663
29248SOL    HW190186   5.273   1.843  10.180  0.7149 -1.5393 -1.0688
29248SOL    HW290187   5.185   1.835  10.058 -2.1040  2.4545  0.4829
29249SOL     OW90188   6.292   0.774   6.659 -0.4066  0.2147  0.4406
29249SOL    HW190189   6.230   0.742   6.724  1.2836 -1.6283  1.2324
29249SOL    HW290190   6.372   0.792   6.709  0.8298 -0.9302 -1.0324
29250SOL     OW90191   2.783   9.566   6.511 -0.1079  0.3111  0.1978
29250SOL    HW190192   2.705   9.510   6.512 -0.2154  0.4423 -0.4507
29250SOL    HW290193   2.762   9.637   6.572 -0.7888  0.7290 -0.5037
29251SOL     OW90194   9.195   7.110   6.803  0.5315  0.1081 -0.0142
29251SOL    HW190195   9.159   7.021   6.810  1.0362 -0.2568 -1.6761
29251SOL    HW290196   9.145   7.150   6.732 -0.5717  1.6486  1.5428
29252SOL     OW90197   2.988   9.816   4.367 -0.0549 -0.6344 -0.3235
29252SOL    HW190198   3.025   9.899   4.336  0.6740  0.2242  2.5323
29252SOL    HW290199   2.899   9.839   4.394 -0.3834 -1.1649 -0.9325
29253SOL     OW90200   1.043   5.693  10.273  0.3371 -0.2931  0.1287
29253SOL    HW190201   1.123   5.712  10.224  1.0171 -1.4691  0.7411
29253SOL    HW290202   1.009   5.612  10.235 -0.4137  0.0356  0.0676
29254SOL     OW90203   6.133   7.807  10.035 -0.2116 -0.1476  0.3785
29254SOL    HW190204   6.204   7.867  10.012 -0.2323 -0.3438 -0.2197
29254SOL    HW290205   6.069   7.817   9.965  0.3474 -1.7714 -0.4154
29255SOL     OW90206  10.217   2.155   7.020 -0.2060 -0.6787 -0.2057
29255SOL    HW190207  10.301   2.173   7.063 -1.3655  0.1064  1.8802
29255SOL    HW290208  10.170   2.098   7.081 -1.3122 -0.8741 -1.2012
29256SOL     OW90209   8.344   8.651   5.404 -0.0335 -0.2023  0.1542
29256SOL    HW190210   8.419   8.607   5.443  0.1334  0.2747  0.3868
29256SOL    HW290211   8.284   8.666   5.478 -0.1513 -0.1620  0.0522
29257SOL     OW90212   5.040   1.384   6.658  0.2224  0.1362  1.0379
29257SOL    HW190213   5.104   1.354   6.723 -0.7460 -1.5230  1.2849
29257SOL    HW290214   5.073   1.350   6.575  0.2894  0.3421  0.9790
29258SOL     OW90215   1.982   0.388   3.755 -0.4960 -0.0816  0.6990
29258SOL    HW190216   1.959   0.331   3.682 -1.4561  1.1471 -0.0161
29258SOL    HW290217   2.030   0.332   3.816 -0.7510 -1.4393 -0.3002
29259SOL     OW90218   1.701   2.706   5.080  0.0868  0.0117 -0.1196
29259SOL    HW190219   1.716   2.794   5.046 -2.3003 -0.2621 -2.2062
29259SOL    HW290220   1.736   2.647   5.013 -0.4974 -0.5870  0.0777
29260SOL     OW90221   6.438   5.859   8.298  0.5888  0.4379 -0.6590
29260SOL    HW190222   6.390   5.929   8.342 -0.0088 -0.7293  0.6285
29260SOL    HW290223   6.516   5.902   8.262 -0.1294  1.8857 -0.5693
29261SOL     OW90224  10.182  10.287   0.522  0.3661  0.0038 -0.5263
29261SOL    HW190225  10.269  10.311   0.553  0.7457  0.7338 -2.0747
29261SOL    HW290226  10.194  10.200   0.482  0.0222 -0.6230  0.6866
29262SOL     OW90227   0.656   8.663   6.540  0.0820 -0.2780 -0.2087
29262SOL    HW190228   0.664   8.655   6.445 -0.9875  0.5000 -0.3838
29262SOL    HW290229   0.620   8.580   6.569 -0.9260 -0.0088 -0.6667
29263SOL     OW90230   7.478   0.629   4.705  0.1082 -0.3645 -0.1271
29263SOL    HW190231   7.538   0.699   4.731  1.1175 -1.2743  0.0425
29263SOL    HW290232   7.534   0.559   4.673 -0.8858 -1.1325 -0.2497
29264SOL     OW90233   4.128   5.931   6.410 -0.1602  0.1072  0.1927
29264SOL    HW190234   4.046   5.882   6.403 -2.0209  2.5295  2.8337
29264SOL    HW290235   4.156   5.918   6.500  2.9533 -1.2788 -0.8119
29265SOL     OW90236   8.444   3.613   3.865  0.0760  0.0954  0.2037
29265SOL    HW190237   8.371   3.636   3.808  2.0021 -1.8213 -3.4013
29265SOL    HW290238   8.516   3.670   3.837  1.0904 -0.8802  0.7190
29266SOL     OW90239   7.939   1.237   0.497 -0.2950  0.0113  0.4370
29266SOL    HW190240   7.966   1.311   0.552 -1.9897  1.6185 -0.7704
29266SOL    HW290241   7.987   1.248   0.415 -1.5828  0.6544 -0.2718
29267SOL     OW90242   2.208   5.962   5.636  1.0002 -0.0049 -0.0282
29267SOL    HW190243   2.213   5.979   5.730  0.9864 -0.9345  0.1521
29267SOL    HW290244   2.249   6.039   5.596  0.1780  0.8285  0.6882
29268SOL     OW90245   9.674   3.936   9.096 -0.1820 -0.6534 -0.5932
29268SOL    HW190246   9.591   3.954   9.052 -0.4059 -1.3596 -0.4692
29268SOL    HW290247   9.697   4.019   9.138 -2.9592 -1.4630  2.9385
29269SOL     OW90248   4.215   3.948   5.252 -0.0046 -0.2738  0.3579
29269SOL    HW190249   4.178   3.904   5.328  0.4561  1.2557  1.5153
29269SOL    HW290250   4.144   3.947   5.187 -1.7040  1.4557  2.0701
29270SOL     OW90251   3.119   4.635   8.252 -0.0926  1.0495 -0.2906
29270SOL    HW190252   3.145   4.569   8.316  0.4215  0.1204 -1.4169
29270SOL    HW290253   3.143   4.719   8.292  1.1800  0.4284  0.3026
29271SOL     OW90254   5.036   0.413   0.210 -0.0774 -0.1129 -0.5254
29271SOL    HW190255   4.956   0.362   0.224 -0.1884 -0.1773 -1.3161
29271SOL    HW290256   5.026   0.490   0.264  0.5975 -1.4364  1.6149
29272SOL     OW90257   9.733   9.964   9.993 -0.0080 -0.0953 -0.5225
29272SOL    HW190258   9.815   9.950   9.946  0.2028 -2.0090  0.2920
29272SOL    HW290259   9.760  10.000  10.077 -0.3195  2.5256 -1.4727
29273SOL     OW90260   5.137   3.368   1.193 -0.0594 -0.1871 -0.2789
29273SOL    HW190261   5.117   3.351   1.101  1.7472  2.4613 -1.2877
29273SOL    HW290262   5.232   3.367   1.198  0.0196  2.5783  0.8507
29274SOL     OW90263   7.236   8.883   4.710 -0.6659 -0.4757  0.0245
29274SOL    HW190264   7.324   8.872   4.746 -0.5657 -0.8599 -0.3369
29274SOL    HW290265   7.188   8.929   4.779 -0.0174  0.2960 -0.0276
29275SOL     OW90266   0.835  10.388   1.168 -0.0312 -0.1613  0.0229
29275SOL    HW190267   0.805  10.382   1.078  0.6547 -1.8722 -0.1292
29275SOL    HW290268   0.799  10.310   1.211  2.4556 -1.2521  0.3177
29276SOL     OW90269   4.205   6.052   5.571 -0.6773  0.7444  0.4745
29276SOL    HW190270   4.294   6.047   5.607 -0.7411 -1.3264  0.4858
29276SOL    HW290271   4.218   6.043   5.476 -0.8078  1.7625  0.3494
29277SOL     OW90272   7.797   2.517   6.272  0.2802 -0.7357  0.0192
29277SOL    HW190273   7.880   2.477   6.246  1.0486  1.0728 -0.5269
29277SOL    HW290274   7.757   2.544   6.189  0.4087  0.7112  0.4005
29278SOL     OW90275   9.763   2.121   9.980 -0.1682 -0.1638  0.0342
29278SOL    HW190276   9.772   2.130   9.885  0.2778  0.8727  0.1563
29278SOL    HW290277   9.669   2.108   9.994 -0.4427  1.1276 -0.4656
29279SOL     OW90278   5.504   2.364   9.154  0.1876  0.0639 -0.2788
29279SOL    HW190279   5.552   2.394   9.231 -0.9457  2.6112 -0.4524
29279SOL    HW290280   5.423   2.328   9.189 -0.7960  2.1693 -0.2250
29280SOL     OW90281   3.245   1.214   9.143  0.0258  0.1793 -0.2377
29280SOL    HW190282   3.217   1.271   9.071 -0.4069  0.0745 -0.1565
29280SOL    HW290283   3.246   1.272   9.219 -0.4564  0.0727 -0.1472
29281SOL     OW90284   0.278   7.936   4.256  0.4535 -0.1972 -0.0997
29281SOL    HW190285   0.228   7.966   4.332  1.7090  0.2258  0.5836
29281SOL    HW290286   0.216   7.941   4.183 -0.5287  0.1900  0.7339
29282SOL     OW90287   7.714   6.351   3.541 -0.5883 -0.1154 -0.1235
29282SOL    HW190288   7.627   6.381   3.567 -0.3589  0.7194 -0.3021
29282SOL    HW290289   7.757   6.325   3.623 -1.3550 -1.5240 -0.1336
29283SOL     OW90290   1.997   5.552   0.789  0.2899  0.3933  0.2952
29283SOL    HW190291   2.081   5.590   0.762  0.0759  0.4966 -0.2318
29283SOL    HW290292   1.988   5.578   0.881  1.6037 -1.0018  0.8609
29284SOL     OW90293   3.558   6.956   7.893  0.0353  0.8102  0.3240
29284SOL    HW190294   3.511   7.031   7.930  1.1727  1.7097 -0.0297
29284SOL    HW290295   3.624   6.994   7.836  0.0891 -0.4933 -0.5309
29285SOL     OW90296   8.271   2.966   3.752  0.0652  0.0039  0.5056
29285SOL    HW190297   8.275   3.004   3.840 -0.7019  1.2454  0.0270
29285SOL    HW290298   8.182   2.933   3.745 -0.1158  0.6062 -0.0781
29286SOL     OW90299   6.563   1.546   4.890  0.3834 -0.0149  0.2557
29286SOL    HW190300   6.505   1.480   4.852  1.1873 -1.1123  0.9057
29286SOL    HW290301   6.625   1.497   4.943  0.4637  1.3358  1.4751
29287SOL     OW90302   3.590   3.825   0.205 -0.2570 -0.2316  0.3468
29287SOL    HW190303   3.684   3.816   0.216 -0.2883  0.9741  1.9756
29287SOL    HW290304   3.553   3.772   0.275 -0.7316  0.7181  0.8330
29288SOL     OW90305   0.796   4.495   8.870  0.2932  0.3081 -0.1415
29288SOL    HW190306   0.736   4.429   8.835 -1.2846  0.2044  2.4663
29288SOL    HW290307   0.741   4.572   8.884  1.5793  1.3931 -0.8718
29289SOL     OW90308   7.440   3.797   0.336 -0.0491  0.4310 -0.1958
29289SOL    HW190309   7.365   3.830   0.288  1.0419  1.3560 -1.3503
29289SOL    HW290310   7.432   3.835   0.423 -1.2712 -0.0517 -0.0908
29290SOL     OW90311   9.034   4.710   2.438  0.1935 -0.1311 -0.1961
29290SOL    HW190312   9.015   4.730   2.530 -0.1918  0.4429 -0.3926
29290SOL    HW290313   8.948   4.687   2.401  0.3294 -0.2562 -0.4328
29291SOL     OW90314   8.493   9.402   9.665  0.0471  0.6206  0.2802
29291SOL    HW190315   8.469   9.482   9.617 -0.4182  0.0091 -0.5359
29291SOL    HW290316   8.588   9.404   9.668  0.0236  1.5136  0.8010
29292SOL     OW90317   6.935   5.410   5.587 -0.3407  0.0126  0.2213
29292SOL    HW190318   6.990   5.419   5.509 -0.3639  1.6467  0.3391
29292SOL    HW290319   6.996   5.426   5.660 -0.5700 -0.2291  0.4675
29293SOL     OW90320   0.858   5.794   3.051  0.3318 -0.0681  0.4750
29293SOL    HW190321   0.819   5.721   3.002  2.0612 -0.5712 -0.2504
29293SOL    HW290322   0.882   5.858   2.983  0.8793  0.1446  0.8630
29294SOL     OW90323   6.567   5.027   3.749 -0.4166  0.2957  0.2524
29294SOL    HW190324   6.648   4.984   3.723  0.0270  1.0243  0.3999
29294SOL    HW290325   6.498   4.964   3.726  0.3346 -1.7323  2.9965
29295SOL     OW90326   3.924   0.069   3.112  0.1799  0.0009 -0.3044
29295SOL    HW190327   3.858   0.106   3.171 -0.7073 -0.0475 -1.2381
29295SOL    HW290328   3.874   0.012   3.054  1.4461 -2.5157  0.9110
29296SOL     OW90329   3.922   9.451   1.405 -0.0640  0.1834 -0.4923
29296SOL    HW190330   3.845   9.407   1.371 -2.1098  2.1641  1.2523
29296SOL    HW290331   3.933   9.528   1.349 -0.6787  1.0240  0.5095
29297SOL     OW90332   7.980   0.437   5.508 -0.3503  0.9765 -0.6961
29297SOL    HW190333   7.993   0.487   5.428 -0.8203  2.3869  0.0850
29297SOL    HW290334   7.914   0.486   5.557 -0.9183 -0.4733  0.0533
29298SOL     OW90335   2.736   2.921   5.004  0.1767 -0.7481  0.2936
29298SOL    HW190336   2.809   2.939   4.945  0.8841 -0.5295  1.2136
29298SOL    HW290337   2.695   2.843   4.968 -0.8690  0.6663 -1.8410
29299SOL     OW90338   4.981   2.999   5.190 -0.5173  0.0957 -0.5666
29299SOL    HW190339   4.948   3.062   5.126 -2.1953 -0.0027  0.1454
29299SOL    HW290340   5.068   2.975   5.158 -1.2046  0.2369 -2.6664
29300SOL     OW90341   8.659   3.689   1.614 -0.7345  0.6415  1.0405
29300SOL    HW190342   8.709   3.744   1.674  1.2457 -0.7144  0.7355
29300SOL    HW290343   8.724   3.630   1.576 -2.4652 -0.6598 -0.0445
29301SOL     OW90344   1.910   0.870   7.253 -0.2466 -0.4035  0.3979
29301SOL    HW190345   1.894   0.815   7.330  1.8356 -1.0599  0.4341
29301SOL    HW290346   1.929   0.807   7.183  2.1811  0.1779  0.4309
29302SOL     OW90347   2.601   3.861   2.264  0.6600 -0.6005  0.1014
29302SOL    HW190348   2.563   3.913   2.193  1.8265  0.0590 -0.0595
29302SOL    HW290349   2.592   3.770   2.234 -0.2968 -0.4331 -0.1586
29303SOL     OW90350   5.507   6.642   3.328  0.3937 -0.0290  0.4217
29303SOL    HW190351   5.554   6.611   3.405  0.5774 -2.8228 -0.7066
29303SOL    HW290352   5.571   6.694   3.279  1.5279 -1.5276  0.2554
29304SOL     OW90353   6.680   7.223   5.008 -0.6135 -0.1236  0.5960
29304SOL    HW190354   6.606   7.164   4.996  0.7080 -1.9106  0.8452
29304SOL    HW290355   6.723   7.226   4.922 -0.3557  0.0177  0.7284
29305SOL     OW90356   8.814   9.226   7.723  0.4025  0.3335  0.5373
29305SOL    HW190357   8.816   9.139   7.764 -0.0042 -0.1711 -0.4830
29305SOL    HW290358   8.762   9.279   7.784 -1.7114 -0.8597 -0.1130
29306SOL     OW90359   7.628   8.422   8.820  0.0469  0.6138 -0.0324
29306SOL    HW190360   7.721   8.415   8.800  0.1823 -1.6585  1.1620
29306SOL    HW290361   7.590   8.341   8.788 -1.2642  0.8619  0.8090
29307SOL     OW90362   5.075   9.631   5.438 -0.8012 -0.0354  0.4090
29307SOL    HW190363   5.123   9.714   5.436 -0.5674 -0.1324  1.2814
29307SOL    HW290364   5.065   9.606   5.346 -0.4608  0.7223  0.1603
29308SOL     OW90365   3.114   3.044   6.390  0.4270  0.3435 -0.0031
29308SOL    HW190366   3.164   3.125   6.402  0.5042  0.6534 -2.0714
29308SOL    HW290367   3.161   2.996   6.322  0.1327 -1.2732  0.8741
29309SOL     OW90368   3.639   8.461   1.474 -0.3960 -0.3498 -0.0591
29309SOL    HW190369   3.657   8.419   1.559  0.9116 -1.2081 -0.7256
29309SOL    HW290370   3.725   8.469   1.433 -0.9729  0.4023 -1.1515
29310SOL     OW90371   1.682   7.107   4.286 -0.0046  0.0831  0.4176
29310SOL    HW190372   1.715   7.034   4.337 -1.3433 -1.3842 -0.7091
29310SOL    HW290373   1.587   7.105   4.299 -0.4416 -0.5455 -2.2584
29311SOL     OW90374   4.577   4.526   2.400 -0.1756 -0.4039  0.0638
29311SOL    HW190375   4.620   4.575   2.330 -1.5970 -0.5659 -0.9795
29311SOL    HW290376   4.483   4.538   2.383 -0.5648 -2.4753  0.4744
29312SOL     OW90377   4.944  10.425   6.143  0.5467  0.2018  0.5845
29312SOL    HW190378   5.029  10.438   6.101  0.5269 -0.2511  0.3955
29312SOL    HW290379   4.908  10.514   6.151  0.3391  0.2769 -0.8148
29313SOL     OW90380   7.423   9.763   4.230  0.1899 -0.2395  0.4011
29313SOL    HW190381   7.337   9.739   4.264  0.1138 -1.2591 -0.4591
29313SOL    HW290382   7.409   9.774   4.136  1.0069 -0.4610  0.2490
29314SOL     OW90383   2.028   8.434   0.881 -0.3559  0.5074  0.1919
29314SOL    HW190384   2.092   8.388   0.935 -1.9964 -0.8421  1.0690
29314SOL    HW290385   1.949   8.436   0.934 -0.9971  2.3784 -0.7508
29315SOL     OW90386   3.187   7.980   0.882 -0.1811 -0.2770 -0.2398
29315SOL    HW190387   3.257   7.926   0.845  0.4492  0.5832 -0.3164
29315SOL    HW290388   3.142   7.921   0.942  1.7759 -0.3479  1.2531
29316SOL     OW90389   3.843   7.978   0.866 -0.1284 -0.8922 -0.6360
29316SOL    HW190390   3.811   7.993   0.955 -0.1542 -0.8824 -0.6469
29316SOL    HW290391   3.892   8.057   0.845  1.1749 -1.5079 -0.0626
29317SOL     OW90392   0.662   8.326   7.337 -0.3025 -0.2045  0.4607
29317SOL    HW190393   0.673   8.420   7.353  1.2543  0.4529 -3.4508
29317SOL    HW290394   0.598   8.320   7.266  1.0447 -1.9359 -0.6947
29318SOL     OW90395   4.304   1.997   0.556 -0.6376 -0.9642 -0.1879
29318SOL    HW190396   4.217   2.015   0.520  0.6886 -0.2122 -3.4192
29318SOL    HW290397   4.352   2.079   0.542 -0.0244 -0.4164  4.0054
29319SOL     OW90398   2.623   2.023   7.786  0.1557  0.1814 -0.2393
29319SOL    HW190399   2.701   1.975   7.815  0.5361  0.0111 -1.4688
29319SOL    HW290400   2.603   1.986   7.700 -0.6263  0.9920 -0.4232
29320SOL     OW90401  10.108   8.959   1.200 -0.6017 -0.2926 -0.1884
29320SOL    HW190402  10.137   8.900   1.269 -4.3681 -1.1015  0.9261
29320SOL    HW290403  10.118   9.047   1.237  1.3852 -0.3933 -0.3670
29321SOL     OW90404   2.767   3.296   5.643 -0.7240 -0.3907 -0.0259
29321SOL    HW190405   2.680   3.267   5.671  0.0433 -3.3145 -0.3549
29321SOL    HW290406   2.762   3.297   5.547 -0.0746 -1.8991 -0.1056
29322SOL     OW90407   5.489   2.987   2.387 -0.6727  0.0842 -0.0440
29322SOL    HW190408   5.491   2.892   2.386  1.5434  0.0714  0.8237
29322SOL    HW290409   5.556   3.013   2.324 -1.7317  1.1083 -0.7988
29323SOL     OW90410   6.055   8.615   7.389 -0.1413  0.2679 -0.1815
29323SOL    HW190411   6.052   8.710   7.389 -1.7225  0.2453  0.7197
29323SOL    HW290412   5.965   8.587   7.376  0.3046 -1.1189 -0.5650
29324SOL     OW90413  10.037   9.558   0.532 -0.3659  0.2448  0.4543
29324SOL    HW190414  10.065   9.501   0.461 -0.3990 -1.8486  2.0257
29324SOL    HW290415   9.953   9.594   0.504  0.0629  0.2010 -0.9244
29325SOL     OW90416   6.497   7.473   3.514  0.3224  0.4181  0.2070
29325SOL    HW190417   6.564   7.464   3.581 -0.6036  0.1456  1.1396
29325SOL    HW290418   6.417   7.495   3.563  0.0292  2.2027 -0.9814
29326SOL     OW90419   4.186   4.488   3.689  1.1954  0.5148 -0.3389
29326SOL    HW190420   4.178   4.458   3.598  2.2172  0.6389 -0.4807
29326SOL    HW290421   4.280   4.483   3.708  1.0183  0.7049  0.6421
29327SOL     OW90422   1.839  10.154   5.150 -0.1667 -0.1054 -0.6384
29327SOL    HW190423   1.842  10.237   5.103 -1.4724 -0.4058 -1.3070
29327SOL    HW290424   1.874  10.090   5.088 -0.0490 -0.2023 -0.4733
29328SOL     OW90425   6.989   7.301   4.375  0.1832 -0.1831  0.5843
29328SOL    HW190426   6.945   7.385   4.361 -1.5097 -0.6983  2.4222
29328SOL    HW290427   6.975   7.281   4.468  0.4995 -2.5183  0.1927
29329SOL     OW90428   7.131   5.233   9.188 -0.7716 -0.4296  0.0097
29329SOL    HW190429   7.131   5.211   9.094  0.5210  0.2865 -0.1771
29329SOL    HW290430   7.126   5.328   9.190 -0.2693 -0.4178  0.6635
29330SOL     OW90431   6.763   0.537  10.231 -0.0627  0.2678 -0.1062
29330SOL    HW190432   6.826   0.519  10.300 -1.8217 -1.6613  1.0888
29330SOL    HW290433   6.680   0.506  10.265 -0.9563 -1.1240 -3.2124
29331SOL     OW90434   1.405   9.713   5.081  0.3056 -0.8686 -0.1889
29331SOL    HW190435   1.462   9.717   5.005  0.7352  0.8676  0.1883
29331SOL    HW290436   1.406   9.621   5.107 -0.6844 -1.7266 -2.8706
29332SOL     OW90437   4.281  10.383   6.580  0.0092  0.2425 -0.0478
29332SOL    HW190438   4.264  10.365   6.488 -0.1315 -1.0463  0.2138
29332SOL    HW290439   4.280  10.297   6.622 -0.1112  0.8261  1.1891
29333SOL     OW90440   8.810   7.295   8.378 -0.2253 -0.2642 -0.4276
29333SOL    HW190441   8.742   7.271   8.316 -0.3383 -0.4324 -0.2385
29333SOL    HW290442   8.863   7.215   8.388 -0.1464 -0.2074 -0.3857
29334SOL     OW90443   5.101   4.447   6.233  0.5900  0.3995 -0.2832
29334SOL    HW190444   5.060   4.489   6.308  0.9969  0.2506  0.0317
29334SOL    HW290445   5.149   4.373   6.271 -0.0902 -0.3374 -0.8209
29335SOL     OW90446   7.426   2.211   4.503  0.2237 -0.7451  0.3208
29335SOL    HW190447   7.483   2.287   4.512  0.6119 -1.1528  1.6306
29335SOL    HW290448   7.486   2.136   4.508 -0.2441 -1.1512 -0.0743
29336SOL     OW90449   8.886   4.499   3.504 -0.4207  0.1372  1.0994
29336SOL    HW190450   8.874   4.405   3.514  0.5402 -0.0051  1.0625
29336SOL    HW290451   8.869   4.516   3.411  0.4176 -0.1790  0.8771
29337SOL     OW90452   1.056   4.984   6.295  0.8488 -0.1066  0.3594
29337SOL    HW190453   1.080   4.941   6.212  0.5845 -0.7188  0.5942
29337SOL    HW290454   0.963   4.962   6.307  1.0601 -0.5736  1.1516
29338SOL     OW90455   9.782   4.145   7.389 -0.3282  0.0662  0.3647
29338SOL    HW190456   9.731   4.099   7.455 -0.7793 -0.6746 -0.4764
29338SOL    HW290457   9.873   4.126   7.411 -0.4840 -0.3136  0.6762
29339SOL     OW90458   8.116   4.084   3.130  0.2052 -0.3697 -0.3332
29339SOL    HW190459   8.081   4.042   3.208 -1.3265 -0.3833 -1.0033
29339SOL    HW290460   8.120   4.177   3.151  0.6902 -0.4812  0.0791
29340SOL     OW90461   6.635   2.343   5.929 -0.1577 -0.2224  0.7016
29340SOL    HW190462   6.639   2.438   5.935 -1.7677  0.0818 -1.6171
29340SOL    HW290463   6.560   2.326   5.873  2.0868 -2.6872 -1.8700
29341SOL     OW90464   3.648   1.700   0.929  0.5900 -0.4290 -0.1965
29341SOL    HW190465   3.737   1.736   0.930  0.3186  0.2444  0.3763
29341SOL    HW290466   3.591   1.775   0.945 -0.0496 -0.9610  0.0894
29342SOL     OW90467   2.627   9.503   6.216  0.1206  0.1433 -0.9479
29342SOL    HW190468   2.660   9.592   6.224  1.1768 -0.3290  0.3757
29342SOL    HW290469   2.681   9.463   6.148  1.2684 -0.1659  0.1217
29343SOL     OW90470   8.065   4.059   5.401  0.2255  0.5425  0.1507
29343SOL    HW190471   8.158   4.077   5.390  0.3190 -0.6601 -1.4399
29343SOL    HW290472   8.024   4.145   5.406  1.3933  1.0888  0.6418
29344SOL     OW90473   3.266   8.131   7.198 -0.3849 -0.1915  0.5729
29344SOL    HW190474   3.205   8.107   7.128 -1.4329  0.3062  1.2792
29344SOL    HW290475   3.353   8.127   7.158 -0.5823 -3.5430  0.2050
29345SOL     OW90476   4.333   7.833   2.154  0.0026 -0.3963  0.1037
29345SOL    HW190477   4.307   7.862   2.066  1.7088 -1.5185 -0.8400
29345SOL    HW290478   4.360   7.742   2.142  2.3363  0.0535  1.3029
29346SOL     OW90479   3.066   0.533   4.585  0.1780  0.2434  0.3335
29346SOL    HW190480   3.078   0.584   4.505  1.8035 -1.1873 -0.4101
29346SOL    HW290481   3.104   0.448   4.565  1.6381  0.1576  2.9643
29347SOL     OW90482   9.276   5.193   4.623  0.0731 -0.2963 -0.0565
29347SOL    HW190483   9.255   5.229   4.537  1.6499 -0.4162 -0.5157
29347SOL    HW290484   9.194   5.199   4.672 -0.6784  0.3805 -1.3466
29348SOL     OW90485   5.100   6.126   4.304 -0.5039  0.7363  0.3920
29348SOL    HW190486   5.054   6.042   4.297  0.3673 -0.0591  3.0531
29348SOL    HW290487   5.189   6.107   4.275  0.2960  0.0687  2.9925
29349SOL     OW90488   2.577   5.803   6.273  0.5391 -0.0631  0.2283
29349SOL    HW190489   2.636   5.805   6.349  1.0459  1.3602 -0.1617
29349SOL    HW290490   2.580   5.713   6.243 -0.0353 -0.7720  2.1686
29350SOL     OW90491  10.135   1.588   3.317  0.2358  0.4868 -0.2664
29350SOL    HW190492  10.044   1.560   3.312  0.2880  0.3059 -0.2146
29350SOL    HW290493  10.156   1.585   3.411 -0.0615  1.6752 -0.1483
29351SOL     OW90494   0.855   3.380   7.387  0.0621  0.3091 -0.1271
29351SOL    HW190495   0.778   3.351   7.338  0.7844  0.8658 -1.6206
29351SOL    HW290496   0.899   3.298   7.412  0.6768  0.0003 -2.0532
29352SOL     OW90497   3.649   1.351   3.700 -0.1815  0.5358 -0.6361
29352SOL    HW190498   3.600   1.282   3.656 -0.2578  0.7633 -0.9097
29352SOL    HW290499   3.586   1.422   3.712 -0.5248  0.0045  1.0068
29353SOL     OW90500   7.880   3.603   5.935  0.2069  0.0072  0.1866
29353SOL    HW190501   7.954   3.542   5.945  0.9217  0.5042 -1.6885
29353SOL    HW290502   7.920   3.683   5.900 -0.9867  0.9371  0.8775
29354SOL     OW90503   6.548   8.522   9.898 -0.4209 -0.2935 -0.0201
29354SOL    HW190504   6.537   8.446   9.956  2.2083 -0.5342  0.2850
29354SOL    HW290505   6.547   8.597   9.958  2.2660 -0.5400  0.4519
29355SOL     OW90506   6.885   8.214   1.647  0.1773  0.2438 -0.2236
29355SOL    HW190507   6.975   8.248   1.646  0.2420  0.1467  0.9449
29355SOL    HW290508   6.896   8.119   1.646  0.0844  0.2343 -0.2647
29356SOL     OW90509   9.188   0.115   6.132  0.1175 -0.5216 -0.0377
29356SOL    HW190510   9.230   0.201   6.136  0.4767 -0.7157  0.4521
29356SOL    HW290511   9.111   0.129   6.076  0.1316  0.1335  0.0928
29357SOL     OW90512   3.776   9.269   4.138  0.1190 -0.0440 -0.6466
29357SOL    HW190513   3.869   9.253   4.123  0.1612 -0.4818  0.0277
29357SOL    HW290514   3.764   9.362   4.117  0.2979 -0.4165 -2.5898
29358SOL     OW90515   3.912   9.859   0.620  0.2641  0.0520  0.3160
29358SOL    HW190516   3.846   9.804   0.580  1.2069 -0.7930 -0.1138
29358SOL    HW290517   3.878   9.878   0.707 -0.6621 -0.1349  0.0048
29359SOL     OW90518   5.357   2.511   1.912  0.0709  0.3315  0.0563
29359SOL    HW190519   5.440   2.542   1.948  0.2184  0.0640 -0.0569
29359SOL    HW290520   5.323   2.586   1.864  0.4058  0.3343 -0.1783
29360SOL     OW90521   7.248   4.781   1.702  0.9491 -0.5110 -0.3316
29360SOL    HW190522   7.317   4.842   1.730  0.0654  1.0556 -1.3803
29360SOL    HW290523   7.172   4.806   1.755  0.8603 -1.4545 -0.0009
29361SOL     OW90524   5.276   8.915   4.340  0.3757  0.5879 -0.0732
29361SOL    HW190525   5.357   8.867   4.327 -0.1319  0.3351 -3.2719
29361SOL    HW290526   5.278   8.984   4.273 -1.7700  0.9175  0.1090
29362SOL     OW90527   4.450   9.645   4.267 -0.0973  0.2459  0.0176
29362SOL    HW190528   4.369   9.596   4.279  0.4991 -0.7184  0.2551
29362SOL    HW290529   4.423   9.736   4.259 -1.2308 -0.1051 -0.2949
29363SOL     OW90530   6.602   8.533   7.704 -0.6811 -0.2222  0.3785
29363SOL    HW190531   6.575   8.511   7.793 -0.7924  1.5053  0.8026
29363SOL    HW290532   6.548   8.608   7.680  2.5743  2.4714  0.7313
29364SOL     OW90533   4.897   3.822   3.567  0.0616 -0.0230 -0.5504
29364SOL    HW190534   4.977   3.848   3.612  0.0620 -0.4645 -0.2826
29364SOL    HW290535   4.874   3.737   3.606 -0.5600  0.1199 -0.5877
29365SOL     OW90536   8.934   7.297   4.208 -0.6113 -0.0517 -0.1144
29365SOL    HW190537   8.911   7.222   4.263  1.7201 -0.3312  0.5864
29365SOL    HW290538   8.998   7.345   4.260 -0.1682  1.0230 -1.6085
29366SOL     OW90539   8.428   1.299   4.219  0.2376  0.2025  0.1435
29366SOL    HW190540   8.436   1.355   4.142 -0.0351  1.4174  0.9747
29366SOL    HW290541   8.513   1.303   4.262  0.3701 -0.4199 -0.0556
29367SOL     OW90542   3.128   7.027   0.436 -0.8226  0.1170  0.4950
29367SOL    HW190543   3.169   7.036   0.523  0.7939 -2.7845  0.1591
29367SOL    HW290544   3.036   7.045   0.451 -0.9500 -2.1709  3.3069
29368SOL     OW90545   0.177   8.755   3.516 -0.3511 -0.6862  0.4252
29368SOL    HW190546   0.152   8.713   3.599 -0.0812 -1.1585  0.2675
29368SOL    HW290547   0.094   8.772   3.472 -0.5989  0.8774  1.4133
29369SOL     OW90548   6.921   4.776   1.511  0.3204  0.7797 -0.5302
29369SOL    HW190549   6.999   4.722   1.508  0.4952  1.0726 -1.3496
29369SOL    HW290550   6.951   4.864   1.486  0.1077  1.3484  1.0810
29370SOL     OW90551   5.102   9.092   9.548 -0.0599  0.5515 -0.1281
29370SOL    HW190552   5.038   9.047   9.602  1.7828 -3.1004 -0.6814
29370SOL    HW290553   5.074   9.075   9.458  1.1246 -0.3615 -0.3550
29371SOL     OW90554   0.565   4.291   0.650 -0.7626 -0.9202 -0.0648
29371SOL    HW190555   0.641   4.347   0.638  0.4934 -2.8525 -1.6187
29371SOL    HW290556   0.537   4.308   0.740 -0.6027  2.2823 -0.4839
29372SOL     OW90557   1.502   0.850   6.423 -0.0426  0.0068  0.3188
29372SOL    HW190558   1.526   0.943   6.426 -1.0015  0.2514  0.8576
29372SOL    HW290559   1.465   0.838   6.335 -1.8837  0.6715  0.9599
29373SOL     OW90560   4.207   2.690   2.256  0.4349 -0.1053  0.3340
29373SOL    HW190561   4.121   2.689   2.298  1.1285 -1.4246  1.8164
29373SOL    HW290562   4.212   2.606   2.210  0.8336  0.0781  0.0347
29374SOL     OW90563   6.978   5.074   0.183  0.0035 -0.0990  0.6074
29374SOL    HW190564   6.887   5.075   0.213  0.3458 -0.5716  1.7096
29374SOL    HW290565   7.017   5.151   0.224 -0.2275  0.9323 -1.0192
29375SOL     OW90566   4.810   4.511   0.859  0.1513  0.1532  0.0287
29375SOL    HW190567   4.757   4.588   0.838 -1.0399  0.0399  2.2831
29375SOL    HW290568   4.900   4.544   0.860 -0.1483  1.0574 -0.9103
29376SOL     OW90569   1.493   9.199   4.424  0.0016 -0.1341  0.1371
29376SOL    HW190570   1.520   9.127   4.481  0.6134  1.7459  2.3584
29376SOL    HW290571   1.410   9.229   4.460  0.1429  0.7560 -0.2500
29377SOL     OW90572   7.896   2.122   2.359  0.2177 -0.0972  0.7392
29377SOL    HW190573   7.829   2.162   2.414 -0.0440  1.4974 -0.6730
29377SOL    HW290574   7.979   2.146   2.400  0.0606  1.8950 -0.0284
29378SOL     OW90575   2.435   7.967   0.437  0.0675 -0.2493  0.1005
29378SOL    HW190576   2.390   7.964   0.353  1.3147  2.9208 -0.8108
29378SOL    HW290577   2.365   7.986   0.500 -0.8496 -2.4803 -0.1144
29379SOL     OW90578   5.084   6.780   5.045 -0.1368 -0.5119  0.1801
29379SOL    HW190579   5.087   6.773   4.949 -0.1986 -1.1923  0.2266
29379SOL    HW290580   5.145   6.851   5.065  1.6785 -1.8804 -0.2101
29380SOL     OW90581   4.105   9.169   3.180 -0.0320 -0.0615 -0.3255
29380SOL    HW190582   4.200   9.176   3.169 -0.0122  0.4694  0.1336
29380SOL    HW290583   4.072   9.147   3.093  0.4860 -0.0029 -0.5391
29381SOL     OW90584   5.682   0.155   0.774  0.3016 -0.3268  0.3129
29381SOL    HW190585   5.590   0.154   0.746 -0.0620  1.8673  1.2030
29381SOL    HW290586   5.685   0.219   0.845  2.3978 -0.9182  0.8345
29382SOL     OW90587   8.389   5.462   1.808 -0.2128  0.1343  0.4202
29382SOL    HW190588   8.320   5.451   1.742  0.0162  2.4957 -0.3138
29382SOL    HW290589   8.464   5.415   1.771 -0.8063 -0.6814  0.2172
29383SOL     OW90590   4.552   8.314   2.203  0.3674 -0.1615  1.0827
29383SOL    HW190591   4.644   8.315   2.228  0.3576  0.1709  1.1125
29383SOL    HW290592   4.509   8.373   2.265  0.4149  1.0123  0.0525
29384SOL     OW90593   4.234   5.365   0.396 -0.3125 -0.4843  0.1228
29384SOL    HW190594   4.309   5.327   0.441 -1.1364 -0.1951  1.8193
29384SOL    HW290595   4.238   5.328   0.308  1.7617 -0.5162  0.1836
29385SOL     OW90596   1.340   9.013   9.550  0.2945  0.0242  0.3068
29385SOL    HW190597   1.429   8.979   9.543 -0.1730 -1.2289  0.2362
29385SOL    HW290598   1.285   8.935   9.556 -1.0245  0.6722 -2.1937
29386SOL     OW90599   9.647   0.391   9.896 -0.5371  0.5267 -0.1119
29386SOL    HW190600   9.636   0.347   9.812 -0.1057 -1.6450  0.8878
29386SOL    HW290601   9.740   0.413   9.899 -0.7742  1.6692 -0.6586
29387SOL     OW90602   2.726   5.031   8.666  0.1038  0.2749 -0.0686
29387SOL    HW190603   2.668   5.107   8.659 -1.5553 -0.9203  0.1075
29387SOL    HW290604   2.768   5.024   8.580  0.4785  1.4976 -0.0114
29388SOL     OW90605   9.229   7.320   9.913  0.0375  0.2704 -0.5399
29388SOL    HW190606   9.169   7.285   9.978  0.1429  2.1244  0.6449
29388SOL    HW290607   9.285   7.247   9.890  0.7151 -0.2350  2.3059
29389SOL     OW90608   7.235   7.606  10.426  0.3200  0.1581  0.3643
29389SOL    HW190609   7.202   7.572  10.343  2.2407  1.1318 -0.8940
29389SOL    HW290610   7.297   7.539  10.456 -0.8525 -0.5037  1.4155
29390SOL     OW90611   2.859   9.976   0.461  0.6025  0.2550  0.2241
29390SOL    HW190612   2.953   9.968   0.441  0.7156  1.7668  0.0422
29390SOL    HW290613   2.818   9.907   0.409  1.6121 -0.4615  0.3394
29391SOL     OW90614   6.271   5.789   5.266  0.0763  0.0347  0.5491
29391SOL    HW190615   6.275   5.695   5.247  0.4746  0.0145  0.7255
29391SOL    HW290616   6.184   5.816   5.237 -0.3882 -0.5759  1.3504
29392SOL     OW90617   8.335   7.056   4.208 -0.0345 -0.0740  0.5172
29392SOL    HW190618   8.254   7.102   4.186  0.0901 -0.0432  0.1373
29392SOL    HW290619   8.348   6.994   4.136  1.3792  1.3091 -0.4627
29393SOL     OW90620   0.921   2.861   0.742  0.4054  0.0577 -1.0228
29393SOL    HW190621   0.988   2.798   0.717  0.2081 -0.5224 -0.1397
29393SOL    HW290622   0.953   2.899   0.823 -0.2076 -0.0417 -0.7280
29394SOL     OW90623   2.832   0.440   3.163 -0.1702  0.6928 -0.5866
29394SOL    HW190624   2.737   0.430   3.151  0.0283  0.7281 -2.5190
29394SOL    HW290625   2.853   0.523   3.120  0.8260  0.3448 -0.7932
29395SOL     OW90626   7.722   8.472   1.845  0.3210  0.0142 -0.1016
29395SOL    HW190627   7.771   8.494   1.766 -0.6487 -1.4405 -1.1617
29395SOL    HW290628   7.747   8.382   1.866 -0.9108 -0.3101  0.0774
29396SOL     OW90629  10.211  10.163   9.188 -0.2405  0.6791  0.1949
29396SOL    HW190630  10.287  10.208   9.151  0.5416 -1.0229 -0.3714
29396SOL    HW290631  10.237  10.071   9.192 -1.7368  0.2664  1.4018
29397SOL     OW90632   5.087   7.546   4.327 -0.1098  0.3215  0.2764
29397SOL    HW190633   5.019   7.572   4.389  1.0780  1.3437  1.1911
29397SOL    HW290634   5.054   7.576   4.242 -1.5552 -0.7264  0.4298
29398SOL     OW90635   0.477   3.550   5.264 -0.7285  0.4890 -0.3111
29398SOL    HW190636   0.522   3.573   5.345 -1.9265  1.6863  0.0461
29398SOL    HW290637   0.386   3.537   5.289 -0.6452 -1.9870 -1.0054
29399SOL     OW90638   0.019   9.293   2.024  0.1623  0.0042  0.1314
29399SOL    HW190639  -0.004   9.212   2.070 -0.3977  0.7415  1.2044
29399SOL    HW290640   0.030   9.358   2.094 -0.0150  1.0066 -0.7451
29400SOL     OW90641   8.484   4.416   0.424 -0.2364 -0.4734  0.2696
29400SOL    HW190642   8.526   4.367   0.495  1.7470 -0.6306 -0.9404
29400SOL    HW290643   8.438   4.488   0.468  3.4046  1.2327  1.6078
29401SOL     OW90644   5.893   9.454   5.031  0.4656 -0.3955 -0.0026
29401SOL    HW190645   5.971   9.407   5.061  1.1875  1.6205  1.4767
29401SOL    HW290646   5.832   9.449   5.104 -0.2368 -0.7098 -0.5965
29402SOL     OW90647   9.971   0.435   0.671  0.2661  0.5137 -0.1413
29402SOL    HW190648  10.034   0.373   0.708  1.5124  1.5663 -0.3989
29402SOL    HW290649  10.002   0.449   0.581 -0.1099  1.3370 -0.1486
29403SOL     OW90650   6.496   2.644   1.565 -0.0269  0.4992 -0.5923
29403SOL    HW190651   6.413   2.606   1.595 -0.5365  0.0849 -2.3644
29403SOL    HW290652   6.471   2.698   1.490  1.3955 -0.4153 -1.7819
29404SOL     OW90653   9.252   2.443   1.890 -0.2913 -0.3480 -0.4609
29404SOL    HW190654   9.323   2.396   1.933 -1.2992  0.6023  2.4968
29404SOL    HW290655   9.173   2.413   1.935 -1.1843  2.4186 -0.0059
29405SOL     OW90656   6.160   9.476   7.158  0.0260 -0.4190  0.0449
29405SOL    HW190657   6.112   9.553   7.126  2.2980  1.6568  1.3033
29405SOL    HW290658   6.151   9.480   7.253 -2.1174 -3.4091  0.0937
29406SOL     OW90659   7.798   9.948   8.394 -0.7445  0.1835 -0.0430
29406SOL    HW190660   7.738   9.978   8.463 -0.8678 -2.6571  1.2049
29406SOL    HW290661   7.790  10.015   8.325 -1.0707  2.8170  2.3857
29407SOL     OW90662   3.312   0.369   2.275 -0.1317  0.0125  0.3919
29407SOL    HW190663   3.303   0.448   2.327 -2.8841 -1.5984  2.6519
29407SOL    HW290664   3.385   0.322   2.315  0.3672  0.6066  0.1819
29408SOL     OW90665   5.164   1.338   7.324 -0.0581 -0.3177 -0.4714
29408SOL    HW190666   5.108   1.381   7.388  2.0109 -1.3667  2.2364
29408SOL    HW290667   5.104   1.291   7.267 -2.0441  1.2974  0.1903
29409SOL     OW90668   8.570   8.049   6.643 -0.8489 -0.6330  0.1298
29409SOL    HW190669   8.656   8.010   6.656 -0.1779  0.4525 -0.8599
29409SOL    HW290670   8.588   8.142   6.625 -2.2441 -0.3131  0.2851
29410SOL     OW90671   8.584   2.779   8.452  0.0035  0.3359 -0.2661
29410SOL    HW190672   8.661   2.744   8.406  0.2309  0.7622 -0.2162
29410SOL    HW290673   8.610   2.780   8.544  0.0590  0.7669 -0.2808
29411SOL     OW90674   8.481   4.700   8.326  0.0429 -0.1201 -0.3757
29411SOL    HW190675   8.415   4.747   8.378  1.1187 -0.7984  1.7023
29411SOL    HW290676   8.441   4.693   8.239 -2.3946 -0.0139  0.6343
29412SOL     OW90677  10.184   8.595   8.830  0.0422 -0.0369  0.5267
29412SOL    HW190678  10.164   8.502   8.821  0.6238 -0.1521  0.3527
29412SOL    HW290679  10.259   8.609   8.773 -0.1833  0.5914  0.3767
29413SOL     OW90680   8.714   2.052   1.510 -0.4854  0.5757 -0.4578
29413SOL    HW190681   8.750   1.970   1.477 -2.6365 -0.0317 -1.4413
29413SOL    HW290682   8.702   2.037   1.604  1.4980  0.7268 -0.1383
29414SOL     OW90683   8.939   1.457   4.077 -0.0702  0.1815  0.7401
29414SOL    HW190684   8.905   1.389   4.019 -1.1792  0.3401  1.1963
29414SOL    HW290685   9.018   1.488   4.032 -0.1342 -0.6614  0.0092
29415SOL     OW90686   2.304   3.722   2.403 -0.0338  0.5391  0.1984
29415SOL    HW190687   2.355   3.697   2.327  1.3441  1.6940  0.6779
29415SOL    HW290688   2.323   3.655   2.468 -1.8740 -0.9135 -0.6871
29416SOL     OW90689  10.427   8.966   5.854 -0.0249  0.1365 -0.4308
29416SOL    HW190690  10.374   8.924   5.922 -1.0302  0.5851 -0.9209
29416SOL    HW290691  10.452   9.051   5.891 -0.5441  0.3672 -0.6068
29417SOL     OW90692   9.827   6.493   9.080 -0.0549  1.1401  0.0356
29417SOL    HW190693   9.790   6.456   9.160 -1.3987  0.2531 -0.9507
29417SOL    HW290694   9.896   6.433   9.055  0.6300  1.6256  0.7115
29418SOL     OW90695   7.941  10.278   7.692  0.0955 -0.4181 -0.4943
29418SOL    HW190696   8.003  10.266   7.764  1.4183  1.5480 -1.1999
29418SOL    HW290697   7.953  10.201   7.636 -0.0689 -1.3621  0.7344
29419SOL     OW90698   9.709   6.309   5.536  0.5296  0.0656 -0.0535
29419SOL    HW190699   9.796   6.334   5.507  0.2795  1.5815  0.3763
29419SOL    HW290700   9.712   6.316   5.631  0.5178 -1.9658  0.1296
29420SOL     OW90701   7.320   4.243   9.526  0.7901  0.1243 -0.2990
29420SOL    HW190702   7.316   4.275   9.436  2.2295  1.2590 -0.0021
29420SOL    HW290703   7.366   4.160   9.520  1.9475  0.7622 -0.5063
29421SOL     OW90704   4.973   5.140   8.654 -0.1309  0.3027 -0.3253
29421SOL    HW190705   4.927   5.056   8.645  1.6690 -0.6557 -1.3214
29421SOL    HW290706   5.023   5.131   8.735  0.9405 -0.0767 -1.0083
29422SOL     OW90707   4.510   0.970   2.528 -0.2541 -0.6583 -0.2794
29422SOL    HW190708   4.479   0.886   2.563 -1.6946 -0.3095 -0.6262
29422SOL    HW290709   4.544   1.016   2.604 -1.4483 -0.7307  0.3299
29423SOL     OW90710   2.039   7.765   1.049  0.1999  1.0782 -0.1508
29423SOL    HW190711   2.091   7.813   0.985 -1.0147  2.2549 -0.3170
29423SOL    HW290712   2.098   7.698   1.083  2.3641  3.3284  0.8536
29424SOL     OW90713   4.720  10.285   0.296 -0.0505 -0.4787 -0.1491
29424SOL    HW190714   4.685  10.247   0.377  1.4636 -0.7722  0.4064
29424SOL    HW290715   4.710  10.380   0.307 -0.5616 -0.5528  0.0382
29425SOL     OW90716   7.362   4.405  10.249 -0.7943 -0.5980  0.2317
29425SOL    HW190717   7.380   4.380  10.158 -0.2499  0.5647  0.0030
29425SOL    HW290718   7.267   4.397  10.257 -1.1483  1.4774 -1.1635
29426SOL     OW90719   7.115  10.391   2.145  0.0659  0.8367 -0.8439
29426SOL    HW190720   7.157  10.397   2.232  0.3670  2.1314 -1.0502
29426SOL    HW290721   7.184  10.357   2.088 -0.1677 -0.1315 -0.5592
29427SOL     OW90722   6.056   1.081   0.790 -0.1838  0.2647  0.4976
29427SOL    HW190723   5.965   1.062   0.813 -0.0803 -2.5725 -0.9869
29427SOL    HW290724   6.053   1.096   0.695  0.8656  0.2272  0.4538
29428SOL     OW90725   3.566   2.805   3.951  0.2330  0.1698 -0.9106
29428SOL    HW190726   3.512   2.803   4.030 -1.2771  0.1512 -1.9086
29428SOL    HW290727   3.543   2.888   3.908  2.0702  0.8577 -0.6761
29429SOL     OW90728   8.080   9.191   3.156  0.3507 -0.3399  0.1054
29429SOL    HW190729   8.061   9.109   3.201  0.1209 -0.3387  0.0113
29429SOL    HW290730   8.152   9.229   3.206  0.3258 -0.5028  0.2694
29430SOL     OW90731   3.499   7.936   3.599  0.4619  0.4466  0.3026
29430SOL    HW190732   3.532   7.960   3.512  1.3975  0.5016  0.6578
29430SOL    HW290733   3.577   7.904   3.646  0.2280  1.6115  1.5380
29431SOL     OW90734   8.460   6.521   0.176 -0.0687  0.1606 -0.1186
29431SOL    HW190735   8.555   6.508   0.175 -0.0525  0.2963 -0.3996
29431SOL    HW290736   8.425   6.444   0.221  0.4049  1.5167  2.8304
29432SOL     OW90737   3.857   0.558   2.165 -0.9727  0.3643 -0.2229
29432SOL    HW190738   3.839   0.562   2.071 -0.6251 -1.9948 -0.4593
29432SOL    HW290739   3.946   0.523   2.172 -1.4028 -0.5725  0.9785
29433SOL     OW90740   8.501   6.887  10.346 -0.1745 -0.0456 -0.5500
29433SOL    HW190741   8.443   6.818  10.377  0.5604 -0.2132  0.5497
29433SOL    HW290742   8.527   6.934  10.426  0.1831  0.8248 -1.1559
29434SOL     OW90743   4.484  10.323   8.406  0.5854  0.3447 -0.0539
29434SOL    HW190744   4.519  10.345   8.320 -0.8959  0.7763 -0.5929
29434SOL    HW290745   4.409  10.266   8.387  0.1080  0.6278  0.9342
29435SOL     OW90746   0.445   5.721   4.048  0.2485  0.1691  0.2382
29435SOL    HW190747   0.392   5.800   4.049 -0.5432 -0.3358 -0.6786
29435SOL    HW290748   0.394   5.658   3.999  0.1995 -1.4075  2.1760
29436SOL     OW90749   3.748   1.370   5.128  0.8059 -0.2658 -0.0910
29436SOL    HW190750   3.783   1.309   5.063  1.5365  0.8363 -0.7461
29436SOL    HW290751   3.711   1.313   5.196 -1.8251 -1.5337 -2.3559
29437SOL     OW90752   3.088   6.634   4.296  0.1045 -0.4863  0.0461
29437SOL    HW190753   3.181   6.653   4.311 -0.4330  2.0147  0.5831
29437SOL    HW290754   3.049   6.636   4.384 -1.0504  2.4189 -0.4212
29438SOL     OW90755   4.461   3.163   6.571 -0.1069 -0.6312  0.3302
29438SOL    HW190756   4.524   3.116   6.517 -1.1777 -0.8913 -0.7128
29438SOL    HW290757   4.402   3.095   6.604 -0.5836 -0.2430  0.2844
29439SOL     OW90758   5.813   3.547   1.406 -0.1527 -0.3322 -1.1909
29439SOL    HW190759   5.879   3.591   1.354 -0.9248  1.3105 -0.8328
29439SOL    HW290760   5.789   3.610   1.474 -0.9252 -1.5020 -0.3260
29440SOL     OW90761   5.541   6.736   9.229  0.1229  0.3270  0.3715
29440SOL    HW190762   5.543   6.647   9.265 -1.4176  0.0888 -0.0316
29440SOL    HW290763   5.482   6.730   9.153 -0.0588  1.7025  0.3695
29441SOL     OW90764   4.295   7.692   7.165  0.2947  0.2761 -0.0866
29441SOL    HW190765   4.309   7.734   7.249  0.6253 -0.0033 -0.0022
29441SOL    HW290766   4.309   7.599   7.181  1.8260  0.3622 -0.7593
29442SOL     OW90767   7.276   4.853   5.057 -0.5893 -0.0192 -0.2767
29442SOL    HW190768   7.294   4.937   5.100 -0.4325 -0.4341  0.4920
29442SOL    HW290769   7.181   4.847   5.055 -0.6251  0.6730 -1.3406
29443SOL     OW90770   6.069   5.259   2.247 -0.2702  0.1398  0.3455
29443SOL    HW190771   6.156   5.250   2.207 -0.7769 -0.4371 -0.6978
29443SOL    HW290772   6.064   5.350   2.275 -0.0799  0.7478 -1.4590
29444SOL     OW90773   2.884   8.571   5.998 -0.5178  0.0092  0.4960
29444SOL    HW190774   2.804   8.521   5.981 -0.9497  0.3725  1.3929
29444SOL    HW290775   2.931   8.570   5.915 -0.5658 -1.7908  0.4578
29445SOL     OW90776   5.477   8.581   6.319  0.1722  0.1381  0.1399
29445SOL    HW190777   5.468   8.610   6.228  0.9837  1.0678  0.3399
29445SOL    HW290778   5.404   8.623   6.365 -0.7969 -1.0848 -0.2364
29446SOL     OW90779   5.522   7.264   5.745 -0.5608 -0.5043 -0.3580
29446SOL    HW190780   5.590   7.273   5.678  2.0787 -5.1739  1.1744
29446SOL    HW290781   5.554   7.317   5.818 -0.5081  0.2252 -0.9054
29447SOL     OW90782   7.549   0.703   2.458 -0.1780 -0.0600  0.3413
29447SOL    HW190783   7.504   0.758   2.522  0.9822  1.5893 -0.1864
29447SOL    HW290784   7.641   0.708   2.483 -0.0030 -1.5240  0.0643
29448SOL     OW90785   7.623   6.872   7.334 -0.1757  0.3682 -0.0920
29448SOL    HW190786   7.615   6.778   7.318 -1.4953  0.6950 -1.5628
29448SOL    HW290787   7.599   6.913   7.251 -1.8861  2.0620  1.1406
29449SOL     OW90788   1.610   9.694   7.538  0.2294  0.8999 -0.2193
29449SOL    HW190789   1.545   9.682   7.468  0.5073 -0.8890 -0.2304
29449SOL    HW290790   1.691   9.713   7.492  0.6561 -1.3619 -0.5224
29450SOL     OW90791   9.824   6.228   4.679 -0.2750 -0.1470  0.0232
29450SOL    HW190792   9.889   6.271   4.623  0.1238 -0.9073 -0.1048
29450SOL    HW290793   9.863   6.232   4.767 -0.2323 -0.2650  0.0091
29451SOL     OW90794   0.945   8.172   1.419  0.2019 -0.3332 -0.1041
29451SOL    HW190795   0.898   8.110   1.364 -1.1434 -1.9443  2.7016
29451SOL    HW290796   1.038   8.158   1.397 -0.2476 -1.2259 -1.5643
29452SOL     OW90797   8.656   2.021   9.673 -0.1517 -0.1261 -0.2112
29452SOL    HW190798   8.587   2.088   9.669 -0.6464 -0.5125  1.1615
29452SOL    HW290799   8.625   1.959   9.739 -0.0107 -2.0933 -1.8949
29453SOL     OW90800   2.368   9.551   5.274 -0.4921  0.4126 -0.2363
29453SOL    HW190801   2.455   9.571   5.238 -1.1241 -0.6678 -2.5754
29453SOL    HW290802   2.366   9.455   5.277 -1.2321  0.4488  0.8383
29454SOL     OW90803   1.160   1.110   5.007 -0.0735 -0.2985 -0.1277
29454SOL    HW190804   1.249   1.144   5.008 -0.8438  1.8842  1.1668
29454SOL    HW290805   1.105   1.183   5.036 -2.3396 -1.4874 -1.0927
29455SOL     OW90806   2.377   9.993   4.280 -0.8040  0.6173 -0.2423
29455SOL    HW190807   2.455   9.937   4.272 -0.9223 -0.1637  2.7672
29455SOL    HW290808   2.315   9.941   4.332 -1.2409  3.1426  2.0219
29456SOL     OW90809  10.362   4.228   6.464  0.2167 -0.4740  0.0298
29456SOL    HW190810  10.289   4.246   6.523 -0.1488 -2.4316  0.2465
29456SOL    HW290811  10.321   4.200   6.382  0.7136  2.2249 -1.2691
29457SOL     OW90812   9.738   1.273   8.996 -0.4940  0.7373 -0.0943
29457SOL    HW190813   9.715   1.210   8.928  0.0596 -0.9128  1.1915
29457SOL    HW290814   9.833   1.283   8.988 -0.3876  0.3135  0.6070
29458SOL     OW90815   6.671   9.362  10.328  0.5578  0.3199  0.3815
29458SOL    HW190816   6.600   9.349  10.391  0.6547  1.2021  0.6715
29458SOL    HW290817   6.682   9.275  10.288 -0.6597  0.1548  0.3515
29459SOL     OW90818   8.953   7.432   1.024 -0.1568  0.4677  0.3675
29459SOL    HW190819   8.869   7.424   0.980 -0.8926  0.5901  1.6725
29459SOL    HW290820   8.987   7.343   1.027 -0.4910  0.3355  0.2887
29460SOL     OW90821   8.696   6.124   7.818 -0.0069 -0.1254 -0.7390
29460SOL    HW190822   8.688   6.204   7.869 -1.4699  0.1770 -1.3738
29460SOL    HW290823   8.715   6.154   7.729 -1.0264 -0.4242 -1.0768
29461SOL     OW90824   9.648   4.363   3.152 -0.0725 -0.0813 -0.4414
29461SOL    HW190825   9.585   4.424   3.113 -0.6163  0.3441  1.0605
29461SOL    HW290826   9.598   4.282   3.165  0.5851 -0.8255 -2.2128
29462SOL     OW90827   0.197   3.960   3.856 -0.1689 -0.2959 -0.4830
29462SOL    HW190828   0.261   3.903   3.813 -0.0745 -0.1781 -0.5001
29462SOL    HW290829   0.158   4.010   3.784  0.4778  0.3977 -0.3730
29463SOL     OW90830   3.805   8.389   6.095 -0.0988 -0.0842 -0.1321
29463SOL    HW190831   3.780   8.301   6.123  0.2876 -0.4385 -0.8892
29463SOL    HW290832   3.760   8.447   6.157 -2.5730 -0.6911 -1.2572
29464SOL     OW90833  10.454   3.828   2.395  0.0884  0.2066 -0.5386
29464SOL    HW190834  10.388   3.772   2.437  0.4077 -0.9713 -1.5591
29464SOL    HW290835  10.537   3.781   2.407  0.2671  0.0996 -1.9912
29465SOL     OW90836   0.097   5.373   0.131 -0.0063 -0.1199 -0.1537
29465SOL    HW190837   0.192   5.361   0.125 -0.1780 -2.1372  0.4804
29465SOL    HW290838   0.081   5.457   0.089  1.8091 -0.7432 -2.2663
29466SOL     OW90839   3.404   1.680   2.939  0.5099  0.0956  0.0819
29466SOL    HW190840   3.386   1.700   3.031 -1.1390  0.4007 -0.2700
29466SOL    HW290841   3.411   1.766   2.897  1.2240 -0.0421 -0.0897
29467SOL     OW90842   7.132   4.739   4.645  0.0085 -0.3631 -0.2648
29467SOL    HW190843   7.087   4.737   4.730  0.0556  0.7409 -0.1934
29467SOL    HW290844   7.093   4.667   4.595 -0.6561 -0.4595  0.3796
29468SOL     OW90845   7.065   7.094   0.942 -0.0073 -0.6375  0.3619
29468SOL    HW190846   7.131   7.164   0.938  0.6735 -1.2616  0.3543
29468SOL    HW290847   7.011   7.116   1.018  0.7815 -0.5907  0.9267
29469SOL     OW90848   9.317   9.819   3.035  0.0735  0.2425  0.0855
29469SOL    HW190849   9.347   9.732   3.007  0.8358  0.5908 -0.1906
29469SOL    HW290850   9.230   9.803   3.072 -0.7723 -0.3270 -2.0131
29470SOL     OW90851  10.420   1.261   0.389  0.5914  0.0784  0.3367
29470SOL    HW190852  10.336   1.222   0.365  0.8512 -0.1867 -0.1470
29470SOL    HW290853  10.435   1.232   0.479  0.4636 -0.3912  0.2093
29471SOL     OW90854   8.265   9.071   4.715  0.2777  0.2478  0.0670
29471SOL    HW190855   8.217   8.991   4.695  0.3636  0.4934 -1.2178
29471SOL    HW290856   8.241   9.092   4.806 -1.7367  0.1356 -0.3981
29472SOL     OW90857   7.499   0.293   6.560 -0.7522  0.4166  0.7757
29472SOL    HW190858   7.588   0.282   6.592  0.6215 -0.1000 -2.7269
29472SOL    HW290859   7.470   0.376   6.598  1.8798  1.4342  0.7779
29473SOL     OW90860   5.578   4.299   8.628  0.1110 -0.0152  0.0971
29473SOL    HW190861   5.565   4.231   8.694  0.4704  0.7925  1.0156
29473SOL    HW290862   5.668   4.328   8.641 -0.0030  0.5651 -0.3605
29474SOL     OW90863   1.490   1.033   9.194 -0.3340  0.2292  0.1409
29474SOL    HW190864   1.564   0.976   9.171  1.0732  1.7289  0.7017
29474SOL    HW290865   1.415   0.995   9.148  0.6055 -1.8058  0.1595
29475SOL     OW90866   9.967   8.350   6.997 -0.2578  0.4827 -0.6029
29475SOL    HW190867   9.952   8.359   6.903 -0.2922 -0.6833 -0.7203
29475SOL    HW290868   9.965   8.256   7.013  2.6546  0.4456  0.0714
29476SOL     OW90869   4.873   2.580   8.386 -0.1893  0.4460 -0.0361
29476SOL    HW190870   4.821   2.537   8.454  0.1224 -0.7024 -0.5031
29476SOL    HW290871   4.810   2.636   8.340 -1.1176 -1.1060 -0.7596
29477SOL     OW90872   8.754   1.099   6.145  0.0138  0.4520  0.0834
29477SOL    HW190873   8.791   1.155   6.077 -0.7403 -0.3072 -0.9757
29477SOL    HW290874   8.807   1.019   6.142  0.7471  0.8723  1.2294
29478SOL     OW90875   0.363   2.784   8.933  0.5874 -0.2017  0.0919
29478SOL    HW190876   0.311   2.839   8.992 -1.5087 -0.7000 -1.2052
29478SOL    HW290877   0.424   2.845   8.892  2.6733  0.0440  3.2416
29479SOL     OW90878   0.198   9.136   5.195  0.0338  0.1536 -0.2726
29479SOL    HW190879   0.153   9.155   5.113 -1.0112 -1.1711 -0.0344
29479SOL    HW290880   0.154   9.191   5.260  1.0947  1.4699 -0.6284
29480SOL     OW90881   5.829   6.217   7.536  0.3413  0.5179  0.0659
29480SOL    HW190882   5.887   6.141   7.534 -1.3117 -0.7952 -1.8169
29480SOL    HW290883   5.790   6.216   7.623  0.6411 -0.5510  0.2018
29481SOL     OW90884   8.275   8.981   9.282 -0.2134  0.0209  0.3982
29481SOL    HW190885   8.313   8.959   9.367  0.2289  0.6283  0.3625
29481SOL    HW290886   8.344   8.959   9.219  0.4882  1.9900  0.3964
29482SOL     OW90887   0.915   5.939   5.436 -0.0618  0.2372  0.0266
29482SOL    HW190888   0.886   5.886   5.511  3.0683 -0.2830  1.0152
29482SOL    HW290889   0.866   5.903   5.362 -1.9518 -0.4357  1.5094
29483SOL     OW90890   0.949   1.950   7.848  0.1887  0.5062 -0.3214
29483SOL    HW190891   0.933   1.884   7.781 -2.4092  1.9677 -1.2704
29483SOL    HW290892   0.990   2.022   7.801  2.7043 -0.1860  0.6500
29484SOL     OW90893   5.934   9.982   3.890 -0.4230 -0.4693  0.3665
29484SOL    HW190894   5.944   9.893   3.924 -0.7391 -0.0340  1.6561
29484SOL    HW290895   5.930  10.037   3.968 -4.9967  0.2147 -0.1165
29485SOL     OW90896   6.771   3.750   7.327 -0.5279 -0.3864 -0.0997
29485SOL    HW190897   6.747   3.766   7.419 -1.3742 -0.1180 -0.3555
29485SOL    HW290898   6.697   3.786   7.277 -0.8450 -1.9919 -0.8298
29486SOL     OW90899   2.062   8.079   0.955 -0.4383 -1.0116  0.1754
29486SOL    HW190900   2.112   8.011   0.911  1.6404  0.8117 -0.4613
29486SOL    HW290901   2.021   8.129   0.884  2.8523  1.8848  0.0366
29487SOL     OW90902   7.518   5.610   3.050 -0.4460  0.3653  0.0894
29487SOL    HW190903   7.541   5.677   2.987  1.7279 -1.6028 -1.3876
29487SOL    HW290904   7.602   5.580   3.085 -1.2057 -2.2677 -0.1072
29488SOL     OW90905   7.227   4.181   1.500  0.0774 -0.2596 -0.0618
29488SOL    HW190906   7.149   4.163   1.551 -0.7693 -0.9964 -1.5416
29488SOL    HW290907   7.204   4.256   1.445  0.5205 -0.2823 -0.2880
29489SOL     OW90908   1.919   9.543   0.025 -0.2741 -0.2367 -0.5705
29489SOL    HW190909   1.886   9.501  -0.054  1.4243 -1.3805 -0.7205
29489SOL    HW290910   1.886   9.489   0.097 -1.0335  0.2617 -0.5288
29490SOL     OW90911   2.857   2.198   8.508 -0.3152 -0.5204 -0.1286
29490SOL    HW190912   2.767   2.214   8.537  0.0060  1.4598 -0.1329
29490SOL    HW290913   2.863   2.102   8.502 -2.2204 -0.7195  0.4670
29491SOL     OW90914   3.768   0.657   5.451  0.4328 -0.1930 -0.2656
29491SOL    HW190915   3.790   0.683   5.541  1.5674  0.4285 -0.7098
29491SOL    HW290916   3.750   0.563   5.458  0.0827 -0.0742  0.6794
29492SOL     OW90917   1.213  10.444   8.360 -0.7385  0.0814 -0.6190
29492SOL    HW190918   1.267  10.457   8.439  0.2401 -0.7064 -1.1347
29492SOL    HW290919   1.195  10.350   8.359 -1.6244  0.2457 -0.7959
29493SOL     OW90920   4.822   2.734   0.606 -0.3578 -0.5789  0.2704
29493SOL    HW190921   4.824   2.645   0.573  1.0120 -0.4391 -0.0935
29493SOL    HW290922   4.853   2.728   0.696  1.3646 -0.3000 -0.2701
29494SOL     OW90923   3.199   3.367   5.789  0.0448  0.2084  1.0794
29494SOL    HW190924   3.116   3.322   5.777 -0.3492  1.0059  0.7676
29494SOL    HW290925   3.240   3.323   5.864  0.7002 -2.1700 -0.5646
29495SOL     OW90926   8.433   5.391   1.410  0.8044 -0.4071 -0.5709
29495SOL    HW190927   8.504   5.423   1.465  1.1365 -0.5022 -0.9385
29495SOL    HW290928   8.385   5.329   1.465  1.9535 -1.5471 -0.8154
29496SOL     OW90929   6.589   6.501   8.560 -0.2394 -0.0472  0.4515
29496SOL    HW190930   6.512   6.549   8.529  1.2021  1.4895 -0.9863
29496SOL    HW290931   6.578   6.497   8.655 -1.8173  0.6010  0.3308
29497SOL     OW90932   1.013   8.712   0.393 -0.4877  0.2876 -0.1665
29497SOL    HW190933   0.998   8.620   0.417  0.0538  0.2029 -0.1375
29497SOL    HW290934   0.935   8.736   0.343 -0.7556 -0.1086  0.0498
29498SOL     OW90935   3.663   3.058   8.652 -0.1669 -0.0280  0.8280
29498SOL    HW190936   3.650   3.057   8.557 -0.6272  1.7985  0.8391
29498SOL    HW290937   3.700   2.972   8.671  0.5761 -0.1975 -1.0939
29499SOL     OW90938   1.257   6.833   6.697  0.1800  0.2514 -0.1628
29499SOL    HW190939   1.338   6.806   6.654  0.6760  1.0393  0.2586
29499SOL    HW290940   1.242   6.922   6.665  0.8740  1.0874  1.6972
29500SOL     OW90941   9.417   2.471   0.284  0.7138  0.3321  0.3861
29500SOL    HW190942   9.368   2.433   0.356  3.0024 -0.3418  1.6994
29500SOL    HW290943   9.490   2.517   0.326  1.5430  0.7959 -1.4502
29501SOL     OW90944   3.119   8.122   6.957  0.1214  0.0537 -0.9444
29501SOL    HW190945   3.103   8.028   6.964 -1.2099  0.2400 -1.1941
29501SOL    HW290946   3.155   8.134   6.869  1.1413 -0.3225 -0.5817
29502SOL     OW90947   1.831   4.227   2.139 -0.5113 -0.2955 -0.1885
29502SOL    HW190948   1.765   4.190   2.079 -1.2681 -0.4812  0.7348
29502SOL    HW290949   1.911   4.231   2.087 -1.4869  0.9109 -1.6811
29503SOL     OW90950   6.316   0.262   4.026  0.2385  0.4358  0.0086
29503SOL    HW190951   6.326   0.234   3.934 -0.3736  0.7827 -0.1739
29503SOL    HW290952   6.271   0.346   4.020  0.1895  0.4543  0.6322
29504SOL     OW90953   2.375   4.457   2.595 -0.2137 -0.2826 -0.1395
29504SOL    HW190954   2.280   4.457   2.597 -0.2135 -0.8525  0.3246
29504SOL    HW290955   2.398   4.466   2.502 -0.7334 -1.0361 -0.3496
29505SOL     OW90956  10.264   2.200   7.629  0.0481  0.4583  0.0055
29505SOL    HW190957  10.199   2.166   7.568  0.8036  0.8438 -1.0431
29505SOL    HW290958  10.260   2.295   7.617  1.5840  0.4442 -0.9407
29506SOL     OW90959  10.353   2.628   4.471  0.0365 -0.2439  0.0769
29506SOL    HW190960  10.383   2.541   4.445  1.2067  0.2263 -0.2010
29506SOL    HW290961  10.306   2.661   4.395  0.5314 -0.2093 -0.2181
29507SOL     OW90962   8.920   2.424   8.177  0.4059 -0.1813  0.4074
29507SOL    HW190963   8.942   2.515   8.156  2.2799 -0.4364  1.0925
29507SOL    HW290964   9.000   2.375   8.159 -0.8281 -1.8810 -0.8202
29508SOL     OW90965   4.227   3.432   7.852 -0.6411  0.3401 -0.1448
29508SOL    HW190966   4.195   3.393   7.933  1.2390 -1.1784 -0.0607
29508SOL    HW290967   4.321   3.413   7.852 -0.2021  2.1993 -1.6548
29509SOL     OW90968   2.750   3.697   1.979  0.5945  0.4807  0.7693
29509SOL    HW190969   2.695   3.622   1.956  0.3207  0.2865  1.9908
29509SOL    HW290970   2.835   3.678   1.940  0.8272 -0.9871  1.9179
29510SOL     OW90971   8.106   0.679   2.096 -0.2362 -0.0286 -0.0583
29510SOL    HW190972   8.012   0.670   2.113 -0.2865 -0.2272 -0.4075
29510SOL    HW290973   8.114   0.669   2.001 -0.2768  3.6833 -0.5848
29511SOL     OW90974   3.820   6.790   0.211 -0.0523  0.2444 -0.6423
29511SOL    HW190975   3.865   6.831   0.285  0.0743 -1.1475  0.0956
29511SOL    HW290976   3.836   6.849   0.138 -0.5379  1.8965  0.5132
29512SOL     OW90977   6.904   5.867   1.994  0.2660 -0.1218  0.1836
29512SOL    HW190978   6.840   5.879   1.924  0.2556 -0.2950  0.1632
29512SOL    HW290979   6.854   5.828   2.066  0.8645 -2.7533 -0.7386
29513SOL     OW90980   5.084   6.446   3.549  0.1141 -0.1700  1.1314
29513SOL    HW190981   5.044   6.366   3.583 -2.0286 -0.6331 -2.0361
29513SOL    HW290982   5.015   6.511   3.551  0.1962  0.0744 -1.0425
29514SOL     OW90983   7.310   6.920   6.255  0.1671  0.1679  0.1273
29514SOL    HW190984   7.349   6.980   6.191  3.7672 -1.1191  0.9030
29514SOL    HW290985   7.328   6.961   6.340  0.2040 -0.6739  0.5342
29515SOL     OW90986   4.296   9.744   5.203 -0.0344 -0.0307  0.1288
29515SOL    HW190987   4.300   9.706   5.291 -1.8621 -1.1086 -0.1917
29515SOL    HW290988   4.306   9.668   5.144 -0.8563  0.3757 -0.5588
29516SOL     OW90989   2.271   1.556   8.841 -0.4972 -0.2010  0.3986
29516SOL    HW190990   2.189   1.577   8.797  0.6693  1.8032 -0.9816
29516SOL    HW290991   2.292   1.634   8.892  0.2273 -0.9469  1.2923
29517SOL     OW90992   6.088   1.675   4.702 -0.2315  0.1744  0.0886
29517SOL    HW190993   6.071   1.700   4.611 -1.0670 -0.8182 -0.0544
29517SOL    HW290994   6.179   1.700   4.717 -0.4538  1.4923 -0.6208
29518SOL     OW90995   6.475   7.050   4.981  0.6220 -0.5697 -0.5920
29518SOL    HW190996   6.537   6.981   5.005 -0.0010 -1.0415 -0.3134
29518SOL    HW290997   6.390   7.019   5.014  0.7022  1.3955  1.7028
29519SOL     OW90998   4.924   7.990   7.296 -0.4157 -0.1134  0.2529
29519SOL    HW190999   4.992   8.004   7.362 -1.6660 -2.2274  2.1137
29519SOL    HW291000   4.842   7.991   7.346 -1.7868  1.8183 -1.8407
29520SOL     OW91001   4.909   8.013   2.452 -0.1906 -0.7888  0.6970
29520SOL    HW191002   4.956   7.949   2.505 -1.6095 -1.5972  1.0252
29520SOL    HW291003   4.864   8.068   2.516  0.1135 -0.1483  0.3785
29521SOL     OW91004   3.742   5.155   8.117 -0.2102 -0.3783 -0.4489
29521SOL    HW191005   3.667   5.119   8.164 -1.7561 -0.0868 -2.5757
29521SOL    HW291006   3.726   5.249   8.113  0.4749 -0.2622 -0.5799
29522SOL     OW91007   2.537   1.595   2.172  0.4971 -0.7886 -0.2536
29522SOL    HW191008   2.469   1.661   2.166  1.8488  0.6970  0.1808
29522SOL    HW291009   2.588   1.604   2.091  1.1483 -0.7645  0.1473
29523SOL     OW91010   4.571   1.125   0.697 -0.1888 -0.1685  0.3373
29523SOL    HW191011   4.616   1.179   0.632  0.0031  0.5879  1.0807
29523SOL    HW291012   4.631   1.052   0.714 -0.0917 -0.1875 -0.0863
29524SOL     OW91013   3.134   2.446   2.022 -0.1033 -0.1805  0.1170
29524SOL    HW191014   3.177   2.529   2.040 -1.4480  0.5533  0.0818
29524SOL    HW291015   3.197   2.379   2.050  1.0778  0.8388 -0.0700
29525SOL     OW91016   7.136   0.286   6.650 -0.2238  0.7479 -0.1556
29525SOL    HW191017   7.044   0.304   6.669  0.1100 -1.0626  4.7553
29525SOL    HW291018   7.183   0.321   6.725  2.4892 -2.4678 -0.1210
29526SOL     OW91019   6.755   8.057   0.492  0.4480 -0.5449 -0.3715
29526SOL    HW191020   6.759   8.097   0.579 -0.3938 -0.5140 -0.3352
29526SOL    HW291021   6.842   8.021   0.477 -0.1104 -2.9259  1.6122
29527SOL     OW91022   4.894   7.176   8.034 -0.1057 -0.0208 -0.4074
29527SOL    HW191023   4.980   7.188   7.994  0.2154 -1.5162 -0.2191
29527SOL    HW291024   4.885   7.081   8.043 -0.6486  0.1947  2.0273
29528SOL     OW91025   3.685   8.692   9.842  0.2936 -0.1727  0.1609
29528SOL    HW191026   3.645   8.762   9.893  2.6848  0.4406  1.3744
29528SOL    HW291027   3.633   8.688   9.762 -3.3384 -0.8389  2.3246
29529SOL     OW91028   6.188   6.046   1.043 -0.0612  0.3049 -0.0142
29529SOL    HW191029   6.111   6.096   1.017 -0.2290  0.0832  0.0538
29529SOL    HW291030   6.165   6.009   1.128  0.2823  0.5874  0.2083
29530SOL     OW91031   3.118   0.986   9.903 -0.2265 -0.1315 -0.5113
29530SOL    HW191032   3.155   1.049   9.964 -1.0213  0.2320 -0.3931
29530SOL    HW291033   3.158   0.903   9.927  0.4202  0.2314 -0.3152
29531SOL     OW91034   7.348  10.251   2.041  0.0653  0.4671 -0.3375
29531SOL    HW191035   7.372  10.165   2.074  1.3095  0.0955 -2.0358
29531SOL    HW291036   7.426  10.305   2.055  0.0170  0.7455 -1.0983
29532SOL     OW91037   0.046   0.200   6.155 -0.8684 -0.0057  0.0123
29532SOL    HW191038   0.058   0.202   6.060 -0.6249 -0.3135  0.0327
29532SOL    HW291039   0.135   0.211   6.190 -1.1068  1.3364  0.2214
29533SOL     OW91040   3.344   2.488   2.369  0.3126  0.4138  0.4646
29533SOL    HW191041   3.285   2.563   2.363 -0.2130 -0.1038 -1.8162
29533SOL    HW291042   3.415   2.509   2.308  1.0674 -0.1976  1.1086
29534SOL     OW91043   4.085   1.243   7.177 -0.1567 -0.2765  0.1063
29534SOL    HW191044   4.087   1.238   7.081  1.0218  0.1674  0.0854
29534SOL    HW291045   4.092   1.151   7.205 -1.0565 -0.4569 -0.2199
29535SOL     OW91046   5.763   1.085   5.721 -0.0876 -0.6481  0.2514
29535SOL    HW191047   5.817   1.087   5.642 -1.5563  0.3587 -0.7763
29535SOL    HW291048   5.727   0.996   5.722  0.5663 -0.9191  0.2359
29536SOL     OW91049   4.337   4.688   5.927  0.4225  0.0424 -0.1967
29536SOL    HW191050   4.387   4.611   5.899  0.7047 -0.1173  0.7249
29536SOL    HW291051   4.325   4.738   5.846 -0.0337 -1.1031 -0.8730
29537SOL     OW91052   0.583   1.954   2.583 -0.4255 -0.8326 -0.3660
29537SOL    HW191053   0.670   1.929   2.552 -0.2501  0.1793 -0.7244
29537SOL    HW291054   0.535   1.871   2.588  0.2847 -1.3010 -1.0210
29538SOL     OW91055   5.833   2.052   8.810  0.1074 -0.1547 -0.4645
29538SOL    HW191056   5.809   2.071   8.900 -0.4320 -0.4545 -0.5399
29538SOL    HW291057   5.802   2.127   8.759  1.6516  0.6760 -0.2323
29539SOL     OW91058   2.370   6.989   4.901 -0.0250 -0.3361  0.0235
29539SOL    HW191059   2.368   6.894   4.894 -0.9431 -0.2226 -2.1067
29539SOL    HW291060   2.338   7.020   4.816 -0.8861  1.8654  1.0559
29540SOL     OW91061   2.397   7.986   2.946  0.3066 -0.2194  0.1482
29540SOL    HW191062   2.485   7.983   2.909 -0.3656  0.2864 -1.6078
29540SOL    HW291063   2.391   8.073   2.986 -0.0528  0.6243 -1.6197
29541SOL     OW91064   7.736   4.929   9.715 -1.1063 -0.6858  0.5533
29541SOL    HW191065   7.677   4.946   9.788 -1.5745 -2.7358  0.7159
29541SOL    HW291066   7.806   4.874   9.752 -1.2358 -1.5809 -0.4651
29542SOL     OW91067   6.774   3.223   8.573 -0.5438  0.0577 -0.2095
29542SOL    HW191068   6.838   3.251   8.638 -0.2820  2.0772 -1.2688
29542SOL    HW291069   6.810   3.142   8.536  0.3703  0.0781  0.6095
29543SOL     OW91070   3.068   6.346   1.004 -0.2583  0.0861  0.3116
29543SOL    HW191071   3.142   6.299   1.041 -0.1331  0.3591  0.4085
29543SOL    HW291072   3.000   6.280   0.994  0.5417 -0.5346 -1.3308
29544SOL     OW91073   6.253   4.923   6.091 -0.2785 -0.6786  0.3451
29544SOL    HW191074   6.259   4.953   6.001  1.5993 -0.5388  0.4859
29544SOL    HW291075   6.219   4.833   6.084 -2.1720  0.0494 -0.3236
29545SOL     OW91076   9.467   2.385   9.906  0.2677  0.2127  0.2554
29545SOL    HW191077   9.526   2.460   9.910  1.6736 -0.8195 -0.3938
29545SOL    HW291078   9.388   2.419   9.864  1.2075  1.1521 -0.8297
29546SOL     OW91079   8.248   2.983   9.559  0.0172 -0.5122  0.5500
29546SOL    HW191080   8.245   2.940   9.474 -0.4370  0.8044 -0.1157
29546SOL    HW291081   8.342   2.992   9.578  0.2666  2.2307 -1.4342
29547SOL     OW91082   1.818   3.530   5.092  0.5334 -0.0984  0.2277
29547SOL    HW191083   1.724   3.534   5.074  0.0276  0.5571  2.6160
29547SOL    HW291084   1.857   3.506   5.008 -1.6557  0.6562 -1.1123
29548SOL     OW91085   3.470   9.699  10.478  0.2967  0.1361 -0.2069
29548SOL    HW191086   3.451   9.620  10.426 -0.5233 -0.7474  1.3540
29548SOL    HW291087   3.384   9.735  10.499  0.6199  0.6605  0.2487
29549SOL     OW91088   0.802   9.295   7.987  0.5485 -0.3383 -0.0557
29549SOL    HW191089   0.756   9.256   8.061  0.4916 -0.2023 -0.0184
29549SOL    HW291090   0.732   9.335   7.934  0.5708 -0.5833 -0.2725
29550SOL     OW91091   0.303   9.668   8.120  0.1657 -0.2765 -0.1983
29550SOL    HW191092   0.306   9.726   8.196  2.2846  0.2092 -0.5925
29550SOL    HW291093   0.212   9.673   8.091 -0.3312  0.7385  1.3770
29551SOL     OW91094   5.894   8.700   7.103  0.0390  0.8066  0.5974
29551SOL    HW191095   5.907   8.606   7.110  0.2776  0.8649  0.9483
29551SOL    HW291096   5.874   8.729   7.192  2.5359  1.4722  1.0134
29552SOL     OW91097   0.816   7.017   3.093 -0.3498 -0.2113 -0.4990
29552SOL    HW191098   0.819   6.990   3.185  0.7334  3.1768  0.6097
29552SOL    HW291099   0.907   7.012   3.063 -0.6450 -0.9658 -1.3140
29553SOL     OW91100   0.100  10.026   9.675  0.4574  0.0274 -0.3340
29553SOL    HW191101   0.069   9.959   9.613 -0.6150 -0.5767  0.8011
29553SOL    HW291102   0.033  10.094   9.672  0.2245 -0.1652  0.4001
29554SOL     OW91103   5.914   2.892   9.311 -0.0041 -0.1076  0.4853
29554SOL    HW191104   5.885   2.825   9.249 -0.2900  0.3888  0.0779
29554SOL    HW291105   5.835   2.919   9.357  0.0612  0.1529  0.4489
29555SOL     OW91106   7.952   0.331   5.876  0.3655 -0.2782  0.8093
29555SOL    HW191107   8.000   0.287   5.946  0.4741  1.6876  2.0561
29555SOL    HW291108   7.967   0.424   5.892 -0.8192  0.2719 -0.9949
29556SOL     OW91109   8.640  10.073   5.812 -0.5982  0.8571  0.1719
29556SOL    HW191110   8.678  10.133   5.876 -1.6416  1.3798  0.3319
29556SOL    HW291111   8.546  10.090   5.817 -0.8077  0.0001 -0.5966
29557SOL     OW91112   8.842   0.566   9.022  0.2450 -0.0935  0.2293
29557SOL    HW191113   8.752   0.563   9.055  0.9287  2.3957  2.6929
29557SOL    HW291114   8.832   0.579   8.928 -2.0374  1.1078  0.5539
29558SOL     OW91115   8.928   0.358   1.051 -0.5445  0.0392 -0.0469
29558SOL    HW191116   8.915   0.394   0.963  0.7938  0.8283  0.0380
29558SOL    HW291117   8.863   0.403   1.105 -1.0164 -0.0462 -0.5451
29559SOL     OW91118   8.838   4.890   9.758  0.2514 -0.1632 -0.1268
29559SOL    HW191119   8.785   4.967   9.738  1.0208  0.1425 -1.0184
29559SOL    HW291120   8.896   4.918   9.829 -1.1279 -0.6679  1.2630
29560SOL     OW91121   4.132   2.921   5.623  0.0872  0.6097  0.6262
29560SOL    HW191122   4.110   2.836   5.586 -0.2483  0.5695  0.9119
29560SOL    HW291123   4.209   2.905   5.676 -1.3784 -0.0516  2.6805
29561SOL     OW91124   2.875   1.413   9.603  0.2233  0.5447 -0.4336
29561SOL    HW191125   2.930   1.373   9.536  0.4987 -2.7330  1.4971
29561SOL    HW291126   2.789   1.371   9.592 -0.0210  0.7631  0.5372
29562SOL     OW91127   2.865   1.664   8.813 -0.3074  0.3021  0.2687
29562SOL    HW191128   2.851   1.573   8.839  0.5743  0.2933  0.7469
29562SOL    HW291129   2.800   1.679   8.745  1.1646 -1.4716 -1.6440
29563SOL     OW91130   8.722   0.055   2.551 -0.2013  0.4588 -0.3279
29563SOL    HW191131   8.729   0.124   2.617  1.6294 -0.9112  1.0545
29563SOL    HW291132   8.811   0.021   2.544 -0.8329 -1.0147 -1.7924
29564SOL     OW91133   1.963   3.315   3.626 -0.5885 -0.2475 -0.2274
29564SOL    HW191134   2.003   3.399   3.649  0.7071 -0.7432 -0.6220
29564SOL    HW291135   1.899   3.337   3.559 -0.6079  0.4895  0.0213
29565SOL     OW91136   5.976   6.442   1.940  0.2474 -0.1205  0.4661
29565SOL    HW191137   6.000   6.531   1.968 -0.5594  1.0832 -2.3258
29565SOL    HW291138   5.883   6.434   1.960  0.0494  0.1319 -0.3133
29566SOL     OW91139   8.955   9.000   7.337 -0.8591  0.3112 -0.1942
29566SOL    HW191140   9.000   9.084   7.335 -0.5986  0.2385  1.5788
29566SOL    HW291141   8.872   9.018   7.382 -0.0231 -0.6831  1.8735
29567SOL     OW91142   4.508   9.706   6.216 -0.5747  0.2905  0.0831
29567SOL    HW191143   4.555   9.652   6.151  0.1661 -0.0189  0.8603
29567SOL    HW291144   4.512   9.654   6.296  0.0457  1.4468  0.8182
29568SOL     OW91145   3.126   6.603   3.697  0.5150 -0.0731 -0.0925
29568SOL    HW191146   3.125   6.508   3.709  1.2588 -0.0659  0.0982
29568SOL    HW291147   3.212   6.621   3.658 -0.2684  0.3419 -1.7207
29569SOL     OW91148   6.559   4.744   4.172 -0.0819  0.2813  0.3327
29569SOL    HW191149   6.474   4.738   4.217  0.5423  0.3501  1.5471
29569SOL    HW291150   6.595   4.829   4.200 -0.1927  0.8867 -1.2551
29570SOL     OW91151   0.015   4.922   4.312  0.0758 -0.4861  0.2479
29570SOL    HW191152   0.002   4.923   4.217 -1.6926 -1.6425  0.4200
29570SOL    HW291153   0.096   4.873   4.324 -1.1807 -2.9857 -0.6300
29571SOL     OW91154  10.383  10.472   9.930 -0.4659  0.2914  0.2549
29571SOL    HW191155  10.437  10.401   9.894  0.2224  0.6657  0.5300
29571SOL    HW291156  10.294  10.451   9.903 -0.2973 -0.7984  0.5227
29572SOL     OW91157   9.811   8.671   6.815  0.6496 -0.2649 -0.0168
29572SOL    HW191158   9.769   8.665   6.729 -0.6360 -1.4594  0.6618
29572SOL    HW291159   9.896   8.628   6.803  0.2597 -0.8897 -0.5523
29573SOL     OW91160   1.731   8.545   0.939 -0.1597  0.0898 -0.1090
29573SOL    HW191161   1.756   8.473   0.997 -3.2000  0.0913  1.3742
29573SOL    HW291162   1.761   8.624   0.984  1.9692 -0.0930 -1.0865
29574SOL     OW91163   7.074   9.994   4.179 -0.7197  0.0102  0.4607
29574SOL    HW191164   7.160  10.012   4.218 -0.3911 -1.4163  0.4318
29574SOL    HW291165   7.020   9.963   4.251 -1.7842  2.5035  0.8438
29575SOL     OW91166   3.836   9.818   5.012  0.0213  0.1836  0.0814
29575SOL    HW191167   3.917   9.814   5.063 -0.0689 -0.6079  0.1702
29575SOL    HW291168   3.862   9.855   4.927  0.1265  1.7552  0.7635
29576SOL     OW91169   5.748   0.991   8.180  0.3746 -0.2924 -0.2812
29576SOL    HW191170   5.783   1.021   8.264 -1.3279  0.2790  0.2617
29576SOL    HW291171   5.765   0.896   8.180  2.6377  0.0688 -0.4533
29577SOL     OW91172   8.495   0.824   7.419 -0.8287  0.4608  0.1584
29577SOL    HW191173   8.534   0.798   7.335 -0.5763  0.1333  0.3730
29577SOL    HW291174   8.439   0.750   7.443  0.5605 -0.3039  1.1957
29578SOL     OW91175   8.986   7.596   7.251  0.0103  0.1478  0.1312
29578SOL    HW191176   8.896   7.610   7.222 -0.0098 -1.1877 -0.5074
29578SOL    HW291177   9.008   7.676   7.300 -1.5925  0.3732  0.5313
29579SOL     OW91178   9.087   1.159   4.633  0.4773  0.1456  0.4273
29579SOL    HW191179   9.152   1.107   4.681  0.2214 -0.2986  0.2976
29579SOL    HW291180   9.031   1.197   4.701  2.3068  2.5405  0.7224
29580SOL     OW91181   3.834   1.736   0.615  0.0589 -0.0734  0.5171
29580SOL    HW191182   3.856   1.827   0.635 -0.7462  1.3797 -4.0493
29580SOL    HW291183   3.914   1.700   0.577 -0.3062 -0.4806  0.1241
29581SOL     OW91184   5.829   1.341   3.758  0.6244 -0.0744 -0.6828
29581SOL    HW191185   5.744   1.312   3.788  0.1678  1.3451 -0.5095
29581SOL    HW291186   5.874   1.370   3.837  0.9048  0.0708 -0.8912
29582SOL     OW91187   3.109   8.956   0.076 -0.1469  0.8050  0.5057
29582SOL    HW191188   3.088   8.958  -0.018 -0.4901 -1.6242  0.4569
29582SOL    HW291189   3.045   9.015   0.116 -1.0087  0.6852 -0.6317
29583SOL     OW91190   5.198   4.684   5.520  0.4568 -1.0923  0.3597
29583SOL    HW191191   5.103   4.674   5.514  0.5037 -0.7498 -1.5163
29583SOL    HW291192   5.213   4.708   5.612 -1.4236  0.4202  0.3417
29584SOL     OW91193   0.641   8.168   9.386  0.4329 -0.3801  0.0078
29584SOL    HW191194   0.726   8.132   9.409  1.6723  1.9682 -0.6203
29584SOL    HW291195   0.620   8.229   9.456  0.6642  1.1815 -1.2217
29585SOL     OW91196   7.111   4.458   4.523 -0.2444 -0.4099  0.2373
29585SOL    HW191197   7.191   4.420   4.561 -0.6094  0.1046  1.5663
29585SOL    HW291198   7.143   4.524   4.461  0.3702 -0.8874  0.0442
29586SOL     OW91199   9.384   6.123   7.661  0.2371  0.3350  0.1097
29586SOL    HW191200   9.419   6.095   7.577  0.6056  0.3933  0.2402
29586SOL    HW291201   9.290   6.104   7.656  0.4923 -1.0921  0.2672
29587SOL     OW91202   2.161   2.004   3.166  0.2241  0.8694  0.2852
29587SOL    HW191203   2.111   1.934   3.208 -1.1330  0.8993 -1.1568
29587SOL    HW291204   2.246   1.965   3.145 -0.6856 -0.5692 -0.9646
29588SOL     OW91205   0.578   3.898   7.124 -0.1323  0.4084  0.7780
29588SOL    HW191206   0.532   3.855   7.053 -0.4698 -0.8597  1.7348
29588SOL    HW291207   0.517   3.965   7.155  0.8763  2.5535 -1.5265
29589SOL     OW91208   0.844   2.675   7.365 -0.4162 -0.1897  0.1257
29589SOL    HW191209   0.760   2.715   7.387 -1.1968 -0.8474 -1.4801
29589SOL    HW291210   0.900   2.692   7.441 -1.7052  1.0782  0.8335
29590SOL     OW91211   0.544   3.823   8.753 -0.8953  0.3206 -0.7569
29590SOL    HW191212   0.548   3.778   8.669  0.0586 -0.9140 -0.0733
29590SOL    HW291213   0.623   3.878   8.754  1.4376 -2.7721  0.9738
29591SOL     OW91214   2.867   0.108   9.869 -0.0755 -0.7447  0.4819
29591SOL    HW191215   2.894   0.151   9.950  0.2309 -2.5647  1.3974
29591SOL    HW291216   2.938   0.047   9.849 -1.3696 -2.2409  0.3315
29592SOL     OW91217   4.766   9.203   1.377 -0.3286  0.4908  0.1227
29592SOL    HW191218   4.847   9.199   1.429 -1.2403 -0.2183  1.5644
29592SOL    HW291219   4.790   9.166   1.293  0.5628 -0.8915  0.9498
29593SOL     OW91220   0.142  10.166   5.027 -0.2581 -0.0175 -0.4129
29593SOL    HW191221   0.135  10.257   4.998  0.9488 -0.4426 -2.2193
29593SOL    HW291222   0.231  10.157   5.060  0.1490 -0.8513 -1.6199
29594SOL     OW91223   5.345   8.582   0.854  0.6987 -0.5002 -0.7391
29594SOL    HW191224   5.357   8.496   0.814 -0.3358 -0.8694 -0.2856
29594SOL    HW291225   5.274   8.570   0.917 -0.7885  1.1164 -1.9950
29595SOL     OW91226   0.764   4.670   0.930 -0.5066 -0.3876  0.4080
29595SOL    HW191227   0.744   4.636   0.843  0.4246 -1.1281  0.4620
29595SOL    HW291228   0.829   4.739   0.914  0.4885 -1.2533  0.5674
29596SOL     OW91229   0.941   7.445   3.692  0.4374  0.4330  0.4716
29596SOL    HW191230   0.906   7.443   3.782  0.3841  1.5115  0.4822
29596SOL    HW291231   0.920   7.358   3.657 -2.6905  1.1088  0.3454
29597SOL     OW91232   7.904   9.815   7.481  0.8789 -0.5134  0.1009
29597SOL    HW191233   7.819   9.837   7.442  0.3350 -2.8624 -0.2595
29597SOL    HW291234   7.887   9.810   7.575  0.7533 -0.4487  0.0819
29598SOL     OW91235   1.012   1.071   6.485  0.0435  0.4485  0.1538
29598SOL    HW191236   0.970   1.007   6.428  0.7028 -0.9729  1.2069
29598SOL    HW291237   0.977   1.053   6.572  0.1738  1.5999  0.4634
29599SOL     OW91238   8.965  10.303   4.284  0.3062 -1.0492  0.2980
29599SOL    HW191239   8.884  10.311   4.335  0.3072 -0.7159  0.2452
29599SOL    HW291240   9.034  10.331   4.344  0.3910 -1.3654  0.3541
29600SOL     OW91241   0.887   3.822   9.296 -0.0555  0.1037  0.0154
29600SOL    HW191242   0.953   3.859   9.238 -0.7098 -1.9253 -2.1791
29600SOL    HW291243   0.804   3.836   9.250 -0.7682 -0.4257  1.0910
29601SOL     OW91244   4.747   6.659   8.051  0.3938 -0.2618  0.4705
29601SOL    HW191245   4.765   6.568   8.073  1.8910  0.0717  0.7341
29601SOL    HW291246   4.732   6.659   7.956  0.0452 -0.8271  0.5260
29602SOL     OW91247   1.585   2.396   9.376  0.5887 -0.0561  0.0272
29602SOL    HW191248   1.591   2.448   9.295 -1.7687 -0.3305 -0.4025
29602SOL    HW291249   1.549   2.456   9.440  1.2112 -0.2101  0.5302
29603SOL     OW91250   3.311   9.819   0.795 -0.1425 -0.1126  0.5322
29603SOL    HW191251   3.395   9.792   0.832 -0.4360  0.0520  1.3567
29603SOL    HW291252   3.334   9.870   0.718  0.6034  1.3850  1.6867
29604SOL     OW91253   5.612   5.514   5.492 -0.4240  0.8246  0.5628
29604SOL    HW191254   5.517   5.527   5.490 -0.6235 -0.5230 -0.1573
29604SOL    HW291255   5.641   5.538   5.404 -0.1276  1.0440  0.7217
29605SOL     OW91256  10.073   7.039   0.756  0.5375  0.0884 -0.1289
29605SOL    HW191257  10.093   7.075   0.843 -0.4922  0.2800  0.0410
29605SOL    HW291258  10.079   7.114   0.697 -1.7789  0.6654  0.2496
29606SOL     OW91259   1.153   9.947   5.647 -0.1882  0.3411  0.2165
29606SOL    HW191260   1.083   9.925   5.585 -0.3658  1.6557 -0.0865
29606SOL    HW291261   1.233   9.920   5.603 -0.5393 -2.8453  1.3048
29607SOL     OW91262   7.327   1.133   4.702  0.4537 -0.4117 -0.4729
29607SOL    HW191263   7.332   1.054   4.757 -0.2561 -0.3551 -0.3181
29607SOL    HW291264   7.418   1.158   4.688  0.7184 -1.6956 -1.1616
29608SOL     OW91265   5.468   6.793   8.626  0.0536 -0.3024 -0.4131
29608SOL    HW191266   5.462   6.749   8.541  1.3954 -0.0112 -0.6923
29608SOL    HW291267   5.398   6.858   8.625 -1.8456 -2.2447 -0.0673
29609SOL     OW91268   5.868   7.402  10.329 -0.0807 -0.1299 -0.4914
29609SOL    HW191269   5.880   7.322  10.278  2.0282 -0.0700 -0.1973
29609SOL    HW291270   5.905   7.471  10.273  2.7200 -0.1237  1.1482
29610SOL     OW91271   8.859  10.109   3.703 -0.2755  0.0762  0.1351
29610SOL    HW191272   8.919  10.132   3.773  0.2167  1.1385 -0.6051
29610SOL    HW291273   8.788  10.173   3.709  1.2769  2.2261 -2.1588
29611SOL     OW91274   1.760   5.579   0.191 -0.1745  0.2656  0.6521
29611SOL    HW191275   1.789   5.671   0.193  0.2303  0.1416  0.5341
29611SOL    HW291276   1.840   5.529   0.209 -0.2667 -0.0918  0.0729
29612SOL     OW91277   2.756   7.046   4.848 -0.1136 -0.7819 -0.0801
29612SOL    HW191278   2.694   7.114   4.875 -0.5834 -0.7175 -1.2539
29612SOL    HW291279   2.728   6.968   4.896 -1.3898 -0.8532 -0.8687
29613SOL     OW91280   1.529   9.441   6.470  0.4829  0.2233 -0.3286
29613SOL    HW191281   1.460   9.435   6.536  1.8237 -1.2146  1.0244
29613SOL    HW291282   1.484   9.474   6.392 -1.9233 -1.3684  0.2595
29614SOL     OW91283   8.452   9.177   4.381 -0.1523  0.2945  0.1383
29614SOL    HW191284   8.470   9.270   4.370 -1.0914  0.5453  0.5749
29614SOL    HW291285   8.483   9.157   4.470 -1.6064  0.6471  0.7588
29615SOL     OW91286   3.514  10.295   5.139  0.2127 -0.2316  0.0760
29615SOL    HW191287   3.526  10.358   5.210  0.2632 -0.2160  0.0539
29615SOL    HW291288   3.476  10.346   5.067 -0.8645 -0.4771  0.4599
29616SOL     OW91289  10.401   1.460   6.743 -0.3830 -0.3837  0.7308
29616SOL    HW191290  10.385   1.486   6.653 -1.2408  0.2348  1.0527
29616SOL    HW291291  10.436   1.371   6.737  0.7135  0.0872 -0.2678
29617SOL     OW91292   2.245   0.981   7.685 -0.1849  0.1591 -0.0408
29617SOL    HW191293   2.315   0.928   7.646 -0.3298 -0.0203 -0.0586
29617SOL    HW291294   2.222   1.043   7.616 -2.1415 -1.7132 -1.2224
29618SOL     OW91295   4.555   6.801   4.462 -0.5164 -0.2148 -0.5700
29618SOL    HW191296   4.505   6.724   4.488 -0.2547 -0.4417 -0.7453
29618SOL    HW291297   4.623   6.768   4.404 -0.6404  0.1956 -0.9569
29619SOL     OW91298   4.290   3.023   8.343  0.2872 -0.2243 -0.1974
29619SOL    HW191299   4.231   3.031   8.417  0.7584  0.3973  0.1240
29619SOL    HW291300   4.372   3.063   8.373 -0.0238  1.6129 -1.6172
29620SOL     OW91301   7.157   2.483   9.185 -0.0511  0.1211 -0.1895
29620SOL    HW191302   7.219   2.515   9.119  0.6334  0.6689  0.6988
29620SOL    HW291303   7.097   2.427   9.136  0.9502 -0.1676 -1.1380
29621SOL     OW91304   7.153   5.023   4.699 -0.3295 -0.8990 -0.1994
29621SOL    HW191305   7.141   4.928   4.692 -2.3707 -0.7496  0.6217
29621SOL    HW291306   7.065   5.059   4.690  0.4143  0.9442 -0.5533
29622SOL     OW91307   6.652   9.939   8.276  0.3013 -0.2565  0.8518
29622SOL    HW191308   6.704   9.878   8.328  4.0502  0.7151 -1.3729
29622SOL    HW291309   6.637   9.892   8.193 -1.2011  0.0354  0.9360
29623SOL     OW91310   0.148   9.488   9.295 -0.4512  0.0204  0.4826
29623SOL    HW191311   0.200   9.558   9.334 -2.4556  0.6069  2.2595
29623SOL    HW291312   0.108   9.444   9.369 -0.1714 -2.3276 -0.6667
29624SOL     OW91313   6.399   0.570   3.895  0.2224  0.4673  0.0428
29624SOL    HW191314   6.337   0.558   3.823  0.5697  1.1906 -0.3897
29624SOL    HW291315   6.344   0.581   3.972 -0.1768 -3.1956  0.4668
29625SOL     OW91316   6.039   4.608   8.991 -0.2563 -0.2532 -0.7725
29625SOL    HW191317   6.050   4.610   9.087 -1.4320 -2.0636 -0.5579
29625SOL    HW291318   6.125   4.583   8.958 -0.0977 -0.5898 -0.1228
29626SOL     OW91319   8.797   3.280   1.370 -0.1073  0.5282  0.0747
29626SOL    HW191320   8.717   3.310   1.328 -0.7854 -0.1826  0.8294
29626SOL    HW291321   8.859   3.269   1.298 -0.9733  0.1923 -0.6447
29627SOL     OW91322   3.219   0.006   9.541  0.1276 -0.0530 -0.2710
29627SOL    HW191323   3.133  -0.008   9.581  0.9909 -0.5377  1.4855
29627SOL    HW291324   3.232  -0.072   9.486  0.0624 -0.6942  0.6094
29628SOL     OW91325   6.589   5.316   9.426 -0.0365  0.0478  0.2169
29628SOL    HW191326   6.507   5.353   9.458  0.0901  0.5894 -0.0758
29628SOL    HW291327   6.563   5.238   9.377 -0.4855  0.8361 -0.8349
29629SOL     OW91328   0.998   3.794   2.991 -0.0969  0.0583 -0.1288
29629SOL    HW191329   0.978   3.887   2.984 -0.9396 -0.0202  1.0533
29629SOL    HW291330   1.085   3.791   3.030  0.1704  0.3367 -0.6815
29630SOL     OW91331   4.670   3.392   8.472 -0.2030  0.3684  0.4331
29630SOL    HW191332   4.579   3.416   8.487 -0.2551 -0.9258  2.6360
29630SOL    HW291333   4.668   3.297   8.460  0.8969  0.2236  1.2205
29631SOL     OW91334   7.080   5.589   6.143 -0.3249  0.1404 -0.5192
29631SOL    HW191335   7.046   5.560   6.227  2.7475  2.2908  1.6859
29631SOL    HW291336   7.055   5.682   6.138 -1.1669 -0.1368 -2.4660
29632SOL     OW91337   7.463   1.438   4.164 -0.5411  0.3806 -0.0204
29632SOL    HW191338   7.521   1.453   4.238  0.1632 -1.7620 -0.0656
29632SOL    HW291339   7.442   1.525   4.132  0.6371  1.2944  1.5398
29633SOL     OW91340   5.879   6.502   1.622  0.4356 -0.3172 -0.2714
29633SOL    HW191341   5.880   6.499   1.718 -0.8153  0.8230 -0.1791
29633SOL    HW291342   5.907   6.415   1.594  1.3939 -0.4904  1.1109
29634SOL     OW91343   6.041   2.323   8.298 -0.2725 -0.2959 -0.4883
29634SOL    HW191344   6.105   2.384   8.261 -0.0925 -0.2903 -0.1709
29634SOL    HW291345   5.969   2.323   8.235  0.7789 -1.6493 -1.7610
29635SOL     OW91346   2.864   1.859   2.057 -0.1388  0.2043 -0.2715
29635SOL    HW191347   2.834   1.894   2.141  0.1136 -2.3447  0.9832
29635SOL    HW291348   2.848   1.765   2.063  1.3839 -0.2732 -2.4678
29636SOL     OW91349   8.055   4.005   9.418 -0.5964  0.5160 -0.4061
29636SOL    HW191350   8.067   4.093   9.454 -2.9216  1.0264 -0.7507
29636SOL    HW291351   8.017   4.019   9.331 -0.1536 -0.8259 -0.8488
29637SOL     OW91352   4.820   4.451   4.820 -0.1543  0.6296 -0.2221
29637SOL    HW191353   4.893   4.514   4.818 -0.2491  0.7158 -1.6991
29637SOL    HW291354   4.831   4.399   4.741 -0.9165 -0.2740  0.2510
29638SOL     OW91355   3.747   7.630   6.803  0.0583 -0.1654 -0.1868
29638SOL    HW191356   3.751   7.593   6.891  2.8575 -3.5980 -1.4854
29638SOL    HW291357   3.826   7.684   6.797 -0.5833  0.7602 -0.3248
29639SOL     OW91358   3.143   6.743   8.850 -0.0827 -0.0857  0.1782
29639SOL    HW191359   3.124   6.814   8.788  0.0692  0.9523  1.2797
29639SOL    HW291360   3.146   6.786   8.936 -0.3820 -1.4950  0.9335
29640SOL     OW91361   7.949   9.799   0.498 -0.1309 -0.1131 -0.2732
29640SOL    HW191362   8.022   9.760   0.450  0.6890  0.1249  0.7642
29640SOL    HW291363   7.936   9.742   0.574 -0.8882 -0.0294 -0.3268
29641SOL     OW91364   2.981   5.239   0.465  0.1884  0.3690 -0.1626
29641SOL    HW191365   3.071   5.244   0.497  0.0721 -1.2278  0.4939
29641SOL    HW291366   2.989   5.236   0.370  1.0099 -2.0680 -0.0690
29642SOL     OW91367   6.076   4.901   7.625  0.1519  0.4472  0.0922
29642SOL    HW191368   5.994   4.895   7.674 -0.4443 -0.9370 -0.9840
29642SOL    HW291369   6.135   4.952   7.681 -0.7836 -0.2909  1.8219
29643SOL     OW91370   7.426   6.316   9.881 -0.2683 -0.1138  0.7048
29643SOL    HW191371   7.410   6.366   9.801  0.0212 -0.7612  0.2387
29643SOL    HW291372   7.340   6.287   9.910 -0.4655  0.8289  1.1018
29644SOL     OW91373   0.322   4.900   6.388 -0.2062 -0.1290 -0.6712
29644SOL    HW191374   0.311   4.970   6.452  0.1918 -0.1365 -0.5919
29644SOL    HW291375   0.412   4.870   6.401 -0.8175 -1.6736  0.3597
29645SOL     OW91376   3.335  10.400   8.262 -0.0007  0.0151  0.4860
29645SOL    HW191377   3.282  10.351   8.199  1.5406 -1.1039  0.0118
29645SOL    HW291378   3.423  10.402   8.224 -0.0057  3.3758  0.3775
29646SOL     OW91379   0.813   0.156   8.426 -0.3666  0.3247 -0.9522
29646SOL    HW191380   0.726   0.133   8.459 -0.0551  1.4399  0.7646
29646SOL    HW291381   0.868   0.082   8.451 -1.1464 -1.4805 -4.0276
29647SOL     OW91382   3.304   1.409   9.300 -0.2596 -0.2621 -0.4091
29647SOL    HW191383   3.366   1.481   9.298  1.3491 -1.5974 -0.5327
29647SOL    HW291384   3.301   1.382   9.392 -1.7964  0.6819 -0.1334
29648SOL     OW91385   8.960   3.733   1.512  0.6683  0.4184 -0.1256
29648SOL    HW191386   8.925   3.765   1.429  0.2616 -0.3809 -0.2679
29648SOL    HW291387   8.913   3.783   1.578 -0.1472 -0.0527 -0.3405
29649SOL     OW91388   8.785   7.099   4.352  0.4167 -0.1512  0.6003
29649SOL    HW191389   8.848   7.108   4.423  0.6322  2.6434  0.1998
29649SOL    HW291390   8.700   7.113   4.393  0.3907 -0.2205  0.5699
29650SOL     OW91391   9.349   8.928   2.163  0.2894  0.6072 -0.0175
29650SOL    HW191392   9.441   8.948   2.178  0.1984  0.9206  0.1380
29650SOL    HW291393   9.338   8.838   2.192  0.4069  0.7752  0.5555
29651SOL     OW91394   2.504   9.662   0.705 -0.0345  0.0265 -0.0380
29651SOL    HW191395   2.497   9.677   0.611  1.0484 -0.0049 -0.1401
29651SOL    HW291396   2.572   9.595   0.713 -1.0407 -0.9365  0.7050
29652SOL     OW91397   8.205   4.119   8.911  0.0146  0.7970 -0.2161
29652SOL    HW191398   8.231   4.145   8.822 -1.1082  2.1604 -0.1659
29652SOL    HW291399   8.261   4.171   8.969  0.2994  0.3747 -0.1003
29653SOL     OW91400   2.238   0.600   3.356 -0.0612  0.2548 -0.2349
29653SOL    HW191401   2.192   0.532   3.405  0.3444 -0.2270 -0.5175
29653SOL    HW291402   2.329   0.595   3.386  0.1556  0.0704 -0.9075
29654SOL     OW91403   6.566   8.866   6.429 -0.0159  0.0431  0.0359
29654SOL    HW191404   6.637   8.802   6.416  2.3009  2.6051 -0.7935
29654SOL    HW291405   6.594   8.918   6.504 -2.0847 -0.0946  0.9716
29655SOL     OW91406   1.655   5.754   2.871 -0.5176 -0.2085  0.0380
29655SOL    HW191407   1.699   5.670   2.885  0.9093  0.8386  2.6148
29655SOL    HW291408   1.719   5.808   2.826 -1.4429 -0.4486 -1.6455
29656SOL     OW91409   8.741   7.033   1.600 -0.0767 -0.1402  0.7047
29656SOL    HW191410   8.667   7.035   1.540 -0.9126 -3.9196  1.3466
29656SOL    HW291411   8.713   7.085   1.675 -2.5555 -2.0795  1.2762
29657SOL     OW91412   8.306   2.511   9.948 -0.1781  0.7269  0.0724
29657SOL    HW191413   8.252   2.468  10.014  0.0152 -0.4824 -0.5287
29657SOL    HW291414   8.247   2.527   9.875 -0.6964  3.1594  0.9127
29658SOL     OW91415   2.018   0.297   7.881  0.0509 -0.3683 -0.3041
29658SOL    HW191416   2.109   0.300   7.851  0.6380  0.2398  1.4371
29658SOL    HW291417   2.022   0.254   7.966 -1.4131 -1.0455 -0.5465
29659SOL     OW91418  10.228   5.918   8.964 -0.0042  0.4728 -0.4144
29659SOL    HW191419  10.258   5.953   9.048  1.3852 -0.1908 -0.6105
29659SOL    HW291420  10.278   5.838   8.952 -1.3395 -0.2862 -1.1426
29660SOL     OW91421   9.139   4.629   4.596 -0.0562  0.0770 -0.5381
29660SOL    HW191422   9.130   4.724   4.607  0.1422  0.1664 -1.1098
29660SOL    HW291423   9.121   4.593   4.683 -1.0609  0.5707 -0.5286
29661SOL     OW91424   4.612   2.174   0.587 -0.1115 -0.1320 -0.1535
29661SOL    HW191425   4.574   2.222   0.513  0.2870 -0.8938 -0.8697
29661SOL    HW291426   4.674   2.113   0.547 -1.4110 -2.0447  0.6101
29662SOL     OW91427   5.822   2.427   7.225  0.2278  0.1448 -0.2188
29662SOL    HW191428   5.727   2.439   7.223  0.3782  1.3797 -0.8065
29662SOL    HW291429   5.843   2.390   7.139  0.2610 -0.2405 -0.0432
29663SOL     OW91430   3.100   2.902   9.881 -0.3905  0.0391  0.3228
29663SOL    HW191431   3.089   2.994   9.856 -0.8653  0.3188  1.4936
29663SOL    HW291432   3.176   2.872   9.831 -0.3366  1.0137 -0.2008
29664SOL     OW91433   1.561   1.336   7.960 -0.0670 -0.0190  0.4613
29664SOL    HW191434   1.640   1.333   7.905 -0.4183 -0.4863 -0.0247
29664SOL    HW291435   1.542   1.245   7.981 -0.3509  0.1072  0.7647
29665SOL     OW91436   6.808   5.781   0.740  0.6501  0.0615 -0.2746
29665SOL    HW191437   6.723   5.775   0.783  0.6819  0.0128 -0.2183
29665SOL    HW291438   6.837   5.690   0.732  0.5277  0.0518 -0.6320
29666SOL     OW91439   2.284   7.624   0.149 -0.5395  0.7239 -0.4663
29666SOL    HW191440   2.239   7.627   0.233  0.6577 -1.1253  0.3076
29666SOL    HW291441   2.215   7.634   0.084 -1.4730  2.3299  0.6926
29667SOL     OW91442   0.168   5.723   7.176 -0.4155  0.5566 -0.4189
29667SOL    HW191443   0.087   5.673   7.162 -0.3739  0.1396  0.7258
29667SOL    HW291444   0.139   5.814   7.178 -0.8570  0.4095 -0.0319
29668SOL     OW91445   3.928   5.038   3.691  0.5592  0.4469  0.1938
29668SOL    HW191446   3.951   5.118   3.739 -0.6508  1.4583 -0.8462
29668SOL    HW291447   4.001   5.025   3.630  1.4774 -0.1203  1.3667
29669SOL     OW91448   0.105   3.422   4.072 -0.0851 -0.4771 -0.3261
29669SOL    HW191449   0.146   3.508   4.069  1.9824 -1.1745  2.7871
29669SOL    HW291450   0.015   3.436   4.041 -0.2036  3.0867  1.1971
29670SOL     OW91451   0.725   6.191   8.063 -0.2487  0.4813 -0.3798
29670SOL    HW191452   0.656   6.179   8.127 -0.0836 -1.2683 -0.4740
29670SOL    HW291453   0.749   6.102   8.037  0.1585  1.1211 -2.3643
29671SOL     OW91454   5.274   9.877   1.987 -0.3415 -0.2030  0.1484
29671SOL    HW191455   5.270   9.894   2.081  0.1822 -0.1394  0.1578
29671SOL    HW291456   5.266   9.782   1.979 -0.4316 -0.2044  0.2507
29672SOL     OW91457   4.290   5.022   8.898  0.4718  0.3384  0.2684
29672SOL    HW191458   4.213   5.060   8.940  0.3580  0.1669  0.2130
29672SOL    HW291459   4.336   5.097   8.859 -0.6268  0.2412 -1.2919
29673SOL     OW91460   1.269   3.139   3.260 -0.2201  0.7003  0.1957
29673SOL    HW191461   1.259   3.134   3.355  0.4505  0.2182  0.2453
29673SOL    HW291462   1.361   3.117   3.244 -0.5514 -0.1531 -0.6354
29674SOL     OW91463   9.417   0.625   8.589 -0.5169 -0.2397 -0.1058
29674SOL    HW191464   9.426   0.593   8.679 -0.2554  0.4427  0.1165
29674SOL    HW291465   9.430   0.719   8.595 -0.0755 -0.2362 -0.9242
29675SOL     OW91466   5.474   1.531   7.631 -0.3029 -0.1396 -0.1856
29675SOL    HW191467   5.548   1.518   7.572  0.4430  2.2660  0.1040
29675SOL    HW291468   5.429   1.447   7.632  0.6871 -0.7994 -2.7404
29676SOL     OW91469   3.479   4.850   9.526 -0.1703  0.4012  0.1338
29676SOL    HW191470   3.449   4.920   9.469  1.5433  1.8476  0.9022
29676SOL    HW291471   3.542   4.892   9.585 -0.2869 -1.4584  1.6959
29677SOL     OW91472   7.682   5.822   7.839  0.5929  0.4291 -0.2884
29677SOL    HW191473   7.658   5.816   7.932  0.4078  0.3503 -0.3389
29677SOL    HW291474   7.760   5.877   7.837  1.0534 -0.1960 -0.0075
29678SOL     OW91475   5.487   1.308   2.306  0.7066  0.9713 -0.3967
29678SOL    HW191476   5.489   1.260   2.224 -0.6572  0.2514 -0.0444
29678SOL    HW291477   5.578   1.308   2.337  0.9678 -0.0885 -1.1326
29679SOL     OW91478   3.112   7.841   2.543 -0.0246 -0.6051  0.1741
29679SOL    HW191479   3.073   7.814   2.460  0.7613  0.2573 -0.5022
29679SOL    HW291480   3.060   7.917   2.570  0.9694  0.3852 -0.5974
29680SOL     OW91481   1.862   8.432   0.003  0.5370  0.2028  0.0065
29680SOL    HW191482   1.875   8.456  -0.089  0.3146  0.8621  0.1383
29680SOL    HW291483   1.779   8.474   0.027  1.2211  1.1301  0.8569
29681SOL     OW91484   8.072   7.393   3.364 -0.3485 -0.3374  0.0989
29681SOL    HW191485   8.131   7.464   3.392 -0.3949 -0.6200  0.9407
29681SOL    HW291486   8.015   7.434   3.299 -1.9636  1.0815  2.2871
29682SOL     OW91487   9.242   1.526   7.154 -0.2308 -0.4136  0.3237
29682SOL    HW191488   9.243   1.585   7.230 -0.9672  0.0236  0.0010
29682SOL    HW291489   9.184   1.455   7.180  3.5673 -3.1824  2.2754
29683SOL     OW91490   2.746   2.660   7.122 -0.2310  0.0624  0.5685
29683SOL    HW191491   2.698   2.726   7.172 -0.5001 -0.2370  0.7058
29683SOL    HW291492   2.679   2.615   7.071  0.0574  0.4448 -0.1662
29684SOL     OW91493   6.780   1.137   8.441 -0.1690 -0.0330  0.2770
29684SOL    HW191494   6.753   1.214   8.390 -0.9363  0.4696  1.4006
29684SOL    HW291495   6.718   1.069   8.417  0.4082 -0.2776 -0.5920
29685SOL     OW91496   5.919   0.646   8.926 -0.0574 -0.8383 -0.3286
29685SOL    HW191497   5.836   0.598   8.936  0.7999 -2.1781  0.7783
29685SOL    HW291498   5.981   0.596   8.979  0.9261  1.5098  0.8499
29686SOL     OW91499   9.878   7.048   4.141  0.1473 -0.0125 -0.5814
29686SOL    HW191500   9.867   7.045   4.046  0.4087  2.1780 -0.7371
29686SOL    HW291501   9.968   7.079   4.154  0.2794 -0.7599  0.3923
29687SOL     OW91502   7.222   7.203  10.440  0.0698  0.1970 -0.0607
29687SOL    HW191503   7.145   7.240  10.398 -1.9721 -3.1924  0.3552
29687SOL    HW291504   7.227   7.113  10.407  3.5599  0.0977  0.3637
29688SOL     OW91505  10.445   1.815   1.905 -0.0061  0.1314  0.0863
29688SOL    HW191506  10.428   1.852   1.992  1.1143  1.2961 -0.1609
29688SOL    HW291507  10.453   1.891   1.848  0.5546 -0.5752 -0.7996
29689SOL     OW91508   5.677   1.403   5.139 -0.0794  0.2719 -0.1102
29689SOL    HW191509   5.593   1.431   5.174  0.1864  1.0114 -0.0350
29689SOL    HW291510   5.716   1.484   5.104 -0.5794 -0.4991 -2.6382
29690SOL     OW91511   7.877   6.852   8.827  0.0073  0.4768 -0.1692
29690SOL    HW191512   7.912   6.866   8.914 -0.4761  1.9122 -0.1786
29690SOL    HW291513   7.785   6.831   8.841 -0.1908  1.1894 -0.3351
29691SOL     OW91514   2.700   9.704   5.767 -0.0314 -0.2015  0.4444
29691SOL    HW191515   2.651   9.733   5.844  0.1124 -0.2953  0.5718
29691SOL    HW291516   2.791   9.699   5.797 -0.1986 -1.8602  0.7376
29692SOL     OW91517   9.190   5.664   9.649  0.4370 -0.0923  0.1510
29692SOL    HW191518   9.164   5.756   9.645 -0.7971 -0.4306 -0.4370
29692SOL    HW291519   9.119   5.618   9.604  1.6558 -1.2071 -0.7096
29693SOL     OW91520   5.998   0.816   5.108 -0.0589  0.0019 -0.2390
29693SOL    HW191521   5.912   0.824   5.067  0.5892 -0.0643 -1.6784
29693SOL    HW291522   6.007   0.896   5.159 -0.8987  0.0862 -0.1990
29694SOL     OW91523   0.410   3.747   2.700  0.3536 -0.1854 -0.1419
29694SOL    HW191524   0.500   3.716   2.713  0.5719 -0.3159 -1.7414
29694SOL    HW291525   0.411   3.837   2.733  1.2433  0.0206 -0.6703
29695SOL     OW91526   5.719   5.731   6.538  0.4099  0.4745 -0.2298
29695SOL    HW191527   5.796   5.674   6.550  0.2220  0.6649  2.4821
29695SOL    HW291528   5.645   5.675   6.561  0.2274  1.6973  2.5616
29696SOL     OW91529   9.748   6.523   8.159  0.0765  0.0095  0.0122
29696SOL    HW191530   9.699   6.448   8.127 -0.5289  0.7067 -0.7577
29696SOL    HW291531   9.822   6.530   8.098  0.1122  0.0570  0.0621
29697SOL     OW91532   0.956   5.075   6.618 -0.1680  0.5524  0.1464
29697SOL    HW191533   0.984   5.166   6.601  1.9343 -0.2782 -1.3411
29697SOL    HW291534   1.035   5.032   6.650 -0.8239 -1.0164 -0.2646
29698SOL     OW91535   9.399   9.378   0.710 -0.5866 -0.0969 -0.1097
29698SOL    HW191536   9.493   9.361   0.717 -0.8631 -2.5644 -1.3368
29698SOL    HW291537   9.383   9.387   0.616 -1.5271  0.8173  0.1156
29699SOL     OW91538   1.729   2.916   7.981 -0.2354  0.0874  0.1031
29699SOL    HW191539   1.809   2.949   8.021  0.9352  0.3485 -2.2733
29699SOL    HW291540   1.744   2.925   7.887 -2.9162 -0.2233 -0.4334
29700SOL     OW91541   3.090   1.276   3.438 -0.4818 -0.4015  0.2925
29700SOL    HW191542   3.082   1.237   3.351 -0.0071  1.4543 -0.6419
29700SOL    HW291543   3.030   1.351   3.436 -1.2936 -0.9547  1.9763
29701SOL     OW91544   0.618   6.315   0.056  0.3326  0.1498  0.3194
29701SOL    HW191545   0.665   6.329   0.138 -0.0053  0.3294  0.4869
29701SOL    HW291546   0.566   6.395   0.044 -0.2278 -0.2041  0.3439
29702SOL     OW91547   4.655   0.443   5.422  0.6912  0.4695 -0.0241
29702SOL    HW191548   4.682   0.375   5.484 -0.2525  1.0780  1.0873
29702SOL    HW291549   4.647   0.522   5.476  1.4994  1.4194 -1.2402
29703SOL     OW91550   0.959   3.404   0.807  0.1377  0.3650 -0.4257
29703SOL    HW191551   0.906   3.374   0.732  0.5766  2.3004 -1.5949
29703SOL    HW291552   0.945   3.338   0.874 -0.0018 -1.6738 -2.3305
29704SOL     OW91553   7.570   5.656   0.560  0.7168 -0.0506 -0.2635
29704SOL    HW191554   7.499   5.668   0.624  1.0760 -0.2775  0.1859
29704SOL    HW291555   7.556   5.725   0.496 -1.1879 -1.3886 -1.3861
29705SOL     OW91556   0.726   7.287   0.280 -0.2664 -0.1304  0.3606
29705SOL    HW191557   0.689   7.288   0.192 -0.6870 -0.2842  0.5325
29705SOL    HW291558   0.663   7.237   0.332  0.7763 -1.4872  0.3896
29706SOL     OW91559   6.862   6.661   6.647 -0.1923 -0.1860 -0.3272
29706SOL    HW191560   6.821   6.591   6.697 -0.0964 -0.3633 -0.4927
29706SOL    HW291561   6.882   6.729   6.711  0.8190 -0.8201  0.0549
29707SOL     OW91562   4.317   8.344   0.093 -0.0823  0.5962 -0.3254
29707SOL    HW191563   4.243   8.286   0.107  1.3972 -1.0754  0.9564
29707SOL    HW291564   4.391   8.286   0.075  1.1173  2.1681 -0.7367
29708SOL     OW91565   1.799   5.219   2.145  0.3476 -0.0535 -0.2542
29708SOL    HW191566   1.878   5.229   2.092  1.2513  1.0898  1.2349
29708SOL    HW291567   1.743   5.161   2.093  1.6933 -0.0107 -1.8515
29709SOL     OW91568   0.331   9.862   6.757 -0.5814  0.2322  0.2763
29709SOL    HW191569   0.245   9.904   6.754 -0.2350  1.0246  0.9794
29709SOL    HW291570   0.393   9.935   6.768  0.2185 -0.2868 -0.6131
29710SOL     OW91571   6.377   8.638   2.875  0.1005 -0.0096 -0.1070
29710SOL    HW191572   6.429   8.590   2.939 -0.1582 -1.5587 -0.9916
29710SOL    HW291573   6.311   8.684   2.927 -0.5096 -1.7415  0.7387
29711SOL     OW91574   8.890   1.435   4.357  0.2706 -0.1478  0.6678
29711SOL    HW191575   8.976   1.464   4.387  0.0364  1.4574 -0.0751
29711SOL    HW291576   8.893   1.445   4.262 -0.8578  0.3226  0.6625
29712SOL     OW91577   7.722  10.482   1.511 -0.1366  0.6937  0.0109
29712SOL    HW191578   7.638  10.449   1.478  0.6861 -1.1541 -0.3578
29712SOL    HW291579   7.772  10.503   1.431  0.3937  0.0506  0.1633
29713SOL     OW91580   5.219   8.950   8.837 -0.1148  0.3371  0.2943
29713SOL    HW191581   5.193   8.884   8.901  3.3590 -0.0016  1.5993
29713SOL    HW291582   5.138   8.975   8.794 -2.3318 -1.0482  3.2867
29714SOL     OW91583   6.945   7.025   8.214  0.1587  0.0176 -0.2446
29714SOL    HW191584   6.900   7.107   8.232  0.1932  0.3846 -1.6958
29714SOL    HW291585   6.875   6.962   8.198  0.1338 -0.2248  0.7666
29715SOL     OW91586   0.976   4.747   0.126  0.1918  0.0046 -0.6703
29715SOL    HW191587   0.998   4.724   0.216  0.1282  0.5321 -0.5128
29715SOL    HW291588   1.024   4.685   0.073  0.4190 -0.1621 -0.2768
29716SOL     OW91589   7.970   5.300   2.480 -0.1958  0.0126 -0.0942
29716SOL    HW191590   7.919   5.359   2.425  1.7088  1.1716 -0.7015
29716SOL    HW291591   7.984   5.223   2.426 -0.2502  0.2109 -0.3935
29717SOL     OW91592   2.904   7.332  10.285 -0.4519 -0.0971  0.0639
29717SOL    HW191593   2.816   7.342  10.247 -0.7947  0.1192  0.9078
29717SOL    HW291594   2.903   7.244  10.323  0.0367 -0.4820 -0.7694
29718SOL     OW91595   7.354   8.699   7.617 -0.2999 -0.2993  0.5714
29718SOL    HW191596   7.426   8.752   7.584 -0.2369 -0.3613  0.6096
29718SOL    HW291597   7.319   8.655   7.539  1.0391 -1.9190  0.8145
29719SOL     OW91598   5.706   7.677  10.330  0.5634  0.0654  0.6128
29719SOL    HW191599   5.786   7.628  10.352  0.4302  0.0366  1.0529
29719SOL    HW291600   5.734   7.768  10.324  0.4173  0.2214  1.9890
29720SOL     OW91601   5.554   3.784   1.208 -0.8716 -0.7318  0.2457
29720SOL    HW191602   5.611   3.812   1.136  0.4742 -2.5935  0.5250
29720SOL    HW291603   5.611   3.783   1.285 -1.9476 -0.1348  1.0698
29721SOL     OW91604   2.560   0.129   7.141 -0.0875 -0.6052 -0.0813
29721SOL    HW191605   2.652   0.143   7.161 -0.1988  0.3855 -0.1948
29721SOL    HW291606   2.548   0.034   7.146  1.0751 -0.7984 -0.6865
29722SOL     OW91607   6.447   2.954   2.832  0.0820  0.0459  0.6055
29722SOL    HW191608   6.513   3.016   2.862 -0.4025  1.2643 -0.7235
29722SOL    HW291609   6.490   2.906   2.761 -0.3771  0.7100 -0.1358
29723SOL     OW91610   5.613   2.429   5.942 -0.0045 -0.0389  0.2835
29723SOL    HW191611   5.605   2.371   5.866 -0.4651 -1.8891  1.6683
29723SOL    HW291612   5.662   2.505   5.909 -1.8930  0.1846 -2.3469
29724SOL     OW91613  10.132   9.564   4.509  0.0879 -0.0189  0.6364
29724SOL    HW191614  10.090   9.479   4.496 -3.2361  1.6981 -0.8049
29724SOL    HW291615  10.107   9.616   4.433  0.7428  2.7478  2.1641
29725SOL     OW91616   7.881   1.958   0.065 -0.4457 -0.2777 -0.6022
29725SOL    HW191617   7.834   1.978  -0.017 -1.1449  2.0524  0.2736
29725SOL    HW291618   7.822   1.988   0.134  1.8027  1.8248  0.5834
29726SOL     OW91619   2.014   3.053   1.254 -0.0828 -0.0714  0.4403
29726SOL    HW191620   2.020   2.966   1.291 -1.2334 -0.2781  0.1772
29726SOL    HW291621   2.104   3.085   1.253  0.6197 -1.9300 -1.0887
29727SOL     OW91622   7.031   7.623   8.424 -0.3756  0.2941  0.3523
29727SOL    HW191623   7.106   7.648   8.478  0.7099 -1.3153 -0.3291
29727SOL    HW291624   7.022   7.529   8.437  0.0065 -0.1954 -2.2653
29728SOL     OW91625   2.566   1.362   2.809 -0.1076  0.4568  0.1696
29728SOL    HW191626   2.631   1.423   2.843  0.0606 -0.5521  1.7027
29728SOL    HW291627   2.614   1.281   2.792 -0.4875  0.4671 -1.0919
29729SOL     OW91628   9.256   1.029  10.181  0.0414  0.8348  0.5438
29729SOL    HW191629   9.209   1.050  10.261 -0.7977  0.8607  0.0460
29729SOL    HW291630   9.332   1.088  10.182 -0.3685  1.3658  0.9399
29730SOL     OW91631   1.748   8.452   6.861 -0.5091  0.2137  0.0671
29730SOL    HW191632   1.776   8.389   6.928 -1.0870 -1.1171 -0.8999
29730SOL    HW291633   1.772   8.412   6.778 -2.1881  0.5695 -0.6489
29731SOL     OW91634   4.528   2.054   9.464 -0.3573  0.3097  0.3962
29731SOL    HW191635   4.592   1.983   9.462 -3.3448 -2.6402 -0.3594
29731SOL    HW291636   4.554   2.111   9.391  1.0378 -1.1323 -0.3084
29732SOL     OW91637   9.797   4.467   3.364  0.1847  0.0933  0.0088
29732SOL    HW191638   9.870   4.409   3.339 -0.0722  0.6268 -2.1922
29732SOL    HW291639   9.720   4.411   3.359 -0.0359  0.4872 -1.9061
29733SOL     OW91640   7.244   8.590   5.145 -0.3498 -0.2639 -0.0369
29733SOL    HW191641   7.156   8.618   5.119 -0.2273  0.5400  0.4091
29733SOL    HW291642   7.250   8.612   5.238  0.4369 -0.0465 -0.1386
29734SOL     OW91643   2.849   3.002   1.257 -0.0578 -0.0604 -1.4201
29734SOL    HW191644   2.944   3.010   1.261  0.0241 -0.4132 -2.4412
29734SOL    HW291645   2.817   3.092   1.256  0.2056  0.0661 -0.1951
29735SOL     OW91646   9.123   9.552   6.337 -0.4810 -0.1025  0.1036
29735SOL    HW191647   9.207   9.549   6.382 -0.1855 -0.1783 -0.4439
29735SOL    HW291648   9.096   9.644   6.345  0.6104  0.3933 -1.4177
29736SOL     OW91649   9.157   3.005   6.617  0.1956 -0.5927  0.1169
29736SOL    HW191650   9.127   3.080   6.565  1.6714  0.1454  0.2819
29736SOL    HW291651   9.129   2.929   6.567 -3.0462 -0.0512  0.8765
29737SOL     OW91652   2.519   3.777   8.341  0.2291 -0.5298 -0.4149
29737SOL    HW191653   2.497   3.684   8.346 -0.1404 -0.4192  0.0740
29737SOL    HW291654   2.462   3.819   8.405  1.2068 -0.1171  0.2203
29738SOL     OW91655   8.204   4.264   3.777 -0.2121 -0.5796 -0.6629
29738SOL    HW191656   8.116   4.228   3.783  0.0460 -1.0430  0.6138
29738SOL    HW291657   8.248   4.236   3.857  0.4390  1.4396 -0.2522
29739SOL     OW91658   8.185   8.838   4.373  0.3690 -0.0601 -0.0755
29739SOL    HW191659   8.133   8.918   4.368  0.2299 -0.1935 -0.8566
29739SOL    HW291660   8.180   8.812   4.465 -2.2325 -0.9119 -0.3856
29740SOL     OW91661   4.680   9.995  10.283  0.2525  0.5272 -0.4849
29740SOL    HW191662   4.765  10.039  10.288  0.0430  1.1018 -1.6164
29740SOL    HW291663   4.701   9.902  10.274  0.7017  0.3215  1.9185
29741SOL     OW91664   9.052   4.299   5.973 -0.5023  0.4093  0.1220
29741SOL    HW191665   8.990   4.307   5.900  0.6954 -0.7759 -1.0735
29741SOL    HW291666   9.075   4.390   5.995  0.3772  0.7752 -2.0998
29742SOL     OW91667   6.340   6.869   1.261 -0.1215  0.7102 -0.2149
29742SOL    HW191668   6.355   6.807   1.189  0.8209  2.6506 -1.7812
29742SOL    HW291669   6.248   6.891   1.254 -0.1550  0.4904 -0.5172
29743SOL     OW91670   2.354   2.488   9.844 -0.2269 -0.7572  0.0179
29743SOL    HW191671   2.323   2.468   9.756  0.8866 -0.9261 -0.3416
29743SOL    HW291672   2.379   2.403   9.881  2.1574 -0.4090 -0.6168
29744SOL     OW91673   3.949   1.127   1.548 -0.0636  0.5973 -0.2404
29744SOL    HW191674   3.908   1.164   1.626  2.8801  0.4583  1.5025
29744SOL    HW291675   3.911   1.039   1.541  0.6081  0.1058  1.8723
29745SOL     OW91676   6.510  10.138   5.179  0.7156  0.7993 -0.1288
29745SOL    HW191677   6.528  10.196   5.106  1.0529 -0.5582 -1.1650
29745SOL    HW291678   6.579  10.156   5.242  1.9398  0.2294 -1.2581
29746SOL     OW91679   9.781   7.087   9.730 -0.4396 -1.1257  0.0111
29746SOL    HW191680   9.752   7.086   9.639 -0.8638 -0.0866  0.1208
29746SOL    HW291681   9.744   7.168   9.766 -0.1235 -1.4333  1.0551
29747SOL     OW91682   6.608   4.815   2.484 -0.1188 -0.4361 -0.2985
29747SOL    HW191683   6.526   4.803   2.532  0.1784 -0.7644  0.1376
29747SOL    HW291684   6.670   4.842   2.551  0.0035  0.3563 -0.7190
29748SOL     OW91685   2.584   8.793   5.030  0.2245  0.2722 -0.3559
29748SOL    HW191686   2.639   8.719   5.005 -0.4822 -0.4130  0.1042
29748SOL    HW291687   2.636   8.870   5.006  0.7716 -0.3593 -1.2748
29749SOL     OW91688   8.213   7.529   7.483 -0.3358 -0.1746 -0.2147
29749SOL    HW191689   8.151   7.544   7.412 -0.1355 -0.0170 -0.3583
29749SOL    HW291690   8.199   7.601   7.544 -1.4783 -1.0664  0.6099
29750SOL     OW91691   0.964   0.218   2.526 -0.1015 -0.2056  0.5650
29750SOL    HW191692   0.995   0.142   2.477 -0.9875  0.9586 -2.0093
29750SOL    HW291693   0.878   0.193   2.559 -0.8558 -0.0634 -1.1652
29751SOL     OW91694   2.349   4.177   4.777  0.1582  0.2889  0.1585
29751SOL    HW191695   2.349   4.271   4.797 -0.5508 -0.1581  2.5731
29751SOL    HW291696   2.433   4.162   4.734 -0.0110  2.1297 -0.9199
29752SOL     OW91697   0.087   9.663  10.382  0.3954 -1.1542  0.0556
29752SOL    HW191698  -0.009   9.665  10.381  0.4059 -0.1791 -1.0790
29752SOL    HW291699   0.111   9.599  10.315  0.5175  1.0059 -2.0969
29753SOL     OW91700   6.270  10.246   8.966 -0.0566 -0.0871 -0.1394
29753SOL    HW191701   6.238  10.325   9.010  0.5058  0.5482 -0.8392
29753SOL    HW291702   6.350  10.223   9.013 -1.2292 -1.3960  1.3038
29754SOL     OW91703   1.681   1.286   2.221  0.6551 -0.2601 -0.2098
29754SOL    HW191704   1.635   1.292   2.137  1.7492  0.6873 -0.7650
29754SOL    HW291705   1.639   1.212   2.265  1.2108 -1.9245 -2.3119
29755SOL     OW91706   7.945   4.475   3.943 -0.0795 -0.0811  0.1543
29755SOL    HW191707   8.039   4.493   3.943  0.0609 -0.7596  0.2880
29755SOL    HW291708   7.904   4.560   3.926  0.5048  0.4913  1.4582
29756SOL     OW91709   6.555   1.132   6.817 -0.5679 -0.4547 -0.0030
29756SOL    HW191710   6.539   1.218   6.855  0.1168 -0.5078  0.4336
29756SOL    HW291711   6.525   1.140   6.726  1.3711  0.9242 -0.6212
29757SOL     OW91712   4.830   9.295   2.858  0.0893 -0.0479  0.4301
29757SOL    HW191713   4.745   9.283   2.817  0.7925 -2.3928 -0.5211
29757SOL    HW291714   4.878   9.215   2.837  3.0960  1.8230 -0.3982
29758SOL     OW91715   8.656   0.880   6.446 -0.0246 -0.0491 -0.2345
29758SOL    HW191716   8.611   0.803   6.482  2.2530 -1.0913  0.5730
29758SOL    HW291717   8.704   0.846   6.370  0.9200  0.5908  0.0642
29759SOL     OW91718   4.823   5.336   6.820 -0.2358 -0.0871 -0.9736
29759SOL    HW191719   4.835   5.409   6.760 -0.1042 -0.2945 -1.2028
29759SOL    HW291720   4.872   5.361   6.899  0.1850 -0.1257 -1.2206
29760SOL     OW91721   3.806   8.876   4.016  0.2903  0.1787 -0.5777
29760SOL    HW191722   3.888   8.908   4.052  0.4994  1.5155 -2.1576
29760SOL    HW291723   3.781   8.941   3.951 -2.3053  0.0932  0.2195
29761SOL     OW91724   6.761   8.479   5.209  0.3658  0.9727  0.3745
29761SOL    HW191725   6.687   8.419   5.209  0.8362  0.3371 -1.0898
29761SOL    HW291726   6.725   8.563   5.235 -1.0468  0.8675 -1.1353
29762SOL     OW91727   9.658  10.422   3.767  0.4703 -0.1114 -0.3731
29762SOL    HW191728   9.735  10.366   3.777  0.5433  0.0775  0.1339
29762SOL    HW291729   9.598  10.394   3.835  0.1737 -0.1138 -0.6338
29763SOL     OW91730   0.165  10.086   2.025  0.3346  0.0444  0.1021
29763SOL    HW191731   0.192  10.050   2.110 -0.1159  1.6887  0.9868
29763SOL    HW291732   0.109  10.161   2.048 -0.6236 -0.0900 -1.6573
29764SOL     OW91733   4.292   9.187   2.894 -0.8085 -0.0059 -0.1454
29764SOL    HW191734   4.348   9.209   2.819 -0.0906 -1.9059 -0.2258
29764SOL    HW291735   4.214   9.147   2.856 -0.7614 -0.3130  0.0692
29765SOL     OW91736   9.346   2.818   1.996 -0.0243 -0.1091  0.1030
29765SOL    HW191737   9.274   2.839   1.937 -0.3768 -3.3434 -0.8020
29765SOL    HW291738   9.425   2.840   1.947 -0.3377  0.9023  0.0306
29766SOL     OW91739   7.017   6.508   4.081  0.3477  0.1036 -0.4010
29766SOL    HW191740   6.970   6.587   4.111 -0.1750 -0.4493  0.2785
29766SOL    HW291741   6.995   6.441   4.146  0.5000 -0.7033 -1.1585
29767SOL     OW91742   8.630   7.190   5.644  0.3236  0.4995 -0.2278
29767SOL    HW191743   8.563   7.128   5.613 -0.3748  0.5856  1.0313
29767SOL    HW291744   8.703   7.179   5.583 -0.7618  0.2821 -1.5466
29768SOL     OW91745   4.464   6.510   2.412  0.0629 -0.8255  0.3367
29768SOL    HW191746   4.518   6.560   2.473 -2.0337  0.1912  1.4579
29768SOL    HW291747   4.442   6.573   2.343  0.9563 -1.4646 -0.5491
29769SOL     OW91748   8.863   0.945   3.385  0.2923  0.5765  0.3343
29769SOL    HW191749   8.856   1.035   3.353  0.9454  1.5459  2.7104
29769SOL    HW291750   8.916   0.900   3.319  0.8468  2.2094 -0.3830
29770SOL     OW91751   8.797   6.918   9.705 -0.2143 -0.3998  0.1283
29770SOL    HW191752   8.839   6.960   9.780  3.4269 -1.7867 -0.9332
29770SOL    HW291753   8.839   6.957   9.629 -2.5345 -0.3236 -1.1892
29771SOL     OW91754   3.218  10.382   3.012 -0.5932  0.4778  0.3815
29771SOL    HW191755   3.138  10.389   3.063  0.6067  1.7926  2.2157
29771SOL    HW291756   3.244  10.290   3.020 -1.4008  0.2641  0.5806
29772SOL     OW91757   4.261   0.405   1.303 -0.1659  0.1034  0.2324
29772SOL    HW191758   4.310   0.332   1.341 -0.1471 -0.5308 -0.9524
29772SOL    HW291759   4.183   0.364   1.265 -0.2410  0.7315 -0.3011
29773SOL     OW91760   5.647   0.266   5.637  0.2996 -0.1925 -0.0439
29773SOL    HW191761   5.584   0.292   5.570 -1.9250 -1.1080  1.5447
29773SOL    HW291762   5.688   0.187   5.603  0.4359  0.2878 -1.0146
29774SOL     OW91763   6.398   9.576   8.031 -0.5445 -0.2122 -0.5513
29774SOL    HW191764   6.338   9.572   8.105 -1.3742  0.8841 -1.1257
29774SOL    HW291765   6.414   9.485   8.007 -2.4743 -0.5458 -0.7444
29775SOL     OW91766   3.637   1.446   4.793 -0.2480 -0.2641 -0.0005
29775SOL    HW191767   3.590   1.489   4.864  1.6191  2.2634 -0.1645
29775SOL    HW291768   3.711   1.403   4.837  1.2881  1.8579 -0.3578
29776SOL     OW91769   7.228   6.871   4.724  0.4675  0.2912 -0.3525
29776SOL    HW191770   7.176   6.935   4.774  0.4956 -0.1445  0.2508
29776SOL    HW291771   7.174   6.791   4.725  1.8565 -0.6998  1.7573
29777SOL     OW91772   4.661   2.830   1.939  0.0197  0.0889  0.1313
29777SOL    HW191773   4.566   2.838   1.955  0.2577  1.8682  0.9013
29777SOL    HW291774   4.690   2.919   1.921  1.7097 -0.2791  0.8543
29778SOL     OW91775   6.930   0.764   7.900 -0.5525 -0.0004  0.3559
29778SOL    HW191776   6.860   0.704   7.874 -0.2910 -0.7514  1.3148
29778SOL    HW291777   6.887   0.849   7.908 -1.1160 -0.2265 -0.1814
29779SOL     OW91778   6.957   2.458   4.310  0.1227  0.2000  0.0509
29779SOL    HW191779   6.879   2.431   4.261  0.2562 -0.3123  0.1155
29779SOL    HW291780   6.963   2.394   4.381  1.3979 -0.6099 -0.7521
29780SOL     OW91781   3.396   6.821   1.277 -0.2051 -0.2419 -0.2163
29780SOL    HW191782   3.479   6.772   1.278 -1.3370 -2.3251 -1.3553
29780SOL    HW291783   3.332   6.759   1.242 -2.1579  1.4899  0.0943
29781SOL     OW91784   2.195   3.503   6.966 -0.0472  0.0646 -0.1542
29781SOL    HW191785   2.155   3.519   6.880 -0.0455 -0.4095 -0.2421
29781SOL    HW291786   2.278   3.550   6.963  0.2705 -0.5240 -0.6683
29782SOL     OW91787   6.990   2.030   9.346  0.0974 -0.4799  0.3241
29782SOL    HW191788   7.004   2.063   9.257 -0.2276 -0.2820  0.3488
29782SOL    HW291789   6.924   2.088   9.384  1.4463  0.4925  1.2821
29783SOL     OW91790   4.307   8.083   0.369  0.2026 -0.0550  0.0943
29783SOL    HW191791   4.328   8.085   0.462  0.9021  2.0275 -0.0550
29783SOL    HW291792   4.213   8.097   0.365  0.3997  1.4748  0.4656
29784SOL     OW91793   4.847   8.261   9.254  0.3475 -0.2900  0.6180
29784SOL    HW191794   4.807   8.187   9.298 -1.2701 -1.2389 -2.2178
29784SOL    HW291795   4.937   8.264   9.288 -0.7129 -0.9309  3.7917
29785SOL     OW91796   8.826   5.067   6.247  0.1921  0.0517 -0.3129
29785SOL    HW191797   8.806   5.064   6.153 -0.0333  1.6845 -0.3594
29785SOL    HW291798   8.768   5.002   6.286  0.9103 -1.2845 -1.3801
29786SOL     OW91799   7.512   6.842   5.183  0.0796 -0.4839  0.1725
29786SOL    HW191800   7.564   6.915   5.151  2.7342 -2.4949 -0.4591
29786SOL    HW291801   7.438   6.838   5.122  0.9015  0.5028 -0.9505
29787SOL     OW91802   1.766   3.445   6.138 -0.3053 -0.3231  0.1814
29787SOL    HW191803   1.781   3.529   6.181  1.7759 -0.3534 -0.3375
29787SOL    HW291804   1.676   3.422   6.160 -0.7663  1.7760  0.7719
29788SOL     OW91805   9.853   4.239   6.181 -0.4740 -0.0774  0.2970
29788SOL    HW191806   9.910   4.300   6.134  1.7245 -2.1105  0.1274
29788SOL    HW291807   9.905   4.212   6.257 -0.9901 -2.3524 -0.0978
29789SOL     OW91808   4.184  10.436   3.111 -0.5545 -0.1514  0.6240
29789SOL    HW191809   4.101  10.479   3.088  1.0666  2.3270 -1.1232
29789SOL    HW291810   4.168  10.343   3.093 -2.9939  0.2141  0.5308
29790SOL     OW91811   8.283   5.160   9.902 -1.1624  0.3056  0.1242
29790SOL    HW191812   8.376   5.181   9.907 -0.7823 -0.9601 -0.9542
29790SOL    HW291813   8.264   5.162   9.808 -1.5352 -2.1318  0.1061
29791SOL     OW91814   3.186   5.400   3.076 -0.0131  1.0360  0.1622
29791SOL    HW191815   3.250   5.335   3.103 -1.2732  0.0909  1.0099
29791SOL    HW291816   3.172   5.454   3.155 -0.5869  0.9272  0.1444
29792SOL     OW91817   7.706   0.485   3.492  0.0662  0.3341  0.1516
29792SOL    HW191818   7.754   0.514   3.415 -0.7720  0.5695 -0.2895
29792SOL    HW291819   7.643   0.555   3.509 -0.0758  0.0674  0.7672
29793SOL     OW91820   1.457   1.477   8.860 -0.0279  0.2897 -0.3323
29793SOL    HW191821   1.406   1.399   8.840 -0.7173  0.4481  0.7207
29793SOL    HW291822   1.461   1.480   8.956  0.4362  1.2562 -0.3631
29794SOL     OW91823   4.588   9.088   0.644  0.0778 -0.9113 -0.0162
29794SOL    HW191824   4.623   9.171   0.676  0.0646 -0.4744 -1.0979
29794SOL    HW291825   4.557   9.044   0.723  1.2482 -0.4569  0.7411
29795SOL     OW91826   4.534   3.216   2.134 -0.2232 -0.2516  0.0927
29795SOL    HW191827   4.523   3.179   2.046  0.2265  0.2204 -0.1675
29795SOL    HW291828   4.583   3.297   2.120  0.7129 -0.6575  0.8713
29796SOL     OW91829   9.768   7.454   8.327  0.0211  0.1690 -0.3832
29796SOL    HW191830   9.842   7.476   8.271  0.6983 -0.4465  0.2465
29796SOL    HW291831   9.723   7.383   8.282  0.9492 -0.7771  0.1540
29797SOL     OW91832   6.116   4.115   7.679  0.2216 -0.5061  0.4749
29797SOL    HW191833   6.047   4.142   7.618 -0.2807 -0.3947  1.0814
29797SOL    HW291834   6.197   4.125   7.629  0.0001  1.3456  0.3887
29798SOL     OW91835   5.513  10.343   5.197  0.2604 -0.0758 -0.2338
29798SOL    HW191836   5.534  10.433   5.171  2.9187  0.6152  3.3731
29798SOL    HW291837   5.582  10.290   5.158 -0.5701 -0.4080 -1.2991
29799SOL     OW91838   1.354   4.774   6.428 -0.2691 -0.0318  0.7737
29799SOL    HW191839   1.425   4.712   6.412  0.3542  1.3706 -2.7728
29799SOL    HW291840   1.396   4.848   6.473  0.3053  0.2390 -0.1673
29800SOL     OW91841   3.648   0.846   3.977 -0.1829 -0.2393  0.3281
29800SOL    HW191842   3.612   0.901   3.908  3.7403 -0.1406 -1.9553
29800SOL    HW291843   3.679   0.909   4.043 -1.0002 -0.1077  0.5886
29801SOL     OW91844   5.669   4.116   0.670  0.1599  0.0686 -0.3769
29801SOL    HW191845   5.645   4.181   0.736 -1.1959 -1.3052  0.5643
29801SOL    HW291846   5.754   4.083   0.699 -0.3556 -0.4184  0.6220
29802SOL     OW91847   9.454   9.070   6.654  0.1552  0.2739  0.3990
29802SOL    HW191848   9.469   8.978   6.673 -0.4573  0.0843 -0.0012
29802SOL    HW291849   9.494   9.117   6.727  0.5250 -0.3024  0.5727
29803SOL     OW91850   1.327   5.570   0.623  0.1119 -0.2725  0.0447
29803SOL    HW191851   1.325   5.641   0.559 -0.0034 -0.2675  0.0538
29803SOL    HW291852   1.234   5.551   0.641  0.1426 -0.3758  0.0962
29804SOL     OW91853   9.545   3.379   7.662 -0.0094  0.1136 -0.1992
29804SOL    HW191854   9.489   3.401   7.589 -0.3409  0.3284  0.1191
29804SOL    HW291855   9.592   3.300   7.633 -0.6348 -0.1994 -0.3788
29805SOL     OW91856   6.332   4.810   8.243 -0.9158  0.4079  0.3964
29805SOL    HW191857   6.391   4.792   8.316  1.2403 -1.2556 -1.6239
29805SOL    HW291858   6.266   4.740   8.248 -0.9444  0.4596  0.8678
29806SOL     OW91859   3.997   9.329   6.144  0.2054  0.3434  0.5321
29806SOL    HW191860   4.049   9.368   6.214 -1.6303  2.9124  0.6247
29806SOL    HW291861   4.056   9.327   6.068  1.3305  0.2703  1.3804
29807SOL     OW91862   2.902   5.244   5.113  0.2630  0.6629  0.0308
29807SOL    HW191863   2.893   5.239   5.018 -1.6136  1.5103  0.1323
29807SOL    HW291864   2.850   5.170   5.146 -1.0374  1.7141  0.4371
29808SOL     OW91865   5.343   3.919   7.782 -0.1499  0.1466 -0.6904
29808SOL    HW191866   5.379   3.858   7.717  0.0292  0.5344 -0.9596
29808SOL    HW291867   5.397   3.904   7.860  0.3557  0.4480 -0.9714
29809SOL     OW91868   2.067   2.986   9.790 -0.7704 -0.0837 -0.5550
29809SOL    HW191869   2.122   2.911   9.812  0.2039  0.3366 -1.5023
29809SOL    HW291870   2.059   2.984   9.695 -2.3348 -0.0742 -0.4499
29810SOL     OW91871   0.963   5.162   4.269  0.1296 -0.2426  0.0087
29810SOL    HW191872   0.906   5.238   4.282 -0.9457 -1.0723  0.2144
29810SOL    HW291873   0.978   5.127   4.356 -0.1651 -0.8314 -0.1733
29811SOL     OW91874   2.892   2.401   0.532 -0.3471 -0.2233 -0.0251
29811SOL    HW191875   2.819   2.390   0.471  0.1442  0.0779 -0.6829
29811SOL    HW291876   2.902   2.496   0.539 -0.2915 -0.2594  0.4046
29812SOL     OW91877  10.155   3.845   5.393 -0.2543 -0.6024  0.5450
29812SOL    HW191878  10.172   3.924   5.445 -1.5338  0.1823 -0.1844
29812SOL    HW291879  10.226   3.785   5.417  2.7278  1.9019 -1.2699
29813SOL     OW91880   6.726   1.364   8.672 -1.3774 -0.4280 -0.0303
29813SOL    HW191881   6.730   1.317   8.756  1.4927 -0.1237  0.0913
29813SOL    HW291882   6.761   1.302   8.608 -1.5869  0.0712 -0.6347
29814SOL     OW91883   7.112   6.271   0.258  0.1805 -0.7427  0.5910
29814SOL    HW191884   7.145   6.348   0.210 -1.4239 -1.7439 -2.3882
29814SOL    HW291885   7.104   6.203   0.191  0.6353 -3.2815  2.9362
29815SOL     OW91886   4.911   9.032   0.636 -0.0765 -0.2178 -0.1028
29815SOL    HW191887   4.850   8.997   0.701 -1.2506 -0.2420 -1.1849
29815SOL    HW291888   4.963   9.096   0.684  0.7020 -1.9288  1.4227
29816SOL     OW91889   3.320   5.870  10.261  0.3680  0.3334 -0.0176
29816SOL    HW191890   3.275   5.786  10.251 -1.6572  0.9554  2.8375
29816SOL    HW291891   3.380   5.856  10.334 -0.2404  1.4541  0.7105
29817SOL     OW91892   3.359   1.411   3.702  0.3079  0.6315 -0.3053
29817SOL    HW191893   3.297   1.483   3.701  1.3447  1.5356 -1.2411
29817SOL    HW291894   3.312   1.338   3.661 -0.2907  1.1474 -0.5451
29818SOL     OW91895   8.373  10.301   2.294  0.4505  0.2346 -0.1179
29818SOL    HW191896   8.350  10.334   2.381  1.4403 -0.4703  0.4290
29818SOL    HW291897   8.387  10.380   2.242  2.3860  0.7195  1.0636
29819SOL     OW91898   9.249   1.074   6.770  0.8970  0.4988  0.0835
29819SOL    HW191899   9.298   1.027   6.837  2.0120 -0.0803 -1.0944
29819SOL    HW291900   9.228   1.008   6.704  0.5696  1.2156 -0.5569
29820SOL     OW91901   3.973   5.755   4.924  0.2575  0.2612  0.4195
29820SOL    HW191902   3.926   5.680   4.961 -0.5954  1.4126  1.7326
29820SOL    HW291903   3.985   5.732   4.832 -3.2756  0.0623 -0.1268
29821SOL     OW91904   3.836   4.007   3.325  0.3961  0.0366  0.2704
29821SOL    HW191905   3.824   4.060   3.246 -1.3322  1.1836  1.2339
29821SOL    HW291906   3.929   4.013   3.345  0.6257  0.7800 -0.9740
29822SOL     OW91907   3.993   3.150   9.964 -0.0894  0.1810 -0.2482
29822SOL    HW191908   3.937   3.109  10.030  1.6225 -0.0149  1.1470
29822SOL    HW291909   3.939   3.221   9.928 -1.4580 -0.4125  0.5487
29823SOL     OW91910   4.405   4.600   8.352  1.0643  0.3628 -0.6240
29823SOL    HW191911   4.400   4.515   8.310  0.7805  0.8247 -1.5581
29823SOL    HW291912   4.349   4.592   8.430  0.1608  0.0139 -1.2942
29824SOL     OW91913   2.247   0.805   0.312  0.0271  0.0918  0.0982
29824SOL    HW191914   2.208   0.888   0.336 -0.4361 -0.2183  0.4214
29824SOL    HW291915   2.210   0.785   0.226 -0.7983 -0.3624  0.5458
29825SOL     OW91916   6.901   9.498   1.645 -0.2787 -0.2739  0.6940
29825SOL    HW191917   6.810   9.472   1.656 -0.3189 -0.4935 -0.1277
29825SOL    HW291918   6.917   9.561   1.716 -1.5926  1.1672 -0.2367
29826SOL     OW91919   4.524   2.349   6.676 -0.2001  0.1073  0.3545
29826SOL    HW191920   4.468   2.276   6.699 -2.1244  0.0445 -3.7279
29826SOL    HW291921   4.596   2.310   6.626  1.0145  0.6973  1.5509
29827SOL     OW91922   8.437   4.017   8.188  0.7092  0.1186 -0.0536
29827SOL    HW191923   8.509   4.077   8.208  0.4166  1.1750 -2.0518
29827SOL    HW291924   8.368   4.041   8.250  1.6829 -0.2918  1.2576
29828SOL     OW91925   6.163   3.053   4.991  0.1871  0.2395  0.0665
29828SOL    HW191926   6.089   3.033   4.933 -0.7776  1.4471  0.8266
29828SOL    HW291927   6.225   2.982   4.976 -1.5165 -1.3350  0.0642
29829SOL     OW91928   1.732   2.868   7.228  0.5239 -0.3775 -0.5421
29829SOL    HW191929   1.783   2.790   7.207 -0.2903 -1.3505  0.9209
29829SOL    HW291930   1.663   2.871   7.162 -1.2490 -2.6650  1.0431
29830SOL     OW91931  10.040   8.876   6.207 -0.8146 -0.2067  0.7965
29830SOL    HW191932   9.962   8.863   6.262  0.9370  1.0988  3.8534
29830SOL    HW291933  10.050   8.971   6.201  0.5453 -0.3426  0.5263
29831SOL     OW91934   0.014   2.564   9.479 -0.2913 -0.3768 -0.1081
29831SOL    HW191935  -0.023   2.501   9.541 -1.5988  0.4352 -0.0189
29831SOL    HW291936  -0.002   2.526   9.393 -0.7934 -0.3190 -0.0431
29832SOL     OW91937   1.551   7.925   6.818 -0.1367 -0.2362  0.3413
29832SOL    HW191938   1.507   7.881   6.890 -0.0973 -1.1498 -0.1774
29832SOL    HW291939   1.525   7.877   6.740  1.3492 -0.4875 -0.0455
29833SOL     OW91940   5.766   2.539   1.732  0.1729 -0.3669 -0.2758
29833SOL    HW191941   5.804   2.484   1.800  1.6130  0.8830 -0.0063
29833SOL    HW291942   5.812   2.514   1.652 -0.1169 -0.4667 -0.4135
29834SOL     OW91943   1.699   0.624   9.770 -0.1020  0.0634  0.1756
29834SOL    HW191944   1.621   0.599   9.819  0.9541 -0.1272  1.8508
29834SOL    HW291945   1.688   0.718   9.753 -1.0479 -0.1316 -0.3009
29835SOL     OW91946   6.665   4.767   3.619  0.3433  0.3664 -0.3909
29835SOL    HW191947   6.745   4.718   3.641 -0.0005 -0.7844 -1.5404
29835SOL    HW291948   6.595   4.717   3.661 -0.0674 -0.4708 -1.9989
29836SOL     OW91949   8.417   7.115   9.957  0.2325 -0.3067 -0.4516
29836SOL    HW191950   8.368   7.197   9.969 -0.5009 -0.7010 -0.7094
29836SOL    HW291951   8.378   7.055  10.020  2.8618  0.4002  2.0670
29837SOL     OW91952   6.412   5.650   3.744  0.1882 -0.0753  0.0622
29837SOL    HW191953   6.460   5.593   3.803  2.4547 -1.1397 -2.6086
29837SOL    HW291954   6.322   5.616   3.745  0.3161 -0.5027  2.2065
29838SOL     OW91955   8.395   2.146   6.711  0.1491 -0.0190 -0.4758
29838SOL    HW191956   8.482   2.132   6.673  0.7047  0.5803  0.5467
29838SOL    HW291957   8.393   2.088   6.788 -0.1245  0.4152 -0.1508
29839SOL     OW91958   9.972  10.488   6.504 -0.2949  0.3857  0.7025
29839SOL    HW191959   9.958  10.493   6.410  0.0092  0.4293  0.6588
29839SOL    HW291960  10.065  10.509   6.516 -0.2223 -0.0624  0.9702
29840SOL     OW91961   1.507   6.665   1.173 -0.2550  0.1447  0.0701
29840SOL    HW191962   1.513   6.683   1.267 -1.3701  0.4911  0.0886
29840SOL    HW291963   1.592   6.628   1.150 -0.7189 -2.0973  1.6733
29841SOL     OW91964   1.122   0.812   1.710 -0.0143  0.3335  0.3572
29841SOL    HW191965   1.088   0.808   1.621  2.3370 -0.4431 -0.5947
29841SOL    HW291966   1.128   0.720   1.737 -2.1577  0.5960  1.9950
29842SOL     OW91967   6.573   6.636   9.911  0.1070  0.2435  0.0121
29842SOL    HW191968   6.558   6.571   9.979  1.4732  0.8669  0.9547
29842SOL    HW291969   6.667   6.630   9.893  0.1251  1.4672 -0.3803
29843SOL     OW91970   3.742   2.078   6.926  0.2180  0.5557  0.1955
29843SOL    HW191971   3.755   2.152   6.868  0.2281  1.7766  1.6882
29843SOL    HW291972   3.668   2.104   6.982  0.3695 -0.4514  0.9031
29844SOL     OW91973   7.951   3.228   9.286 -0.2002 -0.1442 -0.2583
29844SOL    HW191974   7.962   3.149   9.233  0.8660  0.9383 -1.7457
29844SOL    HW291975   7.911   3.198   9.368  1.3856 -2.4005 -0.2417
29845SOL     OW91976   2.534   6.037   6.022 -0.4703 -0.6166  0.8750
29845SOL    HW191977   2.442   6.038   6.050 -1.1562 -1.5752 -1.1211
29845SOL    HW291978   2.532   6.072   5.933  1.1718 -0.3179  0.9252
29846SOL     OW91979   3.478   0.598   7.036  0.1478 -0.3474  0.0648
29846SOL    HW191980   3.541   0.544   7.084  0.2958 -0.7036 -0.5292
29846SOL    HW291981   3.525   0.628   6.959 -0.1202  0.1570  0.0956
29847SOL     OW91982   4.374   6.255   7.682 -0.2392  0.4883  0.1943
29847SOL    HW191983   4.445   6.216   7.732 -0.2642  1.9345  1.3943
29847SOL    HW291984   4.374   6.206   7.599  0.5262 -1.1923  1.1339
29848SOL     OW91985   8.899   2.151   4.101 -0.3719  0.1199  0.0340
29848SOL    HW191986   8.868   2.189   4.019 -1.1030  0.2403  0.3508
29848SOL    HW291987   8.819   2.121   4.145 -0.0416  0.4210  0.8742
29849SOL     OW91988   8.780   7.187   6.882 -0.5313 -0.2302 -0.0683
29849SOL    HW191989   8.848   7.184   6.815 -0.0864 -0.6754  0.4005
29849SOL    HW291990   8.791   7.106   6.931  0.1826  0.8289  1.5709
29850SOL     OW91991   4.174   5.399   9.248 -0.1992  0.0160  0.2391
29850SOL    HW191992   4.081   5.394   9.271 -0.1169 -0.1255  0.5482
29850SOL    HW291993   4.208   5.312   9.271  0.1537  0.2864  0.7673
29851SOL     OW91994   5.889   5.201   0.875 -0.1592  0.7591  0.4730
29851SOL    HW191995   5.866   5.238   0.790 -1.0295  1.3660  0.9621
29851SOL    HW291996   5.984   5.207   0.878 -0.1895  1.7499 -0.0094
29852SOL     OW91997   7.204   3.956   2.690  0.1048  0.4907  0.2539
29852SOL    HW191998   7.198   3.876   2.638 -1.0416 -0.1755  1.3569
29852SOL    HW291999   7.233   4.022   2.628 -1.4158 -0.2104 -1.3025
29853SOL     OW92000   7.177   0.294   1.555  0.4780  0.4636 -0.5094
29853SOL    HW192001   7.190   0.300   1.650  0.5182  2.7899 -0.6031
29853SOL    HW292002   7.182   0.384   1.525 -0.5245 -0.1353 -2.6251
29854SOL     OW92003   2.492   3.281   5.050 -0.0805  0.4067  0.3677
29854SOL    HW192004   2.405   3.289   5.012 -0.2504 -1.0570  0.3952
29854SOL    HW292005   2.479   3.230   5.130  0.6448  1.2045  1.0168
29855SOL     OW92006  10.104   0.719   4.843 -0.1523 -0.2081 -0.0569
29855SOL    HW192007  10.175   0.657   4.862 -0.2799 -0.6980 -1.1410
29855SOL    HW292008  10.058   0.728   4.926  1.1078  0.0446  0.6480
29856SOL     OW92009   9.111   0.345  10.130  0.0311 -0.5495  0.1760
29856SOL    HW192010   9.143   0.396  10.056  0.9659 -1.4387 -0.0554
29856SOL    HW292011   9.190   0.325  10.181 -0.2356 -2.1514  0.0049
29857SOL     OW92012   8.460   6.279   3.981  0.2557 -0.5350 -0.4730
29857SOL    HW192013   8.446   6.293   4.075  0.5811  1.2553 -0.6624
29857SOL    HW292014   8.545   6.319   3.964 -0.9861  1.6211 -2.0198
29858SOL     OW92015   4.541   3.112   3.201  0.6299  0.1195  0.1184
29858SOL    HW192016   4.505   3.200   3.213  0.7688  0.1479  0.3329
29858SOL    HW292017   4.473   3.054   3.235  0.3417  0.1192 -0.4519
29859SOL     OW92018   6.931   5.046   7.110  0.4703 -0.1765  0.0023
29859SOL    HW192019   6.925   5.016   7.201 -1.4542  1.9897  0.7118
29859SOL    HW292020   6.852   5.011   7.068 -0.8592  2.1472  0.3760
29860SOL     OW92021   4.660   4.437  10.277 -0.1424 -0.7544 -0.0659
29860SOL    HW192022   4.573   4.436  10.238 -0.0279 -1.0593 -0.3173
29860SOL    HW292023   4.702   4.357  10.245 -0.0992 -1.0899  0.8002
29861SOL     OW92024  10.320   5.162   5.483 -0.1794  0.1627  0.1465
29861SOL    HW192025  10.296   5.151   5.575 -1.4724  0.2352 -0.1680
29861SOL    HW292026  10.332   5.073   5.450 -0.9679  0.0756  0.0760
29862SOL     OW92027   9.876   7.952   2.960 -0.0140  0.2215  0.4928
29862SOL    HW192028   9.895   7.860   2.978  1.0011  0.3586  0.1951
29862SOL    HW292029   9.845   7.987   3.044 -1.7414 -0.6922  0.2766
29863SOL     OW92030   1.441   2.998   5.640  0.0186 -0.2156 -0.1565
29863SOL    HW192031   1.352   2.976   5.667 -0.3933 -0.6369 -1.7218
29863SOL    HW292032   1.477   2.916   5.608  0.4448  0.2413 -0.8790
29864SOL     OW92033   3.935   0.569   6.772  0.2518  0.1493 -0.4157
29864SOL    HW192034   3.853   0.555   6.725  0.2240  1.9301 -0.9660
29864SOL    HW292035   4.003   0.544   6.709  0.1873 -1.9981  0.2731
29865SOL     OW92036  10.400   4.762   4.531  0.3161  0.4467  0.0993
29865SOL    HW192037  10.480   4.815   4.528  0.4548  0.3729  1.6127
29865SOL    HW292038  10.397   4.729   4.621 -1.0325 -0.1590 -0.1489
29866SOL     OW92039   7.409   1.282   9.518 -0.2297  0.2617 -0.1926
29866SOL    HW192040   7.345   1.224   9.477 -1.0687  0.6537  0.5257
29866SOL    HW292041   7.374   1.298   9.606  2.2500 -1.7026  1.2747
29867SOL     OW92042   7.769   5.571   8.033 -0.4669 -0.0516  0.3796
29867SOL    HW192043   7.744   5.499   7.975 -1.3880  1.0546 -0.6494
29867SOL    HW292044   7.848   5.607   7.993 -0.1871 -0.2732  0.7221
29868SOL     OW92045   0.321   3.925   6.416 -0.1927  0.3483  0.5271
29868SOL    HW192046   0.359   3.997   6.467  2.0596 -0.0932 -0.4388
29868SOL    HW292047   0.296   3.965   6.333 -4.3025  1.1738  1.9296
29869SOL     OW92048   7.812   5.000   4.021 -0.2669 -0.7230 -0.1778
29869SOL    HW192049   7.867   5.079   4.020  0.9564 -1.4302  2.4248
29869SOL    HW292050   7.854   4.941   3.957  1.3289 -0.7819  0.8697
29870SOL     OW92051   0.133   4.835   2.838 -0.3754  0.4607  0.3533
29870SOL    HW192052   0.206   4.896   2.831 -0.3053  0.2256 -1.2340
29870SOL    HW292053   0.097   4.830   2.750 -0.4656 -1.6958  0.4642
29871SOL     OW92054   6.355   3.207   4.382  0.5084 -0.4286  0.0902
29871SOL    HW192055   6.337   3.160   4.463 -1.9772  0.2653  0.0202
29871SOL    HW292056   6.324   3.147   4.313 -0.2937  0.2309 -0.1378
29872SOL     OW92057   5.817   4.363  10.068 -0.3543  0.1561 -0.0623
29872SOL    HW192058   5.726   4.374  10.096 -0.2516 -1.9625  1.2946
29872SOL    HW292059   5.841   4.276  10.099  1.4008 -0.3224 -2.4973
29873SOL     OW92060   5.890   9.929   8.831 -0.0758 -0.1845 -0.8856
29873SOL    HW192061   5.912  10.019   8.810  1.5403 -0.4556 -0.4959
29873SOL    HW292062   5.975   9.887   8.849 -0.9796 -1.0249  1.8993
29874SOL     OW92063   1.053   1.885   5.282  1.0758  0.7940 -0.3072
29874SOL    HW192064   1.001   1.804   5.279 -0.8766  1.8923  1.4429
29874SOL    HW292065   1.115   1.876   5.210 -0.6622 -1.2119 -1.6882
29875SOL     OW92066  10.162   4.658   0.976  0.0305 -0.0919  0.1139
29875SOL    HW192067  10.087   4.683   0.922 -0.2524 -1.2604 -0.0782
29875SOL    HW292068  10.237   4.664   0.917 -0.4762 -2.9391 -0.9993
29876SOL     OW92069   0.187   3.587   1.575  0.1118  0.3649 -0.2881
29876SOL    HW192070   0.177   3.670   1.528 -0.9890  0.5715  0.2683
29876SOL    HW292071   0.097   3.561   1.596  0.3729 -1.4287 -1.2355
29877SOL     OW92072   1.825   5.207   7.155  0.1778  0.3506 -0.2963
29877SOL    HW192073   1.768   5.156   7.212  1.6392  0.2454  1.1471
29877SOL    HW292074   1.817   5.297   7.188 -0.0304  0.5446 -0.8529
29878SOL     OW92075   9.840   5.230   5.324 -0.1213 -0.5529  0.1678
29878SOL    HW192076   9.935   5.222   5.321 -0.1625 -1.2659  0.6025
29878SOL    HW292077   9.824   5.324   5.334  0.6042 -0.5641  1.7570
29879SOL     OW92078   8.252  10.430   7.295 -0.4431  0.6488 -0.2273
29879SOL    HW192079   8.278  10.354   7.346  1.5959  1.0693 -0.5434
29879SOL    HW292080   8.166  10.455   7.330 -0.8934 -1.4173  0.2531
29880SOL     OW92081   9.469   1.449   3.396  0.8431 -0.2079  0.0219
29880SOL    HW192082   9.470   1.528   3.342  1.2199 -0.1773  0.0764
29880SOL    HW292083   9.438   1.480   3.482  0.0469 -0.2922 -0.2274
29881SOL     OW92084   3.963   9.140   2.217  0.0430 -0.4179  0.0245
29881SOL    HW192085   3.966   9.178   2.130  0.9042 -0.4661  0.0301
29881SOL    HW292086   3.888   9.080   2.214  0.1290 -0.4916 -0.7034
29882SOL     OW92087   6.374   9.890   5.226  0.7874 -0.6816  0.3436
29882SOL    HW192088   6.386   9.985   5.219 -0.1589 -0.6472 -1.6306
29882SOL    HW292089   6.280   9.877   5.213  0.6577 -1.8195  2.1310
29883SOL     OW92090   8.689   5.667   2.574 -0.2814 -0.1354 -0.1858
29883SOL    HW192091   8.724   5.624   2.496  1.4341 -1.2195  1.0960
29883SOL    HW292092   8.618   5.722   2.541 -1.6028 -2.7708 -2.1089
29884SOL     OW92093   4.589   3.674   7.552  0.4216  0.0068 -0.0306
29884SOL    HW192094   4.662   3.722   7.590 -0.6374  1.5114  0.2069
29884SOL    HW292095   4.614   3.582   7.560  1.6185  0.4143  1.4201
29885SOL     OW92096   8.424  10.366   9.710 -0.3652 -0.0961 -0.5744
29885SOL    HW192097   8.466  10.344   9.793 -0.7563 -0.6401 -0.5158
29885SOL    HW292098   8.416  10.283   9.663 -2.3822 -0.2333 -0.1072
29886SOL     OW92099   4.516   1.066   6.541 -0.0301 -0.4279  0.4880
29886SOL    HW192100   4.465   1.015   6.478 -0.2401  1.7549 -1.2502
29886SOL    HW292101   4.588   1.103   6.489 -0.6802  2.1329  1.2795
29887SOL     OW92102   6.342   2.589   4.184 -0.0953 -0.0617 -0.0383
29887SOL    HW192103   6.328   2.577   4.090  0.9588 -2.4699  0.0315
29887SOL    HW292104   6.302   2.673   4.204  0.2247  0.8118 -2.7468
29888SOL     OW92105   8.599   4.802   5.648 -0.7087  0.3480  0.2395
29888SOL    HW192106   8.657   4.728   5.666  0.4671  0.6129 -2.1522
29888SOL    HW292107   8.657   4.878   5.644 -1.7202  1.2224  1.2292
29889SOL     OW92108   5.813   5.925   3.503  0.3655  0.8158  0.6386
29889SOL    HW192109   5.823   5.877   3.585 -0.5307 -1.0857 -0.3070
29889SOL    HW292110   5.728   5.970   3.512  0.8743  1.6909  1.2404
29890SOL     OW92111   0.038   7.215   6.146  0.0822 -0.3621 -0.0339
29890SOL    HW192112   0.050   7.235   6.053 -1.8049 -0.5440 -0.3593
29890SOL    HW292113   0.059   7.297   6.191  0.3050 -0.0603 -0.6747
29891SOL     OW92114   2.437   8.445   5.331  0.2693 -0.2966  0.0366
29891SOL    HW192115   2.436   8.467   5.425 -1.4398 -2.0889  0.4901
29891SOL    HW292116   2.438   8.530   5.287 -0.5501  0.6109  1.6821
29892SOL     OW92117   7.463   2.986   0.686 -0.4263  0.6759 -0.0288
29892SOL    HW192118   7.539   2.949   0.641  0.3913  1.2921  0.8069
29892SOL    HW292119   7.463   3.079   0.661 -0.5284  0.8147  0.4762
29893SOL     OW92120  10.393   2.725   8.346  0.4163 -0.0264  0.3102
29893SOL    HW192121  10.373   2.654   8.407  1.2114  0.5898  1.3079
29893SOL    HW292122  10.396   2.803   8.400  1.1973  0.5229 -0.5056
29894SOL     OW92123   2.586   0.713   2.696 -0.2269 -0.0624  1.0647
29894SOL    HW192124   2.564   0.786   2.638 -0.4373  1.6154  3.1343
29894SOL    HW292125   2.540   0.733   2.778 -0.0331 -2.3816  1.8113
29895SOL     OW92126   6.392  10.448   2.489  0.1366  0.2325  0.5022
29895SOL    HW192127   6.406  10.531   2.535 -0.0631  0.5863 -0.0546
29895SOL    HW292128   6.420  10.467   2.399  2.2498 -0.9606  0.8635
29896SOL     OW92129   1.750   4.274   7.940  0.0580 -0.2451 -0.3342
29896SOL    HW192130   1.819   4.207   7.946 -0.4691 -0.7136  0.8998
29896SOL    HW292131   1.746   4.296   7.847  1.0838 -1.0439 -0.5919
29897SOL     OW92132   1.935   0.026   9.173  0.0094  0.4087  0.2693
29897SOL    HW192133   1.892   0.110   9.185  0.9090  1.2796 -1.9283
29897SOL    HW292134   1.923  -0.020   9.256 -0.6111  2.6468  1.5067
29898SOL     OW92135   3.079   2.332   9.678  0.2435  0.3055 -0.4012
29898SOL    HW192136   2.999   2.347   9.628  0.8388 -0.2016 -1.5471
29898SOL    HW292137   3.112   2.249   9.644  1.2117  0.4747  0.1115
29899SOL     OW92138   0.996   0.026   5.726 -0.0299 -0.4809 -0.1820
29899SOL    HW192139   1.082   0.051   5.761  0.8248 -1.4026 -1.5039
29899SOL    HW292140   1.017  -0.028   5.649 -1.8033 -0.8226 -0.4590
29900SOL     OW92141   3.429   9.014   0.609 -0.3299  0.3102  0.5406
29900SOL    HW192142   3.384   8.955   0.669  0.9786 -0.7256  0.5505
29900SOL    HW292143   3.362   9.040   0.545 -1.5400  0.7994  1.9499
29901SOL     OW92144   3.343   0.170  10.222 -0.1347  0.4622  0.1015
29901SOL    HW192145   3.427   0.126  10.236 -0.6869 -0.2281  1.4666
29901SOL    HW292146   3.293   0.108  10.169  0.5004  1.2566 -1.4701
29902SOL     OW92147   9.723   6.949   8.800 -0.0238  0.2651 -0.3220
29902SOL    HW192148   9.692   6.951   8.709  0.7529 -0.7038 -0.6182
29902SOL    HW292149   9.723   6.857   8.824  0.5046  0.4485  0.4112
29903SOL     OW92150   7.627   5.986   4.184  0.1460  0.5417  0.3472
29903SOL    HW192151   7.654   5.944   4.102 -1.5585 -1.9495  0.9445
29903SOL    HW292152   7.679   5.944   4.252 -0.4402  0.5447  0.8122
29904SOL     OW92153   4.408   4.554   9.228 -0.6522  0.3324 -0.4592
29904SOL    HW192154   4.318   4.585   9.239 -1.7553 -2.8301  0.5230
29904SOL    HW292155   4.455   4.590   9.304 -1.9282 -0.5936  0.8141
29905SOL     OW92156   2.027   0.022   0.514  0.0862 -0.3041  0.1142
29905SOL    HW192157   2.107   0.068   0.489 -0.0527 -0.0868  0.0692
29905SOL    HW292158   1.959   0.089   0.511 -0.0972 -0.4880  0.1571
29906SOL     OW92159   4.134   0.839  10.205  0.4914 -0.2675  0.0603
29906SOL    HW192160   4.068   0.776  10.175  1.0934 -0.4810 -0.8574
29906SOL    HW292161   4.106   0.923  10.168  0.3788 -0.2352  0.2190
29907SOL     OW92162   1.564   3.338   9.240  0.2460 -0.1339  0.7647
29907SOL    HW192163   1.508   3.312   9.166 -0.9589 -0.5142  1.7897
29907SOL    HW292164   1.507   3.334   9.316  0.7377  2.7139  1.4233
29908SOL     OW92165   4.155   0.749   2.472 -0.0287 -0.4505 -0.4604
29908SOL    HW192166   4.164   0.798   2.554 -1.7085 -2.3368  0.9624
29908SOL    HW292167   4.157   0.816   2.404  1.0283  1.2274  1.1183
29909SOL     OW92168   5.655   5.269   1.324 -0.1048  0.2068  0.6627
29909SOL    HW192169   5.632   5.358   1.352  0.8184  0.8055 -0.3971
29909SOL    HW292170   5.708   5.282   1.245 -1.0805 -1.3372 -0.3084
29910SOL     OW92171   8.712   0.143   8.844  0.5089 -0.0635 -0.3895
29910SOL    HW192172   8.629   0.094   8.840  0.5225 -0.1034 -0.1675
29910SOL    HW292173   8.737   0.141   8.936 -0.4470  1.9646 -0.0320
29911SOL     OW92174   5.746   8.662   3.730  0.3452 -0.6691 -0.3447
29911SOL    HW192175   5.696   8.627   3.804  1.2846 -0.1469  0.5658
29911SOL    HW292176   5.686   8.657   3.656 -1.5998  1.2753  0.9759
29912SOL     OW92177   1.656   7.958   1.954 -0.4184 -0.6453 -0.0832
29912SOL    HW192178   1.589   7.916   2.007 -2.0797  1.2447 -0.5688
29912SOL    HW292179   1.656   7.909   1.872 -1.4975 -0.4178 -0.2248
29913SOL     OW92180   5.996   8.443   0.186 -0.2227 -0.3192  0.4775
29913SOL    HW192181   6.038   8.511   0.239  0.5466 -1.4942  1.4347
29913SOL    HW292182   5.917   8.485   0.152  0.9536  1.5120 -0.1870
29914SOL     OW92183   0.593   0.766   4.266 -0.3123  0.2819 -0.4618
29914SOL    HW192184   0.568   0.811   4.347  0.4249  2.2263 -1.2655
29914SOL    HW292185   0.681   0.732   4.284 -1.2373 -1.8271  0.4824
29915SOL     OW92186   4.371   5.611   3.684 -0.5895  0.1393  0.6489
29915SOL    HW192187   4.437   5.616   3.615 -2.1548  0.1136 -0.9424
29915SOL    HW292188   4.389   5.687   3.740 -0.3996  1.2880 -0.8972
29916SOL     OW92189   6.254   2.184   0.410  0.0224 -0.2572 -0.1667
29916SOL    HW192190   6.309   2.188   0.488 -1.7504  1.5970  1.1016
29916SOL    HW292191   6.171   2.146   0.442 -1.0968  1.4898 -0.8454
29917SOL     OW92192   7.207   2.576   7.952 -0.3902 -0.1818  0.7417
29917SOL    HW192193   7.204   2.591   8.047 -0.6047  0.4770  0.6336
29917SOL    HW292194   7.117   2.554   7.928 -0.1283 -1.4527  0.8590
29918SOL     OW92195   2.718   5.840   9.284  0.1988 -0.6635 -0.0123
29918SOL    HW192196   2.803   5.805   9.256 -0.5533 -2.5242 -0.0794
29918SOL    HW292197   2.673   5.765   9.323 -1.0155  0.5455  1.0007
29919SOL     OW92198   7.968   8.649   9.709 -0.0071  0.2508  0.5083
29919SOL    HW192199   8.047   8.702   9.722 -0.4650  1.0391  0.1057
29919SOL    HW292200   7.898   8.712   9.698 -0.5302 -0.4374 -0.2148
29920SOL     OW92201   2.262   2.912   0.177 -0.0973  0.0657 -0.9072
29920SOL    HW192202   2.285   3.004   0.174  0.8879  0.1291  3.0965
29920SOL    HW292203   2.338   2.869   0.216 -1.2395 -2.1441 -0.9426
29921SOL     OW92204   2.689   0.263   3.731 -0.4364 -0.2263  0.0506
29921SOL    HW192205   2.697   0.169   3.749 -1.5248 -0.2734  0.3236
29921SOL    HW292206   2.609   0.289   3.775  0.0588  0.9248  0.2921
29922SOL     OW92207   7.944   0.208   3.434 -0.3413  0.4992  0.0253
29922SOL    HW192208   7.878   0.146   3.407 -1.0807  1.6746 -0.9736
29922SOL    HW292209   7.986   0.236   3.353 -0.7660  2.0825  0.3066
29923SOL     OW92210   5.175   3.334   9.303  0.1999  0.4911 -0.1298
29923SOL    HW192211   5.157   3.361   9.393  0.7526  1.8848 -0.4003
29923SOL    HW292212   5.249   3.274   9.309 -0.6094 -0.4699  0.4438
29924SOL     OW92213   7.226   8.939  10.348  0.0447  0.1223 -0.3277
29924SOL    HW192214   7.260   8.889  10.274 -0.9257 -0.9039 -0.1236
29924SOL    HW292215   7.152   8.886  10.380  1.8502 -0.7681  2.8903
29925SOL     OW92216   4.745   7.641   3.318 -0.2240  0.2672 -0.4428
29925SOL    HW192217   4.727   7.628   3.411 -2.4214 -0.7276 -0.9427
29925SOL    HW292218   4.792   7.724   3.314  0.6549 -0.0714  1.6031
29926SOL     OW92219   7.847   9.021   6.874 -0.4528  0.1745  0.3978
29926SOL    HW192220   7.795   9.097   6.900  0.5967  0.3456  2.1470
29926SOL    HW292221   7.840   9.018   6.779  0.0784  2.9005  0.2040
29927SOL     OW92222   9.966   1.149  10.116  0.1908  0.9647 -0.3165
29927SOL    HW192223  10.000   1.170  10.029  1.9972 -1.1766 -0.2161
29927SOL    HW292224   9.984   1.056  10.126 -0.8992  0.9509  1.9801
29928SOL     OW92225   5.514   7.877  10.044  0.0748  0.3722  0.0615
29928SOL    HW192226   5.464   7.895  10.123 -1.0451 -1.0018 -0.2820
29928SOL    HW292227   5.606   7.882  10.072 -0.2732 -1.5961  1.8676
29929SOL     OW92228   9.897   3.538   2.164  0.5928 -0.3810  0.0826
29929SOL    HW192229   9.882   3.618   2.113  0.2924 -0.1153  0.5827
29929SOL    HW292230   9.942   3.568   2.243 -1.8421 -0.3104  1.5368
29930SOL     OW92231   1.020   5.911   1.963  0.0455  0.2919 -0.2381
29930SOL    HW192232   1.007   5.857   2.041  0.7616  1.0253  0.4018
29930SOL    HW292233   0.934   5.911   1.919  0.2143 -2.0002 -0.6895
29931SOL     OW92234   6.494   1.204   0.898 -0.1293 -0.2326  0.7570
29931SOL    HW192235   6.436   1.128   0.897  0.2959 -0.5671  1.1612
29931SOL    HW292236   6.579   1.169   0.923 -0.3183  0.6409  2.8281
29932SOL     OW92237   3.988  10.143   1.161 -0.4860  0.0312 -0.2302
29932SOL    HW192238   4.072  10.118   1.200 -2.1646 -1.0198  3.1168
29932SOL    HW292239   4.011  10.178   1.075  3.2878 -0.7292  0.2836
29933SOL     OW92240   3.594   3.962   2.372  0.5536  0.0403 -0.4280
29933SOL    HW192241   3.515   3.988   2.326  0.1212 -0.5538 -0.0483
29933SOL    HW292242   3.601   4.024   2.445  0.2618 -0.0830 -0.2898
29934SOL     OW92243  10.224   7.912   3.135 -0.1357  0.0645 -0.6572
29934SOL    HW192244  10.215   8.000   3.096 -0.7024  0.2616 -0.0949
29934SOL    HW292245  10.267   7.860   3.067  0.7852  0.9357 -0.7712
29935SOL     OW92246   8.875   1.428   1.312 -0.6601  0.7871 -0.4102
29935SOL    HW192247   8.902   1.484   1.384 -0.0591  0.3057 -0.2501
29935SOL    HW292248   8.787   1.399   1.335 -0.4963  0.6937  0.0927
29936SOL     OW92249   6.651   6.675   6.056 -0.1225  0.1906  0.1184
29936SOL    HW192250   6.688   6.682   6.143  2.8164  1.9913 -1.1256
29936SOL    HW292251   6.656   6.764   6.020  1.7657 -0.9755 -2.9319
29937SOL     OW92252   4.066   2.733   7.508 -0.2349  0.5714  0.3062
29937SOL    HW192253   4.142   2.680   7.487 -0.6455  0.4956 -1.0462
29937SOL    HW292254   4.046   2.710   7.599  0.4842 -0.4745  0.2159
29938SOL     OW92255   6.892   2.774   6.831 -0.2503 -0.2661 -0.1476
29938SOL    HW192256   6.858   2.685   6.839 -2.6214  0.5805  0.0285
29938SOL    HW292257   6.814   2.828   6.818  1.2406  1.6523 -1.5684
29939SOL     OW92258   2.273   5.391  10.038  0.4136  0.3762  0.3005
29939SOL    HW192259   2.194   5.349  10.003  1.4559 -0.3495 -1.3570
29939SOL    HW292260   2.307   5.328  10.101  1.5774 -1.0880 -1.6525
29940SOL     OW92261   1.151   8.535   9.776 -0.2288 -0.3476 -0.0873
29940SOL    HW192262   1.238   8.531   9.816  0.2419  0.9044 -0.9368
29940SOL    HW292263   1.167   8.542   9.682 -1.2796 -0.9899 -0.3404
29941SOL     OW92264   0.760  10.082   4.932 -0.4239  0.0113 -0.9712
29941SOL    HW192265   0.776  10.114   5.020 -2.8154  0.9256 -0.7995
29941SOL    HW292266   0.764   9.986   4.940  1.6387  0.1038 -0.4080
29942SOL     OW92267   9.601   7.493   1.853  0.8808 -0.2531  0.5194
29942SOL    HW192268   9.598   7.586   1.831 -2.5430 -0.1623  0.8783
29942SOL    HW292269   9.570   7.489   1.944 -0.5957 -1.8519 -0.0103
29943SOL     OW92270   4.754   2.722   3.474  0.1125 -0.6289 -0.3163
29943SOL    HW192271   4.824   2.738   3.537 -0.4681 -1.4606  0.5689
29943SOL    HW292272   4.781   2.643   3.428  0.6901  0.1522 -1.3666
29944SOL     OW92273   0.075   0.592   8.161 -0.0387 -0.1445 -0.5488
29944SOL    HW192274   0.053   0.621   8.249 -0.0738 -1.9760  0.0847
29944SOL    HW292275   0.068   0.671   8.107 -3.7185  0.3493  0.3718
29945SOL     OW92276   3.889   2.585   9.680 -0.0362  0.1083  0.1178
29945SOL    HW192277   3.877   2.636   9.760  1.2893  0.3878  0.1629
29945SOL    HW292278   3.836   2.506   9.694  1.8177 -0.8814  2.2330
29946SOL     OW92279   1.581   4.422   3.819  0.7204  0.0764  0.3713
29946SOL    HW192280   1.517   4.370   3.769 -0.6930  2.3038 -0.2853
29946SOL    HW292281   1.573   4.391   3.909  0.0147 -0.9055 -0.0142
29947SOL     OW92282   4.640   0.675   4.691  0.0577 -0.0032  0.3195
29947SOL    HW192283   4.637   0.675   4.787 -1.4080  0.6907  0.2937
29947SOL    HW292284   4.549   0.667   4.663  0.4427 -0.0157 -1.0231
29948SOL     OW92285   8.039   6.856   4.819 -0.2161 -0.2306 -0.2393
29948SOL    HW192286   8.063   6.801   4.744  1.9354  0.7925 -0.3834
29948SOL    HW292287   8.064   6.944   4.793  0.8999  0.1214  1.7725
29949SOL     OW92288   6.438   9.472   7.147 -0.0924 -0.0448  0.3258
29949SOL    HW192289   6.348   9.445   7.126  0.5488 -0.9852 -1.3350
29949SOL    HW292290   6.493   9.423   7.087  1.6219  0.0141  1.7610
29950SOL     OW92291   0.206   3.985   7.118  0.4520  0.1283  0.2932
29950SOL    HW192292   0.215   4.037   7.038  1.7167 -0.1247  0.2523
29950SOL    HW292293   0.281   4.011   7.172 -0.8074  0.8815  1.7547
29951SOL     OW92294   3.503   9.653   6.038 -0.0009 -0.0840  0.3041
29951SOL    HW192295   3.517   9.585   6.104  1.3419 -0.1471 -0.0138
29951SOL    HW292296   3.416   9.634   6.002  0.5211 -1.9314 -0.0904
29952SOL     OW92297   1.921   9.444   6.142 -0.4212 -0.1571 -0.1641
29952SOL    HW192298   1.895   9.453   6.234  0.9122 -0.3987  0.2610
29952SOL    HW292299   2.003   9.396   6.145 -0.6747 -0.7363 -1.5427
29953SOL     OW92300   2.929   3.297   5.853  0.2380 -0.3491 -0.4479
29953SOL    HW192301   2.883   3.239   5.913  2.3132  0.0523  1.6924
29953SOL    HW292302   2.875   3.298   5.774 -0.3356 -4.4640 -0.2980
29954SOL     OW92303   1.775   1.705   3.472 -0.7859 -0.0470  0.8209
29954SOL    HW192304   1.728   1.774   3.519 -0.8809  1.8872 -1.8525
29954SOL    HW292305   1.824   1.752   3.404 -0.2746 -2.5777 -0.6853
29955SOL     OW92306   5.840   9.309   9.353  0.5989 -0.0329 -0.4536
29955SOL    HW192307   5.804   9.296   9.440 -0.9158 -1.5761 -1.2505
29955SOL    HW292308   5.906   9.378   9.364 -0.0891  0.3488  1.7365
29956SOL     OW92309   5.918   1.842   4.921 -0.0758  0.1749  0.5005
29956SOL    HW192310   5.855   1.915   4.922 -1.3705 -0.8556 -1.0530
29956SOL    HW292311   5.961   1.849   4.836  1.7614  0.6758  1.4173
29957SOL     OW92312   9.050   3.069   2.999 -0.5858 -0.0513 -0.1764
29957SOL    HW192313   8.961   3.085   2.969 -0.6529 -2.0328 -1.1920
29957SOL    HW292314   9.075   2.987   2.957  2.1233  0.9964 -0.8162
29958SOL     OW92315   4.092   5.862   3.817 -0.3181 -0.3243  0.0586
29958SOL    HW192316   4.028   5.926   3.848 -0.2462 -0.1924 -0.0621
29958SOL    HW292317   4.156   5.915   3.768 -0.5783 -0.5603 -0.5539
29959SOL     OW92318  10.119   3.178   9.906 -0.1605  0.2448  0.2942
29959SOL    HW192319  10.059   3.249   9.931  0.9386  0.7382  1.6684
29959SOL    HW292320  10.153   3.145   9.989  0.7895 -0.6169 -0.4194
29960SOL     OW92321   1.518   4.025   1.391  0.3578  0.1620  0.2233
29960SOL    HW192322   1.555   4.079   1.461  1.2789  0.2414 -0.3096
29960SOL    HW292323   1.516   4.082   1.315  0.4148 -0.2657 -0.1011
29961SOL     OW92324   4.725   9.017   9.094 -0.0520  0.1456 -0.3554
29961SOL    HW192325   4.696   9.030   9.003 -1.8570 -0.0271  0.1447
29961SOL    HW292326   4.814   9.051   9.096 -0.0594  0.3801 -2.1364
29962SOL     OW92327   6.549   4.685   4.508  0.1566 -0.3154 -0.7437
29962SOL    HW192328   6.577   4.619   4.572  0.4775  0.9613  0.4701
29962SOL    HW292329   6.624   4.694   4.448  0.9221  0.3794  0.2837
29963SOL     OW92330   8.015  10.438   7.466  0.4723  0.0780  0.3741
29963SOL    HW192331   7.956  10.436   7.391  1.2340 -3.7601 -0.3062
29963SOL    HW292332   7.957  10.448   7.542 -0.8102 -0.8894 -0.4401
29964SOL     OW92333   0.295   1.544   1.819  0.1007  0.2280 -0.3074
29964SOL    HW192334   0.230   1.549   1.890 -0.4932 -2.2008 -0.5804
29964SOL    HW292335   0.246   1.569   1.741  0.3531  1.4031 -0.1124
29965SOL     OW92336   8.768   7.160   9.115 -0.1114 -0.7346  0.2936
29965SOL    HW192337   8.699   7.132   9.175 -0.5220  0.5208  0.4284
29965SOL    HW292338   8.721   7.205   9.044  0.6271  1.4782  1.1399
29966SOL     OW92339   5.969   6.186   4.647  0.0079 -0.1077  0.2319
29966SOL    HW192340   6.039   6.244   4.617 -0.5236  0.9010  0.8717
29966SOL    HW292341   5.961   6.205   4.740  0.8064 -2.2939  0.8082
29967SOL     OW92342   3.458   0.880   9.809  0.5050 -0.4140 -0.7347
29967SOL    HW192343   3.398   0.825   9.858 -0.0675 -0.0591 -1.0294
29967SOL    HW292344   3.422   0.883   9.721 -0.8576  2.3559 -0.1971
29968SOL     OW92345   2.502   3.930   5.574 -0.4561  0.6656 -0.7602
29968SOL    HW192346   2.568   3.997   5.552  0.2608 -0.0801 -0.9513
29968SOL    HW292347   2.520   3.859   5.513 -0.3821 -0.2221  0.2723
29969SOL     OW92348   9.546   0.202   4.541 -0.3393 -0.0423  0.1919
29969SOL    HW192349   9.515   0.231   4.456 -2.3674  1.3261  1.3165
29969SOL    HW292350   9.543   0.107   4.537 -1.4624  0.0211 -0.9148
29970SOL     OW92351   3.122   3.499   1.555  0.3068 -0.1547  0.2638
29970SOL    HW192352   3.082   3.586   1.556  2.4725  0.9518 -0.9794
29970SOL    HW292353   3.164   3.493   1.469  1.2713 -1.9152  0.8103
29971SOL     OW92354   5.777   2.125   3.879 -0.1210 -0.3080 -0.3740
29971SOL    HW192355   5.805   2.193   3.817  0.9501 -0.3275  0.0598
29971SOL    HW292356   5.819   2.045   3.846 -1.7956 -0.8922 -1.1799
29972SOL     OW92357   5.603   5.125   7.990 -0.3003 -0.5036 -0.0932
29972SOL    HW192358   5.678   5.073   8.019  0.5903  0.5157 -0.5067
29972SOL    HW292359   5.642   5.206   7.956 -1.6340  0.4041  0.4706
29973SOL     OW92360   1.133   2.245   2.043 -0.1488  0.1949 -1.0975
29973SOL    HW192361   1.066   2.313   2.055 -0.5492 -0.4740  0.6362
29973SOL    HW292362   1.085   2.169   2.012  0.1170  0.2803 -1.7489
29974SOL     OW92363  10.116   2.897   2.390 -0.2426 -0.3502 -0.6778
29974SOL    HW192364  10.183   2.962   2.410 -0.6062 -0.1008 -0.2334
29974SOL    HW292365  10.143   2.859   2.307 -0.4108  0.9111 -1.3351
29975SOL     OW92366   3.055   5.105   1.818 -0.2379 -0.3914 -0.1511
29975SOL    HW192367   3.030   5.163   1.890 -0.5368 -0.6038 -0.0774
29975SOL    HW292368   3.089   5.163   1.750 -0.7189 -0.1115 -0.1580
29976SOL     OW92369   1.168   2.197   0.932 -0.2840  0.1484 -0.3071
29976SOL    HW192370   1.218   2.276   0.912  1.2676 -0.9358 -0.8237
29976SOL    HW292371   1.222   2.125   0.901 -1.5561 -1.1578  0.3810
29977SOL     OW92372   2.413   4.865   0.142  0.1730  0.2840  0.5380
29977SOL    HW192373   2.334   4.916   0.158  0.9259  1.4239  0.7090
29977SOL    HW292374   2.462   4.869   0.224 -0.0520 -1.2909  0.7788
29978SOL     OW92375   5.156   1.396   0.241 -0.0665  0.5294 -0.1389
29978SOL    HW192376   5.248   1.397   0.266  0.4797  0.7567 -2.0340
29978SOL    HW292377   5.111   1.433   0.317  1.3509  0.1659  0.9300
29979SOL     OW92378   7.603   1.164   4.886 -0.6212  0.1922 -0.1508
29979SOL    HW192379   7.696   1.182   4.875 -0.7741  0.6137 -0.8040
29979SOL    HW292380   7.564   1.181   4.800 -1.2464 -0.3275  0.0166
29980SOL     OW92381   3.433   4.154   9.810  0.2835  0.2997 -0.5478
29980SOL    HW192382   3.428   4.145   9.905  0.3206  2.1356 -0.3370
29980SOL    HW292383   3.513   4.108   9.785  0.3670 -0.0329  0.3162
29981SOL     OW92384   6.756   7.980   9.421  0.6951  0.3141 -0.1514
29981SOL    HW192385   6.829   8.008   9.476  1.2241 -1.9782  0.4563
29981SOL    HW292386   6.798   7.941   9.344  0.0408  0.6746 -0.6999
29982SOL     OW92387   5.504   8.608   2.996  0.4578 -0.2064  0.3573
29982SOL    HW192388   5.441   8.662   2.948 -0.8908 -2.0089  0.0277
29982SOL    HW292389   5.558   8.568   2.928 -1.6352 -2.9889  0.1857
29983SOL     OW92390   9.806   1.570   1.201 -0.3193  0.4167  0.0135
29983SOL    HW192391   9.795   1.476   1.219 -0.5075  0.5804  0.8324
29983SOL    HW292392   9.753   1.586   1.123  2.0708 -0.7154 -1.9666
29984SOL     OW92393   2.018   0.086   4.340  0.1786 -0.3717 -0.0713
29984SOL    HW192394   1.982   0.164   4.382 -1.7654 -1.1072 -0.2499
29984SOL    HW292395   1.972   0.082   4.256  1.1240 -1.0709 -0.5622
29985SOL     OW92396   8.196   5.430   0.570  0.4934 -0.0921 -0.6630
29985SOL    HW192397   8.224   5.505   0.516  0.9296 -0.2076 -0.6035
29985SOL    HW292398   8.125   5.464   0.623  0.0604  0.0279 -1.3064
29986SOL     OW92399  10.395   5.125   4.082 -0.2701 -0.3122  0.1831
29986SOL    HW192400  10.467   5.090   4.030 -0.8564 -0.4274 -0.5683
29986SOL    HW292401  10.356   5.192   4.026 -1.7588 -1.3745 -0.1123
29987SOL     OW92402   0.844   9.920   6.068 -0.3810 -0.1613 -0.2703
29987SOL    HW192403   0.806   9.952   6.150  0.2535 -1.1605  0.4364
29987SOL    HW292404   0.933   9.896   6.091  0.7581  2.1126 -1.8969
29988SOL     OW92405   3.240   3.722   4.526 -0.1007 -0.2399  0.0024
29988SOL    HW192406   3.260   3.658   4.458 -0.3713 -0.4618  0.1324
29988SOL    HW292407   3.163   3.688   4.570 -1.0787  0.8566 -0.8006
29989SOL     OW92408   9.920   6.665   8.699 -0.0664  0.4212 -0.4182
29989SOL    HW192409   9.850   6.699   8.754 -0.9790  0.1346 -1.3910
29989SOL    HW292410   9.996   6.659   8.758 -1.7574 -2.8048  1.7227
29990SOL     OW92411   6.858   1.224   5.362  0.0109  0.1921 -0.1231
29990SOL    HW192412   6.932   1.282   5.383  0.7010 -0.5796 -0.3576
29990SOL    HW292413   6.836   1.246   5.271  1.1184 -0.7775 -0.6528
29991SOL     OW92414   6.672   2.160   9.967 -0.1798  0.6246 -0.4716
29991SOL    HW192415   6.747   2.144   9.910 -1.1612 -1.6473 -1.2286
29991SOL    HW292416   6.678   2.094  10.036 -0.6895  1.3803  0.3326
29992SOL     OW92417   0.914   6.235   5.947  0.3995 -0.1782  0.1474
29992SOL    HW192418   0.987   6.197   5.899  1.4385  1.5247  0.3104
29992SOL    HW292419   0.873   6.160   5.991  1.1598 -1.3591 -1.0652
29993SOL     OW92420   7.523  10.404   4.541  0.9391 -0.5540 -0.4443
29993SOL    HW192421   7.487  10.489   4.566 -1.2417 -1.7950  0.8386
29993SOL    HW292422   7.558  10.419   4.452 -0.6048  1.3344 -0.8045
29994SOL     OW92423   6.031   6.165   3.500  0.2741 -0.4255 -0.3762
29994SOL    HW192424   5.945   6.126   3.517  0.3788 -1.6629 -2.3500
29994SOL    HW292425   6.093   6.100   3.532  0.4523 -0.5475 -0.9526
29995SOL     OW92426   8.453   1.977   7.111  0.0539 -0.3660 -0.0314
29995SOL    HW192427   8.512   1.906   7.136  0.8908  0.6692  1.0728
29995SOL    HW292428   8.383   1.975   7.177 -0.5995 -0.9538 -0.7404
29996SOL     OW92429   8.588   0.711   9.625  0.9593  0.5488 -0.2284
29996SOL    HW192430   8.529   0.696   9.698 -1.0510  2.0575 -1.4308
29996SOL    HW292431   8.560   0.648   9.558  1.1702  0.7857 -0.5444
29997SOL     OW92432   0.335   8.397   3.507 -0.1256 -0.2220 -0.0130
29997SOL    HW192433   0.390   8.469   3.480 -0.7509  0.3159  0.1076
29997SOL    HW292434   0.328   8.407   3.602 -2.9203  1.6081 -0.2937
29998SOL     OW92435   0.386   6.765   6.179  0.1953  0.2123  0.0898
29998SOL    HW192436   0.368   6.846   6.133 -1.7144  0.3606  0.9853
29998SOL    HW292437   0.338   6.773   6.261  1.4311 -1.0908  0.9962
29999SOL     OW92438   7.747   5.403   5.379 -0.5236 -0.2196  0.1055
29999SOL    HW192439   7.775   5.392   5.469  0.2064 -0.5135 -0.1466
29999SOL    HW292440   7.787   5.485   5.351 -0.7123 -0.1501  0.0418
30000SOL     OW92441   1.157   5.568   2.300  0.0247 -0.2705  1.2191
30000SOL    HW192442   1.108   5.638   2.257  0.6307 -0.6804 -0.2001
30000SOL    HW292443   1.091   5.522   2.351 -1.6869 -2.1491 -2.2897
30001SOL     OW92444   6.354   1.996  10.080 -0.3114 -0.5195 -0.3768
30001SOL    HW192445   6.432   1.988  10.135  0.3200 -0.1565 -1.2053
30001SOL    HW292446   6.299   2.061  10.124  1.2634  1.6131 -1.3773
30002SOL     OW92447   4.882   5.610   0.226  0.2814 -0.1076  0.2959
30002SOL    HW192448   4.863   5.703   0.217  0.5241 -0.0545  0.3224
30002SOL    HW292449   4.839   5.584   0.308  0.0169 -0.0735  0.1693
30003SOL     OW92450   7.880   1.656   0.100 -0.1213 -0.6848 -0.0481
30003SOL    HW192451   7.922   1.639   0.184 -0.7769 -0.3357  0.3590
30003SOL    HW292452   7.882   1.751   0.090 -1.1546 -0.6291  0.1662
30004SOL     OW92453   0.015   5.654   2.825 -0.1506 -0.0392 -0.5882
30004SOL    HW192454   0.005   5.749   2.824  0.2883  0.0170 -2.3381
30004SOL    HW292455  -0.066   5.620   2.787 -1.1407 -0.5157  1.7582
30005SOL     OW92456   3.234   7.227  10.464 -0.0070 -0.8323 -0.2973
30005SOL    HW192457   3.168   7.294  10.482  0.1372 -0.9591  0.7996
30005SOL    HW292458   3.318   7.274  10.470 -0.0033 -0.3857 -2.9933
30006SOL     OW92459   5.489   5.273   6.589 -0.7219 -0.4929  0.4953
30006SOL    HW192460   5.509   5.285   6.496  1.5311  0.8335  1.0845
30006SOL    HW292461   5.550   5.205   6.618  1.3980  1.8024  1.7834
30007SOL     OW92462   4.225   9.544   6.505 -0.0889 -0.0197 -0.0927
30007SOL    HW192463   4.249   9.466   6.554 -1.1264 -1.6396 -2.0381
30007SOL    HW292464   4.217   9.613   6.571 -1.8705 -2.1742  2.0805
30008SOL     OW92465   8.253   9.521   2.941  0.0240 -0.0306 -0.0439
30008SOL    HW192466   8.341   9.550   2.920  0.5748 -1.3031  0.4291
30008SOL    HW292467   8.251   9.429   2.914 -1.5552  0.3009 -1.2060
30009SOL     OW92468  10.468   9.214   3.761  0.4131 -0.1004 -0.5532
30009SOL    HW192469  10.553   9.222   3.718 -0.5324  2.3830 -2.1291
30009SOL    HW292470  10.478   9.264   3.842  0.0105  1.7314 -1.5768
30010SOL     OW92471   3.055   4.627   5.986  0.2169 -0.0518 -0.5725
30010SOL    HW192472   3.048   4.542   5.943 -2.0092 -0.0319 -0.3891
30010SOL    HW292473   3.004   4.617   6.067  0.7837  1.1610 -0.0309
30011SOL     OW92474   6.030   3.479   6.073  0.6352  0.5899 -0.3211
30011SOL    HW192475   6.062   3.396   6.109 -1.3390  0.2434  0.7949
30011SOL    HW292476   6.106   3.517   6.029  0.9409 -3.1658 -3.5581
30012SOL     OW92477   1.390   4.136   2.308 -0.7231  0.6624 -0.4335
30012SOL    HW192478   1.345   4.056   2.282 -1.5143  1.4150 -1.4606
30012SOL    HW292479   1.483   4.116   2.297 -0.8715 -0.3424  0.0438
30013SOL     OW92480   4.304   4.958   1.552  0.7109  0.1401  0.4052
30013SOL    HW192481   4.295   5.035   1.496  1.1486 -0.0600  0.0590
30013SOL    HW292482   4.237   4.970   1.619 -0.2691  0.0576 -0.5310
30014SOL     OW92483   3.208   2.766  10.229  0.0741 -0.0240  0.9592
30014SOL    HW192484   3.236   2.718  10.152 -2.1523  0.4623 -0.2455
30014SOL    HW292485   3.162   2.700  10.282 -0.6069  0.1618  0.6151
30015SOL     OW92486   3.505   3.481   8.628 -0.6986 -0.2103  0.2417
30015SOL    HW192487   3.413   3.504   8.622 -0.5512  0.1260 -1.1633
30015SOL    HW292488   3.508   3.387   8.610 -0.8917 -0.5742  1.8946
30016SOL     OW92489   4.601   1.581   2.185 -0.3404 -0.2511  0.2221
30016SOL    HW192490   4.609   1.607   2.093 -2.1096  0.0068  0.0971
30016SOL    HW292491   4.675   1.523   2.201  0.3189  0.1702 -1.1984
30017SOL     OW92492   9.824   1.893   7.409 -0.3071 -0.4311  0.6893
30017SOL    HW192493   9.804   1.820   7.350 -2.2712  0.7397 -0.2033
30017SOL    HW292494   9.920   1.893   7.416 -0.0911 -1.4625 -1.4290
30018SOL     OW92495   4.944   9.392   7.364  0.0946  0.5295 -0.7397
30018SOL    HW192496   4.955   9.423   7.275 -0.9483 -1.1697 -1.5048
30018SOL    HW292497   4.863   9.431   7.394 -0.3915 -0.1520 -1.1347
30019SOL     OW92498   2.099   2.076   2.906  0.7366 -0.2578 -0.0603
30019SOL    HW192499   2.039   2.148   2.926 -2.1188 -2.4733  0.1131
30019SOL    HW292500   2.116   2.035   2.990  2.6268  0.3353 -0.1109
30020SOL     OW92501   5.155   4.393   5.617  0.6596 -0.1846  0.4263
30020SOL    HW192502   5.222   4.409   5.550 -0.7524 -0.0380 -1.0417
30020SOL    HW292503   5.074   4.421   5.575 -0.3073 -0.2508  2.1845
30021SOL     OW92504   7.445   8.279   6.818  0.1294  0.6177  0.0718
30021SOL    HW192505   7.425   8.372   6.825 -0.3142  0.3838  2.7079
30021SOL    HW292506   7.525   8.267   6.869 -0.1044 -0.5257  0.2076
30022SOL     OW92507   0.182   0.181  10.324 -0.2468  0.2568 -0.6716
30022SOL    HW192508   0.253   0.126  10.355 -0.1213  1.0724  0.5350
30022SOL    HW292509   0.104   0.150  10.371 -1.1349 -1.8359 -3.2922
30023SOL     OW92510   0.132   9.472   2.217 -0.1078 -0.1308  0.7683
30023SOL    HW192511   0.063   9.453   2.280 -0.3588 -1.3498  0.1657
30023SOL    HW292512   0.162   9.560   2.239  0.6189 -0.9411  3.3074
30024SOL     OW92513   0.736   6.381   7.085  0.1352  0.1556 -0.2908
30024SOL    HW192514   0.714   6.447   7.151  1.5722  1.5487 -1.1475
30024SOL    HW292515   0.781   6.312   7.135 -0.4257  0.3076  0.4478
30025SOL     OW92516   7.374   0.929   2.418 -0.2287  0.2397 -0.1843
30025SOL    HW192517   7.467   0.945   2.429 -0.4662  0.3742  1.9194
30025SOL    HW292518   7.350   0.977   2.338  1.1433  1.6487  0.2230
30026SOL     OW92519   6.496   4.735   3.245  0.0226 -0.1190  0.2835
30026SOL    HW192520   6.409   4.696   3.238 -0.8969  1.7974  0.6888
30026SOL    HW292521   6.484   4.814   3.297  2.0450  0.1193  0.4896
30027SOL     OW92522   6.394   8.751   4.888  0.2818  0.3538 -0.3066
30027SOL    HW192523   6.411   8.657   4.879  0.7406  0.2068  1.6152
30027SOL    HW292524   6.311   8.765   4.841  0.3115 -0.9663 -0.7976
30028SOL     OW92525   7.173   4.887   1.998 -0.4143  0.3469  0.6157
30028SOL    HW192526   7.088   4.919   2.027  0.6079  2.7361  1.2026
30028SOL    HW292527   7.218   4.965   1.965  2.1926 -0.4829  1.9693
30029SOL     OW92528   8.356   8.057   4.251  0.2531 -0.3249 -0.2500
30029SOL    HW192529   8.308   8.064   4.169  0.6462  0.0518 -0.4514
30029SOL    HW292530   8.435   8.109   4.237  1.1948 -1.7208 -0.2636
30030SOL     OW92531   5.815   1.208   1.742 -0.0561 -0.1274 -0.2571
30030SOL    HW192532   5.738   1.168   1.701  0.6090  1.2183 -3.1394
30030SOL    HW292533   5.885   1.143   1.729  0.3799  0.6763 -2.3607
30031SOL     OW92534   6.594   7.438   0.975 -0.1155  0.7377  0.1577
30031SOL    HW192535   6.618   7.520   1.018 -0.1973  0.6578  0.3567
30031SOL    HW292536   6.612   7.370   1.041 -0.3433  0.6259  0.1045
30032SOL     OW92537   9.539   3.592   4.437  0.2243  0.7990  0.3474
30032SOL    HW192538   9.554   3.499   4.421  2.2568  1.1012  0.2731
30032SOL    HW292539   9.474   3.617   4.372 -0.6851 -0.6295  0.6415
30033SOL     OW92540   5.739   5.878   1.929  0.0973 -0.4273 -0.3210
30033SOL    HW192541   5.719   5.970   1.948 -0.0827 -0.5030 -0.1386
30033SOL    HW292542   5.806   5.882   1.861 -1.4275 -0.1763 -1.8927
30034SOL     OW92543   6.629   0.643   1.863  0.4354  0.4264 -0.5694
30034SOL    HW192544   6.707   0.695   1.882  0.6648 -0.2534  0.3862
30034SOL    HW292545   6.605   0.604   1.947 -2.5638  2.7858 -0.1501
30035SOL     OW92546   7.619   9.563   2.379  0.0161  0.2511  0.5442
30035SOL    HW192547   7.621   9.540   2.472 -0.0738 -0.9860  0.2569
30035SOL    HW292548   7.545   9.623   2.370 -0.5148 -0.3021  1.1299
30036SOL     OW92549   0.074   7.540   7.363 -0.7742  0.4239 -0.0726
30036SOL    HW192550  -0.012   7.546   7.404 -0.4450 -0.9283  0.8742
30036SOL    HW292551   0.132   7.591   7.420 -0.6789  0.1341  0.0913
30037SOL     OW92552   7.190   7.407   2.203 -0.6321 -0.1795  0.2066
30037SOL    HW192553   7.228   7.333   2.250  1.8819 -0.5083 -2.0839
30037SOL    HW292554   7.186   7.379   2.112  0.0222  2.2980 -0.6876
30038SOL     OW92555   4.243   1.396   4.835 -0.0681  0.3005  0.2322
30038SOL    HW192556   4.195   1.315   4.855  3.1263 -2.0408 -0.7083
30038SOL    HW292557   4.177   1.454   4.796 -2.4405 -1.9841  0.5583
30039SOL     OW92558   9.781   9.579   0.449 -0.2519 -0.4446  0.1938
30039SOL    HW192559   9.746   9.534   0.372 -0.4607 -0.6554  0.4134
30039SOL    HW292560   9.703   9.600   0.502 -0.2932  1.2065 -0.4588
30040SOL     OW92561   7.212   7.550   1.232  0.4563 -0.1075 -0.1127
30040SOL    HW192562   7.244   7.576   1.146 -1.6816  1.4413 -0.5256
30040SOL    HW292563   7.252   7.612   1.293  0.3601  0.1094 -0.2699
30041SOL     OW92564   0.177   9.833   1.295 -0.2273  0.4919  0.0862
30041SOL    HW192565   0.172   9.881   1.212  1.9167 -1.5992 -1.4146
30041SOL    HW292566   0.093   9.787   1.301 -0.3169  0.4723 -1.0910
30042SOL     OW92567   4.495   6.542   3.439 -0.0362  0.3132 -0.4226
30042SOL    HW192568   4.562   6.589   3.389 -0.7237  0.9099 -0.7990
30042SOL    HW292569   4.464   6.605   3.504 -0.8584  0.3497 -0.8336
30043SOL     OW92570   1.053   2.244   6.255  0.1477  0.1078 -0.1886
30043SOL    HW192571   1.016   2.326   6.222  0.4323  1.0636  1.7366
30043SOL    HW292572   1.121   2.221   6.190  0.4554  1.7104 -0.4730
30044SOL     OW92573   8.798   1.728   4.278  0.4708  0.3330  0.3082
30044SOL    HW192574   8.728   1.724   4.213  0.7046 -0.5667  0.1037
30044SOL    HW292575   8.815   1.636   4.300  1.5049  0.5545  0.4498
30045SOL     OW92576   3.874  10.426   7.744  0.1970 -0.5184  0.2675
30045SOL    HW192577   3.916  10.451   7.826 -0.7481  1.0554  0.3236
30045SOL    HW292578   3.781  10.436   7.760 -0.0590 -1.2871 -0.6633
30046SOL     OW92579   0.195   7.305   1.954 -0.5084 -0.2029  0.6872
30046SOL    HW192580   0.273   7.307   2.009  0.2471 -0.3656 -0.3377
30046SOL    HW292581   0.160   7.217   1.966  1.0565 -1.1258 -0.9174
30047SOL     OW92582   7.460   5.301   8.245 -0.0324 -0.2679  0.1561
30047SOL    HW192583   7.508   5.358   8.304 -1.0452  1.8339 -0.9337
30047SOL    HW292584   7.382   5.276   8.294 -0.2596  0.4522  0.1725
30048SOL     OW92585   5.161   4.787  10.456 -0.3010  0.0250 -0.1648
30048SOL    HW192586   5.187   4.788  10.549 -0.8352 -2.9774  0.1291
30048SOL    HW292587   5.207   4.711  10.420 -1.4360  0.1388 -1.9413
30049SOL     OW92588   8.463   3.279   3.798 -0.1894  0.2733 -0.1201
30049SOL    HW192589   8.539   3.290   3.855 -1.2081 -0.1357  1.4121
30049SOL    HW292590   8.449   3.184   3.794 -1.4579  0.3842  0.8690
30050SOL     OW92591   4.546   8.407   6.056 -0.2390  0.1303 -0.3598
30050SOL    HW192592   4.477   8.364   6.004  0.0851 -0.5381 -0.2495
30050SOL    HW292593   4.626   8.362   6.030 -0.0915 -0.3568  0.8506
30051SOL     OW92594   5.375   6.690   6.447  0.1655 -0.0402  0.0234
30051SOL    HW192595   5.392   6.741   6.526 -0.6738 -0.5148  0.5289
30051SOL    HW292596   5.456   6.641   6.432  0.4492  0.3189  0.3894
30052SOL     OW92597   0.094   9.670  10.033 -0.0006  0.5019  0.0720
30052SOL    HW192598   0.000   9.690  10.037 -0.5999 -1.6824 -1.2176
30052SOL    HW292599   0.102   9.611   9.958  1.8411 -2.1239  2.1576
30053SOL     OW92600   0.295   0.078   4.461  0.1430 -0.1979  0.3095
30053SOL    HW192601   0.387   0.076   4.437 -0.0562  1.5628 -0.8259
30053SOL    HW292602   0.285   0.157   4.514 -0.3705 -1.4388  2.1281
30054SOL     OW92603   6.292   8.825   6.503  0.4767 -0.5070  0.1260
30054SOL    HW192604   6.385   8.847   6.493  0.3047  0.0230 -0.3359
30054SOL    HW292605   6.293   8.743   6.552  1.2322 -0.9982 -0.6661
30055SOL     OW92606  10.125   2.212   2.825 -0.3296 -0.2185 -0.4365
30055SOL    HW192607  10.054   2.236   2.885  0.2326  0.8461 -0.1870
30055SOL    HW292608  10.205   2.239   2.870  0.2483 -1.3291 -0.7522
30056SOL     OW92609   9.314   1.735   3.064  0.8114 -0.5780 -0.6020
30056SOL    HW192610   9.224   1.704   3.073 -0.0953  2.2326  1.3756
30056SOL    HW292611   9.313   1.787   2.984  0.1028  0.9382  0.3393
30057SOL     OW92612   5.247   8.719   8.436  0.0815  0.1563  0.3713
30057SOL    HW192613   5.328   8.675   8.408 -0.0143  1.2398 -1.8765
30057SOL    HW292614   5.273   8.810   8.449 -0.8142  0.6041 -0.7748
30058SOL     OW92615   0.579   7.603   6.207 -0.4726 -0.1305  0.4704
30058SOL    HW192616   0.581   7.582   6.300  1.9090 -2.5608 -0.0056
30058SOL    HW292617   0.493   7.575   6.178 -1.5963  1.4743  2.0096
30059SOL     OW92618   2.911  10.387   2.199  0.6115 -0.1060 -0.1599
30059SOL    HW192619   2.919  10.438   2.118  2.1642 -0.7400 -0.4418
30059SOL    HW292620   2.985  10.416   2.253  0.2915 -0.5578  0.5288
30060SOL     OW92621   2.936   6.579   6.279 -0.0715  0.8530  0.5249
30060SOL    HW192622   2.853   6.536   6.256  0.3219 -0.0953  0.8422
30060SOL    HW292623   2.979   6.518   6.339  1.2277  0.9446 -0.2748
30061SOL     OW92624   6.154   8.595   6.662  0.6460 -0.6303  0.0861
30061SOL    HW192625   6.095   8.670   6.649  1.4440 -0.1905 -1.2683
30061SOL    HW292626   6.096   8.519   6.669 -0.1847  0.0766  1.4857
30062SOL     OW92627   3.957   0.182   6.801 -0.7162 -0.3464 -0.1692
30062SOL    HW192628   3.958   0.101   6.852  1.5566 -1.0864 -1.2633
30062SOL    HW292629   4.006   0.161   6.721  0.9109  2.3804 -0.0069
30063SOL     OW92630  10.194   4.856   9.135  0.5380  0.3265 -0.2120
30063SOL    HW192631  10.246   4.907   9.073  1.0915  0.2069  0.1484
30063SOL    HW292632  10.136   4.920   9.177 -0.9634  0.1711 -1.9584
30064SOL     OW92633   0.273   6.576   4.321 -0.0625  0.1579  0.3448
30064SOL    HW192634   0.239   6.487   4.326  0.7807 -0.2066 -0.1143
30064SOL    HW292635   0.368   6.564   4.313  0.2205  1.1432  1.9271
30065SOL     OW92636   2.054   5.241   9.939 -0.0684 -0.1332  0.0940
30065SOL    HW192637   2.008   5.159   9.957 -1.8369  0.3364 -1.8995
30065SOL    HW292638   2.092   5.229   9.852  1.9169  0.2632  0.8523
30066SOL     OW92639   5.391   2.869   3.964 -0.0681 -0.5772  0.2305
30066SOL    HW192640   5.415   2.907   3.880  0.0199 -1.0242  0.0523
30066SOL    HW292641   5.314   2.815   3.945 -1.4427  1.0810  0.8468
30067SOL     OW92642   2.628   1.707  10.170  0.4895 -0.0386 -0.2839
30067SOL    HW192643   2.720   1.732  10.174  0.4640 -0.0091  0.1671
30067SOL    HW292644   2.581   1.790  10.178  0.4226 -0.0337 -0.6961
30068SOL     OW92645   8.106   5.724   1.141 -0.3413 -0.6153 -0.4347
30068SOL    HW192646   8.115   5.816   1.117 -1.7464 -0.6972 -1.4052
30068SOL    HW292647   8.137   5.676   1.064  1.2553 -0.9901  0.4084
30069SOL     OW92648   9.643   1.370   9.431  0.1199 -0.0777 -0.1336
30069SOL    HW192649   9.721   1.333   9.391  0.7150  0.3542  0.6006
30069SOL    HW292650   9.675   1.445   9.481 -1.1365  1.8365 -2.0500
30070SOL     OW92651   8.028   0.126   4.216 -0.3486 -0.1709 -0.6729
30070SOL    HW192652   8.066   0.078   4.289  0.8411  1.0322 -0.4741
30070SOL    HW292653   7.968   0.188   4.256 -0.3321 -0.0859 -0.7778
30071SOL     OW92654   9.136   3.596   9.912  0.1097  0.0459 -0.0277
30071SOL    HW192655   9.196   3.670   9.911 -0.3226  0.4150  0.4025
30071SOL    HW292656   9.058   3.628   9.866 -1.0329  0.7125  2.2494
30072SOL     OW92657   6.314   1.573  10.387  0.4561 -0.0659 -0.5474
30072SOL    HW192658   6.345   1.528  10.308  0.4229 -0.8114 -0.1470
30072SOL    HW292659   6.299   1.663  10.359 -2.2207 -0.8877 -2.1314
30073SOL     OW92660   2.246   4.705   8.948 -0.4132 -0.3772 -0.2253
30073SOL    HW192661   2.334   4.741   8.962 -0.3286 -0.3076 -0.9404
30073SOL    HW292662   2.201   4.772   8.897 -1.0079 -0.2447  0.4668
30074SOL     OW92663  10.091   8.222   0.909  0.3702  0.5933  0.7961
30074SOL    HW192664  10.054   8.306   0.882 -2.0155 -0.2732  1.0578
30074SOL    HW292665  10.141   8.192   0.833 -0.8324  1.1453 -0.2538
30075SOL     OW92666   2.132   3.319   4.432 -0.3999  0.2523  0.4843
30075SOL    HW192667   2.143   3.399   4.380 -2.0070 -0.4205 -0.9761
30075SOL    HW292668   2.209   3.266   4.411  0.2889  1.0672  0.8774
30076SOL     OW92669   4.561   3.514   8.163  0.2520 -0.3680  0.0284
30076SOL    HW192670   4.575   3.421   8.144  0.5380 -0.2121 -0.5533
30076SOL    HW292671   4.637   3.558   8.124 -1.0772  0.3597 -1.8455
30077SOL     OW92672   9.443   3.148   5.051  0.6495  0.4267  0.8064
30077SOL    HW192673   9.459   3.061   5.086  1.4975  0.4477  0.5076
30077SOL    HW292674   9.362   3.177   5.094  0.3230 -0.5219  0.8613
30078SOL     OW92675   4.163   4.328   3.427  0.1071 -0.3607  0.2239
30078SOL    HW192676   4.173   4.243   3.384  1.0884 -0.0339 -0.2277
30078SOL    HW292677   4.238   4.379   3.397 -0.2868  0.5591  0.7518
30079SOL     OW92678   4.806   7.413   6.391 -0.3261  0.3975  0.1626
30079SOL    HW192679   4.746   7.477   6.352 -0.4735  0.3202  0.2632
30079SOL    HW292680   4.892   7.455   6.386 -0.5079  0.8468  0.7629
30080SOL     OW92681   8.411  10.248   3.036  0.1570  0.2300 -0.0084
30080SOL    HW192682   8.466  10.177   3.071 -1.3661 -0.5037  0.9869
30080SOL    HW292683   8.364  10.207   2.963 -0.7205  0.1877  0.5655
30081SOL     OW92684   2.478   4.437   4.641  0.2188  0.1728  0.3754
30081SOL    HW192685   2.568   4.422   4.611  1.2230 -1.0574  3.5730
30081SOL    HW292686   2.487   4.498   4.714 -1.3595 -0.9981  1.6120
30082SOL     OW92687   8.418   2.840   6.816  0.1903 -0.3020  0.3381
30082SOL    HW192688   8.496   2.853   6.871 -0.8590  1.2019  1.5556
30082SOL    HW292689   8.453   2.812   6.731  2.0631  0.4043  0.8223
30083SOL     OW92690   0.574  10.382   3.379  0.1519 -0.7396 -0.0128
30083SOL    HW192691   0.644  10.430   3.335  1.2458 -1.3531  0.9983
30083SOL    HW292692   0.494  10.430   3.356  0.8925  0.0038 -1.1533
30084SOL     OW92693  10.046   9.680   7.491 -0.2307  0.5749 -0.0454
30084SOL    HW192694  10.040   9.597   7.444 -0.1023  1.3841 -1.5580
30084SOL    HW292695  10.130   9.676   7.537 -0.4724 -0.3386  0.3310
30085SOL     OW92696   5.888   7.943   2.906  0.1974  0.0072  0.3113
30085SOL    HW192697   5.865   7.960   2.815 -3.1256  0.1561  1.0614
30085SOL    HW292698   5.900   8.029   2.945  1.1440 -0.0433  0.1553
30086SOL     OW92699   8.160   0.724   5.120 -0.3513 -0.0045 -0.1740
30086SOL    HW192700   8.165   0.754   5.029  0.8422 -1.2516 -0.5519
30086SOL    HW292701   8.194   0.798   5.171  0.1519  0.2470 -0.8507
30087SOL     OW92702   9.554   1.551   8.092 -0.5081  0.4314 -0.0547
30087SOL    HW192703   9.586   1.537   8.181 -1.2260 -0.9410  0.0095
30087SOL    HW292704   9.460   1.533   8.097 -0.2645 -1.5847 -1.4505
30088SOL     OW92705   9.977   4.731  10.351 -0.2108 -0.2909  0.1048
30088SOL    HW192706  10.031   4.780  10.413 -1.7211 -0.0919  1.3486
30088SOL    HW292707   9.979   4.641  10.383  0.9304 -0.6829 -0.9983
30089SOL     OW92708   2.945   1.563   2.341  0.4191  0.1730 -0.1348
30089SOL    HW192709   2.987   1.563   2.427 -0.4575  0.8601  0.2961
30089SOL    HW292710   2.853   1.582   2.358  0.2087  0.2026 -1.2142
30090SOL     OW92711   7.219   1.971   6.288 -0.5527 -0.2931  0.2218
30090SOL    HW192712   7.312   1.966   6.266 -0.0844  0.8292  1.7674
30090SOL    HW292713   7.181   2.025   6.218 -0.3048 -1.6724 -1.0362
30091SOL     OW92714   1.140   8.271   6.661  0.2863  0.0546  0.3953
30091SOL    HW192715   1.208   8.298   6.598 -1.2059  0.7578 -0.9763
30091SOL    HW292716   1.075   8.341   6.658 -1.1304 -1.1927  0.6824
30092SOL     OW92717   0.229   5.791   8.460  0.1653  0.0650 -0.0328
30092SOL    HW192718   0.194   5.822   8.543  0.0142 -0.2122  0.0088
30092SOL    HW292719   0.300   5.732   8.485 -0.1736 -0.3726 -0.0865
30093SOL     OW92720   8.330   0.475   6.212 -0.6467 -0.1007 -0.5262
30093SOL    HW192721   8.360   0.385   6.210  0.8786  0.3470  0.2203
30093SOL    HW292722   8.237   0.470   6.237 -0.5133 -1.4336 -0.2569
30094SOL     OW92723   9.436   8.295   0.014 -0.0793  0.0161 -0.6803
30094SOL    HW192724   9.530   8.282  -0.001 -0.0565 -0.3504 -0.2341
30094SOL    HW292725   9.398   8.288  -0.074  0.2512 -0.3926 -0.8003
30095SOL     OW92726   9.165   2.951   5.304 -0.3098 -0.3456 -0.1369
30095SOL    HW192727   9.164   3.003   5.384  1.8281  1.8788 -1.4136
30095SOL    HW292728   9.094   2.988   5.251  0.0479  0.0690 -0.3332
30096SOL     OW92729   1.346  10.314   9.552 -0.2030 -0.2514  0.2865
30096SOL    HW192730   1.320  10.395   9.509 -1.2955 -0.2699  0.9019
30096SOL    HW292731   1.323  10.245   9.489 -0.5642 -0.1834  0.3440
30097SOL     OW92732   5.763   2.866   8.093  0.0992 -0.7217  0.3227
30097SOL    HW192733   5.783   2.801   8.025  0.3594 -0.3933  0.0797
30097SOL    HW292734   5.674   2.844   8.122 -0.5507 -0.0854 -1.0622
30098SOL     OW92735  10.256   3.724   9.081 -0.1792  0.1808 -0.3216
30098SOL    HW192736  10.282   3.725   8.989  0.8520  0.5471 -0.0411
30098SOL    HW292737  10.189   3.793   9.087 -2.6489 -1.9720 -1.4140
30099SOL     OW92738   4.293   0.130   5.035 -0.8447  0.2936  0.1761
30099SOL    HW192739   4.241   0.052   5.017  3.3932 -2.5571 -1.4272
30099SOL    HW292740   4.306   0.170   4.949  2.0335 -0.9706 -0.0840
30100SOL     OW92741   2.587   9.085   3.954  0.0991  0.1267  0.4319
30100SOL    HW192742   2.566   9.165   3.905 -1.3912  0.3654  1.4025
30100SOL    HW292743   2.537   9.093   4.035  1.5233 -0.8449  1.4599
30101SOL     OW92744   1.463   5.335   8.823 -0.2629 -0.1636  0.3837
30101SOL    HW192745   1.408   5.410   8.799 -0.6595 -0.0468  1.6265
30101SOL    HW292746   1.491   5.299   8.739 -0.9539  0.7231 -0.2469
30102SOL     OW92747   8.225   3.963   1.305  0.0793  0.2544  0.1580
30102SOL    HW192748   8.214   4.055   1.328  0.0968  0.7308 -1.5498
30102SOL    HW292749   8.162   3.916   1.359 -0.3265  1.3273  0.6427
30103SOL     OW92750   8.380   8.715   1.767 -0.0595 -0.2771 -0.4763
30103SOL    HW192751   8.429   8.728   1.849  0.1876 -0.5754 -0.5763
30103SOL    HW292752   8.407   8.629   1.736 -1.2270 -0.7863 -0.1345
30104SOL     OW92753   6.804   5.045   1.990  0.3494 -0.1070 -0.1664
30104SOL    HW192754   6.841   4.959   1.968  0.1902  0.0967 -1.3079
30104SOL    HW292755   6.806   5.048   2.085  1.3380 -0.9506 -0.1355
30105SOL     OW92756   6.796   9.296   6.939  0.0479  0.2909 -0.5357
30105SOL    HW192757   6.766   9.213   6.976  0.6072  0.3920  0.1634
30105SOL    HW292758   6.828   9.273   6.852 -1.4650  0.0826 -1.0686
30106SOL     OW92759   1.904   9.414   4.759 -0.0050 -0.2799 -0.2804
30106SOL    HW192760   1.829   9.356   4.743  0.3577 -1.4125  1.7379
30106SOL    HW292761   1.886   9.451   4.846  1.2788  0.2461 -0.2257
30107SOL     OW92762   9.341   7.414   7.582  0.0621  0.3039 -0.1501
30107SOL    HW192763   9.249   7.393   7.567 -0.8013  3.1091  0.5253
30107SOL    HW292764   9.340   7.472   7.658  2.5738 -0.6465  0.7046
30108SOL     OW92765   3.656   6.707   3.881 -0.1344 -0.2216 -0.4791
30108SOL    HW192766   3.702   6.625   3.864  0.0459  0.1538 -1.9468
30108SOL    HW292767   3.581   6.682   3.935 -0.6847 -1.5285 -1.7918
30109SOL     OW92768   1.192   5.951   5.401 -0.3439  0.2433 -0.6662
30109SOL    HW192769   1.106   5.923   5.432  0.0829 -0.3444  0.0245
30109SOL    HW292770   1.174   6.005   5.324 -1.3642  0.7957 -0.0547
30110SOL     OW92771   1.040   7.472   0.110 -0.4821 -0.1428 -0.3047
30110SOL    HW192772   0.961   7.515   0.078  0.1937  0.7535 -0.8017
30110SOL    HW292773   1.013   7.382   0.129 -1.3100 -0.2236 -1.7474
30111SOL     OW92774   6.015   6.363   2.643 -0.9286  0.3723  0.3495
30111SOL    HW192775   6.091   6.392   2.693 -0.4038  0.1298 -0.2956
30111SOL    HW292776   5.977   6.293   2.697  0.3931 -0.7909 -0.1792
30112SOL     OW92777   3.493   6.464   3.944  0.1247 -0.1672  0.1915
30112SOL    HW192778   3.451   6.391   3.990 -0.1859 -0.2986 -0.3047
30112SOL    HW292779   3.467   6.542   3.994  0.1090 -0.3511  0.4713
30113SOL     OW92780   4.649   5.146   4.108  0.4606 -0.0096 -0.0217
30113SOL    HW192781   4.659   5.116   4.199  0.7736  2.3801  0.8109
30113SOL    HW292782   4.723   5.107   4.062  0.3670 -1.1745  0.7629
30114SOL     OW92783   3.794   8.852   0.222  0.3415  0.5846  0.2156
30114SOL    HW192784   3.846   8.925   0.187  0.6445  0.8574  1.1729
30114SOL    HW292785   3.787   8.872   0.316 -1.1624  0.3361  0.1755
30115SOL     OW92786   4.906   0.796   0.391  0.0896 -0.4503  0.0449
30115SOL    HW192787   4.997   0.776   0.416 -0.2073 -0.9502  0.7523
30115SOL    HW292788   4.899   0.764   0.301  0.2651 -1.5929  0.4089
30116SOL     OW92789   8.241   6.253   3.843 -0.5122  0.0986  0.1875
30116SOL    HW192790   8.178   6.281   3.910  0.6602  2.1705  0.4968
30116SOL    HW292791   8.326   6.259   3.885  0.1300 -0.0463 -1.0297
30117SOL     OW92792  10.349   0.649   2.801 -0.0275  0.0790 -1.0616
30117SOL    HW192793  10.404   0.594   2.857  1.2886  1.2528 -1.1451
30117SOL    HW292794  10.409   0.715   2.766 -1.5370  1.5549 -0.9919
30118SOL     OW92795   5.527   8.231   0.820  0.6145  0.7183 -0.4784
30118SOL    HW192796   5.521   8.155   0.762 -0.0481  0.4191 -0.0388
30118SOL    HW292797   5.512   8.195   0.908  0.6054  1.3093 -0.2330
30119SOL     OW92798   6.627   4.497   3.280 -0.5058 -0.0150 -0.4187
30119SOL    HW192799   6.635   4.438   3.205  0.6473 -0.7912  0.2860
30119SOL    HW292800   6.580   4.573   3.246  0.7236  0.0203 -2.1536
30120SOL     OW92801   8.501   9.014   6.481 -0.2128  0.0880  0.0156
30120SOL    HW192802   8.494   9.025   6.387  0.7671 -1.8063 -0.3190
30120SOL    HW292803   8.423   8.966   6.507 -0.6395  0.8861  0.2364
30121SOL     OW92804   6.177   0.780   6.912  0.1898 -0.6613  0.1836
30121SOL    HW192805   6.086   0.753   6.906 -0.0298  0.3535 -1.7155
30121SOL    HW292806   6.175   0.875   6.905  1.4261 -0.6565 -0.4203
30122SOL     OW92807   7.035   9.990   8.319 -0.0165 -0.4238 -0.5188
30122SOL    HW192808   7.008   9.931   8.390 -4.3443  3.4305  1.5933
30122SOL    HW292809   6.986   9.959   8.243  0.7753 -1.7111 -0.5312
30123SOL     OW92810   2.551   0.776   8.960  0.1046 -0.5929  0.0601
30123SOL    HW192811   2.613   0.776   9.033  1.4065  0.2177 -1.0053
30123SOL    HW292812   2.528   0.867   8.947  1.1711 -0.5198 -1.5629
30124SOL     OW92813   1.333   4.026  10.166  0.5198 -0.1513 -0.1640
30124SOL    HW192814   1.416   4.028  10.118 -0.1650 -0.9329 -1.4602
30124SOL    HW292815   1.277   4.088  10.119  0.2469  0.0924  0.4705
30125SOL     OW92816   1.544   5.180  10.016  0.3160  0.4110 -0.0277
30125SOL    HW192817   1.607   5.112   9.989  1.6545  1.3962  0.4892
30125SOL    HW292818   1.461   5.133  10.026  0.8727 -0.8695 -1.0867
30126SOL     OW92819   5.221   8.360   1.943  0.3666  0.1908 -0.2522
30126SOL    HW192820   5.290   8.326   2.001  0.9282  0.6571 -0.6295
30126SOL    HW292821   5.204   8.289   1.881  1.4393  0.5192 -0.9590
30127SOL     OW92822   0.235   3.920   9.786  0.0865 -0.4041 -0.0190
30127SOL    HW192823   0.253   3.853   9.852 -3.4963 -1.1970  0.3510
30127SOL    HW292824   0.289   3.895   9.711  0.5612 -2.3855  0.9282
30128SOL     OW92825   1.428   0.733   4.939 -0.4353  0.4952  0.2659
30128SOL    HW192826   1.515   0.695   4.952 -0.3963  0.8323  1.0022
30128SOL    HW292827   1.368   0.658   4.939 -0.2941  0.3806  1.1157
30129SOL     OW92828   5.351   8.771   0.115  0.1944 -0.7266 -0.2483
30129SOL    HW192829   5.313   8.689   0.082 -0.7391 -0.5105  0.2501
30129SOL    HW292830   5.282   8.836   0.101 -0.6988 -0.8028  2.9768
30130SOL     OW92831  10.325   9.706   7.611  0.1602 -0.4596 -0.5579
30130SOL    HW192832  10.409   9.693   7.566 -0.5582 -2.5187 -1.4014
30130SOL    HW292833  10.344   9.688   7.703  0.6941 -0.6258 -0.6978
30131SOL     OW92834   0.912   9.375   4.761  0.3460 -0.0902  0.1555
30131SOL    HW192835   0.834   9.409   4.718 -0.0722 -1.3848 -0.1703
30131SOL    HW292836   0.984   9.400   4.703 -0.1660 -1.4778 -1.1595
30132SOL     OW92837   9.326   4.397   4.729 -0.9044 -0.0594 -0.1186
30132SOL    HW192838   9.337   4.355   4.644 -1.0706 -1.2010  0.4014
30132SOL    HW292839   9.238   4.373   4.757 -1.0077  0.6613  0.1903
30133SOL     OW92840  10.109   0.429   5.680  0.5732 -0.1004 -0.5361
30133SOL    HW192841  10.153   0.513   5.671  0.5804 -0.2172 -1.6814
30133SOL    HW292842  10.020   0.444   5.648  0.2026 -0.2283  0.4113
30134SOL     OW92843   0.361   8.980   6.322  0.1617 -0.0738  0.4558
30134SOL    HW192844   0.355   8.885   6.311  3.0867 -0.3921  0.7228
30134SOL    HW292845   0.343   9.016   6.236  0.7413 -1.0093 -0.0693
30135SOL     OW92846   0.604   0.357   4.632  0.2600  0.5465 -0.0202
30135SOL    HW192847   0.690   0.366   4.675  0.4015 -0.4675 -0.0780
30135SOL    HW292848   0.541   0.357   4.704  0.3850  0.2707  0.0888
30136SOL     OW92849   7.669   2.827   5.961 -0.7258  0.2431 -0.3710
30136SOL    HW192850   7.589   2.795   5.918 -0.6433 -0.2470 -0.1663
30136SOL    HW292851   7.705   2.891   5.900 -0.2023 -0.9917 -1.3927
30137SOL     OW92852   6.511   8.459   5.899 -0.0256 -0.2185  0.6022
30137SOL    HW192853   6.494   8.379   5.849  2.7843 -0.2362 -0.5158
30137SOL    HW292854   6.478   8.530   5.843  3.0680 -0.2409 -1.4894
30138SOL     OW92855   7.486   6.536   3.599  0.3171  0.1849  0.5448
30138SOL    HW192856   7.401   6.510   3.634  0.1607 -1.5454 -0.9854
30138SOL    HW292857   7.466   6.579   3.516  0.8608  1.2079  0.9319
30139SOL     OW92858   5.059   2.928   4.719 -0.5185  0.2110 -0.4761
30139SOL    HW192859   5.132   2.986   4.695  0.4932 -0.5911  0.5206
30139SOL    HW292860   4.982   2.968   4.679  0.0162  2.5979  0.6849
30140SOL     OW92861   0.963   5.273  10.063 -0.3193  0.0706  0.7143
30140SOL    HW192862   1.049   5.293  10.099 -0.7831  2.4673  0.6371
30140SOL    HW292863   0.912   5.353  10.077 -1.7487 -0.3695 -1.5677
30141SOL     OW92864   9.326   0.845   6.402  0.4877  0.3361 -0.4316
30141SOL    HW192865   9.285   0.848   6.488  0.2235 -0.1035 -0.5392
30141SOL    HW292866   9.274   0.904   6.348  0.2076  0.0509 -0.4762
30142SOL     OW92867   9.533   2.988  10.450  0.3966 -0.0661  0.2867
30142SOL    HW192868   9.499   2.903  10.475  0.1179  0.3656  1.4153
30142SOL    HW292869   9.467   3.050  10.480  0.7561  0.5790 -0.2200
30143SOL     OW92870   7.034   0.613   6.132  0.4304  0.0050  0.0610
30143SOL    HW192871   6.960   0.672   6.145 -0.0948 -0.4225 -0.9374
30143SOL    HW292872   7.063   0.592   6.221 -0.0894  0.8567  0.4464
30144SOL     OW92873   9.241   3.551   0.180 -0.2454 -0.1460  0.6025
30144SOL    HW192874   9.177   3.516   0.243  0.9591 -1.4820  1.1208
30144SOL    HW292875   9.322   3.504   0.199  1.1542  2.0579  0.4822
30145SOL     OW92876   3.014   4.683   7.075 -0.1378 -0.3110 -0.3658
30145SOL    HW192877   2.945   4.658   7.013  0.6307 -3.8568 -0.0135
30145SOL    HW292878   3.004   4.621   7.148  2.3029  0.2447  0.5312
30146SOL     OW92879   6.653   4.087   4.068  0.3679  0.1172  0.2408
30146SOL    HW192880   6.738   4.058   4.036  0.9247 -0.4058  2.0345
30146SOL    HW292881   6.668   4.175   4.100  0.2009  0.0837  0.4169
30147SOL     OW92882  10.453   4.695   6.946 -0.7063  0.5174 -0.1069
30147SOL    HW192883  10.418   4.697   6.857  0.9033 -1.1760 -0.8785
30147SOL    HW292884  10.542   4.659   6.935 -0.6541 -0.2426  2.2248
30148SOL     OW92885   4.487  10.250   6.167 -0.2581  0.3781  0.2934
30148SOL    HW192886   4.564  10.247   6.111  0.2321 -0.2562  0.9811
30148SOL    HW292887   4.453  10.161   6.167 -0.9017  0.6173  0.1268
30149SOL     OW92888   9.932   7.557   7.714  0.0024  0.0500 -0.1678
30149SOL    HW192889   9.892   7.635   7.675  1.9189  0.6538 -1.0725
30149SOL    HW292890   9.860   7.511   7.756 -1.4189  1.6098 -0.7934
30150SOL     OW92891  10.093  10.273   3.955  0.1307 -0.5422 -0.0298
30150SOL    HW192892  10.118  10.357   3.915 -2.1381  0.0384 -0.3451
30150SOL    HW292893  10.175  10.239   3.990  1.4966  0.8433 -1.6608
30151SOL     OW92894   4.690   4.032   0.717 -0.2578 -0.5244 -0.1912
30151SOL    HW192895   4.733   3.986   0.789 -0.7194  1.2531  1.2959
30151SOL    HW292896   4.597   4.033   0.741 -0.3070  0.8215 -0.3588
30152SOL     OW92897   8.781   4.138   9.731  0.3170  0.2037  0.0523
30152SOL    HW192898   8.748   4.067   9.787 -0.1334  1.4745  1.4599
30152SOL    HW292899   8.703   4.187   9.706  0.6821  0.5639 -0.4002
30153SOL     OW92900   7.506   5.109   0.703 -0.8630  0.3934  0.1277
30153SOL    HW192901   7.591   5.102   0.659 -0.0785  1.2939  1.4330
30153SOL    HW292902   7.477   5.019   0.712  0.5844 -0.0364  0.8130
30154SOL     OW92903   4.136   4.089   7.947  0.0079 -0.0348  0.4514
30154SOL    HW192904   4.194   4.090   7.871 -1.0268  0.5133 -0.3527
30154SOL    HW292905   4.141   4.178   7.982 -0.5645  0.0892  0.2147
30155SOL     OW92906   6.349   6.828   2.597 -0.4058 -0.0077  0.3896
30155SOL    HW192907   6.436   6.823   2.557 -0.5340 -2.2824  0.2596
30155SOL    HW292908   6.365   6.828   2.691 -0.2313 -0.2549  0.3622
30156SOL     OW92909   5.661   7.627   1.782 -0.0866 -0.5973 -0.0031
30156SOL    HW192910   5.588   7.664   1.831 -0.6145 -1.0877 -0.3995
30156SOL    HW292911   5.667   7.536   1.812  0.0529 -0.6932 -0.3130
30157SOL     OW92912   6.837   7.929   4.513  0.3588 -0.9992  0.2700
30157SOL    HW192913   6.925   7.955   4.539 -0.3676  1.3651  0.5966
30157SOL    HW292914   6.821   7.848   4.560  2.2622 -1.3882  0.3480
30158SOL     OW92915   3.017   9.680   6.751  0.5483 -0.0959 -0.2902
30158SOL    HW192916   3.022   9.594   6.709 -2.4573 -0.8840  0.7243
30158SOL    HW292917   2.930   9.713   6.728  0.3563  1.1975  1.9946
30159SOL     OW92918   8.272   6.652   3.238 -0.1873  0.8386  0.1192
30159SOL    HW192919   8.342   6.685   3.181 -0.9815  2.1581 -0.1284
30159SOL    HW292920   8.230   6.730   3.273 -1.2028  0.0677  0.6946
30160SOL     OW92921   6.269   0.537   7.592  0.2320 -0.0856 -0.6295
30160SOL    HW192922   6.267   0.468   7.527  1.8835 -0.3500 -0.4466
30160SOL    HW292923   6.292   0.616   7.543 -3.9709  0.9724 -1.2705
30161SOL     OW92924   8.849   3.238   6.665 -0.1461 -0.5481  0.2331
30161SOL    HW192925   8.911   3.227   6.737  0.5287 -0.3524 -0.3036
30161SOL    HW292926   8.774   3.183   6.690  0.0663 -0.4732  1.0818
30162SOL     OW92927   8.259   6.978   8.155 -0.2372  0.0400 -0.5748
30162SOL    HW192928   8.173   7.019   8.142  0.2726  1.4878  0.3720
30162SOL    HW292929   8.307   6.999   8.075 -0.5591 -0.2696 -0.8559
30163SOL     OW92930   1.793   1.061   2.485 -0.8394 -0.1466  0.1932
30163SOL    HW192931   1.710   1.013   2.488 -1.6198  1.1617  1.4327
30163SOL    HW292932   1.838   1.036   2.566 -0.8080  0.4188  0.3569
30164SOL     OW92933   0.554   1.451   8.693  0.5130  0.5686 -0.3973
30164SOL    HW192934   0.538   1.480   8.783 -2.1755 -2.8180  0.4538
30164SOL    HW292935   0.623   1.385   8.701 -0.3028 -0.3370 -0.6218
30165SOL     OW92936   3.434  10.291   7.523 -0.7449 -0.4335  0.0909
30165SOL    HW192937   3.379  10.255   7.453  0.1159 -1.3777 -0.1138
30165SOL    HW292938   3.443  10.384   7.500 -2.2519 -0.2505  0.1439
30166SOL     OW92939  10.170   7.420   6.265 -0.1696 -0.0520 -0.4530
30166SOL    HW192940  10.172   7.480   6.339  1.8208 -0.1403 -0.3640
30166SOL    HW292941  10.131   7.470   6.194  0.9760  1.2037 -0.2393
30167SOL     OW92942   4.831   3.524   2.829 -0.3942 -0.4286  0.2674
30167SOL    HW192943   4.828   3.600   2.770 -0.7704  0.1511  1.0148
30167SOL    HW292944   4.866   3.454   2.775  1.9987  0.7794  0.0981
30168SOL     OW92945   6.472   6.920   6.986 -0.0370 -0.1163 -0.2769
30168SOL    HW192946   6.463   6.844   7.042 -0.4866  0.5631  0.5941
30168SOL    HW292947   6.455   6.887   6.898  0.4025 -1.1379  0.0041
30169SOL     OW92948   3.646   3.514   0.010 -0.1146 -0.5029  0.0855
30169SOL    HW192949   3.584   3.465   0.063 -0.0436 -0.0460  0.5963
30169SOL    HW292950   3.608   3.513  -0.078 -0.5683 -0.6903  0.2800
30170SOL     OW92951   8.008   0.541   7.185 -0.5402  0.4883  0.2193
30170SOL    HW192952   7.998   0.491   7.266  0.4733 -0.3364 -0.1532
30170SOL    HW292953   8.083   0.599   7.201  0.8581 -0.9830 -0.7427
30171SOL     OW92954   3.847  10.277   9.717 -0.5910 -0.0633 -0.2669
30171SOL    HW192955   3.931  10.279   9.671 -0.2586 -0.2617  0.3225
30171SOL    HW292956   3.844  10.359   9.765 -0.7761 -0.0161 -0.3592
30172SOL     OW92957   6.464   7.779   6.489  0.2754  0.0936 -0.0282
30172SOL    HW192958   6.397   7.845   6.471 -0.2740 -0.5017 -0.1893
30172SOL    HW292959   6.416   7.697   6.496  0.3047  0.2085  4.3058
30173SOL     OW92960   3.638   3.434   6.868 -0.3123 -0.3188 -0.4063
30173SOL    HW192961   3.717   3.422   6.922 -1.7179  0.1063  1.8517
30173SOL    HW292962   3.597   3.348   6.866 -0.1826 -0.3762 -1.0099
30174SOL     OW92963  10.101   0.794   2.835  0.2666  0.5856 -0.3165
30174SOL    HW192964  10.079   0.706   2.864  1.5901  1.0928  2.4928
30174SOL    HW292965  10.181   0.783   2.784 -0.7505 -0.0308 -1.8558
30175SOL     OW92966   8.999   9.809   6.369  0.6000 -0.1288 -0.3871
30175SOL    HW192967   8.973   9.828   6.459  3.0387  1.1363  0.1437
30175SOL    HW292968   8.947   9.868   6.315  0.5329  0.5180  0.3782
30176SOL     OW92969   6.172   1.008   9.682  0.6574  0.3299  0.0464
30176SOL    HW192970   6.143   1.096   9.658  3.0795  0.8580 -1.3754
30176SOL    HW292971   6.224   1.020   9.762  0.5152  0.0900  0.1787
30177SOL     OW92972   6.755   3.210   1.003 -0.2247  0.6327 -0.3780
30177SOL    HW192973   6.699   3.135   1.019 -0.3326  0.8882  0.4898
30177SOL    HW292974   6.739   3.269   1.077 -0.3106  1.6169 -1.1467
30178SOL     OW92975  10.425   2.917   9.925 -0.6233 -0.0093  0.0376
30178SOL    HW192976  10.414   2.993   9.868  1.2729 -1.0086 -1.8066
30178SOL    HW292977  10.389   2.844   9.874 -0.7142 -0.6340  0.9796
30179SOL     OW92978   8.221   2.022   3.396 -0.0563  0.1047 -0.4396
30179SOL    HW192979   8.277   2.094   3.369 -0.4253  0.8030  0.5902
30179SOL    HW292980   8.132   2.052   3.377 -0.5115  1.4311  3.0527
30180SOL     OW92981   5.023   0.961   4.520 -0.3415  0.1030  0.4022
30180SOL    HW192982   4.930   0.941   4.532 -0.0622 -1.8495 -0.2775
30180SOL    HW292983   5.067   0.905   4.584  0.3892  0.5153  0.2618
30181SOL     OW92984   5.146   6.667   8.963 -0.3018  0.0343  0.3675
30181SOL    HW192985   5.166   6.752   8.923  0.8410 -0.0439  0.7593
30181SOL    HW292986   5.054   6.676   8.991 -0.5286  0.7548 -0.5429
30182SOL     OW92987   8.917   8.890   3.934  0.0150 -0.0763 -0.0168
30182SOL    HW192988   8.902   8.805   3.894 -0.4920  0.1489 -0.3108
30182SOL    HW292989   8.832   8.934   3.930  0.8565  1.5317 -2.3972
30183SOL     OW92990   6.320   9.585   3.522  0.2739  0.4927 -0.1639
30183SOL    HW192991   6.404   9.631   3.532 -0.1931  1.2719  0.2357
30183SOL    HW292992   6.341   9.510   3.465  1.6271 -0.3564  1.3574
30184SOL     OW92993   0.275   6.244   6.035 -0.3459 -0.0068 -0.2013
30184SOL    HW192994   0.229   6.241   6.118  0.1332 -1.4401  0.0467
30184SOL    HW292995   0.251   6.163   5.991  0.0414  0.3520 -1.1125
30185SOL     OW92996   3.435   7.611   6.443 -0.2979 -0.5603  0.2348
30185SOL    HW192997   3.398   7.655   6.367  1.8412 -0.5346 -0.8578
30185SOL    HW292998   3.518   7.656   6.460 -0.6038 -0.7259  2.4478
30186SOL     OW92999   5.883   5.765   0.654 -0.3866 -0.0385 -0.0471
30186SOL    HW193000   5.838   5.742   0.572  0.1021 -0.5795 -0.1728
30186SOL    HW293001   5.915   5.854   0.640 -0.2284 -0.1609 -0.4858
30187SOL     OW93002   2.960   5.720   9.211  0.2844  0.0099 -0.4212
30187SOL    HW193003   2.937   5.652   9.275 -1.7255  0.3986 -0.6822
30187SOL    HW293004   2.990   5.671   9.135  0.3709 -0.5316 -0.0464
30188SOL     OW93005   5.815   3.170   8.167  0.1245 -0.0267 -0.0399
30188SOL    HW193006   5.907   3.193   8.155  0.4327 -1.5263 -0.9035
30188SOL    HW293007   5.817   3.085   8.211 -0.8037 -0.5485 -0.9552
30189SOL     OW93008   1.167   8.703   3.952  0.3804 -0.4709 -0.0209
30189SOL    HW193009   1.257   8.693   3.983  0.4444 -0.4638 -0.2070
30189SOL    HW293010   1.114   8.661   4.020  0.2599  2.2887  1.7622
30190SOL     OW93011   2.361   4.744   2.303 -0.1748  0.5418  0.2978
30190SOL    HW193012   2.316   4.688   2.367  1.1968  1.0246  1.7655
30190SOL    HW293013   2.303   4.746   2.227 -1.9052 -0.0193  1.5486
30191SOL     OW93014   2.214   4.684   3.640  0.2131 -0.0357  0.0030
30191SOL    HW193015   2.284   4.647   3.693 -0.4355  0.5348  1.2942
30191SOL    HW293016   2.163   4.609   3.611  1.8962 -0.5591 -1.8160
30192SOL     OW93017  10.181   6.775   0.649 -0.7595 -0.4393  0.4126
30192SOL    HW193018  10.097   6.734   0.671 -0.3742 -0.3851  2.0954
30192SOL    HW293019  10.178   6.860   0.693  0.1628 -0.4375  0.4847
30193SOL     OW93020   1.899   2.326   7.225 -0.1310  0.3690 -0.1005
30193SOL    HW193021   1.820   2.277   7.205 -0.2417  0.1321  0.8712
30193SOL    HW293022   1.964   2.294   7.163  0.5231 -2.8646  2.0442
30194SOL     OW93023   6.662   8.006   4.144  0.2756  0.3879 -0.2703
30194SOL    HW193024   6.605   7.970   4.075  0.0667 -0.2288  0.2155
30194SOL    HW293025   6.657   8.101   4.131 -1.3318  0.3930  0.0963
30195SOL     OW93026   5.757   9.567   4.239 -0.1193  0.7118  0.3644
30195SOL    HW193027   5.744   9.592   4.330  0.3910  0.0723  0.6156
30195SOL    HW293028   5.850   9.577   4.223 -0.2489  1.1127 -0.1794
30196SOL     OW93029   9.642   6.356   2.756  0.4034 -0.4528 -0.4553
30196SOL    HW193030   9.651   6.429   2.695 -1.2169 -1.3115 -1.8043
30196SOL    HW293031   9.550   6.358   2.782  0.3683 -1.9023 -0.3895
30197SOL     OW93032   6.324   9.893   3.625  0.5898 -0.0357  0.3808
30197SOL    HW193033   6.330   9.920   3.533  1.3233  1.7132  0.9023
30197SOL    HW293034   6.232   9.869   3.637  0.1305  1.2443 -0.4161
30198SOL     OW93035   0.553   0.126   4.988 -0.0131 -0.2983  0.8695
30198SOL    HW193036   0.503   0.205   4.969  0.0864 -0.5821 -0.6314
30198SOL    HW293037   0.640   0.157   5.013  1.5939  0.0895 -4.2337
30199SOL     OW93038   5.915   2.415   4.515  0.3134 -0.0434  0.2776
30199SOL    HW193039   5.914   2.323   4.489 -2.6377 -0.0761  0.1760
30199SOL    HW293040   5.932   2.463   4.433 -0.3395 -0.4513 -0.1075
30200SOL     OW93041   6.235   2.618   2.485  0.0210  0.0479 -0.0829
30200SOL    HW193042   6.243   2.632   2.391 -1.3745 -1.3795 -0.4570
30200SOL    HW293043   6.190   2.534   2.493 -2.6976  1.5365  1.8019
30201SOL     OW93044   0.808   2.351   5.547 -0.0589 -0.2512 -0.9297
30201SOL    HW193045   0.861   2.344   5.467 -2.0785  0.1971 -2.3757
30201SOL    HW293046   0.728   2.302   5.528 -0.4260 -0.4973  1.0111
30202SOL     OW93047   3.256   5.044   0.828 -0.0982 -0.4644 -0.5973
30202SOL    HW193048   3.253   4.990   0.907 -1.3061 -1.1245 -1.0688
30202SOL    HW293049   3.167   5.042   0.794  0.5380 -0.8140 -2.3711
30203SOL     OW93050   1.550   3.042   6.281  0.0717  0.3837 -0.0054
30203SOL    HW193051   1.556   3.092   6.199  0.4209 -0.3525 -0.4318
30203SOL    HW293052   1.574   3.105   6.349  1.5045  0.5515 -0.6287
30204SOL     OW93053   4.075   5.464   0.920  0.0545 -0.0751 -0.3641
30204SOL    HW193054   4.052   5.433   0.833 -3.2663  1.1140 -0.0368
30204SOL    HW293055   4.031   5.405   0.980 -0.5469  1.1085  0.4066
30205SOL     OW93056   2.127   0.230   3.922 -0.3875 -0.1701  0.4755
30205SOL    HW193057   2.143   0.140   3.895 -0.7086 -0.1438  0.1882
30205SOL    HW293058   2.196   0.249   3.986  0.9908  0.0564 -1.0099
30206SOL     OW93059   0.809   4.976   6.029 -0.7670 -0.7063  0.3833
30206SOL    HW193060   0.820   4.885   6.058 -2.1527 -0.4787  1.7866
30206SOL    HW293061   0.878   4.990   5.964 -1.1487 -3.0597 -0.6079
30207SOL     OW93062   4.699   2.469   3.312 -0.0875 -0.2527  0.3856
30207SOL    HW193063   4.685   2.503   3.224 -1.8331  2.0195  1.4462
30207SOL    HW293064   4.791   2.486   3.330  0.1850 -0.3754 -0.8180
30208SOL     OW93065   0.282   7.156   9.783  0.1998  0.1841 -0.2420
30208SOL    HW193066   0.350   7.100   9.819  0.2167  0.4606  0.1586
30208SOL    HW293067   0.267   7.122   9.694  0.0435 -0.5957  0.0778
30209SOL     OW93068   0.441   7.313   6.856  0.2816  0.3327  0.0439
30209SOL    HW193069   0.461   7.267   6.938  1.4718  0.4357 -0.1739
30209SOL    HW293070   0.431   7.405   6.882  0.4035  0.3266  0.1129
30210SOL     OW93071   5.680   5.676   7.090  0.0066  0.0513 -0.3270
30210SOL    HW193072   5.670   5.633   7.005  0.2169  1.0502 -0.8733
30210SOL    HW293073   5.627   5.623   7.150 -0.5712 -0.3707 -1.1819
30211SOL     OW93074   1.912   7.726   7.943 -0.0785 -0.4902  0.4094
30211SOL    HW193075   1.993   7.678   7.926  0.4930  0.5839  0.0018
30211SOL    HW293076   1.845   7.659   7.951  0.7905 -1.3739  0.3708
30212SOL     OW93077   2.248   0.517   8.699 -0.1680 -0.6333  0.2235
30212SOL    HW193078   2.305   0.498   8.774 -2.2859 -3.7866  1.2018
30212SOL    HW293079   2.160   0.521   8.736 -1.1905 -1.4499 -1.9832
30213SOL     OW93080   8.284   4.558   4.509 -0.2066 -0.0820 -0.3170
30213SOL    HW193081   8.231   4.517   4.578 -1.5039  2.3772  0.2386
30213SOL    HW293082   8.308   4.643   4.545 -0.1936  0.9355 -2.5776
30214SOL     OW93083  10.263   7.691   2.446 -0.2669  0.0666 -0.2042
30214SOL    HW193084  10.251   7.602   2.413 -0.7226 -0.5417  1.5131
30214SOL    HW293085  10.182   7.712   2.491  0.4675  0.6928  0.8712
30215SOL     OW93086   5.319   7.790   3.592  0.1511 -0.1338 -0.0719
30215SOL    HW193087   5.247   7.727   3.587  1.2044 -1.4310  0.3669
30215SOL    HW293088   5.286   7.860   3.648 -1.1840 -0.0797 -0.8716
30216SOL     OW93089   8.375   8.059   7.965  0.0853  0.4786 -0.1925
30216SOL    HW193090   8.456   8.009   7.954  0.2233  0.8635 -0.9552
30216SOL    HW293091   8.338   8.065   7.877 -0.5325  0.7095  0.0787
30217SOL     OW93092   3.107   0.864   0.389 -0.1464  0.3194 -0.3675
30217SOL    HW193093   3.025   0.861   0.341 -0.6548  0.0071  0.4906
30217SOL    HW293094   3.084   0.900   0.474  0.6357  0.3769 -0.1698
30218SOL     OW93095   1.300   5.107   6.324  0.1776 -0.1961 -0.1413
30218SOL    HW193096   1.337   5.104   6.412  0.6104  0.3676 -0.2980
30218SOL    HW293097   1.216   5.062   6.332 -2.0031  3.6997  1.6428
30219SOL     OW93098   0.239   4.481   4.074  0.2469  0.1404 -0.2460
30219SOL    HW193099   0.231   4.435   3.991  1.1304 -0.7802  0.1567
30219SOL    HW293100   0.227   4.573   4.052 -1.7243 -0.2607 -1.0476
30220SOL     OW93101   0.084   7.160   7.596  0.1663 -0.6575  0.5917
30220SOL    HW193102   0.059   7.068   7.593 -0.6551 -0.4256 -1.3450
30220SOL    HW293103   0.002   7.208   7.588  0.6730  0.2301  0.4853
30221SOL     OW93104   9.208  10.006   6.434  0.3171 -0.2111  0.4784
30221SOL    HW193105   9.113  10.005   6.436  0.1675  2.5440 -0.6600
30221SOL    HW293106   9.234  10.039   6.520  0.2197 -0.2809  0.5342
30222SOL     OW93107   7.729   4.378   1.001 -0.4534 -0.3715  0.0143
30222SOL    HW193108   7.822   4.384   1.021 -0.4097 -1.4180  0.1429
30222SOL    HW293109   7.719   4.430   0.921  0.2447 -0.2948 -0.0306
30223SOL     OW93110   1.740   1.247   5.742 -0.5417  0.4541  0.3777
30223SOL    HW193111   1.821   1.197   5.734 -0.5299  0.3686  0.9781
30223SOL    HW293112   1.684   1.212   5.673 -0.5197 -0.3649  0.7609
30224SOL     OW93113   3.741   1.768   6.533 -0.3564  0.7420 -0.0188
30224SOL    HW193114   3.799   1.699   6.501  1.0623  2.6686 -1.8843
30224SOL    HW293115   3.748   1.763   6.629  1.4763 -0.2557 -0.1599
30225SOL     OW93116   0.893   7.634   3.203 -0.2983  0.1326  0.1904
30225SOL    HW193117   0.885   7.677   3.118 -0.4845 -0.0815  0.0989
30225SOL    HW293118   0.915   7.705   3.264 -1.6012  0.5444  0.2272
30226SOL     OW93119   0.789   0.401   6.530  0.7410 -0.0758  0.3810
30226SOL    HW193120   0.825   0.354   6.454  0.7737 -0.5762  0.7032
30226SOL    HW293121   0.793   0.493   6.504 -1.3723 -0.3562 -1.1636
30227SOL     OW93122   7.347   3.478   4.978 -0.4139  0.1253  0.2788
30227SOL    HW193123   7.365   3.508   5.067 -1.3537  0.2038  0.4514
30227SOL    HW293124   7.433   3.480   4.934 -0.0843  0.8966  0.9324
30228SOL     OW93125   4.981   1.128   8.429 -0.9940  0.2407 -0.2557
30228SOL    HW193126   4.951   1.217   8.450 -0.2179  0.3657  0.3914
30228SOL    HW293127   5.074   1.138   8.410 -0.5320 -0.6343  1.3577
30229SOL     OW93128   8.882   1.981   0.210 -0.5751 -0.1379 -0.3178
30229SOL    HW193129   8.921   2.014   0.129  0.1632 -1.5381 -0.5608
30229SOL    HW293130   8.788   1.983   0.193 -0.4131 -0.8649 -1.4022
30230SOL     OW93131   2.537   2.485   8.226 -0.0267  0.0947  0.9448
30230SOL    HW193132   2.583   2.553   8.178 -0.5796 -0.1702  0.0147
30230SOL    HW293133   2.603   2.418   8.242  0.1511  0.1663  0.5097
30231SOL     OW93134   3.842   1.463   4.576  0.0607  0.0379 -1.0342
30231SOL    HW193135   3.868   1.373   4.556  0.8954 -0.0725  0.3972
30231SOL    HW293136   3.748   1.465   4.560 -0.0048 -1.1447 -0.9287
30232SOL     OW93137  10.000   8.598   3.477 -0.3522  0.1816  0.4162
30232SOL    HW193138   9.973   8.661   3.545  0.0881  2.4846 -1.3994
30232SOL    HW293139   9.927   8.598   3.415  0.3010  0.0463 -0.3574
30233SOL     OW93140   2.179   5.786   2.417 -0.1411 -0.0123 -0.1982
30233SOL    HW193141   2.230   5.706   2.408 -0.4480 -0.3317  0.7750
30233SOL    HW293142   2.176   5.823   2.329  1.2610 -0.2861 -0.3722
30234SOL     OW93143   4.367   8.339   8.477 -0.2814  0.5762  0.4002
30234SOL    HW193144   4.454   8.299   8.476 -0.9990 -1.0460 -0.0937
30234SOL    HW293145   4.371   8.402   8.549  0.9587 -0.2774  1.1195
30235SOL     OW93146   4.714   5.173   8.799 -0.2674  0.6263 -0.4363
30235SOL    HW193147   4.693   5.109   8.731  0.8956 -0.1008 -0.1303
30235SOL    HW293148   4.807   5.160   8.817  0.3115  3.1904 -1.1821
30236SOL     OW93149   1.297   3.206   4.841 -0.6378  0.5567  0.1179
30236SOL    HW193150   1.253   3.209   4.756 -2.6068  2.0075  1.1129
30236SOL    HW293151   1.372   3.264   4.832 -0.1196 -0.2444 -0.9491
30237SOL     OW93152   3.833   3.811   4.305 -0.1530  0.7688  0.1103
30237SOL    HW193153   3.778   3.733   4.307 -1.2486  1.5219  2.5952
30237SOL    HW293154   3.915   3.781   4.265 -0.5729 -1.6500  0.9022
30238SOL     OW93155   4.158   5.652   9.158  0.3325 -0.4536  0.3529
30238SOL    HW193156   4.174   5.560   9.175 -1.5174 -0.9835 -0.4908
30238SOL    HW293157   4.192   5.698   9.235  1.8685 -1.7496  0.4915
30239SOL     OW93158   0.479  10.153   9.123  0.7116  0.5766 -0.1814
30239SOL    HW193159   0.532  10.230   9.145 -0.8798  1.6109  0.1802
30239SOL    HW293160   0.413  10.149   9.192  0.2490 -0.6250 -0.6782
30240SOL     OW93161   0.515   7.005   0.680  0.0012 -0.1173  0.3548
30240SOL    HW193162   0.536   6.924   0.728 -1.0074 -0.4775  0.2077
30240SOL    HW293163   0.428   7.029   0.711  0.1572  0.7443  0.1482
30241SOL     OW93164   3.600   8.700   5.307  0.3064 -0.4702  0.4037
30241SOL    HW193165   3.545   8.763   5.353  0.2069 -1.1903  1.2900
30241SOL    HW293166   3.617   8.631   5.371  2.7369  0.0134  0.3544
30242SOL     OW93167   1.171   8.318   7.316  0.2010 -0.0895  0.2946
30242SOL    HW193168   1.109   8.300   7.245  0.6205 -0.8442  0.1105
30242SOL    HW293169   1.241   8.255   7.303  0.5343  0.1053  1.0844
30243SOL     OW93170   0.589   5.574   7.262  0.3070  0.1510  0.4906
30243SOL    HW193171   0.672   5.602   7.226  0.6917 -1.3593  0.1385
30243SOL    HW293172   0.611   5.534   7.346 -0.1135  0.0443  0.5547
30244SOL     OW93173   8.884   6.125   6.811  0.6853  0.2861 -0.1710
30244SOL    HW193174   8.811   6.185   6.823 -1.6624 -2.4925  0.5433
30244SOL    HW293175   8.940   6.139   6.887 -0.5969  0.5730  0.7462
30245SOL     OW93176   4.724  10.024   7.472  0.0623 -0.1872 -0.1208
30245SOL    HW193177   4.631  10.005   7.461  0.2408 -0.8941 -0.5010
30245SOL    HW293178   4.729  10.119   7.483 -0.9843 -0.3761  2.8883
30246SOL     OW93179   3.551   0.232   0.051  0.2542  0.1875  0.1829
30246SOL    HW193180   3.540   0.281  -0.030 -1.5789 -0.3324  0.0643
30246SOL    HW293181   3.476   0.256   0.105  0.0779 -1.3691  0.6933
30247SOL     OW93182   3.196   1.854   7.913  0.1220  0.3652  0.0243
30247SOL    HW193183   3.110   1.823   7.941 -0.5176  0.7626 -1.4059
30247SOL    HW293184   3.217   1.801   7.837  0.2003  1.6186 -0.8606
30248SOL     OW93185   9.114   5.004   0.399  0.4444 -0.3094 -0.0170
30248SOL    HW193186   9.117   5.066   0.327  2.6383  0.7787  0.9180
30248SOL    HW293187   9.195   5.019   0.448 -0.4614 -1.6957  2.0991
30249SOL     OW93188   0.020   1.076   9.679  0.2320 -0.1299  0.1557
30249SOL    HW193189  -0.002   1.038   9.764 -2.4517 -1.3697 -0.9558
30249SOL    HW293190  -0.022   1.162   9.679  1.3046  0.4085  0.5116
30250SOL     OW93191   4.978   4.417   2.489 -0.7171 -0.2483  0.4909
30250SOL    HW193192   4.930   4.498   2.469 -0.7492 -0.4833 -0.4470
30250SOL    HW293193   4.910   4.355   2.514 -0.6801  0.0483  1.3433
30251SOL     OW93194   2.299   5.079   1.816 -0.1240 -0.2013  0.3939
30251SOL    HW193195   2.340   5.161   1.845  0.5594 -0.4012  0.0116
30251SOL    HW293196   2.257   5.044   1.895  1.0055 -0.3294  0.9490
30252SOL     OW93197   7.527   0.328   9.247  0.0812 -0.3177  0.2880
30252SOL    HW193198   7.474   0.406   9.228  2.5131  1.0479 -1.4118
30252SOL    HW293199   7.509   0.268   9.175 -1.2940 -1.1647  1.2641
30253SOL     OW93200  10.252   4.447   2.892  0.1291 -0.1873  0.1569
30253SOL    HW193201  10.265   4.401   2.975  1.1067 -0.2920 -0.0361
30253SOL    HW293202  10.286   4.535   2.908 -0.5139  0.0684  0.1294
30254SOL     OW93203   9.929   6.690   0.738  0.5413  0.4427 -0.2829
30254SOL    HW193204   9.839   6.720   0.731  0.6774  0.7397 -0.8570
30254SOL    HW293205   9.924   6.595   0.727  0.4584  0.6193 -1.9979
30255SOL     OW93206   1.823   1.182  10.113  0.1595  0.0345  0.0873
30255SOL    HW193207   1.835   1.173  10.208 -1.0602  0.9252  0.3521
30255SOL    HW293208   1.911   1.197  10.079  0.5856 -0.0723  1.1063
30256SOL     OW93209   2.163   5.070   6.227 -0.8493  0.1880 -0.1536
30256SOL    HW193210   2.155   5.144   6.287  1.9258  0.4578 -0.0164
30256SOL    HW293211   2.153   5.108   6.140  0.2111  0.6753 -0.0685
30257SOL     OW93212   6.844   8.974   0.286  0.1106  0.2814 -0.2423
30257SOL    HW193213   6.938   8.952   0.287  0.5498  1.8790 -1.6333
30257SOL    HW293214   6.800   8.889   0.295  1.7003 -0.6881 -1.0374
30258SOL     OW93215   6.073   8.299   6.650 -0.1908  0.2375 -0.2133
30258SOL    HW193216   6.138   8.282   6.718  0.5959 -0.3401 -1.0826
30258SOL    HW293217   5.999   8.242   6.673 -0.1265  0.4044  0.4177
30259SOL     OW93218   2.432   7.991   5.605  0.1431  0.1419  0.4457
30259SOL    HW193219   2.350   8.028   5.636 -0.2426 -0.4207  0.1099
30259SOL    HW293220   2.486   7.983   5.684  0.1100  1.0934  0.5692
30260SOL     OW93221   9.886   9.263   2.615 -0.2293 -0.1503  0.3488
30260SOL    HW193222   9.792   9.244   2.620  0.1310 -2.0662  0.6138
30260SOL    HW293223   9.928   9.188   2.657  1.4100  0.9530  0.7576
30261SOL     OW93224   6.585   3.928  10.153 -0.0201  0.2308  0.5360
30261SOL    HW193225   6.636   3.893  10.226 -0.0621  0.5760  0.7340
30261SOL    HW293226   6.540   4.004  10.190  0.5823  0.8889 -0.0580
30262SOL     OW93227   5.941   1.046   5.478  0.3820  0.1244  0.6627
30262SOL    HW193228   5.992   0.980   5.525  0.7281 -1.0846 -1.2548
30262SOL    HW293229   5.995   1.066   5.401 -0.2575  1.8062  0.6158
30263SOL     OW93230   9.734   9.529   5.814 -0.2146 -0.0120 -0.7335
30263SOL    HW193231   9.785   9.537   5.733  1.8114  0.3566  0.5184
30263SOL    HW293232   9.738   9.615   5.854 -0.0341 -0.5264  0.3968
30264SOL     OW93233   8.250   3.084   4.026  0.1352  0.6526 -0.6236
30264SOL    HW193234   8.235   3.173   4.059 -2.6357  0.5287 -1.3383
30264SOL    HW293235   8.274   3.033   4.103  1.4015  1.8940 -0.1495
30265SOL     OW93236   0.049   0.689   7.166  0.3422  0.1457 -0.1980
30265SOL    HW193237   0.128   0.637   7.184  0.8910  0.3511 -1.8360
30265SOL    HW293238  -0.013   0.627   7.128 -0.7888 -0.2767  2.1561
30266SOL     OW93239   4.840   1.507   8.774  0.1319 -0.4740 -1.1787
30266SOL    HW193240   4.874   1.459   8.698 -0.7960  0.5572 -2.2999
30266SOL    HW293241   4.899   1.581   8.784  0.2578 -0.6130 -0.8834
30267SOL     OW93242   6.824   3.137   2.404  0.1017 -0.2880  0.2470
30267SOL    HW193243   6.758   3.093   2.350  0.6601 -1.0426  0.1469
30267SOL    HW293244   6.782   3.148   2.489 -0.4084 -0.0893 -0.0272
30268SOL     OW93245   6.176   9.315   6.604  0.1402 -0.6278  0.4515
30268SOL    HW193246   6.166   9.397   6.556  0.7474 -1.4378 -1.1311
30268SOL    HW293247   6.122   9.326   6.682 -0.0113  1.1571  0.1277
30269SOL     OW93248   0.461   2.511  10.329 -0.4912  0.2615 -0.0775
30269SOL    HW193249   0.443   2.435  10.274  0.4879  0.3873 -0.5827
30269SOL    HW293250   0.410   2.582  10.290 -1.6239 -0.1836  0.5564
30270SOL     OW93251   8.739   7.096   0.045  0.2634  0.1115 -0.2779
30270SOL    HW193252   8.821   7.051   0.023 -0.4915 -1.1814 -0.5890
30270SOL    HW293253   8.720   7.150  -0.032  0.3054 -0.3966 -0.6526
30271SOL     OW93254   0.371   1.171   5.516  0.6304  0.1178  0.1212
30271SOL    HW193255   0.362   1.114   5.593  1.4094  1.4670  1.2438
30271SOL    HW293256   0.446   1.135   5.469 -0.0279 -0.8934 -0.2046
30272SOL     OW93257   7.184   9.443   0.965 -0.1983 -0.0247  0.4478
30272SOL    HW193258   7.254   9.475   0.907  0.0918  0.0277  0.8225
30272SOL    HW293259   7.132   9.385   0.910 -0.3849  0.6349 -0.0831
30273SOL     OW93260   5.164   3.495   7.852  0.2175 -0.3529  0.2404
30273SOL    HW193261   5.142   3.527   7.940 -0.6085 -0.6624  0.1518
30273SOL    HW293262   5.259   3.482   7.855  0.0244 -1.7507  1.5538
30274SOL     OW93263   1.363   8.684   1.693 -0.4487  0.2859  0.0230
30274SOL    HW193264   1.274   8.658   1.716 -1.4150  2.6326 -0.7567
30274SOL    HW293265   1.352   8.761   1.637  2.0506 -0.0583 -1.0964
30275SOL     OW93266   4.393   7.254   3.534  0.2343 -0.0126  1.0481
30275SOL    HW193267   4.405   7.198   3.610  1.3880  1.2242  1.8185
30275SOL    HW293268   4.399   7.343   3.568 -0.4985  0.5969 -0.3011
30276SOL     OW93269   2.230   1.272   5.982 -0.2660  0.7934  0.8565
30276SOL    HW193270   2.139   1.299   5.999 -0.9912  0.2256 -1.6585
30276SOL    HW293271   2.223   1.214   5.906  2.1436  0.0198  1.1568
30277SOL     OW93272   8.290   7.626   5.834  0.1827 -0.3102 -0.7725
30277SOL    HW193273   8.264   7.718   5.828  0.0316 -0.4008 -1.5925
30277SOL    HW293274   8.301   7.598   5.744  1.5595 -0.7334 -0.4995
30278SOL     OW93275   0.022   7.088   1.927  0.0216  0.3522  0.1973
30278SOL    HW193276   0.030   7.000   1.891  0.9084  0.7242 -0.5427
30278SOL    HW293277  -0.039   7.078   2.000 -1.2398 -0.5688 -0.9180
30279SOL     OW93278   5.321   5.512   7.464  0.5989  0.0610  0.1887
30279SOL    HW193279   5.406   5.493   7.424  0.8387  0.6330  0.4161
30279SOL    HW293280   5.323   5.466   7.548 -0.2269 -1.8222 -0.7767
30280SOL     OW93281   7.198   5.945   1.042  0.1759 -0.2882  0.0821
30280SOL    HW193282   7.131   5.923   0.977  2.8101 -0.6967 -2.7334
30280SOL    HW293283   7.224   5.860   1.078  0.6686 -0.3739 -0.4603
30281SOL     OW93284   2.393   0.172   8.053 -0.0974  0.1324 -0.5472
30281SOL    HW193285   2.410   0.091   8.101  0.0886 -0.6917 -1.9446
30281SOL    HW293286   2.462   0.232   8.083 -0.6686  0.0355  1.0257
30282SOL     OW93287   1.776   4.973   6.854  0.0595  0.2895  0.3166
30282SOL    HW193288   1.724   4.977   6.934  2.4949 -0.6845  2.0739
30282SOL    HW293289   1.865   4.995   6.882  0.7439  1.5851 -2.4646
30283SOL     OW93290   3.749   5.610   2.004  0.0876  0.2264 -0.5639
30283SOL    HW193291   3.696   5.611   1.924 -2.5581  1.8237  1.1002
30283SOL    HW293292   3.799   5.691   2.001 -1.0559  0.9772 -0.0014
30284SOL     OW93293   3.751   0.466   4.058 -0.2761  0.2834 -0.5261
30284SOL    HW193294   3.713   0.540   4.107  0.9738 -0.3032  1.4619
30284SOL    HW293295   3.675   0.411   4.036 -0.9617  0.9145  0.1806
30285SOL     OW93296   1.886   3.931   8.135  0.3034  0.1251  0.2426
30285SOL    HW193297   1.919   3.841   8.136 -0.1989 -0.0681  1.3015
30285SOL    HW293298   1.793   3.921   8.112  0.4540  0.4589 -0.5235
30286SOL     OW93299   9.591   9.948   1.594 -0.7536  0.2334  0.3397
30286SOL    HW193300   9.664   9.979   1.541 -0.0770 -1.8956 -0.0616
30286SOL    HW293301   9.608   9.984   1.681 -0.4371  1.5498 -0.2403
30287SOL     OW93302   1.423   5.991   1.536 -0.1418 -0.5926  0.4947
30287SOL    HW193303   1.417   6.022   1.626 -0.3387 -2.3914  1.1564
30287SOL    HW293304   1.462   5.904   1.544  0.9010 -0.3282 -1.2852
30288SOL     OW93305   7.559   5.018   6.652  0.3215  0.3330  0.1536
30288SOL    HW193306   7.513   5.100   6.633 -0.8763 -0.3821 -0.1190
30288SOL    HW293307   7.628   5.043   6.712  0.7446  1.7450 -0.8744
30289SOL     OW93308   8.810  10.083   6.987 -0.5096 -0.5775  0.2721
30289SOL    HW193309   8.750  10.122   6.924 -0.1505 -0.8940 -0.2713
30289SOL    HW293310   8.759  10.012   7.027 -1.1707  0.4339  1.2797
30290SOL     OW93311   2.523   8.744   4.664  0.3125 -0.1289  0.2537
30290SOL    HW193312   2.606   8.792   4.662 -0.5219  1.4935  1.7348
30290SOL    HW293313   2.497   8.738   4.572  1.3203  0.6942 -0.1044
30291SOL     OW93314   7.949   2.139   6.188 -0.1959 -0.3348 -0.3346
30291SOL    HW193315   7.896   2.187   6.125  0.5467  1.9503  0.6922
30291SOL    HW293316   7.891   2.124   6.262 -0.4551 -1.1579 -0.6922
30292SOL     OW93317  10.485   0.848   5.299 -0.3240  0.2373 -0.3490
30292SOL    HW193318  10.407   0.861   5.353 -1.1062 -1.0771 -1.1194
30292SOL    HW293319  10.489   0.926   5.243  1.4071  2.4641  2.5488
30293SOL     OW93320  10.405   6.192   5.689 -0.3639 -0.7349  0.1823
30293SOL    HW193321  10.376   6.103   5.707 -0.1492 -0.9284 -0.3948
30293SOL    HW293322  10.338   6.248   5.730  0.1735 -1.1318  1.6559
30294SOL     OW93323   5.524   9.551   2.914  0.0073  0.0738  0.3110
30294SOL    HW193324   5.481   9.553   2.999 -1.8448 -0.9123 -0.5511
30294SOL    HW293325   5.457   9.578   2.852  0.9637 -0.3891 -0.9773
30295SOL     OW93326   6.236   6.561   3.124 -0.1344  0.2026  0.3537
30295SOL    HW193327   6.174   6.492   3.099 -1.1488  1.4230 -0.6625
30295SOL    HW293328   6.180   6.632   3.156  0.7817  1.1068 -0.0149
30296SOL     OW93329  10.198   4.166   0.052 -0.2837  0.9609  0.0596
30296SOL    HW193330  10.105   4.174   0.034 -0.0976 -1.1853 -2.5010
30296SOL    HW293331  10.206   4.085   0.102  0.2818  0.3455 -0.9910
30297SOL     OW93332   7.922   6.233   0.355 -0.5720 -0.6725  0.5296
30297SOL    HW193333   8.012   6.224   0.324 -0.7904  1.3537 -0.8853
30297SOL    HW293334   7.875   6.160   0.315  0.0370 -0.5793 -0.3692
30298SOL     OW93335   7.061   2.152   3.044 -0.7523  0.0031 -0.1000
30298SOL    HW193336   7.110   2.234   3.051 -0.1677 -0.0473 -2.7699
30298SOL    HW293337   6.969   2.179   3.043 -0.6444  0.4495  0.6744
30299SOL     OW93338   7.062   4.074   3.648 -0.8673 -0.2347  0.1947
30299SOL    HW193339   7.011   4.012   3.596 -0.9330 -0.1555  0.1637
30299SOL    HW293340   7.009   4.154   3.648 -0.5420 -0.0147 -0.1944
30300SOL     OW93341   3.401   1.151   9.788  0.4723 -0.2569  0.7601
30300SOL    HW193342   3.484   1.170   9.744 -0.7445 -0.2613 -1.7165
30300SOL    HW293343   3.404   1.057   9.806  0.8613 -0.3204  0.3675
30301SOL     OW93344   9.036   4.361   7.425 -0.5349  0.6136  0.3729
30301SOL    HW193345   9.098   4.336   7.357 -1.2829  2.4096 -1.0462
30301SOL    HW293346   9.089   4.371   7.504  0.5023 -0.5632 -0.1404
30302SOL     OW93347   6.892   1.151   2.450  0.0085  0.6116  0.8628
30302SOL    HW193348   6.959   1.086   2.431 -0.2699  0.6445 -0.3908
30302SOL    HW293349   6.842   1.114   2.523 -2.8928 -2.8535 -2.4273
30303SOL     OW93350   1.453   4.799   1.001  0.6954 -0.2313  0.0865
30303SOL    HW193351   1.385   4.736   1.026  1.1486 -0.4388  0.8331
30303SOL    HW293352   1.509   4.751   0.940  0.2760 -0.1112 -0.4032
30304SOL     OW93353  10.067   4.130   7.670 -0.3031 -0.0557  0.0604
30304SOL    HW193354  10.084   4.052   7.617 -0.2389  0.4727 -0.7292
30304SOL    HW293355   9.989   4.108   7.721 -0.9230 -0.2740 -0.9417
30305SOL     OW93356   2.917   4.017   4.749  0.0557 -0.0545 -0.2418
30305SOL    HW193357   2.848   3.951   4.742 -0.8540  0.7859  0.4208
30305SOL    HW293358   2.931   4.028   4.843  1.2629 -0.3613 -0.3707
30306SOL     OW93359   5.017   8.616   9.609  0.2879 -0.8175  0.2085
30306SOL    HW193360   5.055   8.618   9.696 -2.2049  0.8543  1.3820
30306SOL    HW293361   4.994   8.524   9.595 -1.3082 -0.8147  2.3392
30307SOL     OW93362   9.427   0.283   9.686  0.5309  0.0256 -0.4588
30307SOL    HW193363   9.395   0.366   9.650  2.0486  1.2265  0.8266
30307SOL    HW293364   9.512   0.270   9.644  0.4610 -0.7027 -0.3871
30308SOL     OW93365   9.688   9.972   8.623  0.2906 -0.6071  0.1822
30308SOL    HW193366   9.688   9.999   8.531 -0.2750  0.6697  0.5294
30308SOL    HW293367   9.608  10.009   8.659  2.1436  2.0024  2.0058
30309SOL     OW93368   2.686   4.646   0.039 -0.2333  0.4957  0.3752
30309SOL    HW193369   2.655   4.622  -0.048  1.2246  0.2707 -0.1078
30309SOL    HW293370   2.620   4.610   0.099 -0.5214 -0.5694 -0.5588
30310SOL     OW93371   3.449   7.857   6.644 -0.1601  0.2961 -0.2074
30310SOL    HW193372   3.469   7.883   6.554  1.0606  2.2669  0.5703
30310SOL    HW293373   3.354   7.844   6.646 -0.2087  0.3316 -1.7331
30311SOL     OW93374  10.461   1.137  10.125 -0.0289 -0.3367 -0.0018
30311SOL    HW193375  10.464   1.066  10.062 -1.3466  0.1257 -0.6112
30311SOL    HW293376  10.373   1.173  10.118  0.2434  0.6325  1.1033
30312SOL     OW93377   9.650   9.562   9.079 -0.4048 -0.3783  0.1826
30312SOL    HW193378   9.619   9.494   9.018 -1.4121  0.5206 -0.3392
30312SOL    HW293379   9.636   9.644   9.032  0.6941  0.2153  0.8544
30313SOL     OW93380   0.770   5.772   5.946  0.4345 -0.5005 -0.0913
30313SOL    HW193381   0.755   5.865   5.963  1.2684  0.1463 -2.5628
30313SOL    HW293382   0.841   5.748   6.006  1.6660  1.0317 -0.8597
30314SOL     OW93383   8.261  10.444   1.213 -0.2203 -0.2151 -0.6160
30314SOL    HW193384   8.250  10.350   1.231  0.0275 -0.1826 -0.2766
30314SOL    HW293385   8.213  10.459   1.132  2.2551 -1.2948 -2.4369
30315SOL     OW93386   8.659   9.789   6.935  0.0900 -0.2383  0.1221
30315SOL    HW193387   8.725   9.793   6.866 -1.2240 -2.4416 -1.3732
30315SOL    HW293388   8.580   9.827   6.896 -1.3397 -3.5674 -0.5678
30316SOL     OW93389   4.978   0.465   9.176 -0.1628 -0.5914 -0.1264
30316SOL    HW193390   4.904   0.451   9.116  0.4775 -1.1803 -0.8055
30316SOL    HW293391   5.046   0.504   9.121  0.5099 -1.3211  0.1621
30317SOL     OW93392   8.540   9.918   9.421 -0.5415  0.3486 -0.4733
30317SOL    HW193393   8.619   9.904   9.367 -0.0212 -1.4743  0.6805
30317SOL    HW293394   8.471   9.937   9.357 -0.3000 -3.2603 -2.0225
30318SOL     OW93395   2.006   2.417   1.956  0.2008  0.0797 -0.0873
30318SOL    HW193396   2.050   2.365   2.023 -0.8961  1.2746  1.6489
30318SOL    HW293397   1.924   2.370   1.939 -1.3838  1.7082  2.3966
30319SOL     OW93398   0.729   1.574   5.713 -0.1581 -0.3370  0.2415
30319SOL    HW193399   0.675   1.501   5.682  0.2203 -0.4286 -0.2144
30319SOL    HW293400   0.699   1.649   5.662 -1.6739  0.2108  1.8437
30320SOL     OW93401   3.735   6.388   8.615  0.2393  0.4155  0.3948
30320SOL    HW193402   3.782   6.321   8.664  0.0988 -0.0105 -0.0505
30320SOL    HW293403   3.686   6.436   8.682 -0.6627 -0.7377  0.5891
30321SOL     OW93404   0.444   3.021   9.668  0.2860 -0.0638 -0.2958
30321SOL    HW193405   0.536   3.038   9.686  0.8421 -1.9422 -1.1242
30321SOL    HW293406   0.418   3.088   9.605  0.9596  0.7191  0.2438
30322SOL     OW93407  10.067   5.114   2.186 -0.3046 -0.0044  0.1782
30322SOL    HW193408   9.977   5.087   2.165 -0.3054 -1.2062  1.5315
30322SOL    HW293409  10.121   5.041   2.155  0.2444  0.7980 -0.8009
30323SOL     OW93410   0.920   0.380   4.464  0.3505 -0.3413 -0.1137
30323SOL    HW193411   0.898   0.346   4.551  2.1418 -0.4526  0.3252
30323SOL    HW293412   0.893   0.310   4.404 -1.8305  0.1441  0.2210
30324SOL     OW93413  10.445   0.101   8.952 -0.0161  0.4732 -0.3129
30324SOL    HW193414  10.354   0.073   8.944  0.1149  0.5753 -4.3442
30324SOL    HW293415  10.440   0.197   8.959 -0.2224  0.3660  1.1380
30325SOL     OW93416   1.418   7.135   2.619  0.1862  0.3987  0.2100
30325SOL    HW193417   1.331   7.175   2.623 -0.2478 -0.3994 -0.7182
30325SOL    HW293418   1.447   7.150   2.529 -0.2820 -1.8626 -0.3861
30326SOL     OW93419   4.078   3.587   6.301  0.0742 -0.3021 -0.0732
30326SOL    HW193420   4.012   3.646   6.265  0.7651  0.2275 -0.4992
30326SOL    HW293421   4.142   3.645   6.341  0.2755 -0.8141  0.3528
30327SOL     OW93422   9.631   1.982   5.054 -0.0021  0.1203  0.1479
30327SOL    HW193423   9.610   1.889   5.038  1.4318 -0.3967  1.0864
30327SOL    HW293424   9.699   1.979   5.122  1.5425  1.7946 -1.2654
30328SOL     OW93425   5.921   2.143   7.744 -0.3441 -0.1506 -0.2194
30328SOL    HW193426   5.833   2.180   7.735  0.9789  2.9188 -1.7652
30328SOL    HW293427   5.923   2.072   7.680 -1.0472  1.1780 -1.7864
30329SOL     OW93428   3.074   4.730   8.692  0.2987 -0.4865  0.7102
30329SOL    HW193429   3.081   4.657   8.629 -0.4098 -1.5976  1.8741
30329SOL    HW293430   3.163   4.740   8.726  1.1357  1.3532 -1.7169
30330SOL     OW93431   4.205   0.977   2.333  0.1757  0.2429 -0.1571
30330SOL    HW193432   4.205   0.993   2.427 -0.5437 -0.9433  0.0721
30330SOL    HW293433   4.168   1.056   2.294 -1.6710 -0.1099  0.7604
30331SOL     OW93434   8.463   5.948   7.775  0.4735 -0.2519 -0.4100
30331SOL    HW193435   8.537   6.007   7.760 -0.4720  1.1514  0.2891
30331SOL    HW293436   8.494   5.890   7.845  1.4697 -0.7252 -1.2149
30332SOL     OW93437   7.161   5.791   4.423  0.0823 -0.3568 -0.1267
30332SOL    HW193438   7.068   5.802   4.402 -0.2177 -3.8958 -1.2100
30332SOL    HW293439   7.163   5.723   4.491  1.8460  1.1169  1.4132
30333SOL     OW93440   3.971   5.367   0.335  0.0670 -0.1962 -0.5224
30333SOL    HW193441   3.996   5.283   0.296  1.8107  1.0061 -2.2196
30333SOL    HW293442   4.046   5.391   0.389 -1.0539 -0.3867  1.1616
30334SOL     OW93443   3.083   3.018   8.298  0.2591 -0.1800  0.2470
30334SOL    HW193444   3.178   3.011   8.296  0.2281 -0.6957  0.4860
30334SOL    HW293445   3.063   3.087   8.235  0.6648 -1.4484 -1.3416
30335SOL     OW93446   9.485   7.016   1.081  0.2709  0.1125 -0.1691
30335SOL    HW193447   9.571   7.041   1.049  0.7188 -0.1330  0.7865
30335SOL    HW293448   9.445   6.969   1.008  0.6755  0.8088 -0.8559
30336SOL     OW93449   8.079   7.958   4.296  0.5548 -0.2646 -0.0987
30336SOL    HW193450   8.062   8.045   4.331 -1.4972 -0.0639 -1.4959
30336SOL    HW293451   8.106   7.907   4.373  2.3439  1.6623  0.6607
30337SOL     OW93452   4.438   6.585   6.311  0.3406  0.5083 -0.3448
30337SOL    HW193453   4.475   6.674   6.311 -0.6703  0.9423 -0.5175
30337SOL    HW293454   4.346   6.598   6.288  0.3313 -0.6531 -1.0201
30338SOL     OW93455   8.161  10.101   3.288  0.1914  0.7449  0.3427
30338SOL    HW193456   8.229  10.169   3.279 -0.1140  0.8999 -0.9005
30338SOL    HW293457   8.147  10.069   3.199  0.3975 -1.0439  0.9181
30339SOL     OW93458   9.565   3.875   4.059  0.4550 -0.2106  0.3928
30339SOL    HW193459   9.652   3.860   4.022  0.5996 -0.1499  0.7063
30339SOL    HW293460   9.532   3.952   4.012  1.1123  0.5835  1.1997
30340SOL     OW93461   0.758   5.622   2.836 -0.0231  0.0689  0.2710
30340SOL    HW193462   0.757   5.569   2.916  0.3230  0.7094  0.7106
30340SOL    HW293463   0.667   5.625   2.808 -0.1117 -0.3682  0.5087
30341SOL     OW93464   3.176  10.046   9.405 -0.4815 -0.4947  0.2624
30341SOL    HW193465   3.181  10.028   9.499  1.3192 -0.1116  0.2779
30341SOL    HW293466   3.123   9.975   9.370 -2.0908 -0.0583  1.6878
30342SOL     OW93467  10.017  10.407   5.955 -0.0448 -0.3283 -0.0321
30342SOL    HW193468   9.933  10.432   5.917 -0.9930  0.0557  2.1348
30342SOL    HW293469  10.064  10.365   5.884 -2.2617 -1.0063 -1.1921
30343SOL     OW93470   7.644   1.061   7.489  0.7685 -0.1127 -0.3856
30343SOL    HW193471   7.723   1.078   7.540  0.1741  1.3124  0.1170
30343SOL    HW293472   7.676   1.020   7.408  2.0699  0.8326 -0.3797
30344SOL     OW93473   5.574   3.827   7.365  0.5535 -0.5366 -0.0249
30344SOL    HW193474   5.543   3.797   7.450  0.0060  0.2161  0.0534
30344SOL    HW293475   5.621   3.752   7.328  1.3865 -0.6646  1.2257
30345SOL     OW93476   7.631   1.044   9.687 -0.2905  0.0681 -0.7714
30345SOL    HW193477   7.638   0.997   9.604  0.0119  0.5251 -1.0128
30345SOL    HW293478   7.547   1.090   9.682 -0.1655  0.2811 -0.9250
30346SOL     OW93479   5.097   4.764   1.140  0.5670  0.2232 -0.2115
30346SOL    HW193480   5.188   4.784   1.161  0.6841 -1.4789  1.1063
30346SOL    HW293481   5.064   4.719   1.217 -1.3048  0.4909 -0.8063
30347SOL     OW93482   8.879   7.785   1.751  0.0102 -0.8648 -0.1430
30347SOL    HW193483   8.902   7.870   1.788  1.3412 -1.5470  0.6594
30347SOL    HW293484   8.785   7.778   1.764  0.4229 -1.3068  3.7408
30348SOL     OW93485   0.188   9.991   1.011  0.3835 -0.4299 -0.2537
30348SOL    HW193486   0.280   9.964   1.002  0.5234  0.6786 -3.2815
30348SOL    HW293487   0.188  10.085   0.991 -1.6265 -0.8577 -2.8029
30349SOL     OW93488   3.939   5.758   2.286  0.3077 -0.4261 -0.2430
30349SOL    HW193489   3.974   5.670   2.271  1.3919  0.0508 -0.5607
30349SOL    HW293490   3.971   5.782   2.373  1.7425  0.4524 -0.9870
30350SOL     OW93491   0.487   9.779   3.453 -0.3620 -0.4713  0.4002
30350SOL    HW193492   0.437   9.860   3.444  1.2394  0.5280  0.0686
30350SOL    HW293493   0.542   9.793   3.530  0.5110 -0.9044 -0.1279
30351SOL     OW93494   5.198   9.042  10.260 -0.4012 -0.3284 -0.4348
30351SOL    HW193495   5.138   9.085  10.321 -1.5834 -3.5353  0.9211
30351SOL    HW293496   5.175   9.078  10.175 -0.0828  2.8409  0.6746
30352SOL     OW93497   6.049   1.563   4.949  0.5639  0.1724  0.1176
30352SOL    HW193498   6.125   1.619   4.964  1.1629 -0.5393 -0.2210
30352SOL    HW293499   6.001   1.605   4.878 -0.5130  1.7675  1.6837
30353SOL     OW93500   7.634   2.685   4.774 -0.0095 -0.2348  0.0476
30353SOL    HW193501   7.649   2.710   4.682 -3.2609  2.0550 -0.0247
30353SOL    HW293502   7.593   2.599   4.769 -0.0047 -0.2053 -0.6412
30354SOL     OW93503   1.649   3.978   2.289 -0.3550 -0.0186 -0.2153
30354SOL    HW193504   1.711   3.929   2.343 -0.5380  0.8352  0.7804
30354SOL    HW293505   1.643   3.927   2.208  2.0072  0.1331 -0.5450
30355SOL     OW93506   8.497   4.186   8.946 -0.5953  0.5195  0.1958
30355SOL    HW193507   8.430   4.239   8.989 -1.3212 -0.0153 -0.2439
30355SOL    HW293508   8.558   4.162   9.016 -0.1893  2.0004  0.3807
30356SOL     OW93509   9.641   6.638   0.694  0.2311 -0.5551 -0.5718
30356SOL    HW193510   9.612   6.728   0.714  2.2263 -0.0552  0.3017
30356SOL    HW293511   9.600   6.585   0.763  0.3430 -0.0542 -0.1060
30357SOL     OW93512   8.619   4.846   4.012  0.2349 -0.3008  0.8455
30357SOL    HW193513   8.560   4.776   4.040  0.3280 -1.2268 -1.1273
30357SOL    HW293514   8.648   4.820   3.925  1.3373  1.5451  0.6062
30358SOL     OW93515   2.098   5.235   3.781 -0.1675  0.3031  0.0725
30358SOL    HW193516   2.082   5.238   3.687 -0.0301 -1.7933 -0.0589
30358SOL    HW293517   2.042   5.164   3.813  2.4521 -1.5031  0.9356
30359SOL     OW93518   0.171   5.253   3.482  0.3392 -0.1901  0.1442
30359SOL    HW193519   0.100   5.234   3.421  1.8388 -1.5949 -1.2689
30359SOL    HW293520   0.173   5.178   3.541  0.4833 -0.0177  0.3631
30360SOL     OW93521   9.717   9.077   5.473 -0.0183 -0.0469 -0.5735
30360SOL    HW193522   9.719   8.993   5.518  3.0078  1.3508  2.3548
30360SOL    HW293523   9.664   9.133   5.529 -0.0851  0.5703 -1.2359
30361SOL     OW93524   0.546   7.075   3.131  0.4946  0.3088 -0.6727
30361SOL    HW193525   0.624   7.093   3.079 -0.0962  1.2048 -1.2751
30361SOL    HW293526   0.518   6.988   3.102  1.0412  0.1513 -0.7362
30362SOL     OW93527   4.224   4.948   5.010  0.5938  0.5705  0.3590
30362SOL    HW193528   4.289   4.880   4.993 -0.1335 -0.6558  2.1103
30362SOL    HW293529   4.141   4.900   5.020 -0.4038  1.9725 -0.7276
30363SOL     OW93530   6.644   9.233   8.927  0.4645  0.2904 -0.0654
30363SOL    HW193531   6.678   9.166   8.986 -1.8654 -0.1166  0.9207
30363SOL    HW293532   6.549   9.219   8.927  0.3138  0.2296 -3.9771
30364SOL     OW93533  10.440   7.764   0.147  0.6713 -0.1267 -0.1682
30364SOL    HW193534  10.345   7.759   0.138  0.8651 -2.8053 -1.9740
30364SOL    HW293535  10.469   7.811   0.069  0.8335  0.5433  0.2964
30365SOL     OW93536   2.663  10.142   3.788  0.2615 -0.3213 -1.1892
30365SOL    HW193537   2.582  10.185   3.761  0.2742 -0.1987 -1.0303
30365SOL    HW293538   2.660  10.056   3.745 -1.1564 -1.3391  0.7791
30366SOL     OW93539   8.986  10.473   7.437 -0.1056  0.1775 -0.2310
30366SOL    HW193540   9.028  10.461   7.522  0.4908  1.8834 -0.2500
30366SOL    HW293541   9.029  10.551   7.400 -2.5572  1.3878 -0.6966
30367SOL     OW93542   5.567   7.054   2.361  0.0346 -0.5491  0.2972
30367SOL    HW193543   5.504   7.103   2.307  1.3546  0.4699 -0.3817
30367SOL    HW293544   5.599   7.118   2.425  0.7508 -0.8938  0.2985
30368SOL     OW93545   3.408  10.034   8.899 -0.1676  0.5436 -0.2293
30368SOL    HW193546   3.318  10.056   8.876  0.2690  1.3287 -1.2286
30368SOL    HW293547   3.408   9.938   8.905 -1.9250  0.5750  3.5113
30369SOL     OW93548   9.591   9.532   1.342  0.2495  0.3881  0.2903
30369SOL    HW193549   9.499   9.521   1.364  0.5632 -0.0705  1.4438
30369SOL    HW293550   9.622   9.598   1.403  0.2045  2.1915 -1.5255
30370SOL     OW93551   9.584  10.359   3.014  0.9039 -0.8552  0.4028
30370SOL    HW193552   9.546  10.313   3.089 -1.8707  1.8579  0.8805
30370SOL    HW293553   9.620  10.440   3.052 -0.9459  0.7792 -1.1008
30371SOL     OW93554   0.067   7.066   6.585 -0.4260  0.2493 -0.3723
30371SOL    HW193555   0.107   7.006   6.648 -1.7922 -0.0168  0.2585
30371SOL    HW293556   0.033   7.009   6.516 -2.7571  0.1421  0.7920
30372SOL     OW93557   3.961   1.640   7.449 -0.6296  0.5792 -0.0514
30372SOL    HW193558   4.017   1.692   7.508 -1.7463  0.8531  0.8063
30372SOL    HW293559   3.879   1.629   7.498 -1.3973  0.3543 -1.3465
30373SOL     OW93560   0.513   0.840   9.193  0.8475  0.2710 -0.0904
30373SOL    HW193561   0.449   0.883   9.251 -0.6216  0.1851 -1.5690
30373SOL    HW293562   0.505   0.747   9.215 -0.6973  0.0753 -1.2732
30374SOL     OW93563   7.071   6.832   6.165  0.3385 -0.0110 -0.2273
30374SOL    HW193564   7.153   6.864   6.202  0.3145 -0.1766 -0.0211
30374SOL    HW293565   7.006   6.852   6.232  0.6582 -2.4112  0.9211
30375SOL     OW93566   2.362   1.781  10.343 -0.6411 -0.5657  0.2544
30375SOL    HW193567   2.412   1.710  10.382 -1.1530 -1.1833 -0.1945
30375SOL    HW293568   2.274   1.771  10.378 -0.2088  1.3049  2.0813
30376SOL     OW93569   5.938   3.828   6.745 -0.2895  0.1577  0.4437
30376SOL    HW193570   5.903   3.865   6.664  0.4358  1.8783  0.8679
30376SOL    HW293571   5.928   3.733   6.734  1.4661  0.1544 -2.4809
30377SOL     OW93572   5.788   4.427   5.214 -0.2522 -0.0773  0.1676
30377SOL    HW193573   5.704   4.410   5.171 -0.5757  0.4244  0.5870
30377SOL    HW293574   5.853   4.383   5.159 -0.8816 -1.2289  0.3102
30378SOL     OW93575   2.338   2.760   0.602  0.4361 -0.3133 -0.1729
30378SOL    HW193576   2.263   2.722   0.649  1.8157 -2.4892  0.4202
30378SOL    HW293577   2.340   2.714   0.519 -0.3578  1.5837 -1.2986
30379SOL     OW93578   9.362   1.716   1.740 -0.2598 -0.6785 -0.1663
30379SOL    HW193579   9.424   1.651   1.706  0.4454 -0.7772  1.2459
30379SOL    HW293580   9.414   1.796   1.749 -0.5488 -0.5296  0.2145
30380SOL     OW93581   7.271   1.238   0.866  0.6131  0.0213  0.1757
30380SOL    HW193582   7.213   1.313   0.880  1.2410  0.4411  0.5696
30380SOL    HW293583   7.263   1.186   0.946  1.5620  0.6261  0.6881
30381SOL     OW93584   5.488   1.756   3.931 -0.3732  0.0526  0.0388
30381SOL    HW193585   5.482   1.852   3.927  0.0534  0.0868  0.2260
30381SOL    HW293586   5.397   1.727   3.936 -0.4718  0.5486  2.1438
30382SOL     OW93587   2.856   7.681   0.319  0.2217  0.3298 -0.1688
30382SOL    HW193588   2.844   7.632   0.237  1.1240 -0.4154  0.1299
30382SOL    HW293589   2.773   7.727   0.331 -0.3547 -0.4754 -0.8974
30383SOL     OW93590   4.025   4.059   9.100 -0.1426  0.1101  0.1333
30383SOL    HW193591   4.090   4.051   9.031 -0.4943 -0.1485 -0.1735
30383SOL    HW293592   3.958   3.994   9.078  0.2478 -0.7239  1.2870
30384SOL     OW93593   5.967   9.499   1.329  0.0976 -0.6007  0.0799
30384SOL    HW193594   5.893   9.449   1.364 -0.3988 -0.5503 -0.8786
30384SOL    HW293595   5.944   9.590   1.343  0.9713 -0.5941  1.7610
30385SOL     OW93596   8.468   8.317  10.132 -0.3008 -1.1591 -0.2821
30385SOL    HW193597   8.401   8.385  10.137  0.4537 -0.4349  0.2469
30385SOL    HW293598   8.544   8.355  10.177  1.0886 -1.2022 -2.4014
30386SOL     OW93599   6.525   2.306   7.954  0.4884 -0.2640  0.3136
30386SOL    HW193600   6.530   2.218   7.992 -1.0211  0.4312  2.2858
30386SOL    HW293601   6.436   2.311   7.918  1.6838 -0.6955 -3.0126
30387SOL     OW93602   9.887   9.449   2.841 -0.4927  0.5756  0.3376
30387SOL    HW193603   9.962   9.508   2.841  0.2860 -0.3668  1.2166
30387SOL    HW293604   9.896   9.400   2.759 -0.8557  1.3070 -0.1493
30388SOL     OW93605   4.505   3.034   6.861  0.0641  0.4246 -0.3526
30388SOL    HW193606   4.499   3.107   6.923  2.3699 -0.0106  0.5032
30388SOL    HW293607   4.517   2.956   6.916 -1.4508 -0.5030 -1.2702
30389SOL     OW93608   7.364   7.544   4.793  0.1379 -0.0366 -0.5387
30389SOL    HW193609   7.311   7.470   4.765 -1.7799  1.5070 -1.2371
30389SOL    HW293610   7.343   7.613   4.730  1.7854  1.1409  0.1373
30390SOL     OW93611   9.922   6.412   0.743 -0.8602  0.9177 -0.1633
30390SOL    HW193612   9.843   6.406   0.797  0.4472  1.4064  1.8772
30390SOL    HW293613   9.993   6.383   0.800  0.3968 -0.2715 -2.1824
30391SOL     OW93614  10.363   2.576  10.325  0.4793  0.1649  0.1160
30391SOL    HW193615  10.399   2.645  10.269  0.9460 -1.2386 -1.3792
30391SOL    HW293616  10.438   2.543  10.373 -0.0151  1.7863  2.1581
30392SOL     OW93617   4.431  10.270   4.569  0.3466  0.2114 -0.3848
30392SOL    HW193618   4.512  10.280   4.519  0.9809  0.9996  0.7652
30392SOL    HW293619   4.423  10.176   4.584  0.5596  0.0414 -1.2760
30393SOL     OW93620   9.179   5.142   7.092  0.0589  0.1624 -0.6168
30393SOL    HW193621   9.199   5.211   7.155 -0.6699  0.3295 -0.5567
30393SOL    HW293622   9.204   5.061   7.136 -0.4225  0.2810 -0.1133
30394SOL     OW93623   7.242   7.891   9.955 -0.2635 -0.1053 -0.0442
30394SOL    HW193624   7.242   7.848   9.870  1.6170  1.4177 -0.8860
30394SOL    HW293625   7.214   7.981   9.936 -0.2079  0.1526  1.0117
30395SOL     OW93626   2.255   7.464   5.208 -0.0371  0.1022 -0.0063
30395SOL    HW193627   2.246   7.389   5.150 -0.8554  0.4152 -0.3065
30395SOL    HW293628   2.320   7.520   5.166  1.4848 -0.9802  0.8304
30396SOL     OW93629   3.358   7.833   6.154 -0.0101  0.2923  0.7455
30396SOL    HW193630   3.350   7.738   6.145 -0.7504  0.2823  1.3932
30396SOL    HW293631   3.358   7.866   6.064 -1.2137 -0.2275  0.5318
30397SOL     OW93632   4.477   3.963   9.109  0.5594  0.2410 -0.4015
30397SOL    HW193633   4.522   4.040   9.145 -1.1287  1.5787 -1.0395
30397SOL    HW293634   4.548   3.909   9.073  1.8203  1.2962  0.4027
30398SOL     OW93635   0.547   0.156   8.548 -0.3173  0.9110  0.0108
30398SOL    HW193636   0.500   0.235   8.575 -2.0841 -0.4776  1.2933
30398SOL    HW293637   0.507   0.086   8.600  0.2255 -1.0521 -2.0596
30399SOL     OW93638   8.392   1.928   7.516 -0.2561 -0.2390  0.6334
30399SOL    HW193639   8.329   1.870   7.473 -2.1972  1.4785  1.0196
30399SOL    HW293640   8.423   1.877   7.591 -0.7253 -1.3502  0.1011
30400SOL     OW93641   0.921   1.065   1.492  0.2021 -0.1938  0.1609
30400SOL    HW193642   0.895   1.099   1.406  0.3620 -0.6027 -0.0516
30400SOL    HW293643   0.949   1.142   1.541  0.4666 -0.0065 -0.2819
30401SOL     OW93644   8.413   0.297  10.049  0.2148 -0.1348  0.1251
30401SOL    HW193645   8.457   0.370  10.094 -0.3653  0.2803  0.0355
30401SOL    HW293646   8.399   0.329   9.960  1.5509 -1.0347 -0.4412
30402SOL     OW93647   9.813   7.433  10.474 -0.2179 -0.0798  0.3958
30402SOL    HW193648   9.826   7.340  10.456 -3.6515 -0.6319  0.0235
30402SOL    HW293649   9.719   7.447  10.458  0.2166  3.5063  0.2497
30403SOL     OW93650   5.744   2.217   2.300  0.0666  0.0295  0.4716
30403SOL    HW193651   5.758   2.298   2.349  0.7782  1.1946 -1.5063
30403SOL    HW293652   5.670   2.237   2.242  0.1416 -0.7968  0.0714
30404SOL     OW93653   3.792  10.301   6.857 -0.2767  0.4033  0.3206
30404SOL    HW193654   3.757  10.239   6.793 -1.2670  0.9543  0.3234
30404SOL    HW293655   3.721  10.315   6.919  0.7091 -0.2449  1.6656
30405SOL     OW93656   3.701   5.133   3.037 -0.0088 -0.4781  0.1232
30405SOL    HW193657   3.686   5.172   2.951  1.0712  0.3549  0.2909
30405SOL    HW293658   3.710   5.208   3.096  1.0602 -0.9967  0.6414
30406SOL     OW93659   7.932   7.473   4.494 -0.1238  0.1252 -0.5490
30406SOL    HW193660   7.850   7.502   4.535  0.8039  0.3385  1.2775
30406SOL    HW293661   8.000   7.500   4.556  1.1924 -1.5240 -1.1940
30407SOL     OW93662   0.102   0.532   3.212 -0.2238  0.3625  0.0220
30407SOL    HW193663   0.149   0.505   3.134  0.1795 -0.4596  0.5308
30407SOL    HW293664   0.162   0.591   3.258  1.4855 -2.6047  1.9436
30408SOL     OW93665   3.588   1.923   1.927 -0.0891 -0.0932  0.1129
30408SOL    HW193666   3.534   1.996   1.897  2.6095  1.5110 -1.2737
30408SOL    HW293667   3.678   1.948   1.903  1.5025 -1.9759  3.3773
30409SOL     OW93668   4.481   9.704   4.780 -0.5788  0.7238 -0.3669
30409SOL    HW193669   4.523   9.786   4.807 -0.0169  0.7244 -1.1887
30409SOL    HW293670   4.553   9.641   4.778 -0.6099  0.6924 -1.6823
30410SOL     OW93671   9.662   3.466   2.316 -0.2389 -0.4287 -0.1793
30410SOL    HW193672   9.697   3.514   2.391 -0.5791 -1.4245  0.6285
30410SOL    HW293673   9.731   3.472   2.250  0.0079  0.5757  0.1439
30411SOL     OW93674   1.856   3.574   2.675 -0.6896 -0.5383 -0.0138
30411SOL    HW193675   1.846   3.503   2.739  1.5358  0.6469  1.8409
30411SOL    HW293676   1.929   3.546   2.619 -0.9288 -0.4588 -0.3636
30412SOL     OW93677   7.190  10.387   7.063  0.3788  0.0593 -0.3887
30412SOL    HW193678   7.251  10.426   7.125 -0.3189 -0.4929  0.6722
30412SOL    HW293679   7.179  10.453   6.995  2.4258  0.0355 -0.8133
30413SOL     OW93680   9.219   3.223   5.181 -0.2533  0.0744  0.5045
30413SOL    HW193681   9.129   3.192   5.191 -0.3229 -0.0417 -0.4053
30413SOL    HW293682   9.227   3.293   5.246 -1.5138  1.1769 -0.4785
30414SOL     OW93683   7.754   9.113   1.859 -0.2501  0.3361  0.4791
30414SOL    HW193684   7.732   9.197   1.819 -1.0953  0.1052  0.4467
30414SOL    HW293685   7.703   9.111   1.940 -1.6181 -0.8745 -0.3558
30415SOL     OW93686   0.538   8.511   9.382  0.0858  0.2093  0.2045
30415SOL    HW193687   0.550   8.496   9.288 -0.2127 -1.3071  0.3861
30415SOL    HW293688   0.444   8.506   9.396 -0.0881  2.5688  0.2856
30416SOL     OW93689   0.375   7.081   8.408 -0.0387  0.7339 -0.2335
30416SOL    HW193690   0.397   7.134   8.485 -0.4908 -0.7612  0.9668
30416SOL    HW293691   0.394   7.139   8.334 -0.6694  2.6395  1.0043
30417SOL     OW93692   4.074   8.147   1.805 -0.7536  0.0757  0.2571
30417SOL    HW193693   4.029   8.230   1.789 -1.3736 -0.3779 -0.4734
30417SOL    HW293694   4.095   8.114   1.717  0.9166  0.2106  0.5748
30418SOL     OW93695   7.648   1.407   1.699 -0.0730 -0.1445 -0.3940
30418SOL    HW193696   7.556   1.385   1.681 -0.6332  1.7960 -0.2020
30418SOL    HW293697   7.694   1.324   1.693 -1.6630 -1.0137 -1.6346
30419SOL     OW93698   7.180   2.324   4.496 -0.3343 -0.5317 -0.6787
30419SOL    HW193699   7.146   2.236   4.482  1.2230 -0.9203 -2.4483
30419SOL    HW293700   7.274   2.312   4.508 -0.2146  0.8219 -0.0409
30420SOL     OW93701   0.955   7.372   5.546  0.3335 -0.5665 -0.0233
30420SOL    HW193702   1.022   7.419   5.596  1.0605 -2.4086  0.8298
30420SOL    HW293703   0.932   7.432   5.475  0.0289  1.7338  1.8624
30421SOL     OW93704   9.793   7.859   7.293 -0.0220 -0.2451 -0.3891
30421SOL    HW193705   9.811   7.953   7.304 -0.7741 -0.1204 -0.1500
30421SOL    HW293706   9.702   7.855   7.266 -0.1318 -0.9392  0.0579
30422SOL     OW93707   2.819   2.081   6.264  0.3316 -0.5432  0.0198
30422SOL    HW193708   2.876   2.056   6.337  0.5629 -0.9611 -0.2989
30422SOL    HW293709   2.767   2.002   6.247 -0.2180 -0.2213  0.1936
30423SOL     OW93710   0.597   9.289   2.089 -0.0689  0.1636  0.2577
30423SOL    HW193711   0.506   9.309   2.067 -0.4378 -0.3442  1.2655
30423SOL    HW293712   0.593   9.206   2.136  0.7797  0.7378  1.3981
30424SOL     OW93713   4.274   4.020   1.419  0.3311  0.2217  0.2575
30424SOL    HW193714   4.285   4.005   1.325  0.4404  1.0558  0.1229
30424SOL    HW293715   4.353   4.068   1.444 -0.6897  1.9586  0.3083
30425SOL     OW93716   7.152   5.378   1.450 -0.1825  0.3168 -0.1834
30425SOL    HW193717   7.137   5.317   1.378  0.7007 -0.6842  0.4564
30425SOL    HW293718   7.065   5.392   1.488 -0.2737 -1.3176  0.2658
30426SOL     OW93719   2.776  10.089   9.195 -0.6486  0.3535 -0.5793
30426SOL    HW193720   2.754  10.026   9.126  0.9605 -1.1831  0.2284
30426SOL    HW293721   2.867  10.114   9.177 -0.8503  1.4598 -0.1241
30427SOL     OW93722   3.916   7.060   3.385 -0.7180  0.1514  0.2907
30427SOL    HW193723   3.900   6.991   3.449 -2.1734  0.1772 -0.0012
30427SOL    HW293724   3.958   7.015   3.311 -0.0290 -0.0787  0.8131
30428SOL     OW93725   0.321   0.470   3.483  0.3931  0.2181  0.0180
30428SOL    HW193726   0.266   0.519   3.544  0.7583  2.3213 -1.2428
30428SOL    HW293727   0.336   0.530   3.410  1.0550 -1.7339 -1.5542
30429SOL     OW93728   3.345   5.795   6.836  0.1826  0.4767 -0.3643
30429SOL    HW193729   3.364   5.707   6.803  0.1391 -0.3550  1.7038
30429SOL    HW293730   3.431   5.837   6.843  0.6067 -0.6316  1.8313
30430SOL     OW93731   4.211   3.305  10.252 -0.5689 -0.1210  0.3209
30430SOL    HW193732   4.179   3.393  10.271  1.0107  0.8063 -1.0735
30430SOL    HW293733   4.211   3.299  10.157  1.8830 -0.5906  0.2751
30431SOL     OW93734   9.725   3.902  10.407  0.0073 -0.0347 -0.2242
30431SOL    HW193735   9.812   3.928  10.376  0.1304 -1.8749 -1.6427
30431SOL    HW293736   9.705   3.963  10.478  2.9456 -0.2891  0.9537
30432SOL     OW93737   3.179   0.781   6.147 -0.0597  0.3870  0.1839
30432SOL    HW193738   3.148   0.864   6.109  0.4888  1.2359  1.5213
30432SOL    HW293739   3.194   0.724   6.071  0.3849  1.8056 -0.8383
30433SOL     OW93740   5.512   3.217   4.999  0.2086 -0.3891  0.1883
30433SOL    HW193741   5.484   3.126   5.009 -1.2020 -0.0146 -0.1390
30433SOL    HW293742   5.453   3.267   5.056  0.5816  0.3771 -0.0842
30434SOL     OW93743   1.312   6.498   6.263 -0.1924  0.9623 -0.1190
30434SOL    HW193744   1.356   6.560   6.206  0.4138  1.0887  0.4814
30434SOL    HW293745   1.221   6.527   6.264  0.1412  2.0181  0.3953
30435SOL     OW93746   9.071   1.802   2.792 -0.6666 -0.0827 -0.0159
30435SOL    HW193747   9.065   1.884   2.841  0.1373 -1.2551  2.1497
30435SOL    HW293748   9.074   1.734   2.858  2.1879 -1.6730 -1.5755
30436SOL     OW93749   9.979   2.707   3.394  0.4039  0.1926 -0.4304
30436SOL    HW193750  10.056   2.651   3.386 -0.5409 -1.3358  0.7674
30436SOL    HW293751   9.915   2.669   3.334 -1.3297 -2.0494  2.5368
30437SOL     OW93752   1.159   1.640   0.340  0.3258  0.4442 -0.8041
30437SOL    HW193753   1.174   1.733   0.360 -1.1166  0.7292 -0.9775
30437SOL    HW293754   1.169   1.633   0.245 -0.0416  0.5181 -0.8487
30438SOL     OW93755   6.979   0.465   7.252  0.2764  0.2158 -0.2466
30438SOL    HW193756   7.072   0.463   7.272  0.1673 -1.5002  0.2744
30438SOL    HW293757   6.974   0.488   7.159  1.3577 -1.6943 -0.8278
30439SOL     OW93758   7.182  10.168   3.619 -0.0422  0.0232  0.1458
30439SOL    HW193759   7.213  10.257   3.640 -1.5794  0.1285  2.3268
30439SOL    HW293760   7.135  10.178   3.536 -0.7078  1.4008  0.6510
30440SOL     OW93761   4.064   8.406   6.153 -0.2914 -0.1869  0.4174
30440SOL    HW193762   4.103   8.485   6.115  1.3103 -1.1420 -0.0329
30440SOL    HW293763   3.994   8.383   6.092  0.5931 -0.2698 -0.6011
30441SOL     OW93764   5.929   9.784   4.745  0.0538 -0.5468 -0.0238
30441SOL    HW193765   5.930   9.778   4.841  1.5093 -1.3758 -0.0671
30441SOL    HW293766   6.021   9.779   4.720 -0.3580 -1.0582 -1.5146
30442SOL     OW93767   9.170   2.341   8.190  0.1305  0.4293 -0.0011
30442SOL    HW193768   9.182   2.308   8.279 -1.6699 -1.1063 -0.2698
30442SOL    HW293769   9.247   2.396   8.175  1.0914 -0.2274  2.0527
30443SOL     OW93770   0.897   4.922   2.019  0.2354  0.0549  0.4272
30443SOL    HW193771   0.934   5.007   2.043  0.4295 -0.3467  1.6092
30443SOL    HW293772   0.949   4.894   1.943 -0.0000  1.0886 -0.1297
30444SOL     OW93773   0.343   9.556   4.013 -0.7500 -0.7284  0.1193
30444SOL    HW193774   0.311   9.467   4.032 -0.1998 -1.2368 -1.1815
30444SOL    HW293775   0.335   9.563   3.918 -1.4982  0.9172  0.2795
30445SOL     OW93776   5.664   9.672   1.150 -0.3849  0.0384  0.3410
30445SOL    HW193777   5.737   9.690   1.090 -0.1564  1.8061  1.0929
30445SOL    HW293778   5.690   9.712   1.233 -1.4024 -0.9558  1.1779
30446SOL     OW93779   8.069   4.748   1.875 -0.0032 -0.4568 -0.6624
30446SOL    HW193780   8.124   4.688   1.925 -1.1862  1.5302  3.4226
30446SOL    HW293781   7.983   4.706   1.874 -0.4650  0.3641  0.8923
30447SOL     OW93782   0.646   6.609   0.078 -0.0110 -0.0986 -0.0690
30447SOL    HW193783   0.731   6.630   0.039  0.5081  0.7926  1.4781
30447SOL    HW293784   0.628   6.681   0.138 -0.2144 -1.9728  2.2564
30448SOL     OW93785   4.477   2.676   5.091  0.0017 -0.1693 -0.1566
30448SOL    HW193786   4.420   2.730   5.146  0.4264 -0.7314  0.8733
30448SOL    HW293787   4.564   2.713   5.104  0.1420 -0.4675 -0.2398
30449SOL     OW93788   0.367   4.521   5.730 -0.2973 -0.4397 -0.1654
30449SOL    HW193789   0.288   4.498   5.780  0.5166 -0.0081  1.3790
30449SOL    HW293790   0.364   4.616   5.724  0.1713 -0.4140  0.0143
30450SOL     OW93791  10.267   3.285   6.242 -0.0955 -0.5522 -0.2404
30450SOL    HW193792  10.359   3.280   6.214  0.5350  1.6900  1.1532
30450SOL    HW293793  10.235   3.367   6.203 -1.6809 -1.5090 -1.0516
30451SOL     OW93794   2.948   8.508   5.166 -0.6122  0.2005 -0.0676
30451SOL    HW193795   2.964   8.436   5.105 -0.4946  0.6242 -0.5468
30451SOL    HW293796   2.853   8.509   5.178 -0.6297  0.0665 -0.1859
30452SOL     OW93797   6.021   4.214   6.445 -0.6092 -0.2694  0.0466
30452SOL    HW193798   6.048   4.306   6.442 -1.6106  0.0836  1.1279
30452SOL    HW293799   5.948   4.209   6.384 -0.9457 -0.2042  0.4417
30453SOL     OW93800   4.931   2.067   5.894 -0.0693 -0.2678 -0.3149
30453SOL    HW193801   4.841   2.088   5.920  0.6835  0.2730  2.0265
30453SOL    HW293802   4.951   1.986   5.941  1.0513  0.2583  0.1441
30454SOL     OW93803   4.546   3.087   1.237 -0.6520  0.5246 -0.4444
30454SOL    HW193804   4.619   3.027   1.254 -0.5295  1.0526  1.0015
30454SOL    HW293805   4.496   3.044   1.167  0.9354  0.0722 -1.3631
30455SOL     OW93806   4.351   5.723   5.950  0.2699 -0.1200 -0.5521
30455SOL    HW193807   4.349   5.635   5.914 -1.8254  0.2314 -1.4460
30455SOL    HW293808   4.276   5.726   6.010  0.2389  1.0840 -0.6315
30456SOL     OW93809   9.607   5.894   4.043 -0.4359 -0.4082 -0.0261
30456SOL    HW193810   9.525   5.927   4.081 -1.2354 -0.2191 -1.7820
30456SOL    HW293811   9.673   5.957   4.070 -0.7516 -0.7935  1.7873
30457SOL     OW93812   7.123   7.593   5.403  0.1465  0.1723  0.0672
30457SOL    HW193813   7.119   7.605   5.498 -1.0248  0.2795  0.0156
30457SOL    HW293814   7.038   7.556   5.379 -0.2924  1.8017 -1.1561
30458SOL     OW93815   1.184   4.920   6.036  0.1854  0.5048 -0.4284
30458SOL    HW193816   1.236   4.844   6.065  0.1877  0.5451 -0.3275
30458SOL    HW293817   1.222   4.944   5.951 -0.9200 -0.6813 -1.3046
30459SOL     OW93818  10.224   2.265   3.808  0.0065 -0.1985 -0.5543
30459SOL    HW193819  10.151   2.210   3.839 -1.1663  0.9925 -1.1049
30459SOL    HW293820  10.242   2.324   3.881 -0.4930  0.3848 -0.8937
30460SOL     OW93821   2.585   4.301   2.890  0.2508 -0.3447  0.0842
30460SOL    HW193822   2.552   4.242   2.822  1.7723 -2.0839  0.8046
30460SOL    HW293823   2.677   4.277   2.901  0.3096  0.6082  2.0352
30461SOL     OW93824   3.397   5.974   6.363 -0.2069 -0.2157  0.0465
30461SOL    HW193825   3.397   5.996   6.270 -0.8201  0.9254  0.2976
30461SOL    HW293826   3.341   5.897   6.369  0.3067 -0.6521 -0.5960
30462SOL     OW93827   7.900   9.971   5.813 -0.5089  0.3082  0.4676
30462SOL    HW193828   7.902   9.931   5.900 -2.6495 -0.6919  0.1204
30462SOL    HW293829   7.984   9.946   5.774 -0.2845 -0.8114  1.5907
30463SOL     OW93830   9.699   2.821   6.277  0.1252 -0.0776  0.1682
30463SOL    HW193831   9.782   2.794   6.237 -0.3860 -1.0736 -0.2709
30463SOL    HW293832   9.701   2.916   6.276  1.2719 -0.0874  0.1868
30464SOL     OW93833   6.621   9.792   5.323 -0.1705 -0.1759  1.0369
30464SOL    HW193834   6.551   9.851   5.295 -1.4449 -3.0500 -2.8052
30464SOL    HW293835   6.677   9.784   5.246  0.1538 -3.4723  1.4636
30465SOL     OW93836   8.120   6.758   6.731 -0.1930 -0.2695  0.3499
30465SOL    HW193837   8.183   6.826   6.755  0.7063 -1.6641  2.1126
30465SOL    HW293838   8.044   6.775   6.787 -0.0489 -0.5965  0.6435
30466SOL     OW93839   2.916   1.757   3.214  0.0962 -0.4863  0.1666
30466SOL    HW193840   2.941   1.729   3.126 -0.1566  0.1549 -0.1171
30466SOL    HW293841   2.855   1.690   3.244 -2.0850  0.7026 -1.2788
30467SOL     OW93842  10.073   7.722   9.694 -0.3555 -0.5208 -0.0566
30467SOL    HW193843  10.029   7.806   9.710  0.1928 -0.6046  2.2592
30467SOL    HW293844  10.054   7.670   9.772  1.3392 -1.6594 -0.3580
30468SOL     OW93845   3.275   3.577   1.052  0.1212  0.2016  0.1011
30468SOL    HW193846   3.246   3.559   0.963  1.6555 -0.1782 -0.3649
30468SOL    HW293847   3.370   3.562   1.049  0.4896  2.0348  1.3334
30469SOL     OW93848   1.422   2.491   7.935 -0.3720  0.3403 -0.0062
30469SOL    HW193849   1.365   2.420   7.965 -0.5445  0.4904  0.0229
30469SOL    HW293850   1.510   2.455   7.941 -0.5156 -0.1984 -0.8735
30470SOL     OW93851   7.448   5.812   8.671 -0.1487  0.5258  0.6404
30470SOL    HW193852   7.449   5.827   8.577 -1.9970 -2.0772  0.0946
30470SOL    HW293853   7.404   5.888   8.708  0.1022  1.3086 -0.6302
30471SOL     OW93854   6.323   8.929   0.832 -0.1090  0.0140  0.2641
30471SOL    HW193855   6.280   8.916   0.748 -0.0616  3.5464 -0.4762
30471SOL    HW293856   6.252   8.932   0.896 -0.4931  0.6010 -0.1785
30472SOL     OW93857   8.142   5.026   4.357 -0.3444 -0.0891  0.4252
30472SOL    HW193858   8.140   4.966   4.283 -0.8304 -0.4029  0.6880
30472SOL    HW293859   8.160   4.970   4.433 -1.8858 -0.0740  0.8277
30473SOL     OW93860   1.831   0.261   9.789  0.3862 -0.5277 -0.2703
30473SOL    HW193861   1.858   0.220   9.872  0.5488 -1.5849 -0.8233
30473SOL    HW293862   1.887   0.338   9.781 -0.4476  0.2667  1.1812
30474SOL     OW93863   6.728   2.375   0.923  0.7280 -0.2204 -0.4043
30474SOL    HW193864   6.676   2.438   0.872 -0.9955 -1.2112  0.0532
30474SOL    HW293865   6.743   2.302   0.863 -2.2001 -1.8639  0.6561
30475SOL     OW93866   7.751   3.236   8.348 -0.6292 -0.2718 -0.5896
30475SOL    HW193867   7.768   3.284   8.267 -0.7356 -0.7678 -0.9043
30475SOL    HW293868   7.737   3.305   8.413  1.4364  0.1887 -0.5394
30476SOL     OW93869   0.180   6.802   0.282  0.2315  0.4544 -0.4721
30476SOL    HW193870   0.157   6.781   0.191  0.1285 -0.4493 -0.2492
30476SOL    HW293871   0.140   6.731   0.333  0.8314  0.6082  0.2188
30477SOL     OW93872   3.553   9.486   4.291  0.1335 -0.2947 -0.4689
30477SOL    HW193873   3.620   9.419   4.306 -0.1060 -0.8190 -1.6358
30477SOL    HW293874   3.574   9.521   4.204 -0.9903 -0.3246 -0.7572
30478SOL     OW93875   3.508   3.870   0.802 -0.1835 -0.4182 -0.0088
30478SOL    HW193876   3.461   3.879   0.885 -1.2700  0.0816 -0.6414
30478SOL    HW293877   3.528   3.960   0.776 -1.5994 -0.3886 -1.2027
30479SOL     OW93878  10.445   4.278  10.017  0.1086  0.7008 -0.4501
30479SOL    HW193879  10.355   4.276  10.051 -0.3699 -1.4310 -1.6872
30479SOL    HW293880  10.463   4.371  10.005 -2.0356  1.1846 -0.3921
30480SOL     OW93881   1.289   1.414   0.151 -0.4130  0.1460  0.4854
30480SOL    HW193882   1.371   1.393   0.197 -0.9337 -1.0386  0.9141
30480SOL    HW293883   1.230   1.342   0.173 -1.2990  0.5365 -0.5262
30481SOL     OW93884   9.475   9.828   1.277 -0.1839  0.0290  0.2076
30481SOL    HW193885   9.472   9.819   1.181  0.4167  1.0780  0.0865
30481SOL    HW293886   9.566   9.812   1.300 -0.3715 -0.4627  0.6503
30482SOL     OW93887   0.798   6.551  10.033  0.2566 -0.0218  0.1500
30482SOL    HW193888   0.719   6.504  10.006  0.0213  0.6995 -0.4821
30482SOL    HW293889   0.772   6.643  10.032  0.7539  0.1439  1.1899
30483SOL     OW93890   2.549   7.753   3.691  0.1979 -0.4698 -0.0340
30483SOL    HW193891   2.595   7.831   3.660 -0.8998  0.1833 -0.0828
30483SOL    HW293892   2.519   7.710   3.610  1.9643 -1.7032 -0.0717
30484SOL     OW93893   5.029   4.015   1.448 -0.3617 -0.3572 -0.3811
30484SOL    HW193894   5.009   3.923   1.466  0.0133 -0.0949  1.5363
30484SOL    HW293895   4.954   4.063   1.481 -0.7741  0.0343 -1.8078
30485SOL     OW93896   5.291   2.247  10.364  0.0724 -0.2722  0.1371
30485SOL    HW193897   5.345   2.169  10.367 -1.5010 -1.4527 -0.5481
30485SOL    HW293898   5.268   2.257  10.272 -0.9224  0.1251  0.4099
30486SOL     OW93899   4.258   7.213   7.418 -0.6743 -0.0290  0.4184
30486SOL    HW193900   4.322   7.155   7.375  0.0579  0.1720  1.2097
30486SOL    HW293901   4.301   7.240   7.499 -1.7377  0.1939  0.9232
30487SOL     OW93902   0.487   2.376   6.058  0.2354 -0.2420  0.4887
30487SOL    HW193903   0.441   2.293   6.071  0.7450 -0.8485 -1.3102
30487SOL    HW293904   0.579   2.352   6.046  0.4653  0.6321  0.3713
30488SOL     OW93905   1.914   7.491   3.737 -0.3125  0.1052  0.1296
30488SOL    HW193906   1.980   7.546   3.695 -0.9045  0.5149 -0.2809
30488SOL    HW293907   1.910   7.522   3.827 -0.7144  0.8097 -0.1253
30489SOL     OW93908   8.652   2.826   6.949 -0.2365  0.3831 -0.0012
30489SOL    HW193909   8.629   2.838   7.041 -1.6255 -0.2440 -0.2297
30489SOL    HW293910   8.725   2.764   6.950  1.5095  2.3666  0.7630
30490SOL     OW93911   8.970   2.093   5.104  0.5942  0.4034  0.6211
30490SOL    HW193912   8.891   2.064   5.060  0.7064  0.4898  0.3608
30490SOL    HW293913   8.959   2.065   5.195  0.2320  0.4888  0.6016
30491SOL     OW93914   7.244  10.354   5.143 -0.9233 -0.2986 -0.1204
30491SOL    HW193915   7.232  10.416   5.071  0.7953  0.3212  0.0649
30491SOL    HW293916   7.209  10.399   5.219 -0.3985  0.1401 -0.1292
30492SOL     OW93917   4.608   1.108   9.390 -0.1679  0.2618 -0.4124
30492SOL    HW193918   4.647   1.162   9.321 -0.0358  0.6700 -0.0207
30492SOL    HW293919   4.575   1.170   9.454 -1.1014 -0.0913 -0.5356
30493SOL     OW93920   1.132   2.118   3.428 -0.0112  0.3538 -0.6042
30493SOL    HW193921   1.159   2.137   3.518  0.2461 -2.0538 -0.1302
30493SOL    HW293922   1.048   2.074   3.437 -0.1024  0.3103 -1.5745
30494SOL     OW93923   5.489   0.329   2.312 -0.0291 -0.1578  0.3907
30494SOL    HW193924   5.555   0.353   2.377  1.7330 -0.8213 -1.0816
30494SOL    HW293925   5.485   0.233   2.315  1.7672 -0.3914 -1.9693
30495SOL     OW93926   2.190   1.619   4.085  0.6067  0.3158 -0.2331
30495SOL    HW193927   2.123   1.552   4.095  0.6218  0.4468  0.8719
30495SOL    HW293928   2.144   1.695   4.051  0.5670 -0.1962 -1.3772
30496SOL     OW93929   1.017   2.094   4.586 -0.5037 -0.2015 -0.1136
30496SOL    HW193930   1.005   2.095   4.491 -0.0821  0.5091 -0.1687
30496SOL    HW293931   1.104   2.133   4.600 -0.0438 -1.4050  0.4970
30497SOL     OW93932   0.700   2.850   3.036  0.6215  1.0373 -1.2879
30497SOL    HW193933   0.628   2.905   3.007  1.2741  2.0373 -1.0504
30497SOL    HW293934   0.727   2.802   2.958  0.0554  1.0520 -1.4987
30498SOL     OW93935   2.129  10.205   6.467  0.7134 -0.5343 -0.4536
30498SOL    HW193936   2.061  10.138   6.463 -1.6864  1.7226  0.0651
30498SOL    HW293937   2.140  10.233   6.376 -0.5810  0.4889 -0.3161
30499SOL     OW93938   4.783   8.819   5.273 -0.0177 -0.5743 -0.6856
30499SOL    HW193939   4.737   8.814   5.189 -0.1802 -0.0714 -0.6266
30499SOL    HW293940   4.832   8.901   5.269  0.3663 -0.7939 -0.4897
30500SOL     OW93941   2.911   6.233   0.459  0.4183  0.1454  0.2017
30500SOL    HW193942   2.855   6.232   0.382  1.0630  0.9574 -0.2931
30500SOL    HW293943   2.999   6.248   0.425  0.9031 -0.7617  0.9971
30501SOL     OW93944   6.034   9.214   7.321  0.1976  0.1635 -0.1192
30501SOL    HW193945   6.092   9.180   7.253 -0.4037  1.6796 -1.4410
30501SOL    HW293946   6.056   9.307   7.328 -0.8845  0.3857  0.5807
30502SOL     OW93947   8.834   3.491   1.554  0.3673 -0.1116 -0.0779
30502SOL    HW193948   8.835   3.415   1.496 -0.6197  1.5817 -2.4399
30502SOL    HW293949   8.901   3.549   1.520 -0.9253  1.3699 -0.2178
30503SOL     OW93950   4.243   2.340   0.584  0.0735  0.2815  0.8797
30503SOL    HW193951   4.168   2.393   0.559  0.6877  1.3948  1.3411
30503SOL    HW293952   4.227   2.316   0.675 -0.7127 -1.2488  0.3691
30504SOL     OW93953   2.499   8.278   1.236  0.0255 -0.0840  0.3552
30504SOL    HW193954   2.425   8.285   1.297  0.9921 -0.7111  1.6603
30504SOL    HW293955   2.519   8.184   1.233 -0.1574 -0.0971 -1.1598
30505SOL     OW93956   3.714   0.950   3.216 -0.2970  0.7356 -0.5072
30505SOL    HW193957   3.794   0.898   3.228 -0.1808  0.9986 -0.0944
30505SOL    HW293958   3.727   0.996   3.134 -0.8459 -0.6709 -1.4205
30506SOL     OW93959   9.864   3.849   9.716 -0.2918 -0.6242 -0.3880
30506SOL    HW193960   9.798   3.798   9.763 -0.7019 -0.8013 -1.1337
30506SOL    HW293961   9.864   3.934   9.759  0.5676 -1.3076  1.0262
30507SOL     OW93962   6.101   9.083   3.411  0.6833  0.1081 -0.2869
30507SOL    HW193963   6.092   9.154   3.348  0.6607  0.3993  0.0373
30507SOL    HW293964   6.192   9.055   3.403  1.2094  1.3994  0.8488
30508SOL     OW93965   6.497   8.056   5.035 -0.0190 -0.2220 -0.4978
30508SOL    HW193966   6.539   8.031   5.118  1.8641 -1.8446 -1.8680
30508SOL    HW293967   6.404   8.061   5.056  0.4546 -0.0045  1.8362
30509SOL     OW93968   4.214  10.385   6.323 -0.1609 -0.5066 -0.6827
30509SOL    HW193969   4.227  10.293   6.297  1.9111 -0.6383  0.5736
30509SOL    HW293970   4.252  10.436   6.251 -1.4186 -0.5884 -1.4375
30510SOL     OW93971   2.541   7.360   5.252  0.3915 -0.1405  0.3107
30510SOL    HW193972   2.477   7.427   5.228 -1.4110 -0.6469  3.2690
30510SOL    HW293973   2.623   7.408   5.261  0.0651  0.8872 -1.5057
30511SOL     OW93974   7.887   9.870   9.697 -0.6187  0.4268 -0.7371
30511SOL    HW193975   7.829   9.942   9.675  0.3152  1.4519 -0.0115
30511SOL    HW293976   7.949   9.908   9.760 -0.1101 -1.0149 -0.3227
30512SOL     OW93977   1.695   8.341   9.564 -0.0355  0.0368  0.1904
30512SOL    HW193978   1.650   8.269   9.520 -0.2809  0.3091 -0.0067
30512SOL    HW293979   1.702   8.409   9.498  0.5220  0.0612  0.2706
30513SOL     OW93980   9.706   1.930   2.814 -0.3295 -0.6828  0.1057
30513SOL    HW193981   9.757   2.001   2.775 -0.8520 -0.0738  0.5091
30513SOL    HW293982   9.707   1.861   2.749 -0.3151 -0.0722 -0.5518
30514SOL     OW93983   3.887   8.520   5.870 -0.1607  0.1359 -0.3057
30514SOL    HW193984   3.821   8.479   5.813  0.9873 -2.3690  0.0314
30514SOL    HW293985   3.866   8.488   5.957  1.7984 -1.2512 -0.2731
30515SOL     OW93986   0.445   1.557   2.140  0.7942  0.0149 -0.2834
30515SOL    HW193987   0.521   1.498   2.148  1.2206  0.6114  0.0956
30515SOL    HW293988   0.458   1.601   2.056  0.9684  0.2520 -0.1336
30516SOL     OW93989   3.291   8.284   4.468 -0.1056  0.7974  0.1740
30516SOL    HW193990   3.367   8.317   4.517 -0.7471  1.2337  0.8904
30516SOL    HW293991   3.320   8.201   4.432 -0.2147 -0.5110  2.9212
30517SOL     OW93992   9.773   3.672   9.104  0.8616  0.3450  0.6333
30517SOL    HW193993   9.716   3.748   9.112  1.4920  0.6898  2.3402
30517SOL    HW293994   9.714   3.597   9.102  0.2799  0.8096  0.1443
30518SOL     OW93995   9.027   2.500   2.081 -0.3033  0.1020 -0.1101
30518SOL    HW193996   9.116   2.525   2.108 -0.2508  0.7496 -0.8620
30518SOL    HW293997   8.984   2.582   2.059 -0.4924 -0.3471 -1.5325
30519SOL     OW93998   2.488   3.955   5.849  0.4807  0.2772 -0.4377
30519SOL    HW193999   2.542   3.882   5.879  1.4634  0.9846 -0.4388
30519SOL    HW294000   2.486   3.945   5.754  1.6113  0.9063 -0.5444
30520SOL     OW94001   8.780   7.804   0.528 -0.2189  0.1661  0.4859
30520SOL    HW194002   8.760   7.827   0.619  0.1804  2.0878  0.1289
30520SOL    HW294003   8.713   7.847   0.477 -0.4430 -0.9102 -0.1615
30521SOL     OW94004   0.124   1.610   6.886 -0.3033  0.1707  0.2408
30521SOL    HW194005   0.050   1.569   6.841 -0.6150 -0.8223  1.5751
30521SOL    HW294006   0.201   1.562   6.856 -0.1373  1.3780 -1.3502
30522SOL     OW94007   6.626   3.678   1.139  0.4245  0.4118 -0.2481
30522SOL    HW194008   6.631   3.583   1.140  1.6051  0.4361 -1.2240
30522SOL    HW294009   6.532   3.697   1.131  0.2784 -0.7024 -1.6316
30523SOL     OW94010   2.703   6.443   4.635 -0.1162 -0.0048 -0.1973
30523SOL    HW194011   2.653   6.446   4.716 -0.4499  0.1682 -0.4057
30523SOL    HW294012   2.728   6.351   4.625 -0.9203 -0.2101 -0.4028
30524SOL     OW94013   5.552   0.211   3.435 -0.1068  0.1762  0.7850
30524SOL    HW194014   5.595   0.143   3.486  1.1777 -0.1587 -0.6727
30524SOL    HW294015   5.543   0.173   3.347 -1.3039  1.1167  0.4728
30525SOL     OW94016   4.013   5.616   3.697  0.2374 -0.3141  0.1855
30525SOL    HW194017   4.020   5.710   3.711  2.0595 -0.4188  0.1799
30525SOL    HW294018   4.097   5.590   3.659 -0.5460 -1.8112 -0.6711
30526SOL     OW94019   8.627   1.778   3.887  0.4602  0.2924 -0.9580
30526SOL    HW194020   8.632   1.686   3.861  0.4759  0.1361 -0.4182
30526SOL    HW294021   8.707   1.793   3.937  0.6327  0.6997 -1.3509
30527SOL     OW94022   5.416   3.386   4.737 -0.0639 -0.4379  0.4450
30527SOL    HW194023   5.489   3.386   4.799 -0.3381  0.6145  0.7958
30527SOL    HW294024   5.457   3.371   4.652  0.6422  0.6387  0.5751
30528SOL     OW94025   2.556   7.173   4.155 -0.0585 -0.4760  0.3073
30528SOL    HW194026   2.607   7.227   4.216 -1.0168  0.6205  0.1594
30528SOL    HW294027   2.578   7.208   4.068 -0.8634 -0.1808  0.2242
30529SOL     OW94028   3.622   2.262   7.777 -0.2895 -0.4708 -0.1149
30529SOL    HW194029   3.698   2.316   7.798 -0.4083 -0.5878  0.6589
30529SOL    HW294030   3.614   2.268   7.682 -0.4775  1.1387 -0.0355
30530SOL     OW94031   3.332   4.493   0.004  0.2542  0.2752  0.9074
30530SOL    HW194032   3.241   4.469  -0.010  0.5029 -0.3145  0.1971
30530SOL    HW294033   3.330   4.559   0.073 -0.6407 -0.2990  1.4439
30531SOL     OW94034   4.877   2.433   4.128 -0.3804  0.0022  0.0274
30531SOL    HW194035   4.858   2.352   4.081  3.2043 -2.4243  2.2172
30531SOL    HW294036   4.834   2.422   4.213 -1.3632  1.3072 -0.2745
30532SOL     OW94037   4.379   6.049   0.026 -0.1889  0.0718 -0.0309
30532SOL    HW194038   4.336   6.032   0.110  1.6792 -1.1187  0.7623
30532SOL    HW294039   4.424   5.967   0.006  1.9622  1.3090 -0.5930
30533SOL     OW94040   8.204   0.894  10.321 -0.0666 -0.5253  0.0899
30533SOL    HW194041   8.162   0.832  10.261 -1.1715  0.6208 -0.3405
30533SOL    HW294042   8.294   0.900  10.288 -0.3993 -0.6301 -0.8762
30534SOL     OW94043   6.353   5.891   6.923 -0.0272  0.9154 -0.1794
30534SOL    HW194044   6.367   5.922   6.834  2.5462  0.0913 -0.1482
30534SOL    HW294045   6.339   5.797   6.914 -1.3425  1.0649  0.1900
30535SOL     OW94046   2.534   2.841   1.918 -0.6255 -0.3086 -0.1911
30535SOL    HW194047   2.443   2.868   1.909 -0.8736 -0.6153  1.1999
30535SOL    HW294048   2.578   2.919   1.951 -0.8345 -0.7950  1.2940
30536SOL     OW94049   7.878   0.315   6.433  0.2451  0.2312 -0.4765
30536SOL    HW194050   7.818   0.323   6.508  0.5253 -0.3396 -0.1868
30536SOL    HW294051   7.845   0.379   6.370  0.2841  1.0572  0.3192
30537SOL     OW94052   7.721   4.712   7.901 -0.0739 -0.0818 -0.5551
30537SOL    HW194053   7.647   4.767   7.876  0.0196  0.1028 -0.4253
30537SOL    HW294054   7.798   4.761   7.872  0.1287  0.8149  1.3355
30538SOL     OW94055   6.548   9.867   3.109 -0.5254 -0.1255 -0.0413
30538SOL    HW194056   6.636   9.833   3.123 -0.0852 -0.2199 -2.5217
30538SOL    HW294057   6.491   9.791   3.119 -0.1106 -0.4772 -0.3486
30539SOL     OW94058   5.447   8.555   8.421  0.3882  0.0347 -0.7559
30539SOL    HW194059   5.437   8.460   8.412  0.6135  0.0943 -1.7372
30539SOL    HW294060   5.522   8.566   8.480 -0.6536 -0.3807  0.7169
30540SOL     OW94061   1.733   4.510   6.805  0.0918  0.0407 -0.4829
30540SOL    HW194062   1.737   4.585   6.745 -0.7442  0.5699  0.1001
30540SOL    HW294063   1.642   4.480   6.799  0.6902 -1.7382 -1.6503
30541SOL     OW94064   9.517  10.100   8.103  0.5481  0.3578  0.3049
30541SOL    HW194065   9.460  10.023   8.110 -0.6449  1.1843  0.0253
30541SOL    HW294066   9.606  10.064   8.109  0.0075 -0.9235  1.1623
30542SOL     OW94067   9.445   0.146   3.859  1.1597  0.2117  0.1052
30542SOL    HW194068   9.448   0.224   3.913  0.5244 -0.3917  1.0510
30542SOL    HW294069   9.536   0.121   3.847  1.2965 -0.3312  1.9640
30543SOL     OW94070   1.424   5.805   2.722 -0.5218 -0.4893 -0.0616
30543SOL    HW194071   1.496   5.771   2.776 -1.4104 -1.1213  0.7747
30543SOL    HW294072   1.368   5.728   2.707 -1.2086  0.0661 -0.3748
30544SOL     OW94073   4.948   1.491   7.447  0.1567 -0.1383 -0.9607
30544SOL    HW194074   4.928   1.519   7.358  0.3162 -0.9545 -1.2514
30544SOL    HW294075   4.877   1.432   7.471 -0.1292  0.4329 -0.3755
30545SOL     OW94076   6.728   1.132   0.007  0.1012 -0.4689  0.3591
30545SOL    HW194077   6.805   1.177  -0.030  0.0481 -0.4986  0.2099
30545SOL    HW294078   6.669   1.123  -0.068 -0.4264  0.3474  0.6646
30546SOL     OW94079   4.449   0.189   4.437  0.1265  0.6411 -0.3984
30546SOL    HW194080   4.431   0.110   4.386 -1.9209 -0.0486  1.2754
30546SOL    HW294081   4.418   0.260   4.382 -0.4921  0.0443 -0.8477
30547SOL     OW94082   6.763   2.851   1.227 -0.0560 -0.3301 -0.1241
30547SOL    HW194083   6.838   2.911   1.223 -0.6185  0.5088  1.1497
30547SOL    HW294084   6.697   2.893   1.172 -0.2207 -0.1065  0.2389
30548SOL     OW94085   3.295   3.799   1.212 -0.0404 -0.2008 -0.2190
30548SOL    HW194086   3.307   3.872   1.151  0.4256 -0.2150 -0.1524
30548SOL    HW294087   3.281   3.723   1.155 -0.9198 -0.0015 -0.2815
30549SOL     OW94088   9.266   2.101   4.109 -0.4963  0.1586 -0.0926
30549SOL    HW194089   9.215   2.150   4.173 -1.5161  1.6962 -1.9763
30549SOL    HW294090   9.355   2.102   4.143 -0.9633  1.1838  1.1645
30550SOL     OW94091   8.870   3.700   5.637  0.4698 -0.0552 -0.3281
30550SOL    HW194092   8.847   3.652   5.716 -0.4555 -0.3993 -0.7871
30550SOL    HW294093   8.965   3.702   5.636  0.4906 -0.5730  0.4787
30551SOL     OW94094   0.159   1.056   3.746  0.4271 -0.5006  0.6209
30551SOL    HW194095   0.208   0.977   3.724  0.2037 -0.7047  0.8488
30551SOL    HW294096   0.133   1.044   3.837  1.6933  0.5137  1.1632
30552SOL     OW94097   2.415   5.009   9.692  0.1740  0.2934  0.7130
30552SOL    HW194098   2.415   4.918   9.662 -1.9769  0.2847  0.5780
30552SOL    HW294099   2.453   5.005   9.780  2.8780 -0.2517 -0.3879
30553SOL     OW94100   9.446   9.230   9.323  0.1298 -0.1570  0.0701
30553SOL    HW194101   9.448   9.251   9.230 -0.4844 -0.9643 -0.1388
30553SOL    HW294102   9.353   9.215   9.342  0.1048  1.0053  1.0582
30554SOL     OW94103   2.071   5.515   0.183 -0.2492 -0.4582  0.1213
30554SOL    HW194104   2.059   5.559   0.099  0.6477  0.6291  0.5331
30554SOL    HW294105   2.165   5.500   0.189 -0.1090  0.7374  1.5094
30555SOL     OW94106  10.230   8.495   5.616 -0.5014  0.2075 -0.3946
30555SOL    HW194107  10.233   8.494   5.520 -0.2772  0.1677 -0.3858
30555SOL    HW294108  10.234   8.403   5.641  0.2182  0.2564 -0.3202
30556SOL     OW94109  10.224   1.368   9.160 -0.1748 -0.6584  0.0707
30556SOL    HW194110  10.275   1.343   9.237  2.1457  0.5013 -1.0004
30556SOL    HW294111  10.145   1.407   9.197  1.8353  1.9311  2.0470
30557SOL     OW94112   2.473   5.967   9.895 -0.1353 -0.2623 -0.0693
30557SOL    HW194113   2.539   5.906   9.929  0.2723 -0.5109 -1.2423
30557SOL    HW294114   2.412   5.980   9.968  1.0809 -0.2096  0.9712
30558SOL     OW94115   9.905   7.982   6.227  0.3260  0.5948  0.1111
30558SOL    HW194116   9.822   7.937   6.242  1.4605 -1.1599  1.4531
30558SOL    HW294117   9.910   8.047   6.297 -0.5818  1.8298 -0.9047
30559SOL     OW94118   7.843   0.691   5.065 -0.4464 -0.3867 -0.5421
30559SOL    HW194119   7.859   0.785   5.058 -3.0922  0.1676 -0.2186
30559SOL    HW294120   7.846   0.659   4.975  1.6681 -0.2731 -0.5501
30560SOL     OW94121   5.945   9.565   2.712 -0.1508 -0.6022  0.5226
30560SOL    HW194122   5.877   9.611   2.663 -0.7843 -1.0181  0.9816
30560SOL    HW294123   5.924   9.583   2.804 -0.5734 -2.0002  0.7227
30561SOL     OW94124   5.201   9.077   1.859 -0.1796  0.4374  0.6652
30561SOL    HW194125   5.272   9.012   1.861  0.2300  0.7464 -1.4202
30561SOL    HW294126   5.146   9.050   1.786 -1.1914  1.2801  1.0864
30562SOL     OW94127   5.586   1.814   4.862 -0.1368 -0.1675  0.5852
30562SOL    HW194128   5.585   1.758   4.784 -2.2874  0.9206 -0.2487
30562SOL    HW294129   5.657   1.876   4.845 -0.4278 -0.0829 -0.4108
30563SOL     OW94130   6.580   5.196   4.381 -0.5720  0.6034  0.2457
30563SOL    HW194131   6.563   5.289   4.394 -0.1488  0.6384  0.5430
30563SOL    HW294132   6.640   5.192   4.307 -1.2770  0.5161 -0.3322
30564SOL     OW94133   7.686   2.473   7.488 -0.2456  0.5758 -0.1009
30564SOL    HW194134   7.764   2.492   7.435 -1.2648  0.2498 -1.8055
30564SOL    HW294135   7.696   2.382   7.514 -0.6847  0.1016 -1.5069
30565SOL     OW94136   4.718   1.889   0.103  0.3110 -0.3763  0.1224
30565SOL    HW194137   4.677   1.927   0.181  1.8758 -0.0785  0.8206
30565SOL    HW294138   4.812   1.896   0.119  0.7161  1.1818 -2.5187
30566SOL     OW94139   6.128   6.483   9.744  0.1747  0.0201  0.0627
30566SOL    HW194140   6.070   6.544   9.698  1.2568  2.8053  2.0727
30566SOL    HW294141   6.204   6.473   9.687 -0.0428  0.5562 -0.3295
30567SOL     OW94142   8.657   1.616   8.517  0.3073  0.1117 -0.0415
30567SOL    HW194143   8.573   1.657   8.537  0.5805  0.6632 -0.0312
30567SOL    HW294144   8.682   1.652   8.432  0.2998 -0.4288 -0.2803
30568SOL     OW94145   3.343   7.828   5.869 -0.6134 -0.5138  0.2969
30568SOL    HW194146   3.431   7.836   5.831 -0.9834  0.6914 -0.3522
30568SOL    HW294147   3.322   7.735   5.863 -0.3676 -0.4688 -1.7890
30569SOL     OW94148  10.377   2.787   4.816 -0.1541 -0.4513  0.0304
30569SOL    HW194149  10.464   2.812   4.846  0.5831 -0.7293 -1.7438
30569SOL    HW294150  10.387   2.698   4.783 -1.9285 -1.8629  2.9190
30570SOL     OW94151   4.787   1.471   9.736  0.3485  0.5302  0.3639
30570SOL    HW194152   4.805   1.458   9.643 -1.2820  0.3926  0.0334
30570SOL    HW294153   4.811   1.562   9.752  1.6490  0.2513  0.0759
30571SOL     OW94154   7.887   9.716   8.067  0.3272 -0.4809  0.3207
30571SOL    HW194155   7.974   9.748   8.094  0.3696  0.7404 -1.1303
30571SOL    HW294156   7.845   9.689   8.148  0.9171  1.8162  1.4816
30572SOL     OW94157   3.119   5.657   1.623 -0.6012 -0.3037  0.0099
30572SOL    HW194158   3.077   5.619   1.546 -1.4458 -0.0668  0.3447
30572SOL    HW294159   3.089   5.603   1.697  1.5064 -1.5769  0.0248
30573SOL     OW94160   0.865   9.716   5.712  0.0843  0.1704  0.0962
30573SOL    HW194161   0.814   9.642   5.744 -1.5084  1.2887  0.2416
30573SOL    HW294162   0.938   9.723   5.774  0.5631 -1.5626 -0.2193
30574SOL     OW94163   2.150   2.353   5.177 -0.5592  0.1480  0.2440
30574SOL    HW194164   2.070   2.302   5.164 -2.8795  3.2079  1.1433
30574SOL    HW294165   2.137   2.395   5.262  2.0504  0.7703  0.4028
30575SOL     OW94166   8.895   9.412  10.059  0.1767  0.0329 -0.0776
30575SOL    HW194167   8.851   9.328  10.069 -1.2854  0.7026 -0.6626
30575SOL    HW294168   8.829   9.477  10.082  1.0068  1.0689 -0.5167
30576SOL     OW94169  10.161   7.140   1.978 -0.3923  0.1953  0.4465
30576SOL    HW194170  10.212   7.221   1.989  1.1034 -0.7869  1.1809
30576SOL    HW294171  10.072   7.170   1.961  0.5133  2.0357 -1.6603
30577SOL     OW94172   5.008   3.575   0.384  0.3188 -0.8010 -0.1304
30577SOL    HW194173   5.082   3.631   0.407 -1.1698  0.6273  1.4951
30577SOL    HW294174   5.009   3.506   0.451  0.2254 -0.8042 -0.1320
30578SOL     OW94175   4.689   0.726   5.238 -0.1765 -0.3955  0.3373
30578SOL    HW194176   4.615   0.786   5.246 -0.0691 -0.1032 -0.7619
30578SOL    HW294177   4.653   0.641   5.266 -1.2003 -0.4432 -1.0191
30579SOL     OW94178   1.308   2.238   3.654  0.3984  0.1116  0.0909
30579SOL    HW194179   1.347   2.313   3.609 -0.5779  0.1237 -0.7722
30579SOL    HW294180   1.283   2.273   3.740 -0.7575  1.0229 -0.5776
30580SOL     OW94181   3.938   2.710   4.229  0.2808  0.0084 -0.2483
30580SOL    HW194182   3.905   2.621   4.234  0.0892  0.0820 -0.2047
30580SOL    HW294183   4.026   2.701   4.193  0.9685 -0.3589  1.4282
30581SOL     OW94184   1.382   9.562   7.370 -0.1132  0.4080  0.0695
30581SOL    HW194185   1.359   9.643   7.325  0.6059  0.3879 -0.3444
30581SOL    HW294186   1.319   9.556   7.443 -1.9846 -0.0863 -1.5032
30582SOL     OW94187   7.807   2.076   4.348  0.0471  0.2652  0.2085
30582SOL    HW194188   7.848   2.126   4.419 -1.0180  1.8336 -0.2458
30582SOL    HW294189   7.813   2.133   4.272  1.8750 -1.7002 -1.2422
30583SOL     OW94190   9.584   8.074   9.854 -0.1079  0.0001  0.3843
30583SOL    HW194191   9.550   8.017   9.785 -0.9621  0.2230  0.6048
30583SOL    HW294192   9.624   8.147   9.808  1.2736 -0.9199  0.0911
30584SOL     OW94193   2.695   3.169   7.425  0.4011  0.2013  0.0502
30584SOL    HW194194   2.767   3.106   7.428  1.4447  1.3519 -0.1142
30584SOL    HW294195   2.617   3.118   7.447  1.3703 -0.9160  1.0030
30585SOL     OW94196   2.546   0.823   8.659  0.4731  0.7066  0.2373
30585SOL    HW194197   2.527   0.785   8.745 -1.0060 -0.6492 -0.6455
30585SOL    HW294198   2.469   0.875   8.638  1.2456  1.8539  0.1238
30586SOL     OW94199   6.358   3.173   0.062  0.6699 -0.2636 -0.1608
30586SOL    HW194200   6.289   3.213   0.115 -0.0654 -0.2985 -1.0635
30586SOL    HW294201   6.390   3.100   0.114  0.3645  0.0515  0.4773
30587SOL     OW94202   4.988   0.197   7.990 -0.2239  0.2127  0.7276
30587SOL    HW194203   5.041   0.150   8.053  0.5491  1.1669  0.8100
30587SOL    HW294204   4.923   0.244   8.043 -0.7032 -0.3711  0.6750
30588SOL     OW94205   2.864   1.398   6.632 -0.5166  0.3829  0.1175
30588SOL    HW194206   2.810   1.426   6.558  1.3335 -1.2703 -1.9651
30588SOL    HW294207   2.824   1.317   6.662 -0.4276  0.2849 -0.0281
30589SOL     OW94208   3.297   5.583   5.390  0.0771  0.4441 -0.0933
30589SOL    HW194209   3.248   5.502   5.376  0.4105  0.0684  0.7837
30589SOL    HW294210   3.284   5.603   5.483  0.7708  0.8717 -0.0783
30590SOL     OW94211   4.195   6.444   4.466 -0.0960 -0.1192  0.1992
30590SOL    HW194212   4.154   6.454   4.552 -0.6808 -1.1827  0.0650
30590SOL    HW294213   4.287   6.423   4.485 -0.6154 -2.1750  0.6435
30591SOL     OW94214   7.357  10.088   3.974 -0.0706 -0.1358 -0.2807
30591SOL    HW194215   7.285  10.134   3.931 -1.4738 -0.4656  1.6219
30591SOL    HW294216   7.347  10.108   4.067  1.8526 -0.8273  0.1277
30592SOL     OW94217   4.578  10.109   8.662  0.2226  0.4004  0.2605
30592SOL    HW194218   4.596  10.202   8.677  1.7615  0.2498 -0.4258
30592SOL    HW294219   4.639  10.063   8.719  0.2803 -0.1840 -0.2579
30593SOL     OW94220   6.207   4.443   5.844 -0.1577 -0.1620  0.4645
30593SOL    HW194221   6.150   4.391   5.787 -1.3583  0.2851  1.2182
30593SOL    HW294222   6.296   4.422   5.815 -0.7213  0.5813 -2.0486
30594SOL     OW94223   2.769   0.337   5.399  0.0032 -0.5923 -0.3725
30594SOL    HW194224   2.772   0.314   5.307  0.7933 -3.0811  0.2064
30594SOL    HW294225   2.857   0.320   5.432 -0.2898  0.1226  0.8885
30595SOL     OW94226   6.409   1.522   3.672  0.1083 -0.4546 -0.4260
30595SOL    HW194227   6.343   1.494   3.736  1.2046 -0.3126  0.8133
30595SOL    HW294228   6.380   1.484   3.589 -1.4651 -0.4727  0.0982
30596SOL     OW94229   3.227   1.386   8.935 -0.0627  0.5412 -0.1845
30596SOL    HW194230   3.174   1.362   8.860  0.3748  0.7156 -0.5506
30596SOL    HW294231   3.240   1.481   8.927 -0.3767  0.6325  0.3437
30597SOL     OW94232   3.204   0.834   3.052  0.4985  0.0843  0.2138
30597SOL    HW194233   3.201   0.921   3.091  0.4820  1.3904 -2.4415
30597SOL    HW294234   3.168   0.776   3.118 -0.6859  2.2746  1.5978
30598SOL     OW94235   2.106   5.232   0.041  0.0994 -0.7508 -0.6439
30598SOL    HW194236   2.032   5.224  -0.019 -0.4533  1.2621 -0.3089
30598SOL    HW294237   2.155   5.307   0.008  1.4430 -1.4461 -0.2770
30599SOL     OW94238   4.740   7.063   4.391 -0.1414 -0.0635 -0.3244
30599SOL    HW194239   4.676   7.110   4.338  0.6004  0.1873 -1.0069
30599SOL    HW294240   4.721   6.970   4.375  0.9731 -0.0071 -2.1552
30600SOL     OW94241   1.776   2.838  10.323  0.5408 -0.5184  0.1791
30600SOL    HW194242   1.839   2.780  10.281  0.7578 -0.5195  0.5078
30600SOL    HW294243   1.691   2.800  10.301  0.7053 -1.4770  1.1317
30601SOL     OW94244   8.431  10.238   5.064  0.1685  0.4424 -0.2256
30601SOL    HW194245   8.492  10.253   5.136 -0.2698  1.6446 -0.0791
30601SOL    HW294246   8.345  10.230   5.107  0.1784 -1.1321 -0.4337
30602SOL     OW94247   1.679   2.800   0.428  0.4615 -0.0340  0.2293
30602SOL    HW194248   1.725   2.745   0.491 -0.2968 -0.1509  0.6925
30602SOL    HW294249   1.706   2.889   0.450  1.6595 -0.1977 -0.4975
30603SOL     OW94250   7.978   1.783   5.806 -0.2234 -0.3426  0.5090
30603SOL    HW194251   7.911   1.746   5.749  0.4032  0.4381 -0.7784
30603SOL    HW294252   8.060   1.767   5.760  0.3805 -0.4182  1.5892
30604SOL     OW94253   3.195   3.930   9.179  0.1371  0.2384 -0.6122
30604SOL    HW194254   3.177   4.023   9.193 -4.5420 -0.6051  0.7798
30604SOL    HW294255   3.191   3.892   9.267 -0.1042 -1.5447 -1.3653
30605SOL     OW94256   5.407   3.753   5.759 -0.0061  0.1128 -0.2872
30605SOL    HW194257   5.417   3.729   5.667  1.0236  1.2309 -0.4980
30605SOL    HW294258   5.454   3.836   5.767 -0.1258  0.0619  1.2359
30606SOL     OW94259   9.533   8.287   7.100 -0.2219  0.1832  0.4121
30606SOL    HW194260   9.594   8.359   7.084  0.1070  0.2477  1.8527
30606SOL    HW294261   9.467   8.296   7.030  0.7259  0.8532 -0.4201
30607SOL     OW94262   5.719   2.175   9.080 -0.4395 -0.3871 -0.6183
30607SOL    HW194263   5.640   2.228   9.094 -0.7666 -0.8006 -0.8728
30607SOL    HW294264   5.708   2.100   9.138  0.9355  0.7421  1.2155
30608SOL     OW94265   7.145   8.447   9.475 -0.5573  0.3742 -0.3489
30608SOL    HW194266   7.084   8.517   9.454 -1.2978 -0.3254 -0.5900
30608SOL    HW294267   7.232   8.487   9.469 -0.9999  1.4579  0.3056
30609SOL     OW94268   8.102   4.401   7.583  0.2271  0.3677 -0.7186
30609SOL    HW194269   8.041   4.336   7.619  3.6908 -0.7164  4.0588
30609SOL    HW294270   8.156   4.351   7.522  0.6603 -0.4254  0.2910
30610SOL     OW94271   4.573   4.827   8.326  0.0276 -0.1567 -0.3130
30610SOL    HW194272   4.668   4.812   8.321  0.0951 -0.1967  0.8716
30610SOL    HW294273   4.534   4.745   8.295  0.3954 -1.1375  1.6522
30611SOL     OW94274  10.414   1.774  10.076 -0.4014 -0.0369  0.2228
30611SOL    HW194275  10.338   1.719  10.091 -0.4964  0.1485  0.4282
30611SOL    HW294276  10.430   1.769   9.982 -0.7331  0.0097  0.1638
30612SOL     OW94277   0.819   6.660   1.656 -0.0786  0.2931  0.3360
30612SOL    HW194278   0.759   6.603   1.607  1.4513  0.6325 -2.1433
30612SOL    HW294279   0.775   6.746   1.656 -0.5139  0.0749  0.3871
30613SOL     OW94280   4.144   1.414   8.179  0.3343  0.0561 -0.1717
30613SOL    HW194281   4.103   1.330   8.199 -0.9401  0.6832 -0.0283
30613SOL    HW294282   4.203   1.396   8.105  0.9134 -1.1649  0.5636
30614SOL     OW94283   5.506   2.181   7.483  0.2791 -0.1521  0.1977
30614SOL    HW194284   5.509   2.271   7.515  2.0492 -0.6478  1.5434
30614SOL    HW294285   5.547   2.185   7.396  0.3666  0.3148  0.2558
30615SOL     OW94286   9.882  10.336   5.026  0.0824  0.3439  0.1219
30615SOL    HW194287   9.863  10.429   5.030 -0.9436  0.1696 -0.3070
30615SOL    HW294288   9.796  10.294   5.031  0.5634 -0.5915  0.7436
30616SOL     OW94289   7.763   1.343   9.978 -0.2216  0.0685 -0.0859
30616SOL    HW194290   7.795   1.392  10.054 -0.3488  0.2511 -0.1498
30616SOL    HW294291   7.811   1.380   9.904 -0.1629 -0.0481 -0.1058
30617SOL     OW94292   7.218   0.237   5.920 -0.3278 -0.9188  0.7365
30617SOL    HW194293   7.303   0.274   5.899 -1.2725  0.3365 -1.1820
30617SOL    HW294294   7.219   0.149   5.880  0.1155 -0.9717  0.8650
30618SOL     OW94295   3.096   3.836  10.346 -0.5022 -0.4110 -0.4837
30618SOL    HW194296   3.074   3.759  10.293  1.1667 -1.2975  0.0444
30618SOL    HW294297   3.035   3.833  10.420 -0.3689 -1.3097 -0.4006
30619SOL     OW94298   3.650   3.474   4.065 -0.4131  0.1824  0.4913
30619SOL    HW194299   3.599   3.474   3.984 -0.4591 -2.5441  0.4254
30619SOL    HW294300   3.733   3.516   4.041 -1.2682  1.4457 -0.3326
30620SOL     OW94301   7.176   7.518   2.841 -0.5879  0.0952  0.2882
30620SOL    HW194302   7.213   7.430   2.853  0.0104  0.4997  1.5263
30620SOL    HW294303   7.148   7.519   2.749  3.0851 -0.0320 -1.0078
30621SOL     OW94304   0.250   4.072   8.490  0.0791 -0.6670 -0.6028
30621SOL    HW194305   0.323   4.086   8.550  0.6056 -0.2569 -1.3280
30621SOL    HW294306   0.281   4.105   8.406 -1.2583  0.3205 -0.7299
30622SOL     OW94307   3.285   4.052   7.862  0.7373 -0.3411  0.0816
30622SOL    HW194308   3.289   4.072   7.955 -0.8602 -1.3606  0.4039
30622SOL    HW294309   3.369   4.083   7.827  0.1544  2.8779  1.2509
30623SOL     OW94310   9.315   5.874  10.369 -0.1155  0.5880 -0.2116
30623SOL    HW194311   9.366   5.912  10.440 -2.8308  0.9863  1.6778
30623SOL    HW294312   9.265   5.804  10.410 -1.0145  0.1323 -1.9676
30624SOL     OW94313   3.283   9.676   5.033 -0.1768 -0.2637  0.1439
30624SOL    HW194314   3.285   9.588   4.996 -0.1298  0.3183 -1.3136
30624SOL    HW294315   3.348   9.725   4.982 -2.2397  1.3611 -1.1177
30625SOL     OW94316   0.855  10.397   8.558 -0.3102  0.6022  0.2631
30625SOL    HW194317   0.785  10.397   8.623 -1.9836 -0.6572 -1.4609
30625SOL    HW294318   0.816  10.360   8.479  2.3153 -0.2645 -0.7577
30626SOL     OW94319   1.188   1.595   7.082 -0.1541  0.1204  0.5450
30626SOL    HW194320   1.233   1.559   7.159  0.7120  0.4614  0.2134
30626SOL    HW294321   1.214   1.538   7.010 -0.5409  0.1161  0.4065
30627SOL     OW94322   9.457   6.968   6.576 -0.1736 -0.2032 -0.0116
30627SOL    HW194323   9.397   6.907   6.533 -1.4201  0.3198  0.8910
30627SOL    HW294324   9.462   6.937   6.666 -0.8939  1.0420  0.4804
30628SOL     OW94325   0.193   6.875   0.655  0.0035  0.3313 -0.2030
30628SOL    HW194326   0.185   6.815   0.729 -0.7141 -1.2794 -1.5357
30628SOL    HW294327   0.105   6.878   0.617  0.3737  1.0936 -1.0343
30629SOL     OW94328   6.618   9.568   0.633  0.4737 -0.9095 -0.1071
30629SOL    HW194329   6.706   9.592   0.662  0.3669 -1.2930  0.5694
30629SOL    HW294330   6.559   9.609   0.696  0.1648 -0.7273 -0.5049
30630SOL     OW94331   5.701   0.754   7.758  0.1395 -0.7735 -0.3360
30630SOL    HW194332   5.758   0.829   7.740 -0.1473 -0.9769 -2.2017
30630SOL    HW294333   5.612   0.790   7.754  0.0210 -1.1011 -0.6849
30631SOL     OW94334   7.191   0.925   2.056  0.2169 -0.0208  0.4591
30631SOL    HW194335   7.222   0.842   2.018 -2.5979 -0.5687 -0.8949
30631SOL    HW294336   7.182   0.984   1.981  0.0998  0.8084  1.1060
30632SOL     OW94337   4.638   2.799   9.038 -0.1295 -1.0798 -0.4609
30632SOL    HW194338   4.549   2.783   9.007 -0.3250  0.6505 -0.8724
30632SOL    HW294339   4.650   2.893   9.031  1.9778 -1.3257 -1.0639
30633SOL     OW94340   8.185   3.047   2.933 -0.7391 -0.0281  0.0985
30633SOL    HW194341   8.102   3.072   2.975 -0.9282  0.5747 -0.6192
30633SOL    HW294342   8.184   3.092   2.849  0.4823  0.2836  0.2274
30634SOL     OW94343   8.981   3.391   5.841 -0.5170 -0.0671  0.3523
30634SOL    HW194344   9.029   3.406   5.759  0.9302  0.4438  1.2458
30634SOL    HW294345   9.050   3.376   5.906 -1.5460  1.1791  1.8051
30635SOL     OW94346  10.320   0.568   4.018 -0.4450 -0.4142 -0.0154
30635SOL    HW194347  10.307   0.584   3.924 -1.9434  0.4619  0.3086
30635SOL    HW294348  10.293   0.650   4.060  1.3666 -0.3482  1.1223
30636SOL     OW94349   4.236   1.830   3.790  0.1245  0.8301  0.5245
30636SOL    HW194350   4.321   1.872   3.798  0.4754  0.2242 -0.0071
30636SOL    HW294351   4.255   1.740   3.764 -0.6890  0.7615  0.1300
30637SOL     OW94352   1.463   4.826  10.227 -0.2162 -0.1389 -0.5550
30637SOL    HW194353   1.542   4.807  10.278 -0.0707 -0.1876 -0.7956
30637SOL    HW294354   1.488   4.899  10.170 -0.7501  0.7325  0.3005
30638SOL     OW94355   3.989   9.130   7.308  0.1823  0.6651  0.6194
30638SOL    HW194356   4.047   9.063   7.343 -1.2440 -0.5370  0.7709
30638SOL    HW294357   3.912   9.127   7.364 -0.5464  1.3776 -0.3078
30639SOL     OW94358   0.112   3.279   2.804  0.2416 -0.3405 -0.0472
30639SOL    HW194359   0.207   3.285   2.815  0.6500 -0.3688 -2.7782
30639SOL    HW294360   0.076   3.329   2.877  2.3581  0.2290  0.6867
30640SOL     OW94361   9.981  10.428   2.857 -0.0633  0.1249 -0.0190
30640SOL    HW194362  10.058  10.373   2.847  2.3453  3.0718  0.7902
30640SOL    HW294363   9.929  10.412   2.778  0.2206 -3.4724  0.3691
30641SOL     OW94364   2.073   9.146   9.884  0.7398  0.6796  0.0529
30641SOL    HW194365   2.120   9.195   9.816  3.2979 -2.3786 -0.6619
30641SOL    HW294366   1.987   9.129   9.846  1.5894  0.3512 -1.8488
30642SOL     OW94367   1.424   7.551   6.689 -0.3553 -0.0752  0.4166
30642SOL    HW194368   1.459   7.463   6.674 -1.0939 -0.0631 -1.7810
30642SOL    HW294369   1.333   7.535   6.718  0.1415 -0.0252  2.1349
30643SOL     OW94370   8.445   1.309   9.774  0.7695 -0.0954  0.0631
30643SOL    HW194371   8.470   1.299   9.682  2.0199  0.1151  0.3507
30643SOL    HW294372   8.375   1.246   9.788  0.0237  0.4191 -1.2206
30644SOL     OW94373   9.248   8.658   2.181  0.3617 -0.2535 -0.7202
30644SOL    HW194374   9.274   8.616   2.263  0.1932 -0.0848 -0.5801
30644SOL    HW294375   9.264   8.592   2.113 -2.0139 -1.3679 -0.2815
30645SOL     OW94376   3.066   6.115   0.002  0.3122  0.0713 -0.3251
30645SOL    HW194377   3.139   6.132  -0.058  0.7840 -0.4986  0.0762
30645SOL    HW294378   3.081   6.026   0.034  0.5348  0.6555  1.2775
30646SOL     OW94379   0.633   8.880   9.167  0.1606 -0.3223  0.3119
30646SOL    HW194380   0.636   8.959   9.221 -1.6893 -1.1180  1.6891
30646SOL    HW294381   0.717   8.880   9.120  0.9428  1.5336  1.5729
30647SOL     OW94382   6.261   1.488   9.478  0.5586 -0.2011  0.0364
30647SOL    HW194383   6.357   1.487   9.488  0.8620  0.3137 -2.3034
30647SOL    HW294384   6.244   1.431   9.403 -0.8764  0.5114 -0.2091
30648SOL     OW94385   9.005   5.847   9.932  0.4186 -0.7347  0.1525
30648SOL    HW194386   9.007   5.922   9.991  0.2053 -0.2670 -0.4208
30648SOL    HW294387   9.028   5.884   9.847 -0.2718 -1.2109 -0.2491
30649SOL     OW94388   2.865   1.622   3.909  0.2696 -0.2961  0.2192
30649SOL    HW194389   2.821   1.545   3.947 -1.7062  0.5271 -0.2745
30649SOL    HW294390   2.871   1.684   3.981  1.9894 -0.8971  0.6528
30650SOL     OW94391   1.189   1.429   0.772  0.7167 -0.1479 -0.2906
30650SOL    HW194392   1.239   1.487   0.829 -0.9865  1.4290 -0.2904
30650SOL    HW294393   1.202   1.465   0.684 -0.2535  0.1964 -0.3055
30651SOL     OW94394   1.414   3.616   7.468  0.1280 -0.8589 -0.3492
30651SOL    HW194395   1.404   3.547   7.533 -1.1771  0.5888  1.0917
30651SOL    HW294396   1.326   3.626   7.430  0.0340  0.6297  0.1840
30652SOL     OW94397   0.445   2.412   5.471  0.2250  0.1770  0.1471
30652SOL    HW194398   0.352   2.437   5.472 -0.6834 -2.4758 -2.2752
30652SOL    HW294399   0.486   2.474   5.411 -0.5567 -0.0685 -0.6672
30653SOL     OW94400   7.712   6.576   2.432 -0.0553  0.2191  0.1478
30653SOL    HW194401   7.743   6.488   2.454 -1.3196 -0.4155 -0.5179
30653SOL    HW294402   7.756   6.597   2.350 -0.2081 -0.0430 -0.0025
30654SOL     OW94403   7.002   6.116   1.932  0.2693  0.4155  0.4577
30654SOL    HW194404   6.954   6.034   1.946 -2.3781  1.6465 -0.6113
30654SOL    HW294405   7.084   6.089   1.892 -1.1093 -1.6878 -1.2399
30655SOL     OW94406   6.321   5.454   9.903 -0.2630 -0.0152 -0.3048
30655SOL    HW194407   6.302   5.387   9.837  1.9010 -1.6084  0.5705
30655SOL    HW294408   6.382   5.513   9.859  0.0074 -0.2177 -0.2022
30656SOL     OW94409   2.818   8.195   4.379 -0.0948  0.1917 -0.2435
30656SOL    HW194410   2.809   8.288   4.401  0.5697  0.4798 -1.1286
30656SOL    HW294411   2.734   8.156   4.405 -0.2133  0.9473  0.5563
30657SOL     OW94412   9.720   3.068   2.734  0.0108 -0.3044 -0.0917
30657SOL    HW194413   9.648   3.024   2.780  0.1938 -0.8062 -0.2792
30657SOL    HW294414   9.677   3.138   2.684 -0.1785  0.3377  0.9315
30658SOL     OW94415   3.019   4.897   5.881 -0.0097 -0.0812  0.0799
30658SOL    HW194416   3.027   4.802   5.876 -0.5727 -0.1621  0.5513
30658SOL    HW294417   2.928   4.912   5.907 -0.9594  0.6889 -3.1608
30659SOL     OW94418   4.881   7.116   5.433  0.2726  0.3538  0.1865
30659SOL    HW194419   4.825   7.071   5.371  0.5619 -1.2852  1.0608
30659SOL    HW294420   4.820   7.161   5.492 -0.0925 -0.4913  0.4614
30660SOL     OW94421   2.922   5.858   6.846 -0.0878  0.8690 -0.5576
30660SOL    HW194422   2.944   5.853   6.939  1.8135 -2.7849 -1.0306
30660SOL    HW294423   2.832   5.827   6.841 -0.2021  1.0943  0.0543
30661SOL     OW94424   2.259   2.639   6.994  0.1966  0.3559  0.2884
30661SOL    HW194425   2.166   2.632   7.014  0.2558  1.9155  1.3325
30661SOL    HW294426   2.302   2.574   7.050 -0.2976 -0.8736 -0.7259
30662SOL     OW94427   5.714   5.272   2.801  0.2202 -0.0144  0.7138
30662SOL    HW194428   5.638   5.328   2.783  0.5348 -0.2034 -1.4936
30662SOL    HW294429   5.789   5.330   2.792  0.5206 -0.6043 -1.1372
30663SOL     OW94430   1.152   9.783   5.234 -0.1805  0.3082  0.1615
30663SOL    HW194431   1.232   9.740   5.203 -1.6222 -0.5091 -2.7638
30663SOL    HW294432   1.163   9.875   5.210  1.0160  0.8321  2.4146
30664SOL     OW94433   7.928   5.269   3.354  0.2720  0.0805 -0.0845
30664SOL    HW194434   7.926   5.266   3.258  0.3346  0.6353 -0.1085
30664SOL    HW294435   8.013   5.306   3.375  2.0813 -3.8481  0.3387
30665SOL     OW94436   9.256   8.682   5.758  0.3459  0.0222  0.7010
30665SOL    HW194437   9.287   8.658   5.670  2.1733 -0.7933  1.4991
30665SOL    HW294438   9.261   8.600   5.807 -0.6910  0.4639  1.5698
30666SOL     OW94439   1.283   7.443   7.197  0.2768  0.2584  0.3096
30666SOL    HW194440   1.243   7.454   7.283 -1.6549 -1.1348 -0.3528
30666SOL    HW294441   1.238   7.507   7.142 -0.6693 -0.9148 -0.3114
30667SOL     OW94442   5.903   4.459   4.094 -0.5810  0.2219 -0.2032
30667SOL    HW194443   5.981   4.423   4.138 -0.0470  0.7828 -0.6776
30667SOL    HW294444   5.859   4.382   4.057 -1.2972 -0.3352  1.6698
30668SOL     OW94445   9.700   1.548   7.422  0.4846 -0.2676 -0.0138
30668SOL    HW194446   9.738   1.568   7.336 -0.2775 -1.7061 -0.7147
30668SOL    HW294447   9.776   1.536   7.480  1.0337 -0.2818 -0.7212
30669SOL     OW94448   2.408   9.594   0.303  0.3317  0.4277 -0.0977
30669SOL    HW194449   2.448   9.515   0.267 -0.0080  1.4166 -2.9603
30669SOL    HW294450   2.314   9.581   0.290  0.0896  0.3710  1.5644
30670SOL     OW94451   1.875   7.646   6.457  0.3779 -0.1247 -0.2249
30670SOL    HW194452   1.802   7.642   6.394 -2.0322  2.3466  2.0944
30670SOL    HW294453   1.856   7.576   6.519 -0.3851  0.7670  0.6026
30671SOL     OW94454   6.805   3.869   4.374  0.0803 -0.7348 -0.1907
30671SOL    HW194455   6.771   3.884   4.285 -0.3107  0.1829  0.1042
30671SOL    HW294456   6.739   3.815   4.416 -0.2746 -0.2382 -0.1067
30672SOL     OW94457   7.223   4.190   0.634  0.1078  0.8436  0.0854
30672SOL    HW194458   7.295   4.151   0.683 -0.9821  1.7415  2.5247
30672SOL    HW294459   7.191   4.261   0.689 -0.2559  2.9518 -2.6347
30673SOL     OW94460   0.394   0.785   8.238  0.3648  0.4870 -0.3179
30673SOL    HW194461   0.376   0.701   8.280  0.8442  0.4655 -0.1563
30673SOL    HW294462   0.396   0.847   8.311  0.4822  0.5635 -0.3869
30674SOL     OW94463   5.465   9.524   8.492 -0.0544 -0.1228 -0.0648
30674SOL    HW194464   5.516   9.549   8.569 -2.5429 -0.4752  1.8076
30674SOL    HW294465   5.518   9.457   8.449  1.7501  0.6343  0.8625
30675SOL     OW94466   9.327   6.720   7.093 -0.4505  0.0578  0.1758
30675SOL    HW194467   9.389   6.760   7.155  0.1887  0.2606 -0.5825
30675SOL    HW294468   9.270   6.666   7.148 -0.7308  1.2588  1.1055
30676SOL     OW94469   6.777   6.580   4.480 -0.1452 -0.5307  0.0186
30676SOL    HW194470   6.736   6.547   4.561 -0.3507  2.0402  1.0433
30676SOL    HW294471   6.800   6.501   4.432 -0.3267 -2.1749  2.4295
30677SOL     OW94472  10.329   3.965   5.984  0.2288  0.7969  0.7280
30677SOL    HW194473  10.239   3.941   5.960  0.4667 -0.6280  1.2154
30677SOL    HW294474  10.339   4.054   5.950 -0.8629  0.4201 -0.6614
30678SOL     OW94475   1.788   5.674   1.213 -0.5401 -0.1959 -0.2404
30678SOL    HW194476   1.810   5.755   1.258  0.9284 -0.4544 -0.4370
30678SOL    HW294477   1.708   5.693   1.165  0.9548  1.8751 -2.1341
30679SOL     OW94478   5.812   7.929   2.105 -0.2397 -0.5479 -0.6685
30679SOL    HW194479   5.880   7.939   2.039  0.2676  0.4887 -0.0003
30679SOL    HW294480   5.751   8.001   2.089  0.7488  0.7302  0.9804
30680SOL     OW94481   9.911   3.288   5.386  0.0960  0.5635 -0.1341
30680SOL    HW194482   9.994   3.335   5.380 -0.3193  1.2600 -0.6000
30680SOL    HW294483   9.849   3.353   5.419 -0.2548  0.0298  0.2715
30681SOL     OW94484   0.107   9.243   0.287 -0.2603  0.7149  0.2071
30681SOL    HW194485   0.023   9.247   0.332 -0.0990  0.6105  0.5168
30681SOL    HW294486   0.155   9.173   0.331 -0.7968 -0.6809 -1.3224
30682SOL     OW94487   4.599   9.075   4.673  0.1023  0.4877 -0.0648
30682SOL    HW194488   4.618   9.060   4.581 -0.7547  0.9601 -0.3271
30682SOL    HW294489   4.504   9.072   4.679  0.1468  0.5023  0.7987
30683SOL     OW94490   5.815   3.886   4.400  0.6875  0.1897 -0.1647
30683SOL    HW194491   5.780   3.869   4.313  3.1094 -0.0012 -1.1924
30683SOL    HW294492   5.772   3.822   4.456 -1.7078  1.0093 -0.9585
30684SOL     OW94493   3.224   3.423   0.831  0.3000 -0.6275  0.0818
30684SOL    HW194494   3.169   3.469   0.768 -0.6209 -1.4284  0.2672
30684SOL    HW294495   3.302   3.399   0.781  0.5035  0.5527 -0.1809
30685SOL     OW94496   2.278   7.961   2.560 -0.4117  0.4247 -0.8738
30685SOL    HW194497   2.228   7.923   2.488  0.6873  0.0698 -1.4642
30685SOL    HW294498   2.246   8.051   2.566 -1.9231 -0.0931 -0.4764
30686SOL     OW94499   9.452   3.560   2.595 -0.6563  0.2625  0.4230
30686SOL    HW194500   9.539   3.526   2.618 -0.6594  0.2804  0.4608
30686SOL    HW294501   9.425   3.610   2.672 -0.6404  0.3733  0.3566
30687SOL     OW94502   7.103   7.570   5.922 -0.2884  0.2140 -0.0793
30687SOL    HW194503   7.063   7.625   5.989 -0.9593  1.0970 -1.1628
30687SOL    HW294504   7.031   7.516   5.890  0.0499 -0.2758 -0.0202
30688SOL     OW94505   0.875   3.573   1.050 -0.5138 -0.3387 -0.3851
30688SOL    HW194506   0.900   3.482   1.041  0.0736 -0.1468 -0.7022
30688SOL    HW294507   0.896   3.613   0.966  0.6748  0.4288  0.2520
30689SOL     OW94508   9.843   2.873   4.283  0.1286  0.5323  0.0282
30689SOL    HW194509   9.855   2.940   4.216 -1.5211  0.3890 -0.4495
30689SOL    HW294510   9.781   2.912   4.345 -0.7330 -0.4857 -0.1698
30690SOL     OW94511   4.193   0.391  10.447  0.1152 -0.3061 -0.6432
30690SOL    HW194512   4.165   0.319  10.505 -0.4558  0.1289 -0.3730
30690SOL    HW294513   4.289   0.385  10.447  0.1055 -0.6140 -0.0332
30691SOL     OW94514   8.772   1.414   8.670 -0.2553 -0.2033  0.4267
30691SOL    HW194515   8.717   1.433   8.746  1.9959  1.5032  1.7857
30691SOL    HW294516   8.732   1.464   8.599 -1.1642 -0.0221  1.0437
30692SOL     OW94517   2.949  10.171   4.868 -0.9949  0.5953 -0.2584
30692SOL    HW194518   2.970  10.220   4.948  0.9440  1.7492 -1.4123
30692SOL    HW294519   2.999  10.090   4.875 -0.9041  0.6503 -0.2809
30693SOL     OW94520   1.694   6.861  10.276 -0.3859  0.1232 -0.1649
30693SOL    HW194521   1.783   6.826  10.277 -0.0319  1.0003  0.0461
30693SOL    HW294522   1.648   6.806  10.213  0.3484 -0.2454 -0.3983
30694SOL     OW94523   2.264   9.122   6.979  0.3808 -0.5534 -0.2654
30694SOL    HW194524   2.259   9.217   6.971 -1.2187 -0.7239 -1.9220
30694SOL    HW294525   2.328   9.107   7.050  1.9538  1.6832 -1.1036
30695SOL     OW94526   8.270   2.846   9.281 -0.0024 -0.3081  0.3350
30695SOL    HW194527   8.201   2.808   9.227 -1.3237  1.1340  0.9281
30695SOL    HW294528   8.324   2.771   9.308  0.8216 -1.0842 -3.0262
30696SOL     OW94529   1.153   3.377   4.338 -0.1291 -0.3078 -0.1107
30696SOL    HW194530   1.107   3.448   4.383 -2.3529  0.7571 -3.6489
30696SOL    HW294531   1.088   3.307   4.329  0.0289 -0.2665 -2.0111
30697SOL     OW94532   0.008   3.228   9.502 -0.1552  0.4270  0.2017
30697SOL    HW194533  -0.055   3.214   9.572 -1.5372  1.2614 -0.8263
30697SOL    HW294534  -0.021   3.172   9.431  0.5793  0.4269 -0.1115
30698SOL     OW94535   0.890   3.300   1.039 -0.0601  0.2306 -0.1404
30698SOL    HW194536   0.809   3.250   1.030 -0.1827  0.4989 -0.5502
30698SOL    HW294537   0.924   3.275   1.125 -0.0839 -0.6081 -0.3627
30699SOL     OW94538   5.254   4.659   6.341  0.0746 -0.5973 -0.1566
30699SOL    HW194539   5.222   4.594   6.278  0.7465 -1.6705  0.5875
30699SOL    HW294540   5.326   4.703   6.295 -1.8578  1.3082 -1.5524
30700SOL     OW94541   0.196   8.924   1.268 -0.2218 -0.1748  0.3376
30700SOL    HW194542   0.212   8.970   1.186  0.5859  0.1200  0.6508
30700SOL    HW294543   0.113   8.961   1.300  0.4642  1.1966  0.6475
30701SOL     OW94544   1.160   0.677   8.797 -0.3337  0.1105  0.4945
30701SOL    HW194545   1.079   0.673   8.745 -0.0093  0.0604 -0.0146
30701SOL    HW294546   1.173   0.771   8.812  0.1282  0.2086 -0.4210
30702SOL     OW94547   5.116   7.866  10.278 -0.0555  0.0051 -0.0346
30702SOL    HW194548   5.074   7.854  10.363 -0.4621 -0.1185 -0.2477
30702SOL    HW294549   5.092   7.788  10.228 -0.0781  0.2195 -0.3636
30703SOL     OW94550  10.420   0.560   9.891  0.2063  0.0060  0.1931
30703SOL    HW194551  10.360   0.566   9.817 -0.2690 -1.3850  0.4368
30703SOL    HW294552  10.481   0.633   9.879 -0.7004  0.6243 -0.7996
30704SOL     OW94553   7.637   8.092   7.003 -0.2242 -0.3563  0.0088
30704SOL    HW194554   7.691   8.073   6.926 -0.5762 -0.8137 -0.1280
30704SOL    HW294555   7.557   8.041   6.990 -0.1056 -0.7920  0.8917
30705SOL     OW94556   6.261   1.107   5.001  0.3646  1.0155  0.1990
30705SOL    HW194557   6.221   1.194   4.996  2.2459  1.9637  0.8936
30705SOL    HW294558   6.284   1.097   5.093 -1.8129 -1.2190  0.6215
30706SOL     OW94559   0.719   8.543  10.354 -0.0289  0.3642 -0.0961
30706SOL    HW194560   0.631   8.567  10.382 -0.2144  0.6441 -0.9207
30706SOL    HW294561   0.719   8.554  10.259  0.3472 -1.4159 -0.3405
30707SOL     OW94562   7.246   0.736   0.286  0.2968 -0.0055  0.1868
30707SOL    HW194563   7.239   0.831   0.280  0.6532  0.0657  0.7792
30707SOL    HW294564   7.334   0.720   0.320  0.1093 -0.5255  0.4546
30708SOL     OW94565   1.203   0.669   5.823  0.1580 -0.1087 -0.6874
30708SOL    HW194566   1.150   0.599   5.784 -0.5748 -0.7474  1.3051
30708SOL    HW294567   1.165   0.750   5.789 -0.4513 -0.6348 -1.2905
30709SOL     OW94568   3.634   7.749   7.941 -0.3571 -0.2823  0.5641
30709SOL    HW194569   3.675   7.701   8.013  1.9100 -1.1683 -1.2056
30709SOL    HW294570   3.570   7.687   7.905  0.7784 -1.0827 -0.1394
30710SOL     OW94571   9.494   0.608   5.928 -0.2646  0.2610 -0.4356
30710SOL    HW194572   9.450   0.677   5.979 -0.6452 -0.2843 -0.0201
30710SOL    HW294573   9.583   0.606   5.963  0.0172  1.1595 -1.0693
30711SOL     OW94574   0.781   8.200   3.705  0.3511  0.2020  0.3824
30711SOL    HW194575   0.755   8.115   3.741 -1.1695 -0.0418 -1.1405
30711SOL    HW294576   0.802   8.254   3.781 -0.7279 -0.9050  1.4993
30712SOL     OW94577   3.878   2.654   3.005  0.3534  0.0368 -0.1997
30712SOL    HW194578   3.904   2.692   3.089 -0.0277  0.3213 -0.2092
30712SOL    HW294579   3.954   2.601   2.978  0.1095 -0.8442  0.7887
30713SOL     OW94580   4.928   1.629  10.147 -0.0403  0.3984  0.2070
30713SOL    HW194581   5.001   1.569  10.159 -0.2898  0.1894  0.6810
30713SOL    HW294582   4.863   1.579  10.099 -0.2435  0.2904  0.5909
30714SOL     OW94583   1.114   1.890   3.638 -0.3755 -0.2768 -0.1434
30714SOL    HW194584   1.140   1.835   3.565 -1.0097  0.1435 -0.6967
30714SOL    HW294585   1.066   1.831   3.696  0.8056 -0.7968  0.3469
30715SOL     OW94586   9.514   1.401   7.135  0.7915 -0.0780  0.0016
30715SOL    HW194587   9.550   1.483   7.102 -2.0157  0.7481 -1.2868
30715SOL    HW294588   9.424   1.423   7.161 -0.0163 -2.7193 -0.2904
30716SOL     OW94589   2.027   4.132   7.703 -0.2880 -0.2743 -0.7220
30716SOL    HW194590   2.067   4.112   7.788  2.2155 -0.7888 -1.9274
30716SOL    HW294591   1.989   4.219   7.714 -1.1707 -0.8511  1.2647
30717SOL     OW94592   8.161   7.861   8.025  0.3253 -0.7898  0.1627
30717SOL    HW194593   8.145   7.852   8.119 -0.2880 -2.8307 -0.0903
30717SOL    HW294594   8.235   7.921   8.019 -0.7174  0.7655  1.8433
30718SOL     OW94595   7.952  10.001   0.108  0.0411  0.1373 -0.1222
30718SOL    HW194596   7.903   9.947   0.170 -0.7112  0.1365 -0.6996
30718SOL    HW294597   8.040   9.964   0.108 -0.3208 -0.7453 -0.1009
30719SOL     OW94598   3.390   6.815   7.708 -0.2497  0.1507  0.0283
30719SOL    HW194599   3.400   6.724   7.736 -0.7705 -0.5387 -1.8944
30719SOL    HW294600   3.443   6.865   7.771  3.1839 -1.8270 -1.0265
30720SOL     OW94601   5.829   5.519   5.013  0.9993 -0.0837  0.1736
30720SOL    HW194602   5.816   5.454   4.944 -2.4567  0.1445  0.4383
30720SOL    HW294603   5.849   5.600   4.967 -2.9980  0.5041 -0.9335
30721SOL     OW94604   0.159   2.310   6.794 -0.2151 -0.6174  0.8001
30721SOL    HW194605   0.093   2.346   6.735 -0.1547 -0.6889  0.6888
30721SOL    HW294606   0.208   2.248   6.740 -2.2471 -3.1953  1.6868
30722SOL     OW94607   9.410   3.351  10.390  0.9253  0.1587  0.4322
30722SOL    HW194608   9.435   3.299  10.314  0.5173  1.4678 -0.6453
30722SOL    HW294609   9.357   3.292  10.443  0.4650 -0.5189 -0.7474
30723SOL     OW94610   8.160   4.623   5.882 -0.3525 -0.1699  0.1246
30723SOL    HW194611   8.159   4.627   5.787 -0.7379 -2.1498  0.0012
30723SOL    HW294612   8.239   4.671   5.907 -1.2852  2.0815 -1.0381
30724SOL     OW94613   1.958   6.069   5.842  0.3007 -0.0820 -0.3696
30724SOL    HW194614   2.034   6.039   5.892 -0.1775 -0.5564  0.0899
30724SOL    HW294615   1.986   6.151   5.802  1.2589 -0.5565 -0.7003
30725SOL     OW94616   5.793  10.351  10.218  0.1556  0.6130  0.0640
30725SOL    HW194617   5.840  10.375  10.138  0.5378  1.1714  0.4427
30725SOL    HW294618   5.781  10.256  10.212  0.6780  0.5722 -0.3917
30726SOL     OW94619   7.958   4.913   6.189 -0.3844 -0.4898 -0.0027
30726SOL    HW194620   7.960   4.858   6.111 -2.0956 -1.8139  0.8311
30726SOL    HW294621   7.901   4.986   6.166 -1.4151 -1.2176  0.1928
30727SOL     OW94622   6.188  10.075   2.788  0.1044 -0.2730  0.1192
30727SOL    HW194623   6.184  10.163   2.751  1.5883  0.7945  2.2818
30727SOL    HW294624   6.279  10.065   2.816 -0.4140 -1.8676  1.3681
30728SOL     OW94625   3.938   4.663   2.209  0.3695  0.3693  0.2278
30728SOL    HW194626   3.899   4.738   2.165  0.6581  0.0529 -0.5887
30728SOL    HW294627   3.863   4.607   2.232  0.2164  0.5334  0.1274
30729SOL     OW94628   2.697   5.252   3.242  0.6248  0.3692  0.3528
30729SOL    HW194629   2.707   5.192   3.315  1.2521 -0.0620 -0.0736
30729SOL    HW294630   2.623   5.308   3.266 -0.8613 -1.4229  0.1612
30730SOL     OW94631   8.514   3.724   3.589  0.3825  0.1053  0.5325
30730SOL    HW194632   8.580   3.655   3.599  2.3335  1.9459  1.3036
30730SOL    HW294633   8.540   3.770   3.509 -0.4068  0.4329  0.4618
30731SOL     OW94634   5.666   2.128   4.531  0.0906  0.4097 -0.5534
30731SOL    HW194635   5.678   2.219   4.504  1.4381  0.8767  1.3789
30731SOL    HW294636   5.582   2.128   4.576 -0.1677  0.5744 -1.0317
30732SOL     OW94637   6.367   1.724   4.254  0.2930  0.4004 -0.1310
30732SOL    HW194638   6.428   1.723   4.180  0.8396  0.7047  0.3085
30732SOL    HW294639   6.417   1.688   4.327 -1.1801 -2.8685 -0.5753
30733SOL     OW94640   2.705   1.952   2.502  0.7134 -0.5992  0.7368
30733SOL    HW194641   2.793   1.969   2.468  0.1103  0.8385 -0.2230
30733SOL    HW294642   2.648   1.970   2.427 -0.4225 -1.0718  1.4784
30734SOL     OW94643   4.580   2.285   9.288 -0.4370  0.6366 -0.6405
30734SOL    HW194644   4.501   2.287   9.235 -0.5940  1.0201 -0.3951
30734SOL    HW294645   4.584   2.371   9.329 -0.3118  0.3459 -0.0366
30735SOL     OW94646   2.148   0.304   1.531 -0.3302 -0.4119 -0.1214
30735SOL    HW194647   2.123   0.276   1.620  0.6814  0.4121  0.4457
30735SOL    HW294648   2.123   0.397   1.528  2.2277  0.3699  0.3645
30736SOL     OW94649   2.210   3.572   6.265 -0.0947  0.5258  0.2580
30736SOL    HW194650   2.155   3.542   6.193 -1.3442  2.6880  0.2147
30736SOL    HW294651   2.283   3.618   6.222  0.0442  0.3999  0.3585
30737SOL     OW94652   4.575   1.949   7.491  0.2966  0.5441  0.5336
30737SOL    HW194653   4.551   1.980   7.403  1.6741  0.0870 -0.0299
30737SOL    HW294654   4.510   1.989   7.549  0.4661  2.3915 -0.4630
30738SOL     OW94655   4.820   7.535   5.634  0.4389 -0.1307 -0.0816
30738SOL    HW194656   4.902   7.499   5.600 -0.9157 -1.7122 -1.9109
30738SOL    HW294657   4.795   7.602   5.570 -0.5437 -0.8960 -0.5328
30739SOL     OW94658   8.427   2.124   6.311 -0.0429 -0.3548 -0.1196
30739SOL    HW194659   8.448   2.051   6.369  1.9209 -0.2856 -0.6642
30739SOL    HW294660   8.428   2.085   6.223 -0.2330  0.0823 -0.3177
30740SOL     OW94661   7.261   9.332   7.990 -0.2603 -0.1304  0.1925
30740SOL    HW194662   7.348   9.328   8.030  0.8168 -0.8768 -2.0386
30740SOL    HW294663   7.208   9.270   8.040  0.8959 -0.7215  0.7152
30741SOL     OW94664   6.678   9.050   3.947  0.0746 -0.3107 -0.3807
30741SOL    HW194665   6.614   8.980   3.952 -1.3365  0.9556  0.0663
30741SOL    HW294666   6.628   9.130   3.965  1.2891  1.0045 -2.4147
30742SOL     OW94667   3.641   1.110   1.448 -0.1826 -0.5176  0.1351
30742SOL    HW194668   3.713   1.048   1.435 -0.6075 -0.8497 -0.6962
30742SOL    HW294669   3.577   1.063   1.501  0.0034 -0.3846  0.4797
30743SOL     OW94670   8.649   3.246   4.261  0.5608  0.2790  0.2358
30743SOL    HW194671   8.703   3.198   4.324 -0.8542  1.4806  2.4958
30743SOL    HW294672   8.711   3.274   4.194  2.0799 -1.4046  0.8316
30744SOL     OW94673   9.601   0.709   2.309  0.1907 -0.1260 -0.4770
30744SOL    HW194674   9.639   0.796   2.321  0.7392 -0.3079 -0.8552
30744SOL    HW294675   9.538   0.701   2.380  0.5011  0.3849 -0.1349
30745SOL     OW94676   8.183   2.201   8.886 -0.3583 -0.0163  0.0856
30745SOL    HW194677   8.206   2.294   8.891  0.5234 -0.2465  0.5290
30745SOL    HW294678   8.218   2.171   8.802 -1.9418  0.3730 -0.7534
30746SOL     OW94679   8.797   2.642   4.455 -0.3568 -0.4006 -0.3382
30746SOL    HW194680   8.754   2.573   4.405 -0.3458  0.0585 -1.0139
30746SOL    HW294681   8.745   2.721   4.435  1.2888  0.3656 -1.9445
30747SOL     OW94682   6.289   2.123   8.473  0.2729  0.2238 -0.3991
30747SOL    HW194683   6.371   2.171   8.477  0.3213  0.4325 -2.6320
30747SOL    HW294684   6.248   2.151   8.391 -1.1058 -1.3041 -0.3022
30748SOL     OW94685   3.630   0.383   8.041 -0.3551  0.3323 -0.1564
30748SOL    HW194686   3.623   0.389   8.136  1.3577 -0.3906  0.0366
30748SOL    HW294687   3.548   0.342   8.014 -0.8792  0.5778  0.9977
30749SOL     OW94688   2.828   0.788   9.287  0.6646 -0.3469 -0.0576
30749SOL    HW194689   2.812   0.751   9.201  0.0309 -0.3360  0.0498
30749SOL    HW294690   2.875   0.870   9.270  0.8007 -0.4879 -0.3715
30750SOL     OW94691   2.257   3.379   2.376  0.0105  0.1467  0.3946
30750SOL    HW194692   2.261   3.378   2.281  0.3764 -0.1279  0.4150
30750SOL    HW294693   2.346   3.399   2.404  0.0009 -0.2164  0.6900
30751SOL     OW94694   1.766   5.772  10.278  0.1711  0.2643  0.3837
30751SOL    HW194695   1.798   5.695  10.325 -0.8829  0.7019  1.8945
30751SOL    HW294696   1.770   5.747  10.185 -1.3784 -2.1395  0.8631
30752SOL     OW94697   2.094   7.623   2.286  0.0980 -0.2876 -0.0781
30752SOL    HW194698   2.178   7.667   2.277  0.5760 -0.7540  1.6367
30752SOL    HW294699   2.115   7.539   2.328 -1.1454 -0.6802 -0.1986
30753SOL     OW94700   0.818   5.961   2.234  0.2169  0.5669  0.6615
30753SOL    HW194701   0.803   6.025   2.303 -0.0297  0.7119  0.4779
30753SOL    HW294702   0.736   5.960   2.184 -0.4400 -1.1542  1.6771
30754SOL     OW94703   8.417   1.059   4.937 -0.7507 -0.4735  0.0549
30754SOL    HW194704   8.487   1.067   4.872 -1.1640 -0.4576 -0.3892
30754SOL    HW294705   8.439   0.980   4.987  0.3969  0.3440  0.9123
30755SOL     OW94706   6.310   7.492   7.260  0.2305  0.0793 -0.1312
30755SOL    HW194707   6.379   7.433   7.231 -0.2204 -0.8694  0.6711
30755SOL    HW294708   6.285   7.541   7.182 -0.6356 -2.0775 -1.2752
30756SOL     OW94709   1.204   6.614   9.812 -0.2750 -0.3941  0.3172
30756SOL    HW194710   1.121   6.641   9.772  0.0518 -0.2212 -0.2431
30756SOL    HW294711   1.244   6.556   9.748  0.6897  0.6200 -0.0266
30757SOL     OW94712   8.640   7.089   7.848  0.1877 -0.6725  0.0326
30757SOL    HW194713   8.690   7.051   7.920  0.5965 -0.1226  0.0516
30757SOL    HW294714   8.706   7.108   7.781  0.1718  0.9118  0.4217
30758SOL     OW94715   4.798   9.366   3.846  0.0974 -0.4486  0.1998
30758SOL    HW194716   4.733   9.420   3.802  0.3350  0.0247  0.4225
30758SOL    HW294717   4.796   9.396   3.937  0.6279 -0.4258  0.2089
30759SOL     OW94718   7.237   5.409   6.621  0.2458  1.0351  0.0192
30759SOL    HW194719   7.165   5.348   6.603  2.0666 -0.8218 -1.3204
30759SOL    HW294720   7.204   5.463   6.693 -3.1603  1.4766 -1.6441
30760SOL     OW94721   7.336   2.343   9.534 -0.3920  0.2264  0.2118
30760SOL    HW194722   7.398   2.270   9.534 -0.6737 -0.0179 -0.3269
30760SOL    HW294723   7.353   2.388   9.617  1.4758  1.0045 -0.5295
30761SOL     OW94724   9.585   3.116   3.219 -0.0898 -0.6190  0.0533
30761SOL    HW194725   9.613   3.208   3.218  3.4095 -1.5629  0.1804
30761SOL    HW294726   9.555   3.102   3.309  1.3415 -0.0913  0.6441
30762SOL     OW94727   0.757   7.838   3.653  0.2118 -0.5804  0.1270
30762SOL    HW194728   0.849   7.853   3.675  0.2711  0.1435 -0.5830
30762SOL    HW294729   0.709   7.884   3.722  0.3972  1.3491 -0.9581
30763SOL     OW94730   7.804   7.065   0.394 -0.1592  0.2960  1.2513
30763SOL    HW194731   7.854   7.002   0.446 -1.2985 -1.5319  0.1980
30763SOL    HW294732   7.715   7.060   0.428 -0.8278 -0.5982 -0.4970
30764SOL     OW94733   2.685   6.190   7.323  0.7260  0.3568 -0.0885
30764SOL    HW194734   2.735   6.257   7.368  1.5400 -0.3052  0.0153
30764SOL    HW294735   2.741   6.162   7.250  0.4488 -0.2787 -0.0654
30765SOL     OW94736   4.002   7.580   7.906 -0.1349 -0.1249 -0.0377
30765SOL    HW194737   4.005   7.620   7.993  0.0882 -1.0210  0.3804
30765SOL    HW294738   4.061   7.632   7.853 -1.2250  1.2054  0.0075
30766SOL     OW94739   8.256   1.378   5.668  0.1412  0.6533  0.2524
30766SOL    HW194740   8.333   1.322   5.678 -0.5560 -0.3906 -0.0475
30766SOL    HW294741   8.258   1.436   5.744  0.0717 -0.7765  1.3809
30767SOL     OW94742  10.476   9.154   9.754  0.1056 -0.0477 -0.4446
30767SOL    HW194743  10.524   9.099   9.693 -1.4351 -2.6402  0.5453
30767SOL    HW294744  10.532   9.231   9.765  0.4998  0.6032 -4.9880
30768SOL     OW94745   4.959   4.618   8.416 -0.1656 -0.5242  0.1905
30768SOL    HW194746   4.864   4.604   8.409  0.1017 -3.1110  0.8225
30768SOL    HW294747   4.991   4.542   8.465  2.2833  0.1977 -0.1644
30769SOL     OW94748   5.289   8.658   1.213 -0.6527 -0.1329 -0.1431
30769SOL    HW194749   5.235   8.630   1.288  0.4894  1.0842  1.1913
30769SOL    HW294750   5.328   8.577   1.180 -1.0056 -0.6677  0.7075
30770SOL     OW94751   8.686   7.125   2.202 -0.1607 -0.1186 -0.4035
30770SOL    HW194752   8.652   7.180   2.132  0.5337 -1.5769 -1.9508
30770SOL    HW294753   8.764   7.084   2.165  0.6973 -0.3610  1.5044
30771SOL     OW94754   8.086   1.356  10.057 -0.6220  0.2681 -0.5659
30771SOL    HW194755   8.017   1.382  10.118  0.2059 -0.4997  0.7450
30771SOL    HW294756   8.153   1.423  10.066 -1.0020  0.7986 -1.5455
30772SOL     OW94757   9.800   8.329   4.647 -0.0891 -0.2911  0.0703
30772SOL    HW194758   9.733   8.296   4.707 -1.8726  0.4513 -1.4157
30772SOL    HW294759   9.859   8.380   4.703 -0.2559 -1.6664  1.5541
30773SOL     OW94760   9.243   2.733   3.230 -0.6312 -0.3658  0.3680
30773SOL    HW194761   9.331   2.756   3.202 -0.6420 -1.0537 -0.2419
30773SOL    HW294762   9.255   2.674   3.305 -0.5489 -1.1320 -0.2349
30774SOL     OW94763   0.372   0.793   2.330  0.3898 -0.0626 -0.0802
30774SOL    HW194764   0.437   0.829   2.391 -0.5851 -0.1380  1.0194
30774SOL    HW294765   0.297   0.772   2.384 -0.2857 -0.6918 -1.2311
30775SOL     OW94766   5.163   1.289   5.486  0.0819  0.0747  0.3221
30775SOL    HW194767   5.154   1.205   5.532 -0.5610  0.1221  0.3001
30775SOL    HW294768   5.245   1.325   5.517  1.3588 -1.4461 -1.1090
30776SOL     OW94769   4.477   8.860   6.567  0.3134 -0.0743  0.6324
30776SOL    HW194770   4.565   8.828   6.549  0.2273 -0.7151  1.3158
30776SOL    HW294771   4.446   8.807   6.641 -1.1828 -0.8689 -0.4930
30777SOL     OW94772   6.400   9.846   7.622  0.5262 -0.4886 -0.2400
30777SOL    HW194773   6.376   9.928   7.666 -0.1551 -1.0570  0.4640
30777SOL    HW294774   6.477   9.869   7.570  1.3275  0.2197  1.1962
30778SOL     OW94775   4.633   4.690   0.766  0.2000  0.0834 -0.1784
30778SOL    HW194776   4.586   4.710   0.847 -1.3442 -2.3442 -0.3609
30778SOL    HW294777   4.564   4.675   0.702  1.3634  3.3867 -2.4827
30779SOL     OW94778   9.465   1.927   8.868  0.5430  0.1784  0.2098
30779SOL    HW194779   9.508   2.002   8.825  0.0781  0.1706 -0.2794
30779SOL    HW294780   9.408   1.891   8.801  1.3225 -1.0842  0.2013
30780SOL     OW94781   0.927   7.197   2.033 -0.3930 -0.1559  0.7027
30780SOL    HW194782   0.971   7.262   2.087 -0.3245 -0.0556  0.5262
30780SOL    HW294783   0.997   7.142   1.999 -0.0777  1.6647 -1.8248
30781SOL     OW94784   1.477   7.390   2.806  0.4677  0.6554  0.3889
30781SOL    HW194785   1.545   7.457   2.806  2.0010 -0.7712 -1.4587
30781SOL    HW294786   1.525   7.307   2.805 -1.3353 -0.4462  0.4540
30782SOL     OW94787   2.565   9.781   0.433 -0.0741  0.2168 -0.2515
30782SOL    HW194788   2.507   9.845   0.474 -0.1119  0.9660 -1.4384
30782SOL    HW294789   2.509   9.732   0.373  0.1781 -0.2105 -0.1430
30783SOL     OW94790   3.987   1.713   2.645  0.5653 -0.1112  0.1293
30783SOL    HW194791   4.032   1.684   2.566 -0.4317 -2.2437  0.3023
30783SOL    HW294792   4.042   1.681   2.717  0.5398  0.2775  0.3258
30784SOL     OW94793   2.457   2.363   5.557  0.8073 -0.3509 -0.5386
30784SOL    HW194794   2.405   2.400   5.486 -0.7038 -0.7006  0.3475
30784SOL    HW294795   2.493   2.438   5.604 -0.9224 -0.0110  0.2918
30785SOL     OW94796   5.544   3.241   8.798  0.0602  0.2390 -0.2543
30785SOL    HW194797   5.494   3.281   8.869 -0.1381 -0.2240 -0.1323
30785SOL    HW294798   5.510   3.152   8.791  0.5825  0.0496 -0.4439
30786SOL     OW94799   8.302   8.593   0.003  0.7082  0.2457 -0.1193
30786SOL    HW194800   8.342   8.602  -0.084  0.1732  0.5359 -0.3368
30786SOL    HW294801   8.373   8.559   0.058  1.3009  0.8744 -0.4767
30787SOL     OW94802   9.558   7.706   8.293 -0.7414  0.2010  0.2046
30787SOL    HW194803   9.596   7.620   8.309  1.1879  0.7400 -1.1516
30787SOL    HW294804   9.546   7.744   8.381 -0.0132 -0.7790  0.7416
30788SOL     OW94805   1.362   5.052   3.584 -0.4336 -0.0769 -0.2044
30788SOL    HW194806   1.312   5.126   3.619  0.6122  0.1166  0.9458
30788SOL    HW294807   1.454   5.079   3.591 -0.1315 -0.4606 -2.1874
30789SOL     OW94808   9.024   6.470   9.208  0.1935  0.3462  0.0820
30789SOL    HW194809   9.085   6.428   9.269 -0.0175  1.7710  1.3192
30789SOL    HW294810   9.025   6.562   9.233  0.3058  1.0408 -2.2711
30790SOL     OW94811   2.937   7.428   3.727 -0.0946 -0.3498  0.2431
30790SOL    HW194812   3.004   7.375   3.770 -0.6970  0.5184  2.3917
30790SOL    HW294813   2.961   7.519   3.748 -1.2649  0.0325  0.0305
30791SOL     OW94814   3.310   6.791   6.864  0.0448  0.7323 -0.3749
30791SOL    HW194815   3.315   6.881   6.831  1.3918  1.1298  0.8062
30791SOL    HW294816   3.363   6.792   6.943 -1.7572 -0.5674  0.9410
30792SOL     OW94817   2.301   7.501   6.598  0.6018  0.5680 -0.1905
30792SOL    HW194818   2.382   7.537   6.633  1.2489 -1.6326  0.7208
30792SOL    HW294819   2.317   7.491   6.504  2.0945 -1.4934  0.2328
30793SOL     OW94820  10.049   0.453   8.460 -0.7989  0.1670 -0.2166
30793SOL    HW194821   9.999   0.429   8.537  0.1050  0.4750  0.4863
30793SOL    HW294822  10.010   0.534   8.429  0.4134  1.4670  1.4589
30794SOL     OW94823   5.149   5.296   6.142  0.2126 -0.1905 -0.2984
30794SOL    HW194824   5.117   5.271   6.056 -1.2102  0.5103  0.0063
30794SOL    HW294825   5.175   5.213   6.183 -0.3445 -0.6690 -0.9030
30795SOL     OW94826   6.756   7.966   4.948 -0.1034  0.2857 -0.4388
30795SOL    HW194827   6.798   8.021   4.882 -0.8819  0.4329 -0.8148
30795SOL    HW294828   6.682   8.017   4.979 -0.3962 -0.2422 -0.2467
30796SOL     OW94829   0.525   3.225   8.906 -0.2173 -0.0183 -0.8454
30796SOL    HW194830   0.432   3.226   8.886 -0.1703 -0.3993 -1.0817
30796SOL    HW294831   0.547   3.317   8.923 -0.9232 -0.0819  0.5671
30797SOL     OW94832   4.099   7.652   4.442  0.2289  0.5908  0.6011
30797SOL    HW194833   4.111   7.612   4.355 -1.0243  0.9632  0.2363
30797SOL    HW294834   4.069   7.741   4.423  1.1197  1.0756  1.4225
30798SOL     OW94835   0.902   3.346   7.872  0.0325  0.5801  0.0140
30798SOL    HW194836   0.888   3.386   7.958 -0.3557  0.3142  0.0738
30798SOL    HW294837   0.986   3.301   7.880 -1.1653 -1.6093  1.0683
30799SOL     OW94838   6.085   8.732   8.937  0.6433  0.0196 -0.2689
30799SOL    HW194839   6.096   8.668   8.867 -0.7015 -1.8316  1.1134
30799SOL    HW294840   5.991   8.750   8.938  0.6823  0.2237  0.8558
30800SOL     OW94841   1.464   3.520   0.075  0.0249  0.0747  0.4346
30800SOL    HW194842   1.370   3.504   0.079 -0.2677  1.7339  0.9999
30800SOL    HW294843   1.476   3.575  -0.002  0.8480 -1.7735 -0.8387
30801SOL     OW94844   1.021   9.466   7.747 -0.2722  0.0002 -0.6788
30801SOL    HW194845   0.943   9.410   7.749 -0.1666 -0.1416 -0.4936
30801SOL    HW294846   1.094   9.406   7.762 -0.2324  0.3183  0.5218
30802SOL     OW94847   7.618   2.175   0.590 -0.8759 -0.1247  0.3474
30802SOL    HW194848   7.591   2.085   0.608 -1.2436 -0.5035 -1.8304
30802SOL    HW294849   7.691   2.191   0.650 -0.2360 -2.1759  0.1873
30803SOL     OW94850   4.719   8.551   2.565  0.3783  0.3822  0.0896
30803SOL    HW194851   4.666   8.569   2.488  0.8623  0.0455 -0.3243
30803SOL    HW294852   4.780   8.624   2.570  0.1877  0.5322  0.3053
30804SOL     OW94853   5.750   1.519   5.650  0.0252  0.1041 -0.5242
30804SOL    HW194854   5.827   1.466   5.671  0.5495  1.1920  0.4833
30804SOL    HW294855   5.702   1.468   5.585  0.5842 -1.4942  0.2582
30805SOL     OW94856   8.228   3.695  10.003  0.1638  0.5750 -0.1178
30805SOL    HW194857   8.236   3.604  10.031  0.2083 -0.0032 -1.8811
30805SOL    HW294858   8.229   3.691   9.907 -1.1416  2.3082 -0.2633
30806SOL     OW94859   6.082   2.704   4.154 -0.0996 -0.0930 -0.4123
30806SOL    HW194860   6.103   2.766   4.084  0.7572  0.3856  0.2466
30806SOL    HW294861   6.015   2.648   4.116  0.1402  0.3296 -1.5260
30807SOL     OW94862   0.091   9.429   1.794  0.5069  0.4505  0.0225
30807SOL    HW194863   0.040   9.372   1.737  1.9177 -0.5951 -0.2591
30807SOL    HW294864   0.095   9.382   1.877  1.5274  0.2008 -0.1545
30808SOL     OW94865   1.218   9.372   4.183  0.2213  0.1667 -0.4730
30808SOL    HW194866   1.174   9.456   4.193  1.0331  0.7701 -1.6176
30808SOL    HW294867   1.236   9.343   4.272 -0.5063  0.9734 -0.0506
30809SOL     OW94868   2.225   6.898   2.390  0.0558  0.8127 -0.7726
30809SOL    HW194869   2.287   6.969   2.407  0.5829  0.3499 -0.7316
30809SOL    HW294870   2.217   6.853   2.474 -0.7931  1.2170 -0.6233
30810SOL     OW94871   9.580   1.628   5.388  0.0007 -0.5069  0.5311
30810SOL    HW194872   9.505   1.644   5.331 -0.3749 -1.0200  0.8744
30810SOL    HW294873   9.572   1.693   5.458 -0.1864 -0.6327  0.6268
30811SOL     OW94874   2.556   5.480   9.657  0.0845  0.1105 -0.4880
30811SOL    HW194875   2.598   5.566   9.669 -1.8473  0.8835  1.5418
30811SOL    HW294876   2.565   5.461   9.564  2.4721  1.4721 -0.5978
30812SOL     OW94877   5.056   7.277   0.109 -0.5919  0.3435 -0.2538
30812SOL    HW194878   5.113   7.353   0.098 -0.7367  0.5063  0.1162
30812SOL    HW294879   4.996   7.280   0.034 -1.1833  1.1038  0.2364
30813SOL     OW94880   8.189   8.981  10.054 -0.3156 -0.0654  0.2060
30813SOL    HW194881   8.169   9.047   9.987  0.2669  0.2896  0.3704
30813SOL    HW294882   8.138   9.008  10.130  0.7376  0.8526  0.6340
30814SOL     OW94883   8.015   2.696   5.904  0.1263 -0.1215 -0.1178
30814SOL    HW194884   7.992   2.768   5.845  0.4613  0.0664 -0.0174
30814SOL    HW294885   8.108   2.709   5.923 -0.1235  0.1878  0.9604
30815SOL     OW94886   3.973   9.553   7.486 -0.1821 -0.7653 -0.0895
30815SOL    HW194887   3.932   9.597   7.560 -0.3572 -2.2177  0.7307
30815SOL    HW294888   4.054   9.601   7.471 -0.7629  0.3336  0.2036
30816SOL     OW94889  10.009   4.636   3.982 -0.6646  0.0649 -0.1329
30816SOL    HW194890  10.102   4.652   3.999 -0.2236 -1.0882 -1.2782
30816SOL    HW294891   9.964   4.672   4.059  0.8321 -0.6275  1.1281
30817SOL     OW94892   2.138   1.977   1.557 -0.2031 -0.0253  0.4537
30817SOL    HW194893   2.207   2.004   1.496 -0.5062  2.7730  1.2213
30817SOL    HW294894   2.058   2.015   1.520 -1.2553 -2.3332  0.1437
30818SOL     OW94895   1.212   4.016   0.312  0.5469  0.0962 -0.5069
30818SOL    HW194896   1.257   3.933   0.295 -1.1550 -1.4660  1.9349
30818SOL    HW294897   1.123   4.001   0.279  0.6437  1.6230 -1.5530
30819SOL     OW94898   9.824   8.711   7.978 -0.4230 -0.5117 -0.3610
30819SOL    HW194899   9.860   8.797   7.952 -0.8700  0.0388  0.7716
30819SOL    HW294900   9.744   8.702   7.927 -0.0623 -0.5247 -0.9262
30820SOL     OW94901   5.506   6.999   7.974  0.6703 -0.4560  0.0270
30820SOL    HW194902   5.455   6.999   8.056  0.3459 -0.2295 -0.1752
30820SOL    HW294903   5.596   6.985   8.003  0.7180  0.7600  0.5246
30821SOL     OW94904   1.692   5.829   2.468 -0.2064 -0.7424  0.2504
30821SOL    HW194905   1.688   5.925   2.468 -0.1185 -0.7133 -1.3332
30821SOL    HW294906   1.765   5.808   2.526 -0.4794  0.1119  0.9431
30822SOL     OW94907   0.629   0.877   7.314  0.6561  0.2787 -0.6991
30822SOL    HW194908   0.667   0.792   7.332  0.4986  0.2990 -0.2547
30822SOL    HW294909   0.634   0.924   7.397 -0.1615  0.3440 -0.6718
30823SOL     OW94910  10.084   7.849   9.136  0.0102 -0.5151  0.1274
30823SOL    HW194911   9.989   7.842   9.122 -0.0995 -0.7017  0.9030
30823SOL    HW294912  10.122   7.790   9.071 -0.2429  1.4309 -1.9219
30824SOL     OW94913   8.419   6.964   8.381 -0.0370 -0.4124  0.2860
30824SOL    HW194914   8.364   6.956   8.304  0.4883 -1.0876 -0.0266
30824SOL    HW294915   8.495   6.909   8.363  0.4907  0.0755  0.9348
30825SOL     OW94916   3.047   3.944   5.035  0.2394 -0.2522  0.1761
30825SOL    HW194917   3.002   3.875   5.082 -0.2892  0.4963  0.7980
30825SOL    HW294918   3.094   3.899   4.965 -1.6502 -1.0444 -0.6504
30826SOL     OW94919   5.221   3.768   2.194  0.4376  0.2517  0.1640
30826SOL    HW194920   5.213   3.857   2.159  0.7894  0.3927  0.4355
30826SOL    HW294921   5.182   3.773   2.281  0.6223  0.1854  0.2509
30827SOL     OW94922   8.728   9.837   3.280  0.1430  0.1991 -0.0564
30827SOL    HW194923   8.815   9.827   3.241  0.1469 -1.3558  0.2832
30827SOL    HW294924   8.745   9.862   3.371  0.2742 -0.7094  0.1802
30828SOL     OW94925   9.946   2.310   1.870  0.1948  0.0106  0.1925
30828SOL    HW194926  10.039   2.292   1.867  0.0420 -0.6210 -1.1040
30828SOL    HW294927   9.909   2.263   1.796 -0.9322  1.5276 -0.2645
30829SOL     OW94928  10.343   8.792   0.816 -0.1158 -0.2374 -0.0290
30829SOL    HW194929  10.297   8.866   0.854  1.6938  0.0048  1.8293
30829SOL    HW294930  10.302   8.780   0.730 -3.1530  0.3176  1.2295
30830SOL     OW94931   1.481   8.226   2.756 -0.1760  0.3036  0.0253
30830SOL    HW194932   1.443   8.138   2.764 -1.2267  0.7165 -0.2454
30830SOL    HW294933   1.575   8.213   2.772 -0.2363 -0.9381 -0.4915
30831SOL     OW94934   5.030   3.161   1.327  0.1993 -0.2476 -0.0602
30831SOL    HW194935   5.121   3.137   1.347  0.5724  1.1737  0.1193
30831SOL    HW294936   5.038   3.232   1.263 -0.7632  0.3712  0.4854
30832SOL     OW94937   3.267   6.110   9.504 -0.0169  0.3450  0.1857
30832SOL    HW194938   3.246   6.115   9.598  1.8879  0.1227  0.6736
30832SOL    HW294939   3.341   6.169   9.493 -1.0058  1.3551 -1.4845
30833SOL     OW94940   7.452   5.797   7.208  0.1848  0.2383 -0.1611
30833SOL    HW194941   7.499   5.743   7.145  0.8160  1.0228 -0.3798
30833SOL    HW294942   7.520   5.852   7.248 -0.5121  1.2751 -0.3582
30834SOL     OW94943   6.908   1.055   3.870  0.7336  0.3851 -0.0753
30834SOL    HW194944   6.942   1.141   3.845  0.1359  0.3044 -1.2464
30834SOL    HW294945   6.865   1.070   3.954 -0.0993  1.4362 -0.6643
30835SOL     OW94946   5.339   5.969   2.380  0.3929 -0.1786  0.2902
30835SOL    HW194947   5.394   6.033   2.424 -0.9106 -0.3353  2.2778
30835SOL    HW294948   5.270   6.020   2.338  0.3106 -0.1695  0.4359
30836SOL     OW94949   8.653   2.565   7.308 -0.2345  0.4290 -0.4076
30836SOL    HW194950   8.745   2.578   7.334 -0.6858  0.7396  1.1792
30836SOL    HW294951   8.646   2.471   7.291  0.8679  0.7144 -2.7346
30837SOL     OW94952   2.955   4.563   3.600  0.3475 -0.3296 -0.3800
30837SOL    HW194953   2.918   4.651   3.600  0.3940 -0.3071 -0.7957
30837SOL    HW294954   2.956   4.538   3.507  1.4655 -0.2887 -0.3885
30838SOL     OW94955   4.921   4.306   1.144 -0.1138 -0.1918 -0.0446
30838SOL    HW194956   4.933   4.248   1.068 -0.7451  0.9080 -1.0116
30838SOL    HW294957   4.878   4.384   1.108  0.5407  0.8040  1.2641
30839SOL     OW94958   6.539   4.391   3.506  0.1954 -0.2708 -0.0366
30839SOL    HW194959   6.551   4.299   3.479  1.9353  0.2090 -1.0381
30839SOL    HW294960   6.563   4.442   3.428 -1.4820  1.0398  0.2677
30840SOL     OW94961   6.935   9.605   5.629 -0.2559  0.4874  0.5756
30840SOL    HW194962   6.937   9.696   5.659  0.4945  1.0416 -1.0387
30840SOL    HW294963   6.845   9.592   5.599 -0.5602  0.4556  1.4760
30841SOL     OW94964  10.037   2.646   1.399 -0.2614  0.1046  0.7649
30841SOL    HW194965  10.027   2.729   1.352 -0.0486 -0.5981 -0.5667
30841SOL    HW294966   9.949   2.608   1.399  0.0960 -0.7685 -0.7666
30842SOL     OW94967   7.639   9.041   0.274  0.5482  0.1187 -0.1778
30842SOL    HW194968   7.579   8.982   0.229 -0.6461  0.3544  1.0199
30842SOL    HW294969   7.621   9.127   0.236  1.6808 -0.1093 -1.3150
30843SOL     OW94970   7.000   6.573   6.898  0.8213 -0.3996 -0.4073
30843SOL    HW194971   7.015   6.547   6.989 -0.0422 -1.4172 -0.5453
30843SOL    HW294972   7.086   6.562   6.856  1.6802  1.7297  0.6303
30844SOL     OW94973   9.209   3.391   7.583 -0.8756 -0.3904 -0.1916
30844SOL    HW194974   9.138   3.369   7.643 -0.4550  0.2331  0.5532
30844SOL    HW294975   9.247   3.306   7.559  0.2942 -0.5907  2.1083
30845SOL     OW94976   7.773   7.323   7.181 -0.1544 -0.1252  0.1923
30845SOL    HW194977   7.702   7.385   7.196 -1.5011 -0.7856 -2.8349
30845SOL    HW294978   7.731   7.237   7.175  0.9648 -0.6445 -0.8170
30846SOL     OW94979   3.466   0.899  10.415 -0.0758  0.3431  0.2612
30846SOL    HW194980   3.408   0.912  10.491  0.8288 -1.0928  1.2307
30846SOL    HW294981   3.551   0.877  10.453  0.7290  0.8411 -1.1745
30847SOL     OW94982   6.469   9.712   3.852  0.7055  0.3626  0.5657
30847SOL    HW194983   6.408   9.724   3.779  0.5474 -1.4074  0.3696
30847SOL    HW294984   6.550   9.684   3.810  0.9369  0.3718  1.0047
30848SOL     OW94985   7.546   0.191   4.394  0.6654  0.2162  0.1072
30848SOL    HW194986   7.451   0.190   4.389  0.6713 -2.2320 -0.6081
30848SOL    HW294987   7.575   0.158   4.309  2.1225 -0.0812  0.6928
30849SOL     OW94988   6.098   8.136   5.408 -0.0002 -0.1374 -0.3150
30849SOL    HW194989   6.126   8.075   5.477 -1.3860 -2.2397 -1.4900
30849SOL    HW294990   6.005   8.149   5.424  0.5657  3.3011  1.0029
30850SOL     OW94991   6.149   4.406   8.500  0.3177  0.3195 -0.0247
30850SOL    HW194992   6.120   4.373   8.415  2.5739  0.4410 -0.9210
30850SOL    HW294993   6.145   4.501   8.492  2.2269  0.3935 -0.7278
30851SOL     OW94994   0.388   5.140   4.798  0.0074 -0.0974  0.2801
30851SOL    HW194995   0.361   5.090   4.875  1.4679 -0.6698  0.4482
30851SOL    HW294996   0.483   5.131   4.795  0.0231  0.2353 -1.3750
30852SOL     OW94997   7.786   7.558   9.378 -0.5365 -0.3565  0.4891
30852SOL    HW194998   7.863   7.503   9.365 -0.5850 -0.3399  0.1244
30852SOL    HW294999   7.742   7.521   9.455 -0.6682 -0.9426  0.1375
30853SOL     OW95000   9.553   7.879   0.923 -0.0409 -0.2035 -0.5021
30853SOL    HW195001   9.468   7.923   0.931  0.3104  0.4911 -0.5206
30853SOL    HW295002   9.574   7.849   1.012  0.4724  1.1101 -0.1584
30854SOL     OW95003   3.610   2.498   5.904 -0.3630 -0.1558 -0.0911
30854SOL    HW195004   3.585   2.476   5.814  0.9270 -0.1459 -0.4758
30854SOL    HW295005   3.555   2.573   5.926 -0.8757 -0.3140 -0.7778
30855SOL     OW95006   6.757   6.653   0.069 -0.2054  0.0696  0.2058
30855SOL    HW195007   6.671   6.683   0.099 -0.3687 -0.8643  0.7371
30855SOL    HW295008   6.778   6.579   0.127  2.2841  2.0352  2.0192
30856SOL     OW95009   6.096   0.537   8.728 -0.4986 -0.0028 -0.3327
30856SOL    HW195010   6.117   0.630   8.730 -0.8646  0.0908 -0.6079
30856SOL    HW295011   6.023   0.528   8.790  1.1469 -0.5439  1.6170
30857SOL     OW95012   5.580   4.487   3.953  0.7346 -0.6060  0.2813
30857SOL    HW195013   5.667   4.455   3.926  0.2547 -0.8495 -1.0702
30857SOL    HW295014   5.545   4.529   3.874 -0.3791 -0.5083  0.8141
30858SOL     OW95015   1.058   9.995   9.186  0.3989 -0.4348  0.5767
30858SOL    HW195016   1.045   9.907   9.222 -0.3492 -1.1627 -1.2950
30858SOL    HW295017   0.970  10.032   9.184 -0.0225 -1.3239 -2.4879
30859SOL     OW95018   2.297   5.894  10.468 -0.0200  0.2996 -0.0103
30859SOL    HW195019   2.348   5.879  10.388 -0.7790 -0.1636 -0.4199
30859SOL    HW295020   2.346   5.848  10.536 -0.4193 -1.0409 -0.5983
30860SOL     OW95021   4.887   0.530   7.858 -0.6040 -0.7159  0.0412
30860SOL    HW195022   4.838   0.505   7.780  0.6128 -1.8992 -0.3889
30860SOL    HW295023   4.896   0.448   7.907  0.9409 -0.5495  0.0835
30861SOL     OW95024   4.196   1.035   2.978 -0.6307  0.2281  0.2756
30861SOL    HW195025   4.115   1.057   3.025 -0.0785  0.4236  1.1458
30861SOL    HW295026   4.238   1.120   2.963 -0.7172  0.1525 -0.4293
30862SOL     OW95027   4.938   6.563   7.428 -0.1226 -0.0294  0.3930
30862SOL    HW195028   4.873   6.607   7.484 -1.9654  0.6984 -2.0987
30862SOL    HW295029   5.010   6.625   7.422 -0.5555  0.5294  0.7832
30863SOL     OW95030   8.902   6.655   9.715  0.0858  0.1862 -0.2002
30863SOL    HW195031   8.869   6.627   9.630 -2.4547 -0.8574  1.0367
30863SOL    HW295032   8.856   6.737   9.732 -0.4905 -0.3219  0.7432
30864SOL     OW95033   3.611   7.548   4.799  0.1254 -0.8047  0.1530
30864SOL    HW195034   3.656   7.632   4.792  1.0075 -1.2811  0.0536
30864SOL    HW295035   3.583   7.543   4.891  0.6278 -0.6897  0.3124
30865SOL     OW95036   4.329  10.294   3.779  0.2056 -0.2828  0.1933
30865SOL    HW195037   4.281  10.309   3.697  0.8936 -1.6419 -0.4938
30865SOL    HW295038   4.393  10.365   3.783 -2.7981  2.5929  1.9664
30866SOL     OW95039   3.335   9.538   2.155 -0.4071  0.3948 -0.1417
30866SOL    HW195040   3.399   9.608   2.170  0.4512 -0.3091 -0.4644
30866SOL    HW295041   3.369   9.463   2.203  0.0603 -0.5726 -1.9001
30867SOL     OW95042   9.091   3.700   1.073  0.3960 -0.4315 -0.3233
30867SOL    HW195043   9.083   3.788   1.110 -0.1852 -0.7330  0.2819
30867SOL    HW295044   9.020   3.651   1.113 -0.0759 -0.8534 -1.6232
30868SOL     OW95045   2.644   1.666   7.521  0.2352  0.2540  0.4450
30868SOL    HW195046   2.668   1.594   7.462  0.0243  1.4782 -1.2104
30868SOL    HW295047   2.685   1.643   7.604  0.5496 -1.5512 -0.1669
30869SOL     OW95048   3.615   3.153   1.263  0.4188 -0.2898  0.0090
30869SOL    HW195049   3.595   3.243   1.289 -0.9087 -0.7371  0.6199
30869SOL    HW295050   3.645   3.111   1.344 -0.5568 -0.8158  0.1167
30870SOL     OW95051   9.614   9.816   8.911  0.3922 -0.3452 -0.0302
30870SOL    HW195052   9.533   9.867   8.911  0.2435 -0.4657  2.2038
30870SOL    HW295053   9.611   9.766   8.829 -0.6402  1.3687 -1.0869
30871SOL     OW95054   5.953   9.822  10.400 -0.8635  0.3284 -0.2124
30871SOL    HW195055   5.905   9.739  10.405 -0.4264  0.0271 -0.9342
30871SOL    HW295056   6.020   9.807  10.333  0.0073  0.8621  0.5073
30872SOL     OW95057   0.835   3.411   6.300 -0.4766 -0.5030  0.0021
30872SOL    HW195058   0.882   3.329   6.314 -0.2356 -1.0054 -3.0126
30872SOL    HW295059   0.814   3.442   6.388  4.7326 -0.6238  1.6236
30873SOL     OW95060   3.608   5.668   5.075 -0.0691 -0.1494  0.2836
30873SOL    HW195061   3.546   5.608   5.117 -2.8648  1.2547 -1.5290
30873SOL    HW295062   3.692   5.621   5.077 -1.3137 -2.5400  2.0844
30874SOL     OW95063   3.202   6.921   4.199 -0.4918  0.3938  0.3505
30874SOL    HW195064   3.113   6.925   4.234 -0.6669  0.8965 -0.1315
30874SOL    HW295065   3.190   6.890   4.109 -0.2799  1.3825 -0.0306
30875SOL     OW95066   9.001   0.696   5.382 -0.0366 -0.4814 -0.1898
30875SOL    HW195067   8.915   0.722   5.415 -0.5769 -1.5471 -0.6802
30875SOL    HW295068   9.033   0.772   5.334 -0.9764 -0.2639 -0.4913
30876SOL     OW95069   1.149   0.711   9.305  0.3265 -0.2474  0.3001
30876SOL    HW195070   1.188   0.627   9.283  1.4136  1.3377 -5.1971
30876SOL    HW295071   1.055   0.696   9.302  0.5088 -1.3421 -0.4140
30877SOL     OW95072  10.192   2.781   2.658  0.0301  0.2199  0.1392
30877SOL    HW195073  10.170   2.815   2.571 -1.7356 -1.7045 -0.2719
30877SOL    HW295074  10.125   2.818   2.716  0.6173  0.7292  0.4976
30878SOL     OW95075   4.267   8.137   3.496  0.3780  0.4838 -0.2156
30878SOL    HW195076   4.279   8.227   3.525 -2.1176  1.8429 -2.9290
30878SOL    HW295077   4.320   8.130   3.417  0.4274 -0.4416 -0.1192
30879SOL     OW95078   8.324   4.553   2.629  0.6987  0.5837  0.1304
30879SOL    HW195079   8.375   4.632   2.612  2.2661  0.1434  2.4078
30879SOL    HW295080   8.310   4.515   2.542 -0.0239  3.2330 -1.0223
30880SOL     OW95081   1.064   3.511   7.069  0.5758  0.0414 -0.3523
30880SOL    HW195082   1.136   3.490   7.009  0.7491  1.2850 -0.6190
30880SOL    HW295083   1.078   3.455   7.145  0.7602 -1.0526 -1.1754
30881SOL     OW95084   7.657   8.749   8.995  0.0746  0.4063  0.1907
30881SOL    HW195085   7.729   8.686   8.990  0.3506  0.7534 -0.3028
30881SOL    HW295086   7.666   8.803   8.916 -0.6635  0.5233  0.1747
30882SOL     OW95087   1.603   1.648   1.360  0.2135  0.0005 -0.0487
30882SOL    HW195088   1.516   1.662   1.323 -0.8936  0.4928  2.5354
30882SOL    HW295089   1.662   1.651   1.285 -1.6509  2.7945 -1.5746
30883SOL     OW95090   6.737   7.540   1.607  0.0090 -0.2303 -0.4549
30883SOL    HW195091   6.698   7.462   1.567 -0.7082 -0.1089 -0.0164
30883SOL    HW295092   6.785   7.582   1.536  2.8472 -2.5618 -0.0901
30884SOL     OW95093   6.253   4.028   8.356 -0.5905  0.0664  0.7667
30884SOL    HW195094   6.312   3.981   8.415 -1.2163 -0.1243  1.2598
30884SOL    HW295095   6.300   4.108   8.334 -0.0208 -0.2245  0.8994
30885SOL     OW95096   7.177   9.203   0.370  0.4101 -0.3276  0.1275
30885SOL    HW195097   7.190   9.239   0.458  0.9058  2.2104 -0.8957
30885SOL    HW295098   7.106   9.255   0.333 -0.2518 -1.8176 -0.7701
30886SOL     OW95099   6.254   0.170   0.448 -0.5461 -0.1349 -0.0608
30886SOL    HW195100   6.320   0.111   0.413  0.1575 -0.0667  1.0895
30886SOL    HW295101   6.249   0.241   0.384 -1.2944 -1.3218 -1.3876
30887SOL     OW95102   6.917   7.158   1.431  0.1787 -0.2075 -0.0248
30887SOL    HW195103   6.936   7.166   1.524 -1.5071  0.1599  0.3135
30887SOL    HW295104   6.922   7.064   1.413  2.0815 -0.1691  0.0352
30888SOL     OW95105   0.237   3.739   3.513 -0.1119  0.3932 -0.4474
30888SOL    HW195106   0.314   3.754   3.458 -0.2992  0.3549 -0.7243
30888SOL    HW295107   0.164   3.739   3.452 -0.1528 -1.4565 -0.4698
30889SOL     OW95108   9.618   4.251   6.722  0.3347 -0.2399  0.7616
30889SOL    HW195109   9.566   4.171   6.719  0.7684 -0.5115  0.2873
30889SOL    HW295110   9.603   4.293   6.638  1.1422 -0.4994  0.4718
30890SOL     OW95111   1.061   5.321   2.466  0.3742 -0.3095 -0.4000
30890SOL    HW195112   1.018   5.241   2.435 -0.3024 -0.2145  0.2424
30890SOL    HW295113   1.004   5.352   2.537  1.0798  0.2790 -0.0798
30891SOL     OW95114   6.081   7.193   6.390 -0.1212 -0.1446 -0.0463
30891SOL    HW195115   6.062   7.105   6.420 -2.0658 -0.2242 -1.3077
30891SOL    HW295116   6.171   7.189   6.357  0.3834 -1.1949  1.3687
30892SOL     OW95117   3.098  10.021   0.762  0.7925  0.2398 -0.2686
30892SOL    HW195118   3.077  10.106   0.723 -0.5336  0.1433  0.1899
30892SOL    HW295119   3.190  10.028   0.787  1.4197  0.6529 -2.4888
30893SOL     OW95120   9.022   4.812   1.449 -0.1827  0.0792  0.2077
30893SOL    HW195121   9.055   4.753   1.517  0.0480  0.7478  0.6781
30893SOL    HW295122   9.097   4.866   1.424  0.4786 -1.8354 -2.4526
30894SOL     OW95123   9.438   3.694   8.944  0.4865 -0.2733 -0.1241
30894SOL    HW195124   9.439   3.746   8.864  3.0794  1.0218  0.6670
30894SOL    HW295125   9.436   3.603   8.913  0.5280  0.2102 -1.6310
30895SOL     OW95126   5.980   6.513   5.062 -0.0768  0.4573  0.5659
30895SOL    HW195127   5.971   6.466   4.979  0.0282  0.2506  0.6707
30895SOL    HW295128   5.977   6.605   5.038  0.4149  0.4009  0.2776
30896SOL     OW95129   1.746   2.103   7.648 -0.5169  0.4596 -0.0077
30896SOL    HW195130   1.825   2.150   7.672 -0.7325  0.9910 -0.3295
30896SOL    HW295131   1.775   2.012   7.636  0.2389  0.8431 -1.1705
30897SOL     OW95132   4.323   1.825   5.169 -0.5751  0.1595  0.0063
30897SOL    HW195133   4.268   1.780   5.234  0.3346  0.4214  0.9827
30897SOL    HW295134   4.337   1.760   5.101 -1.9930  0.0421 -0.2142
30898SOL     OW95135   7.555   9.335   4.301 -0.5746  0.1754 -0.1188
30898SOL    HW195136   7.515   9.374   4.223 -0.2425  1.5343  0.3688
30898SOL    HW295137   7.635   9.294   4.270 -0.0362  1.3967 -0.3884
30899SOL     OW95138   3.260   1.775   9.468 -0.2316 -0.0228 -0.3523
30899SOL    HW195139   3.348   1.748   9.442 -0.3416 -1.3318  0.5387
30899SOL    HW295140   3.273   1.857   9.516  0.4326  0.0669 -0.6793
30900SOL     OW95141   1.779   8.300   2.467 -0.1222 -0.6742  0.0861
30900SOL    HW195142   1.870   8.329   2.460 -0.0095  0.1890  3.5273
30900SOL    HW295143   1.735   8.343   2.393  1.7288  1.3697  0.0600
30901SOL     OW95144   3.947   3.388   4.759  0.7124  0.0738 -0.3084
30901SOL    HW195145   3.946   3.350   4.671  1.7531 -1.4215  0.2828
30901SOL    HW295146   4.033   3.363   4.795  0.7092  1.4889  0.7843
30902SOL     OW95147   9.263   9.058   0.479  0.6245 -0.7614 -0.2212
30902SOL    HW195148   9.306   9.052   0.565 -0.7085 -0.5906  0.4767
30902SOL    HW295149   9.261   8.968   0.447  0.8191 -0.8706  0.0690
30903SOL     OW95150   4.846   2.775   2.142  0.4412  0.0214  0.0439
30903SOL    HW195151   4.810   2.688   2.163 -0.2146  0.3717  0.4153
30903SOL    HW295152   4.799   2.801   2.062 -0.0017  0.3969  0.4192
30904SOL     OW95153   0.808   6.916   7.525  0.3582  0.2134 -0.3034
30904SOL    HW195154   0.765   6.908   7.440 -0.2418  1.2983 -0.1110
30904SOL    HW295155   0.804   7.009   7.546  1.1565  0.0659  0.5820
30905SOL     OW95156   2.585   5.075   0.882  0.3443 -0.1376  0.2436
30905SOL    HW195157   2.636   5.032   0.813 -1.3328 -1.1852 -0.3856
30905SOL    HW295158   2.601   5.169   0.868  1.0217 -0.3836 -0.7585
30906SOL     OW95159   0.050   2.450   1.299  0.2615 -0.3703 -0.1247
30906SOL    HW195160   0.032   2.369   1.348  3.4307 -0.6737  0.7416
30906SOL    HW295161   0.110   2.499   1.355 -0.6535  2.0886 -1.1657
30907SOL     OW95162   1.900   4.257   8.503  0.5640 -0.4424 -0.2573
30907SOL    HW195163   1.812   4.236   8.472  0.6722 -0.8515 -0.3011
30907SOL    HW295164   1.958   4.203   8.449  0.8204 -0.3905 -0.0382
30908SOL     OW95165   5.481   2.232   0.298 -0.5027 -0.1516  0.4919
30908SOL    HW195166   5.507   2.281   0.376  0.0541  0.9239 -0.3421
30908SOL    HW295167   5.387   2.217   0.309 -0.8673  1.7914  0.4351
30909SOL     OW95168   2.673   1.997   2.192 -0.5556  0.2206  0.1734
30909SOL    HW195169   2.584   1.962   2.195  0.0768 -1.4070  1.5434
30909SOL    HW295170   2.663   2.086   2.157 -2.7382  0.1805  0.5757
30910SOL     OW95171   1.020   8.032   6.576  0.4476  0.5649  0.1153
30910SOL    HW195172   1.058   8.118   6.597 -1.1528  0.9598  1.6415
30910SOL    HW295173   0.945   8.024   6.635  1.3100 -2.4864  0.9738
30911SOL     OW95174   9.416   2.429   8.912  0.0574  0.5263  0.4514
30911SOL    HW195175   9.353   2.468   8.852  1.4129  0.1959 -1.2581
30911SOL    HW295176   9.480   2.387   8.856  0.0833 -1.9468  2.1727
30912SOL     OW95177   4.205   2.427   3.945  0.1106 -0.1906 -0.5594
30912SOL    HW195178   4.224   2.351   4.001 -0.1492  1.1128  1.3716
30912SOL    HW295179   4.267   2.494   3.973 -2.1236  1.5719  0.5011
30913SOL     OW95180  10.051   3.160  10.481  0.7487  0.2904  0.2892
30913SOL    HW195181  10.141   3.192  10.470  0.3743  0.7975 -1.6305
30913SOL    HW295182   9.997   3.222  10.432 -0.8712  0.8419  2.6070
30914SOL     OW95183   9.926   8.692   9.597 -0.3757 -0.3376  0.4731
30914SOL    HW195184   9.882   8.767   9.556  0.0755  0.4774  1.4586
30914SOL    HW295185   9.942   8.632   9.524 -1.6725  0.0467 -0.1734
30915SOL     OW95186   1.417   0.366   0.761  0.2810 -0.5493  0.2933
30915SOL    HW195187   1.455   0.279   0.749  0.6074 -0.4829  0.8223
30915SOL    HW295188   1.351   0.353   0.829 -0.2494 -0.5463 -0.2127
30916SOL     OW95189   4.883   1.070   2.379  0.4648  0.1602 -0.4528
30916SOL    HW195190   4.824   0.997   2.363  0.0456  0.1506  0.9909
30916SOL    HW295191   4.970   1.031   2.379  0.2072 -0.5119  0.9788
30917SOL     OW95192   8.970   5.733   6.000 -0.0617 -0.4601 -0.1192
30917SOL    HW195193   9.057   5.698   6.020  0.4169 -0.4065 -1.9543
30917SOL    HW295194   8.926   5.662   5.953 -0.3269  0.1565 -0.8273
30918SOL     OW95195   2.109   7.722   6.576 -0.0211 -0.1761 -0.0145
30918SOL    HW195196   2.024   7.697   6.538 -0.6959 -1.0216  1.9418
30918SOL    HW295197   2.155   7.639   6.588  0.5011  0.1529  0.2793
30919SOL     OW95198   6.157   4.060   6.176 -0.1984  0.2280  0.2468
30919SOL    HW195199   6.145   4.144   6.220 -1.8920  0.4754 -0.5537
30919SOL    HW295200   6.195   4.083   6.091 -0.4891  0.1771  0.1007
30920SOL     OW95201   2.338   5.005   2.400 -0.2888  0.2875  0.0431
30920SOL    HW195202   2.338   4.911   2.386  0.8712  0.1409  0.9147
30920SOL    HW295203   2.283   5.019   2.477 -1.6524  0.4891 -0.9354
30921SOL     OW95204   1.194   3.935   4.349  0.2001  0.5403  0.2808
30921SOL    HW195205   1.158   3.968   4.267 -0.0163  0.7097  0.4404
30921SOL    HW295206   1.265   3.876   4.323 -0.4056 -0.0552 -0.0484
30922SOL     OW95207   8.892   3.597   4.873  0.0975 -0.2069 -0.3696
30922SOL    HW195208   8.877   3.689   4.897  0.3451 -0.2993  0.1492
30922SOL    HW295209   8.807   3.567   4.840  0.2011  0.4090 -1.2267
30923SOL     OW95210   9.497   5.530   2.767  0.0379 -0.2132 -0.3950
30923SOL    HW195211   9.541   5.557   2.686  1.2331 -0.6567  0.0825
30923SOL    HW295212   9.530   5.442   2.784 -1.0838 -0.5801 -0.0214
30924SOL     OW95213   8.090   4.252   9.546 -0.2749 -0.0743 -0.4702
30924SOL    HW195214   8.076   4.282   9.635  3.6358  0.6232  0.0942
30924SOL    HW295215   8.180   4.276   9.526  0.2604 -3.4545 -3.2828
30925SOL     OW95216   0.957   7.829   3.852  0.4140  0.3509  0.4956
30925SOL    HW195217   0.938   7.768   3.924  0.4427  0.3338  0.4889
30925SOL    HW295218   1.049   7.854   3.867  0.2985  0.6558  0.6948
30926SOL     OW95219   2.459   1.926   5.303 -0.1590 -0.4151  0.0858
30926SOL    HW195220   2.387   1.963   5.354  0.3434 -0.5541  0.9130
30926SOL    HW295221   2.536   1.936   5.359  0.4351 -0.4578 -0.6985
30927SOL     OW95222   5.327   0.154   6.858 -0.4763 -0.1222 -0.1371
30927SOL    HW195223   5.401   0.113   6.902 -1.9606 -0.6380  2.0605
30927SOL    HW295224   5.295   0.088   6.797 -0.1616 -0.5459  0.1515
30928SOL     OW95225  10.268   3.147  10.128 -0.0859 -0.2531  0.1120
30928SOL    HW195226  10.267   3.096  10.209 -0.2669  0.5241  0.6102
30928SOL    HW295227  10.361   3.159  10.109 -0.0429 -0.6994  0.0337
30929SOL     OW95228   7.234   9.707   6.762 -0.1859  0.2289 -0.5166
30929SOL    HW195229   7.196   9.759   6.833 -2.6085 -1.5937 -0.3254
30929SOL    HW295230   7.323   9.741   6.751 -0.1568  1.3965  2.5276
30930SOL     OW95231   9.755   7.584   4.227 -0.4487  0.0663  0.1541
30930SOL    HW195232   9.735   7.673   4.257 -2.0506 -0.3752  0.5039
30930SOL    HW295233   9.850   7.581   4.225 -0.3524  1.7124  0.3645
30931SOL     OW95234   3.269   3.614   8.249 -0.1851 -0.2067 -0.7142
30931SOL    HW195235   3.364   3.623   8.259 -0.3343 -0.0842  0.7793
30931SOL    HW295236   3.233   3.695   8.285 -0.9809 -1.5676  1.7683
30932SOL     OW95237   9.562  10.249   2.070 -0.5546 -0.3777 -0.1234
30932SOL    HW195238   9.492  10.311   2.048  1.3530  3.2877  2.8203
30932SOL    HW295239   9.541  10.221   2.160  0.9690 -0.2920  0.2812
30933SOL     OW95240   1.357  10.472   4.132 -0.5445 -0.6655 -0.6044
30933SOL    HW195241   1.319  10.408   4.192  0.3313  0.2798  1.0119
30933SOL    HW295242   1.284  10.530   4.109 -0.2778  0.9817  2.2641
30934SOL     OW95243   8.342   5.852   0.270 -0.8439  0.4027  0.6588
30934SOL    HW195244   8.324   5.864   0.177 -2.8698 -0.0047  0.9598
30934SOL    HW295245   8.382   5.934   0.298  0.6788  0.1946 -0.7282
30935SOL     OW95246   3.409  10.385   3.284 -0.1103  0.2224 -0.0751
30935SOL    HW195247   3.444  10.322   3.220 -0.4998 -0.5546  0.4681
30935SOL    HW295248   3.440  10.353   3.368 -1.0101  0.2855  0.2870
30936SOL     OW95249   7.360   9.719   8.004 -0.1892 -0.0257 -0.3947
30936SOL    HW195250   7.455   9.707   8.006 -0.3552 -1.3957  0.9221
30936SOL    HW295251   7.348   9.813   7.988  1.3638  0.0759 -1.1097
30937SOL     OW95252   2.525   9.289   1.662  0.0456  0.2281  0.0905
30937SOL    HW195253   2.569   9.354   1.716 -1.3868  1.0814  0.2791
30937SOL    HW295254   2.512   9.332   1.578  0.1402 -0.2309 -0.1592
30938SOL     OW95255   6.944   0.065   1.955  0.3927  0.5203 -0.1331
30938SOL    HW195256   6.989   0.090   2.036  1.3123  1.5268 -0.9351
30938SOL    HW295257   6.911   0.148   1.920  0.2893  0.1288 -0.9684
30939SOL     OW95258   0.327   2.530   6.247 -0.6942 -0.0341 -0.2871
30939SOL    HW195259   0.313   2.610   6.197 -1.6431  0.1232  0.2140
30939SOL    HW295260   0.356   2.466   6.182  1.3534  1.0166 -0.5068
30940SOL     OW95261   1.889   6.872   6.929 -0.2019 -0.3767 -1.0535
30940SOL    HW195262   1.891   6.944   6.865 -0.6840  0.9127  0.3260
30940SOL    HW295263   1.800   6.875   6.965  0.3827 -0.3846  0.4373
30941SOL     OW95264   1.002   4.193   0.488  0.4657 -0.2889  0.2481
30941SOL    HW195265   1.076   4.140   0.459  0.6354 -0.6489  1.2732
30941SOL    HW295266   0.932   4.172   0.427  1.1123 -0.1865 -0.5459
30942SOL     OW95267   9.558   3.935   0.500 -0.4908  0.1863 -0.4322
30942SOL    HW195268   9.516   4.021   0.501  2.0536  1.5289  0.0103
30942SOL    HW295269   9.561   3.908   0.591 -0.9228 -0.1902 -0.5274
30943SOL     OW95270   7.313   7.926   4.764  0.1023 -0.5019  0.0287
30943SOL    HW195271   7.266   7.978   4.829  0.4063  0.6047 -0.6146
30943SOL    HW295272   7.395   7.901   4.808 -0.6503 -1.6768  0.8341
30944SOL     OW95273   0.535   0.833   1.921 -0.0397 -0.3826  0.1678
30944SOL    HW195274   0.443   0.837   1.943  0.0457  0.5205  0.4075
30944SOL    HW295275   0.574   0.776   1.986 -0.3754 -0.4960  0.2656
30945SOL     OW95276   8.247   4.429   1.032  0.1888  0.4062 -0.4043
30945SOL    HW195277   8.288   4.394   1.112 -1.2477 -0.1918  0.1037
30945SOL    HW295278   8.245   4.523   1.046  0.8076  0.3881 -0.1613
30946SOL     OW95279   8.913   2.278   2.157 -0.1926 -0.0697 -0.5563
30946SOL    HW195280   8.969   2.355   2.151  1.2606 -1.1900 -2.6813
30946SOL    HW295281   8.895   2.255   2.066  0.0920 -2.6778 -0.0210
30947SOL     OW95282   4.353   3.601   6.523  0.4724  0.1140  0.4176
30947SOL    HW195283   4.369   3.677   6.580 -0.5616  0.0073  0.8797
30947SOL    HW295284   4.274   3.561   6.559  0.1685 -0.3385 -0.7160
30948SOL     OW95285  10.173   4.005   3.506 -0.1517 -0.1610 -0.0620
30948SOL    HW195286  10.136   4.083   3.465  1.1637  0.5253  0.0094
30948SOL    HW295287  10.192   3.946   3.433  1.3252  0.6875 -0.4029
30949SOL     OW95288   4.837   4.630   8.013 -0.2659 -0.2148 -0.3726
30949SOL    HW195289   4.916   4.629   8.068 -0.3589  1.7992 -0.1530
30949SOL    HW295290   4.777   4.570   8.057  0.4654 -0.3473  0.4787
30950SOL     OW95291   9.381   2.327   9.457 -0.1468  0.3917  0.7534
30950SOL    HW195292   9.369   2.308   9.364 -0.0191 -0.2557  0.8641
30950SOL    HW295293   9.293   2.319   9.494 -0.0601 -0.2053  0.8357
30951SOL     OW95294   9.933   1.433   3.114 -0.0407 -0.1038  0.9117
30951SOL    HW195295   9.978   1.365   3.165 -1.5163 -2.0265 -0.2406
30951SOL    HW295296   9.892   1.489   3.180  2.3856  0.6158  1.9288
30952SOL     OW95297   8.122   0.878   0.916 -0.9410 -0.0763  0.0257
30952SOL    HW195298   8.031   0.886   0.887 -0.6314 -0.5568 -1.1260
30952SOL    HW295299   8.156   0.968   0.915 -1.7157  0.2749  1.6225
30953SOL     OW95300   3.873   3.695   9.254  0.0257  0.4295 -0.1673
30953SOL    HW195301   3.939   3.634   9.220 -2.0229 -0.8160 -2.2409
30953SOL    HW295302   3.886   3.693   9.349  1.7038 -1.2449 -0.3461
30954SOL     OW95303   6.109   1.411   7.418 -0.7448 -0.1404 -0.1088
30954SOL    HW195304   6.118   1.334   7.474  1.0952 -0.5768 -0.9206
30954SOL    HW295305   6.090   1.483   7.478  1.6567 -0.4984  1.1723
30955SOL     OW95306   0.461   8.108   2.934  0.1479  0.1924  0.1051
30955SOL    HW195307   0.546   8.143   2.962  2.1967 -0.9671 -3.9864
30955SOL    HW295308   0.424   8.176   2.877  0.0063 -0.7073 -0.9057
30956SOL     OW95309   4.212   4.884   2.734 -0.4299 -0.1992  0.1930
30956SOL    HW195310   4.129   4.841   2.714 -0.4434 -0.5819  1.0075
30956SOL    HW295311   4.196   4.977   2.717  0.0943 -0.5955 -3.2402
30957SOL     OW95312   5.056   2.246   6.060 -0.0103  0.1268 -0.2212
30957SOL    HW195313   5.130   2.222   6.116 -1.0336 -1.0694  0.6675
30957SOL    HW295314   5.038   2.167   6.009  1.1066  1.2696 -2.5801
30958SOL     OW95315   9.796   8.937  10.475  0.0117 -0.0447  0.3534
30958SOL    HW195316   9.836   8.860  10.435 -0.2597 -0.9151  1.7179
30958SOL    HW295317   9.710   8.944  10.432 -0.6391 -1.4857  1.3447
30959SOL     OW95318   5.625   9.033   3.884 -0.2867  0.3583 -0.5566
30959SOL    HW195319   5.700   9.061   3.937 -1.4242  1.5692  0.4685
30959SOL    HW295320   5.592   8.955   3.928  0.1024  0.0752 -0.7616
30960SOL     OW95321   9.451   6.115   1.479  0.0010 -0.0233 -0.2332
30960SOL    HW195322   9.481   6.191   1.430  0.6006 -0.4567 -0.5566
30960SOL    HW295323   9.530   6.081   1.521 -0.7081  1.2101  2.3232
30961SOL     OW95324   3.002   4.749   7.835  0.4049 -0.1064  0.2703
30961SOL    HW195325   2.987   4.665   7.878 -0.6600  0.7205  1.6240
30961SOL    HW295326   2.923   4.764   7.783 -0.5280  1.0787  1.9054
30962SOL     OW95327   2.550   3.734   3.338  0.0148 -0.1479 -0.3081
30962SOL    HW195328   2.576   3.642   3.341  0.0786 -0.1328 -0.4033
30962SOL    HW295329   2.472   3.735   3.284 -0.5811 -0.2865  0.5232
30963SOL     OW95330   5.616   6.457   9.553  0.3604 -0.3448 -0.2986
30963SOL    HW195331   5.609   6.366   9.582  2.2904 -0.3061  0.4270
30963SOL    HW295332   5.620   6.508   9.634  0.8325  0.2394 -0.6843
30964SOL     OW95333   7.321   4.975   6.371 -0.1381 -0.5102 -0.1660
30964SOL    HW195334   7.293   5.066   6.372 -2.4515 -1.1143 -1.3915
30964SOL    HW295335   7.317   4.947   6.462 -0.4835  0.3257  0.0841
30965SOL     OW95336   6.051   7.193   0.670 -0.0729  0.7332  0.4096
30965SOL    HW195337   6.051   7.269   0.612 -0.0595  0.6909  0.3532
30965SOL    HW295338   5.969   7.147   0.650  0.4505  0.1168 -0.3819
30966SOL     OW95339   4.716   0.411   5.856  0.3288 -0.5121 -0.6461
30966SOL    HW195340   4.737   0.354   5.782  0.8857  0.1226 -0.9834
30966SOL    HW295341   4.726   0.500   5.822  0.1150 -0.2072  0.0619
30967SOL     OW95342  10.418   0.398   1.849  0.3294  0.3688  0.0826
30967SOL    HW195343  10.352   0.330   1.866 -0.0123  0.3618 -1.1302
30967SOL    HW295344  10.501   0.350   1.845  0.0866 -0.0022 -0.7907
30968SOL     OW95345  10.054   1.733   8.424 -0.0281 -0.5758  0.1734
30968SOL    HW195346  10.002   1.787   8.483  0.0233  0.7400 -0.9412
30968SOL    HW295347  10.142   1.734   8.461 -0.3791 -1.2700  1.0473
30969SOL     OW95348   4.762   4.507   9.250  0.1654 -0.5677  0.5078
30969SOL    HW195349   4.729   4.574   9.310 -0.9820 -0.5293 -0.1300
30969SOL    HW295350   4.729   4.424   9.284 -2.6309 -0.3534 -1.3093
30970SOL     OW95351   6.768   0.253   6.523 -0.0591 -0.1502  0.3127
30970SOL    HW195352   6.692   0.208   6.561  1.3037 -3.9951 -1.0219
30970SOL    HW295353   6.745   0.265   6.431  0.4834 -0.2962  0.1539
30971SOL     OW95354  10.392   9.112   2.204 -0.7920  0.2658 -0.2775
30971SOL    HW195355  10.385   9.039   2.265 -0.6136  1.7038  1.5680
30971SOL    HW295356  10.305   9.150   2.202 -0.1472  2.0184  1.5228
30972SOL     OW95357   2.285   1.061   2.685 -0.6512 -0.3524 -0.1556
30972SOL    HW195358   2.305   1.099   2.771 -0.1276 -0.2492 -0.3179
30972SOL    HW295359   2.202   1.102   2.660 -0.8092 -0.3855  0.3020
30973SOL     OW95360   0.783   0.669   0.118 -0.0598 -0.0637 -0.0540
30973SOL    HW195361   0.720   0.599   0.101  1.3344 -1.0457 -1.4290
30973SOL    HW295362   0.869   0.627   0.110  0.8145  1.3014  1.4378
30974SOL     OW95363   9.063   4.059   1.706  0.5567 -0.1810  0.1907
30974SOL    HW195364   9.112   4.083   1.627  1.8027 -3.3979 -0.2160
30974SOL    HW295365   9.126   4.071   1.777  1.3025 -2.1447 -0.0535
30975SOL     OW95366   3.823   8.896   3.172 -0.2061 -0.8283  0.3575
30975SOL    HW195367   3.758   8.957   3.136 -1.1312 -1.7372  0.4246
30975SOL    HW295368   3.796   8.810   3.138  0.8812 -1.2514  0.5199
30976SOL     OW95369   3.324   6.094   2.029  0.4435  0.0417  0.2976
30976SOL    HW195370   3.409   6.051   2.037  0.5388  0.2335  0.3459
30976SOL    HW295371   3.264   6.026   1.998  0.8198  0.1312 -0.6711
30977SOL     OW95372   1.864   5.472   1.722  0.2350  0.3947  0.2263
30977SOL    HW195373   1.870   5.567   1.726  0.2245  0.3781  0.7015
30977SOL    HW295374   1.946   5.445   1.680 -0.6268  0.7198 -1.7813
30978SOL     OW95375   2.248  10.285   2.404  0.1008 -0.2625 -0.1450
30978SOL    HW195376   2.254  10.377   2.431 -1.3275 -0.8780  2.5599
30978SOL    HW295377   2.177  10.284   2.340 -0.5596  0.3994  0.5497
30979SOL     OW95378   7.036   1.670  10.174 -0.0524 -0.1606  0.2430
30979SOL    HW195379   7.119   1.670  10.126 -0.9155  2.1423 -1.4419
30979SOL    HW295380   6.984   1.602  10.131 -0.4042  1.1038 -1.4627
30980SOL     OW95381   6.675   0.201   0.548  0.5210  0.4386  0.2438
30980SOL    HW195382   6.627   0.253   0.483  0.0104  0.6797  0.8162
30980SOL    HW295383   6.612   0.184   0.617  0.1405 -2.3840 -0.6674
30981SOL     OW95384   0.009   7.586   3.601 -0.2266 -0.1518 -0.1266
30981SOL    HW195385   0.037   7.667   3.558  1.7988  0.4767  2.1442
30981SOL    HW295386   0.030   7.600   3.693  0.3464 -3.3533  0.3295
30982SOL     OW95387   7.161   4.201   5.467 -0.0575  0.1352 -0.5956
30982SOL    HW195388   7.081   4.149   5.478 -0.7761  1.5780  1.5247
30982SOL    HW295389   7.131   4.291   5.459  1.3352  0.6727 -0.1167
30983SOL     OW95390   3.931   3.608   3.980 -0.4533  0.3264 -0.2658
30983SOL    HW195391   3.986   3.539   4.019 -1.5278 -0.4623 -0.1094
30983SOL    HW295392   3.988   3.648   3.914 -0.1085 -1.4199 -1.1150
30984SOL     OW95393   2.611  10.097   4.759  0.3827  0.4770  0.2339
30984SOL    HW195394   2.598  10.147   4.839 -1.8052  0.1308  0.1661
30984SOL    HW295395   2.619  10.162   4.690  1.9491  0.7707  0.6708
30985SOL     OW95396   2.239   8.828   3.671  0.6721  0.1359 -0.3627
30985SOL    HW195397   2.305   8.769   3.634  1.0747  1.1046 -1.2471
30985SOL    HW295398   2.287   8.908   3.689  0.2786 -0.0058  1.4744
30986SOL     OW95399   4.882   0.900   8.472  0.1895 -0.3392  0.3051
30986SOL    HW195400   4.950   0.844   8.435  1.4716 -0.2702  2.3507
30986SOL    HW295401   4.917   0.989   8.464  0.0511 -0.2423  0.7448
30987SOL     OW95402   2.182   1.746   6.941  0.4659  0.4674 -0.5506
30987SOL    HW195403   2.173   1.688   7.017  2.3628  0.8458  0.0233
30987SOL    HW295404   2.206   1.687   6.869  0.2179  0.2838 -0.4836
30988SOL     OW95405   6.973   0.267   4.951  0.2622  0.3010 -0.0185
30988SOL    HW195406   6.880   0.290   4.944  0.3005  0.5468  0.2606
30988SOL    HW295407   6.999   0.246   4.862 -0.1424 -0.0825 -0.0489
30989SOL     OW95408   8.044   6.448   9.793 -0.5594 -0.1507  0.1031
30989SOL    HW195409   8.039   6.394   9.872  2.7992 -0.1629  0.4163
30989SOL    HW295410   8.022   6.536   9.824 -0.8684 -0.4226  0.6945
30990SOL     OW95411   5.309   4.096  10.485  0.4051  0.4934 -0.1875
30990SOL    HW195412   5.329   4.077  10.577  2.6319  0.6819 -0.5720
30990SOL    HW295413   5.386   4.143  10.453 -0.3977  0.5846 -2.1123
30991SOL     OW95414   3.740   5.686   9.792 -0.5859  0.0605 -1.0230
30991SOL    HW195415   3.775   5.658   9.707 -0.2866  1.1502 -1.2839
30991SOL    HW295416   3.714   5.605   9.836  0.7347 -0.6494 -1.5029
30992SOL     OW95417   5.236   3.486   4.148 -0.1321  0.6657 -0.2228
30992SOL    HW195418   5.238   3.526   4.235 -0.0579  0.7670 -0.2702
30992SOL    HW295419   5.323   3.505   4.112  1.0155 -2.0015  0.8614
30993SOL     OW95420   1.724   2.726   6.655 -0.1962 -0.0122 -0.0273
30993SOL    HW195421   1.813   2.731   6.621  0.3094  0.1029  1.2637
30993SOL    HW295422   1.707   2.633   6.668  0.6402  0.0653  1.9446
30994SOL     OW95423   3.288   1.177   5.515 -0.1321  0.0939 -0.1693
30994SOL    HW195424   3.250   1.263   5.498  1.7211  0.7181 -1.4883
30994SOL    HW295425   3.380   1.195   5.535  0.0101 -1.5095  0.8350
30995SOL     OW95426   8.890   5.998   2.926 -0.3542  0.0481  0.2466
30995SOL    HW195427   8.880   5.908   2.959 -0.0631 -0.3931 -0.7958
30995SOL    HW295428   8.958   6.036   2.982  0.1640 -0.6877  0.1496
30996SOL     OW95429   3.768   4.642   7.989  0.1270  0.4411 -0.0162
30996SOL    HW195430   3.801   4.732   7.981 -0.7244  0.7582 -0.0311
30996SOL    HW295431   3.846   4.590   8.011  0.1043  1.7670  4.1169
30997SOL     OW95432   5.854   1.006   6.135 -0.2719  0.2351  0.2776
30997SOL    HW195433   5.842   1.099   6.153 -2.0327  0.1192 -0.1529
30997SOL    HW295434   5.926   1.003   6.072 -1.1828  1.4387 -0.8672
30998SOL     OW95435   1.406   2.778   0.462  0.4395  0.5906 -0.2647
30998SOL    HW195436   1.500   2.783   0.443  0.7550  1.9460  1.3655
30998SOL    HW295437   1.364   2.796   0.378  1.6549  0.6378 -0.8868
30999SOL     OW95438   0.837   8.930   9.476  0.4147 -0.1912  0.5407
30999SOL    HW195439   0.852   9.020   9.505  0.3761  0.6394 -1.7963
30999SOL    HW295440   0.743   8.918   9.486  0.2804  0.3679  0.0466
31000SOL     OW95441  10.146   4.806   4.425 -0.1241 -0.1359  0.1109
31000SOL    HW195442  10.236   4.785   4.452 -0.2175 -0.0464  0.4966
31000SOL    HW295443  10.149   4.898   4.401 -0.2713  0.0654  0.8304
31001SOL     OW95444   2.660   5.676   0.848 -0.3569  0.4327 -0.2772
31001SOL    HW195445   2.615   5.752   0.810 -0.0973  1.0495  0.5998
31001SOL    HW295446   2.711   5.713   0.920  0.7525 -0.4049 -0.6059
31002SOL     OW95447   4.982   2.887   7.203  0.4891 -0.5708 -0.0513
31002SOL    HW195448   4.953   2.797   7.217  1.4635 -0.7289  1.0545
31002SOL    HW295449   4.917   2.924   7.142 -1.2618 -1.3152  1.2912
31003SOL     OW95450   5.572   9.284   0.882  0.0238 -0.0355 -0.0890
31003SOL    HW195451   5.522   9.363   0.904  2.4056  1.2383  1.1678
31003SOL    HW295452   5.510   9.213   0.896 -1.3865  1.4126  1.7303
31004SOL     OW95453   2.590   3.615   8.635  0.3414 -0.1545 -0.7021
31004SOL    HW195454   2.555   3.672   8.703 -1.6163 -1.4238 -0.5763
31004SOL    HW295455   2.536   3.536   8.640 -0.2126 -0.1215 -4.0187
31005SOL     OW95456  10.424   0.884   6.363 -0.4396  0.0318 -0.4808
31005SOL    HW195457  10.512   0.892   6.399 -0.3341 -2.8086  0.1286
31005SOL    HW295458  10.409   0.966   6.317  2.3384  0.7883 -0.1934
31006SOL     OW95459   3.369   0.336   5.612  0.2930  0.4609  0.1217
31006SOL    HW195460   3.394   0.426   5.635 -0.8173  0.9863 -0.6108
31006SOL    HW295461   3.327   0.303   5.692  3.3447 -0.5397  1.4705
31007SOL     OW95462   6.416   8.078   2.836 -0.2794  0.0195  0.2329
31007SOL    HW195463   6.437   7.991   2.870  1.2005  0.6301  0.9899
31007SOL    HW295464   6.327   8.070   2.800 -1.2448 -1.1556  2.6500
31008SOL     OW95465  10.146   9.095   9.562  0.9774 -0.1478  0.3627
31008SOL    HW195466  10.171   9.187   9.550 -0.0836  0.0302 -0.6562
31008SOL    HW295467  10.094   9.094   9.642 -0.8722  0.5486 -0.7885
31009SOL     OW95468   2.077   4.738   6.636  0.0043  0.1603 -0.1576
31009SOL    HW195469   2.103   4.745   6.544  0.4555 -1.1414 -0.1542
31009SOL    HW295470   2.110   4.817   6.677 -0.3173  0.8194 -1.1365
31010SOL     OW95471   7.092   2.846   5.910 -0.0256 -0.5808 -0.3152
31010SOL    HW195472   7.150   2.903   5.962 -0.8855 -0.7522  0.8677
31010SOL    HW295473   7.125   2.758   5.926 -0.1725 -0.6172 -0.2144
31011SOL     OW95474   8.268   0.614   5.940  0.0143 -0.4340 -0.1173
31011SOL    HW195475   8.353   0.647   5.970 -0.4002  0.0603  0.5361
31011SOL    HW295476   8.233   0.567   6.015 -0.3906 -0.4394 -0.3076
31012SOL     OW95477   7.943  10.444  10.428 -0.0317 -0.2040  0.6430
31012SOL    HW195478   7.931  10.409  10.516 -0.1002  1.1557  1.1905
31012SOL    HW295479   7.882  10.518  10.423  0.7872  0.4407 -0.1441
31013SOL     OW95480   8.335   7.671   7.086  0.1220 -0.1916  0.0118
31013SOL    HW195481   8.385   7.605   7.133 -0.0394  0.2189  0.7689
31013SOL    HW295482   8.246   7.635   7.081 -0.1028  0.2218  0.9393
31014SOL     OW95483   1.700   8.728   3.176  0.2285 -0.7897  0.0455
31014SOL    HW195484   1.777   8.769   3.215 -0.4406 -0.5670  1.1857
31014SOL    HW295485   1.725   8.709   3.086  1.2808  0.1642  0.1270
31015SOL     OW95486  10.337   8.427   8.988 -0.0764  0.0772  0.5613
31015SOL    HW195487  10.337   8.508   8.938  0.6863  0.0056  0.4474
31015SOL    HW295488  10.297   8.363   8.929  1.3060 -0.1321 -0.1674
31016SOL     OW95489   9.584   0.114   7.437  0.2254  0.2566  0.7554
31016SOL    HW195490   9.667   0.130   7.482  0.1495  0.4031  0.8443
31016SOL    HW295491   9.610   0.090   7.348  0.3499  0.7461  0.6537
31017SOL     OW95492   8.965   6.114  10.003  0.4308 -0.1847  0.6204
31017SOL    HW195493   9.008   6.165  10.071  4.2868 -1.2917 -0.6872
31017SOL    HW295494   9.023   6.122   9.927  0.1411 -4.5779 -0.3592
31018SOL     OW95495   7.391   7.649   7.242  0.0743 -0.4513 -0.0533
31018SOL    HW195496   7.356   7.560   7.233 -1.0269 -0.0721  0.2744
31018SOL    HW295497   7.466   7.652   7.182 -1.5416 -0.7458 -2.2267
31019SOL     OW95498   7.344   9.603   3.442  0.5390 -0.0076  0.1586
31019SOL    HW195499   7.275   9.589   3.378  1.0344  0.9923 -0.6258
31019SOL    HW295500   7.394   9.521   3.443 -0.6902 -0.7816  0.8197
31020SOL     OW95501  10.400   8.786   1.165 -0.4076  0.2410 -0.2774
31020SOL    HW195502  10.425   8.707   1.116  1.3611  0.9896 -0.6562
31020SOL    HW295503  10.330   8.825   1.112 -0.4306 -0.4077 -0.7492
31021SOL     OW95504  10.135   2.972   3.122  0.0147 -0.3948  0.1027
31021SOL    HW195505  10.223   3.007   3.109 -0.8921  1.8704 -0.4136
31021SOL    HW295506  10.127   2.962   3.217  0.4284  0.5714  0.2509
31022SOL     OW95507   8.826   1.009   5.759  0.1676 -0.1251  0.2829
31022SOL    HW195508   8.803   1.064   5.834 -0.6152  0.2015 -0.1887
31022SOL    HW295509   8.922   1.015   5.753  0.1558  0.5746  0.6995
31023SOL     OW95510   4.575   7.124   7.890  0.2294  0.5348  0.0171
31023SOL    HW195511   4.520   7.076   7.952 -0.0830  1.7438  0.7174
31023SOL    HW295512   4.644   7.163   7.944  0.1621  1.3110 -0.4363
31024SOL     OW95513   6.364   9.524   9.186  0.5327 -0.1852  0.4776
31024SOL    HW195514   6.381   9.525   9.092  1.2330  2.9478  0.5087
31024SOL    HW295515   6.419   9.452   9.219  1.2782 -0.5263 -1.3533
31025SOL     OW95516   3.281   7.059   6.833  0.1497  0.7858  0.0987
31025SOL    HW195517   3.269   7.108   6.752 -1.8312 -1.1073 -0.8722
31025SOL    HW295518   3.193   7.054   6.871  0.7670  0.2612  1.5364
31026SOL     OW95519   7.179   7.287   9.824 -0.4259 -0.2693  0.3514
31026SOL    HW195520   7.181   7.208   9.770  1.4432 -1.3033  1.8014
31026SOL    HW295521   7.270   7.319   9.822 -1.3754  2.7521 -1.3797
31027SOL     OW95522   8.273   5.825   3.132 -0.2582 -0.2507  0.0660
31027SOL    HW195523   8.362   5.816   3.164 -0.3245  0.5951  0.5083
31027SOL    HW295524   8.250   5.737   3.101 -0.1735 -1.1269  2.2910
31028SOL     OW95525   2.840   3.852   6.854  0.3755  0.2662 -0.2490
31028SOL    HW195526   2.778   3.787   6.889  1.7613 -1.3365 -0.6573
31028SOL    HW295527   2.796   3.936   6.869 -1.8141 -0.7730 -0.3362
31029SOL     OW95528   2.847   2.320   6.849  0.4192 -0.3153 -0.5049
31029SOL    HW195529   2.783   2.280   6.790 -0.8058 -0.3650  0.8026
31029SOL    HW295530   2.913   2.251   6.863 -0.0120 -0.7801 -0.7216
31030SOL     OW95531   2.860   5.778   4.077 -0.1091  0.3806 -0.4756
31030SOL    HW195532   2.808   5.857   4.088  2.0203  1.6589  1.4989
31030SOL    HW295533   2.804   5.707   4.108 -2.3163  0.9120 -2.9574
31031SOL     OW95534   4.948   3.561   2.490  0.0745  0.0641  0.1653
31031SOL    HW195535   4.876   3.616   2.521 -1.0915 -1.2231 -0.1492
31031SOL    HW295536   4.945   3.568   2.395 -2.2735 -3.0346 -0.1327
31032SOL     OW95537   9.564   6.855   2.832  0.2698  0.4642  0.1238
31032SOL    HW195538   9.550   6.918   2.762  0.8811  0.4359 -0.0329
31032SOL    HW295539   9.509   6.780   2.810 -0.0756  0.7443  0.0482
31033SOL     OW95540   7.911   7.135   8.015 -0.2541 -0.8763  0.3730
31033SOL    HW195541   7.970   7.127   7.940  1.0156  0.8280  1.1238
31033SOL    HW295542   7.843   7.195   7.985 -1.8791 -3.0782 -0.5961
31034SOL     OW95543   2.649   6.919   8.750  0.2940  0.0515 -0.0314
31034SOL    HW195544   2.626   6.948   8.662 -0.7073 -0.1247  0.1584
31034SOL    HW295545   2.647   6.998   8.804  0.7284  0.1294 -0.1216
31035SOL     OW95546   7.148  10.311   3.871  0.0661  0.1125  0.1979
31035SOL    HW195547   7.116  10.396   3.839  0.8833 -0.0558 -1.1144
31035SOL    HW295548   7.070  10.268   3.905 -0.4359  1.2281  0.5269
31036SOL     OW95549   6.067   4.929   9.647 -0.5337  0.0896  0.2105
31036SOL    HW195550   6.047   4.978   9.567 -0.1577 -1.0328 -0.6020
31036SOL    HW295551   5.989   4.876   9.664 -0.9480  0.9479  1.0977
31037SOL     OW95552   8.444   3.183  10.457 -0.2234  0.2144 -0.1933
31037SOL    HW195553   8.375   3.247  10.474 -1.3318 -0.4215 -2.0336
31037SOL    HW295554   8.423   3.108  10.513  0.2577  0.8613  0.8811
31038SOL     OW95555   6.323   2.195   4.345 -0.2470 -0.6746  0.1739
31038SOL    HW195556   6.283   2.108   4.354 -0.0338 -1.2028 -2.8581
31038SOL    HW295557   6.266   2.242   4.285 -0.7975  1.6790  2.3616
31039SOL     OW95558   5.862   5.754   9.429  0.2764 -0.8599 -0.2066
31039SOL    HW195559   5.822   5.676   9.391 -0.6370 -0.6805  0.3515
31039SOL    HW295560   5.816   5.767   9.512  0.1177  0.5094 -0.4778
31040SOL     OW95561   0.654  10.226   1.754 -0.5130 -0.6552  0.2525
31040SOL    HW195562   0.683  10.208   1.665  0.5936  0.8605  0.2779
31040SOL    HW295563   0.732  10.213   1.808 -0.3642  1.4049  0.5968
31041SOL     OW95564   8.267   3.070   6.252 -0.3154 -0.1413 -0.6644
31041SOL    HW195565   8.220   3.154   6.250  1.5423  0.9405 -0.3969
31041SOL    HW295566   8.284   3.054   6.345 -1.5327 -1.3611 -0.6192
31042SOL     OW95567   6.500   8.398   5.226  0.5709  0.2319 -0.2694
31042SOL    HW195568   6.481   8.314   5.266  1.7273  0.2380  0.3302
31042SOL    HW295569   6.435   8.458   5.263  0.2062 -0.2383 -0.1432
31043SOL     OW95570   5.756   4.287   3.861 -0.2233  0.0217 -0.9438
31043SOL    HW195571   5.846   4.301   3.830 -0.2045 -0.5630 -1.1799
31043SOL    HW295572   5.765   4.224   3.933 -0.1710  2.0830  0.9442
31044SOL     OW95573   8.448   3.463   8.852 -0.2504  0.2802  0.7318
31044SOL    HW195574   8.482   3.491   8.767  0.6626 -0.1603  0.9373
31044SOL    HW295575   8.408   3.541   8.889 -0.5699  0.5004 -0.0552
31045SOL     OW95576   6.834   6.322   1.655  0.3248  0.1320  0.2030
31045SOL    HW195577   6.825   6.366   1.740  0.4793  1.1882 -0.3142
31045SOL    HW295578   6.780   6.373   1.595  3.1300  1.7414 -1.1637
31046SOL     OW95579   3.673   2.898   4.382  0.0117 -0.1705 -0.4755
31046SOL    HW195580   3.580   2.916   4.370  0.0476 -0.1084 -0.6727
31046SOL    HW295581   3.706   2.884   4.293  0.4709  1.2103 -0.5406
31047SOL     OW95582   0.214   4.637   6.956  0.0612  0.4020  0.1476
31047SOL    HW195583   0.235   4.716   6.906 -0.3242  1.1867  1.1872
31047SOL    HW295584   0.259   4.648   7.039 -1.4677  0.4058  1.0149
31048SOL     OW95585   7.263   9.972   9.766  0.1933 -0.3850  0.1919
31048SOL    HW195586   7.240   9.881   9.786  0.1776 -0.7962 -1.5067
31048SOL    HW295587   7.357   9.969   9.747 -0.1223 -0.3749 -1.4723
31049SOL     OW95588   9.582   7.304   9.189  0.1129 -1.0828 -0.1010
31049SOL    HW195589   9.525   7.234   9.156  0.6897 -2.2023  1.1870
31049SOL    HW295590   9.658   7.302   9.131  0.2071 -1.6611  0.0335
31050SOL     OW95591   3.055   7.050   1.683 -0.3292 -0.1081 -0.0149
31050SOL    HW195592   2.973   7.058   1.732  0.0485  1.9331  0.3836
31050SOL    HW295593   3.027   7.049   1.591 -0.7981  1.1772  0.0932
31051SOL     OW95594   9.122   0.530   8.245 -0.0045  0.5863 -0.6027
31051SOL    HW195595   9.102   0.437   8.238  0.0173  0.5663 -0.3959
31051SOL    HW295596   9.145   0.544   8.337 -1.4134  1.0710 -0.3013
31052SOL     OW95597  10.327   5.932   6.115 -0.2869  0.1956  0.4054
31052SOL    HW195598  10.291   5.865   6.174 -0.7549 -0.7330 -0.8881
31052SOL    HW295599  10.323   5.892   6.028  1.2593  1.1674 -0.1562
31053SOL     OW95600   9.569   1.631   6.998 -0.0734  0.0861 -0.0829
31053SOL    HW195601   9.532   1.710   6.958  2.3191  0.9906 -0.6792
31053SOL    HW295602   9.575   1.568   6.926  2.8537  1.2179 -0.9865
31054SOL     OW95603   2.909   4.199  10.462 -0.0478 -0.1986 -0.4871
31054SOL    HW195604   2.996   4.164  10.443  0.4813  1.8761 -2.3761
31054SOL    HW295605   2.855   4.172  10.389 -0.7392 -0.6132  0.1663
31055SOL     OW95606   3.334   6.024   7.049  0.2131 -0.1789 -0.0840
31055SOL    HW195607   3.349   6.101   6.994  1.5545  0.2807  0.8825
31055SOL    HW295608   3.336   5.950   6.988  2.0438  0.2889 -0.6252
31056SOL     OW95609  10.221   9.976   3.091 -0.4933 -0.0665  0.1185
31056SOL    HW195610  10.314   9.979   3.115 -0.3261  0.3323 -0.5302
31056SOL    HW295611  10.201   9.883   3.081 -0.6224 -0.2667  1.9245
31057SOL     OW95612   2.286   8.313  10.067  0.6459  0.6538 -0.4980
31057SOL    HW195613   2.303   8.403  10.094 -1.0019  0.2824  2.1238
31057SOL    HW295614   2.191   8.308  10.058  0.7264 -0.7941 -0.7953
31058SOL     OW95615   6.780   1.986   1.203  0.0110 -0.3920 -0.0076
31058SOL    HW195616   6.703   1.953   1.156 -0.4283  2.0056 -1.1302
31058SOL    HW295617   6.751   1.997   1.293 -0.7831 -0.1186 -0.2888
31059SOL     OW95618   4.718   5.867   9.901  0.2034  0.3044 -0.2522
31059SOL    HW195619   4.794   5.840   9.952 -0.3062  0.9247  0.8751
31059SOL    HW295620   4.754   5.909   9.823  1.0101  0.8409  0.3985
31060SOL     OW95621   3.488   5.632   5.808 -0.1825  0.8057  0.0745
31060SOL    HW195622   3.448   5.630   5.721  0.8452 -0.1392 -0.4079
31060SOL    HW295623   3.582   5.629   5.791  0.0223 -0.7752  1.2275
31061SOL     OW95624   5.212  10.238   6.641 -0.1814  0.1692 -0.1638
31061SOL    HW195625   5.129  10.202   6.673 -0.2128  1.0054  0.7576
31061SOL    HW295626   5.275  10.217   6.710 -0.3060  2.2702  0.6665
31062SOL     OW95627   1.105   6.159   8.367  0.7359  0.3180 -0.5044
31062SOL    HW195628   1.020   6.203   8.380  0.4954 -0.3440  0.2536
31062SOL    HW295629   1.165   6.230   8.346  0.0169  0.8166 -0.9464
31063SOL     OW95630   0.047  10.427   6.766  0.3747 -0.0080 -0.0962
31063SOL    HW195631  -0.044  10.397   6.769  0.2801  0.3372  0.7112
31063SOL    HW295632   0.091  10.364   6.709 -0.7631  0.8940 -2.0760
31064SOL     OW95633   5.134   0.740   4.336 -0.5681  0.3398  0.1424
31064SOL    HW195634   5.089   0.693   4.405 -0.1594 -1.1149 -0.5369
31064SOL    HW295635   5.163   0.822   4.377 -1.6797  0.2114  1.2323
31065SOL     OW95636   1.644   5.565   2.423 -0.2703  0.0162 -0.1651
31065SOL    HW195637   1.562   5.518   2.438 -0.1849 -0.1366 -0.1827
31065SOL    HW295638   1.627   5.654   2.455 -0.2149 -0.2007  0.4728
31066SOL     OW95639   1.217   7.647   1.770  0.1747 -0.1125 -0.2710
31066SOL    HW195640   1.170   7.564   1.765 -1.7946  0.5933  2.9685
31066SOL    HW295641   1.147   7.713   1.768  1.6014  1.4220 -1.6806
31067SOL     OW95642   4.433   1.556   2.850 -0.0904  0.2437 -0.0028
31067SOL    HW195643   4.430   1.621   2.779  1.7771 -0.5901 -0.9107
31067SOL    HW295644   4.456   1.608   2.928  0.4278  0.8227 -0.5265
31068SOL     OW95645   8.392   7.921   9.697 -0.2356 -0.1284  0.1914
31068SOL    HW195646   8.453   7.985   9.733 -0.4145  1.0335 -1.4490
31068SOL    HW295647   8.368   7.867   9.772  0.2664  1.4313  1.5585
31069SOL     OW95648   9.247   9.814   7.376 -0.0719  0.0863 -0.1632
31069SOL    HW195649   9.249   9.778   7.287  0.8058 -3.1626  1.0138
31069SOL    HW295650   9.202   9.747   7.428  2.2183  0.3281  2.3629
31070SOL     OW95651   0.414   7.844   6.297 -0.4446  0.0224  0.0680
31070SOL    HW195652   0.500   7.802   6.299  0.2820  1.4318  2.3385
31070SOL    HW295653   0.353   7.774   6.272  1.3002 -1.0651 -1.3330
31071SOL     OW95654   8.869   7.910   5.635 -0.7429  0.1751 -0.2802
31071SOL    HW195655   8.925   7.950   5.702  0.1497 -0.7743 -0.4332
31071SOL    HW295656   8.854   7.821   5.666 -2.2261  0.4153 -0.2275
31072SOL     OW95657   8.416   0.934   9.557  0.0607  0.5437 -0.2493
31072SOL    HW195658   8.447   0.853   9.599  1.0536  0.4051 -1.1854
31072SOL    HW295659   8.331   0.910   9.519  0.4687 -0.1427 -0.7416
31073SOL     OW95660   6.530   1.225   9.892  0.0157  0.5232 -0.0364
31073SOL    HW195661   6.536   1.260   9.981 -0.6368  0.2008  0.1424
31073SOL    HW295662   6.483   1.143   9.902 -0.3834  0.6604 -0.7227
31074SOL     OW95663   7.307   4.185   6.977 -0.7569 -0.6956  0.8799
31074SOL    HW195664   7.292   4.107   6.923 -2.2595  0.4566 -0.4485
31074SOL    HW295665   7.378   4.231   6.932  0.7728 -1.6743  2.1687
31075SOL     OW95666   1.344   5.003  10.019  0.0734  0.2322 -0.2879
31075SOL    HW195667   1.308   4.923  10.058  1.5408 -1.0579 -1.4419
31075SOL    HW295668   1.271   5.040   9.969 -0.2767 -1.1431 -0.8460
31076SOL     OW95669   3.457   5.927   3.473  0.4651  0.3045 -0.1342
31076SOL    HW195670   3.387   5.982   3.507  1.8122  1.9564  0.0968
31076SOL    HW295671   3.533   5.949   3.526  1.5590 -0.2612 -1.4022
31077SOL     OW95672   0.670   3.667   4.021 -0.2195 -0.6345 -0.5408
31077SOL    HW195673   0.634   3.741   4.069 -1.1071 -0.9454 -0.7208
31077SOL    HW295674   0.762   3.664   4.048 -0.8075 -1.1353  1.5956
31078SOL     OW95675  10.122   0.903  10.330  0.2618  0.0184  0.1945
31078SOL    HW195676  10.117   0.973  10.395 -1.3699 -0.9104  1.1311
31078SOL    HW295677  10.215   0.897  10.308  0.5631  1.8114  0.8027
31079SOL     OW95678   6.436   9.381   6.335  0.5532 -0.1826  0.4497
31079SOL    HW195679   6.461   9.348   6.248  1.7403  1.0078  0.3052
31079SOL    HW295680   6.516   9.371   6.387 -0.4115 -1.7641  1.7117
31080SOL     OW95681   8.536   0.036   5.291  0.4674 -0.0401  0.6520
31080SOL    HW195682   8.534   0.077   5.205  0.0369 -1.0474  0.1662
31080SOL    HW295683   8.488   0.097   5.348  2.1845  1.4436  0.5772
31081SOL     OW95684   6.382   6.111   9.348 -0.2610  0.0807  0.5884
31081SOL    HW195685   6.421   6.141   9.430  2.9261 -0.5017 -0.5484
31081SOL    HW295686   6.299   6.158   9.341  0.5215  1.9850  2.9217
31082SOL     OW95687   5.643   4.441   9.481 -0.1259 -0.7472 -0.2444
31082SOL    HW195688   5.709   4.379   9.450  0.1940 -1.6115  2.0270
31082SOL    HW295689   5.655   4.518   9.426  2.1717 -1.2056 -0.4837
31083SOL     OW95690   4.037   7.856   6.130 -0.3026  0.0265  0.0258
31083SOL    HW195691   4.117   7.846   6.078 -0.1387  2.2429 -0.2583
31083SOL    HW295692   4.066   7.906   6.207 -1.4533  1.2603 -0.2974
31084SOL     OW95693   9.924   3.412   0.370  0.1565  0.7706 -0.0628
31084SOL    HW195694   9.867   3.473   0.416  0.9068  2.5738 -1.3899
31084SOL    HW295695   9.918   3.438   0.278  1.2276 -0.5751 -0.5558
31085SOL     OW95696   4.578   6.991   3.211 -0.2945 -0.1975 -0.2777
31085SOL    HW195697   4.518   6.918   3.197 -1.8186  0.6665  1.2686
31085SOL    HW295698   4.561   7.051   3.139  2.0664 -1.9441 -2.4487
31086SOL     OW95699   1.435   6.729   4.775 -0.0364  0.2211  0.0818
31086SOL    HW195700   1.380   6.667   4.824 -0.4757  2.2305  2.3247
31086SOL    HW295701   1.396   6.815   4.793  0.9944  1.2734 -2.2878
31087SOL     OW95702   3.613   0.214   6.503  0.0957 -0.3741 -0.1544
31087SOL    HW195703   3.634   0.122   6.522 -1.6671 -0.9332 -0.7124
31087SOL    HW295704   3.519   0.221   6.519 -0.2333  0.7654 -2.2489
31088SOL     OW95705   5.669   4.554   8.116  0.8327  0.2507 -0.3894
31088SOL    HW195706   5.681   4.546   8.211 -0.3561  0.7919 -0.1816
31088SOL    HW295707   5.713   4.476   8.080 -1.5366 -1.7991  0.8458
31089SOL     OW95708   8.107   1.308   3.466  0.0370 -0.5442 -0.0426
31089SOL    HW195709   8.203   1.309   3.459  0.1692  2.4446  0.8414
31089SOL    HW295710   8.077   1.369   3.399 -1.1369 -0.2418  0.7201
31090SOL     OW95711   6.632   8.197   1.932 -0.3074 -0.4001  0.0956
31090SOL    HW195712   6.676   8.252   1.867  1.8954  0.5017  2.2176
31090SOL    HW295713   6.604   8.257   2.000 -0.1471 -1.6109  1.2684
31091SOL     OW95714   0.852   0.748   6.575 -0.0856 -0.8948  0.0401
31091SOL    HW195715   0.887   0.779   6.491 -1.3819  0.3844 -0.0567
31091SOL    HW295716   0.757   0.743   6.561 -0.3704 -0.2238  1.5550
31092SOL     OW95717   5.773   7.438   4.823 -0.3914  0.6402  0.1299
31092SOL    HW195718   5.735   7.524   4.805 -0.1154  0.3951 -1.7485
31092SOL    HW295719   5.748   7.421   4.914 -1.9349  1.9393  0.0117
31093SOL     OW95720   8.363   3.743   8.218 -0.6864 -0.3748 -0.1932
31093SOL    HW195721   8.385   3.836   8.208  0.8534 -0.7618 -0.7199
31093SOL    HW295722   8.439   3.697   8.183 -0.5280 -1.8516  1.9023
31094SOL     OW95723   4.570   1.013   4.085 -0.5445  0.0300 -0.4296
31094SOL    HW195724   4.621   0.983   4.161  1.3696  1.7024 -0.9738
31094SOL    HW295725   4.633   1.018   4.014 -2.0427 -0.2751 -1.8368
31095SOL     OW95726   6.747   4.207  10.053  0.7132 -0.0839 -0.3194
31095SOL    HW195727   6.758   4.163   9.969  1.9640 -0.2952 -0.0628
31095SOL    HW295728   6.716   4.139  10.113  1.7675 -0.4323 -0.1430
31096SOL     OW95729   5.700   3.347   8.329 -0.0601  0.5313 -0.2871
31096SOL    HW195730   5.697   3.425   8.273  0.3517 -0.5789 -1.9095
31096SOL    HW295731   5.703   3.274   8.268 -0.1838 -0.7621  1.2101
31097SOL     OW95732   0.880   9.221   9.525  0.1165  0.1005  0.5270
31097SOL    HW195733   0.850   9.263   9.444 -0.2759  0.3281  0.7843
31097SOL    HW295734   0.840   9.273   9.595  0.2679 -0.2313  0.8623
31098SOL     OW95735   2.185   6.723   4.844 -0.4233 -0.6578 -0.0702
31098SOL    HW195736   2.146   6.649   4.796  0.3773 -0.1595 -1.5478
31098SOL    HW295737   2.259   6.685   4.890  0.3053 -0.7274 -1.2458
31099SOL     OW95738   0.090   5.245   3.911  0.0063 -0.3439  0.2931
31099SOL    HW195739   0.147   5.206   3.844 -0.3057  0.5791 -0.5339
31099SOL    HW295740   0.014   5.278   3.862  0.4789  1.7437  0.8370
31100SOL     OW95741   7.393  10.163   1.585  0.1695 -0.3601  0.5469
31100SOL    HW195742   7.387  10.091   1.648  1.9441  0.3750  1.6168
31100SOL    HW295743   7.366  10.240   1.634 -0.1531 -0.0233 -0.1392
31101SOL     OW95744   0.177  10.399   4.877 -0.2038  0.2239 -0.1534
31101SOL    HW195745   0.265  10.383   4.842 -0.1316  0.2728  0.0027
31101SOL    HW295746   0.188  10.477   4.932  0.2285 -1.2520  1.9727
31102SOL     OW95747   2.846   2.793   2.866  0.6839  0.4244 -0.1793
31102SOL    HW195748   2.800   2.709   2.868  1.6898 -0.1286  0.7005
31102SOL    HW295749   2.818   2.837   2.947 -2.3324  2.3759 -2.0876
31103SOL     OW95750   1.036   4.142   4.417  0.3918  0.1050 -0.3810
31103SOL    HW195751   1.094   4.068   4.402 -1.3644 -1.5102  0.4394
31103SOL    HW295752   0.949   4.110   4.395 -0.1122  2.9687 -3.2337
31104SOL     OW95753   5.638   2.719   7.440  0.1263 -0.2099  0.1092
31104SOL    HW195754   5.669   2.711   7.350 -1.9831  0.5826 -0.7474
31104SOL    HW295755   5.693   2.658   7.489  1.7198 -0.2456 -1.5792
31105SOL     OW95756   0.923   9.769   8.627 -0.7326  0.2166  0.6134
31105SOL    HW195757   0.872   9.691   8.605  0.4492  0.0838 -2.0701
31105SOL    HW295758   1.005   9.735   8.661 -0.0322  0.2065 -0.9942
31106SOL     OW95759   2.687   1.689   2.397  0.1761  0.3039  0.0978
31106SOL    HW195760   2.596   1.672   2.373  0.5262 -0.0617 -1.0429
31106SOL    HW295761   2.682   1.755   2.466 -0.9354  0.5940 -0.2430
31107SOL     OW95762   2.060   1.833   5.361  0.0706  0.3108  0.1241
31107SOL    HW195763   1.997   1.769   5.392  0.0935 -0.3626 -1.1765
31107SOL    HW295764   2.034   1.852   5.271  1.2472  0.6043 -0.1811
31108SOL     OW95765   0.259   4.405   6.441 -0.2449 -0.9614 -0.1617
31108SOL    HW195766   0.286   4.496   6.454 -2.8462  0.2198 -2.0743
31108SOL    HW295767   0.324   4.369   6.382  0.5540 -0.1863  0.2237
31109SOL     OW95768   3.472   0.850   5.817  0.0726  0.3689  0.0558
31109SOL    HW195769   3.402   0.911   5.794 -1.0645 -1.4133 -1.4998
31109SOL    HW295770   3.479   0.856   5.912 -0.4324  2.4201  0.0031
31110SOL     OW95771   5.807   6.940   9.422 -0.4486  0.2104 -0.0710
31110SOL    HW195772   5.756   6.880   9.476 -1.0450  0.7503 -0.0304
31110SOL    HW295773   5.768   6.934   9.335  0.3836 -0.5081 -0.4099
31111SOL     OW95774   0.393   3.562   0.033  0.0215 -0.2614 -0.2093
31111SOL    HW195775   0.426   3.479  -0.002 -3.4909 -1.3607 -1.3759
31111SOL    HW295776   0.425   3.628  -0.028  0.9473 -1.0689 -0.6190
31112SOL     OW95777   5.858   6.543   9.435  0.0750  0.6130 -0.3153
31112SOL    HW195778   5.787   6.522   9.496 -1.0241  2.5236 -0.8475
31112SOL    HW295779   5.915   6.602   9.485  1.5269 -1.1368  0.2092
31113SOL     OW95780   0.949   5.793   9.047  0.1191  0.2080  0.0282
31113SOL    HW195781   0.999   5.782   9.128  1.8991  0.4102 -1.0027
31113SOL    HW295782   0.862   5.757   9.068  1.4693 -2.8056  1.0450
31114SOL     OW95783   9.582   5.430  10.304  0.0866 -0.2854 -0.3690
31114SOL    HW195784   9.539   5.354  10.265  0.0795 -0.1442 -0.6394
31114SOL    HW295785   9.614   5.480  10.229 -0.6907  0.4385 -0.2276
31115SOL     OW95786   6.234   2.465   8.479 -0.0641 -0.4072 -0.4235
31115SOL    HW195787   6.211   2.373   8.467  0.2235 -0.4474 -0.6926
31115SOL    HW295788   6.269   2.470   8.568  0.2336 -0.6238 -0.5285
31116SOL     OW95789   8.410   9.385   6.427  0.1646 -0.5329  0.3100
31116SOL    HW195790   8.346   9.455   6.412  0.8709  0.4271  1.6054
31116SOL    HW295791   8.363   9.305   6.404 -0.6373  0.3545 -1.2842
31117SOL     OW95792   6.747   1.357   4.995  0.3263  0.7221  0.4735
31117SOL    HW195793   6.713   1.268   4.985 -0.1589  0.7768  1.5007
31117SOL    HW295794   6.800   1.372   4.917  2.1474 -1.2204  1.2750
31118SOL     OW95795   5.050   6.430   3.090 -0.5051 -0.4118  0.3607
31118SOL    HW195796   5.109   6.370   3.044 -0.8660  0.6148 -1.5078
31118SOL    HW295797   5.109   6.492   3.133 -0.1610  0.6139 -1.5000
31119SOL     OW95798   9.121   0.498   5.547 -0.7567  0.5331 -0.2135
31119SOL    HW195799   9.076   0.529   5.625 -0.4759  0.8627 -0.1804
31119SOL    HW295800   9.083   0.549   5.475 -0.3072  0.9482 -0.1615
31120SOL     OW95801   0.447   5.382   1.865 -0.1981 -0.0722 -0.1741
31120SOL    HW195802   0.357   5.409   1.881  0.6072  1.5807  2.1532
31120SOL    HW295803   0.477   5.349   1.950  1.1845 -1.3527 -1.1102
31121SOL     OW95804   2.432   2.185   6.482  0.2614  0.2658 -0.3083
31121SOL    HW195805   2.441   2.232   6.400 -1.7821  2.6159  0.7118
31121SOL    HW295806   2.421   2.093   6.456 -0.8967  1.0055 -2.6777
31122SOL     OW95807   7.123   7.455  10.213  0.4501 -0.0221 -0.5778
31122SOL    HW195808   7.093   7.368  10.188  1.0139  0.0791 -1.6629
31122SOL    HW295809   7.162   7.491  10.134 -0.6236  1.5983 -0.4206
31123SOL     OW95810   2.687   0.706   4.079  0.2638 -0.0152  0.5011
31123SOL    HW195811   2.770   0.716   4.032  1.1952  0.6650  2.2398
31123SOL    HW295812   2.700   0.751   4.162 -1.2176 -1.4982  1.5968
31124SOL     OW95813   5.777   0.006   7.425 -0.5814 -0.3451 -0.1702
31124SOL    HW195814   5.685   0.032   7.428 -0.8088 -1.0475 -0.7861
31124SOL    HW295815   5.805   0.027   7.335 -0.4024 -1.0060 -0.2700
31125SOL     OW95816   5.054   1.867   8.101 -0.0746  0.1529  0.2154
31125SOL    HW195817   4.988   1.918   8.148 -0.3411  0.2679 -0.2859
31125SOL    HW295818   5.004   1.807   8.047  0.2246  0.4919 -0.4466
31126SOL     OW95819   2.117   0.408   0.934  0.2586  0.2820  0.6199
31126SOL    HW195820   2.102   0.502   0.944 -2.7428 -0.0087 -0.2963
31126SOL    HW295821   2.055   0.367   0.994  0.3292 -1.1193 -0.2280
31127SOL     OW95822   7.493   6.774   3.786  0.1021 -0.0812 -0.1463
31127SOL    HW195823   7.542   6.831   3.727 -1.4730  0.6330 -0.8432
31127SOL    HW295824   7.473   6.696   3.734  0.6320 -0.4421  0.1867
31128SOL     OW95825   7.962   9.562   0.346  0.3447 -0.1612  0.2840
31128SOL    HW195826   7.929   9.543   0.434  1.9782 -0.3956  0.8791
31128SOL    HW295827   8.001   9.479   0.317 -1.1535 -0.4138 -1.1459
31129SOL     OW95828   0.298   1.079   9.602 -0.0209  0.3402 -0.3492
31129SOL    HW195829   0.226   1.036   9.649 -0.2595  2.3405  1.2349
31129SOL    HW295830   0.341   1.133   9.668  0.2395  2.5400 -2.1756
31130SOL     OW95831   7.976   6.150   4.502  0.1566 -0.1274 -0.4215
31130SOL    HW195832   7.954   6.229   4.454 -2.2566 -0.3707  0.1440
31130SOL    HW295833   8.017   6.092   4.437  0.2367  0.8733 -1.2827
31131SOL     OW95834  10.477   3.989   7.625 -0.1353  0.3785 -0.2019
31131SOL    HW195835  10.486   4.063   7.686  0.4787 -0.5053  0.8110
31131SOL    HW295836  10.559   3.991   7.575 -0.3577  0.7093 -0.5585
31132SOL     OW95837   9.586   7.098   1.478 -0.2294  0.3156  0.4319
31132SOL    HW195838   9.629   7.182   1.485 -0.8219  0.7207 -0.5504
31132SOL    HW295839   9.537   7.089   1.560  0.1728  0.7210  0.7206
31133SOL     OW95840   7.941   4.917   0.704 -0.3922 -0.1081  0.4889
31133SOL    HW195841   7.997   4.985   0.666  0.3886  0.2915  2.2760
31133SOL    HW295842   7.868   4.910   0.642  1.7395 -0.9432 -2.1261
31134SOL     OW95843   1.161   8.244   4.795 -0.2389 -0.2652 -0.3928
31134SOL    HW195844   1.216   8.281   4.726  1.9247  0.3367  1.5410
31134SOL    HW295845   1.144   8.154   4.766  0.2114  0.0888 -1.8787
31135SOL     OW95846   3.291   4.644   6.594 -0.1355 -0.1411 -0.3586
31135SOL    HW195847   3.228   4.644   6.666  0.1551 -0.8208 -0.0965
31135SOL    HW295848   3.376   4.658   6.636  0.0977 -1.0742 -0.5024
31136SOL     OW95849   0.511   3.784   4.452  0.1956 -0.0432 -0.0840
31136SOL    HW195850   0.451   3.849   4.489 -0.1080 -0.2027 -0.2899
31136SOL    HW295851   0.549   3.741   4.529  0.6170  0.5669  0.0584
31137SOL     OW95852   7.567   9.795   1.341  0.2768 -0.0071  0.6170
31137SOL    HW195853   7.495   9.813   1.401  0.3509 -0.5624  0.8789
31137SOL    HW295854   7.548   9.849   1.264 -1.7555 -1.8976 -0.3409
31138SOL     OW95855   9.221   8.658   3.856  0.0237 -0.1980  0.0258
31138SOL    HW195856   9.224   8.694   3.767  1.7167 -2.2349 -0.8518
31138SOL    HW295857   9.211   8.734   3.913  0.6717  1.3469 -1.8149
31139SOL     OW95858   3.703   1.865   7.751  0.3073 -0.3114 -0.1452
31139SOL    HW195859   3.743   1.906   7.673  1.5255 -2.3911 -0.6751
31139SOL    HW295860   3.776   1.824   7.797 -0.6509 -0.5528  1.2185
31140SOL     OW95861   0.504   7.960   7.049  0.0033 -0.8042 -0.2871
31140SOL    HW195862   0.562   7.884   7.041  1.5666 -0.0544  2.5844
31140SOL    HW295863   0.556   8.034   7.021 -0.6821 -0.4791 -0.7387
31141SOL     OW95864   4.473   7.876   7.818  0.5959 -0.0935  0.0754
31141SOL    HW195865   4.561   7.877   7.780  0.8918 -0.7385  0.7218
31141SOL    HW295866   4.416   7.907   7.747  1.4026  0.8209 -0.1844
31142SOL     OW95867   1.804   0.776   3.691 -0.0390 -0.4803 -0.4511
31142SOL    HW195868   1.867   0.720   3.645  0.2751 -1.3921  1.0219
31142SOL    HW295869   1.837   0.865   3.680  1.5787 -0.9435  0.3598
31143SOL     OW95870   0.436   5.101   7.511 -0.3435  0.1809 -0.3523
31143SOL    HW195871   0.516   5.087   7.461 -0.3885 -2.4637  0.1741
31143SOL    HW295872   0.386   5.164   7.459  0.8274 -0.3349 -2.1934
31144SOL     OW95873   6.277   5.164   9.393 -0.1812  0.1837  0.0400
31144SOL    HW195874   6.185   5.142   9.409 -0.0198 -1.2946 -0.9187
31144SOL    HW295875   6.274   5.246   9.344 -1.0389 -0.3150 -0.7758
31145SOL     OW95876   3.569   5.940   2.095 -0.0075 -0.4591  0.0100
31145SOL    HW195877   3.645   5.923   2.151  0.4853  1.1283 -0.1170
31145SOL    HW295878   3.520   5.858   2.096  1.0485 -1.1229  1.1127
31146SOL     OW95879   7.013   6.686   5.949 -0.5844 -0.4579  0.2997
31146SOL    HW195880   7.042   6.717   6.035  1.2515  3.3797 -1.4394
31146SOL    HW295881   6.929   6.730   5.934  0.3290  1.0714 -0.7559
31147SOL     OW95882   6.319   6.706   0.944  0.0118 -0.0660  0.5592
31147SOL    HW195883   6.294   6.635   1.002 -0.6492 -0.4132 -0.1393
31147SOL    HW295884   6.260   6.778   0.967 -0.0399 -0.0964  0.5176
31148SOL     OW95885   6.829   8.193   0.722 -0.2748 -0.3884 -0.1606
31148SOL    HW195886   6.918   8.219   0.698 -1.7003  1.9387 -3.8064
31148SOL    HW295887   6.815   8.231   0.809  1.2024  2.3538 -1.0043
31149SOL     OW95888   5.111   7.061   9.151 -0.1857  0.0078 -0.2867
31149SOL    HW195889   5.126   7.155   9.151  0.1023 -0.0316  0.6023
31149SOL    HW295890   5.015   7.053   9.150 -0.2405  0.3344  0.7707
31150SOL     OW95891   2.152  10.303   6.211 -0.1242  0.2157  0.0705
31150SOL    HW195892   2.062  10.298   6.178 -0.5379  0.1239  1.1473
31150SOL    HW295893   2.207  10.295   6.134 -1.0012 -1.8201 -0.3952
31151SOL     OW95894   1.897   7.245   6.882  0.2207  0.0113 -0.1257
31151SOL    HW195895   1.863   7.190   6.811  1.4783  0.5721 -1.2027
31151SOL    HW295896   1.974   7.288   6.844  1.0128  0.2199  1.6283
31152SOL     OW95897  10.216   7.412   2.359  0.1668  0.3505 -0.0950
31152SOL    HW195898  10.189   7.330   2.317 -0.0989 -0.5015  1.6814
31152SOL    HW295899  10.310   7.403   2.372  0.3028  0.7461 -0.7533
31153SOL     OW95900   8.709   9.784   0.413 -0.3006 -0.5073  0.0812
31153SOL    HW195901   8.681   9.753   0.327  1.3032 -2.6616  0.2397
31153SOL    HW295902   8.714   9.704   0.466  1.4324  0.3887  1.3633
31154SOL     OW95903   3.949   6.373  10.450 -0.0832  0.1535  0.0011
31154SOL    HW195904   3.887   6.337  10.512 -0.3708  0.9522  0.1920
31154SOL    HW295905   4.018   6.307  10.443  0.1635  0.2366  1.4806
31155SOL     OW95906   1.223   5.212   6.867  0.1806  0.3142  0.1268
31155SOL    HW195907   1.276   5.290   6.888  1.4110 -0.0301 -1.5092
31155SOL    HW295908   1.139   5.247   6.839  0.4604  1.0267  0.1557
31156SOL     OW95909   7.237   2.469   4.000  0.1317 -0.3449  0.0905
31156SOL    HW195910   7.144   2.450   3.990 -0.1254  0.7107  0.3356
31156SOL    HW295911   7.245   2.503   4.090  0.8295 -0.8530  0.2291
31157SOL     OW95912   0.449   5.011   7.127 -0.3351 -0.3942  0.2920
31157SOL    HW195913   0.400   5.090   7.102  0.9108  0.3314  0.0714
31157SOL    HW295914   0.530   5.044   7.165  0.8005 -1.5468 -1.0126
31158SOL     OW95915   0.237   9.890   3.933  0.1092  0.2279  0.0212
31158SOL    HW195916   0.181   9.941   3.876 -0.1881  1.8298  1.6585
31158SOL    HW295917   0.243   9.804   3.890 -2.8111  0.2692 -0.6984
31159SOL     OW95918   3.588   8.772   9.330 -0.3265  0.2610 -0.1746
31159SOL    HW195919   3.552   8.784   9.243  0.0958 -1.3063 -0.6047
31159SOL    HW295920   3.654   8.841   9.339 -1.7666  1.6989 -0.2713
31160SOL     OW95921   0.956   8.737  10.058  0.0786 -0.0748  0.4091
31160SOL    HW195922   0.982   8.827  10.076  1.6186 -0.1960 -0.9640
31160SOL    HW295923   0.987   8.720   9.969 -0.4522 -1.8531  0.5184
31161SOL     OW95924   9.226   1.404  10.380 -0.2519 -0.2392  0.4801
31161SOL    HW195925   9.299   1.351  10.410 -0.5077 -1.1904 -0.5168
31161SOL    HW295926   9.236   1.408  10.285 -0.6986  0.8224  0.4643
31162SOL     OW95927  10.153   3.431  10.184 -0.9815  0.0628 -0.2150
31162SOL    HW195928  10.074   3.381  10.164 -0.2867 -1.3417  0.4861
31162SOL    HW295929  10.216   3.367  10.216  0.1193  1.3065  0.2220
31163SOL     OW95930   5.108   9.811  10.294  0.0584 -0.0378  0.1709
31163SOL    HW195931   5.088   9.819  10.388  0.9787  1.2229  0.2866
31163SOL    HW295932   5.160   9.732  10.287 -1.0918 -0.8614  0.5181
31164SOL     OW95933   1.267   2.375   6.771 -0.0521 -0.3193 -0.4969
31164SOL    HW195934   1.282   2.317   6.696 -2.4918 -1.1150 -0.4323
31164SOL    HW295935   1.209   2.443   6.737  2.8463  2.3466 -0.6233
31165SOL     OW95936   6.238   8.848   0.590 -0.2372 -0.4764 -0.0358
31165SOL    HW195937   6.156   8.859   0.542 -0.6591  0.1063  0.7864
31165SOL    HW295938   6.242   8.755   0.611 -0.5656 -0.5504 -0.2947
31166SOL     OW95939   2.694   7.084   7.245 -0.0700  0.1368  0.2885
31166SOL    HW195940   2.755   7.158   7.254 -0.1389  0.1599  0.5734
31166SOL    HW295941   2.750   7.010   7.224  0.3389 -0.3250  2.7380
31167SOL     OW95942   4.240   5.740   5.544 -0.4374  0.1418  0.3762
31167SOL    HW195943   4.332   5.717   5.560 -0.0601  1.6936  0.6887
31167SOL    HW295944   4.193   5.705   5.619 -0.4660 -2.4502 -0.7583
31168SOL     OW95945  10.266   2.094  10.042  0.4264  0.6835 -0.0748
31168SOL    HW195946  10.323   2.048  10.103  1.0845  0.3166 -0.9439
31168SOL    HW295947  10.205   2.143  10.098  0.2632 -0.5469  0.8709
31169SOL     OW95948   2.679   5.324   4.864  0.1470 -0.4438  0.6296
31169SOL    HW195949   2.747   5.259   4.848 -0.1742 -0.6838  0.2093
31169SOL    HW295950   2.597   5.278   4.844 -0.0934  0.0346  0.5121
31170SOL     OW95951   8.657   8.220  10.354 -0.3351 -0.3049  0.3188
31170SOL    HW195952   8.715   8.229  10.429  0.2661 -0.1237 -0.1614
31170SOL    HW295953   8.573   8.193  10.392 -0.3076  0.7072  1.1471
31171SOL     OW95954   2.840   3.411   4.603 -0.7340  0.4174 -0.4355
31171SOL    HW195955   2.794   3.375   4.679 -0.6891  0.0847 -0.5643
31171SOL    HW295956   2.893   3.339   4.569 -0.5576  0.6332 -0.6346
31172SOL     OW95957   2.910   8.958   0.571  0.2439  0.3031  0.4118
31172SOL    HW195958   2.974   8.992   0.635 -1.0651  0.3246  1.7631
31172SOL    HW295959   2.964   8.917   0.503  1.7833  2.2315  0.3545
31173SOL     OW95960   8.952   0.666   3.562 -0.0208  0.6724  0.1584
31173SOL    HW195961   8.936   0.675   3.468 -1.6979  1.7605  0.5119
31173SOL    HW295962   9.044   0.640   3.568  0.9491  3.2981 -1.6730
31174SOL     OW95963   4.529   6.195   4.868  0.0827 -0.1992  0.0117
31174SOL    HW195964   4.438   6.166   4.878 -0.0443 -0.3428 -1.3131
31174SOL    HW295965   4.529   6.285   4.901 -0.9698  0.4229 -1.5563
31175SOL     OW95966   6.756   2.339   1.539  0.1150  0.4908 -0.1735
31175SOL    HW195967   6.836   2.375   1.503  1.6032 -0.4501  1.9480
31175SOL    HW295968   6.734   2.396   1.613  0.3662 -0.7035  0.8753
31176SOL     OW95969   1.038   2.906   9.324 -0.1246 -0.8806 -0.5697
31176SOL    HW195970   1.114   2.896   9.266  0.2401  2.4560 -0.9015
31176SOL    HW295971   0.962   2.900   9.266 -0.0272 -2.0165 -0.6011
31177SOL     OW95972   6.748   5.313   1.173  0.1603  0.1112  0.1349
31177SOL    HW195973   6.700   5.308   1.256 -1.7611  0.5464 -0.8937
31177SOL    HW295974   6.825   5.257   1.186 -1.4390 -1.9282  1.3423
31178SOL     OW95975   1.999   5.290   0.379  0.6080  0.8422 -0.1191
31178SOL    HW195976   2.044   5.283   0.295  1.9251  1.6814  0.4908
31178SOL    HW295977   1.978   5.383   0.387  1.4716  0.9614  0.9464
31179SOL     OW95978   8.076   5.253   7.909  0.7129  0.1783 -0.4112
31179SOL    HW195979   8.016   5.300   7.968 -0.2930 -1.4586 -0.0685
31179SOL    HW295980   8.159   5.251   7.956  1.1716  2.6730 -0.9797
31180SOL     OW95981   7.959   0.293   9.489 -0.3709  0.3080 -0.1762
31180SOL    HW195982   7.997   0.341   9.564 -1.1896  0.4237  0.1744
31180SOL    HW295983   7.878   0.341   9.469 -0.5765 -0.2168 -0.6074
31181SOL     OW95984   8.634   1.960   3.570  0.4644  0.2472  0.0525
31181SOL    HW195985   8.688   2.022   3.521  1.4345 -0.0786  0.6806
31181SOL    HW295986   8.697   1.910   3.622 -0.4404 -0.2503  0.6816
31182SOL     OW95987   7.645   5.169   1.575 -0.1435  0.4198 -0.1036
31182SOL    HW195988   7.573   5.230   1.561 -1.6244 -1.0984  0.5834
31182SOL    HW295989   7.688   5.163   1.490 -2.4829 -0.6251 -1.3155
31183SOL     OW95990   5.542   1.816   9.761  0.3593  0.1222  0.3680
31183SOL    HW195991   5.578   1.771   9.837 -0.4228 -1.2323 -0.0457
31183SOL    HW295992   5.468   1.763   9.733 -0.2820  1.3959 -0.4568
31184SOL     OW95993   5.032   3.879   0.812  0.4797 -0.4368 -0.0014
31184SOL    HW195994   5.008   3.918   0.728  0.8970 -1.8053 -0.7946
31184SOL    HW295995   5.072   3.795   0.789  0.9883 -0.6570  1.5530
31185SOL     OW95996   5.808   5.275   5.791  0.1588  0.5305 -0.2247
31185SOL    HW195997   5.869   5.349   5.789  0.6049  0.2960  2.1072
31185SOL    HW295998   5.797   5.255   5.884 -3.1721  0.2953 -0.5359
31186SOL     OW95999   6.884   3.337   5.854 -0.2573 -0.2782  0.4731
31186SOL    HW196000   6.930   3.253   5.851  0.3970  0.0293  1.3931
31186SOL    HW296001   6.921   3.382   5.930 -0.6744  0.8003  0.0588
31187SOL     OW96002   9.024   8.154   4.261 -0.1734 -0.4338  0.0129
31187SOL    HW196003   9.036   8.059   4.266  1.4404 -0.3632 -1.5721
31187SOL    HW296004   9.045   8.185   4.349 -3.2004 -1.7069  1.3055
31188SOL     OW96005   9.199   1.715   0.398 -0.3472  0.0849 -0.3353
31188SOL    HW196006   9.260   1.668   0.342  1.4977 -0.0134  1.6192
31188SOL    HW296007   9.186   1.657   0.473 -2.1296  0.5361 -0.2523
31189SOL     OW96008   5.597   3.255   7.407 -0.2660  0.1468  0.2594
31189SOL    HW196009   5.518   3.204   7.426  0.1166  0.4432  3.0614
31189SOL    HW296010   5.668   3.191   7.406 -0.1783  0.2325  0.7192
31190SOL     OW96011   8.249   0.545   4.795  0.7201 -1.1400 -0.0877
31190SOL    HW196012   8.336   0.581   4.776  0.4571 -0.6928 -0.4652
31190SOL    HW296013   8.243   0.469   4.736  0.4354 -0.5372 -0.8543
31191SOL     OW96014   8.973   4.090   4.888 -0.7804  0.0363 -0.1211
31191SOL    HW196015   8.993   4.183   4.889  1.4139 -0.3336 -1.8561
31191SOL    HW296016   9.051   4.048   4.923 -1.0489 -1.2436 -0.9914
31192SOL     OW96017   6.683   8.065   6.011  0.5394  0.1164  0.0445
31192SOL    HW196018   6.606   8.092   6.061  0.5051  0.7682 -0.3665
31192SOL    HW296019   6.677   8.112   5.928  1.2162 -0.0686 -0.1163
31193SOL     OW96020   2.142   2.060   4.944  0.3069 -0.6431  0.0348
31193SOL    HW196021   2.234   2.046   4.968  0.6977 -2.0227 -1.9935
31193SOL    HW296022   2.145   2.132   4.882 -0.0576 -0.3615  0.3430
31194SOL     OW96023   0.506   8.623   8.556  0.1763  0.1807  0.2258
31194SOL    HW196024   0.567   8.678   8.506 -0.4224  2.8437  2.1404
31194SOL    HW296025   0.562   8.561   8.602  1.1118  0.4114 -0.5635
31195SOL     OW96026   5.180   5.869   2.562 -0.3431  0.0726 -0.1705
31195SOL    HW196027   5.236   5.891   2.488 -0.5356  0.4737 -0.2020
31195SOL    HW296028   5.233   5.811   2.616 -0.8396 -1.7284 -1.5293
31196SOL     OW96029   7.005   6.206   6.673  0.6949 -0.4135 -0.1054
31196SOL    HW196030   7.038   6.296   6.670  0.5526 -0.3768 -1.1480
31196SOL    HW296031   7.028   6.175   6.760  2.5617 -0.0369 -0.4121
31197SOL     OW96032   3.228   1.502   6.404  0.8291 -0.1459  0.2029
31197SOL    HW196033   3.225   1.445   6.481  0.6710  1.3385  1.3444
31197SOL    HW296034   3.315   1.488   6.367  1.2840 -0.1523  1.2328
31198SOL     OW96035   0.918   2.526   3.935 -0.1823  0.5089  0.2937
31198SOL    HW196036   0.962   2.574   4.004  0.0357  1.2246 -0.3277
31198SOL    HW296037   0.831   2.566   3.929  0.0413  0.9207 -0.3081
31199SOL     OW96038   8.150   0.798   4.852 -0.2544 -0.4157 -0.0705
31199SOL    HW196039   8.170   0.708   4.826  0.5233 -0.2642  0.0019
31199SOL    HW296040   8.203   0.852   4.793  0.3655 -0.0352  0.8305
31200SOL     OW96041   5.763   7.291   6.269 -0.1913  0.6586 -0.6617
31200SOL    HW196042   5.744   7.372   6.316  0.4823  1.7568 -2.1831
31200SOL    HW296043   5.855   7.272   6.291  0.0305  1.0070 -1.2572
31201SOL     OW96044   4.659   2.842   3.230 -0.3969 -0.0202  0.2035
31201SOL    HW196045   4.692   2.786   3.300 -0.4262  0.3270  0.4953
31201SOL    HW296046   4.710   2.923   3.238 -1.4444  0.5987  0.7763
31202SOL     OW96047   2.249   2.778   7.961  0.2456  0.4933  0.6460
31202SOL    HW196048   2.338   2.797   7.992  1.1094 -0.4842 -1.0885
31202SOL    HW296049   2.249   2.806   7.869 -0.3691 -1.9296 -0.1569
31203SOL     OW96050   0.059   5.986   7.202 -0.1420 -0.1885 -0.2930
31203SOL    HW196051   0.027   6.038   7.275 -0.1535 -1.7278  0.8637
31203SOL    HW296052   0.052   6.043   7.126  0.5709  1.7297  1.0143
31204SOL     OW96053   7.678   3.160   5.310  0.3617  0.0093  0.2685
31204SOL    HW196054   7.620   3.218   5.261 -0.4137  0.2025  1.3918
31204SOL    HW296055   7.702   3.209   5.389  2.7705  0.2828 -0.5326
31205SOL     OW96056   8.994   6.266   2.321  0.1689 -0.3728 -0.4237
31205SOL    HW196057   9.017   6.174   2.303 -1.3293 -0.9841  0.5607
31205SOL    HW296058   8.916   6.260   2.375 -0.4746  1.5318 -1.0789
31206SOL     OW96059   0.691   2.375   8.757 -0.2307 -0.2979 -0.6323
31206SOL    HW196060   0.664   2.452   8.808  1.2343 -0.2609  0.1474
31206SOL    HW296061   0.613   2.351   8.706 -2.4503 -1.4369  2.9092
31207SOL     OW96062   4.518   3.062   3.962 -0.4770  0.3173 -0.3043
31207SOL    HW196063   4.520   3.131   4.028  0.3657  0.4474 -0.4521
31207SOL    HW296064   4.446   3.087   3.903 -1.1806  0.2417  0.5088
31208SOL     OW96065   4.296   5.748  10.024 -0.1623  0.1476 -0.7488
31208SOL    HW196066   4.359   5.720   9.958  0.4549  0.4156 -0.2922
31208SOL    HW296067   4.290   5.674  10.084 -1.6545 -0.5810 -1.7398
31209SOL     OW96068   2.505   4.892   7.482 -0.5488 -0.0721 -0.0223
31209SOL    HW196069   2.546   4.953   7.421 -0.4590  0.4594  0.5628
31209SOL    HW296070   2.446   4.840   7.428  0.5018 -0.4987 -0.7901
31210SOL     OW96071   9.017   4.122   4.439  0.8278 -0.1170  0.4146
31210SOL    HW196072   8.952   4.178   4.483  0.1991 -0.2257 -0.3543
31210SOL    HW296073   8.966   4.073   4.374  1.7014 -0.1639 -0.2481
31211SOL     OW96074   3.151   2.501   7.452  0.6773 -0.2531  0.5766
31211SOL    HW196075   3.166   2.459   7.367  0.6884 -1.1493  1.0104
31211SOL    HW296076   3.088   2.445   7.495 -2.0309  1.9897 -0.1458
31212SOL     OW96077   6.668   9.983   6.384  0.1111  0.3147 -0.4808
31212SOL    HW196078   6.579  10.000   6.414 -0.5806 -0.8652 -1.7796
31212SOL    HW296079   6.716   9.962   6.464 -0.7873  0.8774  0.2247
31213SOL     OW96080   1.153   7.744  10.173 -0.1771 -0.1472 -0.0372
31213SOL    HW196081   1.087   7.790  10.225 -1.0526 -1.2957 -0.0835
31213SOL    HW296082   1.162   7.659  10.215 -0.7513 -1.0278 -1.5997
31214SOL     OW96083   8.735   4.503   2.852  0.0810 -0.1025 -0.5855
31214SOL    HW196084   8.684   4.482   2.930  0.1283  0.4000 -0.4190
31214SOL    HW296085   8.722   4.427   2.794  1.5147 -1.3565  0.6349
31215SOL     OW96086   1.827   7.499   3.476  1.0443 -0.0542 -0.0150
31215SOL    HW196087   1.836   7.476   3.568 -0.9476  0.4461  0.3532
31215SOL    HW296088   1.827   7.595   3.475  1.2675 -0.0535 -0.5606
31216SOL     OW96089  10.003   4.167   2.182  0.6672  0.3542 -0.4131
31216SOL    HW196090  10.065   4.096   2.165  0.6133  0.2866 -0.3314
31216SOL    HW296091   9.935   4.156   2.116  0.3642 -0.0153 -0.0416
31217SOL     OW96092   3.531   2.469   6.887  0.6133 -0.9866  0.0263
31217SOL    HW196093   3.501   2.538   6.946 -1.7231 -1.8061 -0.0900
31217SOL    HW296094   3.618   2.445   6.920 -0.1829 -0.7149  2.5068
31218SOL     OW96095   5.576   9.619   8.708 -0.1649 -0.2412  0.4868
31218SOL    HW196096   5.625   9.663   8.777  1.8857 -2.8572  0.8512
31218SOL    HW296097   5.502   9.577   8.753  0.5540 -1.0463  0.9302
31219SOL     OW96098   8.994   2.476   5.063 -0.3045 -0.1258 -0.3955
31219SOL    HW196099   8.905   2.473   5.098  0.1729  0.4488  0.9388
31219SOL    HW296100   9.041   2.408   5.110  0.6182  1.3571  0.9387
31220SOL     OW96101   8.871   7.136   3.762  0.1240  0.0904 -0.5824
31220SOL    HW196102   8.799   7.086   3.800 -0.3893  0.5283 -0.9614
31220SOL    HW296103   8.912   7.075   3.700  0.6594 -0.4587  0.2920
31221SOL     OW96104   0.796   9.675   5.342 -0.1976 -0.2907 -0.3342
31221SOL    HW196105   0.740   9.638   5.410  0.6614  0.0939  0.6018
31221SOL    HW296106   0.876   9.622   5.345  0.2886  0.4213 -0.2703
31222SOL     OW96107   6.971   9.980   2.100  0.1701 -0.3625  0.2520
31222SOL    HW196108   6.965  10.070   2.067  0.5330  0.8056  3.0780
31222SOL    HW296109   7.049   9.944   2.057  0.8438  1.1756  0.1162
31223SOL     OW96110   0.189   1.400   7.900  0.1373 -0.4167  0.0454
31223SOL    HW196111   0.128   1.405   7.974  0.1672  0.0570  0.0414
31223SOL    HW296112   0.274   1.380   7.940  0.1102 -0.3844  0.1201
31224SOL     OW96113   1.938   7.184   5.228  0.5331 -0.0113 -0.0621
31224SOL    HW196114   1.967   7.154   5.314  3.9558 -0.0812 -1.0834
31224SOL    HW296115   1.896   7.108   5.188 -0.0914 -0.2914  1.0955
31225SOL     OW96116   8.316   6.545   7.708  0.2458  0.1728  0.4076
31225SOL    HW196117   8.252   6.554   7.778  0.6328  1.8856  0.5823
31225SOL    HW296118   8.399   6.528   7.754  0.2369 -0.2012  0.2850
31226SOL     OW96119   4.698   1.491   6.521 -0.1584  0.1601 -0.2018
31226SOL    HW196120   4.723   1.451   6.604 -0.0267  0.3570 -0.1444
31226SOL    HW296121   4.779   1.497   6.471 -0.0222  1.0614  0.0956
31227SOL     OW96122   1.587   1.197   8.377  0.4144  0.0021  0.2661
31227SOL    HW196123   1.666   1.177   8.326 -0.5229  0.0958 -1.3020
31227SOL    HW296124   1.517   1.151   8.331 -0.3247 -0.9606  2.2319
31228SOL     OW96125   7.000   2.387   2.830  0.1036 -0.1299 -0.2033
31228SOL    HW196126   6.983   2.299   2.797  0.9178 -0.3141 -0.1528
31228SOL    HW296127   6.913   2.420   2.855 -0.1686 -1.0477  0.1108
31229SOL     OW96128   2.696   2.641   2.506 -0.6174 -0.5091 -0.0855
31229SOL    HW196129   2.655   2.685   2.431  1.9033 -0.2121 -1.4028
31229SOL    HW296130   2.704   2.710   2.572  1.6230  0.6354 -1.4527
31230SOL     OW96131   9.544   5.328   1.228  0.0837  0.2886  0.3819
31230SOL    HW196132   9.494   5.253   1.262  0.4754 -0.6330 -1.0459
31230SOL    HW296133   9.618   5.290   1.182  0.6414  1.5834  0.1634
31231SOL     OW96134   3.767   2.758   8.016 -0.1190 -0.1811  0.0733
31231SOL    HW196135   3.762   2.837   8.070  0.2181 -0.7626  0.9737
31231SOL    HW296136   3.848   2.715   8.043  0.4829 -0.0740 -1.4954
31232SOL     OW96137   9.075   0.271   3.028 -0.3172  0.2968 -0.0592
31232SOL    HW196138   9.035   0.215   2.961 -1.2302 -0.3500  1.0068
31232SOL    HW296139   9.037   0.241   3.110 -0.4775  2.1731  0.5957
31233SOL     OW96140  10.304   4.370   7.095 -0.5738 -0.2546  0.7908
31233SOL    HW196141  10.300   4.433   7.022  0.4737 -0.8903  0.1555
31233SOL    HW296142  10.251   4.296   7.066  0.0247 -0.6032  0.5598
31234SOL     OW96143   4.391   8.616   1.790 -0.0986  0.3798  0.2936
31234SOL    HW196144   4.340   8.539   1.768  1.0395 -0.2462 -0.3017
31234SOL    HW296145   4.457   8.585   1.852  0.3058  0.8912  0.1319
31235SOL     OW96146   6.402   4.587   3.667  0.2323  0.1231  0.3063
31235SOL    HW196147   6.437   4.532   3.597 -0.2737  1.6469 -1.2007
31235SOL    HW296148   6.330   4.536   3.704 -0.7786  0.0682 -1.6094
31236SOL     OW96149   3.359   6.037   0.060 -0.1077  0.5248  0.0155
31236SOL    HW196150   3.309   6.042   0.142 -0.3698 -0.9935 -0.0290
31236SOL    HW296151   3.380   6.128   0.039 -0.0550  0.9369  1.7569
31237SOL     OW96152   7.349   2.565   9.374  0.0091  0.3586  0.3489
31237SOL    HW196153   7.274   2.560   9.315 -0.1508  0.1873  0.5682
31237SOL    HW296154   7.348   2.483   9.422  1.2399 -0.3395 -0.7284
31238SOL     OW96155   6.503   4.746   8.453  0.1899 -0.0909  0.1633
31238SOL    HW196156   6.584   4.742   8.401 -0.6369  1.1274 -1.2914
31238SOL    HW296157   6.525   4.800   8.528  0.7131  0.2860 -0.2551
31239SOL     OW96158   2.943  10.434   9.516 -0.2089 -0.1096  0.3544
31239SOL    HW196159   2.929  10.345   9.549 -0.3313 -1.9855 -4.1057
31239SOL    HW296160   2.857  10.476   9.524 -0.6773 -1.0921  0.6145
31240SOL     OW96161   2.541   4.185   2.633  0.7232  0.2195 -0.4342
31240SOL    HW196162   2.574   4.238   2.561  1.1422 -0.4280 -0.7327
31240SOL    HW296163   2.551   4.095   2.603 -1.9588 -0.0216 -0.8414
31241SOL     OW96164   4.227   0.750   1.196 -0.5756 -0.7739  0.1070
31241SOL    HW196165   4.212   0.845   1.196 -1.1620 -0.8568  0.6019
31241SOL    HW296166   4.195   0.721   1.111 -1.7901 -0.7143  0.5116
31242SOL     OW96167   6.862   1.235   9.686  0.0558  0.6062  0.8951
31242SOL    HW196168   6.805   1.193   9.621 -0.7374  1.0533  1.2833
31242SOL    HW296169   6.914   1.164   9.721 -0.7555  0.0535  1.0203
31243SOL     OW96170   4.487   4.939   9.224  0.1407  0.0776 -0.6993
31243SOL    HW196171   4.410   4.983   9.188  0.4759  0.2096 -1.2673
31243SOL    HW296172   4.506   4.986   9.304 -0.5864 -0.1844 -0.3604
31244SOL     OW96173   9.430   9.156   6.372 -0.1298 -0.4942  0.1024
31244SOL    HW196174   9.351   9.102   6.378 -0.0245 -0.6791 -0.1464
31244SOL    HW296175   9.455   9.171   6.463 -1.4788  1.1239  0.2596
31245SOL     OW96176  10.122   6.813   6.405 -0.1136  0.4886 -0.0541
31245SOL    HW196177  10.143   6.791   6.314  1.3527 -0.2871  0.4368
31245SOL    HW296178  10.127   6.729   6.452 -2.3976  0.5972  0.5138
31246SOL     OW96179   1.853   0.481   3.119  0.8430  0.8914 -0.1081
31246SOL    HW196180   1.937   0.497   3.075  0.7467 -0.9392 -1.0486
31246SOL    HW296181   1.876   0.475   3.212  1.8455 -0.0530 -0.3939
31247SOL     OW96182   3.323   4.675   2.067  0.2193  0.1964 -0.3977
31247SOL    HW196183   3.314   4.691   1.973  0.9620 -2.6457 -1.0699
31247SOL    HW296184   3.248   4.618   2.087 -2.0520  3.5936  1.6473
31248SOL     OW96185   0.548   6.177   9.700  0.5564 -0.4864  0.2829
31248SOL    HW196186   0.575   6.215   9.616 -0.1111  0.2511  0.3885
31248SOL    HW296187   0.595   6.228   9.765  2.1276 -1.9325  0.3423
31249SOL     OW96188   7.515   7.133   4.774  0.2716  0.0943 -0.1594
31249SOL    HW196189   7.446   7.156   4.712  0.5690 -2.0708 -1.3869
31249SOL    HW296190   7.588   7.191   4.751  0.6587 -1.1738 -2.4559
31250SOL     OW96191   6.363   9.835   5.985  0.3044  0.0591  0.6581
31250SOL    HW196192   6.452   9.833   5.951  0.2851 -0.1097  0.6153
31250SOL    HW296193   6.353   9.751   6.029  0.6996  0.7157  2.0369
31251SOL     OW96194   8.601   6.729   2.145 -0.1744  0.2983  0.2631
31251SOL    HW196195   8.561   6.778   2.074  0.0643 -0.3979 -0.3674
31251SOL    HW296196   8.530   6.676   2.182  0.0243 -0.5454 -0.5166
31252SOL     OW96197   2.709   2.828  10.247  0.2506 -0.6125 -0.4928
31252SOL    HW196198   2.683   2.759  10.186  0.2011 -0.1416 -1.0196
31252SOL    HW296199   2.765   2.886  10.194  0.4341 -0.3492 -0.0103
31253SOL     OW96200   2.712   8.471   3.512 -0.2270  0.0158 -0.0560
31253SOL    HW196201   2.717   8.563   3.487 -2.8115  0.6468  1.3754
31253SOL    HW296202   2.768   8.426   3.449  1.0986  2.5301 -0.8269
31254SOL     OW96203   3.092   0.324   1.122 -0.0344  0.0143  0.8292
31254SOL    HW196204   3.101   0.321   1.027 -1.7433  0.1058  0.6427
31254SOL    HW296205   3.019   0.384   1.137 -2.5288 -3.0604  1.9860
31255SOL     OW96206   8.082   9.368   0.191 -0.0756 -0.0737  0.1425
31255SOL    HW196207   8.084   9.411   0.106  0.2444  0.7418  0.5507
31255SOL    HW296208   8.168   9.386   0.229 -0.4275  0.0725  0.8803
31256SOL     OW96209   0.967   6.956   6.999 -0.3095  0.5144  0.0040
31256SOL    HW196210   0.954   6.893   7.070 -2.3699  0.8463 -0.0256
31256SOL    HW296211   0.890   7.013   7.003  1.3186  2.8715 -0.1691
31257SOL     OW96212   4.583   5.062   5.047  0.8233 -0.4024 -0.1344
31257SOL    HW196213   4.549   5.024   5.128  1.7773  0.8464  0.8952
31257SOL    HW296214   4.505   5.091   5.000  0.1963 -1.9713 -0.1317
31258SOL     OW96215   5.412   9.613   9.335 -0.6123  0.1446 -0.4894
31258SOL    HW196216   5.444   9.524   9.348 -1.1688 -0.5514 -3.1439
31258SOL    HW296217   5.338   9.603   9.274 -1.5550  2.3202  0.1922
31259SOL     OW96218   6.358   7.776   9.774  0.3289  0.8897  0.6403
31259SOL    HW196219   6.352   7.847   9.838  1.4215 -0.1065  1.8923
31259SOL    HW296220   6.375   7.698   9.826 -1.6632 -0.4802 -0.6310
31260SOL     OW96221   0.388   9.096   7.540 -0.3371 -0.8983  0.1966
31260SOL    HW196222   0.465   9.063   7.587 -0.8345 -1.0365  0.9335
31260SOL    HW296223   0.327   9.022   7.539 -1.2926 -0.1628  1.4848
31261SOL     OW96224   7.198   6.960   6.558 -0.3672  0.0474  0.0934
31261SOL    HW196225   7.105   6.971   6.577 -0.9329  0.7422 -2.6328
31261SOL    HW296226   7.211   6.866   6.554 -0.3494 -0.1255  2.8616
31262SOL     OW96227   9.984   1.181   7.045 -0.2156 -0.8672 -0.3227
31262SOL    HW196228  10.069   1.160   7.083  0.5063  1.0563 -0.7745
31262SOL    HW296229  10.000   1.186   6.951 -0.4460  1.0141 -0.2909
31263SOL     OW96230   4.916   1.430   8.046  0.0993 -0.0244 -0.3181
31263SOL    HW196231   4.963   1.369   7.988 -1.4079  0.9938 -2.7775
31263SOL    HW296232   4.862   1.373   8.101 -0.7831 -1.0176 -2.1156
31264SOL     OW96233   6.815   7.242   3.059  0.2148 -0.2152  0.5915
31264SOL    HW196234   6.789   7.156   3.091 -1.6109  0.6584  1.6003
31264SOL    HW296235   6.859   7.283   3.133  0.6771 -0.1136  0.2622
31265SOL     OW96236   5.945   0.091   1.108 -0.0766  0.1965 -0.3596
31265SOL    HW196237   5.854   0.070   1.084 -0.1306  1.2916 -1.1629
31265SOL    HW296238   5.941   0.107   1.203 -1.0351  1.7084 -0.6195
31266SOL     OW96239   3.140   5.180   7.267  0.0075 -0.2379 -0.0311
31266SOL    HW196240   3.227   5.176   7.305  0.0854  0.2395 -0.1505
31266SOL    HW296241   3.144   5.122   7.191  0.2944 -0.0309 -0.1771
31267SOL     OW96242   5.108   7.332   0.613  0.5345 -0.0449 -0.1821
31267SOL    HW196243   5.139   7.365   0.529 -0.0901  1.0267 -0.0108
31267SOL    HW296244   5.013   7.326   0.603  0.3592  0.9434  0.7157
31268SOL     OW96245   5.777   1.012   9.003 -0.4525  0.0786 -0.2601
31268SOL    HW196246   5.860   0.987   8.962 -0.7229 -1.0116 -0.1696
31268SOL    HW296247   5.795   1.012   9.097 -0.3379  0.6732 -0.2809
31269SOL     OW96248   7.269   0.106   2.760 -0.0233 -0.0854  0.0026
31269SOL    HW196249   7.353   0.066   2.780  0.3654  0.4966 -0.4621
31269SOL    HW296250   7.283   0.200   2.771  0.0822  0.2503 -2.4514
31270SOL     OW96251   5.389   3.410   0.145 -0.9390  0.3078 -0.0896
31270SOL    HW196252   5.337   3.488   0.126  0.5169  1.3782  0.0881
31270SOL    HW296253   5.479   3.443   0.154 -0.3582 -1.3209  0.5237
31271SOL     OW96254   3.152   7.898   5.001 -0.0315  0.0598 -0.0348
31271SOL    HW196255   3.171   7.990   4.985  1.5435  0.3344  2.8284
31271SOL    HW296256   3.067   7.898   5.046  1.0269  0.4205  2.0886
31272SOL     OW96257   8.454   0.890   5.386  0.8675 -0.2042 -0.2528
31272SOL    HW196258   8.545   0.916   5.370  0.6005  0.1829 -1.2786
31272SOL    HW296259   8.450   0.799   5.357  1.2268 -0.6532  1.0436
31273SOL     OW96260   5.944   1.346   8.303 -0.5723 -0.1231  0.0396
31273SOL    HW196261   5.998   1.316   8.377 -1.6889  0.2515  1.0334
31273SOL    HW296262   5.858   1.306   8.318 -1.9537  2.9847  1.0821
31274SOL     OW96263   9.920   0.823   5.846 -0.7054 -0.8518 -0.2628
31274SOL    HW196264   9.851   0.887   5.827 -0.4193 -0.2826  0.5616
31274SOL    HW296265   9.908   0.802   5.938 -0.3477 -1.4581 -0.3498
31275SOL     OW96266   5.597   4.170   8.237 -0.3633 -0.6124 -0.1648
31275SOL    HW196267   5.647   4.109   8.291 -1.1909 -1.3567 -0.2200
31275SOL    HW296268   5.643   4.254   8.247  0.0368 -0.9429  0.9488
31276SOL     OW96269   1.931   9.520   8.239 -0.2869 -0.4252 -0.1002
31276SOL    HW196270   1.989   9.513   8.163  1.2123 -0.1177  0.9695
31276SOL    HW296271   1.844   9.528   8.201  0.5021  0.8149 -1.8337
31277SOL     OW96272   1.545   1.151   1.935  0.1380 -0.6289  0.2736
31277SOL    HW196273   1.483   1.127   2.004  0.9544 -1.5613  0.7060
31277SOL    HW296274   1.542   1.246   1.932  0.8657 -0.4930  2.3465
31278SOL     OW96275   9.123   0.152   4.377  0.1367 -0.3000  0.1479
31278SOL    HW196276   9.032   0.171   4.354 -0.3122  2.8840  3.4883
31278SOL    HW296277   9.118   0.073   4.430 -0.2847 -1.3981 -1.4546
31279SOL     OW96278   9.778   4.600   5.038  0.2226  0.2316  0.0935
31279SOL    HW196279   9.807   4.680   4.993  0.8363  0.1192  0.2735
31279SOL    HW296280   9.692   4.581   5.002  0.3204  0.6552 -0.3676
31280SOL     OW96281   3.004   7.026   6.855 -0.1935  0.3899  0.2698
31280SOL    HW196282   2.997   6.945   6.803  1.0567  1.2097 -1.2660
31280SOL    HW296283   2.914   7.045   6.881 -0.9573  0.0542 -1.8744
31281SOL     OW96284   4.068   3.586   5.889  0.1740 -0.2546  0.1825
31281SOL    HW196285   4.085   3.494   5.910 -1.5615 -0.5590  0.4548
31281SOL    HW296286   4.013   3.617   5.960 -0.1997  0.6668 -0.4844
31282SOL     OW96287   8.884   7.714   8.251  0.5485  0.0595 -0.4253
31282SOL    HW196288   8.951   7.690   8.315  0.9952  2.1437 -0.0369
31282SOL    HW296289   8.913   7.673   8.169  1.8839  0.2449 -0.0738
31283SOL     OW96290   5.101   9.187   3.179  0.8677 -0.4215  0.2208
31283SOL    HW196291   5.150   9.265   3.204 -0.4379  0.3672  0.4444
31283SOL    HW296292   5.101   9.132   3.257 -0.0858  0.3853  0.8226
31284SOL     OW96293  10.443   6.671   2.728  0.2196  0.2011 -0.7019
31284SOL    HW196294  10.498   6.699   2.654  0.4556  0.9433 -0.2482
31284SOL    HW296295  10.493   6.695   2.806 -0.1228 -0.3961 -0.2930
31285SOL     OW96296   2.234   1.353   2.277  0.1643  0.1907  0.0265
31285SOL    HW196297   2.255   1.441   2.309  1.3923  0.3704 -1.1840
31285SOL    HW296298   2.151   1.331   2.320  0.9315  1.0270  2.0627
31286SOL     OW96299   6.728   0.575   7.869  0.3969  0.3849  0.8730
31286SOL    HW196300   6.679   0.525   7.935 -0.2743 -0.6313 -0.3410
31286SOL    HW296301   6.672   0.574   7.792  0.5371  2.7563  0.6724
31287SOL     OW96302   1.055   2.835   6.260  0.2731 -0.5422 -0.0523
31287SOL    HW196303   1.143   2.869   6.275  1.0694 -1.8090 -1.6131
31287SOL    HW296304   1.026   2.877   6.179 -1.1444  0.8670  1.1041
31288SOL     OW96305   6.671   7.928   1.943 -0.6014 -0.6812  0.2004
31288SOL    HW196306   6.638   8.017   1.934  2.5186  0.8634  2.1421
31288SOL    HW296307   6.607   7.884   2.000  0.0359  1.8726  3.1826
31289SOL     OW96308   6.308   2.885   1.845 -0.0943  0.6691  0.6398
31289SOL    HW196309   6.243   2.848   1.904  0.6294  0.7407  1.5049
31289SOL    HW296310   6.390   2.881   1.894  0.4542  1.0780 -0.2197
31290SOL     OW96311   0.765   4.076   0.769 -0.1237 -0.1424 -0.1156
31290SOL    HW196312   0.794   4.003   0.715 -1.2315 -0.2590 -0.5702
31290SOL    HW296313   0.789   4.154   0.718 -1.5485 -0.2602 -1.0044
31291SOL     OW96314   7.338   1.029   9.171  0.9413 -0.5019 -0.1453
31291SOL    HW196315   7.364   0.937   9.172  2.4406 -0.2101  3.1010
31291SOL    HW296316   7.253   1.031   9.215  0.8587 -0.3418 -0.3101
31292SOL     OW96317   0.346   0.395   6.703  0.2417  0.3094  0.1670
31292SOL    HW196318   0.431   0.378   6.663  1.5773  2.1655  2.0360
31292SOL    HW296319   0.328   0.318   6.757  1.6526  0.6514  1.1744
31293SOL     OW96320   5.231   7.707   4.648  0.0167  0.0240  0.0131
31293SOL    HW196321   5.310   7.654   4.658  1.7999  2.5525  0.4200
31293SOL    HW296322   5.196   7.716   4.736 -1.7050 -2.3475 -0.3500
31294SOL     OW96323   2.378   9.786   6.358 -0.2090  0.0124  0.1163
31294SOL    HW196324   2.285   9.805   6.345 -0.6583 -2.1055 -0.0225
31294SOL    HW296325   2.415   9.780   6.270 -0.0866  0.1032  0.1595
31295SOL     OW96326   0.187   0.849   8.635  0.2386  0.1615  0.3947
31295SOL    HW196327   0.185   0.913   8.707  2.9666  2.2064 -1.1383
31295SOL    HW296328   0.109   0.868   8.584 -0.3271  0.5053  1.3524
31296SOL     OW96329   5.872   0.332   3.318  0.0171  0.4920 -0.5514
31296SOL    HW196330   5.949   0.320   3.261  0.4025  0.5919 -0.0618
31296SOL    HW296331   5.799   0.295   3.268  0.5529 -0.5306 -0.6176
31297SOL     OW96332   9.979   1.863   6.829  0.2623 -0.3382  0.0028
31297SOL    HW196333  10.071   1.879   6.848  0.3828 -0.4513 -0.4925
31297SOL    HW296334   9.978   1.823   6.742 -0.3020  0.3206 -0.3011
31298SOL     OW96335   3.738   0.811  10.358  0.2138  0.0065 -0.1220
31298SOL    HW196336   3.809   0.822  10.422 -2.1143 -1.1843  2.9449
31298SOL    HW296337   3.737   0.893  10.309  2.5124  0.7922  0.9912
31299SOL     OW96338   7.242   0.271   1.296  0.2621 -0.5479 -0.2235
31299SOL    HW196339   7.201   0.332   1.233  2.1079  0.6640 -0.3358
31299SOL    HW296340   7.208   0.298   1.381 -0.4419 -0.6502 -0.4684
31300SOL     OW96341   7.100   1.593   6.859 -0.3265 -0.2742  0.3487
31300SOL    HW196342   7.139   1.644   6.930  0.2118  0.0345 -0.1539
31300SOL    HW296343   7.166   1.527   6.839 -0.1759  0.0614 -0.3060
31301SOL     OW96344   9.737   0.879   6.513  0.1381  0.6993  0.1377
31301SOL    HW196345   9.829   0.888   6.487  0.2016  1.2267  0.5320
31301SOL    HW296346   9.719   0.785   6.504  0.4035  0.7304 -0.9679
31302SOL     OW96347   4.810   2.226   9.507 -0.2984  0.2638 -0.5047
31302SOL    HW196348   4.731   2.272   9.481 -1.1470 -0.2087  1.0739
31302SOL    HW296349   4.795   2.203   9.599  2.1865  1.2692  0.2636
31303SOL     OW96350   2.580   5.462   7.303  0.2803  0.0730 -0.0727
31303SOL    HW196351   2.643   5.408   7.254 -0.6054 -0.2776 -0.8645
31303SOL    HW296352   2.574   5.420   7.388  0.6398 -0.2724 -0.2138
31304SOL     OW96353   6.734   6.863   9.599  0.1311  0.3422 -0.5210
31304SOL    HW196354   6.681   6.893   9.673  1.5244  1.0178  0.2414
31304SOL    HW296355   6.724   6.767   9.601  0.0763  0.3501  0.5079
31305SOL     OW96356   9.892   0.438   3.651 -0.3375  0.2966  0.6104
31305SOL    HW196357   9.976   0.442   3.605  0.5498  0.6150  2.1833
31305SOL    HW296358   9.890   0.350   3.688 -0.2129  0.6236  1.4128
31306SOL     OW96359   7.777   0.272   5.362 -0.4023 -0.0059  0.1164
31306SOL    HW196360   7.824   0.355   5.351 -0.4205 -0.2174 -1.7617
31306SOL    HW296361   7.704   0.294   5.422  0.3525  1.0001  0.7032
31307SOL     OW96362   0.390   8.399  10.423 -0.0865 -0.1554 -0.3632
31307SOL    HW196363   0.312   8.359  10.384 -1.2197 -0.4502  2.0294
31307SOL    HW296364   0.373   8.493  10.418  0.3309 -0.1286 -1.5896
31308SOL     OW96365   0.295   8.900   5.318 -0.1766 -0.6319  0.1147
31308SOL    HW196366   0.222   8.954   5.291 -1.4384 -1.4517  1.6720
31308SOL    HW296367   0.373   8.946   5.288 -1.3263 -0.5399 -3.0368
31309SOL     OW96368   7.846  10.449   5.623 -0.0955 -0.4407  0.5925
31309SOL    HW196369   7.883  10.537   5.634 -0.6736  0.1011 -1.2960
31309SOL    HW296370   7.902  10.392   5.675  1.2951  0.8162  0.5300
31310SOL     OW96371   0.719   4.875   7.524  0.5502 -0.0651  0.3353
31310SOL    HW196372   0.758   4.900   7.440 -1.1954  0.2114 -0.4297
31310SOL    HW296373   0.675   4.792   7.506  0.1234  0.0174  0.9655
31311SOL     OW96374   5.781   0.591   1.345 -0.2911  0.8678  0.8031
31311SOL    HW196375   5.858   0.535   1.351 -1.7674 -1.6505 -1.2810
31311SOL    HW296376   5.810   0.666   1.293  1.1354  0.8015  1.4683
31312SOL     OW96377   8.587   2.306   8.993 -0.2722  0.6918  0.4528
31312SOL    HW196378   8.538   2.232   9.028 -0.4130  0.1537 -0.8271
31312SOL    HW296379   8.526   2.379   8.994 -0.6764  0.3586  0.1283
31313SOL     OW96380   6.211   4.602   4.228  0.0412  0.4985  0.3939
31313SOL    HW196381   6.222   4.606   4.133  0.1459  2.1905  0.4340
31313SOL    HW296382   6.177   4.515   4.245 -2.2600  0.9371 -1.4520
31314SOL     OW96383   7.925   2.806   7.462 -0.2804  0.1571 -0.2928
31314SOL    HW196384   7.955   2.891   7.430 -0.1624  1.5623  3.0796
31314SOL    HW296385   7.921   2.817   7.557 -1.6197 -3.2156  0.1735
31315SOL     OW96386   1.713   3.136  10.280  0.1234 -0.6685 -0.0381
31315SOL    HW196387   1.777   3.069  10.255 -1.7379 -3.1152  1.2592
31315SOL    HW296388   1.659   3.148  10.202  0.9062 -0.0764 -0.5065
31316SOL     OW96389   6.115   9.857   8.128  0.4691  0.0948  0.0084
31316SOL    HW196390   6.034   9.900   8.100 -0.3045 -1.6297 -0.5088
31316SOL    HW296391   6.180   9.884   8.064 -0.8312 -2.2636 -2.4994
31317SOL     OW96392   4.995   5.977   9.217 -0.4042  0.3917  0.6749
31317SOL    HW196393   5.056   6.007   9.149 -0.0422 -0.4983  0.5965
31317SOL    HW296394   4.937   6.052   9.232 -2.1437 -0.1433 -2.4322
31318SOL     OW96395   5.674   3.832   4.182  0.1332 -0.0352 -0.3576
31318SOL    HW196396   5.581   3.849   4.165  0.4990  0.7723 -1.6360
31318SOL    HW296397   5.687   3.740   4.158 -0.7014 -0.7170  1.5712
31319SOL     OW96398   6.614   7.151   6.889  0.3235 -0.1698  0.0753
31319SOL    HW196399   6.547   7.098   6.934  0.7218  0.6533  1.7208
31319SOL    HW296400   6.697   7.119   6.925  0.7697 -0.4776 -1.1894
31320SOL     OW96401   4.106   2.795   0.238 -0.3188 -0.1605 -0.1328
31320SOL    HW196402   4.078   2.883   0.264 -2.9856 -1.6218  2.4856
31320SOL    HW296403   4.086   2.740   0.314  2.1430 -2.9353 -1.2937
31321SOL     OW96404   5.067   6.764   9.869 -0.1323 -0.6611 -0.1075
31321SOL    HW196405   4.995   6.762   9.931 -0.3986 -1.0313 -0.4228
31321SOL    HW296406   5.046   6.837   9.810  0.4949  0.1640  0.6718
31322SOL     OW96407   7.806   1.590   1.370 -0.2615  0.6594  0.3694
31322SOL    HW196408   7.782   1.497   1.364 -0.0674  0.6589 -0.5731
31322SOL    HW296409   7.776   1.628   1.287  0.2192  1.2985  0.4792
31323SOL     OW96410   4.409   0.785   2.703 -0.4153 -0.6557 -0.2757
31323SOL    HW196411   4.325   0.829   2.688 -0.1099 -0.8999 -3.4980
31323SOL    HW296412   4.429   0.801   2.795 -3.3306  0.5462  0.2511
31324SOL     OW96413   9.067   6.399   4.789  0.8263  0.3311 -0.4135
31324SOL    HW196414   9.145   6.426   4.836  2.5040 -0.2442 -2.6567
31324SOL    HW296415   9.041   6.476   4.738  0.4612  0.2483 -0.3587
31325SOL     OW96416   7.183   6.184   9.675  0.7083 -0.0028 -0.3971
31325SOL    HW196417   7.165   6.202   9.583 -0.3359 -1.9400 -0.6326
31325SOL    HW296418   7.138   6.254   9.722  0.9750  0.8257 -1.3411
31326SOL     OW96419   2.053  10.071   7.004 -0.5411 -0.4819 -0.0181
31326SOL    HW196420   2.096   9.991   7.036 -0.8666 -0.5334  0.3056
31326SOL    HW296421   2.096  10.142   7.051 -0.3930 -0.4848 -0.1505
31327SOL     OW96422   5.864   1.940   1.828 -0.4144 -0.3625  0.0356
31327SOL    HW196423   5.864   1.878   1.756  0.7613 -0.3044 -0.0337
31327SOL    HW296424   5.938   1.913   1.883  0.2022  1.0361 -0.0659
31328SOL     OW96425   7.922   0.893   9.489  0.6417 -0.5570  0.2890
31328SOL    HW196426   7.960   0.856   9.569  0.4272  1.1759  1.2495
31328SOL    HW296427   7.974   0.971   9.472  0.9851 -1.1421 -1.5858
31329SOL     OW96428   7.254   7.971   0.371  0.2057 -0.1747 -0.3074
31329SOL    HW196429   7.315   7.898   0.368 -1.5411 -1.6793 -0.9027
31329SOL    HW296430   7.221   7.979   0.282  1.2870  2.2364 -0.5766
31330SOL     OW96431   7.711   0.849   3.168 -0.0856 -0.0262  0.1543
31330SOL    HW196432   7.725   0.919   3.232  2.2595 -1.9966  1.9949
31330SOL    HW296433   7.622   0.818   3.186  0.7352 -0.9940  3.1307
31331SOL     OW96434   0.049   7.543   8.826  0.0291  0.4101 -0.0415
31331SOL    HW196435   0.075   7.451   8.829 -2.2670 -0.2935  0.5229
31331SOL    HW296436   0.026   7.565   8.917 -0.0891  1.3370 -0.2814
31332SOL     OW96437  10.270   4.707   4.026 -0.0107  0.4415 -0.1872
31332SOL    HW196438  10.340   4.713   4.092  0.7000 -3.3824 -0.3371
31332SOL    HW296439  10.315   4.715   3.942 -0.1168  0.3107 -0.2568
31333SOL     OW96440   6.807   1.698   2.476  0.2001 -0.6776  0.3724
31333SOL    HW196441   6.885   1.754   2.474  0.5120 -1.1109  0.0336
31333SOL    HW296442   6.754   1.729   2.403 -0.5143  0.3971  1.3186
31334SOL     OW96443   9.931   6.808   2.469  0.4417  0.0548 -0.3935
31334SOL    HW196444   9.861   6.835   2.409  0.6228  0.4360 -0.4342
31334SOL    HW296445   9.984   6.748   2.418 -0.0974 -0.5728 -0.2283
31335SOL     OW96446   8.384   2.239   3.159  0.3088  0.4392 -0.0208
31335SOL    HW196447   8.346   2.292   3.088  1.0545  1.0841  0.0530
31335SOL    HW296448   8.467   2.281   3.178  0.8223 -0.6417  0.1918
31336SOL     OW96449   0.069   6.663   1.184 -0.3808 -0.6114 -0.7340
31336SOL    HW196450   0.084   6.588   1.242  1.9777  1.6867  1.9569
31336SOL    HW296451  -0.010   6.705   1.219 -0.5144 -0.7046 -0.9225
31337SOL     OW96452   4.809   9.801   2.274  0.1005 -0.1338 -0.1296
31337SOL    HW196453   4.858   9.876   2.239 -1.4862  0.9987 -0.0414
31337SOL    HW296454   4.743   9.841   2.330 -0.5598 -1.6471  0.2001
31338SOL     OW96455   6.561  10.283   5.528 -0.3410 -0.1540 -0.6181
31338SOL    HW196456   6.564  10.244   5.615  0.7075 -1.5114 -1.2268
31338SOL    HW296457   6.472  10.267   5.497 -0.5611 -0.1325 -0.0101
31339SOL     OW96458   1.215   5.104   8.313 -0.0592  0.3097  0.3684
31339SOL    HW196459   1.208   5.145   8.227  0.6771 -0.3703 -0.0253
31339SOL    HW296460   1.303   5.067   8.315 -0.3533 -0.3692  1.1060
31340SOL     OW96461   0.944   8.381   5.776 -0.2152  0.0162 -0.2631
31340SOL    HW196462   0.913   8.433   5.702  0.9890  2.1201  0.6189
31340SOL    HW296463   1.039   8.385   5.771 -0.0995 -1.0671  0.5860
31341SOL     OW96464   8.850   6.498   8.743  0.3615  0.2826  0.0443
31341SOL    HW196465   8.785   6.568   8.754 -0.9228 -0.9443  0.5191
31341SOL    HW296466   8.931   6.536   8.775 -0.7331  0.9204  2.2374
31342SOL     OW96467   4.737   6.676   4.260  0.5518  0.5945  0.1257
31342SOL    HW196468   4.735   6.582   4.275  0.5228  0.5589 -0.1020
31342SOL    HW296469   4.814   6.691   4.205 -0.4221  0.4843 -1.3225
31343SOL     OW96470   2.192   9.454   6.729 -0.3331 -0.5759  0.3357
31343SOL    HW196471   2.239   9.521   6.679  1.6240 -1.1060  1.3501
31343SOL    HW296472   2.102   9.485   6.732  0.3811  1.7131  0.2527
31344SOL     OW96473   3.828   7.499   5.964  0.3448  0.6115 -0.3555
31344SOL    HW196474   3.862   7.411   5.947  0.9703  0.1903  2.5657
31344SOL    HW296475   3.901   7.557   5.943  0.9092  0.1685  0.3211
31345SOL     OW96476   0.867   7.780   1.519 -0.0815 -0.3987 -0.2464
31345SOL    HW196477   0.815   7.860   1.511 -1.0906 -0.9944  0.2026
31345SOL    HW296478   0.922   7.780   1.440 -0.4465  0.4598 -0.5200
31346SOL     OW96479   7.036   4.879   2.956 -0.2911 -0.2630  0.3971
31346SOL    HW196480   6.990   4.955   2.992  0.6143 -0.1418  1.3571
31346SOL    HW296481   7.123   4.882   2.997 -0.3378 -1.9750  0.7000
31347SOL     OW96482   9.548   3.357   7.929 -0.5616  0.1566  0.2478
31347SOL    HW196483   9.602   3.414   7.984  0.9581 -0.4071 -0.6037
31347SOL    HW296484   9.541   3.404   7.846 -0.0252 -0.5009 -0.1728
31348SOL     OW96485   1.606  10.085   2.774 -0.1259  0.5340  0.7041
31348SOL    HW196486   1.605   9.989   2.774 -1.5456  0.5092 -0.5150
31348SOL    HW296487   1.528  10.109   2.823  0.4451  1.0826  1.3502
31349SOL     OW96488   6.981   9.363   3.391 -0.1966  0.2156  0.3701
31349SOL    HW196489   7.028   9.280   3.376  1.1444  0.8662  0.7683
31349SOL    HW296490   7.047   9.421   3.430 -0.9526  1.6587 -0.4123
31350SOL     OW96491   8.992   1.650   3.302 -0.6989  0.2196 -0.8036
31350SOL    HW196492   9.029   1.644   3.390  0.6708 -1.2063 -1.4361
31350SOL    HW296493   8.905   1.611   3.310 -1.3658  1.8167  0.2802
31351SOL     OW96494   8.861   1.647  10.319  0.4144  0.3535  0.0658
31351SOL    HW196495   8.822   1.604  10.243  0.6103  1.0797 -0.4693
31351SOL    HW296496   8.953   1.658  10.295  0.2080  1.8031 -0.1973
31352SOL     OW96497   5.702  10.198   7.491 -0.5030  0.3189 -0.5163
31352SOL    HW196498   5.737  10.241   7.413  1.4105  0.7395  0.5027
31352SOL    HW296499   5.641  10.262   7.528 -1.3585  0.1489 -1.5936
31353SOL     OW96500   6.439   2.198   8.866  0.2441 -0.3116 -0.0785
31353SOL    HW196501   6.394   2.186   8.950 -0.4137 -0.1540 -0.4002
31353SOL    HW296502   6.380   2.253   8.815  1.0770  0.3820 -0.3072
31354SOL     OW96503   7.530   2.443   0.439 -0.1102 -0.1138 -0.1218
31354SOL    HW196504   7.478   2.409   0.512  0.6573 -0.9427  0.0610
31354SOL    HW296505   7.525   2.374   0.372  0.3571  0.0053 -0.2805
31355SOL     OW96506   6.437   2.029   2.077 -0.1942  1.1426  0.3589
31355SOL    HW196507   6.514   2.027   2.133  1.3049  0.9723 -1.6164
31355SOL    HW296508   6.408   2.120   2.079 -0.0604  1.1773  1.2233
31356SOL     OW96509   8.052   4.133   7.547 -0.2238 -0.4012 -0.4643
31356SOL    HW196510   8.069   4.039   7.559 -1.6225 -0.5198  0.9470
31356SOL    HW296511   7.971   4.135   7.497 -0.8050  0.0197  0.4684
31357SOL     OW96512   5.558   5.901   1.162  0.1140  0.5774  0.0158
31357SOL    HW196513   5.549   5.943   1.247  3.2859  1.8195 -0.1333
31357SOL    HW296514   5.549   5.972   1.098  0.4243  0.1337 -0.5390
31358SOL     OW96515   7.209   3.304   6.783  0.2320 -0.3865  0.8707
31358SOL    HW196516   7.266   3.339   6.853  2.4131  0.8845 -1.3858
31358SOL    HW296517   7.265   3.302   6.706 -2.7025  0.5297 -1.4389
31359SOL     OW96518   1.326   6.372   5.076 -0.2383 -0.5345  0.5161
31359SOL    HW196519   1.309   6.465   5.062 -1.3790 -0.8247 -0.1714
31359SOL    HW296520   1.267   6.347   5.147 -0.2499 -0.8273  0.4045
31360SOL     OW96521   4.877   7.744   3.008 -0.1621  0.9786  0.1134
31360SOL    HW196522   4.873   7.650   2.992  0.4537  1.3021 -2.5302
31360SOL    HW296523   4.921   7.753   3.092 -1.2740 -1.0836  0.9850
31361SOL     OW96524   1.232   6.211   6.446 -0.1521 -0.0480 -0.0430
31361SOL    HW196525   1.192   6.148   6.506 -0.9365 -0.9058 -1.4140
31361SOL    HW296526   1.198   6.187   6.360  0.7533  1.2976 -0.8102
31362SOL     OW96527   0.188   2.548   8.907 -0.5586 -0.0111  0.4026
31362SOL    HW196528   0.158   2.554   8.817  1.1804 -0.7509 -0.2701
31362SOL    HW296529   0.230   2.632   8.924 -1.5352  0.4137  0.8043
31363SOL     OW96530   1.646   1.141   4.123  0.3491 -0.2274 -0.3434
31363SOL    HW196531   1.734   1.173   4.105  0.5746 -0.6115  0.0588
31363SOL    HW296532   1.652   1.046   4.111 -0.2613 -0.1517 -1.3244
31364SOL     OW96533  10.248   7.991  10.080  0.4182 -0.4136 -0.3833
31364SOL    HW196534  10.169   7.986  10.027  0.4309  0.3737 -0.4915
31364SOL    HW296535  10.219   7.974  10.169  0.1576 -0.3371 -0.4541
31365SOL     OW96536   7.218   6.471   0.098 -0.0898  0.4862 -0.4901
31365SOL    HW196537   7.236   6.429   0.013  0.4550 -1.7694  0.6652
31365SOL    HW296538   7.196   6.562   0.075 -2.0766 -0.5305 -3.2173
31366SOL     OW96539   2.273   6.044   0.930  0.0534  0.3867 -0.2990
31366SOL    HW196540   2.272   5.985   1.005  1.0350  0.6842 -0.0370
31366SOL    HW296541   2.353   6.095   0.940  0.0292  0.6727 -1.3726
31367SOL     OW96542   9.705   0.587   7.272  0.5787  0.0260 -0.1919
31367SOL    HW196543   9.800   0.585   7.256  0.7473 -0.1770  0.7526
31367SOL    HW296544   9.666   0.569   7.187  1.3788  0.5330 -0.6805
31368SOL     OW96545   6.586   0.998   8.937 -0.7664  0.5979 -0.2152
31368SOL    HW196546   6.524   1.009   9.009 -1.3939  1.0592 -0.8190
31368SOL    HW296547   6.631   1.082   8.931 -0.4444  0.4348 -0.1200
31369SOL     OW96548   7.577   8.852   5.589 -0.0598 -0.2876  0.2272
31369SOL    HW196549   7.595   8.942   5.616  0.4421 -0.3925  0.2548
31369SOL    HW296550   7.532   8.813   5.664  2.0442 -0.8185  1.2997
31370SOL     OW96551   8.037   9.987   1.884 -0.1101 -0.2563  0.1833
31370SOL    HW196552   8.029   9.910   1.942 -0.1149 -0.1094  0.3785
31370SOL    HW296553   8.073  10.055   1.941 -0.4795 -0.0004  0.1096
31371SOL     OW96554   2.995   7.942   6.503 -0.3087 -0.3473  0.0333
31371SOL    HW196555   3.030   7.881   6.438 -1.8824  1.1604 -2.3760
31371SOL    HW296556   2.910   7.905   6.527 -1.8518  1.3458 -2.3850
31372SOL     OW96557  10.353   5.515  10.299  0.1030  0.1249 -0.4931
31372SOL    HW196558  10.424   5.579  10.289 -0.8433  1.0317 -1.8602
31372SOL    HW296559  10.313   5.536  10.383 -1.1601  2.4526 -1.5702
31373SOL     OW96560   7.042   6.796   1.732 -0.6378  0.2478  0.1671
31373SOL    HW196561   7.060   6.854   1.806  0.9471 -0.2928  0.2333
31373SOL    HW296562   7.112   6.813   1.670 -0.9424 -0.5935 -0.4254
31374SOL     OW96563   2.002   1.906   9.768 -0.0768 -0.2671  0.6509
31374SOL    HW196564   1.907   1.891   9.768 -0.0275 -0.6159  0.2355
31374SOL    HW296565   2.016   1.964   9.693 -0.1742  1.2849  1.8011
31375SOL     OW96566   6.723  10.466   9.346 -0.2600 -0.1499  0.3018
31375SOL    HW196567   6.769  10.488   9.265 -0.4684 -0.2656  0.1511
31375SOL    HW296568   6.644  10.520   9.343 -0.1661  0.0004  0.5280
31376SOL     OW96569   5.313   5.945   4.180 -0.3336  0.1015  0.4579
31376SOL    HW196570   5.343   5.877   4.241 -0.6288  0.8856  1.5012
31376SOL    HW296571   5.282   5.896   4.103  1.4318 -0.8399  0.2802
31377SOL     OW96572   9.044   4.619   1.085 -0.1474 -0.0391  0.3910
31377SOL    HW196573   9.037   4.712   1.065  1.0862 -0.3609 -1.8526
31377SOL    HW296574   8.971   4.578   1.039  0.4399 -0.3646 -0.2782
31378SOL     OW96575   2.317   2.650   7.580  0.0300  0.7719 -0.3644
31378SOL    HW196576   2.242   2.629   7.523  0.0822  0.1045 -0.1933
31378SOL    HW296577   2.322   2.577   7.641  0.9484  0.7112 -0.5016
31379SOL     OW96578   2.171   1.400   7.646 -0.2973 -0.2535  0.1169
31379SOL    HW196579   2.264   1.418   7.636 -0.4000  0.3338  0.1437
31379SOL    HW296580   2.129   1.485   7.632 -0.9503 -0.7907 -1.4650
31380SOL     OW96581   8.704   5.928   7.056  0.4914  0.2888  0.0199
31380SOL    HW196582   8.619   5.960   7.088  0.2377  0.5072 -0.8655
31380SOL    HW296583   8.700   5.939   6.961  1.6625  0.6422  0.0034
31381SOL     OW96584   8.553   2.474   7.827 -0.0078 -0.1233 -0.4354
31381SOL    HW196585   8.568   2.423   7.748 -0.4251 -1.7260  0.4821
31381SOL    HW296586   8.469   2.444   7.861  0.4990 -0.0190  1.0095
31382SOL     OW96587   3.591   8.704   9.592 -0.0773 -0.6224 -0.1699
31382SOL    HW196588   3.575   8.722   9.500 -0.3405 -0.5928 -0.1189
31382SOL    HW296589   3.686   8.714   9.602  0.0442 -1.3349 -0.5885
31383SOL     OW96590   8.399  10.368   6.232  0.3958  0.4628 -0.1048
31383SOL    HW196591   8.348  10.448   6.249 -1.8120 -1.2859  2.1956
31383SOL    HW296592   8.406  10.364   6.137 -1.7900  2.0338 -0.4135
31384SOL     OW96593   5.836   4.228   7.738  0.2181 -0.4188 -0.0560
31384SOL    HW196594   5.765   4.209   7.799 -0.6903 -0.0411 -0.9673
31384SOL    HW296595   5.825   4.163   7.668  0.0177  0.4013 -0.8024
31385SOL     OW96596   2.226   6.018   1.233  0.7662  0.1559  0.2582
31385SOL    HW196597   2.157   5.966   1.275 -0.1363 -1.5267 -2.9719
31385SOL    HW296598   2.192   6.108   1.232  0.2161 -0.0137  1.7359
31386SOL     OW96599   8.561  10.080   2.367 -0.1487  0.3235 -0.0193
31386SOL    HW196600   8.526  10.152   2.314  0.7259 -0.0268 -1.1141
31386SOL    HW296601   8.489  10.017   2.372 -0.2853  0.4101 -0.7222
31387SOL     OW96602   2.471   8.477   6.380  0.3146 -0.2212  0.3438
31387SOL    HW196603   2.496   8.425   6.303  0.4279  0.6076 -0.1962
31387SOL    HW296604   2.495   8.422   6.454 -0.7530 -1.4765 -0.2090
31388SOL     OW96605   9.115   5.547   4.272  0.1659 -0.0857 -0.0696
31388SOL    HW196606   9.091   5.639   4.282  1.6046  0.4086 -0.8791
31388SOL    HW296607   9.044   5.509   4.221  1.0486  1.3671 -2.5374
31389SOL     OW96608  10.336   1.772   5.050 -0.2226 -0.2638 -0.1589
31389SOL    HW196609  10.400   1.719   5.097 -1.2141 -0.7881  0.6361
31389SOL    HW296610  10.339   1.858   5.093 -1.5571 -0.9091  1.3591
31390SOL     OW96611   3.030   3.838   6.185  0.1879 -0.1069  0.6938
31390SOL    HW196612   3.057   3.831   6.094 -0.5383  0.8177  0.3874
31390SOL    HW296613   3.030   3.748   6.218  1.2974 -0.3527  0.0402
31391SOL     OW96614   2.383   8.548   2.774  0.1949 -0.0101  0.0781
31391SOL    HW196615   2.427   8.633   2.764  1.9357 -0.7416  1.0154
31391SOL    HW296616   2.385   8.532   2.868 -2.1999 -0.0894  0.1751
31392SOL     OW96617   0.369   2.301   7.880  0.4724 -0.2642 -0.3319
31392SOL    HW196618   0.372   2.266   7.791 -0.1063 -1.0968 -0.0437
31392SOL    HW296619   0.293   2.359   7.881 -0.0801 -0.9750 -0.1453
31393SOL     OW96620   4.869   9.755   6.149 -0.1015 -0.0598  0.3682
31393SOL    HW196621   4.851   9.664   6.125 -0.1057  0.5103 -2.0707
31393SOL    HW296622   4.782   9.794   6.164 -0.1604 -0.2173  0.4334
31394SOL     OW96623   6.888   3.458   5.597 -0.8552  0.8076  0.2262
31394SOL    HW196624   6.900   3.420   5.684  0.9730  2.7115  0.8997
31394SOL    HW296625   6.963   3.428   5.546 -1.3004  0.6456 -0.3469
31395SOL     OW96626   9.248   3.465   7.968  0.1990 -0.5090 -0.4359
31395SOL    HW196627   9.287   3.455   8.054  2.0278 -0.7764 -1.2635
31395SOL    HW296628   9.227   3.375   7.940  1.7520 -0.6563 -1.2025
31396SOL     OW96629   5.152   7.572   5.210  0.5079  0.2767 -0.1939
31396SOL    HW196630   5.066   7.546   5.177 -0.5277  1.7367  1.2227
31396SOL    HW296631   5.209   7.570   5.133 -1.0602  0.4747 -1.4097
31397SOL     OW96632   4.704   8.103   1.706 -0.2823 -0.2173 -0.1808
31397SOL    HW196633   4.781   8.046   1.714  0.2350  0.4453 -0.2638
31397SOL    HW296634   4.679   8.121   1.797 -0.5964 -0.7676 -0.1566
31398SOL     OW96635   1.649   2.330   3.164 -0.1819  0.4827 -0.3779
31398SOL    HW196636   1.561   2.367   3.172 -0.3603 -0.2546  1.4284
31398SOL    HW296637   1.637   2.253   3.109 -0.8397 -0.0876  0.5350
31399SOL     OW96638   6.515   8.796   1.591 -0.3109 -0.1828 -0.3607
31399SOL    HW196639   6.484   8.712   1.626 -1.6561  0.7601  0.8181
31399SOL    HW296640   6.610   8.792   1.601 -0.4267 -1.2160  0.5353
31400SOL     OW96641   8.781   4.409   2.011 -0.2667 -0.4101 -0.2832
31400SOL    HW196642   8.836   4.351   2.065 -2.0462 -1.2373  0.7565
31400SOL    HW296643   8.832   4.489   2.002  1.3229 -1.3254  0.1670
31401SOL     OW96644   5.494   5.831   8.646 -0.1998  0.2853 -0.4175
31401SOL    HW196645   5.490   5.828   8.551  0.4067  0.6358 -0.4634
31401SOL    HW296646   5.426   5.893   8.671  2.5135  3.8263 -0.9534
31402SOL     OW96647   1.682   4.628   8.304  0.1640  0.1179  0.6479
31402SOL    HW196648   1.648   4.668   8.224  1.3250  0.6626  0.4157
31402SOL    HW296649   1.705   4.539   8.278 -0.3192 -0.0003  0.6121
31403SOL     OW96650  10.297   0.101   7.154  0.0704 -0.2713 -0.8011
31403SOL    HW196651  10.214   0.148   7.145  1.0675  1.7971  0.0264
31403SOL    HW296652  10.308   0.088   7.248  0.0997 -1.7028 -0.9830
31404SOL     OW96653   2.727   1.580   6.403  0.4371  0.0926 -0.1609
31404SOL    HW196654   2.702   1.673   6.398  0.6978  0.2182  0.8312
31404SOL    HW296655   2.716   1.549   6.313 -1.6806  0.5694 -0.1245
31405SOL     OW96656   0.750   1.242   9.718  1.0754  0.1674 -0.5277
31405SOL    HW196657   0.762   1.149   9.735  2.5447  0.6914  1.9635
31405SOL    HW296658   0.839   1.276   9.709  0.7232  1.6465  0.9765
31406SOL     OW96659   9.691   8.762   2.067 -0.2862 -0.1974  0.8071
31406SOL    HW196660   9.769   8.815   2.052  0.0084 -0.0195  2.7071
31406SOL    HW296661   9.645   8.762   1.983  1.5297  0.0387 -0.2422
31407SOL     OW96662   7.908   0.959   4.957 -0.2335  0.1495 -0.4968
31407SOL    HW196663   7.992   0.917   4.936 -0.7548 -0.6180 -1.0877
31407SOL    HW296664   7.887   1.011   4.880 -1.2718 -1.2507 -1.1877
31408SOL     OW96665   0.131   8.744   2.030 -0.4250 -0.0776  0.5761
31408SOL    HW196666   0.068   8.706   2.091  0.0645 -2.2953 -0.1948
31408SOL    HW296667   0.081   8.810   1.982 -1.5744 -0.3226  1.3879
31409SOL     OW96668   6.839   6.013   0.625  0.4599 -0.2281 -0.1723
31409SOL    HW196669   6.866   6.007   0.534 -2.0284 -0.7020 -0.9566
31409SOL    HW296670   6.823   5.923   0.652 -0.1135  0.0040  0.3008
31410SOL     OW96671   3.823   8.084   4.072 -0.2994  0.3704  0.8046
31410SOL    HW196672   3.857   8.008   4.024  0.9117  1.6106 -0.3897
31410SOL    HW296673   3.735   8.097   4.034  0.1016  0.4966 -0.1160
31411SOL     OW96674   4.664   5.382   7.611 -0.0325  0.0005  0.3417
31411SOL    HW196675   4.693   5.380   7.520 -2.6068  1.8410 -0.6511
31411SOL    HW296676   4.674   5.473   7.638 -4.0984  0.7471  0.0140
31412SOL     OW96677   5.059   1.663   6.697 -0.8132  0.3610  0.1341
31412SOL    HW196678   5.037   1.575   6.666  1.4405  0.0957 -0.9645
31412SOL    HW296679   5.130   1.650   6.760 -1.6449  1.3034  1.3159
31413SOL     OW96680   7.488   4.016   9.560 -0.3422 -0.1399 -0.0781
31413SOL    HW196681   7.576   4.053   9.550 -0.2189 -0.0220  1.2433
31413SOL    HW296682   7.483   3.992   9.652 -0.8846 -2.2509 -0.6111
31414SOL     OW96683   9.103   9.295   9.412 -0.1400  0.0412  0.1934
31414SOL    HW196684   9.063   9.373   9.451 -0.3044  1.4181 -2.4805
31414SOL    HW296685   9.042   9.224   9.430 -0.5591  0.7506  1.6891
31415SOL     OW96686   1.053   7.958   0.981 -0.3492 -0.8410 -0.3152
31415SOL    HW196687   1.031   7.911   0.901 -0.3083 -1.0891 -0.1816
31415SOL    HW296688   1.071   7.889   1.045  0.2919 -0.6421 -0.2755
31416SOL     OW96689  10.294   2.028   5.161 -0.2025 -0.0778  0.6696
31416SOL    HW196690  10.313   2.106   5.213  0.2503 -0.5905  1.2883
31416SOL    HW296691  10.215   1.990   5.200 -0.0906 -0.2442  0.7366
31417SOL     OW96692   7.090   3.636   9.690 -0.2410 -0.3664  0.2815
31417SOL    HW196693   7.175   3.594   9.702 -0.4986 -0.8636  0.3750
31417SOL    HW296694   7.087   3.658   9.597 -0.0793 -0.5027  0.2435
31418SOL     OW96695   7.877   5.141   4.637 -0.2621 -0.3812 -0.5588
31418SOL    HW196696   7.872   5.053   4.601 -1.8356 -1.1830  1.4496
31418SOL    HW296697   7.786   5.169   4.646  0.1917  1.4331 -1.0278
31419SOL     OW96698   2.489   0.762   6.195 -0.3110  0.2782  0.2985
31419SOL    HW196699   2.536   0.845   6.193  1.0579 -0.5032 -1.2308
31419SOL    HW296700   2.489   0.737   6.288  0.2111  1.4292  0.6242
31420SOL     OW96701   9.300   5.245   6.171  0.6240  0.0502 -0.2086
31420SOL    HW196702   9.344   5.223   6.089  0.7921 -1.9358  0.3627
31420SOL    HW296703   9.336   5.331   6.196  1.6105  0.0275 -1.4835
31421SOL     OW96704   0.837   2.284   3.590  0.5696 -0.3305 -0.0329
31421SOL    HW196705   0.864   2.199   3.555 -0.6113 -1.6791  2.1557
31421SOL    HW296706   0.786   2.263   3.668  0.3964  2.4142  0.6858
31422SOL     OW96707   1.204   3.413   9.104 -0.6716  0.5135 -0.1055
31422SOL    HW196708   1.173   3.481   9.164 -0.8147  0.5733 -0.2462
31422SOL    HW296709   1.144   3.340   9.118 -1.2255  0.8265 -0.7730
31423SOL     OW96710  10.147   8.701   6.501 -0.1850  0.3497 -0.0640
31423SOL    HW196711  10.093   8.622   6.496  0.0511  0.1694  0.2838
31423SOL    HW296712  10.206   8.695   6.426 -0.2991  0.2947 -0.1496
31424SOL     OW96713   5.099   0.913   8.672 -0.3439 -0.2650 -0.3179
31424SOL    HW196714   5.029   0.974   8.649 -0.2030  0.4149  0.9471
31424SOL    HW296715   5.055   0.842   8.718 -0.3407 -0.4489 -0.5943
31425SOL     OW96716   5.649   8.405   6.254  0.4882 -0.1201 -0.1284
31425SOL    HW196717   5.580   8.453   6.301 -1.2393 -1.2128 -1.4151
31425SOL    HW296718   5.685   8.345   6.319  0.8932  1.0872  0.8044
31426SOL     OW96719   2.508   4.059   4.998 -0.2041 -0.0859  0.5706
31426SOL    HW196720   2.465   4.088   4.918 -0.0404 -1.2429  0.0428
31426SOL    HW296721   2.437   4.049   5.061 -0.5184 -0.4765  0.1640
31427SOL     OW96722   6.752   2.214   0.704  0.3879  0.1335  0.3138
31427SOL    HW196723   6.710   2.213   0.618  0.2639  0.9085  0.3568
31427SOL    HW296724   6.789   2.126   0.714 -1.4784 -0.6862  0.4065
31428SOL     OW96725   8.200   3.216   5.107  0.0909  0.2342  0.0939
31428SOL    HW196726   8.118   3.168   5.118  0.5664 -0.3377  1.3846
31428SOL    HW296727   8.266   3.158   5.146  1.1021  0.7074 -0.8646
31429SOL     OW96728   7.656   4.920   8.693 -0.4107  0.9070  0.3568
31429SOL    HW196729   7.730   4.861   8.688  0.1114  1.4833  1.1186
31429SOL    HW296730   7.606   4.903   8.613  1.2139  1.3956 -0.8110
31430SOL     OW96731   3.984   9.603   1.202 -0.2857  0.1788 -0.3197
31430SOL    HW196732   4.076   9.594   1.175 -0.6861  0.7875 -1.9827
31430SOL    HW296733   3.980   9.688   1.245  0.3143 -0.7171  1.6690
31431SOL     OW96734   3.111   2.679   4.676 -0.0685  0.6146 -0.0801
31431SOL    HW196735   3.042   2.722   4.726 -0.3268  0.1591 -0.0331
31431SOL    HW296736   3.133   2.601   4.728 -0.3997  0.0900 -0.7070
31432SOL     OW96737   9.603   6.154   5.952  0.6096 -0.0616 -0.1146
31432SOL    HW196738   9.585   6.217   6.023 -1.3207 -0.2685 -0.3765
31432SOL    HW296739   9.695   6.169   5.931  0.6393  1.5663  0.9271
31433SOL     OW96740   6.489  10.416   4.608 -0.2442  0.1879  0.3236
31433SOL    HW196741   6.543  10.431   4.686  0.8928 -0.4478 -0.3088
31433SOL    HW296742   6.446  10.500   4.592  1.9094  1.2720 -0.1471
31434SOL     OW96743   9.214   3.707   2.832 -0.6698  0.0737  0.1479
31434SOL    HW196744   9.279   3.682   2.897  0.0675  0.3802 -0.4664
31434SOL    HW296745   9.130   3.702   2.879 -0.2703 -0.8671  0.7879
31435SOL     OW96746   8.568   4.438   2.463 -0.4224  0.0402 -0.6656
31435SOL    HW196747   8.593   4.359   2.417 -0.4394  0.4949 -1.4676
31435SOL    HW296748   8.473   4.441   2.457 -0.4575 -0.0980 -0.2544
31436SOL     OW96749   1.658   3.481   5.382 -0.7019  0.5038  0.2141
31436SOL    HW196750   1.652   3.557   5.325 -1.1878  0.9172  0.8141
31436SOL    HW296751   1.622   3.510   5.466 -2.2884 -0.8012  0.0310
31437SOL     OW96752   5.401   0.662   0.248  0.1109  0.1317 -0.0748
31437SOL    HW196753   5.318   0.678   0.203 -0.0776  0.2531  0.3175
31437SOL    HW296754   5.388   0.578   0.292  1.5097 -1.8996 -3.1476
31438SOL     OW96755   9.553   9.673   2.528  0.0377 -0.1212 -0.0080
31438SOL    HW196756   9.485   9.708   2.470 -0.9466 -0.5628  0.8554
31438SOL    HW296757   9.506   9.616   2.589  1.3138 -1.2597 -0.0337
31439SOL     OW96758   2.415   3.340  10.366  0.4450 -0.6423  0.6724
31439SOL    HW196759   2.328   3.378  10.352  0.0881 -0.5476  2.8202
31439SOL    HW296760   2.461   3.356  10.284 -1.3081 -0.0182 -0.2532
31440SOL     OW96761   4.313   2.819   9.476  0.2488 -0.3009  0.4802
31440SOL    HW196762   4.360   2.862   9.548 -1.5822  2.1362  0.3277
31440SOL    HW296763   4.377   2.816   9.405  0.8562  1.0190  0.9339
31441SOL     OW96764   2.223   4.406   0.165 -0.1000  0.2841 -0.1260
31441SOL    HW196765   2.282   4.447   0.229  0.7256  0.8771 -1.2322
31441SOL    HW296766   2.257   4.317   0.155 -1.1337 -0.3163  1.3377
31442SOL     OW96767  10.044   2.869   7.817  0.1131  0.0987  0.1992
31442SOL    HW196768  10.046   2.859   7.912 -1.0815 -2.3115  0.0512
31442SOL    HW296769   9.954   2.847   7.793  0.5876 -0.0338 -1.5494
31443SOL     OW96770   3.611   7.867   2.659  0.0225  0.4909  0.7121
31443SOL    HW196771   3.541   7.809   2.629 -0.9874  1.8880  0.2806
31443SOL    HW296772   3.691   7.816   2.646 -0.7790 -0.6203 -0.1125
31444SOL     OW96773   4.029   2.577   4.999 -0.1309 -0.5643  0.1098
31444SOL    HW196774   4.003   2.627   5.076  0.3650  0.9305 -0.6490
31444SOL    HW296775   4.039   2.487   5.030 -1.1173 -0.2194  1.5121
31445SOL     OW96776   1.125   1.161   2.936  0.1077 -1.0288  0.3386
31445SOL    HW196777   1.208   1.130   2.898  0.7525 -0.6619  1.3899
31445SOL    HW296778   1.111   1.247   2.898  1.2842 -0.2185  1.6324
31446SOL     OW96779   6.031   1.378   7.868  0.7199 -0.0203  0.7343
31446SOL    HW196780   6.054   1.414   7.953 -0.3141 -0.7616  1.3625
31446SOL    HW296781   5.990   1.450   7.821  0.9952  0.3035  0.9895
31447SOL     OW96782   2.738   6.828  10.020  0.6345 -0.6473  1.2636
31447SOL    HW196783   2.813   6.844   9.963  0.7004 -0.1105  1.4864
31447SOL    HW296784   2.672   6.891   9.991  0.0535 -1.4844  0.7073
31448SOL     OW96785   7.425   0.379   2.072  0.0805  0.0788  0.1132
31448SOL    HW196786   7.462   0.307   2.124  1.4039  1.4991  1.2115
31448SOL    HW296787   7.485   0.387   1.997 -1.8010 -1.9400 -1.7778
31449SOL     OW96788   1.985   7.767   3.100 -0.4278  0.1697 -0.6596
31449SOL    HW196789   2.047   7.818   3.048  1.2144 -0.6659  0.3869
31449SOL    HW296790   2.039   7.699   3.141 -2.1300 -0.8672 -0.0524
31450SOL     OW96791   8.215   0.774   3.980  0.1547  0.0753 -0.3181
31450SOL    HW196792   8.271   0.698   3.995  1.7200  1.5960  2.2887
31450SOL    HW296793   8.129   0.737   3.959  1.8695 -2.3612 -4.2624
31451SOL     OW96794   4.121   5.351   3.504 -0.4150 -0.3616  0.3326
31451SOL    HW196795   4.031   5.348   3.539 -0.5584 -2.0372 -0.0897
31451SOL    HW296796   4.133   5.441   3.476 -1.6637  0.0988  1.1871
31452SOL     OW96797   8.524   1.329   1.088 -0.0845 -0.4064 -0.9163
31452SOL    HW196798   8.599   1.275   1.115  0.7890  1.2762  0.2233
31452SOL    HW296799   8.532   1.334   0.993  2.1229  0.8280 -0.7413
31453SOL     OW96800   8.840   5.377   0.437  0.0880  0.8054  1.0038
31453SOL    HW196801   8.906   5.412   0.498  2.7542 -1.1351 -0.5481
31453SOL    HW296802   8.861   5.418   0.353 -0.7193  0.1842  0.4853
31454SOL     OW96803   2.424  10.016   1.172 -0.1305  0.0776  0.1037
31454SOL    HW196804   2.463   9.978   1.251 -0.7553  2.4698  1.6601
31454SOL    HW296805   2.496  10.061   1.128 -0.0896  0.0111  0.1021
31455SOL     OW96806   8.888   8.527   9.046  0.4955  0.1438  0.0794
31455SOL    HW196807   8.854   8.509   8.958  0.5007 -1.7995  0.4233
31455SOL    HW296808   8.911   8.440   9.080 -0.7267  0.7050  2.4970
31456SOL     OW96809   2.879   4.125   7.163  0.1890 -0.1280  0.1858
31456SOL    HW196810   2.854   4.206   7.119  1.2310 -0.0526 -0.2889
31456SOL    HW296811   2.917   4.070   7.094 -0.8927 -1.2044  0.4081
31457SOL     OW96812   1.819   3.366  10.351  0.3901  0.5444  0.2051
31457SOL    HW196813   1.802   3.272  10.342  0.3259  0.5846 -0.1186
31457SOL    HW296814   1.744   3.408  10.309  1.9563  0.7169 -2.7099
31458SOL     OW96815   0.252   1.899   6.247 -0.3463  0.0036  0.5114
31458SOL    HW196816   0.183   1.833   6.245  1.0564 -1.5288  0.5057
31458SOL    HW296817   0.239   1.946   6.329 -0.3672 -1.4543  1.3773
31459SOL     OW96818   1.238   0.713   6.284  0.3262  0.2606  0.2417
31459SOL    HW196819   1.233   0.784   6.220 -0.6263  1.9919  2.1104
31459SOL    HW296820   1.319   0.666   6.262 -0.2513  0.3981 -2.5171
31460SOL     OW96821  10.123   3.064   5.914 -0.1546  0.4313  0.1349
31460SOL    HW196822  10.091   3.097   5.997 -1.1895  0.1398 -0.1265
31460SOL    HW296823  10.069   2.986   5.897 -1.9922  2.0436 -2.1316
31461SOL     OW96824   8.253   4.957   1.398 -0.0782 -0.2900  0.3334
31461SOL    HW196825   8.236   4.903   1.475  0.1989  0.3641  0.8650
31461SOL    HW296826   8.183   5.022   1.398  1.8132  1.9494  2.1102
31462SOL     OW96827   6.164   7.441   3.843  0.2086  0.0914 -0.7147
31462SOL    HW196828   6.081   7.488   3.845  0.0228 -0.2424 -0.4085
31462SOL    HW296829   6.181   7.417   3.934  0.3819 -0.2886 -0.8439
31463SOL     OW96830   8.512   8.923   5.446  0.0532  0.5787 -0.3468
31463SOL    HW196831   8.588   8.929   5.388  0.8181  0.7417  0.6592
31463SOL    HW296832   8.476   8.836   5.429  0.0989  0.7186 -1.2518
31464SOL     OW96833   0.766   6.965   0.584  0.3485 -0.4204 -0.1304
31464SOL    HW196834   0.793   7.040   0.530 -0.2744 -0.0008  0.1218
31464SOL    HW296835   0.673   6.982   0.603  0.0912 -1.4515 -0.3843
31465SOL     OW96836   8.332   7.363   6.606 -0.0935  0.1163  0.0814
31465SOL    HW196837   8.419   7.327   6.624 -0.5505 -0.6823  0.7242
31465SOL    HW296838   8.296   7.306   6.538 -0.3856  0.0174  0.3160
31466SOL     OW96839   0.569   0.159   5.964 -0.1661  0.4970 -0.2661
31466SOL    HW196840   0.476   0.142   5.946  0.3423 -1.5858 -1.2254
31466SOL    HW296841   0.615   0.087   5.922  1.7893  0.5140  1.6625
31467SOL     OW96842   3.212   2.520   0.637  0.6072 -0.0986  0.0642
31467SOL    HW196843   3.302   2.490   0.651  0.5063 -1.0434 -1.1104
31467SOL    HW296844   3.181   2.468   0.563 -0.7927  0.4708  0.2201
31468SOL     OW96845   2.928   7.487   6.318  0.2087 -0.0425  0.4826
31468SOL    HW196846   2.922   7.395   6.292  2.7064 -0.1702  0.1110
31468SOL    HW296847   2.863   7.496   6.388 -0.5792 -1.8915  0.0699
31469SOL     OW96848   5.860   9.517   0.897 -0.4404  0.2800 -0.1238
31469SOL    HW196849   5.884   9.456   0.966  0.9893 -1.3617 -1.9191
31469SOL    HW296850   5.889   9.603   0.929  1.9170 -0.6976  0.6033
31470SOL     OW96851   2.961   2.024   2.438 -0.3926  0.0945  0.1107
31470SOL    HW196852   3.005   2.050   2.519 -0.0183  0.4244 -0.1934
31470SOL    HW296853   3.032   1.998   2.380 -0.7626 -1.9969  0.5109
31471SOL     OW96854   8.092   8.568   2.874 -0.4287 -0.1543 -0.2195
31471SOL    HW196855   8.048   8.514   2.808  0.3346  0.6229 -1.4038
31471SOL    HW296856   8.149   8.626   2.824  0.2867  0.3779  1.1436
31472SOL     OW96857   9.841   1.477   4.799 -0.1108  0.3342  0.1560
31472SOL    HW196858   9.810   1.396   4.759 -1.3165  0.3103  1.1002
31472SOL    HW296859   9.867   1.532   4.724 -0.5401 -0.4068 -0.5525
31473SOL     OW96860   7.535   4.102   3.250  0.2768  0.0714  0.2932
31473SOL    HW196861   7.498   4.145   3.173  1.3063  2.7017  1.1384
31473SOL    HW296862   7.593   4.035   3.215  1.5279  1.8813 -1.3343
31474SOL     OW96863   8.094   0.283   8.090  0.0257  0.4855 -0.3630
31474SOL    HW196864   8.081   0.325   8.005 -0.3956  1.3758  0.1209
31474SOL    HW296865   8.134   0.198   8.069 -0.5778  0.4531 -1.4719
31475SOL     OW96866   7.451   1.781   7.254  0.2163 -0.2227  0.1752
31475SOL    HW196867   7.358   1.805   7.252  0.3690  0.3492 -0.4102
31475SOL    HW296868   7.479   1.799   7.344 -0.2621 -0.5116  0.3882
31476SOL     OW96869   0.832   1.842   2.535  0.2276 -0.4556 -0.0953
31476SOL    HW196870   0.859   1.842   2.627 -0.9415 -4.5384  0.4299
31476SOL    HW296871   0.908   1.809   2.487  0.6035  1.0369 -0.6164
31477SOL     OW96872   2.176  10.347   4.139  0.5482 -0.3241 -0.2475
31477SOL    HW196873   2.211  10.369   4.225  2.4460  1.8771 -1.4640
31477SOL    HW296874   2.253  10.331   4.085 -0.5668 -1.0664 -1.6889
31478SOL     OW96875   5.300   6.938   0.947 -0.3523  0.3598  0.4849
31478SOL    HW196876   5.291   6.865   0.885  0.3992 -0.1822  0.9812
31478SOL    HW296877   5.323   6.895   1.030  1.4232  1.2121  0.4935
31479SOL     OW96878   5.857   7.278   2.080 -0.2847 -0.3886 -0.4514
31479SOL    HW196879   5.849   7.361   2.128  1.1315 -0.5177  0.0655
31479SOL    HW296880   5.871   7.304   1.989 -2.1667 -0.1269 -0.7061
31480SOL     OW96881   0.711   8.478   3.904 -0.0661 -0.0488  0.4388
31480SOL    HW196882   0.659   8.555   3.929  0.7524  0.0972  1.7993
31480SOL    HW296883   0.762   8.508   3.829 -0.2615  0.5276  0.5255
31481SOL     OW96884   7.894   8.030   0.562  0.2442 -0.2467  0.0473
31481SOL    HW196885   7.960   8.098   0.555  0.4685 -0.4845 -0.1552
31481SOL    HW296886   7.942   7.953   0.591 -0.3168  0.1867  2.3616
31482SOL     OW96887   4.074   6.138   7.776 -0.2133 -0.5050  0.4449
31482SOL    HW196888   4.080   6.084   7.854  0.1321  0.8214  1.3813
31482SOL    HW296889   4.157   6.186   7.773 -0.4856 -0.0525 -0.3706
31483SOL     OW96890  10.261   9.461   1.704  0.5178  0.2183  0.4476
31483SOL    HW196891  10.269   9.481   1.797  0.4927 -0.2270  0.5462
31483SOL    HW296892  10.351   9.447   1.674  0.4429 -0.8589  0.6820
31484SOL     OW96893   4.308   3.302   5.615 -0.3607 -0.7478  0.0994
31484SOL    HW196894   4.336   3.229   5.670  0.5701  0.7108  1.6401
31484SOL    HW296895   4.387   3.353   5.600 -1.0302  0.0851 -0.7635
31485SOL     OW96896   4.861   7.088   6.556 -0.2736  0.3766  0.3340
31485SOL    HW196897   4.838   7.052   6.471  1.3597 -0.4833  0.2260
31485SOL    HW296898   4.956   7.085   6.559 -0.3028  0.0817  2.3249
31486SOL     OW96899   1.598   0.694   3.891  0.5450  0.0473  0.0989
31486SOL    HW196900   1.665   0.702   3.823 -1.0281  1.9926 -1.3504
31486SOL    HW296901   1.569   0.603   3.886 -0.1247  0.3216 -2.5200
31487SOL     OW96902   8.405   0.905  10.113  0.1961  0.0261  0.3341
31487SOL    HW196903   8.484   0.899  10.060  0.0818 -0.0727  0.1719
31487SOL    HW296904   8.404   0.996  10.144  0.6232 -0.1039  0.7380
31488SOL     OW96905   0.649   1.745   1.466  0.2876 -0.2302 -0.1646
31488SOL    HW196906   0.697   1.669   1.500 -1.5242 -1.7648 -0.8868
31488SOL    HW296907   0.589   1.769   1.535  1.0710  0.7991  0.1862
31489SOL     OW96908   9.900   4.551   7.205  0.1145  1.1493  0.4191
31489SOL    HW196909   9.880   4.461   7.178 -0.3158  1.4473 -0.2503
31489SOL    HW296910   9.901   4.547   7.301 -1.9734  0.8644  0.4551
31490SOL     OW96911   8.476   7.270   9.014 -0.5431 -0.3779 -0.1608
31490SOL    HW196912   8.531   7.251   8.938 -2.3949  0.4414 -1.8118
31490SOL    HW296913   8.454   7.363   9.005 -1.8622 -0.5812  0.6408
31491SOL     OW96914   2.660   1.118   5.347 -0.5291 -0.0161 -0.1421
31491SOL    HW196915   2.729   1.054   5.327 -1.8947 -1.7974  0.5971
31491SOL    HW296916   2.652   1.116   5.442  1.5812  3.7498  0.3492
31492SOL     OW96917   2.413   3.400   1.089  0.1358 -0.1533 -0.0721
31492SOL    HW196918   2.412   3.489   1.053 -0.5256 -0.3503 -0.5533
31492SOL    HW296919   2.436   3.344   1.015 -0.7973 -0.5129 -0.1058
31493SOL     OW96920   6.608   8.315   4.824  0.3426  0.1169 -0.0093
31493SOL    HW196921   6.691   8.273   4.799  0.9234  1.5097 -0.5643
31493SOL    HW296922   6.541   8.248   4.808  1.0994 -0.2580 -1.9223
31494SOL     OW96923   8.147   8.168   0.833  0.1418 -0.5752  0.1432
31494SOL    HW196924   8.203   8.233   0.790 -1.0625 -1.3682 -2.9111
31494SOL    HW296925   8.071   8.217   0.864 -1.0493 -0.4263 -2.6698
31495SOL     OW96926   7.664   6.038   5.738 -0.3238  0.0074 -0.1893
31495SOL    HW196927   7.660   6.001   5.649 -0.8977 -0.5055  0.0396
31495SOL    HW296928   7.583   6.087   5.747 -0.1819  0.2087 -0.0128
31496SOL     OW96929   8.876   7.374   9.941  0.3292 -0.0904 -0.4245
31496SOL    HW196930   8.950   7.343   9.993 -1.6371 -2.2693  1.3236
31496SOL    HW296931   8.886   7.331   9.857  1.4166  0.2601 -0.4970
31497SOL     OW96932   7.060   3.630   5.239  0.0526 -0.0360  0.1958
31497SOL    HW196933   7.064   3.706   5.181 -0.0466 -0.9515 -1.0561
31497SOL    HW296934   6.977   3.637   5.284  0.1448  0.7116  0.2509
31498SOL     OW96935   6.185   7.743   5.616 -0.0855  0.6226  0.2015
31498SOL    HW196936   6.126   7.715   5.687 -1.4609 -0.6861 -1.3663
31498SOL    HW296937   6.129   7.794   5.558  0.8016  0.9316 -0.3951
31499SOL     OW96938  10.045   1.166   2.853 -0.3567  0.0479 -0.2280
31499SOL    HW196939  10.071   1.113   2.778  0.2916 -1.6139  1.1146
31499SOL    HW296940   9.972   1.219   2.821 -1.6581 -2.3248 -1.4024
31500SOL     OW96941   2.685   9.122   3.540 -0.1419  0.0321  0.3048
31500SOL    HW196942   2.699   9.196   3.481 -2.0301  1.9578  2.0621
31500SOL    HW296943   2.746   9.055   3.510 -0.0886  1.3452 -2.9383
31501SOL     OW96944   7.861   5.336   8.692  0.3051 -0.4349 -0.4187
31501SOL    HW196945   7.811   5.268   8.736  1.4359 -1.2845 -0.3863
31501SOL    HW296946   7.833   5.331   8.601 -2.2376  1.5079  0.1475
31502SOL     OW96947   9.524   1.139   6.936 -0.7670 -0.1884 -0.0861
31502SOL    HW196948   9.601   1.101   6.978  0.1736  0.0449 -1.5367
31502SOL    HW296949   9.451   1.115   6.993 -0.0769 -3.1703 -0.2929
31503SOL     OW96950   1.815   0.149   7.057  0.3557 -0.1017  0.6380
31503SOL    HW196951   1.792   0.092   6.984 -0.4454  1.2195 -0.1884
31503SOL    HW296952   1.834   0.234   7.017  2.4372  0.0177  1.7410
31504SOL     OW96953  10.018   5.237   7.232  0.1342  0.4321  0.2318
31504SOL    HW196954  10.001   5.154   7.189  0.3494  0.2681  0.4582
31504SOL    HW296955  10.107   5.229   7.266 -0.0765  0.5042  0.8156
31505SOL     OW96956   9.697   6.890   5.401 -0.4836  0.2038  0.0678
31505SOL    HW196957   9.738   6.907   5.485 -0.6374  0.1288  0.1591
31505SOL    HW296958   9.621   6.835   5.422 -0.8052  0.5922 -0.0635
31506SOL     OW96959   9.353   9.262   8.024  0.2131 -0.0403  0.3517
31506SOL    HW196960   9.377   9.246   7.933  0.2517  0.4587  0.2677
31506SOL    HW296961   9.264   9.228   8.032  0.6592 -1.2146  0.4654
31507SOL     OW96962   7.912   0.791   3.408 -0.1768  0.3233  0.4499
31507SOL    HW196963   7.885   0.792   3.316  0.4629 -1.0334  0.2122
31507SOL    HW296964   7.848   0.845   3.453 -0.9372  0.3968 -0.6883
31508SOL     OW96965   9.634   2.854   3.465  0.2305 -0.2804  0.0529
31508SOL    HW196966   9.580   2.924   3.427  0.1025 -0.5760 -0.3231
31508SOL    HW296967   9.709   2.849   3.406  0.4472 -0.1764  0.3201
31509SOL     OW96968   0.210   7.976   5.744  0.1079  0.0063  0.0570
31509SOL    HW196969   0.124   7.987   5.783  0.8466  2.0633  1.2735
31509SOL    HW296970   0.270   7.971   5.818  1.1158 -0.8378 -0.7784
31510SOL     OW96971   8.464   4.072   2.516 -0.2889  0.6781 -0.5005
31510SOL    HW196972   8.485   3.979   2.515  1.2893  0.9828  1.2124
31510SOL    HW296973   8.370   4.075   2.533  0.3382 -0.6332  4.5502
31511SOL     OW96974   1.650   3.770   3.351  0.0048  0.1281  0.0540
31511SOL    HW196975   1.692   3.767   3.437  1.3175 -0.5638 -0.5671
31511SOL    HW296976   1.586   3.840   3.358  1.1375  1.1190  1.1480
31512SOL     OW96977   2.554   4.836   6.869 -0.1580 -0.0745 -0.2355
31512SOL    HW196978   2.534   4.767   6.806  0.5833  0.5400 -1.1748
31512SOL    HW296979   2.497   4.818   6.944  0.4474 -2.0477 -0.2018
31513SOL     OW96980   6.337   7.043   7.416 -0.0030  0.6367  0.2552
31513SOL    HW196981   6.361   7.091   7.336  0.9706 -0.7031 -0.3007
31513SOL    HW296982   6.249   7.075   7.438 -0.7344  0.3205 -1.9485
31514SOL     OW96983   3.887   5.147   8.724 -0.7219 -0.4405  0.3540
31514SOL    HW196984   3.915   5.101   8.645 -2.1512 -0.5809 -0.0989
31514SOL    HW296985   3.929   5.099   8.796 -0.6418 -1.2712 -0.2270
31515SOL     OW96986   4.268   9.026   5.186  0.1675 -0.4737 -0.1559
31515SOL    HW196987   4.173   9.032   5.181  0.1249 -0.6591  0.4052
31515SOL    HW296988   4.290   8.946   5.139 -0.0663 -1.1443  0.8507
31516SOL     OW96989   6.735   3.312   6.149  0.2839 -0.2553  0.5606
31516SOL    HW196990   6.732   3.307   6.244 -1.7264  0.9056  0.6088
31516SOL    HW296991   6.823   3.342   6.129  0.5317  0.0788  2.0877
31517SOL     OW96992   9.790   3.805   2.060 -0.0626  0.0052  0.5062
31517SOL    HW196993   9.730   3.805   2.134 -2.1196 -0.6606 -1.0781
31517SOL    HW296994   9.795   3.896   2.032  1.5844  0.4527  2.0284
31518SOL     OW96995  10.047   3.532   9.136  0.3177  0.5618 -0.4652
31518SOL    HW196996  10.127   3.585   9.141  0.9034 -0.3509  0.0177
31518SOL    HW296997   9.976   3.595   9.153  1.1177  0.8647  2.2689
31519SOL     OW96998   0.368  10.040   1.657  0.2467 -0.6903  0.4039
31519SOL    HW196999   0.282  10.021   1.695 -0.6327  1.2746 -0.4500
31519SOL    HW297000   0.428  10.037   1.731 -0.9412  0.1212  1.4449
31520SOL     OW97001   9.597   5.490   3.650 -0.1505  0.1079  0.7689
31520SOL    HW197002   9.658   5.562   3.633 -1.4176  1.2226  0.8007
31520SOL    HW297003   9.525   5.530   3.697 -1.4064 -0.9519 -0.1684
31521SOL     OW97004   2.609   1.136   9.098  0.4812  0.0316  0.2095
31521SOL    HW197005   2.627   1.222   9.062 -4.3294  1.7930  1.2969
31521SOL    HW297006   2.555   1.093   9.032 -1.8302  0.1932  1.8900
31522SOL     OW97007   5.734   7.401   0.840 -0.1031  0.1837  0.2657
31522SOL    HW197008   5.645   7.370   0.856 -0.2920  1.0095  0.9123
31522SOL    HW297009   5.790   7.338   0.884 -0.5089  1.0806  2.1619
31523SOL     OW97010   3.933   1.877   3.703 -0.0358  0.5512 -0.2163
31523SOL    HW197011   3.985   1.801   3.677 -2.6238 -1.1709 -0.7613
31523SOL    HW297012   3.997   1.939   3.738  2.1314 -2.1736  1.0405
31524SOL     OW97013   3.720   2.389   5.019  0.1182 -0.0497 -0.4169
31524SOL    HW197014   3.682   2.474   4.999 -0.1588  0.0648  0.5350
31524SOL    HW297015   3.797   2.382   4.963 -0.3660  0.4353 -1.1531
31525SOL     OW97016   5.433   5.842   0.656 -0.0336 -0.9706  0.4450
31525SOL    HW197017   5.481   5.799   0.585  1.2898  2.0975 -0.7058
31525SOL    HW297018   5.488   5.827   0.733 -0.1726 -2.2047  0.3273
31526SOL     OW97019   4.745   4.852   1.905 -0.3715 -0.8220  0.1485
31526SOL    HW197020   4.782   4.875   1.820  1.0060  1.0313  1.1894
31526SOL    HW297021   4.743   4.934   1.954  0.0016 -2.0352  2.3312
31527SOL     OW97022   9.182   0.750   0.224  0.2105 -0.1121 -0.3926
31527SOL    HW197023   9.119   0.715   0.161 -1.8784  0.2512  1.3826
31527SOL    HW297024   9.134   0.754   0.306  2.4459  0.6404  0.9646
31528SOL     OW97025   3.804   0.429   4.472  0.2313 -0.0071 -0.1828
31528SOL    HW197026   3.842   0.344   4.448 -0.8180 -0.6782  0.4359
31528SOL    HW297027   3.710   0.412   4.478  0.0892  0.9925  0.7900
31529SOL     OW97028   9.579   2.212   1.156 -0.1236 -0.0838 -0.4754
31529SOL    HW197029   9.661   2.192   1.110  1.2691  2.0207  0.8758
31529SOL    HW297030   9.566   2.138   1.215  0.3874 -0.8040 -1.2491
31530SOL     OW97031   2.253   9.925   9.818 -0.0691  0.6628  0.0108
31530SOL    HW197032   2.263   9.973   9.901 -0.9472  0.5101  0.2195
31530SOL    HW297033   2.158   9.914   9.809  0.0789 -0.2467 -0.4914
31531SOL     OW97034  10.487   9.308  10.065 -0.3431  0.1171 -0.5802
31531SOL    HW197035  10.523   9.239  10.121 -0.6795  1.0538  0.8413
31531SOL    HW297036  10.401   9.276  10.040 -0.7694  0.2762  0.6125
31532SOL     OW97037   5.106   2.116   6.473 -0.3226 -0.0357 -0.0592
31532SOL    HW197038   5.182   2.149   6.520 -0.6468  1.0571 -0.2664
31532SOL    HW297039   5.070   2.193   6.428 -2.1750 -0.2897  0.8955
31533SOL     OW97040   4.814   4.163   1.577  0.3753 -0.0954  0.5779
31533SOL    HW197041   4.815   4.258   1.589  2.0856  0.1430 -1.1151
31533SOL    HW297042   4.750   4.132   1.642 -0.5280  2.2212  0.8955
31534SOL     OW97043   9.167   2.975   3.370 -0.0004 -0.1447  0.3539
31534SOL    HW197044   9.182   2.885   3.343  0.0663  0.7766 -3.2182
31534SOL    HW297045   9.083   2.973   3.416 -0.3530 -1.9603 -0.2949
31535SOL     OW97046   0.820   8.770   1.962  0.4191  0.2386 -0.1559
31535SOL    HW197047   0.860   8.810   1.884  0.1818  0.8627  0.0409
31535SOL    HW297048   0.741   8.822   1.978 -0.1819 -0.6283 -0.2042
31536SOL     OW97049   0.024   9.406   9.075  0.4790 -0.5018 -0.1966
31536SOL    HW197050   0.063   9.445   9.154  0.1109 -1.5398  0.5268
31536SOL    HW297051   0.097   9.398   9.014  1.0234 -0.7067  0.4617
31537SOL     OW97052   6.525   8.188   8.722 -0.3482 -0.2594  0.3376
31537SOL    HW197053   6.525   8.268   8.773  2.5678 -0.3585  0.6889
31537SOL    HW297054   6.574   8.210   8.642  0.5990 -1.6523  0.4851
31538SOL     OW97055   6.098   4.058  10.065  0.3587  0.0393 -0.1910
31538SOL    HW197056   6.169   4.003  10.031 -1.0393 -1.0531 -1.4747
31538SOL    HW297057   6.097   4.134  10.007  0.2179 -0.1344 -0.4154
31539SOL     OW97058   8.175   8.613   1.904  0.2442  0.5118 -0.5235
31539SOL    HW197059   8.215   8.615   1.991  0.4833  0.2454 -0.6247
31539SOL    HW297060   8.239   8.656   1.847 -0.2185  1.3275 -0.4519
31540SOL     OW97061   1.668   0.747   0.689 -0.3067  0.1394 -0.4201
31540SOL    HW197062   1.618   0.740   0.608 -1.5042  2.2465  0.0862
31540SOL    HW297063   1.758   0.763   0.660 -0.6879  0.6888 -1.3364
31541SOL     OW97064   1.156   7.083   3.473 -0.1358 -0.1667 -0.1084
31541SOL    HW197065   1.230   7.053   3.420  1.7442  1.7776  1.2279
31541SOL    HW297066   1.146   7.015   3.540 -0.1164 -0.8615 -0.8024
31542SOL     OW97067   9.414   7.818   3.236  0.4226  0.1032  0.4438
31542SOL    HW197068   9.507   7.803   3.219  0.2475 -0.6932  0.1286
31542SOL    HW297069   9.400   7.909   3.212  0.8048 -0.1904 -0.9792
31543SOL     OW97070   9.960   1.230   5.975  0.6065  1.1975  0.4646
31543SOL    HW197071   9.943   1.323   5.991  1.2648  1.4449 -0.2227
31543SOL    HW297072   9.913   1.211   5.894  0.5780  0.9681  0.5360
31544SOL     OW97073   4.201   7.417   2.132  0.0509  0.3990  0.0903
31544SOL    HW197074   4.149   7.497   2.139 -0.1328  0.4669 -1.5950
31544SOL    HW297075   4.137   7.346   2.144  0.0006  0.5025  0.4283
31545SOL     OW97076   9.263   3.240   2.098  0.2870 -0.4797 -0.1839
31545SOL    HW197077   9.329   3.270   2.160 -0.5852 -0.5876  0.8279
31545SOL    HW297078   9.312   3.223   2.017  1.2293  0.9749  0.0531
31546SOL     OW97079   2.201   5.163   5.444 -0.1809  0.0878  0.8016
31546SOL    HW197080   2.119   5.159   5.396  0.5920  2.1587 -0.8129
31546SOL    HW297081   2.249   5.085   5.416 -0.7716 -0.0551  0.1658
31547SOL     OW97082   7.816   5.967   1.996  0.3062  0.1158  0.1029
31547SOL    HW197083   7.854   6.055   1.998 -0.8295  0.6270 -0.1361
31547SOL    HW297084   7.835   5.935   1.908  1.5575 -0.2790  0.4916
31548SOL     OW97085   9.373   3.896   5.495  0.2332  0.2540 -0.7134
31548SOL    HW197086   9.458   3.929   5.465  0.6338  0.0760  0.2072
31548SOL    HW297087   9.348   3.954   5.567 -0.3031  0.1427 -0.8035
31549SOL     OW97088   7.112   1.014   9.783  0.1626  0.7424 -0.0498
31549SOL    HW197089   7.084   0.948   9.847 -2.2637  0.3738 -1.3676
31549SOL    HW297090   7.155   1.081   9.835  0.7542 -0.8331  1.6093
31550SOL     OW97091   5.228   1.936   9.248 -0.5762  0.2879  0.0384
31550SOL    HW197092   5.171   2.008   9.275 -0.3798  1.5905 -2.7264
31550SOL    HW297093   5.292   1.929   9.319 -1.3330  1.9637  0.9568
31551SOL     OW97094   1.794   6.286   6.858  0.8639  0.3682  0.8404
31551SOL    HW197095   1.855   6.235   6.804 -0.6609 -0.1405 -0.4595
31551SOL    HW297096   1.708   6.254   6.834 -0.0327  2.1303  1.5206
31552SOL     OW97097   8.453   1.063   3.230 -0.1395 -0.2791 -0.1547
31552SOL    HW197098   8.478   1.116   3.154  1.4888  1.4935  1.4917
31552SOL    HW297099   8.514   0.989   3.229 -0.6763 -0.7240 -1.0051
31553SOL     OW97100   9.724   4.104   8.099 -0.1239  0.7977  0.3366
31553SOL    HW197101   9.642   4.081   8.142  0.7230 -0.8508  1.1486
31553SOL    HW297102   9.785   4.122   8.170  0.2006  2.2746 -0.2561
31554SOL     OW97103   4.372   0.652   1.667 -0.2835 -0.2124 -1.0734
31554SOL    HW197104   4.316   0.594   1.719  0.1394 -1.1483 -1.6301
31554SOL    HW297105   4.346   0.635   1.577  0.4482 -0.1830 -1.2991
31555SOL     OW97106   1.070   9.691   0.908  0.5620  0.1054  1.2732
31555SOL    HW197107   0.976   9.708   0.915 -0.1663 -2.2507 -1.3849
31555SOL    HW297108   1.105   9.769   0.864 -0.4980  0.1303  0.4428
31556SOL     OW97109   6.171   3.933   5.381  0.0295  0.3707  0.0737
31556SOL    HW197110   6.242   3.870   5.366 -0.1549  0.4115 -1.0488
31556SOL    HW297111   6.215   4.018   5.388  0.2345  0.1917  1.1070
31557SOL     OW97112   5.045   4.953   5.567 -0.0315 -0.3265  0.1137
31557SOL    HW197113   5.100   4.991   5.635  2.1127 -3.1435  0.1334
31557SOL    HW297114   5.088   4.978   5.485 -2.7852  3.3338 -0.4277
31558SOL     OW97115   4.071   5.703   1.015  0.2427 -0.0603  0.0118
31558SOL    HW197116   4.050   5.612   0.992  0.3047 -0.3973  1.2278
31558SOL    HW297117   4.113   5.697   1.101  0.5427  1.0964 -0.0383
31559SOL     OW97118   4.360   5.002   2.082  0.1053 -0.1012 -0.3057
31559SOL    HW197119   4.337   4.941   2.152  1.9922 -2.4313 -1.6173
31559SOL    HW297120   4.375   4.947   2.005  2.0366  1.9773 -1.5385
31560SOL     OW97121   4.625   0.094   6.981 -0.0547  0.5661 -0.5363
31560SOL    HW197122   4.644   0.018   6.925 -1.9647  0.7338 -1.4890
31560SOL    HW297123   4.630   0.169   6.922  1.3236  1.1716  0.2971
31561SOL     OW97124   2.326   6.915   1.229  0.5475  0.2005 -0.0927
31561SOL    HW197125   2.405   6.869   1.199  0.8708 -1.2583  2.6434
31561SOL    HW297126   2.353   6.959   1.309 -1.6713 -1.5675  1.7660
31562SOL     OW97127   9.812   0.962   8.626 -0.1978 -0.1191 -0.4490
31562SOL    HW197128   9.890   0.961   8.571 -0.2937  0.1447 -0.5910
31562SOL    HW297129   9.740   0.975   8.565 -0.6038 -2.5854 -0.6042
31563SOL     OW97130   4.399   3.722   2.124 -0.0350  0.4297 -0.2289
31563SOL    HW197131   4.441   3.732   2.038  0.2603 -2.5373 -0.5277
31563SOL    HW297132   4.425   3.800   2.173  3.5354  0.0816 -1.3260
31564SOL     OW97133   0.920   6.581   4.088  0.1250 -0.0791  0.4052
31564SOL    HW197134   0.895   6.539   4.170  0.5848  1.1362  1.2037
31564SOL    HW297135   0.980   6.519   4.046 -1.3018 -1.3811  0.2238
31565SOL     OW97136   5.015   0.526   6.026  0.0646 -0.1519 -0.0251
31565SOL    HW197137   4.928   0.501   5.997  0.5075 -2.1673  0.2599
31565SOL    HW297138   5.002   0.610   6.070 -1.7210 -0.3955 -0.0188
31566SOL     OW97139   9.125   7.803   2.524 -0.3530 -0.3696  0.3192
31566SOL    HW197140   9.150   7.889   2.490  2.0126 -1.5051 -1.0285
31566SOL    HW297141   9.070   7.823   2.600  1.7351  2.3830  1.2924
31567SOL     OW97142   6.259   4.705   7.326  0.3196 -0.2077 -0.0602
31567SOL    HW197143   6.239   4.652   7.402 -0.1705  0.9629  0.6489
31567SOL    HW297144   6.353   4.693   7.313  0.3337 -0.7259  0.4888
31568SOL     OW97145   1.744   6.977   5.154  0.4574 -0.1242 -0.9017
31568SOL    HW197146   1.753   6.882   5.145 -0.8267 -0.3235 -0.3708
31568SOL    HW297147   1.709   6.990   5.242  0.3939  0.8268 -1.0503
31569SOL     OW97148   4.206   9.765   8.597 -0.0094 -0.3892 -0.0446
31569SOL    HW197149   4.298   9.746   8.575  0.0027  0.0687 -0.4015
31569SOL    HW297150   4.189   9.849   8.556 -1.1690 -1.3601 -1.6351
31570SOL     OW97151   9.923   2.681   9.604  0.2123 -0.0325  0.1532
31570SOL    HW197152   9.923   2.597   9.557 -2.3799 -0.7422  1.2098
31570SOL    HW297153   9.961   2.743   9.542 -0.1534 -1.5161 -1.6625
31571SOL     OW97154   5.501  10.202   5.420  0.8061 -0.2295  0.5521
31571SOL    HW197155   5.446  10.231   5.493 -1.5951 -0.5610 -1.0225
31571SOL    HW297156   5.476  10.259   5.348  3.0796  0.0442 -0.0930
31572SOL     OW97157   4.502   8.395   1.519  0.1406  0.8871 -0.6871
31572SOL    HW197158   4.539   8.478   1.549  0.1347  0.2263  1.2566
31572SOL    HW297159   4.570   8.331   1.536 -1.2831 -0.1261  1.6515
31573SOL     OW97160   2.623   8.086   5.861  0.1266 -0.0232 -0.1572
31573SOL    HW197161   2.702   8.113   5.814  0.5179 -1.2851 -0.2604
31573SOL    HW297162   2.654   8.022   5.925 -0.3835  1.6451  1.8822
31574SOL     OW97163   3.629   0.239   3.977 -0.3277  0.5746 -0.2371
31574SOL    HW197164   3.689   0.165   3.976 -1.4467 -0.3549 -1.7616
31574SOL    HW297165   3.661   0.297   3.908 -0.1485  0.9393  0.1499
31575SOL     OW97166   6.834   8.186  10.430  0.0460 -0.6299 -0.1003
31575SOL    HW197167   6.745   8.153  10.442 -0.5534 -0.2352 -2.7623
31575SOL    HW297168   6.823   8.266  10.379  1.9277 -0.6032 -0.5458
31576SOL     OW97169  10.198   1.042   6.548  0.1968  0.7774  0.6785
31576SOL    HW197170  10.123   1.075   6.498  0.0796 -0.8638 -0.2875
31576SOL    HW297171  10.265   1.024   6.482 -0.2952 -2.3622  0.8573
31577SOL     OW97172   0.917   8.556   8.617  0.3399 -0.4696  0.0189
31577SOL    HW197173   0.832   8.514   8.627 -0.1511  0.4704 -0.0391
31577SOL    HW297174   0.931   8.559   8.522 -0.1872  0.5357 -0.0450
31578SOL     OW97175   1.350   3.910   5.678  0.0627 -0.7826  1.0010
31578SOL    HW197176   1.330   3.898   5.771 -1.3745 -0.8163  0.6959
31578SOL    HW297177   1.341   4.005   5.664  0.8193 -0.7018  1.0027
31579SOL     OW97178  10.347   4.920   8.264  0.1464 -0.1675 -0.1691
31579SOL    HW197179  10.398   4.997   8.287 -0.2949  0.6510 -1.8406
31579SOL    HW297180  10.305   4.894   8.346 -1.9083  3.0331 -0.0700
31580SOL     OW97181   5.631   2.868  10.053  0.2219  0.1506  0.1560
31580SOL    HW197182   5.600   2.958  10.066  0.1616  0.2479 -0.5886
31580SOL    HW297183   5.666   2.842  10.138  0.5661  1.0066  0.2882
31581SOL     OW97184   9.226   2.954   5.703 -0.3204  0.6944  0.3802
31581SOL    HW197185   9.215   2.950   5.798  2.7850  0.0273  0.7933
31581SOL    HW297186   9.212   2.864   5.673  0.9933  0.4134  0.5535
31582SOL     OW97187  10.250   7.432   3.253  0.0219 -0.3338  0.0221
31582SOL    HW197188  10.155   7.434   3.243  0.0605  0.0323 -0.2763
31582SOL    HW297189  10.264   7.422   3.348 -0.3051  0.2416  0.1353
31583SOL     OW97190   9.421   4.945   0.122  0.0625  0.3054 -0.1033
31583SOL    HW197191   9.495   4.963   0.064 -0.9238  1.8304 -0.9757
31583SOL    HW297192   9.459   4.907   0.200  1.5447 -0.9753 -1.3884
31584SOL     OW97193   7.973   8.266   5.868 -0.7147  0.9001  0.1201
31584SOL    HW197194   7.923   8.232   5.793 -0.5187  0.4471  0.1924
31584SOL    HW297195   7.943   8.213   5.942 -0.7000  1.1577  0.3123
31585SOL     OW97196   9.802   9.573   7.962  0.0600  0.1856  0.0298
31585SOL    HW197197   9.852   9.648   7.930  0.9640 -1.0594 -1.6868
31585SOL    HW297198   9.863   9.499   7.957 -0.3325 -0.4558  3.0752
31586SOL     OW97199   8.308   4.927   9.266  0.1820 -0.6463 -0.4001
31586SOL    HW197200   8.260   5.005   9.294  1.3489 -0.2258  0.5264
31586SOL    HW297201   8.397   4.942   9.297  0.9203 -1.4009 -2.0800
31587SOL     OW97202   6.986   4.552   0.224 -0.6786 -0.3228  0.4707
31587SOL    HW197203   7.031   4.636   0.234 -1.7113  0.5239 -1.4625
31587SOL    HW297204   6.929   4.545   0.300 -0.5402  0.7101  0.6744
31588SOL     OW97205   4.600   0.244   6.614  0.2832 -0.1576 -0.2024
31588SOL    HW197206   4.585   0.274   6.524 -1.1553 -0.0126  0.0604
31588SOL    HW297207   4.592   0.149   6.610 -2.6852 -0.0374  0.1864
31589SOL     OW97208   1.079   1.319   9.949  0.3100  0.0677 -0.2024
31589SOL    HW197209   1.088   1.252   9.881  0.4616  0.5643 -0.6785
31589SOL    HW297210   0.987   1.313   9.975  0.0023  0.5022 -1.1275
31590SOL     OW97211   6.316   5.560   9.099  0.5844 -0.3677  0.1410
31590SOL    HW197212   6.301   5.649   9.068  1.0125  0.1044  1.2609
31590SOL    HW297213   6.390   5.528   9.048  0.9695  0.2267  0.3247
31591SOL     OW97214   8.279   4.455   6.916  0.0660 -0.0695  0.2706
31591SOL    HW197215   8.271   4.362   6.937 -1.0556 -0.0231  0.1340
31591SOL    HW297216   8.188   4.484   6.902  0.3536  1.1510  0.7750
31592SOL     OW97217   9.497   7.759  10.115  0.1130  0.1560 -0.0756
31592SOL    HW197218   9.452   7.769  10.031 -1.7914 -0.4186  0.8101
31592SOL    HW297219   9.568   7.823  10.112  0.4157 -0.2057 -2.3040
31593SOL     OW97220   8.786   6.834   5.877 -0.1850 -0.1685 -0.4116
31593SOL    HW197221   8.826   6.839   5.790  0.7250 -0.7783 -0.0443
31593SOL    HW297222   8.844   6.776   5.927 -0.9657 -0.2245  0.4574
31594SOL     OW97223   5.844   4.970   8.040  0.2858  0.2230 -0.3720
31594SOL    HW197224   5.859   4.880   8.069  1.0635  1.0891  2.2401
31594SOL    HW297225   5.915   4.988   7.979 -0.0186 -0.9744 -1.1161
31595SOL     OW97226   7.549   3.193   7.847  0.0278  0.1133 -0.7658
31595SOL    HW197227   7.607   3.204   7.921  1.5189  1.2227 -2.0359
31595SOL    HW297228   7.576   3.111   7.806 -0.1674 -0.0154 -0.6415
31596SOL     OW97229  10.175   9.933   9.498  0.1671  0.7099 -0.2751
31596SOL    HW197230  10.140   9.926   9.409  2.4430 -1.5678 -1.1205
31596SOL    HW297231  10.108   9.891   9.553 -0.6192  0.8513 -1.0975
31597SOL     OW97232   9.086   2.817   6.423 -0.5715 -0.0538  0.3319
31597SOL    HW197233   9.007   2.813   6.370  0.3362 -1.4736 -1.0036
31597SOL    HW297234   9.110   2.725   6.438  0.0797  0.3268  1.8889
31598SOL     OW97235   9.493   1.000   2.891  0.6447 -0.1624 -0.1365
31598SOL    HW197236   9.430   1.019   2.961  0.7309  0.3544 -0.1895
31598SOL    HW297237   9.547   0.930   2.925  0.0146 -0.6395 -0.1024
31599SOL     OW97238   6.104   2.760  10.391  0.1826  0.1476  0.0036
31599SOL    HW197239   6.119   2.854  10.386  0.2229  0.2509  1.6734
31599SOL    HW297240   6.145   2.732  10.473 -0.6860 -1.1505  0.0430
31600SOL     OW97241   9.816   5.129   3.324 -0.1440  0.0975 -0.3310
31600SOL    HW197242   9.799   5.137   3.231 -0.6413 -0.1886 -0.2674
31600SOL    HW297243   9.792   5.214   3.361  0.1659  0.2510 -0.4764
31601SOL     OW97244   2.159   8.533   6.338 -0.4186 -0.1800  0.2445
31601SOL    HW197245   2.215   8.536   6.260 -2.4738 -0.1996 -1.2922
31601SOL    HW297246   2.130   8.623   6.350 -1.7675 -0.5287 -0.2918
31602SOL     OW97247   5.305   6.934   8.193  0.3397 -0.2273  0.5099
31602SOL    HW197248   5.255   6.974   8.264  1.6921 -2.3585  2.8401
31602SOL    HW297249   5.247   6.866   8.158  0.5916 -0.9413  1.4323
31603SOL     OW97250   2.233   6.420   1.637  0.3526 -0.1644 -0.1110
31603SOL    HW197251   2.287   6.409   1.559 -0.2804 -0.6274 -0.4914
31603SOL    HW297252   2.295   6.421   1.710  0.9190 -0.0573 -0.5915
31604SOL     OW97253   1.455   6.682   7.049 -0.1331  0.0065 -0.2378
31604SOL    HW197254   1.422   6.635   7.125  1.3505  2.2872  1.9757
31604SOL    HW297255   1.525   6.626   7.015 -0.4818 -0.8154  0.3592
31605SOL     OW97256   3.326   4.667   1.802  0.1764  0.3155  0.0522
31605SOL    HW197257   3.281   4.736   1.753 -1.2940 -0.6402 -0.0256
31605SOL    HW297258   3.413   4.662   1.763 -1.2370 -1.1550 -3.3832
31606SOL     OW97259   1.055   7.850   7.420  0.3631  0.4015 -0.7807
31606SOL    HW197260   1.074   7.868   7.328 -0.6864  1.3721 -0.8159
31606SOL    HW297261   1.065   7.934   7.464 -2.6862  0.7946 -0.6289
31607SOL     OW97262   4.798   0.306   8.145 -0.4373  0.4247  0.4666
31607SOL    HW197263   4.806   0.401   8.156  1.4505  0.3790 -0.1712
31607SOL    HW297264   4.704   0.290   8.139 -0.7489  2.4199 -0.8315
31608SOL     OW97265   9.007   5.273   1.972  0.5334 -0.3446  0.0861
31608SOL    HW197266   8.976   5.312   2.054 -1.3590  0.6081 -1.0209
31608SOL    HW297267   8.966   5.186   1.970 -0.0585 -0.0624 -0.2048
31609SOL     OW97268   1.936   8.086  10.082 -0.2436  0.2913  0.2369
31609SOL    HW197269   1.953   8.049   9.995  0.4508 -1.1066  0.9345
31609SOL    HW297270   1.978   8.173  10.079  0.5525 -0.0990 -0.5373
31610SOL     OW97271   5.948   8.833   2.255  0.0916 -0.3345  0.5328
31610SOL    HW197272   5.883   8.763   2.254 -0.7644  0.4009  2.4366
31610SOL    HW297273   6.024   8.794   2.298  0.8844 -1.0914 -1.4092
31611SOL     OW97274   1.204  10.486   9.837  0.6554 -0.3968 -0.2338
31611SOL    HW197275   1.132  10.432   9.804 -0.7493  0.5757  1.0710
31611SOL    HW297276   1.240  10.436   9.910 -0.3390  0.1733  0.6761
31612SOL     OW97277  10.463   8.396   0.392  0.1325 -0.0572  0.0084
31612SOL    HW197278  10.413   8.315   0.383  0.7109 -0.6088  1.3881
31612SOL    HW297279  10.527   8.394   0.321 -0.4111 -0.3861 -0.4766
31613SOL     OW97280   3.600   3.833   7.894 -0.2526 -0.7186  0.4432
31613SOL    HW197281   3.513   3.810   7.861  0.0205  0.0647 -0.8857
31613SOL    HW297282   3.587   3.916   7.939  0.2098  0.7853 -2.0209
31614SOL     OW97283   5.079   6.735   5.986 -0.3373 -0.1409  0.0557
31614SOL    HW197284   5.128   6.709   5.908 -0.0256 -2.2116  0.8766
31614SOL    HW297285   5.108   6.825   6.003  1.9788 -0.7177 -0.4425
31615SOL     OW97286   3.161   6.806   7.831 -0.1916 -0.4960 -0.3987
31615SOL    HW197287   3.228   6.788   7.765 -0.2366 -0.8340 -0.3501
31615SOL    HW297288   3.121   6.722   7.848 -0.9181 -0.2286 -0.7358
31616SOL     OW97289   4.050   2.909   9.556 -0.4263 -0.0151 -0.7074
31616SOL    HW197290   4.075   2.886   9.466 -0.7436  1.8559 -1.3215
31616SOL    HW297291   4.099   2.847   9.611  0.8784 -0.2918 -2.1072
31617SOL     OW97292   6.890   2.504   9.120 -0.0390  0.5172  0.0596
31617SOL    HW197293   6.821   2.462   9.070 -1.0765  1.2299  0.8577
31617SOL    HW297294   6.849   2.529   9.203  0.6632  2.5172 -0.1291
31618SOL     OW97295   0.051   8.801   8.282 -0.1433 -0.0019 -0.1755
31618SOL    HW197296   0.068   8.862   8.210  0.9720  1.6092  1.3827
31618SOL    HW297297   0.001   8.853   8.346  1.2693 -0.5216  1.4209
31619SOL     OW97298   0.325   0.431   5.930 -0.5367  0.6754 -0.0502
31619SOL    HW197299   0.364   0.452   5.845  0.2024 -1.2866 -0.2316
31619SOL    HW297300   0.247   0.380   5.909  0.3084 -0.8661  0.4508
31620SOL     OW97301   1.283   7.413   0.503 -0.3786 -0.0662 -0.1659
31620SOL    HW197302   1.369   7.399   0.463 -0.4457  0.4617 -0.5112
31620SOL    HW297303   1.234   7.463   0.438 -0.0961  1.8659  1.0236
31621SOL     OW97304   7.764   4.949   1.784 -0.3013 -0.1550  0.2111
31621SOL    HW197305   7.728   5.026   1.739  1.5142  0.4004 -0.3573
31621SOL    HW297306   7.852   4.938   1.747  0.6733 -0.6311  2.5197
31622SOL     OW97307   0.243   9.340   2.909 -0.3359 -0.0222 -0.0271
31622SOL    HW197308   0.315   9.401   2.928 -1.1067  1.1006 -0.6201
31622SOL    HW297309   0.208   9.318   2.995 -0.8822  1.4362  0.1610
31623SOL     OW97310   5.349   3.537   1.561 -0.3501  0.6691  0.0142
31623SOL    HW197311   5.367   3.628   1.586 -0.1552  0.6257  0.0340
31623SOL    HW297312   5.262   3.540   1.521 -0.6712  0.7355  0.7069
31624SOL     OW97313   9.302   8.232   9.049  0.1235  0.2329 -0.1459
31624SOL    HW197314   9.325   8.218   8.957 -0.8391  3.1874 -0.9540
31624SOL    HW297315   9.211   8.202   9.056  0.6288 -1.2956  0.2582
31625SOL     OW97316  10.395   7.592   5.711  0.3083 -0.4521 -0.4918
31625SOL    HW197317  10.355   7.506   5.727 -1.6629  0.2577 -1.3426
31625SOL    HW297318  10.415   7.625   5.799 -3.1397  0.0851  0.2352
31626SOL     OW97319   0.611   5.581   5.846 -0.5852  0.4727  0.7241
31626SOL    HW197320   0.668   5.647   5.883 -0.9256  1.0180  0.2873
31626SOL    HW297321   0.583   5.528   5.921  2.0771 -1.1068  0.7501
31627SOL     OW97322   5.061   5.454   1.666 -0.0748  0.0176 -0.2058
31627SOL    HW197323   5.123   5.439   1.738  0.5676  0.6969 -0.6127
31627SOL    HW297324   4.982   5.405   1.692  0.7048 -1.0520  0.2068
31628SOL     OW97325   2.783   1.864   4.808  0.1225 -0.2075 -0.4134
31628SOL    HW197326   2.841   1.841   4.736  0.6082  0.5493 -0.2751
31628SOL    HW297327   2.838   1.857   4.886 -0.1802 -0.2252 -0.1988
31629SOL     OW97328   6.297   4.190   2.435  0.4416  0.1826  0.1803
31629SOL    HW197329   6.256   4.125   2.492 -0.8418  0.2918 -0.5672
31629SOL    HW297330   6.299   4.270   2.488  2.7628 -0.5915  1.3930
31630SOL     OW97331   6.176   1.562   9.912 -0.3732 -0.0088 -0.5237
31630SOL    HW197332   6.147   1.543   9.823 -1.9642 -1.3590  0.2228
31630SOL    HW297333   6.108   1.525   9.968 -0.1403  2.0535  1.2614
31631SOL     OW97334   7.416   5.027  10.434 -0.1554 -0.3664 -0.4449
31631SOL    HW197335   7.328   5.062  10.447  0.1032  0.6579 -1.3534
31631SOL    HW297336   7.474   5.103  10.440  0.6260 -0.9483 -0.3915
31632SOL     OW97337   1.595   7.781   0.552  0.5759  0.0759  0.0143
31632SOL    HW197338   1.537   7.857   0.547 -1.7548 -1.6673 -0.7334
31632SOL    HW297339   1.649   7.788   0.473 -0.5775  0.2524 -0.7838
31633SOL     OW97340   0.121   8.778  10.438  0.2825  0.4393 -0.1563
31633SOL    HW197341   0.095   8.702  10.385 -0.9677  0.2281  0.7132
31633SOL    HW297342   0.216   8.769  10.447  0.1610 -1.0150 -0.0865
31634SOL     OW97343   2.331   1.748   4.567  0.3240 -0.2609  0.0577
31634SOL    HW197344   2.403   1.812   4.561  0.9721 -1.1334 -3.0650
31634SOL    HW297345   2.374   1.666   4.590  0.1619 -0.5176 -0.5437
31635SOL     OW97346   4.792   5.775   2.031 -0.3029  0.4418  0.0821
31635SOL    HW197347   4.774   5.868   2.016 -0.4799  0.5515  0.9227
31635SOL    HW297348   4.875   5.774   2.079 -0.8016  0.2281  0.9561
31636SOL     OW97349   9.430   5.618   4.616  0.2175  0.5024 -0.3611
31636SOL    HW197350   9.467   5.671   4.546 -0.6048  1.0600 -0.3998
31636SOL    HW297351   9.478   5.536   4.614  1.1437  1.0479 -0.6637
31637SOL     OW97352   5.720   5.332   0.626  0.1607  0.1591  0.3362
31637SOL    HW197353   5.637   5.330   0.579  0.6002 -1.2540 -0.4447
31637SOL    HW297354   5.703   5.385   0.704 -1.1463  0.8279 -0.3694
31638SOL     OW97355  10.264   1.228   4.258 -0.3192 -0.0757 -0.4187
31638SOL    HW197356  10.323   1.156   4.236 -1.1736 -1.2342  0.9047
31638SOL    HW297357  10.318   1.290   4.306 -0.1076 -1.0430  0.6351
31639SOL     OW97358   3.979   3.491   1.690  0.2489 -0.4814  0.8336
31639SOL    HW197359   3.988   3.500   1.595  0.4115 -1.2693  0.7650
31639SOL    HW297360   3.894   3.450   1.702 -0.0362  0.1625  1.0716
31640SOL     OW97361   3.750   2.759   2.070  0.1269 -0.0040 -0.4184
31640SOL    HW197362   3.824   2.802   2.027 -0.8320  0.8604 -1.2772
31640SOL    HW297363   3.771   2.666   2.066  1.4423  0.2588 -0.0939
31641SOL     OW97364   7.231   1.642   7.546  0.2780  0.8028  0.4445
31641SOL    HW197365   7.191   1.646   7.633  1.7373 -0.6491  1.2266
31641SOL    HW297366   7.310   1.695   7.554  2.0567 -1.7424  1.0046
31642SOL     OW97367   5.118   1.186   4.427 -0.1995 -0.1625  0.6228
31642SOL    HW197368   5.172   1.145   4.360 -0.4368 -1.4773  1.1907
31642SOL    HW297369   5.102   1.116   4.491 -0.2043  0.9675  1.9111
31643SOL     OW97370   2.290   0.801   0.771  0.2961  0.2029 -0.2552
31643SOL    HW197371   2.382   0.829   0.769  0.5678 -0.5778 -2.4352
31643SOL    HW297372   2.288   0.723   0.715 -1.4605 -0.6525  0.9054
31644SOL     OW97373   0.527   5.464   8.443 -0.1341 -0.0703 -0.1447
31644SOL    HW197374   0.569   5.548   8.462  0.1998 -0.4341  0.7515
31644SOL    HW297375   0.514   5.466   8.348  0.3036  0.7924 -0.2044
31645SOL     OW97376   3.782   6.482   2.929 -0.2115  0.1201  0.2117
31645SOL    HW197377   3.725   6.426   2.981 -0.6583 -0.0285 -0.4235
31645SOL    HW297378   3.757   6.571   2.953 -0.4041  0.0527  0.2587
31646SOL     OW97379   0.230   5.673   4.366  0.3002 -0.2064  0.1919
31646SOL    HW197380   0.265   5.586   4.381 -0.1691 -0.5420 -0.5642
31646SOL    HW297381   0.136   5.665   4.384 -0.2174 -0.5202 -2.2131
31647SOL     OW97382   0.436   8.575   8.044  0.3134 -0.7707  0.5406
31647SOL    HW197383   0.508   8.615   8.092  0.6234 -0.2685 -0.3187
31647SOL    HW297384   0.358   8.600   8.094  0.6964 -1.0610  1.3050
31648SOL     OW97385   4.047   4.113   7.117  0.7330  0.7276 -0.1554
31648SOL    HW197386   3.965   4.119   7.164 -0.8254  0.4755 -2.6328
31648SOL    HW297387   4.067   4.019   7.113  1.5380  0.8318  1.0156
31649SOL     OW97388   2.734  10.226  10.357  0.1017  0.2169 -0.0351
31649SOL    HW197389   2.660  10.166  10.360  0.3629 -0.0875  0.5793
31649SOL    HW297390   2.778  10.206  10.274 -1.3844  1.5028 -1.1848
31650SOL     OW97391   6.446   7.657   9.334 -0.3176  0.2690 -0.4633
31650SOL    HW197392   6.463   7.719   9.405  0.1333  1.0244 -1.2180
31650SOL    HW297393   6.407   7.581   9.378  0.2978  0.5656  0.6414
31651SOL     OW97394   4.981   2.158   8.001  0.1840 -0.0917  0.1984
31651SOL    HW197395   5.024   2.086   7.954  2.1686 -0.1526  1.9606
31651SOL    HW297396   4.926   2.114   8.066  0.3188 -0.0119  0.3660
31652SOL     OW97397   5.143   9.531   5.699  0.5484 -0.4364  0.1304
31652SOL    HW197398   5.120   9.549   5.608  1.7790 -0.0087 -0.1147
31652SOL    HW297399   5.239   9.533   5.700  0.5988 -1.9693  1.1290
31653SOL     OW97400   1.495   6.081   6.458 -0.3101 -0.0742 -0.7882
31653SOL    HW197401   1.413   6.128   6.469 -0.3116  0.0230 -1.2254
31653SOL    HW297402   1.498   6.058   6.365 -0.7159 -1.6798 -0.4361
31654SOL     OW97403   3.627   8.927  10.033 -0.2217  0.0863 -0.6478
31654SOL    HW197404   3.704   8.981  10.015  0.0187  0.3927  1.1683
31654SOL    HW297405   3.633   8.906  10.126 -1.5048 -1.2148 -0.8206
31655SOL     OW97406   0.370   3.344   2.933  0.1222  0.1379 -0.2244
31655SOL    HW197407   0.363   3.338   3.028 -2.7324 -0.7342 -0.3937
31655SOL    HW297408   0.353   3.436   2.913 -1.3138 -0.0656  0.0195
31656SOL     OW97409   5.173   5.358   1.877 -0.3492 -0.0028 -0.3109
31656SOL    HW197410   5.145   5.272   1.908  2.4262 -0.7929  0.2884
31656SOL    HW297411   5.190   5.408   1.956 -0.4080  0.5626 -0.6486
31657SOL     OW97412   7.971   5.828  10.404  0.3970  0.0779 -0.1065
31657SOL    HW197413   8.043   5.789  10.355  0.8768 -1.1566  1.4862
31657SOL    HW297414   7.960   5.915  10.366  0.3961 -0.9635 -2.6872
31658SOL     OW97415   5.053   3.835   5.630 -0.7261 -0.7278 -0.0322
31658SOL    HW197416   5.024   3.744   5.636 -0.3088 -1.0088 -1.6748
31658SOL    HW297417   5.012   3.868   5.550  0.9296 -0.1892 -0.7075
31659SOL     OW97418   4.248   7.583  10.069  0.1934 -0.3859  0.3414
31659SOL    HW197419   4.245   7.674  10.041 -0.5580 -0.2394  0.8852
31659SOL    HW297420   4.342   7.561  10.067  0.2184 -0.3335 -2.0439
31660SOL     OW97421   5.168   3.843   8.272 -0.2285  0.4728  0.0934
31660SOL    HW197422   5.078   3.877   8.276 -0.3954  0.2436 -1.1411
31660SOL    HW297423   5.164   3.760   8.320 -0.1719  1.4539  1.8358
31661SOL     OW97424   9.035   8.192   9.019 -0.4909 -0.3633  0.5955
31661SOL    HW197425   8.990   8.152   9.094 -2.2631 -1.0622 -0.7858
31661SOL    HW297426   8.968   8.245   8.976  0.7094  0.6406 -0.0900
31662SOL     OW97427   0.243   1.382   4.869 -0.1223 -0.2157  0.7244
31662SOL    HW197428   0.332   1.364   4.898  0.3130  1.5825  0.6275
31662SOL    HW297429   0.253   1.408   4.777 -0.6912  0.3176  0.8071
31663SOL     OW97430   5.324  10.248   8.848  0.3212  0.0059 -0.6253
31663SOL    HW197431   5.303  10.206   8.765  0.6504  2.5192 -2.0748
31663SOL    HW297432   5.417  10.271   8.840 -0.3784  3.1479 -1.0338
31664SOL     OW97433   6.760  10.302   6.310 -0.0058 -0.4076 -0.2017
31664SOL    HW197434   6.793  10.233   6.252 -1.5376 -1.8864  0.5608
31664SOL    HW297435   6.785  10.274   6.398  1.9332  1.5996 -0.0351
31665SOL     OW97436  10.385   0.182   9.719  0.2824 -0.1151 -0.3049
31665SOL    HW197437  10.367   0.103   9.668 -0.3515 -0.4082  0.3597
31665SOL    HW297438  10.405   0.149   9.807  2.6327  0.2815 -0.6099
31666SOL     OW97439   6.247   3.724   9.806  0.0739 -0.2089  0.0636
31666SOL    HW197440   6.324   3.736   9.863  2.2633 -0.9106 -2.5204
31666SOL    HW297441   6.220   3.634   9.822 -0.6480  0.2247  1.4294
31667SOL     OW97442   7.023   5.719   5.028  0.0365  0.2539 -0.5976
31667SOL    HW197443   6.989   5.742   5.114  0.9949  0.8646 -0.3669
31667SOL    HW297444   6.951   5.736   4.968 -0.4323  0.4185  0.0051
31668SOL     OW97445   4.298   1.155   0.689 -0.9455 -0.1556  0.1429
31668SOL    HW197446   4.299   1.156   0.594 -0.6599 -1.5044  0.0992
31668SOL    HW297447   4.390   1.138   0.714 -0.7583  1.5552  0.7124
31669SOL     OW97448   4.611   1.606   4.744 -0.4636 -0.5431 -0.2202
31669SOL    HW197449   4.579   1.696   4.743 -1.3334 -0.8409 -1.0204
31669SOL    HW297450   4.648   1.594   4.831  0.2893  0.7939 -0.3346
31670SOL     OW97451   9.640   4.291   5.237  0.2588  0.0435  0.7575
31670SOL    HW197452   9.674   4.370   5.279 -1.6976  1.2442  0.2039
31670SOL    HW297453   9.551   4.315   5.209 -0.3471 -2.3159  0.4629
31671SOL     OW97454   4.893   0.332   4.866 -0.5467 -0.0377  0.2963
31671SOL    HW197455   4.975   0.365   4.829 -0.8736  0.5615  0.0939
31671SOL    HW297456   4.910   0.239   4.883 -0.4723 -0.4204 -1.6386
31672SOL     OW97457   9.027   9.658   5.643  0.1436  0.0561 -0.3426
31672SOL    HW197458   8.967   9.685   5.574  0.0267 -1.0504 -0.6962
31672SOL    HW297459   8.977   9.595   5.696  0.7629 -0.3590 -0.2385
31673SOL     OW97460   0.943   4.540   4.274 -0.1612 -0.1076 -0.3304
31673SOL    HW197461   0.939   4.634   4.291  0.3143  0.1436 -1.4788
31673SOL    HW297462   0.971   4.502   4.357  0.6756  0.8860 -0.1292
31674SOL     OW97463   3.227   5.428   8.558  0.1999  1.0019  0.3289
31674SOL    HW197464   3.306   5.460   8.515  1.3603 -1.5481  0.3630
31674SOL    HW297465   3.155   5.465   8.507  1.4472  2.1054 -0.6925
31675SOL     OW97466  10.101   9.652   5.905 -0.5407 -0.2947  0.0448
31675SOL    HW197467  10.115   9.557   5.910  0.5494 -0.0852  1.7524
31675SOL    HW297468  10.050   9.673   5.983 -0.8322  0.5274 -0.3583
31676SOL     OW97469   6.862   3.543   3.075 -0.2167  0.1308  0.1473
31676SOL    HW197470   6.936   3.510   3.125 -1.5531 -3.0852  0.2329
31676SOL    HW297471   6.789   3.544   3.137 -0.9071  0.3821 -0.6397
31677SOL     OW97472   7.369   6.790   8.147  0.3891  0.2166 -0.1287
31677SOL    HW197473   7.314   6.734   8.092 -1.6572  1.1189  0.8564
31677SOL    HW297474   7.342   6.768   8.237 -0.3147  2.5455  0.2939
31678SOL     OW97475   3.323   8.441   1.677  0.1094 -0.1294 -0.0215
31678SOL    HW197476   3.326   8.353   1.713  0.4574 -0.2623 -0.3716
31678SOL    HW297477   3.346   8.498   1.751 -0.5363 -0.2911  0.3148
31679SOL     OW97478   6.060   2.694   3.823 -0.3935 -0.0045 -0.6108
31679SOL    HW197479   6.040   2.771   3.876  0.6626 -0.2081  0.1233
31679SOL    HW297480   6.026   2.620   3.874 -0.5389 -0.0960 -0.8416
31680SOL     OW97481   3.739   5.238   8.958  0.4064 -0.2575  0.1240
31680SOL    HW197482   3.646   5.217   8.956  0.1888  0.2081  2.6333
31680SOL    HW297483   3.775   5.192   8.883 -1.4559 -2.4540  0.4659
31681SOL     OW97484   4.851   5.113   2.028  0.1191  0.3137 -0.0043
31681SOL    HW197485   4.797   5.063   2.090 -1.5761 -0.1242 -1.7246
31681SOL    HW297486   4.836   5.204   2.053 -0.5085  0.1456  0.2606
31682SOL     OW97487   8.547   0.080   5.030  0.2023  0.0745  0.1610
31682SOL    HW197488   8.525   0.021   4.958 -2.9279 -0.2668  1.2469
31682SOL    HW297489   8.540   0.168   4.992  1.1749 -0.1389 -0.5484
31683SOL     OW97490   6.722  10.261   4.490 -0.7269 -0.0654 -0.0551
31683SOL    HW197491   6.809  10.237   4.456 -0.8311 -1.0257  0.3401
31683SOL    HW297492   6.681  10.309   4.418 -0.2921 -0.5817 -0.6649
31684SOL     OW97493   4.654   4.134   9.891 -0.2054 -0.2360  0.0285
31684SOL    HW197494   4.625   4.078   9.963 -1.5875 -1.5288 -1.4326
31684SOL    HW297495   4.718   4.080   9.844  0.9926  0.7504  0.4756
31685SOL     OW97496   6.364   7.772   7.732  0.2637 -0.0913 -0.1787
31685SOL    HW197497   6.346   7.765   7.638 -0.0408  1.8514 -0.3090
31685SOL    HW297498   6.413   7.692   7.753 -0.6372 -1.1057 -1.7331
31686SOL     OW97499   8.486   3.385   1.773  0.4464  0.0719 -0.2516
31686SOL    HW197500   8.477   3.480   1.769 -1.5479 -0.0103  1.1561
31686SOL    HW297501   8.424   3.358   1.840  1.9903 -2.1077  0.4073
31687SOL     OW97502  10.362   6.706   1.897  0.2749 -0.0122 -0.0783
31687SOL    HW197503  10.409   6.738   1.974  2.5831  0.5870 -1.6380
31687SOL    HW297504  10.322   6.785   1.859  0.9439  0.0632 -0.6437
31688SOL     OW97505   5.715   9.946   7.926 -0.3955  0.4112 -0.1309
31688SOL    HW197506   5.770   9.889   7.872 -0.9554  0.2408 -0.5291
31688SOL    HW297507   5.739  10.035   7.900 -1.9913  0.3569 -2.0966
31689SOL     OW97508   6.581   2.732   8.041  0.2152 -0.4098 -0.1500
31689SOL    HW197509   6.564   2.810   8.095  0.0358  0.5987 -1.5827
31689SOL    HW297510   6.662   2.696   8.075  1.2564  1.4423 -0.5419
31690SOL     OW97511   5.311   3.527   5.031 -0.5883  0.0215 -0.6089
31690SOL    HW197512   5.406   3.539   5.028 -0.6088  0.5909  0.5522
31690SOL    HW297513   5.299   3.434   5.046 -0.1996  0.0459 -0.1306
31691SOL     OW97514   5.453   6.011   6.338  0.4346 -0.1874 -0.2403
31691SOL    HW197515   5.362   5.993   6.362  0.7260  0.5613  1.5371
31691SOL    HW297516   5.471   6.097   6.375  1.4107  0.4056 -1.9560
31692SOL     OW97517   4.279  10.198   5.228  0.0658 -0.3486 -0.2111
31692SOL    HW197518   4.314  10.109   5.217 -0.9149 -0.6478 -1.0331
31692SOL    HW297519   4.305  10.245   5.149 -0.1170 -0.1428 -0.1503
31693SOL     OW97520   6.927   0.459  10.461 -0.1505 -0.1330 -0.5890
31693SOL    HW197521   6.913   0.523  10.531 -0.5468  1.0695 -1.7187
31693SOL    HW297522   7.022   0.448  10.458 -0.1456 -0.4774  0.3515
31694SOL     OW97523   8.783   0.184   2.131 -0.2582 -0.1404  0.1434
31694SOL    HW197524   8.769   0.090   2.118  1.3721 -0.4858  0.7395
31694SOL    HW297525   8.744   0.203   2.216 -0.8573 -0.1887 -0.1095
31695SOL     OW97526   3.998   0.295   7.038  0.5932 -0.0322 -0.3686
31695SOL    HW197527   3.959   0.263   6.957  1.4610 -0.6538 -0.5603
31695SOL    HW297528   4.057   0.365   7.010 -1.1784  1.7116  0.0326
31696SOL     OW97529   2.121   3.093   8.013 -0.2721  0.8138 -0.2617
31696SOL    HW197530   2.070   3.021   8.050  0.0511  0.5884 -0.2517
31696SOL    HW297531   2.157   3.139   8.089 -1.1906  1.5173 -0.2340
31697SOL     OW97532   5.029   3.141   6.543  0.5099  0.8710 -0.0896
31697SOL    HW197533   5.103   3.085   6.519  0.8986  1.1957  0.3351
31697SOL    HW297534   4.971   3.139   6.467 -0.0193 -0.9772  0.3160
31698SOL     OW97535   9.013   9.826   7.793  0.0963  0.0140  0.4265
31698SOL    HW197536   8.967   9.905   7.763  0.3226 -0.7868 -2.3069
31698SOL    HW297537   9.105   9.851   7.796  0.7547 -0.9722 -4.3191
31699SOL     OW97538   4.373   3.441   5.975 -0.2401  0.1349 -0.5396
31699SOL    HW197539   4.283   3.408   5.972 -0.2047 -0.0059 -0.1409
31699SOL    HW297540   4.392   3.448   6.069 -0.5793  2.1634 -0.5747
31700SOL     OW97541   4.750   5.253   4.749 -0.3645  0.2589 -0.0268
31700SOL    HW197542   4.839   5.272   4.721  0.0410  2.0788  2.2268
31700SOL    HW297543   4.739   5.159   4.733  2.3482 -0.2257  0.5766
31701SOL     OW97544  10.090  10.363   7.587 -0.3494 -0.3418 -0.5131
31701SOL    HW197545  10.125  10.274   7.592  0.5491 -0.1400 -2.3563
31701SOL    HW297546  10.059  10.382   7.675  0.6487 -1.9997  0.2358
31702SOL     OW97547   8.328   4.055  10.403  0.0462  0.7278  0.1719
31702SOL    HW197548   8.270   4.035  10.476 -1.1942  0.1264 -0.9136
31702SOL    HW297549   8.276   4.034  10.325  1.3432  1.2510 -0.8842
31703SOL     OW97550   9.835   6.353   6.108  0.7268 -0.6798 -0.0996
31703SOL    HW197551   9.859   6.269   6.148  0.7257 -0.6632 -0.0645
31703SOL    HW297552   9.918   6.401   6.104  1.7934 -2.4242 -4.4159
31704SOL     OW97553  10.344   0.115   9.271 -0.0097  0.1841 -0.1281
31704SOL    HW197554  10.255   0.141   9.247 -0.4044 -0.9376  0.0799
31704SOL    HW297555  10.332   0.042   9.332  1.0315  1.2092  1.3690
31705SOL     OW97556   3.163   8.963   0.765  0.4200 -0.5550  0.1087
31705SOL    HW197557   3.129   8.907   0.836 -0.4902 -0.6735 -0.4095
31705SOL    HW297558   3.220   9.026   0.810 -1.7219  0.6843  1.2468
31706SOL     OW97559   9.491   8.895   5.179 -1.0962 -0.0614 -0.1252
31706SOL    HW197560   9.423   8.909   5.113 -1.7009  1.0430  0.7190
31706SOL    HW297561   9.473   8.958   5.248  0.3551 -0.2418  0.4716
31707SOL     OW97562   1.234   9.302   7.771 -0.4021  0.4078 -0.2860
31707SOL    HW197563   1.252   9.217   7.730 -1.1225  0.3062 -0.4021
31707SOL    HW297564   1.311   9.355   7.750  0.9602 -0.7769  1.3921
31708SOL     OW97565   0.316   1.596   8.595 -0.4137 -0.1529  0.6417
31708SOL    HW197566   0.326   1.585   8.500 -1.3108  1.1761  0.3722
31708SOL    HW297567   0.366   1.523   8.632  0.0456 -0.6415 -0.8413
31709SOL     OW97568   2.383   1.270   9.691 -0.0729 -0.1913 -0.0046
31709SOL    HW197569   2.288   1.268   9.689 -0.1336  1.2570 -0.7758
31709SOL    HW297570   2.411   1.188   9.651 -0.9993 -0.4473 -0.1301
31710SOL     OW97571   7.345   9.323   5.156 -0.3741 -0.2566  0.4582
31710SOL    HW197572   7.306   9.288   5.236 -0.3772 -0.4287  0.3802
31710SOL    HW297573   7.325   9.417   5.159 -1.6889 -0.4876 -0.0758
31711SOL     OW97574   8.889   8.289   0.832 -0.1905  0.0146  0.4013
31711SOL    HW197575   8.861   8.222   0.895 -1.8957 -0.5216 -0.8571
31711SOL    HW297576   8.979   8.310   0.858 -0.2132 -1.4976  1.8852
31712SOL     OW97577   1.120   1.649   8.389 -0.7619 -0.2174 -0.5320
31712SOL    HW197578   1.030   1.618   8.402 -0.1700 -1.9847 -0.3052
31712SOL    HW297579   1.129   1.722   8.449 -1.3555 -1.5209  1.2401
31713SOL     OW97580   0.173   0.220   3.423  0.2272  0.4194  0.2953
31713SOL    HW197581   0.155   0.211   3.517 -0.4435  0.6458  0.1891
31713SOL    HW297582   0.224   0.301   3.417  1.4657 -0.3163  0.6141
31714SOL     OW97583   8.913   9.534   1.885  0.5227 -0.2626 -0.9582
31714SOL    HW197584   8.858   9.612   1.877  0.6953 -0.0294  0.0360
31714SOL    HW297585   9.001   9.567   1.904  1.0118 -0.6383 -2.4138
31715SOL     OW97586   5.777   2.453   2.524 -0.2751 -0.2236  0.6061
31715SOL    HW197587   5.797   2.480   2.614 -0.0799  0.5250  0.3486
31715SOL    HW297588   5.748   2.534   2.481  0.5398 -0.3680 -0.2571
31716SOL     OW97589   6.853  10.093   9.656  0.3422  0.8475  0.2135
31716SOL    HW197590   6.849  10.156   9.727  0.3283  1.0330  0.0496
31716SOL    HW297591   6.790  10.126   9.591  1.7325  1.7267 -0.7408
31717SOL     OW97592   9.695   5.420   9.087  0.2824 -0.0962  0.2331
31717SOL    HW197593   9.784   5.454   9.102 -0.2000  1.0156  0.6970
31717SOL    HW297594   9.690   5.341   9.140  1.6018 -1.2606 -1.2549
31718SOL     OW97595   4.909   0.425   5.273  0.0476  0.5512 -0.3207
31718SOL    HW197596   4.933   0.381   5.355  0.4949 -1.4470 -1.4540
31718SOL    HW297597   4.814   0.418   5.269  0.1662 -1.0993 -0.8557
31719SOL     OW97598   1.182   4.185   5.146  0.4795  0.5280  0.2036
31719SOL    HW197599   1.263   4.198   5.096  0.5111  0.7742  0.3172
31719SOL    HW297600   1.139   4.111   5.104  2.0519 -1.4030  1.7613
31720SOL     OW97601   8.676   3.994   3.075 -0.0239  0.1312 -0.1828
31720SOL    HW197602   8.591   4.030   3.099 -0.7875 -0.3374 -1.9904
31720SOL    HW297603   8.736   4.069   3.078 -0.7078  0.6788  0.0913
31721SOL     OW97604   4.435   7.161   5.758 -0.1824  0.2839  0.1667
31721SOL    HW197605   4.482   7.128   5.834 -0.3698  1.2075  0.7062
31721SOL    HW297606   4.503   7.198   5.702  0.2370 -2.3116 -1.2123
31722SOL     OW97607   6.600   2.297   2.076  0.1513 -0.4037  0.0775
31722SOL    HW197608   6.660   2.369   2.057 -0.9195  0.6205  0.4455
31722SOL    HW297609   6.657   2.227   2.110  1.1310  0.5631  0.5123
31723SOL     OW97610   1.454   1.057   7.652 -0.0250  0.1704  0.2516
31723SOL    HW197611   1.405   0.975   7.656  0.3478 -0.1141 -0.7498
31723SOL    HW297612   1.393   1.120   7.614 -0.1254  0.2193  0.4909
31724SOL     OW97613   8.105   2.497   2.555  0.4095  0.5579  0.0168
31724SOL    HW197614   8.186   2.526   2.513 -0.0654 -0.6591 -1.8337
31724SOL    HW297615   8.045   2.479   2.483 -0.7287 -0.8539  1.2441
31725SOL     OW97616   6.499   2.431   3.063 -0.3658  0.0274 -0.0426
31725SOL    HW197617   6.555   2.486   3.119  1.8741  0.3839 -2.4388
31725SOL    HW297618   6.456   2.493   3.004 -1.0650 -0.5074 -0.1145
31726SOL     OW97619   4.241   1.794   5.940 -0.4953  0.7193 -0.6199
31726SOL    HW197620   4.300   1.767   6.010 -0.6310  0.8854 -0.4414
31726SOL    HW297621   4.205   1.877   5.969 -1.8465 -0.0200 -0.0868
31727SOL     OW97622   4.896   0.485   1.957  0.2706  0.0233 -0.1599
31727SOL    HW197623   4.929   0.421   2.020  0.2558  1.2195  1.1254
31727SOL    HW297624   4.858   0.554   2.011 -1.3902  0.2527 -1.5433
31728SOL     OW97625   5.493  10.006   0.697 -0.3109 -0.1137  0.0723
31728SOL    HW197626   5.401   9.982   0.683 -0.4248  0.1151  0.4333
31728SOL    HW297627   5.542   9.927   0.676 -0.5890 -0.2280 -0.1480
31729SOL     OW97628   2.138   9.999  10.447 -0.2302 -0.4303 -0.2364
31729SOL    HW197629   2.103   9.983  10.535 -1.4481  0.8661 -0.4458
31729SOL    HW297630   2.075   9.959  10.388 -0.0266 -0.3001 -0.5473
31730SOL     OW97631   5.672   6.809   4.274 -0.2745  0.2434  0.0944
31730SOL    HW197632   5.689   6.724   4.233 -0.6838  0.5145 -0.6638
31730SOL    HW297633   5.617   6.789   4.350 -1.8473 -0.0134 -1.0778
31731SOL     OW97634   4.055  10.347   5.249 -0.1236  0.3127  0.5009
31731SOL    HW197635   4.016  10.259   5.251  1.1575 -0.4236 -1.8722
31731SOL    HW297636   4.149  10.331   5.256  0.2943  1.2156 -1.8912
31732SOL     OW97637   8.746   5.047   3.220  0.4941 -0.6436  0.1655
31732SOL    HW197638   8.746   4.986   3.147  0.4962  0.0412 -0.4181
31732SOL    HW297639   8.716   5.130   3.182 -0.3917 -0.5030  1.1341
31733SOL     OW97640   7.236   0.869   8.562 -0.0112  0.1098  0.4315
31733SOL    HW197641   7.304   0.858   8.496 -0.8080  0.2411 -0.4414
31733SOL    HW297642   7.162   0.905   8.513 -0.4431  0.7183  1.5022
31734SOL     OW97643  10.015   9.575   0.237 -0.0371 -0.6467 -0.1364
31734SOL    HW197644   9.939   9.585   0.293 -0.3801  0.6215 -0.7883
31734SOL    HW297645  10.047   9.487   0.255 -1.0802 -0.8423  0.8543
31735SOL     OW97646   8.507   0.505   4.453 -0.1550 -0.5698  0.1814
31735SOL    HW197647   8.486   0.565   4.381  1.6239  1.6352  1.3924
31735SOL    HW297648   8.517   0.420   4.410  2.4416  0.9104 -2.5141
31736SOL     OW97649   6.522   0.618   0.252  0.3385 -0.0715  0.1125
31736SOL    HW197650   6.524   0.699   0.201 -1.9501  0.6575  1.0284
31736SOL    HW297651   6.521   0.647   0.343 -0.4317 -1.1100  0.4595
31737SOL     OW97652   6.804  10.080   3.386  0.5354 -0.2353 -0.3853
31737SOL    HW197653   6.725  10.098   3.335  1.4731  0.8200 -1.5387
31737SOL    HW297654   6.774  10.077   3.477 -0.4975  2.5620 -0.5386
31738SOL     OW97655   0.921   8.864   2.850 -1.0343 -0.3558  0.5089
31738SOL    HW197656   0.872   8.945   2.834 -0.0718 -0.2123 -2.3369
31738SOL    HW297657   0.864   8.812   2.907 -2.4284  1.6051  1.0146
31739SOL     OW97658  10.487   9.073  10.198 -0.0247 -0.3695  0.4205
31739SOL    HW197659  10.570   9.027  10.185 -0.9953 -2.4022  0.8944
31739SOL    HW297660  10.428   9.032  10.135 -0.4462  1.7734 -0.6411
31740SOL     OW97661   4.251   2.227   8.775 -0.4893  0.0903 -0.2281
31740SOL    HW197662   4.186   2.269   8.831 -0.7754 -1.2754  0.5013
31740SOL    HW297663   4.219   2.241   8.686 -0.8923  0.8708  0.0334
31741SOL     OW97664   1.648   4.043   2.705  0.3445  0.0350  0.3486
31741SOL    HW197665   1.698   4.016   2.628 -0.1168 -0.9171  0.3581
31741SOL    HW297666   1.715   4.064   2.771  0.7415  1.1631 -0.3950
31742SOL     OW97667   9.126   1.445   4.556  0.7949 -0.2360 -0.5170
31742SOL    HW197668   9.104   1.352   4.561  1.5765 -0.5161 -1.7425
31742SOL    HW297669   9.189   1.459   4.627 -1.0580 -0.0755  1.1618
31743SOL     OW97670   6.520   2.212   1.515  0.6351  0.3290  0.3636
31743SOL    HW197671   6.548   2.123   1.535  2.0243  0.6537 -0.0079
31743SOL    HW297672   6.597   2.266   1.533  1.0998  0.9855 -2.9245
31744SOL     OW97673   0.988   6.670   8.066  0.4875 -0.5820  0.1424
31744SOL    HW197674   0.955   6.606   8.002 -0.1061  0.5333 -0.6961
31744SOL    HW297675   0.926   6.663   8.139  0.8107 -1.4263  0.3457
31745SOL     OW97676   1.907   4.654   3.028 -0.0735  0.2874 -0.1641
31745SOL    HW197677   1.822   4.611   3.024  0.4070 -0.8065  0.6537
31745SOL    HW297678   1.948   4.617   3.107  0.3399  2.3321  0.6343
31746SOL     OW97679   6.025   9.248   3.915 -0.0080 -0.5187  0.0802
31746SOL    HW197680   6.013   9.333   3.874  0.7985  0.3971  1.6001
31746SOL    HW297681   6.045   9.188   3.843 -2.5697  0.1140 -1.2439
31747SOL     OW97682   5.252   2.412   5.379 -0.5876 -0.4432 -0.6979
31747SOL    HW197683   5.278   2.339   5.323  0.1381 -1.6638  1.1493
31747SOL    HW297684   5.227   2.482   5.317  0.8269 -1.4608 -2.5219
31748SOL     OW97685   9.169   9.299   7.118  0.6120  0.1471 -0.2560
31748SOL    HW197686   9.144   9.279   7.208  0.8429  0.1838 -0.1836
31748SOL    HW297687   9.204   9.388   7.122  0.7940  0.0794 -0.3493
31749SOL     OW97688   2.443   7.010   7.179  0.2628  0.3593 -0.1379
31749SOL    HW197689   2.463   6.943   7.114 -1.0308 -0.6251  0.4152
31749SOL    HW297690   2.526   7.054   7.196  0.9457 -0.4792 -1.2181
31750SOL     OW97691   7.069   6.944   8.448 -0.1036 -0.5930  0.4093
31750SOL    HW197692   7.008   6.872   8.462  0.5874 -1.1341  0.7511
31750SOL    HW297693   7.037   6.988   8.370 -0.8476 -0.9470  0.5030
31751SOL     OW97694   9.361   5.615   4.137 -0.3516 -0.4377 -0.8103
31751SOL    HW197695   9.397   5.545   4.082 -0.6809 -1.4733  0.2465
31751SOL    HW297696   9.277   5.581   4.167 -0.1904  0.1129  0.3010
31752SOL     OW97697   5.479   2.897   4.491  0.0381  0.4737 -0.7381
31752SOL    HW197698   5.464   2.879   4.398  2.1640 -0.2371 -0.9881
31752SOL    HW297699   5.429   2.829   4.537  0.9737 -0.7435 -1.4572
31753SOL     OW97700   6.027   9.050   1.514  0.3997  0.3966 -0.0630
31753SOL    HW197701   6.052   8.968   1.472 -1.0802 -1.0033  1.6362
31753SOL    HW297702   5.937   9.035   1.543 -0.1798  2.9265 -0.3672
31754SOL     OW97703   7.996   8.779   0.298  0.0477 -0.4458  0.5483
31754SOL    HW197704   8.069   8.835   0.272 -1.9631  2.3738  0.4813
31754SOL    HW297705   8.035   8.692   0.307  2.9885  0.4920 -1.3651
31755SOL     OW97706   2.712   9.713   3.394 -0.0290  0.6211  0.0515
31755SOL    HW197707   2.742   9.804   3.388 -0.2905  0.6525 -0.9857
31755SOL    HW297708   2.770   9.664   3.336  0.4111  0.0346  0.9689
31756SOL     OW97709   1.043   5.982   5.902  0.7821 -0.1156 -0.2329
31756SOL    HW197710   1.042   5.955   5.810  0.9923  1.4808 -0.7198
31756SOL    HW297711   1.063   5.901   5.950  1.8960 -0.7332 -1.6675
31757SOL     OW97712   9.099   0.230   5.483 -0.0135  0.2021 -0.1496
31757SOL    HW197713   9.091   0.325   5.491 -0.9903  0.2930 -1.7221
31757SOL    HW297714   9.169   0.206   5.544  0.3926  1.9472  0.1115
31758SOL     OW97715  10.420   1.904   6.574 -0.2970 -0.3804 -0.3921
31758SOL    HW197716  10.510   1.923   6.549 -0.3673  0.3926 -0.0859
31758SOL    HW297717  10.376   1.989   6.570 -0.7961 -0.5973  0.3220
31759SOL     OW97718   5.344   5.458   0.961 -0.2900  0.3277  0.5786
31759SOL    HW197719   5.288   5.432   1.035 -0.6716 -0.8970 -0.1106
31759SOL    HW297720   5.322   5.550   0.945 -0.8018  0.3699  1.4644
31760SOL     OW97721   7.875   4.500   9.279 -0.0868 -0.6626 -0.0096
31760SOL    HW197722   7.788   4.474   9.250  0.2019 -0.4558 -1.0981
31760SOL    HW297723   7.896   4.578   9.228  1.0957 -1.2202 -0.4227
31761SOL     OW97724   2.448   3.651   0.970  0.1885  0.2237 -0.0299
31761SOL    HW197725   2.370   3.663   0.916  0.3840 -0.5355 -0.4876
31761SOL    HW297726   2.476   3.740   0.991 -1.6216  0.5384  1.3487
31762SOL     OW97727   5.763   2.877   8.807  0.0465  0.1493 -0.6592
31762SOL    HW197728   5.692   2.817   8.829  1.4303 -1.1111  0.6469
31762SOL    HW297729   5.783   2.857   8.715  0.1472 -1.0621 -0.3879
31763SOL     OW97730   0.407   0.650   5.615 -0.1582 -0.1493 -0.3228
31763SOL    HW197731   0.452   0.609   5.540 -0.8011  0.4115 -1.0296
31763SOL    HW297732   0.478   0.668   5.677  0.6371  0.7179 -1.4179
31764SOL     OW97733   6.866   0.038   0.780  0.3557 -0.3505 -0.0056
31764SOL    HW197734   6.856  -0.055   0.758  1.5060 -0.6111  0.4738
31764SOL    HW297735   6.881   0.082   0.696  3.1433 -1.1078 -0.0206
31765SOL     OW97736   6.931   5.025   0.612  0.2693  1.0738  0.3833
31765SOL    HW197737   7.024   5.003   0.600  0.6351  2.2818  0.8615
31765SOL    HW297738   6.917   5.019   0.707  0.1005  1.8008  0.4061
31766SOL     OW97739   1.541   6.419   8.391  0.2559  0.6991 -0.6089
31766SOL    HW197740   1.583   6.343   8.351  0.8763  2.2516 -3.0723
31766SOL    HW297741   1.536   6.397   8.484  0.9635 -2.0763 -1.1430
31767SOL     OW97742   5.410   7.058   3.185 -0.4166  0.5119  0.2265
31767SOL    HW197743   5.420   6.990   3.252 -1.2024 -1.3107 -1.4213
31767SOL    HW297744   5.316   7.064   3.171 -0.2066 -0.4650 -1.9528
31768SOL     OW97745   6.415   7.487   0.771 -0.0796  0.8089 -0.0838
31768SOL    HW197746   6.473   7.481   0.847 -1.2287 -0.4393  0.7578
31768SOL    HW297747   6.430   7.574   0.736  3.3784  0.0556 -0.8554
31769SOL     OW97748   0.513   3.051   4.127  0.4462  0.2094  0.8732
31769SOL    HW197749   0.544   3.070   4.215  1.3002  1.4868  0.3409
31769SOL    HW297750   0.455   3.125   4.106  2.7762  1.7149 -0.7731
31770SOL     OW97751   5.608   4.281   0.893  0.1383 -0.9193 -0.3417
31770SOL    HW197752   5.545   4.270   0.965  0.8285 -2.9574  0.0296
31770SOL    HW297753   5.659   4.358   0.917 -1.0978 -0.2297  0.1857
31771SOL     OW97754   5.919   3.428   0.771  0.2762  0.0448  0.0773
31771SOL    HW197755   6.001   3.454   0.813 -0.0586 -0.1122  0.8420
31771SOL    HW297756   5.860   3.409   0.843  0.0107 -1.2773 -0.4629
31772SOL     OW97757   8.734   3.265   0.988  0.6703  0.1462 -0.1967
31772SOL    HW197758   8.809   3.264   1.048  0.6307 -0.3594 -0.1541
31772SOL    HW297759   8.658   3.270   1.046  0.6518  0.2208 -0.2271
31773SOL     OW97760   9.103   8.597   9.738 -0.6352  0.6294  0.0738
31773SOL    HW197761   9.036   8.623   9.801 -0.3729  0.0592  0.5997
31773SOL    HW297762   9.128   8.509   9.765 -0.8867  0.1605 -1.1336
31774SOL     OW97763   5.483   0.929   5.207  0.4002 -0.0129  0.1759
31774SOL    HW197764   5.498   0.981   5.286 -1.2580  2.1791 -0.8596
31774SOL    HW297765   5.430   0.855   5.236  1.5682 -0.3914  1.4333
31775SOL     OW97766   6.221   4.915   4.652  0.1495 -0.3843 -0.0902
31775SOL    HW197767   6.271   4.890   4.730  0.6583  0.6019 -0.0823
31775SOL    HW297768   6.229   4.840   4.593 -0.3162 -1.1781  0.8270
31776SOL     OW97769   0.256   5.255   2.638 -0.0372  0.1682 -0.3212
31776SOL    HW197770   0.214   5.319   2.697 -0.5751 -1.0264  0.6377
31776SOL    HW297771   0.290   5.308   2.566  0.7211  1.7109  1.0882
31777SOL     OW97772   8.714   5.938   9.620 -0.4370  0.1440 -0.4148
31777SOL    HW197773   8.730   6.020   9.666 -0.1874 -0.7311  1.1217
31777SOL    HW297774   8.789   5.928   9.561 -0.3161  0.8474 -0.3897
31778SOL     OW97775   6.181   8.583  10.026 -0.0372  0.2842 -0.3956
31778SOL    HW197776   6.226   8.501  10.007 -1.4262 -0.8652  0.9268
31778SOL    HW297777   6.231   8.623  10.097 -0.7088 -0.6940  0.6651
31779SOL     OW97778   9.801   9.971   7.252 -0.2621  0.2605  0.1374
31779SOL    HW197779   9.807   9.881   7.219  0.7858  0.1791  0.5068
31779SOL    HW297780   9.715  10.001   7.224 -0.4195 -0.6827 -0.4421
31780SOL     OW97781   1.533   2.181   5.059 -0.1176 -0.4014  0.2738
31780SOL    HW197782   1.467   2.156   4.993 -0.0240 -0.7648  0.3205
31780SOL    HW297783   1.551   2.101   5.107  0.7557 -0.4205 -0.0832
31781SOL     OW97784   9.914   7.883  10.236  0.1329 -0.6318  0.8223
31781SOL    HW197785   9.890   7.792  10.248  0.8796 -0.9254  0.1560
31781SOL    HW297786   9.871   7.909  10.154  1.3115 -0.8994  0.1002
31782SOL     OW97787   0.442   7.973   7.750  0.4430  0.0277 -0.1307
31782SOL    HW197788   0.435   7.881   7.725  0.7642  0.1570 -0.7290
31782SOL    HW297789   0.386   7.982   7.827 -0.4787 -0.4244 -0.7355
31783SOL     OW97790   3.950   4.273  10.430 -0.2189  0.1075  0.4950
31783SOL    HW197791   3.873   4.317  10.396 -0.8703 -2.5595 -1.8652
31783SOL    HW297792   4.020   4.337  10.423 -1.7317  1.8272  0.5096
31784SOL     OW97793   7.552   7.669   9.249 -0.7070  0.7191  0.4454
31784SOL    HW197794   7.540   7.757   9.285 -0.5410  0.3411  1.4520
31784SOL    HW297795   7.632   7.636   9.291 -0.8574  0.0267  0.2068
31785SOL     OW97796   6.073   8.839   8.251  0.0313 -0.1469 -0.0348
31785SOL    HW197797   6.119   8.895   8.313  2.1202 -1.4242 -0.3527
31785SOL    HW297798   6.011   8.789   8.304  0.3705  0.2102  0.7024
31786SOL     OW97799   6.957   9.242   6.148  0.3233  0.2002  0.3432
31786SOL    HW197800   6.913   9.284   6.222 -0.6541 -0.2827  0.0591
31786SOL    HW297801   6.885   9.211   6.092  1.0428  0.7817 -0.9365
31787SOL     OW97802   1.761   9.957   3.232  0.1779  0.5449 -0.2699
31787SOL    HW197803   1.701  10.007   3.177 -2.0487 -1.9112 -0.2490
31787SOL    HW297804   1.838   9.942   3.176 -1.1406 -0.0812 -1.9966
31788SOL     OW97805   2.234   8.546   7.279  0.2943  0.1993 -0.7954
31788SOL    HW197806   2.187   8.607   7.335 -0.1091  1.2564 -2.2273
31788SOL    HW297807   2.175   8.471   7.270  0.5726 -0.2085  0.5496
31789SOL     OW97808  10.223   6.012   3.968 -0.3478 -0.4541  0.6324
31789SOL    HW197809  10.290   5.968   3.916 -1.2710  1.3030 -2.2871
31789SOL    HW297810  10.142   5.966   3.947 -0.7214  0.1853  0.6501
31790SOL     OW97811   5.926   3.376   1.634  0.3457 -0.3124 -0.0230
31790SOL    HW197812   6.003   3.366   1.579  0.8161  1.7545  0.1998
31790SOL    HW297813   5.864   3.424   1.579  0.0215 -0.0858  0.5389
31791SOL     OW97814   4.953   1.880   5.655 -0.6526 -0.0670 -0.2511
31791SOL    HW197815   4.884   1.823   5.689 -0.6654  1.1204  1.8743
31791SOL    HW297816   5.028   1.822   5.642 -0.3587 -0.5344  2.7476
31792SOL     OW97817   3.622   0.423   5.270  0.5896 -0.2877  0.1880
31792SOL    HW197818   3.654   0.364   5.339 -1.1377 -0.1749  1.1369
31792SOL    HW297819   3.674   0.399   5.193  2.7246 -0.2951  1.5315
31793SOL     OW97820   9.286  10.138   0.503 -0.4689  0.3851  0.4812
31793SOL    HW197821   9.348  10.098   0.443 -1.7825 -0.6132 -0.2825
31793SOL    HW297822   9.293  10.087   0.584  0.4835  1.0007  0.7996
31794SOL     OW97823   6.360  10.100   7.738 -0.9423  0.2019 -0.5182
31794SOL    HW197824   6.362  10.073   7.830  1.3046  1.6051 -0.0764
31794SOL    HW297825   6.417  10.177   7.735 -0.8989  0.1415 -3.1215
31795SOL     OW97826   3.847   6.590   7.139  0.2151  0.8467 -0.2104
31795SOL    HW197827   3.769   6.557   7.095 -0.5383 -0.0804  1.7039
31795SOL    HW297828   3.874   6.667   7.088 -3.1834  2.4985  0.2318
31796SOL     OW97829   7.896   1.383   2.206 -0.1519  0.1754  0.4181
31796SOL    HW197830   7.913   1.477   2.206 -2.0493  0.5432  0.7395
31796SOL    HW297831   7.935   1.352   2.124 -1.4229  1.6292 -0.8035
31797SOL     OW97832   6.791   9.775   1.769  0.5043 -0.1653  0.0578
31797SOL    HW197833   6.840   9.815   1.697 -0.5370  0.8518 -0.1205
31797SOL    HW297834   6.699   9.792   1.747  0.0813 -1.7066  0.5629
31798SOL     OW97835   3.214   4.561   4.912 -0.0053  0.4823 -0.7228
31798SOL    HW197836   3.236   4.468   4.918 -1.7684  0.0452 -0.5506
31798SOL    HW297837   3.293   4.606   4.941  1.4616 -0.8934 -2.3975
31799SOL     OW97838   5.718   2.566   0.174 -0.5026 -0.2473 -0.2952
31799SOL    HW197839   5.723   2.661   0.186 -0.0238 -0.3483  0.3988
31799SOL    HW297840   5.625   2.547   0.161 -0.4382  0.4927 -2.0595
31800SOL     OW97841   7.986   1.114   9.925 -0.0716 -0.2030 -0.2438
31800SOL    HW197842   7.939   1.057   9.985  1.4853 -2.0846 -0.7119
31800SOL    HW297843   8.014   1.188   9.980  1.6627 -2.0562  1.5456
31801SOL     OW97844   9.339  10.082   4.162 -0.0791 -0.6509 -0.5399
31801SOL    HW197845   9.252  10.108   4.134  0.0472 -0.1401 -0.4647
31801SOL    HW297846   9.355  10.132   4.242  0.8746  0.4154 -1.3601
31802SOL     OW97847   6.074   1.014   5.983  0.0174  0.2048 -0.4378
31802SOL    HW197848   6.026   1.074   5.925  0.5806  1.4192  0.3030
31802SOL    HW297849   6.111   0.948   5.925 -2.3210 -0.6464 -1.0625
31803SOL     OW97850   7.818   9.240   3.049 -0.1727  0.1999  0.0474
31803SOL    HW197851   7.778   9.326   3.065 -0.2293  0.1515  0.1678
31803SOL    HW297852   7.893   9.237   3.109 -0.9158 -0.3491  0.9625
31804SOL     OW97853   6.503   9.549   2.971  0.5521 -0.1135  0.0222
31804SOL    HW197854   6.457   9.465   2.965  1.3806 -0.6041  0.2893
31804SOL    HW297855   6.494   9.575   3.063 -0.7930  0.7496 -0.3214
31805SOL     OW97856   8.746   9.486   6.777  0.4599  0.3238 -0.4553
31805SOL    HW197857   8.764   9.396   6.750  1.6517  0.7513 -1.1512
31805SOL    HW297858   8.688   9.477   6.853  0.7288 -1.0288 -0.3868
31806SOL     OW97859   5.459   7.336   3.065  0.7644 -0.5009 -0.1196
31806SOL    HW197860   5.539   7.348   3.117  0.9497 -0.3469 -0.4406
31806SOL    HW297861   5.427   7.250   3.091 -0.5285  0.5566  2.1315
31807SOL     OW97862  10.402   4.699   8.116 -0.4251 -0.1227  0.2527
31807SOL    HW197863  10.425   4.716   8.025  1.7170  0.8714  0.9146
31807SOL    HW297864  10.367   4.782   8.147 -0.5378 -0.2656  0.5089
31808SOL     OW97865   5.782   4.556   2.073 -0.5645 -0.3656  0.9288
31808SOL    HW197866   5.771   4.509   1.990  0.5474 -1.1774  1.2248
31808SOL    HW297867   5.759   4.647   2.052 -1.4050 -0.7733  0.0116
31809SOL     OW97868   8.865   3.768   3.044  0.0118  0.1814 -0.1695
31809SOL    HW197869   8.890   3.812   3.126 -1.1498  1.3979 -0.4244
31809SOL    HW297870   8.801   3.828   3.004 -0.9763 -1.3629 -0.9730
31810SOL     OW97871   4.151   1.760   5.463 -0.9034 -0.4688 -0.0142
31810SOL    HW197872   4.176   1.834   5.519 -0.0262 -1.0300  0.3551
31810SOL    HW297873   4.079   1.794   5.410  0.3836  1.1441 -0.8586
31811SOL     OW97874   8.606   9.018   2.696 -0.4123  0.7537 -0.5273
31811SOL    HW197875   8.690   9.059   2.720 -0.3811  0.5412 -0.2592
31811SOL    HW297876   8.559   9.012   2.779 -0.3772  0.1624 -0.5430
31812SOL     OW97877   3.580  10.233   2.144  0.2449  0.8014  0.0437
31812SOL    HW197878   3.488  10.252   2.160 -0.4904 -1.0202 -1.6129
31812SOL    HW297879   3.600  10.274   2.060  0.2949 -0.5772 -0.6518
31813SOL     OW97880   8.830   3.833   4.980 -0.0002 -0.2228 -0.5970
31813SOL    HW197881   8.788   3.893   4.918  0.6869  0.1533 -0.7147
31813SOL    HW297882   8.903   3.884   5.016  0.8044 -1.1048 -0.9562
31814SOL     OW97883   7.771   6.361  10.324  0.1559 -0.6041  0.4555
31814SOL    HW197884   7.699   6.322  10.275 -0.3336  1.1042 -0.2482
31814SOL    HW297885   7.850   6.323  10.284 -0.2866 -0.6632 -0.3855
31815SOL     OW97886   6.216   4.578   9.734 -0.2636  0.3498 -0.0197
31815SOL    HW197887   6.144   4.559   9.675  0.0339 -0.6419 -0.0746
31815SOL    HW297888   6.179   4.570   9.822  0.0325 -1.2979 -0.0218
31816SOL     OW97889   4.205   3.677   3.546  0.3156 -0.0665 -0.0449
31816SOL    HW197890   4.278   3.632   3.503  0.8471  0.8029 -0.0837
31816SOL    HW297891   4.228   3.770   3.541 -0.1874  0.1352  1.0630
31817SOL     OW97892   8.858  10.011   5.151  0.0841  0.4106 -0.0991
31817SOL    HW197893   8.838  10.089   5.100 -1.7671  0.3684  0.4982
31817SOL    HW297894   8.774   9.966   5.162  0.8633 -0.9154  0.8006
31818SOL     OW97895   7.936   8.517   1.115 -0.1080  0.0474 -0.3246
31818SOL    HW197896   7.986   8.597   1.098 -0.5204 -0.0267 -2.0328
31818SOL    HW297897   7.847   8.548   1.133 -0.0608  0.0166 -0.0277
31819SOL     OW97898   6.516   1.389   0.675 -0.3389 -0.2003 -0.2986
31819SOL    HW197899   6.432   1.432   0.662  0.1121  0.6722 -0.4542
31819SOL    HW297900   6.500   1.323   0.741 -0.7157  1.3538  1.2298
31820SOL     OW97901   4.733   5.445   4.395  0.1031  0.0859 -0.5493
31820SOL    HW197902   4.771   5.524   4.434 -0.6739 -0.5391  1.6399
31820SOL    HW297903   4.645   5.471   4.370  0.3418  0.2848 -1.1989
31821SOL     OW97904   2.713   9.334   1.884 -0.1308  0.1714 -0.1202
31821SOL    HW197905   2.764   9.367   1.811 -0.7826  1.9983  0.1826
31821SOL    HW297906   2.767   9.353   1.961 -1.1261  2.0278  0.1920
31822SOL     OW97907  10.083   6.652   9.583 -0.3461  0.3828  0.4196
31822SOL    HW197908   9.998   6.620   9.616 -0.0869  0.7309  1.4835
31822SOL    HW297909  10.129   6.680   9.662  2.0174 -2.6629  0.3065
31823SOL     OW97910   8.312   0.223   1.723  0.1901 -0.2268  0.1109
31823SOL    HW197911   8.330   0.167   1.648 -0.7711  2.1389 -2.0431
31823SOL    HW297912   8.372   0.298   1.711 -2.5401  2.0228 -0.5592
31824SOL     OW97913   3.718   6.156   1.766 -0.0705  0.3521 -0.2667
31824SOL    HW197914   3.758   6.227   1.816  0.4929 -0.2160  0.1038
31824SOL    HW297915   3.689   6.198   1.685  0.4731  0.9548 -0.1633
31825SOL     OW97916   1.614   1.202   4.406  0.3699  0.0499  0.2814
31825SOL    HW197917   1.661   1.186   4.325  1.0465 -1.4983  0.9399
31825SOL    HW297918   1.651   1.139   4.468 -0.5331  0.7972  1.6296
31826SOL     OW97919   4.154   5.684   9.534 -0.0365 -0.5446 -0.3997
31826SOL    HW197920   4.183   5.674   9.443  2.4202 -1.4511  0.3851
31826SOL    HW297921   4.187   5.769   9.561 -1.0411 -0.1339 -0.4097
31827SOL     OW97922   6.181   8.012   1.306 -0.4618 -1.0194  0.4690
31827SOL    HW197923   6.220   7.979   1.387 -1.3913 -0.1293  1.2962
31827SOL    HW297924   6.114   8.074   1.335 -1.5616 -1.4957 -0.9502
31828SOL     OW97925   8.819   0.920  10.322 -0.1930 -0.5827  0.5136
31828SOL    HW197926   8.858   0.843  10.282  0.7125  0.6410 -1.1019
31828SOL    HW297927   8.875   0.940  10.397 -0.6196 -1.6498  1.1291
31829SOL     OW97928   9.588   6.548   3.915 -0.4437 -0.2456 -0.0970
31829SOL    HW197929   9.575   6.569   3.823  2.3441 -1.9825 -1.0458
31829SOL    HW297930   9.620   6.629   3.954 -1.0379  0.3416 -0.8146
31830SOL     OW97931   6.976   5.475   1.982 -0.4043  0.6942 -0.1652
31830SOL    HW197932   7.010   5.525   1.907 -0.7229  1.6100  0.2862
31830SOL    HW297933   7.035   5.495   2.054 -1.1413  1.2795  0.2927
31831SOL     OW97934   3.281   4.944   4.350 -0.0737 -0.2339 -0.2102
31831SOL    HW197935   3.267   4.924   4.442 -0.1739 -1.2973 -0.4462
31831SOL    HW297936   3.360   4.896   4.326  1.4900  2.0831 -0.0519
31832SOL     OW97937   1.701   3.121   0.152 -0.3133  0.2935 -0.0736
31832SOL    HW197938   1.750   3.098   0.231  0.0526  0.6937 -0.1795
31832SOL    HW297939   1.693   3.216   0.157 -2.0503  0.1618  0.5125
31833SOL     OW97940   9.301   7.688   6.545 -0.3718  0.2422 -0.0428
31833SOL    HW197941   9.386   7.730   6.531  0.2817 -1.1067 -0.2124
31833SOL    HW297942   9.306   7.654   6.634 -1.4002  1.6072  0.5855
31834SOL     OW97943   7.986  10.395   4.413  0.1537  0.2683 -0.3359
31834SOL    HW197944   7.923  10.381   4.341  0.2763 -0.7653 -0.2483
31834SOL    HW297945   7.936  10.375   4.492  0.8503 -1.5727 -0.3205
31835SOL     OW97946   1.991   3.554   9.692 -0.2926  0.0330 -0.0040
31835SOL    HW197947   2.041   3.484   9.650  0.2614  0.4005  0.0383
31835SOL    HW297948   1.967   3.612   9.620 -1.1693 -0.4457 -0.1106
31836SOL     OW97949   6.093   4.465   6.387 -0.2107 -0.1166 -0.0326
31836SOL    HW197950   6.154   4.538   6.398 -1.0298  0.5226  0.4020
31836SOL    HW297951   6.040   4.489   6.311  0.3339 -0.8665 -0.6683
31837SOL     OW97952   2.834   2.433   3.955 -0.5348  0.1853  0.0471
31837SOL    HW197953   2.917   2.391   3.973  0.4593  0.5761 -3.0156
31837SOL    HW297954   2.771   2.361   3.947 -0.5387 -0.1178  2.1783
31838SOL     OW97955   6.975   4.912  10.447  0.5210 -0.5173 -0.0641
31838SOL    HW197956   6.959   4.965  10.525 -0.7710 -0.1892 -0.5262
31838SOL    HW297957   6.963   4.973  10.374 -1.4717 -1.5074 -0.6248
31839SOL     OW97958   8.637   0.277   9.812  0.9201  0.4333  0.6591
31839SOL    HW197959   8.661   0.188   9.841 -1.2539  0.0666  1.5675
31839SOL    HW297960   8.706   0.333   9.847  0.9671 -0.6236  2.4156
31840SOL     OW97961   1.570   0.589  10.350 -0.1106  0.3066 -0.0597
31840SOL    HW197962   1.594   0.501  10.378  1.3282  0.6299 -0.1990
31840SOL    HW297963   1.484   0.579  10.309 -0.6307 -0.7624  1.2347
31841SOL     OW97964   0.433   3.679   3.303  0.1805 -0.8043  0.4060
31841SOL    HW197965   0.462   3.667   3.212  0.0451 -0.0741  0.2541
31841SOL    HW297966   0.455   3.597   3.346  1.2771 -0.7577 -0.0181
31842SOL     OW97967   7.855   4.061   7.350  0.9571  0.5648  0.0051
31842SOL    HW197968   7.939   4.057   7.305 -0.6237 -0.1126 -3.1234
31842SOL    HW297969   7.809   4.134   7.310 -0.0164  0.9004  1.6269
31843SOL     OW97970   7.630   0.470   4.494 -0.3746  0.3246  0.0076
31843SOL    HW197971   7.641   0.541   4.431 -2.5410  0.9223  0.2240
31843SOL    HW297972   7.590   0.399   4.443  0.0593 -0.0627  0.2018
31844SOL     OW97973   4.113   4.600   3.009 -0.0132 -0.3202  0.2190
31844SOL    HW197974   4.066   4.662   2.953 -0.2661  0.2009  0.9977
31844SOL    HW297975   4.090   4.625   3.098  2.4599  0.5359  0.6843
31845SOL     OW97976   2.832   6.429   9.746 -0.1660  0.1537 -0.0960
31845SOL    HW197977   2.805   6.502   9.689 -0.0644  0.4210  0.1959
31845SOL    HW297978   2.908   6.392   9.702  1.9397  2.3644  1.4404
31846SOL     OW97979   3.647   1.802   9.576 -0.3931 -0.1731  0.3337
31846SOL    HW197980   3.741   1.785   9.563 -0.7132 -0.8905 -1.3186
31846SOL    HW297981   3.640   1.833   9.666  1.5667  0.8003  0.2084
31847SOL     OW97982   9.099   8.154  10.266 -0.0150  0.6282 -0.4903
31847SOL    HW197983   9.054   8.158  10.182  0.0617 -0.5022 -0.5963
31847SOL    HW297984   9.192   8.168  10.244 -0.0669  0.9246 -0.5209
31848SOL     OW97985  10.081   6.721   4.101 -0.2858 -0.7787 -0.4962
31848SOL    HW197986  10.084   6.741   4.195  2.2206 -0.8546 -0.5110
31848SOL    HW297987  10.110   6.801   4.058  2.9018 -2.0319 -0.9049
31849SOL     OW97988   8.380   2.915   1.569  0.2184  0.3863 -0.1543
31849SOL    HW197989   8.306   2.881   1.619 -0.7417 -0.3281 -1.9989
31849SOL    HW297990   8.380   3.009   1.587 -0.1988  0.1830  1.0204
31850SOL     OW97991   3.650   2.136   4.961  0.1676 -0.0928  1.1680
31850SOL    HW197992   3.695   2.220   4.965  0.1236 -0.0348  0.4691
31850SOL    HW297993   3.716   2.074   4.930 -0.7638  0.4221 -2.2052
31851SOL     OW97994   4.827   5.451   6.563 -0.3348 -0.1571 -0.1970
31851SOL    HW197995   4.792   5.521   6.509 -3.4424 -0.3616  1.3696
31851SOL    HW297996   4.801   5.370   6.517 -2.6027 -0.3203  1.2338
31852SOL     OW97997   7.460   5.583   8.356  0.0430  0.9299 -0.0455
31852SOL    HW197998   7.478   5.672   8.386  2.3901  0.2120  0.8727
31852SOL    HW297999   7.416   5.541   8.429 -3.2399  1.8723 -1.2857
31853SOL     OW98000   8.641  10.435   3.693 -0.1939  0.0178  0.1917
31853SOL    HW198001   8.700  10.479   3.754 -0.2241  2.3940 -1.3478
31853SOL    HW298002   8.555  10.476   3.708 -1.5412 -3.1714  2.1963
31854SOL     OW98003   0.697   0.773   4.898  0.1134 -0.1430  0.1273
31854SOL    HW198004   0.731   0.838   4.959  0.9115 -0.1216 -0.3400
31854SOL    HW298005   0.620   0.814   4.859 -0.1492  0.0103  0.7957
31855SOL     OW98006   1.829  10.350   2.133  0.6189 -0.3469  0.2987
31855SOL    HW198007   1.867  10.409   2.198 -0.1552  0.5339 -0.0251
31855SOL    HW298008   1.735  10.365   2.139  0.5416 -0.0419 -1.1892
31856SOL     OW98009   5.399   0.859   7.512  0.6511 -0.0474 -0.2640
31856SOL    HW198010   5.365   0.773   7.490 -1.2952  0.6844 -0.3307
31856SOL    HW298011   5.404   0.859   7.608 -0.6347  0.1803 -0.1761
31857SOL     OW98012   5.912   7.763   1.739 -0.5218 -0.1430 -0.6062
31857SOL    HW198013   5.840   7.710   1.773 -0.4173  0.4663  0.6516
31857SOL    HW298014   5.871   7.846   1.714 -0.3490  0.0110 -0.3876
31858SOL     OW98015   2.787  10.243   1.748 -0.2885  0.3865 -0.2238
31858SOL    HW198016   2.743  10.324   1.772 -0.5021  0.3606 -0.5239
31858SOL    HW298017   2.782  10.240   1.652 -0.0783  0.1341 -0.2298
31859SOL     OW98018   1.693   0.872   4.055  0.1341  0.5440  0.0991
31859SOL    HW198019   1.730   0.829   4.133  1.0809  0.8069 -0.2007
31859SOL    HW298020   1.672   0.799   3.996 -1.9989  0.2041  1.1450
31860SOL     OW98021   8.347   6.421   3.369  0.0596 -0.2160  0.1101
31860SOL    HW198022   8.315   6.352   3.312 -1.8055 -0.2934  1.1560
31860SOL    HW298023   8.318   6.502   3.328 -0.8665 -0.2518  0.6529
31861SOL     OW98024   6.627   7.642   1.191  0.2680  0.2238 -0.8133
31861SOL    HW198025   6.577   7.616   1.269 -0.3819 -3.2836 -2.2298
31861SOL    HW298026   6.715   7.607   1.205 -0.0417 -1.0608 -1.8839
31862SOL     OW98027   4.578   8.720   8.948 -1.2039 -0.0884  0.1493
31862SOL    HW198028   4.551   8.784   8.882  1.6967  1.3558  0.1682
31862SOL    HW298029   4.566   8.635   8.906 -2.7277  0.6016 -0.8849
31863SOL     OW98030   9.184   0.641   6.199  0.0161  0.1166  0.3489
31863SOL    HW198031   9.110   0.630   6.258  0.2747 -0.9685  0.4948
31863SOL    HW298032   9.232   0.715   6.235  0.3951 -0.7800  1.7827
31864SOL     OW98033   8.724   3.056   5.302  0.3077  0.5490 -0.1505
31864SOL    HW198034   8.686   3.143   5.312 -1.6904 -0.1599 -1.1536
31864SOL    HW298035   8.769   3.040   5.385 -2.1861  1.1789  1.4285
31865SOL     OW98036   1.968   2.134   9.602 -0.4008 -0.4167  0.0930
31865SOL    HW198037   1.891   2.188   9.618 -0.2640  0.4842 -1.9798
31865SOL    HW298038   1.956   2.101   9.513  1.1793 -0.9887  0.0675
31866SOL     OW98039   0.701   4.545   3.943  0.0977 -0.1046  0.0423
31866SOL    HW198040   0.770   4.489   3.978 -0.1263 -1.0650 -0.9782
31866SOL    HW298041   0.638   4.484   3.904 -0.3570  0.8393 -0.7405
31867SOL     OW98042   0.628   9.631   7.233 -0.0615 -0.4365  0.0295
31867SOL    HW198043   0.699   9.683   7.272  0.6635 -0.8192 -0.7314
31867SOL    HW298044   0.642   9.640   7.139 -0.2023 -1.6215 -0.1157
31868SOL     OW98045   6.067   6.933   6.485  0.4390 -0.5063 -0.1561
31868SOL    HW198046   6.154   6.940   6.525  0.8946 -0.0465 -1.1958
31868SOL    HW298047   6.020   6.870   6.540  1.0864  0.0019  1.0054
31869SOL     OW98048   0.142   8.163   4.159  0.0171 -0.4961  0.1520
31869SOL    HW198049   0.046   8.167   4.156 -0.0677 -0.1939  1.9155
31869SOL    HW298050   0.170   8.251   4.135 -0.2143 -0.2158  0.8829
31870SOL     OW98051  10.381   8.866   7.346  0.1742 -0.1385  0.2445
31870SOL    HW198052  10.318   8.903   7.408 -0.2692  1.1500 -0.9406
31870SOL    HW298053  10.349   8.893   7.260  1.5528 -0.6965 -0.4670
31871SOL     OW98054   1.147   2.752   8.106 -0.4277 -0.3476 -0.3180
31871SOL    HW198055   1.235   2.774   8.137 -0.0626  0.4364 -1.8325
31871SOL    HW298056   1.153   2.757   8.011 -2.3292  0.5184 -0.4326
31872SOL     OW98057   6.002   7.781   9.776  0.2148 -0.1377 -0.1690
31872SOL    HW198058   5.938   7.796   9.708  0.1126  0.9853  0.1481
31872SOL    HW298059   6.034   7.692   9.761 -0.7683 -0.3839 -0.8559
31873SOL     OW98060   2.889   6.455   3.071  0.1403 -0.2821  0.1343
31873SOL    HW198061   2.899   6.360   3.077  0.3490 -0.1977  1.2974
31873SOL    HW298062   2.855   6.470   2.983  2.3331 -1.2649 -0.9718
31874SOL     OW98063   9.694   3.071   6.871 -0.1729  0.1793 -0.5208
31874SOL    HW198064   9.782   3.052   6.839  0.0494 -1.2321  0.7762
31874SOL    HW298065   9.700   3.158   6.910  0.5543  0.2329 -0.7545
31875SOL     OW98066   0.889  10.356   4.922  0.4132  0.0029  0.5058
31875SOL    HW198067   0.880  10.274   4.873 -0.1730 -0.0648  0.7114
31875SOL    HW298068   0.855  10.335   5.009 -0.6059  0.7041  0.2957
31876SOL     OW98069   7.966   0.938   1.645 -0.2351  0.2281  0.2883
31876SOL    HW198070   8.047   0.888   1.653 -0.0218  0.4309 -0.5011
31876SOL    HW298071   7.923   0.927   1.729  0.5165 -0.0491  0.6470
31877SOL     OW98072  10.016   7.206  10.481 -0.6193  0.0770  0.2314
31877SOL    HW198073  10.081   7.214  10.411 -0.5419  0.3419  0.3303
31877SOL    HW298074   9.989   7.115  10.479  0.6172 -0.3432  0.9505
31878SOL     OW98075   1.192   4.817   0.637 -0.0661 -0.4404  0.2642
31878SOL    HW198076   1.218   4.880   0.704 -0.6941  1.7032 -1.3718
31878SOL    HW298077   1.229   4.852   0.556  0.6486 -2.9113 -0.5748
31879SOL     OW98078   5.608   2.017   1.502 -0.0221 -0.6809  0.1227
31879SOL    HW198079   5.602   2.074   1.578 -0.6442 -0.8405  0.1926
31879SOL    HW298080   5.548   1.945   1.520 -0.5218 -0.4884 -0.7120
31880SOL     OW98081   4.878   5.302   9.824 -0.0328 -0.2968 -0.8638
31880SOL    HW198082   4.940   5.366   9.789  0.5649 -0.3114  0.1545
31880SOL    HW298083   4.893   5.224   9.771  0.7982 -0.2943 -0.6447
31881SOL     OW98084   7.483  10.443   3.917 -0.3333 -0.4156  0.1699
31881SOL    HW198085   7.544  10.379   3.880  0.6046  0.3967  0.2400
31881SOL    HW298086   7.487  10.517   3.856 -5.3673 -2.2278 -2.9834
31882SOL     OW98087   6.902   4.029   3.942  0.2183  0.1914 -0.7865
31882SOL    HW198088   6.945   4.097   3.994 -1.0994  0.2643  0.2590
31882SOL    HW298089   6.964   4.010   3.872  0.6584  2.4313 -1.0813
31883SOL     OW98090   1.116   3.544   6.275  0.0058 -0.4137  0.1302
31883SOL    HW198091   1.023   3.531   6.259  0.0184 -0.8650  0.4075
31883SOL    HW298092   1.125   3.541   6.371  0.7670 -3.7846  0.0765
31884SOL     OW98093   5.179   6.558   8.453  1.1696  0.3762 -0.2021
31884SOL    HW198094   5.179   6.647   8.488  0.0030  0.0006  0.7979
31884SOL    HW298095   5.249   6.513   8.501  1.1902  0.5107 -0.1063
31885SOL     OW98096   5.690   1.857   8.345  0.3133 -0.0863  0.4533
31885SOL    HW198097   5.737   1.836   8.426  1.3145  1.1247  0.2147
31885SOL    HW298098   5.647   1.940   8.363 -2.5572 -1.5675  0.9561
31886SOL     OW98099   1.235   6.448   7.833  0.1332 -0.1937  0.3733
31886SOL    HW198100   1.193   6.519   7.784  0.7220  0.5762  0.9502
31886SOL    HW298101   1.306   6.419   7.776 -1.0814 -1.4425 -0.5687
31887SOL     OW98102   6.512   1.755   2.960  0.1492  0.8361  0.0748
31887SOL    HW198103   6.533   1.683   3.020 -0.3216  1.3848  0.9163
31887SOL    HW298104   6.557   1.732   2.879  0.2818 -0.2426  0.4331
31888SOL     OW98105   7.502   2.804   3.687 -0.9446 -0.5263 -0.7540
31888SOL    HW198106   7.539   2.723   3.722 -0.5820 -0.0477  0.0203
31888SOL    HW298107   7.562   2.872   3.717 -1.3149  0.0401 -1.2784
31889SOL     OW98108   6.695   4.955   5.042  0.1794 -0.1126 -1.0349
31889SOL    HW198109   6.634   4.900   4.992 -0.3780  0.2489 -0.7651
31889SOL    HW298110   6.690   4.920   5.131 -0.4535  0.5951 -0.7836
31890SOL     OW98111   3.684   1.273   2.122 -0.8770  0.1426 -0.6139
31890SOL    HW198112   3.678   1.368   2.134 -2.0791 -0.1019  1.0475
31890SOL    HW298113   3.639   1.257   2.039  0.6170  1.1350 -1.6605
31891SOL     OW98114   8.402   7.361   4.347  0.2745 -0.3437 -0.2512
31891SOL    HW198115   8.320   7.386   4.306  0.2735  1.1223  0.5467
31891SOL    HW298116   8.423   7.275   4.311 -1.4364 -0.5990 -0.6977
31892SOL     OW98117   5.540   5.945   7.106 -0.0989  0.5028 -0.3489
31892SOL    HW198118   5.566   5.858   7.137  1.4039  0.9361 -0.3331
31892SOL    HW298119   5.561   5.943   7.012  0.1749  0.9415 -0.2951
31893SOL     OW98120   7.350   3.338   5.258  0.1329  0.2582 -0.0171
31893SOL    HW198121   7.350   3.433   5.244 -0.3894  0.3165  0.3733
31893SOL    HW298122   7.356   3.327   5.353  2.5203 -0.1313 -0.1512
31894SOL     OW98123   5.563   4.383   5.673 -0.0463  0.2479 -0.0216
31894SOL    HW198124   5.527   4.341   5.751  0.4774 -0.2830 -0.0527
31894SOL    HW298125   5.571   4.311   5.610 -0.8733  0.7474 -0.7204
31895SOL     OW98126   2.341   1.689   8.255  0.7278  0.2842  0.0620
31895SOL    HW198127   2.360   1.735   8.336 -1.4249  1.1784  0.1137
31895SOL    HW298128   2.346   1.757   8.187  1.2036 -0.1899 -0.3942
31896SOL     OW98129   3.476   8.057   1.524  0.4336  0.0982  0.3825
31896SOL    HW198130   3.442   8.146   1.512  1.7500  0.7930  1.5626
31896SOL    HW298131   3.429   8.023   1.600 -0.9539 -0.7130 -0.7862
31897SOL     OW98132   8.585   7.794   6.291 -0.0495 -0.4189  0.0902
31897SOL    HW198133   8.535   7.747   6.224  1.4270 -0.1668 -1.2496
31897SOL    HW298134   8.520   7.849   6.335 -0.8211  0.7642 -2.3437
31898SOL     OW98135   4.430   8.462   2.437  0.5361 -0.0785 -0.4064
31898SOL    HW198136   4.453   8.436   2.526 -1.0443 -0.0808  0.0379
31898SOL    HW298137   4.490   8.533   2.416 -0.0748  0.9949  1.2798
31899SOL     OW98138   4.286   4.619   0.198 -0.7353  0.0849  0.2909
31899SOL    HW198139   4.212   4.623   0.259  0.1444 -1.1818  1.4969
31899SOL    HW298140   4.361   4.647   0.250  0.1075 -1.4349 -0.0667
31900SOL     OW98141  10.335   2.089   6.046  0.2670 -0.4112  0.1599
31900SOL    HW198142  10.283   2.093   5.965  0.0286 -0.0371  0.3254
31900SOL    HW298143  10.396   2.017   6.032  0.0753 -0.4970 -0.2641
31901SOL     OW98144   9.152   9.742   9.638 -0.3157 -0.1140  0.3717
31901SOL    HW198145   9.100   9.822   9.634  1.4068  1.1506  1.7013
31901SOL    HW298146   9.239   9.768   9.609  0.1091 -1.7141  0.0893
31902SOL     OW98147   2.490   4.773   5.584  0.2343 -0.2955 -0.4565
31902SOL    HW198148   2.436   4.733   5.652 -1.2159 -0.0796 -1.4466
31902SOL    HW298149   2.578   4.737   5.599 -0.1637 -0.6339  1.2059
31903SOL     OW98150   7.492   5.826   9.518 -0.2861 -0.8334  0.1868
31903SOL    HW198151   7.501   5.735   9.492 -1.1645 -0.9587  0.2733
31903SOL    HW298152   7.510   5.826   9.612  0.9054 -0.7095 -0.0287
31904SOL     OW98153   7.722  10.243   0.840 -0.3413 -0.3178 -0.2449
31904SOL    HW198154   7.817  10.240   0.842 -0.3268  0.1270  1.9939
31904SOL    HW298155   7.697  10.167   0.787  1.2345 -0.1384 -1.3177
31905SOL     OW98156   2.016   2.670   8.608  0.2571  0.1439  0.4654
31905SOL    HW198157   1.941   2.729   8.615 -0.1403 -0.3317  0.2429
31905SOL    HW298158   2.083   2.710   8.663  0.0849  0.9444  0.1012
31906SOL     OW98159   4.053   3.835   8.570 -0.7243  0.1155  0.0414
31906SOL    HW198160   4.096   3.761   8.612  0.6729  0.9780  0.1828
31906SOL    HW298161   4.011   3.882   8.642 -2.6179 -1.1395 -0.1869
31907SOL     OW98162   0.070   7.530   5.077  0.1937  0.0745  0.2533
31907SOL    HW198163  -0.019   7.567   5.078 -0.1164 -0.6800  1.2549
31907SOL    HW298164   0.119   7.584   5.139 -0.0589 -0.6768  1.1230
31908SOL     OW98165   5.085   8.733   8.926  0.2594 -0.1987 -0.3376
31908SOL    HW198166   5.095   8.638   8.928  0.8646 -0.1780 -1.4557
31908SOL    HW298167   5.005   8.750   8.976 -1.1974 -1.4866 -2.0815
31909SOL     OW98168   1.264   0.432   3.304  0.3079 -0.0009 -0.3729
31909SOL    HW198169   1.359   0.423   3.316  0.0964 -0.1523  1.6442
31909SOL    HW298170   1.251   0.524   3.283  0.8312  0.2780  0.4767
31910SOL     OW98171   2.600  10.353   4.553 -0.1454 -0.2822 -0.0967
31910SOL    HW198172   2.549  10.309   4.485 -0.9616  0.8493 -0.2437
31910SOL    HW298173   2.610  10.442   4.521 -0.5086  0.2564  1.2331
31911SOL     OW98174   7.583   0.084   4.135  0.1421  0.2876 -0.2152
31911SOL    HW198175   7.664   0.096   4.085  0.6447 -1.4340  0.1209
31911SOL    HW298176   7.516   0.067   4.070  0.2245  0.8001 -0.4412
31912SOL     OW98177   7.206   8.996   5.478 -0.2547  0.2826 -0.5138
31912SOL    HW198178   7.194   9.001   5.572 -4.0662  0.0216 -0.8545
31912SOL    HW298179   7.260   8.918   5.465 -0.3470 -0.1434  1.4019
31913SOL     OW98180  10.386   2.467   7.760  0.1387  0.4093 -0.0179
31913SOL    HW198181  10.466   2.519   7.764  0.7494 -0.5504  0.5478
31913SOL    HW298182  10.378   2.428   7.847 -0.8819  0.4016 -0.1046
31914SOL     OW98183   5.238   5.621   0.627 -0.3386 -0.3580 -0.5365
31914SOL    HW198184   5.217   5.649   0.538 -0.7128  1.4809  0.0863
31914SOL    HW298185   5.291   5.692   0.662  1.5112 -1.9499  0.1015
31915SOL     OW98186   5.455   2.159   8.766 -0.1230  0.1794  0.1082
31915SOL    HW198187   5.461   2.080   8.819  0.4443 -0.0843 -0.3335
31915SOL    HW298188   5.363   2.185   8.770 -0.4581 -0.9148 -0.3371
31916SOL     OW98189   0.539   6.457   4.745 -0.2486 -0.4039 -0.1321
31916SOL    HW198190   0.448   6.431   4.728 -0.1094 -0.3334 -1.0130
31916SOL    HW298191   0.533   6.546   4.780 -0.5401 -0.5565  0.2143
31917SOL     OW98192   2.978   7.679   6.068 -0.4018 -0.2044  0.3730
31917SOL    HW198193   2.951   7.668   6.159 -1.4732  1.3165  0.2922
31917SOL    HW298194   3.032   7.758   6.069 -1.5785  0.6452 -0.4865
31918SOL     OW98195   5.393   2.566   8.254 -0.0979 -0.2115 -0.2687
31918SOL    HW198196   5.308   2.539   8.287  0.4696 -2.5997 -0.5537
31918SOL    HW298197   5.448   2.574   8.333 -0.0177 -1.0289 -0.2244
31919SOL     OW98198   0.071   8.292   5.961  0.1119 -0.2762 -0.2428
31919SOL    HW198199   0.054   8.243   6.041  0.8690 -1.0070 -0.5097
31919SOL    HW298200   0.155   8.258   5.929 -0.4021 -0.3574 -1.5986
31920SOL     OW98201   5.326   5.706   6.442  0.0679  0.2688  0.3118
31920SOL    HW198202   5.336   5.748   6.357 -0.4343 -0.1021  0.0617
31920SOL    HW298203   5.391   5.636   6.442 -1.2200 -1.0085 -0.5956
31921SOL     OW98204   2.523   8.867   0.082  0.1261 -0.2697  0.2110
31921SOL    HW198205   2.570   8.836   0.004 -1.2589  2.0065 -1.6426
31921SOL    HW298206   2.455   8.801   0.097  0.9246 -1.1612  0.0786
31922SOL     OW98207   9.192   8.096   1.803  0.1760 -0.2681  0.3693
31922SOL    HW198208   9.234   8.019   1.765 -2.7457 -0.9446 -1.9061
31922SOL    HW298209   9.225   8.169   1.752  1.0622 -0.3096  0.8618
31923SOL     OW98210   2.873   1.459   0.125  0.3122  0.1865 -0.6231
31923SOL    HW198211   2.893   1.486   0.215 -1.4627  0.8431 -0.3971
31923SOL    HW298212   2.843   1.539   0.082 -1.2958 -0.6167 -1.0587
31924SOL     OW98213   2.782   1.801   9.090 -0.5680  0.1195  0.2426
31924SOL    HW198214   2.804   1.849   9.010 -2.1206 -0.2849 -0.4674
31924SOL    HW298215   2.717   1.737   9.062 -0.4468 -0.6576  1.6665
31925SOL     OW98216   8.639   1.308   1.387 -0.2963  0.1912  0.1611
31925SOL    HW198217   8.566   1.274   1.438 -0.5450 -1.0031 -0.9356
31925SOL    HW298218   8.632   1.264   1.302  0.1188  2.0965 -0.9115
31926SOL     OW98219   9.926   5.534   8.034 -0.4469  0.2216  0.3478
31926SOL    HW198220   9.842   5.578   8.021 -0.4918  0.2378  0.6911
31926SOL    HW298221   9.934   5.524   8.129 -0.2762 -0.1995  0.2899
31927SOL     OW98222   0.111   6.409   8.756 -0.3701 -0.4095 -0.2953
31927SOL    HW198223   0.196   6.372   8.733 -0.0120 -0.5325  1.1463
31927SOL    HW298224   0.106   6.401   8.851 -1.4764  0.7218 -0.2313
31928SOL     OW98225   7.326   7.090   8.983 -0.1140 -0.4972 -0.2020
31928SOL    HW198226   7.327   7.130   8.897  1.8887 -1.5863 -0.7397
31928SOL    HW298227   7.416   7.095   9.014 -0.4779 -1.5442  1.1557
31929SOL     OW98228   8.387   4.451   6.107  0.3921  0.2694  0.1933
31929SOL    HW198229   8.367   4.531   6.154 -1.6989 -0.2529  0.2648
31929SOL    HW298230   8.419   4.481   6.022 -0.9994  1.2019 -0.0333
31930SOL     OW98231   9.585  10.225   9.011 -0.1598 -0.8606  0.0809
31930SOL    HW198232   9.500  10.238   9.053  0.1665  2.8335 -0.1392
31930SOL    HW298233   9.647  10.216   9.084 -0.0488  2.2067  0.4635
31931SOL     OW98234   9.131   7.310   0.074  0.4169  0.6254 -0.2777
31931SOL    HW198235   9.225   7.289   0.069  0.1400 -0.4632 -2.3832
31931SOL    HW298236   9.098   7.257   0.146  1.5448  1.7209  1.1046
31932SOL     OW98237   9.205   4.205   1.447  0.0152  0.1932 -0.7728
31932SOL    HW198238   9.110   4.200   1.440  0.0481  0.0099 -1.1181
31932SOL    HW298239   9.235   4.235   1.361  0.2549  0.4831 -0.5924
31933SOL     OW98240   7.697   3.165   7.558  0.0606  0.1424  0.2143
31933SOL    HW198241   7.668   3.253   7.534 -0.3079 -0.0200  0.0599
31933SOL    HW298242   7.744   3.133   7.481 -3.0872 -1.2743 -1.2840
31934SOL     OW98243   0.375   0.337   7.629 -0.5262  0.3554  0.9351
31934SOL    HW198244   0.430   0.342   7.707  0.7963 -1.0782  0.1594
31934SOL    HW298245   0.403   0.411   7.575  0.6304 -0.3029  0.5916
31935SOL     OW98246   2.122   0.219   5.850  0.2303  0.6283 -0.2691
31935SOL    HW198247   2.167   0.275   5.913  1.9168 -1.6026  0.6815
31935SOL    HW298248   2.159   0.244   5.765  2.2593 -0.0994  0.3318
31936SOL     OW98249   8.011   6.056   2.668  0.0780 -0.1641 -0.4573
31936SOL    HW198250   8.030   6.123   2.733  0.0169  1.4542 -2.0354
31936SOL    HW298251   8.076   5.988   2.685  0.7523  0.6973  0.5948
31937SOL     OW98252   4.358   0.622   2.118 -0.1614  0.2784 -0.3800
31937SOL    HW198253   4.439   0.628   2.068 -0.8132  2.4828 -1.2765
31937SOL    HW298254   4.302   0.691   2.083 -1.1433  1.1130  2.5427
31938SOL     OW98255   1.401   7.057   4.487 -0.2459 -0.5615  0.4351
31938SOL    HW198256   1.376   7.066   4.395 -1.6039  1.0193  0.9150
31938SOL    HW298257   1.331   7.005   4.526 -0.6078  0.2528  0.9072
31939SOL     OW98258  10.000   1.206   0.089 -0.3203 -0.1889 -0.1907
31939SOL    HW198259   9.952   1.179   0.167 -1.3530  2.1963  0.0832
31939SOL    HW298260   9.942   1.187   0.016 -0.4251 -0.0616 -0.1399
31940SOL     OW98261   2.959   1.658   7.920 -0.3866 -0.3916 -0.1466
31940SOL    HW198262   2.944   1.659   8.015 -0.5333  1.2880 -0.1552
31940SOL    HW298263   2.927   1.743   7.890 -0.2441 -0.8595 -1.6963
31941SOL     OW98264   5.182   3.203   8.295 -0.8694 -0.1181  0.0269
31941SOL    HW198265   5.133   3.172   8.371 -0.1818 -0.0854  0.4853
31941SOL    HW298266   5.254   3.142   8.285  0.4866  1.2675  0.9239
31942SOL     OW98267   7.386   1.345   1.682  0.0077  0.0693  0.4198
31942SOL    HW198268   7.344   1.268   1.643 -0.4297 -0.0498  1.1195
31942SOL    HW298269   7.319   1.384   1.738  1.0346 -0.5638  2.1793
31943SOL     OW98270   7.969   9.863   3.519 -0.0364  0.4773 -0.6137
31943SOL    HW198271   8.042   9.856   3.579  0.5316  1.7670 -1.1252
31943SOL    HW298272   7.965   9.778   3.476  1.0736  0.3437 -0.4739
31944SOL     OW98273   4.002   7.998   3.026  0.0944 -0.1260  0.7373
31944SOL    HW198274   4.041   7.916   3.058  2.2664  1.1661  1.5958
31944SOL    HW298275   4.005   7.990   2.931  1.2313 -0.6457  0.8006
31945SOL     OW98276   4.577   7.806   6.615 -0.0798 -0.2444 -0.5465
31945SOL    HW198277   4.621   7.771   6.693  0.6162  0.0570 -0.7983
31945SOL    HW298278   4.614   7.894   6.604 -1.2408  0.2756 -0.3749
31946SOL     OW98279   9.153   1.271   8.889  0.3693 -0.6101 -0.2657
31946SOL    HW198280   9.095   1.203   8.921 -2.0638  1.7127  0.6902
31946SOL    HW298281   9.226   1.271   8.950 -1.0540 -0.5022  1.5306
31947SOL     OW98282   5.956   7.369   1.820  0.1466  0.0960  0.4489
31947SOL    HW198283   6.020   7.434   1.850  0.9266 -0.9057  1.0356
31947SOL    HW298284   6.009   7.295   1.790 -0.6824  0.3575 -1.7869
31948SOL     OW98285   0.738   1.472   3.452  0.3352  0.1666  0.1323
31948SOL    HW198286   0.806   1.412   3.483  1.2380  0.7983 -0.5798
31948SOL    HW298287   0.753   1.478   3.358 -0.5549  0.5249  0.0061
31949SOL     OW98288   6.549  10.311   9.904  0.0768 -0.1111  0.2324
31949SOL    HW198289   6.586  10.270   9.982 -0.9617 -0.3611  0.6002
31949SOL    HW298290   6.522  10.238   9.849  0.9783  0.0615 -0.4635
31950SOL     OW98291   3.174   0.443  10.142 -0.2961 -0.6689 -0.2446
31950SOL    HW198292   3.106   0.475  10.202 -0.4892 -1.6590  0.0923
31950SOL    HW298293   3.218   0.373  10.191  0.2558 -0.7583 -0.8607
31951SOL     OW98294   0.480   3.846   9.983 -0.2608  0.0170 -0.2889
31951SOL    HW198295   0.428   3.896  10.045 -0.6463 -0.3267 -0.3323
31951SOL    HW298296   0.428   3.769   9.964  0.2822 -0.3558 -0.3006
31952SOL     OW98297  10.392   0.394   2.955  0.3780  1.1334 -0.1613
31952SOL    HW198298  10.485   0.397   2.978  0.4452 -2.3905  0.5942
31952SOL    HW298299  10.356   0.327   3.013 -2.0878  0.5758 -2.2095
31953SOL     OW98300   9.597   8.614   7.364 -0.0605  0.2795 -0.4560
31953SOL    HW198301   9.676   8.560   7.367 -1.1220 -1.3209  1.1981
31953SOL    HW298302   9.531   8.562   7.409 -1.3892  2.6556  0.5327
31954SOL     OW98303   4.755   8.648   0.770 -0.2835 -0.0449 -0.2513
31954SOL    HW198304   4.683   8.694   0.727  0.3158 -0.2124 -1.4667
31954SOL    HW298305   4.713   8.594   0.836 -1.1372  1.0464  0.1266
31955SOL     OW98306  10.443   2.369   4.371 -0.1505  0.0280  0.0634
31955SOL    HW198307  10.517   2.308   4.381  0.1510  0.2858 -0.5355
31955SOL    HW298308  10.396   2.337   4.294  0.7360  1.2632 -1.0427
31956SOL     OW98309   6.401   0.657   6.398  0.0806 -0.1165 -0.3609
31956SOL    HW198310   6.399   0.686   6.489 -1.5075 -0.7832 -0.1648
31956SOL    HW298311   6.427   0.564   6.403 -0.8278 -0.3819 -0.5181
31957SOL     OW98312   5.084   8.043   8.892  0.4164 -0.0840  0.0153
31957SOL    HW198313   5.148   8.108   8.918 -0.6291  1.7370 -1.6878
31957SOL    HW298314   5.132   7.983   8.835  0.8891  0.5309 -0.2418
31958SOL     OW98315   6.829   0.998   9.244  0.4950  0.2623  0.0513
31958SOL    HW198316   6.872   0.913   9.247  0.0581  0.0640  1.3698
31958SOL    HW298317   6.880   1.050   9.181  1.0673 -0.7946 -0.3683
31959SOL     OW98318   7.844   9.448   2.788  0.8333 -0.2174  0.2100
31959SOL    HW198319   7.860   9.509   2.859  1.2569 -1.6850  1.4360
31959SOL    HW298320   7.918   9.460   2.728  0.4343  1.0811 -0.0380
31960SOL     OW98321   0.447   3.620   0.659 -0.4934  0.2994 -0.1378
31960SOL    HW198322   0.491   3.637   0.576  0.2677 -1.3530 -0.1117
31960SOL    HW298323   0.354   3.621   0.637 -0.2874 -0.9848 -1.2433
31961SOL     OW98324   5.574   5.286   4.985 -0.1592  0.0091 -0.5226
31961SOL    HW198325   5.575   5.212   4.924 -0.2160 -2.1444  1.9160
31961SOL    HW298326   5.629   5.257   5.058 -2.8155  0.9902  2.0299
31962SOL     OW98327   8.056   8.303   3.819 -0.3757  0.3426  0.9191
31962SOL    HW198328   8.077   8.212   3.800  0.2639  0.3515  1.5161
31962SOL    HW298329   7.971   8.318   3.777 -0.8018 -0.7173  1.3584
31963SOL     OW98330   1.801   5.548   8.480 -0.7624 -0.5345 -0.4583
31963SOL    HW198331   1.726   5.552   8.420 -0.6234  0.6285 -0.5783
31963SOL    HW298332   1.850   5.629   8.462 -0.0221 -0.7996  0.3204
31964SOL     OW98333   4.818   6.302   6.304 -0.2892 -0.4652 -0.4358
31964SOL    HW198334   4.724   6.321   6.310 -0.2862 -0.7258  0.7739
31964SOL    HW298335   4.857   6.354   6.374  0.2157 -1.7895  0.3110
31965SOL     OW98336   3.624   7.814   1.768  0.3348 -0.1485  0.0790
31965SOL    HW198337   3.536   7.796   1.801  0.7893  0.7050  1.9462
31965SOL    HW298338   3.644   7.902   1.801  1.9617 -0.4120 -0.1095
31966SOL     OW98339   3.757   2.425   3.756 -0.1086 -0.2102 -0.0926
31966SOL    HW198340   3.759   2.503   3.700  0.6207 -0.7528 -0.8548
31966SOL    HW298341   3.825   2.440   3.821  0.2610 -0.3385 -0.4406
31967SOL     OW98342   8.024   7.496   8.255  0.3740 -1.0245 -0.4790
31967SOL    HW198343   7.977   7.500   8.172 -0.0312 -1.4020 -0.2733
31967SOL    HW298344   7.955   7.499   8.321  0.7234 -0.1082 -0.1367
31968SOL     OW98345   8.705   4.475   8.138 -0.2145 -0.1287  0.2062
31968SOL    HW198346   8.742   4.500   8.223  1.8896 -0.5829 -0.5108
31968SOL    HW298347   8.698   4.379   8.142 -0.3785 -0.1285 -0.0368
31969SOL     OW98348   4.449   4.619   0.574 -0.1094  0.4383 -0.2215
31969SOL    HW198349   4.356   4.601   0.584  0.1163 -1.5463 -1.2679
31969SOL    HW298350   4.473   4.577   0.491  1.6912  0.9984 -0.0231
31970SOL     OW98351   9.266   3.737   7.950  0.4662 -0.3698  0.7130
31970SOL    HW198352   9.357   3.742   7.921 -0.2918 -1.1214 -2.1883
31970SOL    HW298353   9.240   3.646   7.933 -1.4318  0.3726 -0.8828
31971SOL     OW98354   2.604   3.027   6.504  0.0671  0.2422  0.0176
31971SOL    HW198355   2.689   3.028   6.460 -0.3475 -0.0414 -0.8173
31971SOL    HW298356   2.617   2.975   6.583  1.0212  1.3849  0.6384
31972SOL     OW98357  10.242   7.652   8.966  0.1025  0.0477  0.5636
31972SOL    HW198358  10.268   7.729   8.916 -1.2900 -0.8103 -1.6028
31972SOL    HW298359  10.315   7.637   9.026  1.4355  1.6824 -0.5609
31973SOL     OW98360   5.473   7.590   0.870 -0.3019 -0.8903  0.1273
31973SOL    HW198361   5.407   7.571   0.803  1.0443  0.5380 -1.7328
31973SOL    HW298362   5.522   7.509   0.879 -1.9579 -1.8370  1.2166
31974SOL     OW98363   0.468   6.501   8.015  0.3488 -0.3586 -0.4948
31974SOL    HW198364   0.508   6.520   8.099  1.8172 -1.1369 -0.9711
31974SOL    HW298365   0.524   6.432   7.978 -0.6838 -0.5327 -1.7846
31975SOL     OW98366   7.026   2.960   8.661 -0.1280  0.3647  0.2252
31975SOL    HW198367   6.965   2.972   8.588 -1.1773  2.2243  1.3337
31975SOL    HW298368   6.998   2.880   8.704 -2.4829  1.6788  1.2864
31976SOL     OW98369   4.732   9.858   0.087 -0.3344  0.8072  0.2188
31976SOL    HW198370   4.758   9.874  -0.003  0.0241  2.3667  0.5808
31976SOL    HW298371   4.637   9.870   0.088 -0.7483 -1.7902 -0.4464
31977SOL     OW98372   2.714  10.021   4.428  0.2106  0.3679 -0.2834
31977SOL    HW198373   2.665   9.998   4.349  0.0963 -0.3131 -0.0192
31977SOL    HW298374   2.738  10.113   4.416  0.2133  0.2602 -1.1169
31978SOL     OW98375   1.851   6.978   6.659  0.1590  0.4097 -0.1616
31978SOL    HW198376   1.827   6.894   6.622  0.9039  0.0270  0.1910
31978SOL    HW298377   1.918   7.013   6.600 -0.1792  0.7735 -0.3322
31979SOL     OW98378   7.309   9.610   5.207 -0.9706 -0.1865  0.0254
31979SOL    HW198379   7.302   9.671   5.134  0.3706 -0.8528 -0.6810
31979SOL    HW298380   7.331   9.665   5.282 -0.3794  0.2684 -0.4750
31980SOL     OW98381   2.028   7.280   1.024 -0.0655 -0.2215  0.3326
31980SOL    HW198382   1.993   7.368   1.007  0.3673  0.3093  1.9860
31980SOL    HW298383   2.062   7.251   0.939  0.1260  1.3643 -0.1728
31981SOL     OW98384  10.137   5.529   0.561 -0.1905 -0.9102  0.0258
31981SOL    HW198385  10.047   5.553   0.539 -0.5096 -0.7413  1.4125
31981SOL    HW298386  10.187   5.545   0.481 -1.6719 -2.7183 -1.3457
31982SOL     OW98387   7.183   5.381   5.392  0.3977 -0.0190 -0.1128
31982SOL    HW198388   7.256   5.326   5.418  0.7074  0.8041  0.8226
31982SOL    HW298389   7.223   5.459   5.355  0.0776  1.2605  2.0949
31983SOL     OW98390   4.061   7.939   3.373  0.1397 -0.0991 -0.6350
31983SOL    HW198391   4.038   8.032   3.381  1.0502  0.0133  1.5460
31983SOL    HW298392   4.154   7.939   3.350  0.4111 -0.4344  0.4025
31984SOL     OW98393   1.417   7.166   1.270  0.0329  0.1802  0.1374
31984SOL    HW198394   1.340   7.142   1.321 -0.6764 -0.3413 -1.1357
31984SOL    HW298395   1.382   7.206   1.190  1.0472 -0.5085 -0.6820
31985SOL     OW98396   3.968   6.223   4.309 -0.0107  0.0474 -0.0235
31985SOL    HW198397   3.905   6.264   4.367 -0.5986  0.6839 -1.0754
31985SOL    HW298398   3.915   6.178   4.243  0.5653  1.2209 -1.3674
31986SOL     OW98399   5.460   1.487   0.372  0.4197 -0.2236 -0.1472
31986SOL    HW198400   5.391   1.552   0.386  0.3862 -0.5799  1.5810
31986SOL    HW298401   5.459   1.434   0.451  2.0017 -0.8806 -0.5329
31987SOL     OW98402   0.675   0.013   6.502 -0.5781  0.4569  0.0870
31987SOL    HW198403   0.760   0.057   6.507 -0.1015 -0.3171 -0.8008
31987SOL    HW298404   0.615   0.071   6.548  0.5025  0.8411  1.0576
31988SOL     OW98405   7.453   4.718   6.302  0.3780  0.3986  0.3291
31988SOL    HW198406   7.392   4.776   6.348  1.3316  2.5528 -0.9086
31988SOL    HW298407   7.532   4.772   6.290  0.9581 -0.8045 -1.8122
31989SOL     OW98408   3.329   3.957   0.440 -0.1941  0.4625 -0.5457
31989SOL    HW198409   3.389   4.031   0.452  0.2195  0.2871 -1.4550
31989SOL    HW298410   3.385   3.880   0.443 -0.7266  0.1207  1.1440
31990SOL     OW98411   6.289   4.155   0.220  0.5132  0.0836 -0.2171
31990SOL    HW198412   6.287   4.109   0.136  1.2642 -0.8200  0.2445
31990SOL    HW298413   6.300   4.248   0.197  3.9141 -0.3963 -1.1160
31991SOL     OW98414   4.187   0.199   1.831  0.1336 -0.3001  0.1065
31991SOL    HW198415   4.270   0.161   1.861  0.2877  0.4657  0.6763
31991SOL    HW298416   4.134   0.124   1.806  0.5517 -0.8745  0.9038
31992SOL     OW98417   6.433   9.407   2.270 -0.5551 -0.0896 -0.0482
31992SOL    HW198418   6.365   9.446   2.214 -0.0745 -0.5165 -0.9542
31992SOL    HW298419   6.395   9.409   2.358 -1.8314 -0.5054 -0.5623
31993SOL     OW98420   4.072   0.979   3.676 -0.1309  0.4810  1.0122
31993SOL    HW198421   3.992   0.963   3.727 -0.2272  0.8147  0.9726
31993SOL    HW298422   4.139   0.925   3.717 -1.0004 -2.0125 -0.6461
31994SOL     OW98423   4.990   2.290  10.345 -0.6524  0.4936 -0.1157
31994SOL    HW198424   5.070   2.239  10.360  0.3554  1.0887 -2.9234
31994SOL    HW298425   4.930   2.261  10.414  1.1825 -1.6545  0.6959
31995SOL     OW98426   7.768   7.923  10.358  0.3846  0.2856 -0.3444
31995SOL    HW198427   7.747   7.956  10.271 -1.2341  0.6020  0.1265
31995SOL    HW298428   7.855   7.884  10.349 -0.8765 -2.3406 -2.8281
31996SOL     OW98429   0.292   4.414   2.087  0.2089 -0.2404  0.1349
31996SOL    HW198430   0.377   4.390   2.050  0.0995 -1.6321  0.7349
31996SOL    HW298431   0.246   4.331   2.096 -0.5503  0.3074  1.4450
31997SOL     OW98432   2.457   5.086   4.744 -0.5884 -0.3466 -0.8078
31997SOL    HW198433   2.389   5.139   4.703 -0.3279  1.1275  0.5510
31997SOL    HW298434   2.458   5.115   4.836  1.4015 -0.7962 -0.6353
31998SOL     OW98435   0.354   8.831   8.685  0.0417 -0.1436  0.4387
31998SOL    HW198436   0.430   8.877   8.722 -0.2194  1.0657 -0.4598
31998SOL    HW298437   0.393   8.766   8.626  0.4054 -0.4753  1.0378
31999SOL     OW98438   0.928   5.563   8.472  0.4533  0.4556  0.0919
31999SOL    HW198439   0.961   5.477   8.445 -1.1306 -0.4644  0.9248
31999SOL    HW298440   0.897   5.603   8.390 -0.2670 -0.4667 -0.1119
32000SOL     OW98441   7.959   7.136   6.434  0.2028  0.2432  0.2196
32000SOL    HW198442   7.988   7.222   6.402 -1.5460  0.0957 -2.0185
32000SOL    HW298443   7.866   7.133   6.414  0.6920 -3.2481 -2.5979
32001SOL     OW98444   4.850   3.596   0.728 -0.8864  0.0360 -0.0540
32001SOL    HW198445   4.944   3.588   0.741 -0.6722 -0.2199 -1.5341
32001SOL    HW298446   4.813   3.599   0.816  0.3583 -1.5780  0.5622
32002SOL     OW98447   9.466   8.390   5.672  0.0718  0.2239 -0.2316
32002SOL    HW198448   9.557   8.420   5.665  0.2927 -0.4518 -0.3576
32002SOL    HW298449   9.414   8.470   5.672  0.6403  0.5981 -0.6216
32003SOL     OW98450   6.985   3.448   7.807 -0.1230 -0.5145 -0.5215
32003SOL    HW198451   7.007   3.443   7.714 -0.8041 -0.6296 -0.6831
32003SOL    HW298452   7.028   3.527   7.837 -2.4618  1.3612 -1.6880
32004SOL     OW98453   8.128   1.090   5.955 -0.0704 -0.4478  0.3160
32004SOL    HW198454   8.033   1.104   5.964 -0.4319 -2.6057  0.3416
32004SOL    HW298455   8.145   1.011   6.005  1.6685 -0.4191 -0.1873
32005SOL     OW98456  10.316   3.634   6.709 -0.2776  0.4505 -0.3788
32005SOL    HW198457  10.286   3.599   6.625  1.0651 -1.9112  0.0297
32005SOL    HW298458  10.396   3.682   6.689  0.7320 -1.1518 -0.3706
32006SOL     OW98459   5.416   7.406   0.318 -0.4940  0.0859  1.0071
32006SOL    HW198460   5.437   7.314   0.307 -1.5695  0.1243 -1.9597
32006SOL    HW298461   5.321   7.410   0.320 -0.4672  1.1788  0.7974
32007SOL     OW98462   8.400   7.639   2.312 -0.0327  0.4168  0.4671
32007SOL    HW198463   8.469   7.584   2.349  0.7299  1.9465  1.4123
32007SOL    HW298464   8.412   7.632   2.217  0.5532 -0.3962  0.5910
32008SOL     OW98465   6.058   4.879   6.443 -0.5898  0.7419  0.4591
32008SOL    HW198466   6.064   4.934   6.520 -0.7754  1.4377 -0.0138
32008SOL    HW298467   6.137   4.824   6.446 -0.7064  0.6138  1.2432
32009SOL     OW98468   0.456   7.298   4.172 -0.7391 -0.0959 -0.2131
32009SOL    HW198469   0.535   7.248   4.194 -0.5593 -0.2953 -1.2631
32009SOL    HW298470   0.450   7.364   4.241  1.5272  1.2745 -1.1881
32010SOL     OW98471   8.951   8.460   0.621  0.5374  0.2155  0.1509
32010SOL    HW198472   8.956   8.391   0.687 -1.7084 -1.9346 -1.7324
32010SOL    HW298473   8.983   8.419   0.541 -1.4557  1.0679 -1.1655
32011SOL     OW98474   6.346   8.231   4.520  0.2273  0.7639  0.2687
32011SOL    HW198475   6.429   8.191   4.545 -0.1251  0.0667  0.3657
32011SOL    HW298476   6.287   8.211   4.593 -0.3773  0.1113 -0.3736
32012SOL     OW98477   8.082   2.546   0.135  0.1938  0.4095  0.1744
32012SOL    HW198478   8.107   2.454   0.126  0.0694  0.4893 -1.2864
32012SOL    HW298479   8.000   2.545   0.184 -0.5269 -0.3693 -1.0115
32013SOL     OW98480   0.363   8.333   3.810 -0.5020 -0.3284 -0.4710
32013SOL    HW198481   0.444   8.292   3.840 -0.4755  0.0743  0.0235
32013SOL    HW298482   0.307   8.333   3.888 -0.9079 -0.4268 -0.7595
32014SOL     OW98483   5.147   9.318   4.381  0.1326 -0.0247 -0.5350
32014SOL    HW198484   5.141   9.395   4.324  1.9952  0.5013 -0.0713
32014SOL    HW298485   5.230   9.277   4.358  0.7499 -0.0232  1.5091
32015SOL     OW98486   7.614   5.650   1.162 -0.3815  0.0797  0.6017
32015SOL    HW198487   7.591   5.558   1.176  0.0502 -0.0931  0.1951
32015SOL    HW298488   7.698   5.648   1.115 -0.1715  0.6869  0.9366
32016SOL     OW98489   4.559   2.136   6.961 -0.1979  0.2454  0.2048
32016SOL    HW198490   4.471   2.166   6.939  0.0574  0.4376 -0.5660
32016SOL    HW298491   4.573   2.059   6.906 -0.1123 -0.1513  0.7703
32017SOL     OW98492  10.190   7.576   5.468  0.0892 -0.0711  0.1777
32017SOL    HW198493  10.242   7.534   5.400  1.0647  2.3561 -0.6764
32017SOL    HW298494  10.099   7.553   5.448  0.5624 -1.4636 -0.4176
32018SOL     OW98495   4.797   7.300   5.115 -0.2429  0.3577 -0.2419
32018SOL    HW198496   4.745   7.342   5.184  0.1942  0.4897  0.0142
32018SOL    HW298497   4.826   7.372   5.060  1.2648  0.5221  0.7148
32019SOL     OW98498   3.988  10.398   7.485  0.1362  0.0546 -0.7115
32019SOL    HW198499   3.935  10.415   7.563 -0.5375  1.3940 -1.4344
32019SOL    HW298500   3.925  10.399   7.413  1.1860  2.6026 -1.7052
32020SOL     OW98501   1.163   6.116   2.224  0.5051  0.3543 -0.5397
32020SOL    HW198502   1.212   6.191   2.190  1.2010  0.9144  1.5546
32020SOL    HW298503   1.084   6.112   2.169  1.0973  1.7670 -1.5590
32021SOL     OW98504   3.170   0.600   5.529 -0.0646 -0.0583 -0.0344
32021SOL    HW198505   3.259   0.611   5.496 -0.2701 -0.4582 -0.7546
32021SOL    HW298506   3.161   0.668   5.596  0.2130  1.1370 -1.1528
32022SOL     OW98507   6.800  10.123   2.661 -0.2257 -0.4272 -0.2412
32022SOL    HW198508   6.765  10.161   2.742  1.7976  0.6358  0.1914
32022SOL    HW298509   6.823  10.033   2.685 -1.6027 -0.8171 -0.2638
32023SOL     OW98510   6.974   8.728   1.272 -0.3085 -0.4092  0.3261
32023SOL    HW198511   7.019   8.693   1.195  1.8915  0.2715  1.2240
32023SOL    HW298512   6.942   8.814   1.245  2.7073  0.9951  0.7626
32024SOL     OW98513   0.855   2.239   2.526  0.7551  0.4224 -0.1275
32024SOL    HW198514   0.815   2.320   2.558  0.3141 -0.0258  0.4954
32024SOL    HW298515   0.834   2.238   2.432 -2.0582 -0.4960  0.4057
32025SOL     OW98516   3.341   6.285   4.771  0.0528  0.2041 -0.2169
32025SOL    HW198517   3.334   6.332   4.688  1.0231 -0.5884 -0.7721
32025SOL    HW298518   3.313   6.196   4.751  0.6583 -0.0910  0.2150
32026SOL     OW98519   7.845   5.640   5.346 -0.0713 -0.4877 -0.1465
32026SOL    HW198520   7.859   5.709   5.282  1.2986 -1.0141 -0.4432
32026SOL    HW298521   7.923   5.641   5.401 -2.1017  1.4561  3.0462
32027SOL     OW98522   4.268   1.008   4.320  0.1467 -0.1738  0.3181
32027SOL    HW198523   4.318   0.988   4.400  0.7301 -0.9720 -0.2268
32027SOL    HW298524   4.324   1.068   4.271 -0.5113  0.8633  0.8020
32028SOL     OW98525   6.984   4.470   7.767 -0.4471  0.2171 -0.2709
32028SOL    HW198526   6.991   4.406   7.697 -0.3164  1.0118 -0.9932
32028SOL    HW298527   7.021   4.426   7.844  0.9339 -0.0753 -1.0780
32029SOL     OW98528   7.505   2.635   9.602 -0.2856  0.3979 -0.3546
32029SOL    HW198529   7.465   2.642   9.516  0.7989  1.0188 -0.8268
32029SOL    HW298530   7.556   2.554   9.599 -0.8124  0.0511 -0.0476
32030SOL     OW98531   8.163   3.470   2.169 -0.0006 -0.6652  0.4552
32030SOL    HW198532   8.200   3.432   2.249  2.0626  0.3903  0.0773
32030SOL    HW298533   8.196   3.414   2.098  0.7623  0.1817  0.1229
32031SOL     OW98534   1.090   4.901   4.104  0.0178  0.0647 -0.1326
32031SOL    HW198535   1.002   4.931   4.129 -1.4146 -2.5545 -1.5648
32031SOL    HW298536   1.090   4.905   4.009  0.8777 -1.3689 -0.2139
32032SOL     OW98537  10.100   0.642   1.711 -0.1111 -0.1569  0.3293
32032SOL    HW198538  10.178   0.646   1.766 -0.1105  0.8602  0.2854
32032SOL    HW298539  10.048   0.570   1.747  0.3119 -0.0921  1.0889
32033SOL     OW98540   6.810   7.045   0.051 -0.5295  0.3808 -0.2420
32033SOL    HW198541   6.772   7.019   0.135  1.3453 -1.8080  0.0413
32033SOL    HW298542   6.769   6.987  -0.013 -0.2883  0.4677 -0.4769
32034SOL     OW98543   3.573   6.368   2.428 -0.6687  0.0511  0.2428
32034SOL    HW198544   3.500   6.343   2.484  0.6010  0.1499  2.0438
32034SOL    HW298545   3.594   6.458   2.453  0.3490 -0.1246  0.0720
32035SOL     OW98546   7.070   7.631   4.026 -0.1245  0.0994 -0.0203
32035SOL    HW198547   7.123   7.646   4.104  0.3108 -0.4057 -0.2178
32035SOL    HW298548   6.981   7.619   4.060  0.4020 -2.3850  0.6172
32036SOL     OW98549   7.018   7.890   6.312 -0.4152  0.1531  0.2079
32036SOL    HW198550   6.986   7.863   6.399  0.1784  1.5312  0.8774
32036SOL    HW298551   6.970   7.971   6.293 -0.0489  0.2189 -0.4559
32037SOL     OW98552   4.388   0.673   9.770  0.1104 -0.4561  0.2891
32037SOL    HW198553   4.440   0.732   9.715  1.9464 -2.6569 -0.4866
32037SOL    HW298554   4.336   0.623   9.708 -1.5214  0.3489  0.9485
32038SOL     OW98555   4.489   2.945   7.828 -0.2801 -0.8195  0.4546
32038SOL    HW198556   4.411   2.938   7.884 -0.4106  1.2583  0.6114
32038SOL    HW298557   4.548   3.004   7.876  0.4315 -0.5654 -0.6928
32039SOL     OW98558   4.036   0.649   1.554 -0.3100  0.2462 -0.6068
32039SOL    HW198559   3.988   0.614   1.479 -0.5028  0.2961 -0.5099
32039SOL    HW298560   4.124   0.667   1.521 -0.4415  0.4234 -0.8627
32040SOL     OW98561   4.650   1.812   8.261 -0.1224  0.5470 -0.1357
32040SOL    HW198562   4.693   1.727   8.256  0.5777  0.8399  0.6492
32040SOL    HW298563   4.556   1.791   8.268 -0.0232 -0.1283 -0.7661
32041SOL     OW98564   5.908   7.842   8.615  0.0917 -0.0652 -0.6237
32041SOL    HW198565   5.911   7.935   8.594 -3.4375 -0.3463 -3.2899
32041SOL    HW298566   5.951   7.799   8.540  1.0023 -0.6633  0.2145
32042SOL     OW98567   0.373   3.684   4.010 -0.2581 -0.0235 -0.0682
32042SOL    HW198568   0.385   3.723   3.923 -1.3164 -0.0089 -0.2138
32042SOL    HW298569   0.430   3.607   4.009 -0.6783 -0.3393 -0.9836
32043SOL     OW98570   8.598   7.612   5.531 -0.2107 -0.4177 -0.3605
32043SOL    HW198571   8.659   7.560   5.584 -1.2150 -1.5140 -0.2433
32043SOL    HW298572   8.601   7.571   5.444  1.1837  1.1700 -1.1143
32044SOL     OW98573   7.261   9.807   9.125 -0.0507  0.0133  0.5712
32044SOL    HW198574   7.199   9.842   9.189  0.1274  1.0944  0.1666
32044SOL    HW298575   7.341   9.856   9.140  0.4154 -0.6772  0.4102
32045SOL     OW98576   1.974  10.349  10.399  0.3653  0.2795 -0.0046
32045SOL    HW198577   1.963  10.283  10.468  0.4318  1.7053  1.4493
32045SOL    HW298578   1.889  10.394  10.396  1.2123  2.0602  1.1809
32046SOL     OW98579   0.253   5.320   0.985 -0.2991  0.3338 -0.3690
32046SOL    HW198580   0.211   5.315   1.071 -0.9204 -0.4865 -0.7151
32046SOL    HW298581   0.255   5.414   0.965 -0.7254  0.4823  0.2479
32047SOL     OW98582   3.468   3.864   7.641  0.0969 -0.6512  0.0104
32047SOL    HW198583   3.461   3.851   7.547  1.2765 -2.5599  0.1298
32047SOL    HW298584   3.485   3.958   7.651 -1.2570 -0.1983 -1.5625
32048SOL     OW98585   4.907   8.734   5.512 -0.1487  0.4003 -0.1327
32048SOL    HW198586   4.832   8.783   5.479 -1.0681  0.0227  1.2968
32048SOL    HW298587   4.983   8.780   5.477 -1.0135  2.0074 -0.0055
32049SOL     OW98588   7.348   8.416   3.856  0.2285 -0.0461  0.4259
32049SOL    HW198589   7.308   8.373   3.781  0.6988  0.9209 -0.4130
32049SOL    HW298590   7.275   8.450   3.907 -0.0624  0.3961 -0.2848
32050SOL     OW98591   1.209   0.310   0.943 -0.2644 -0.5619 -0.5732
32050SOL    HW198592   1.146   0.264   0.887 -0.0016 -1.0334 -0.4869
32050SOL    HW298593   1.220   0.252   1.019 -0.1815 -0.1966 -0.3007
32051SOL     OW98594   4.680   7.595   3.584 -0.3961 -0.0784 -0.3002
32051SOL    HW198595   4.590   7.566   3.598  0.1648 -1.0015  1.8178
32051SOL    HW298596   4.722   7.583   3.669  2.0752 -0.9104 -1.5543
32052SOL     OW98597   5.723   3.048   9.042  0.0265 -0.8189 -0.1407
32052SOL    HW198598   5.731   3.020   8.951  0.5715  1.5038 -0.8871
32052SOL    HW298599   5.802   3.101   9.057 -0.4546 -0.5097  1.4312
32053SOL     OW98600   0.795   2.743   9.825  0.5820 -0.1061  0.1833
32053SOL    HW198601   0.833   2.678   9.766  2.4194 -1.3068  2.4771
32053SOL    HW298602   0.700   2.730   9.818  0.8061 -1.0484 -1.5207
32054SOL     OW98603   6.400   5.860   1.557  0.2843 -0.2348 -0.5525
32054SOL    HW198604   6.386   5.953   1.536 -0.0317  0.3471  1.9327
32054SOL    HW298605   6.494   5.846   1.544  0.3157  0.4072 -1.0483
32055SOL     OW98606   4.615   8.895   3.296 -0.8198 -0.3928  0.0073
32055SOL    HW198607   4.702   8.856   3.286 -0.4707  0.5994 -0.9963
32055SOL    HW298608   4.618   8.941   3.380 -0.8707 -1.5568  0.6647
32056SOL     OW98609   3.169   4.626   6.831 -0.2657  0.1655  0.3634
32056SOL    HW198610   3.075   4.609   6.841 -0.3367  1.0067  1.3005
32056SOL    HW298611   3.201   4.635   6.921  0.4439  1.2364  0.0197
32057SOL     OW98612   0.056   2.777   1.764 -0.0736  0.6096 -0.2665
32057SOL    HW198613   0.103   2.832   1.702  0.8114  0.1631 -0.0060
32057SOL    HW298614   0.072   2.818   1.849 -0.6389  0.7748 -0.2310
32058SOL     OW98615   1.182   8.257   3.202  0.4000  0.2193 -0.2759
32058SOL    HW198616   1.115   8.311   3.243 -0.3207 -0.7054 -0.2000
32058SOL    HW298617   1.174   8.275   3.109 -0.2996 -0.2545 -0.3133
32059SOL     OW98618   5.972   4.685   8.024  0.2573 -0.2529 -0.3414
32059SOL    HW198619   5.912   4.695   7.951 -0.7940 -1.1197  0.3622
32059SOL    HW298620   6.059   4.696   7.986 -0.3459  1.7341 -1.2658
32060SOL     OW98621   4.198   3.229   0.142 -0.6131 -0.0974  0.1026
32060SOL    HW198622   4.270   3.239   0.204 -1.9210 -0.1193  1.7090
32060SOL    HW298623   4.234   3.177   0.071  0.8865 -0.3167  0.9765
32061SOL     OW98624   5.888   0.901   6.520  0.5320  0.1492 -0.2630
32061SOL    HW198625   5.908   0.811   6.544 -1.9628 -0.5702 -0.6806
32061SOL    HW298626   5.830   0.894   6.444 -0.3050  2.0756  0.1262
32062SOL     OW98627   8.206   3.369   4.749  0.1483 -0.1346  0.1872
32062SOL    HW198628   8.114   3.381   4.729 -0.2988 -0.0263  2.1271
32062SOL    HW298629   8.233   3.295   4.696 -0.9456  0.0850 -0.7052
32063SOL     OW98630   0.417   5.339   0.128  0.3323 -0.4568  0.2968
32063SOL    HW198631   0.485   5.392   0.170  0.9150 -1.0251  0.0731
32063SOL    HW298632   0.435   5.250   0.157 -1.2600 -0.4309  1.4992
32064SOL     OW98633   0.047   5.052   2.143  0.0977 -0.4994 -0.0204
32064SOL    HW198634  -0.037   5.040   2.188 -0.1143  1.1746  0.1050
32064SOL    HW298635   0.102   4.981   2.175 -1.5305 -2.2025 -0.8078
32065SOL     OW98636   7.553   9.042   5.252 -0.6131  0.0031  0.2517
32065SOL    HW198637   7.484   8.976   5.249 -2.5282  1.8471  1.0010
32065SOL    HW298638   7.571   9.062   5.160 -2.7081  1.0196 -0.0031
32066SOL     OW98639   7.294   0.530   9.662 -0.1328  0.2845  0.1005
32066SOL    HW198640   7.383   0.517   9.696 -0.6264 -0.9820  0.9735
32066SOL    HW298641   7.250   0.582   9.729 -0.2155  0.4472 -0.0777
32067SOL     OW98642   5.784   8.825   0.361  0.1504  0.6287  0.5311
32067SOL    HW198643   5.781   8.741   0.408 -0.0237 -0.6592 -1.6266
32067SOL    HW298644   5.713   8.876   0.400 -0.2385 -0.5186  1.4026
32068SOL     OW98645   1.405   9.537   6.258  0.0943  0.0362 -0.1151
32068SOL    HW198646   1.316   9.513   6.286  0.4837 -1.8002 -0.3494
32068SOL    HW298647   1.391   9.588   6.178 -0.7652  0.5572  0.3404
32069SOL     OW98648   6.404   8.442   4.977 -0.2073 -0.4556 -0.5810
32069SOL    HW198649   6.425   8.408   5.064 -0.0376 -0.1636 -0.5073
32069SOL    HW298650   6.474   8.408   4.921 -0.2663 -0.5683 -0.5857
32070SOL     OW98651   4.356   7.834   7.390 -0.1563  0.5152 -0.0192
32070SOL    HW198652   4.314   7.875   7.466 -1.4128 -0.0857 -0.3532
32070SOL    HW298653   4.392   7.752   7.424  0.8422  1.0666  0.2842
32071SOL     OW98654   7.061   8.841   0.160  0.2911  0.5081  0.2361
32071SOL    HW198655   7.138   8.891   0.188  0.2347  2.3961 -2.4955
32071SOL    HW298656   7.096   8.757   0.131  1.2618  1.0744 -0.2894
32072SOL     OW98657   1.611   4.720   6.108  0.3612 -0.0008 -0.1048
32072SOL    HW198658   1.555   4.742   6.184 -0.8885  0.9224 -1.2392
32072SOL    HW298659   1.625   4.626   6.116 -0.9976 -0.1899  0.4863
32073SOL     OW98660   1.382   2.568  10.372 -0.0501  0.0544 -0.0928
32073SOL    HW198661   1.289   2.547  10.361  0.0341  0.1659 -1.1064
32073SOL    HW298662   1.424   2.484  10.389  0.2024 -0.6555 -3.5423
32074SOL     OW98663   7.588   0.638   8.064 -0.0006  0.1974 -0.3920
32074SOL    HW198664   7.641   0.696   8.119  0.5613  2.0968 -2.7377
32074SOL    HW298665   7.625   0.648   7.976 -1.6456 -1.6702 -1.3851
32075SOL     OW98666   2.962   6.998   9.278  0.0463 -0.2450  0.2229
32075SOL    HW198667   2.903   7.047   9.220  1.6823  0.7480 -0.6993
32075SOL    HW298668   2.924   7.007   9.365 -0.1906  1.9609 -0.0516
32076SOL     OW98669   6.527   7.876   9.507 -0.4449 -0.3271 -0.4957
32076SOL    HW198670   6.609   7.922   9.490  0.6107 -2.5155 -1.7990
32076SOL    HW298671   6.523   7.871   9.603  3.0055 -3.3621 -0.2862
32077SOL     OW98672   5.043   8.429   5.717 -0.2392  0.7629  0.4020
32077SOL    HW198673   5.075   8.355   5.665 -0.7536  0.6812  0.1913
32077SOL    HW298674   5.121   8.481   5.735 -0.2939  1.8683 -2.1606
32078SOL     OW98675   6.769   2.288   7.848  0.3911 -0.6707 -0.5226
32078SOL    HW198676   6.808   2.215   7.896 -0.3538  0.0492  1.2731
32078SOL    HW298677   6.692   2.312   7.900  0.1866  0.8832 -1.4902
32079SOL     OW98678   7.502   6.925   3.277  1.1903  0.1704  0.3705
32079SOL    HW198679   7.580   6.974   3.250 -0.1762  1.9476 -0.5565
32079SOL    HW298680   7.444   6.991   3.316  0.0033 -1.0344  0.7280
32080SOL     OW98681   8.355   6.869   6.847 -0.3213  0.2020 -0.2219
32080SOL    HW198682   8.366   6.940   6.784 -0.1368  1.4708  1.1965
32080SOL    HW298683   8.423   6.884   6.913 -0.9404 -0.6888  0.6583
32081SOL     OW98684   2.087   7.682   3.652 -0.2950 -0.2926 -0.4509
32081SOL    HW198685   2.165   7.735   3.640  0.3245 -1.1242 -0.2599
32081SOL    HW298686   2.014   7.743   3.643  0.3633  0.4379 -0.9590
32082SOL     OW98687   3.090   9.359   3.010  0.2090 -0.4068  0.0330
32082SOL    HW198688   3.056   9.409   3.084 -1.0461 -0.2791 -0.6057
32082SOL    HW298689   3.017   9.354   2.948  0.5168 -2.4113 -0.2466
32083SOL     OW98690  10.111   6.668   8.895  0.1167 -0.0466  0.5578
32083SOL    HW198691  10.121   6.578   8.864 -1.0135 -0.0876  0.2633
32083SOL    HW298692  10.177   6.679   8.962  1.5516 -0.4927 -0.7324
32084SOL     OW98693   8.546   3.918   1.346  0.5353 -0.1280 -0.7432
32084SOL    HW198694   8.531   3.827   1.371  0.4771  0.0773 -0.0294
32084SOL    HW298695   8.492   3.931   1.268 -1.5496  0.0415  0.6515
32085SOL     OW98696   5.023   4.167   8.660 -0.0375 -0.5671 -0.0566
32085SOL    HW198697   5.013   4.075   8.637 -0.1576 -0.9379  1.4271
32085SOL    HW298698   4.960   4.183   8.730  0.7771  0.3421  0.5039
32086SOL     OW98699   1.395   8.912   5.644  0.2654  0.2198  0.0568
32086SOL    HW198700   1.467   8.882   5.588  0.6553 -2.0378  1.6604
32086SOL    HW298701   1.322   8.855   5.621  0.8897 -1.8952  2.8674
32087SOL     OW98702   7.002   6.900   9.800 -0.5018 -0.0155  0.2371
32087SOL    HW198703   7.008   6.820   9.748  2.2491  1.1607 -1.4764
32087SOL    HW298704   7.026   6.970   9.740 -1.9670  2.0461  1.8955
32088SOL     OW98705   5.270   3.577   5.926  0.4850 -0.3178 -0.6093
32088SOL    HW198706   5.178   3.602   5.912  0.6178  2.0792  1.9650
32088SOL    HW298707   5.319   3.637   5.870  0.5492  0.2429  0.0368
32089SOL     OW98708   3.602   4.056   8.997 -0.3400 -0.6710  0.1229
32089SOL    HW198709   3.572   4.048   9.088  1.6834 -0.3703  0.8629
32089SOL    HW298710   3.637   3.969   8.976  0.9229 -0.2212  0.3087
32090SOL     OW98711   3.814   3.331   4.995  0.0203  0.3003  0.9738
32090SOL    HW198712   3.863   3.252   5.019 -0.4930 -0.2622  0.1811
32090SOL    HW298713   3.842   3.351   4.906 -0.8291  0.2433  0.6839
32091SOL     OW98714   3.327   4.893   8.074 -0.1266  0.3660  0.4145
32091SOL    HW198715   3.349   4.941   7.994  0.7815 -2.5822 -1.2690
32091SOL    HW298716   3.393   4.824   8.080 -0.7578 -0.1400  3.2238
32092SOL     OW98717   3.809  10.053   7.309 -0.6731  0.2932  0.1173
32092SOL    HW198718   3.898  10.068   7.342 -0.2248 -0.0934 -0.8864
32092SOL    HW298719   3.754  10.058   7.387  0.0339  2.1067  0.5575
32093SOL     OW98720   0.979   9.267   8.265  0.3280  0.0627 -0.4608
32093SOL    HW198721   0.951   9.358   8.273  0.7303  0.0503  1.5153
32093SOL    HW298722   0.900   9.215   8.280 -0.4957 -0.0172 -4.0681
32094SOL     OW98723   7.361   8.317   5.091 -0.1509  0.2257 -0.0436
32094SOL    HW198724   7.328   8.404   5.115  1.6689  1.0569 -0.4303
32094SOL    HW298725   7.396   8.281   5.172 -0.6158 -0.0311  0.0482
32095SOL     OW98726   6.773   8.117  10.045 -0.2330 -0.1729 -0.2635
32095SOL    HW198727   6.849   8.162  10.082 -0.5355 -0.5453  0.8394
32095SOL    HW298728   6.796   8.024  10.050 -0.5774 -0.2626 -0.3458
32096SOL     OW98729   9.276   1.787   9.857  0.3349 -0.4356  0.3013
32096SOL    HW198730   9.305   1.718   9.798  0.0926 -1.1536  1.0044
32096SOL    HW298731   9.309   1.762   9.943 -0.0453  0.1438  0.6301
32097SOL     OW98732   8.195   2.136   7.630  0.2333 -0.1498  0.2228
32097SOL    HW198733   8.162   2.123   7.541 -0.3542 -0.9067  0.5444
32097SOL    HW298734   8.213   2.048   7.662 -0.3707  0.0537  1.1516
32098SOL     OW98735   4.298   3.751   9.894  0.0430  0.3615 -0.3551
32098SOL    HW198736   4.365   3.801   9.847  1.4858  0.9235  2.0895
32098SOL    HW298737   4.344   3.673   9.925 -1.3296 -0.8907 -1.3314
32099SOL     OW98738   4.733   1.048   7.640  0.0711  0.1238  0.1667
32099SOL    HW198739   4.724   1.011   7.728 -0.7912 -0.5331 -0.1804
32099SOL    HW298740   4.656   1.105   7.630  1.7821  2.7244  0.9957
32100SOL     OW98741   8.856   2.180   9.184  0.6116  0.1215 -0.2879
32100SOL    HW198742   8.811   2.110   9.232  1.2134 -0.2448 -0.2442
32100SOL    HW298743   8.921   2.134   9.131  0.4912  0.5897 -0.8537
32101SOL     OW98744   1.675   3.422   6.441 -0.3022  0.1534  0.2038
32101SOL    HW198745   1.702   3.351   6.500 -0.0738  0.3162  0.2955
32101SOL    HW298746   1.606   3.383   6.388 -1.0911  0.2435  1.1289
32102SOL     OW98747   3.767   8.628   4.059 -0.2697  0.7018  0.0867
32102SOL    HW198748   3.799   8.587   3.979  2.7472 -0.2333  1.5883
32102SOL    HW298749   3.785   8.721   4.047 -1.3893  0.8081 -0.9206
32103SOL     OW98750   4.010  10.241   8.505  0.4499 -0.5183 -0.2722
32103SOL    HW198751   4.084  10.302   8.506  1.2337 -1.4344  0.6967
32103SOL    HW298752   4.045  10.163   8.462 -0.5533 -0.2980 -1.5378
32104SOL     OW98753   2.728   7.388   6.918  0.1763 -0.3179  0.0441
32104SOL    HW198754   2.722   7.441   6.839  2.7991 -0.4949 -0.3737
32104SOL    HW298755   2.819   7.396   6.946 -0.2784 -1.5523  2.1596
32105SOL     OW98756   3.032   3.655   0.363  0.0565  0.3768 -0.1150
32105SOL    HW198757   2.965   3.698   0.310 -0.4634 -0.6689 -0.3181
32105SOL    HW298758   3.084   3.604   0.300  0.5180  0.4998  0.1561
32106SOL     OW98759   9.146   8.948   6.096 -0.6526  0.0730 -0.1299
32106SOL    HW198760   9.180   8.998   6.170 -1.6298  1.0618 -0.3214
32106SOL    HW298761   9.176   8.859   6.111  2.0036  0.8544 -0.2949
32107SOL     OW98762   4.460  10.450   4.805 -0.4170 -0.1053 -0.1495
32107SOL    HW198763   4.465  10.406   4.720 -1.0680 -0.6031  0.0573
32107SOL    HW298764   4.366  10.469   4.816 -0.2836  0.3231  0.2732
32108SOL     OW98765   7.021   0.199   8.343  0.4568  0.2306 -0.3427
32108SOL    HW198766   6.979   0.196   8.429  1.2345 -0.0507  0.0343
32108SOL    HW298767   7.050   0.290   8.333 -1.1949  0.7244 -1.0928
32109SOL     OW98768   2.263   6.452   6.236  0.1888  0.5959 -0.4523
32109SOL    HW198769   2.203   6.438   6.309 -0.3300  0.0999 -0.9636
32109SOL    HW298770   2.289   6.544   6.244  0.0805  0.5669  0.3109
32110SOL     OW98771  10.281   9.165   3.415  0.3465  0.4925 -0.2710
32110SOL    HW198772  10.225   9.236   3.383  0.9878  0.3582 -1.7719
32110SOL    HW298773  10.251   9.088   3.367 -1.5641 -0.7413  2.6312
32111SOL     OW98774  10.388   9.466   0.207  0.3130  0.0158 -0.2032
32111SOL    HW198775  10.343   9.386   0.182  1.5898 -0.7793 -0.0248
32111SOL    HW298776  10.378   9.470   0.303 -1.3104  1.0699 -0.3631
32112SOL     OW98777   1.634   2.311   7.822  0.1588  0.1970 -0.0098
32112SOL    HW198778   1.679   2.253   7.760  0.5188  0.8193 -0.3480
32112SOL    HW298779   1.557   2.341   7.774  0.0294  0.0785  0.1254
32113SOL     OW98780   9.713   9.963   4.258  0.9093 -0.0816  0.0317
32113SOL    HW198781   9.624   9.950   4.227  1.1124 -2.1183  0.1662
32113SOL    HW298782   9.718   9.913   4.340  1.9653  0.5981  0.4052
32114SOL     OW98783   6.824   5.103   5.489  0.2323 -0.1248 -0.0551
32114SOL    HW198784   6.754   5.161   5.519 -1.8953 -2.7968  0.6107
32114SOL    HW298785   6.854   5.141   5.407 -3.0926  0.4114 -1.1832
32115SOL     OW98786   5.296   7.033   8.636 -0.3543 -0.5689 -0.2584
32115SOL    HW198787   5.372   7.058   8.689  1.5056 -2.6275 -1.7302
32115SOL    HW298788   5.287   7.104   8.572  0.8241 -0.6122 -0.4993
32116SOL     OW98789   7.981   1.230   5.136 -0.1606  0.1737 -0.2278
32116SOL    HW198790   8.065   1.195   5.107  0.3432  0.0671  1.3071
32116SOL    HW298791   7.927   1.152   5.151 -0.1428  0.1985 -0.0402
32117SOL     OW98792   7.101   8.679   7.128 -0.4926 -0.0514  0.1025
32117SOL    HW198793   7.059   8.638   7.204 -1.0164  2.1031  1.0408
32117SOL    HW298794   7.162   8.742   7.166  1.8284 -1.3401 -1.2781
32118SOL     OW98795   6.404   8.645   0.289 -0.1109 -0.3557 -0.3774
32118SOL    HW198796   6.419   8.552   0.273  0.8397 -0.2126 -0.3948
32118SOL    HW298797   6.403   8.654   0.384 -0.1104 -0.3728 -0.3758
32119SOL     OW98798  10.460   2.373   0.132  0.4812  0.1487  0.1575
32119SOL    HW198799  10.549   2.362   0.168  0.2575 -1.1362  0.3808
32119SOL    HW298800  10.403   2.368   0.209  0.0126 -2.3904 -0.2797
32120SOL     OW98801   1.499   1.051   7.937  0.2077  0.8076  0.0995
32120SOL    HW198802   1.477   1.061   7.844 -0.4184  1.7216  0.3292
32120SOL    HW298803   1.548   0.969   7.942  1.0067  1.1815 -1.1658
32121SOL     OW98804   8.238   6.922   7.218  0.0431  0.4667  0.1002
32121SOL    HW198805   8.328   6.925   7.251  0.0420 -0.5215  0.2194
32121SOL    HW298806   8.209   7.013   7.219  0.4004  0.5901  1.8296
32122SOL     OW98807   7.024   7.785   2.994  0.2397  0.2140  0.8040
32122SOL    HW198808   6.988   7.702   3.024 -0.3485  0.3922  0.6101
32122SOL    HW298809   7.014   7.844   3.069  2.4786 -0.3912  1.6427
32123SOL     OW98810   2.685   9.311   0.460 -0.4919  0.3457 -0.3062
32123SOL    HW198811   2.693   9.218   0.481  1.0599  0.2969 -0.9748
32123SOL    HW298812   2.619   9.314   0.391  0.4021 -0.4430 -1.2358
32124SOL     OW98813   7.279   6.851   7.023 -0.0877 -1.0793 -0.4968
32124SOL    HW198814   7.214   6.914   6.992  1.6701  2.2387  1.9075
32124SOL    HW298815   7.237   6.808   7.097 -1.2884 -2.9516 -2.1368
32125SOL     OW98816   0.093   7.102   8.412  0.6823  0.6480  0.5629
32125SOL    HW198817   0.164   7.038   8.408 -1.0134 -1.3226  0.2864
32125SOL    HW298818   0.136   7.187   8.401  2.6039 -0.6461 -3.6284
32126SOL     OW98819   9.194   6.908   4.217  0.7210 -0.5161  0.6945
32126SOL    HW198820   9.197   7.001   4.238  2.5455 -0.5623  0.8213
32126SOL    HW298821   9.286   6.882   4.210  0.2613 -1.8156 -1.5735
32127SOL     OW98822   1.392   5.431   1.159 -0.2896 -0.1333 -0.0212
32127SOL    HW198823   1.449   5.383   1.099  0.2915 -0.5204  0.8233
32127SOL    HW298824   1.433   5.517   1.167 -1.3248  0.5500 -1.5254
32128SOL     OW98825   9.306   9.744   3.834 -0.2571  0.1948 -0.7054
32128SOL    HW198826   9.227   9.729   3.886 -0.3399  1.7676 -0.3181
32128SOL    HW298827   9.279   9.725   3.744 -0.8029 -0.2095 -0.4628
32129SOL     OW98828   3.126   4.640   4.669  0.4244  0.4431  0.3566
32129SOL    HW198829   3.050   4.581   4.667  1.0355 -0.3926  0.7880
32129SOL    HW298830   3.168   4.621   4.753  0.8729  1.2039  0.3108
32130SOL     OW98831   2.351   8.543   3.044 -0.4066  0.4661  0.2659
32130SOL    HW198832   2.408   8.606   3.088  0.7749 -2.0520  2.6185
32130SOL    HW298833   2.262   8.573   3.066  0.0496  2.1470 -0.0154
32131SOL     OW98834   0.349   2.165   9.251 -1.1392  0.1410 -0.4182
32131SOL    HW198835   0.432   2.140   9.212 -0.6710 -1.1050  1.2308
32131SOL    HW298836   0.299   2.204   9.180  0.9428  1.1760 -1.3890
32132SOL     OW98837   2.523   2.910   3.234  0.1036  0.4244 -0.2454
32132SOL    HW198838   2.444   2.858   3.221  0.9653 -0.9876  0.0180
32132SOL    HW298839   2.508   2.989   3.181 -0.7535 -0.5824 -1.5743
32133SOL     OW98840  10.174   7.016   8.938 -0.5045  0.0119 -0.0229
32133SOL    HW198841  10.084   7.040   8.919 -0.0635  0.6270 -1.5019
32133SOL    HW298842  10.205   6.972   8.859  1.3435  2.4348 -0.8150
32134SOL     OW98843  10.206   2.111   0.625  0.4443  0.2675  0.4460
32134SOL    HW198844  10.213   2.029   0.577  0.3624  0.4921  0.0475
32134SOL    HW298845  10.132   2.156   0.585  1.2154  1.0476 -0.1204
32135SOL     OW98846  10.470   8.149   7.917 -0.0265  0.2327  0.0573
32135SOL    HW198847  10.427   8.209   7.857  1.7844  1.0776 -0.4612
32135SOL    HW298848  10.478   8.067   7.867 -0.0534  0.4156 -0.2511
32136SOL     OW98849   4.021   2.452   8.348  0.0002  0.3492 -0.0345
32136SOL    HW198850   4.043   2.536   8.309 -0.6658  1.3296  1.5824
32136SOL    HW298851   3.945   2.422   8.297 -0.4640  1.2812  0.0829
32137SOL     OW98852   9.804  10.152  10.263 -0.0878  0.1682  0.3777
32137SOL    HW198853   9.852  10.097  10.324 -0.5364 -0.2596  0.3502
32137SOL    HW298854   9.717  10.163  10.302 -0.6007 -0.6529 -0.4838
32138SOL     OW98855   2.556   4.242   1.370  0.0453 -0.1673  0.1277
32138SOL    HW198856   2.621   4.224   1.438 -0.1988  2.7490  1.2866
32138SOL    HW298857   2.566   4.336   1.351 -3.4430  0.3099 -0.0063
32139SOL     OW98858   9.837   3.076   5.949 -0.5813  0.6335 -0.0474
32139SOL    HW198859   9.810   3.054   6.038 -2.1598 -0.8667 -0.8347
32139SOL    HW298860   9.852   3.170   5.950  0.2125  0.5335  1.9760
32140SOL     OW98861   9.803   0.297   1.364 -0.0920 -0.0818 -0.6259
32140SOL    HW198862   9.729   0.237   1.370 -1.0569  1.1769  0.4134
32140SOL    HW298863   9.875   0.252   1.409 -0.7133 -0.5935 -0.1339
32141SOL     OW98864   7.208   8.678   2.768  0.2542 -0.3449 -0.5322
32141SOL    HW198865   7.289   8.711   2.807 -0.2083 -0.0502  0.2093
32141SOL    HW298866   7.167   8.627   2.838 -0.7059  0.3866 -0.5236
32142SOL     OW98867   9.470   1.149   2.184 -0.2852 -0.2530 -0.1004
32142SOL    HW198868   9.417   1.085   2.137  0.3525 -1.0307  0.2125
32142SOL    HW298869   9.459   1.126   2.276  1.7691 -1.4082 -0.0884
32143SOL     OW98870   5.579   7.427   7.496 -0.4451  0.1984 -0.1991
32143SOL    HW198871   5.544   7.505   7.451 -2.5360 -0.4189  0.2618
32143SOL    HW298872   5.564   7.444   7.589  0.2399 -0.2478  0.0055
32144SOL     OW98873   0.974   5.553   4.317  0.3432 -0.5602 -0.1058
32144SOL    HW198874   1.053   5.519   4.273  0.9786  1.6535 -0.7808
32144SOL    HW298875   0.903   5.499   4.281  0.9999  0.2712 -2.9716
32145SOL     OW98876   8.000   7.920   0.872 -0.3548 -0.2598 -0.4553
32145SOL    HW198877   8.055   7.905   0.949  1.4801 -0.7832 -1.7735
32145SOL    HW298878   8.033   8.002   0.835 -2.0552  0.6483 -0.0309
32146SOL     OW98879   5.002   6.814   7.640  0.4362  0.4438  0.4004
32146SOL    HW198880   5.015   6.754   7.714 -1.1421  0.8397  1.0299
32146SOL    HW298881   5.077   6.874   7.644  1.4047 -0.7345  0.4672
32147SOL     OW98882   0.865   0.152   8.826 -0.1954  0.0131 -0.6046
32147SOL    HW198883   0.904   0.090   8.888  1.9154  1.1105 -0.7388
32147SOL    HW298884   0.772   0.152   8.847  0.2536 -0.6787  1.6411
32148SOL     OW98885   1.038   9.575   5.354 -0.6508  0.9134  0.5404
32148SOL    HW198886   1.065   9.657   5.312 -1.1753  0.4292 -0.7700
32148SOL    HW298887   1.114   9.548   5.405 -0.1110  1.6719  0.1509
32149SOL     OW98888   9.179   7.330   6.249 -0.6660 -0.3396 -0.0064
32149SOL    HW198889   9.177   7.241   6.284  1.8946 -0.5589 -0.2736
32149SOL    HW298890   9.194   7.319   6.155 -0.6318  0.3686 -0.0895
32150SOL     OW98891   5.851   9.874   9.428 -0.4698 -0.3580 -0.1069
32150SOL    HW198892   5.835   9.825   9.348 -0.8679 -0.5600  0.0944
32150SOL    HW298893   5.777   9.936   9.433  0.2315  0.5381 -0.5655
32151SOL     OW98894   4.822   4.849   4.173 -0.2818  0.0548 -0.1493
32151SOL    HW198895   4.898   4.790   4.173  0.6911  1.2591  1.0185
32151SOL    HW298896   4.860   4.936   4.182 -1.8506  0.6157  1.4648
32152SOL     OW98897   7.876   4.777   9.914  0.1638 -0.0612 -0.5715
32152SOL    HW198898   7.868   4.853   9.972  1.8032 -0.1108 -0.2455
32152SOL    HW298899   7.836   4.706   9.963 -1.1367  0.5082 -0.7614
32153SOL     OW98900   6.321   7.278   5.424 -1.0990 -0.1103  0.2584
32153SOL    HW198901   6.391   7.335   5.456 -0.1614 -1.1126  0.0642
32153SOL    HW298902   6.335   7.195   5.469 -1.6126 -0.6046 -0.4698
32154SOL     OW98903   5.763   3.745   1.611  0.3759 -0.4755  0.2378
32154SOL    HW198904   5.703   3.705   1.674 -1.7848  0.8486 -0.8601
32154SOL    HW298905   5.748   3.839   1.620  3.3137  0.0585  0.8219
32155SOL     OW98906   2.140   0.749   2.273 -0.0151 -0.0635 -1.1201
32155SOL    HW198907   2.200   0.720   2.342 -0.2293 -0.0466 -0.9240
32155SOL    HW298908   2.066   0.689   2.279  0.0219 -0.1397 -1.4205
32156SOL     OW98909   1.500   8.693   2.308 -0.5319  0.1738  0.3379
32156SOL    HW198910   1.526   8.755   2.240  0.2598 -0.7261 -0.1996
32156SOL    HW298911   1.454   8.623   2.261  0.7617 -0.8793  0.5868
32157SOL     OW98912   5.545   0.069   7.020  0.5184 -0.6423  0.3104
32157SOL    HW198913   5.587   0.092   6.937 -0.5864  1.0980  0.1903
32157SOL    HW298914   5.598   0.112   7.087  0.0763 -0.0776  0.3068
32158SOL     OW98915  10.007   8.807   4.325 -0.0332 -0.2899  0.5265
32158SOL    HW198916   9.915   8.780   4.318 -0.4754  1.4126 -1.1200
32158SOL    HW298917  10.057   8.731   4.295 -0.9508 -0.9523  0.6411
32159SOL     OW98918   6.557   0.721   2.938  0.4462  0.5552  0.4159
32159SOL    HW198919   6.500   0.739   3.014  0.2848 -0.4421  0.5454
32159SOL    HW298920   6.526   0.637   2.904 -0.6976  1.8220 -1.9026
32160SOL     OW98921   8.802   6.216   2.813  0.7998 -0.3026  0.2234
32160SOL    HW198922   8.813   6.123   2.835  0.0615 -0.5204 -0.3010
32160SOL    HW298923   8.865   6.261   2.869 -1.0912 -0.8031  2.9064
32161SOL     OW98924   0.398   1.708   9.901  0.0217  0.4747 -0.1111
32161SOL    HW198925   0.422   1.686   9.991  1.8383  0.3397 -0.5890
32161SOL    HW298926   0.450   1.786   9.881 -1.5623  1.4631 -0.5388
32162SOL     OW98927   2.282   2.175   9.010  0.9083 -0.0527  0.1528
32162SOL    HW198928   2.307   2.212   9.095  1.4928  1.7198 -0.7277
32162SOL    HW298929   2.348   2.108   8.993  1.1073 -0.0434  0.8499
32163SOL     OW98930   5.307   5.486   8.432  0.8750  0.7770 -0.3222
32163SOL    HW198931   5.243   5.426   8.469  1.1268  0.8415  0.2296
32163SOL    HW298932   5.263   5.571   8.431  0.8044  0.7399 -0.3351
32164SOL     OW98933   3.380   9.216  10.176 -0.4189  0.6286 -0.2167
32164SOL    HW198934   3.446   9.153  10.205  0.4014  1.9891  1.0605
32164SOL    HW298935   3.394   9.223  10.082  0.3909 -0.0846 -0.1635
32165SOL     OW98936   0.692   8.764   4.534  0.2771  0.1321 -0.1933
32165SOL    HW198937   0.650   8.813   4.604 -1.1671 -0.7811 -0.3932
32165SOL    HW298938   0.786   8.775   4.551 -0.0312  1.1401  1.0119
32166SOL     OW98939   1.028   6.952   7.918 -0.1519 -0.0939 -0.5428
32166SOL    HW198940   0.938   6.969   7.942 -0.0706  0.6937 -0.7722
32166SOL    HW298941   1.024   6.921   7.827 -0.3617 -2.0381  0.0890
32167SOL     OW98942   9.021  10.427   1.582 -0.3283 -0.1568  0.0772
32167SOL    HW198943   8.986  10.433   1.671  0.2671  1.1128  0.2439
32167SOL    HW298944   9.052  10.337   1.575 -0.0490 -0.1788  1.2869
32168SOL     OW98945   2.670   5.049   3.982 -0.0862 -0.2894  0.6626
32168SOL    HW198946   2.634   5.006   4.059 -1.0974  1.9033  1.4983
32168SOL    HW298947   2.757   5.078   4.009  0.2993 -1.1128  0.3411
32169SOL     OW98948   8.771   5.656   9.649  0.2645 -0.0405  0.1443
32169SOL    HW198949   8.721   5.735   9.669 -1.1857 -0.8053 -0.3089
32169SOL    HW298950   8.767   5.649   9.554 -1.7894 -1.9548  0.2906
32170SOL     OW98951   7.373   6.607   5.996 -0.3782 -0.0893  0.0016
32170SOL    HW198952   7.313   6.648   6.059 -0.1101  0.8263 -0.3185
32170SOL    HW298953   7.459   6.644   6.018 -0.0352 -0.9003  0.0427
32171SOL     OW98954   1.397   0.136  10.372  0.1342 -0.1448  0.3337
32171SOL    HW198955   1.388   0.140  10.468  0.2130 -0.2925  0.3478
32171SOL    HW298956   1.348   0.058  10.347 -2.7973  1.6975 -0.1191
32172SOL     OW98957   4.599   6.725   4.820  0.1943 -0.3668 -0.3501
32172SOL    HW198958   4.521   6.776   4.798  0.3921  1.2399  2.2890
32172SOL    HW298959   4.671   6.774   4.781  0.1925  0.2243  0.3763
32173SOL     OW98960   0.362   3.343   4.843  0.1503 -0.1088  0.1675
32173SOL    HW198961   0.272   3.344   4.810 -0.3411  0.5481  1.4400
32173SOL    HW298962   0.354   3.368   4.935  1.7133  0.6753  0.1273
32174SOL     OW98963   9.568   7.428   7.288  0.2597  0.0693 -0.3287
32174SOL    HW198964   9.568   7.338   7.254  0.8242 -0.3909  0.8571
32174SOL    HW298965   9.600   7.480   7.214 -1.1652 -0.5162 -1.4252
32175SOL     OW98966   1.665   3.917   5.156  0.1736  0.0645  0.0155
32175SOL    HW198967   1.595   3.976   5.128  0.1787 -0.4082 -1.0457
32175SOL    HW298968   1.687   3.868   5.077 -0.6370 -2.1873  1.1145
32176SOL     OW98969   7.238   3.443   0.645  0.0095  0.8785  0.2716
32176SOL    HW198970   7.226   3.414   0.555  0.7384 -1.3786  0.8496
32176SOL    HW298971   7.284   3.527   0.636  1.0247  0.2054 -1.4572
32177SOL     OW98972   9.248   1.749   5.932 -0.2112 -0.1056 -0.0087
32177SOL    HW198973   9.236   1.695   5.854  1.1497  1.0190 -1.0562
32177SOL    HW298974   9.161   1.753   5.971 -0.7281 -1.4898 -0.9264
32178SOL     OW98975   3.639   1.397   1.528 -0.0032 -0.6083 -0.3458
32178SOL    HW198976   3.643   1.302   1.532 -0.2648 -0.7048 -1.8357
32178SOL    HW298977   3.730   1.426   1.523  0.0271 -0.8971 -1.6910
32179SOL     OW98978   0.774   7.698   9.411  0.0664 -0.4019 -0.1421
32179SOL    HW198979   0.716   7.749   9.467  0.6072  0.0572  0.0068
32179SOL    HW298980   0.833   7.653   9.471 -1.2928 -2.3818 -0.1718
32180SOL     OW98981   5.002   9.761   8.427 -0.4530  0.0485 -0.6646
32180SOL    HW198982   4.954   9.783   8.507 -0.8276  1.0670 -1.1393
32180SOL    HW298983   4.933   9.743   8.363 -0.1582 -1.8194 -0.5183
32181SOL     OW98984   0.561   0.164   4.425 -0.0525  0.5088  0.2954
32181SOL    HW198985   0.587   0.234   4.485 -0.9112  1.2244 -0.1542
32181SOL    HW298986   0.644   0.133   4.388  0.3651  1.0451  0.7543
32182SOL     OW98987   6.946   0.175   9.738  0.0453  0.2047  0.3825
32182SOL    HW198988   6.937   0.146   9.648 -0.0648  3.5714 -0.8351
32182SOL    HW298989   6.880   0.244   9.748 -0.5676 -0.6513  3.3746
32183SOL     OW98990   6.858   1.444   1.991 -0.5727  0.3413 -0.2387
32183SOL    HW198991   6.876   1.528   1.951  0.8718 -0.0750 -0.5239
32183SOL    HW298992   6.862   1.460   2.086 -0.0906  0.5482 -0.2954
32184SOL     OW98993  10.461   6.713   7.206 -0.1999  0.1511  0.5811
32184SOL    HW198994  10.402   6.771   7.254 -1.9250  0.9649 -2.2777
32184SOL    HW298995  10.520   6.772   7.159 -1.9750 -0.2324 -2.3712
32185SOL     OW98996   0.471   6.836   6.909  0.2044  0.2284 -0.0787
32185SOL    HW198997   0.558   6.848   6.871  1.5026 -1.0408  2.2394
32185SOL    HW298998   0.469   6.896   6.984 -1.0997  0.5174 -0.3084
32186SOL     OW98999   3.810   4.003   9.408 -0.1942 -0.2566  0.8028
32186SOL    HW199000   3.825   4.082   9.459 -1.6040  0.1286  0.6353
32186SOL    HW299001   3.863   4.015   9.329 -2.0635  1.5524 -0.2539
32187SOL     OW99002   0.029   2.442   0.989 -0.3991  0.7799 -0.2811
32187SOL    HW199003   0.121   2.452   0.965 -0.7778 -0.0348 -2.2403
32187SOL    HW299004   0.024   2.474   1.079  1.9203  0.1554  0.1242
32188SOL     OW99005   9.910   4.547   9.066  0.2613 -0.1480 -0.3274
32188SOL    HW199006   9.968   4.483   9.105  0.8436  0.3685 -0.3411
32188SOL    HW299007   9.900   4.615   9.132  1.1733  0.6806 -1.0205
32189SOL     OW99008   1.004   8.922   1.779  0.0898  0.4587 -0.0445
32189SOL    HW199009   0.958   8.931   1.696  2.0121  0.3543 -1.1721
32189SOL    HW299010   1.053   8.840   1.772 -0.6441 -0.1804  1.6946
32190SOL     OW99011   6.535   7.874   8.429  0.3352  0.0985  0.3143
32190SOL    HW199012   6.603   7.858   8.364  1.3244 -0.2612  1.3914
32190SOL    HW299013   6.582   7.877   8.513 -1.1052 -1.6838  1.2897
32191SOL     OW99014  10.310   8.473   5.319 -0.3768  0.1417 -0.5264
32191SOL    HW199015  10.398   8.439   5.332 -0.5396 -0.3322 -0.6323
32191SOL    HW299016  10.282   8.436   5.235 -0.4637  0.7449 -0.7654
32192SOL     OW99017   6.757   9.455   2.852  0.1239  0.0156 -0.1696
32192SOL    HW199018   6.851   9.447   2.837  0.0026 -0.9776 -0.4622
32192SOL    HW299019   6.750   9.493   2.940  0.7937  0.3308 -0.2484
32193SOL     OW99020   6.522   6.041   9.946 -0.4295 -0.6322 -0.5639
32193SOL    HW199021   6.477   6.087   9.875  0.7579 -1.8771 -2.1988
32193SOL    HW299022   6.606   6.015   9.908  0.4512 -0.9249  1.4746
32194SOL     OW99023   1.031   5.961   9.708 -0.1935 -0.1269  0.3677
32194SOL    HW199024   0.977   6.035   9.736  1.7259  1.5272 -0.0879
32194SOL    HW299025   1.060   5.985   9.620  1.4281 -0.8495  0.6722
32195SOL     OW99026   2.062   6.004   0.025 -0.4899 -0.3575 -0.1489
32195SOL    HW199027   2.134   5.944   0.007 -0.9443 -0.7626 -0.6515
32195SOL    HW299028   2.078   6.079  -0.032 -0.7537 -0.6921 -0.6787
32196SOL     OW99029   8.035   6.345   7.401 -0.0093 -0.3311 -0.4279
32196SOL    HW199030   8.104   6.349   7.468  0.0759 -0.7481 -0.4878
32196SOL    HW299031   8.061   6.411   7.337 -0.7467  0.9563  0.5485
32197SOL     OW99032   8.102   6.819   5.863  0.4836  0.5164 -0.1589
32197SOL    HW199033   8.122   6.911   5.844 -0.4510  0.4077 -1.7961
32197SOL    HW299034   8.179   6.771   5.833 -0.5557  0.4444 -3.0256
32198SOL     OW99035   2.486   2.050   3.063  0.6170  0.3756  0.4217
32198SOL    HW199036   2.486   2.010   2.976  1.1022  1.7528 -0.2380
32198SOL    HW299037   2.534   1.989   3.119 -0.8031 -1.1464  0.0390
32199SOL     OW99038   0.955   9.209   6.831  0.1949  0.6413 -0.0446
32199SOL    HW199039   0.870   9.252   6.845  0.3073  1.0956 -0.7048
32199SOL    HW299040   0.981   9.179   6.918 -0.4432  0.8797  0.2378
32200SOL     OW99041   5.370   5.957  10.176  0.1179 -0.1298  0.2076
32200SOL    HW199042   5.419   5.902  10.236 -0.6367  0.6833  1.6141
32200SOL    HW299043   5.342   5.898  10.106  0.2045 -1.2989  1.1427
32201SOL     OW99044   3.717   2.262   4.265 -0.2668 -0.0241 -0.0741
32201SOL    HW199045   3.700   2.200   4.194 -2.2065 -0.7253  0.9460
32201SOL    HW299046   3.734   2.208   4.342 -0.8542  0.6898  0.5794
32202SOL     OW99047   0.268   8.275   2.751 -0.9279  0.1550 -0.2774
32202SOL    HW199048   0.249   8.337   2.821 -0.4971  0.4909 -0.4527
32202SOL    HW299049   0.316   8.326   2.686 -0.4469 -0.3894 -0.3602
32203SOL     OW99050   5.022   1.675   1.278  1.0495  0.1388 -0.1038
32203SOL    HW199051   5.017   1.718   1.192 -3.1575  2.3861  0.9769
32203SOL    HW299052   4.985   1.588   1.264  0.8972  0.2946 -0.7009
32204SOL     OW99053   7.331   1.657   5.344 -0.2422  0.1738  0.0792
32204SOL    HW199054   7.293   1.686   5.427 -0.7673 -1.3090  0.3827
32204SOL    HW299055   7.352   1.738   5.298 -1.4113  1.0319  0.9897
32205SOL     OW99056   6.701   8.586   4.817  0.5376 -0.3159  0.4150
32205SOL    HW199057   6.695   8.490   4.823  0.6248 -0.2618  1.7725
32205SOL    HW299058   6.768   8.609   4.882 -0.4607  0.7751  1.0819
32206SOL     OW99059   1.074   0.630   0.638  0.6163 -0.2829 -0.3659
32206SOL    HW199060   1.115   0.630   0.551 -0.7280  0.2112 -1.0266
32206SOL    HW299061   1.063   0.537   0.658 -0.1003 -0.4082 -1.2553
32207SOL     OW99062   7.070   3.621   2.299 -0.1357  0.0742 -0.4677
32207SOL    HW199063   6.995   3.565   2.321 -0.6212  0.7986 -0.2542
32207SOL    HW299064   7.131   3.563   2.253  0.4077 -1.2301  1.7648
32208SOL     OW99065   9.241   2.527   2.802 -0.1033 -0.1230 -0.5686
32208SOL    HW199066   9.176   2.472   2.759  0.1040 -0.6808 -0.1860
32208SOL    HW299067   9.244   2.494   2.892  0.7470 -0.1448 -0.5982
32209SOL     OW99068   4.939   9.875   7.740 -0.2260 -0.4542  0.0003
32209SOL    HW199069   4.996   9.805   7.772  0.4768 -0.1976 -0.6361
32209SOL    HW299070   4.902   9.840   7.659  1.6400  0.5798 -1.3753
32210SOL     OW99071   5.306   9.214   2.094  0.5718  0.2121 -0.8884
32210SOL    HW199072   5.212   9.215   2.113  0.8268  0.7431  0.4056
32210SOL    HW299073   5.313   9.161   2.014 -0.8494  0.4120 -1.1774
32211SOL     OW99074   2.699   5.776   6.515  0.4982 -0.1743 -0.2666
32211SOL    HW199075   2.708   5.784   6.610  0.6338 -0.4718 -0.2540
32211SOL    HW299076   2.619   5.725   6.503 -0.2200  0.9240 -0.3412
32212SOL     OW99077   1.819   7.947   1.006 -0.5888  0.5992 -0.5851
32212SOL    HW199078   1.831   7.920   0.915  0.9025 -2.0813  0.3313
32212SOL    HW299079   1.906   7.976   1.034 -0.6665 -0.1343  0.4408
32213SOL     OW99080   2.817   0.351   1.807 -0.2620 -0.3960 -0.5817
32213SOL    HW199081   2.849   0.374   1.894 -0.1942  0.7968 -0.8953
32213SOL    HW299082   2.838   0.258   1.797  0.8801 -0.2428  0.1846
32214SOL     OW99083   7.097   4.039   9.707  0.1425  0.0958 -0.4445
32214SOL    HW199084   7.140   3.979   9.768  1.1157  2.0925  0.9558
32214SOL    HW299085   7.133   4.017   9.621 -0.3966 -2.0293 -0.1715
32215SOL     OW99086   4.563   7.396   2.269 -0.5299 -0.0667  0.1782
32215SOL    HW199087   4.615   7.376   2.346  0.0395 -0.8275 -0.3955
32215SOL    HW299088   4.504   7.466   2.298 -0.3921 -0.3987  1.3231
32216SOL     OW99089   4.928   8.751   2.553 -0.3598 -0.0165 -0.1849
32216SOL    HW199090   4.903   8.814   2.486 -0.6630 -0.3669 -0.4034
32216SOL    HW299091   5.012   8.715   2.523 -0.9779 -0.9043 -0.8962
32217SOL     OW99092   0.370   5.956   9.813  0.2472 -0.2364  0.0555
32217SOL    HW199093   0.284   5.922   9.792 -0.0833 -0.6195  1.8768
32217SOL    HW299094   0.378   6.035   9.759 -1.3955  0.0141  0.1291
32218SOL     OW99095   0.133   5.980   2.504  0.9261 -0.7375 -0.2484
32218SOL    HW199096   0.141   6.066   2.545  0.4405 -1.1009  0.6569
32218SOL    HW299097   0.123   5.998   2.411 -2.4678  0.4023  0.2176
32219SOL     OW99098   2.886   6.973   5.163 -0.4420  0.2502  0.2871
32219SOL    HW199099   2.848   7.052   5.127  1.7371  0.4889 -1.7736
32219SOL    HW299100   2.970   7.001   5.199  1.5475 -1.3186 -2.6852
32220SOL     OW99101   7.917   8.558   6.925 -0.2813 -0.5305  0.1321
32220SOL    HW199102   7.899   8.474   6.883  0.6440 -0.9965  0.6289
32220SOL    HW299103   7.861   8.621   6.880 -0.4522 -1.2925 -0.7338
32221SOL     OW99104   7.875   4.341   2.467  0.0227 -0.1539  0.7596
32221SOL    HW199105   7.810   4.340   2.397  1.5644  0.2899 -0.7462
32221SOL    HW299106   7.957   4.315   2.424  0.8150 -0.9399  2.6387
32222SOL     OW99107  10.193   7.890  10.365 -0.4790  0.4994  0.3837
32222SOL    HW199108  10.161   7.936  10.442 -1.2359 -0.7841  0.8667
32222SOL    HW299109  10.114   7.852  10.325  0.1873 -1.0215  0.4585
32223SOL     OW99110   4.192   6.238  10.411  0.5779  0.1493 -0.0293
32223SOL    HW199111   4.212   6.157  10.364 -1.9852 -1.7010  1.7641
32223SOL    HW299112   4.267   6.252  10.468  0.2360 -2.2790  1.1578
32224SOL     OW99113   5.148   5.434  10.485  0.1480  0.0659  0.2642
32224SOL    HW199114   5.203   5.414  10.409  0.5425  0.8209  0.3358
32224SOL    HW299115   5.083   5.495  10.453 -0.2999 -0.3744  0.3175
32225SOL     OW99116   6.367   8.671   3.491  0.2456  0.2910  0.5779
32225SOL    HW199117   6.445   8.693   3.441  0.8394  0.3881  1.5295
32225SOL    HW299118   6.400   8.635   3.574 -0.6768 -2.4300 -0.1260
32226SOL     OW99119   1.998   3.234   0.283  0.2072  0.1542 -0.1433
32226SOL    HW199120   1.986   3.300   0.214 -1.4985 -0.0599 -0.1073
32226SOL    HW299121   2.092   3.232   0.298  0.8000 -0.5835 -3.2432
32227SOL     OW99122   5.149   2.840   8.823 -0.1359 -0.3251  0.9335
32227SOL    HW199123   5.102   2.824   8.741  0.0847 -0.1029  0.7618
32227SOL    HW299124   5.102   2.787   8.888 -0.6814 -0.0213  0.7908
32228SOL     OW99125   3.214   2.840   8.004  0.3503  0.5113  0.1590
32228SOL    HW199126   3.265   2.817   8.082  2.5375  1.3290 -0.9469
32228SOL    HW299127   3.139   2.781   8.007 -0.0588  0.9885  3.2348
32229SOL     OW99128   3.462   2.763   2.639 -0.3239 -0.2287  0.4410
32229SOL    HW199129   3.418   2.847   2.630 -1.6214 -1.0046 -0.9250
32229SOL    HW299130   3.536   2.768   2.579 -0.2029  0.0535  0.6110
32230SOL     OW99131   1.575   0.599   6.438  0.2239  0.2708 -0.2307
32230SOL    HW199132   1.554   0.692   6.454 -0.7022  0.1254 -0.5536
32230SOL    HW299133   1.629   0.574   6.513 -0.9547  0.6150  0.7702
32231SOL     OW99134   1.078   7.066   4.162  0.5992  0.0273  0.3995
32231SOL    HW199135   1.033   6.986   4.132  0.7689 -1.0131  2.7069
32231SOL    HW299136   1.008   7.130   4.172  0.1203 -0.5321  0.7038
32232SOL     OW99137   7.684   3.822   9.102 -0.2915 -0.0281 -0.2350
32232SOL    HW199138   7.590   3.811   9.088 -0.6502  0.5834  1.4456
32232SOL    HW299139   7.698   3.917   9.095  0.2329 -0.1307 -0.6376
32233SOL     OW99140   6.355   0.590   5.720 -0.0609 -0.0685 -0.2133
32233SOL    HW199141   6.388   0.515   5.769 -0.2667  0.3041  0.5078
32233SOL    HW299142   6.297   0.552   5.654  0.1602 -0.5726 -0.1217
32234SOL     OW99143   6.914   6.264   8.256  0.6235  0.0227  0.6902
32234SOL    HW199144   6.983   6.259   8.189  1.3124 -0.5319  1.4191
32234SOL    HW299145   6.864   6.183   8.245 -2.2603  1.9544 -2.2273
32235SOL     OW99146   9.585   2.617   9.847 -0.0765 -0.4020  0.0091
32235SOL    HW199147   9.601   2.682   9.915  0.2433 -0.3721 -0.0921
32235SOL    HW299148   9.585   2.667   9.765  0.5088 -0.5664 -0.1037
32236SOL     OW99149   0.725   6.073   6.044 -0.1479  0.1985 -0.1002
32236SOL    HW199150   0.654   6.011   6.057 -0.6277  1.1505  2.5118
32236SOL    HW299151   0.681   6.156   6.027  0.3570  0.5180  0.1271
32237SOL     OW99152   7.396  10.316   9.206  0.1937 -0.2821 -0.0466
32237SOL    HW199153   7.369  10.235   9.163 -0.4571 -0.1452  0.1009
32237SOL    HW299154   7.416  10.291   9.296 -0.5562 -0.1839  0.1523
32238SOL     OW99155   1.321   1.676   5.344 -0.5109 -0.5702 -0.3799
32238SOL    HW199156   1.324   1.624   5.425  1.2815 -0.6156 -0.4313
32238SOL    HW299157   1.290   1.615   5.277 -1.1909 -0.7640  0.1034
32239SOL     OW99158   8.544   1.562   4.961 -0.6016  0.1689 -0.4855
32239SOL    HW199159   8.584   1.649   4.974 -1.6947  0.7089 -0.6641
32239SOL    HW299160   8.552   1.520   5.047 -0.2978  0.5412 -0.3246
32240SOL     OW99161   1.727   2.435   3.700  0.0723  0.2484  0.1511
32240SOL    HW199162   1.672   2.511   3.718 -0.5479 -0.1856  0.1170
32240SOL    HW299163   1.730   2.430   3.605  2.0516  1.6064  0.0848
32241SOL     OW99164   4.153   1.301   9.190  0.0770 -0.4512  0.5947
32241SOL    HW199165   4.226   1.240   9.203  0.2934 -0.2961  0.1485
32241SOL    HW299166   4.193   1.376   9.145 -0.3699 -0.3915  0.2972
32242SOL     OW99167   2.904   4.069   0.659  0.3510 -0.0111 -0.1319
32242SOL    HW199168   2.959   4.028   0.593  0.3080  0.5878 -0.5431
32242SOL    HW299169   2.930   4.161   0.659  1.0089 -0.1526  1.3434
32243SOL     OW99170   6.316   6.586   4.374  0.5643 -0.1136 -0.8066
32243SOL    HW199171   6.274   6.672   4.368 -0.6680 -0.3699  2.2240
32243SOL    HW299172   6.261   6.528   4.322  1.1322  0.7913 -2.4820
32244SOL     OW99173   4.863   7.519   1.488 -0.0059  0.3120 -0.8094
32244SOL    HW199174   4.896   7.596   1.441  1.2421 -0.0043 -0.4900
32244SOL    HW299175   4.926   7.450   1.469 -1.3722 -0.7930 -1.4776
32245SOL     OW99176   0.858   3.162   2.416  0.8785  0.7091  0.2496
32245SOL    HW199177   0.807   3.215   2.354 -0.2297 -1.0578 -0.4264
32245SOL    HW299178   0.811   3.171   2.499 -1.5179 -1.9652 -0.6478
32246SOL     OW99179   2.937   4.872   5.585 -0.2322  0.3846 -0.2347
32246SOL    HW199180   2.964   4.880   5.676  0.2426  0.5216 -0.3834
32246SOL    HW299181   2.877   4.797   5.584  0.5355 -0.2517  0.0194
32247SOL     OW99182   1.800   8.035   5.058 -0.2321 -0.5180  0.0336
32247SOL    HW199183   1.748   8.109   5.089 -0.8173 -1.4851  1.4540
32247SOL    HW299184   1.866   8.074   5.001  0.4999  1.2987  2.0332
32248SOL     OW99185   0.185   2.544   3.432 -0.4568  0.5392  0.1301
32248SOL    HW199186   0.096   2.520   3.406  0.1276 -0.4578 -1.0672
32248SOL    HW299187   0.207   2.482   3.501 -0.3773  0.1669 -0.2203
32249SOL     OW99188  10.260   7.188   9.303 -0.2487 -0.2488  0.0403
32249SOL    HW199189  10.222   7.252   9.243 -0.0128 -0.1530 -0.0111
32249SOL    HW299190  10.186   7.154   9.354 -0.1267  1.7808  1.7283
32250SOL     OW99191   5.214   3.212   9.749  0.0274  0.2898  0.1128
32250SOL    HW199192   5.265   3.225   9.829 -1.1869  1.7005  0.7077
32250SOL    HW299193   5.256   3.138   9.705  0.2405 -1.0673  2.4478
32251SOL     OW99194   2.191   7.293   0.766  0.3869  0.2830 -0.0931
32251SOL    HW199195   2.256   7.276   0.697  0.5465 -0.2240  0.1772
32251SOL    HW299196   2.243   7.316   0.843  0.2231  0.4811 -0.0437
32252SOL     OW99197   1.764   2.489   0.394 -0.0498 -0.0602 -0.3510
32252SOL    HW199198   1.821   2.558   0.428  0.4580 -0.3215 -0.6618
32252SOL    HW299199   1.813   2.450   0.322 -0.7850 -0.0360 -0.8782
32253SOL     OW99200   4.100   4.585   0.394 -0.0587 -0.0644 -0.4226
32253SOL    HW199201   4.009   4.566   0.419  0.3861  0.1349  1.5018
32253SOL    HW299202   4.152   4.519   0.440  0.7738 -0.4263 -1.8234
32254SOL     OW99203   4.878   6.064   1.092 -0.2417 -0.3082  0.6475
32254SOL    HW199204   4.869   5.999   1.022  0.7168  0.6092 -0.3732
32254SOL    HW299205   4.969   6.095   1.083 -0.4182  0.5271  1.6755
32255SOL     OW99206   2.996   6.815   1.389 -0.8048 -0.6587 -0.1177
32255SOL    HW199207   3.048   6.736   1.401  2.3680  1.3209  0.3218
32255SOL    HW299208   2.992   6.827   1.294 -1.7977 -1.6012 -0.2092
32256SOL     OW99209   9.965   1.639   3.647 -0.2212 -0.0629 -0.4206
32256SOL    HW199210   9.881   1.622   3.605 -0.7976  0.7438  0.3798
32256SOL    HW299211   9.961   1.591   3.730  0.1785 -0.1508 -0.4481
32257SOL     OW99212   7.272   6.698   8.411 -0.2715  0.4626  0.8441
32257SOL    HW199213   7.204   6.747   8.457  0.6897 -0.3909  3.3458
32257SOL    HW299214   7.235   6.610   8.401 -0.1759  0.4368  0.7222
32258SOL     OW99215   9.897   7.804   7.599  0.3566 -0.0006  0.0441
32258SOL    HW199216   9.933   7.880   7.645 -0.0199  0.6660 -0.7284
32258SOL    HW299217   9.816   7.836   7.559 -0.5462 -1.1780  0.8462
32259SOL     OW99218   0.198   0.976   7.279 -0.0084 -0.0347 -0.0142
32259SOL    HW199219   0.186   0.884   7.300  0.6327  0.1574  1.3181
32259SOL    HW299220   0.158   0.987   7.193 -0.9717 -1.3410  0.2346
32260SOL     OW99221   3.307   7.141   1.644 -0.0370 -0.4852  0.4905
32260SOL    HW199222   3.216   7.125   1.669 -0.5314  1.3829  0.0615
32260SOL    HW299223   3.303   7.163   1.551  0.9755 -1.1933  0.2616
32261SOL     OW99224   1.315   4.451   6.286 -0.4926 -0.0343 -0.1171
32261SOL    HW199225   1.231   4.465   6.331 -1.1312  0.5006 -1.4218
32261SOL    HW299226   1.334   4.358   6.297 -0.4513  0.1434  1.5345
32262SOL     OW99227   3.158   7.116   0.700 -0.1628  0.1891  0.2172
32262SOL    HW199228   3.089   7.088   0.760 -1.7431 -1.4992 -2.2140
32262SOL    HW299229   3.184   7.203   0.731 -0.8742 -0.5718  3.2649
32263SOL     OW99230   9.665   6.884   0.460 -0.0398  0.7967  0.4589
32263SOL    HW199231   9.711   6.800   0.453 -0.4274  0.7031 -1.7368
32263SOL    HW299232   9.595   6.868   0.523 -0.1458 -0.5567  0.0279
32264SOL     OW99233   9.053   0.503   5.992 -0.1291  0.1079  0.0517
32264SOL    HW199234   9.051   0.569   5.922  0.0001 -0.6349 -0.6689
32264SOL    HW299235   9.114   0.538   6.056  0.0756  0.6110 -0.4094
32265SOL     OW99236   2.161   7.169   6.549  0.3915  0.0878  0.7591
32265SOL    HW199237   2.126   7.257   6.534 -1.1977 -0.8141 -1.4422
32265SOL    HW299238   2.183   7.167   6.642  1.7821  3.2269  0.6069
32266SOL     OW99239   0.479   1.487   0.321  0.2889 -0.2599  0.5564
32266SOL    HW199240   0.424   1.412   0.297 -2.9315  1.8948  0.5125
32266SOL    HW299241   0.451   1.510   0.410  2.0513  0.1991  1.0221
32267SOL     OW99242   6.427   8.755   8.262 -0.3201 -0.1677 -0.0453
32267SOL    HW199243   6.377   8.792   8.335  0.4751  0.6698  0.0940
32267SOL    HW299244   6.382   8.673   8.242 -1.4843  0.3373  0.3551
32268SOL     OW99245   6.648   4.709   0.890  0.1866  0.1721  0.7209
32268SOL    HW199246   6.712   4.717   0.960 -1.9897 -0.5601  2.9132
32268SOL    HW299247   6.573   4.761   0.919 -0.1850  1.2960 -1.9137
32269SOL     OW99248   1.131   3.864   4.661 -0.0587 -0.0069 -0.2074
32269SOL    HW199249   1.187   3.921   4.609 -0.5864  1.5968  0.9079
32269SOL    HW299250   1.053   3.916   4.678 -0.9524 -1.4052  0.1031
32270SOL     OW99251   7.251   6.773   1.547  0.0023  0.6119  0.1315
32270SOL    HW199252   7.303   6.848   1.518 -0.1995 -0.1099 -2.3266
32270SOL    HW299253   7.307   6.697   1.531 -0.3429  0.1134  1.2179
32271SOL     OW99254   4.625   9.499   3.688 -0.5717 -0.0830 -0.0329
32271SOL    HW199255   4.545   9.537   3.652  0.5839  1.7099 -0.8848
32271SOL    HW299256   4.695   9.534   3.632  0.9739 -0.0771  1.8146
32272SOL     OW99257   0.307   9.282   7.356 -0.1233 -0.6509  0.6787
32272SOL    HW199258   0.231   9.233   7.324 -1.0463  0.6386  0.8079
32272SOL    HW299259   0.331   9.238   7.438 -1.9556  0.0258  1.6511
32273SOL     OW99260   1.001   8.527   3.824  0.2147 -0.2939  0.0507
32273SOL    HW199261   1.071   8.577   3.866 -0.6641  0.3362  0.7971
32273SOL    HW299262   0.992   8.449   3.879  0.0645 -0.1758  0.1971
32274SOL     OW99263   6.461   9.393   5.289 -0.1778  0.2976  0.9268
32274SOL    HW199264   6.479   9.300   5.300  0.8118  0.4794  0.9821
32274SOL    HW299265   6.377   9.407   5.332 -0.1207 -0.4859  1.3131
32275SOL     OW99266   0.353   5.839   1.928  0.5104  0.8453 -0.7033
32275SOL    HW199267   0.448   5.852   1.926  0.6271 -0.0223 -1.2284
32275SOL    HW299268   0.337   5.802   2.015  0.5793  1.4309 -0.4312
32276SOL     OW99269   0.135   1.268   5.418  0.2533  0.2613  0.2883
32276SOL    HW199270   0.156   1.267   5.325  1.7567 -0.9872  0.5954
32276SOL    HW299271   0.219   1.253   5.462 -0.3449  1.3014  1.8769
32277SOL     OW99272   7.565   7.250   1.642 -0.6516 -0.3934 -0.1606
32277SOL    HW199273   7.643   7.292   1.606 -0.1196  0.2610  1.6294
32277SOL    HW299274   7.598   7.192   1.710 -1.6816 -0.5867  0.1914
32278SOL     OW99275   4.131   4.968   6.209  0.4846  0.6552  0.1368
32278SOL    HW199276   4.153   4.878   6.187 -0.7163  0.3482  0.1171
32278SOL    HW299277   4.145   4.974   6.303 -1.8866 -0.3363  0.6220
32279SOL     OW99278   6.043   0.793   8.013 -0.0331 -0.0091 -0.1557
32279SOL    HW199279   6.136   0.770   8.020  0.2324  0.6396 -1.2361
32279SOL    HW299280   6.040   0.885   8.038 -0.6134 -0.3761  1.1964
32280SOL     OW99281   2.570   8.307   2.829 -0.3472  0.5165  0.5163
32280SOL    HW199282   2.531   8.326   2.915  0.6658  2.2455  0.6453
32280SOL    HW299283   2.612   8.389   2.803 -0.1219 -0.1436 -1.3823
32281SOL     OW99284   0.981   5.731   4.008  0.2156  0.1161 -0.2278
32281SOL    HW199285   1.012   5.692   3.927  1.5866  1.9916 -0.6973
32281SOL    HW299286   0.886   5.730   4.001  0.2768 -1.0437 -1.1858
32282SOL     OW99287   8.114   0.666   8.072  0.0210 -0.2961 -0.4682
32282SOL    HW199288   8.208   0.662   8.086 -0.2289 -1.0636  1.3451
32282SOL    HW299289   8.080   0.586   8.112 -1.6064  1.0606  1.0596
32283SOL     OW99290   7.560  10.016   6.624  0.4706  1.0773 -0.0119
32283SOL    HW199291   7.487  10.077   6.616  0.2868  0.7579 -0.9137
32283SOL    HW299292   7.593  10.007   6.534  1.0939  0.5867  0.2609
32284SOL     OW99293   7.371   0.057   1.533  0.0924  0.4831  0.6225
32284SOL    HW199294   7.292   0.111   1.530  0.6049  1.2336  0.0143
32284SOL    HW299295   7.443   0.120   1.529  0.7087 -0.2451 -0.2750
32285SOL     OW99296   9.992   9.015   4.494  0.2021 -0.2170 -0.4557
32285SOL    HW199297  10.023   8.978   4.577  1.4025  0.9219 -0.3585
32285SOL    HW299298   9.996   8.942   4.432  0.6435 -0.7330  0.1619
32286SOL     OW99299   5.010   5.210   3.825  0.0336  0.2616 -0.3010
32286SOL    HW199300   5.096   5.205   3.867  0.0714 -1.9379 -0.5316
32286SOL    HW299301   5.010   5.138   3.763 -0.1610  3.1386 -3.9530
32287SOL     OW99302  10.140   7.317   0.232 -0.1220  0.1185 -0.5900
32287SOL    HW199303  10.235   7.308   0.222 -0.1538 -0.5694 -0.3039
32287SOL    HW299304  10.103   7.284   0.151 -0.0550  2.5992 -1.7395
32288SOL     OW99305   2.638   4.395   8.726 -0.4742 -0.6879 -0.2372
32288SOL    HW199306   2.650   4.301   8.728 -1.6683 -0.8547  0.9000
32288SOL    HW299307   2.557   4.408   8.677  0.4543 -0.1249 -1.6778
32289SOL     OW99308   2.487   4.700   4.768 -0.0730 -0.5114  0.0075
32289SOL    HW199309   2.582   4.698   4.780  0.2749 -3.6179 -1.9374
32289SOL    HW299310   2.452   4.689   4.856  1.4153 -0.6558  0.6220
32290SOL     OW99311   7.643   1.234   0.284 -0.6794  0.0648  0.4116
32290SOL    HW199312   7.669   1.142   0.282  2.1646  0.7203  2.1463
32290SOL    HW299313   7.722   1.282   0.260 -1.4340  2.1382  1.8052
32291SOL     OW99314   0.909   9.881   5.511 -0.2158 -0.5642  0.9773
32291SOL    HW199315   0.880   9.809   5.454  1.1139 -1.2713  1.1516
32291SOL    HW299316   0.902   9.845   5.600 -0.0421 -0.2848  1.1048
32292SOL     OW99317   0.553   1.772   2.303  0.3033 -0.3804 -0.4461
32292SOL    HW199318   0.616   1.730   2.361  0.0043 -0.2427 -0.0207
32292SOL    HW299319   0.524   1.702   2.244 -0.0507 -0.7379  0.1371
32293SOL     OW99320   0.320   0.198   8.856 -0.5248  0.1856 -0.2256
32293SOL    HW199321   0.267   0.261   8.807  0.1375  0.8052 -0.1622
32293SOL    HW299322   0.302   0.114   8.814  0.3563  0.7494 -1.8324
32294SOL     OW99323   9.446   4.531   3.001 -0.4897 -0.3432  0.2639
32294SOL    HW199324   9.464   4.517   2.908  0.8651 -2.9709  0.8345
32294SOL    HW299325   9.359   4.494   3.015 -0.6608 -0.0186  0.0667
32295SOL     OW99326   5.335   9.661   2.735  0.0119  0.0495 -0.0157
32295SOL    HW199327   5.286   9.608   2.798  1.2826 -2.1798 -0.7973
32295SOL    HW299328   5.291   9.647   2.652  0.9974 -0.7021 -0.4290
32296SOL     OW99329   9.375   3.629   3.053 -0.3989 -0.1144  0.1116
32296SOL    HW199330   9.420   3.714   3.056 -1.5873  0.5524 -0.1586
32296SOL    HW299331   9.364   3.604   3.145 -0.0931  0.0487  0.1930
32297SOL     OW99332   9.587   8.130   1.240  0.6668  0.3407  0.3747
32297SOL    HW199333   9.591   8.162   1.331 -1.7275  0.0866  0.6543
32297SOL    HW299334   9.624   8.042   1.244  0.7694  0.4093  1.0799
32298SOL     OW99335   3.685   7.966   3.370 -0.0453  0.3496 -0.1002
32298SOL    HW199336   3.748   7.912   3.323 -1.5520 -0.6136 -1.0820
32298SOL    HW299337   3.687   8.050   3.325  0.2165  0.1864 -0.3921
32299SOL     OW99338   0.108   7.128   2.887 -0.0197 -0.1386  0.0799
32299SOL    HW199339   0.118   7.166   2.974 -1.5240  0.5202 -0.0025
32299SOL    HW299340   0.187   7.075   2.874 -0.3009 -1.1713  2.2933
32300SOL     OW99341   3.089   7.500   3.344  0.2747  0.1871  0.0553
32300SOL    HW199342   3.079   7.493   3.249  0.2387  0.7353  0.0159
32300SOL    HW299343   3.044   7.423   3.378  0.5665 -0.1868 -0.3851
32301SOL     OW99344   0.646   6.981   5.772  0.1659  0.3188 -0.2017
32301SOL    HW199345   0.620   7.045   5.705 -0.6279  1.6907  1.3324
32301SOL    HW299346   0.740   6.995   5.782  0.2899  0.1079 -1.0105
32302SOL     OW99347   6.129   0.670  10.398  0.0752  0.5222 -0.0919
32302SOL    HW199348   6.133   0.629  10.311 -0.7494  0.8024 -0.2653
32302SOL    HW299349   6.170   0.606  10.456 -2.2007 -1.1106 -0.1590
32303SOL     OW99350   0.581   7.130   2.166  1.0291 -0.0799  0.8615
32303SOL    HW199351   0.629   7.208   2.196 -0.2669  1.1326 -0.0986
32303SOL    HW299352   0.490   7.147   2.190  0.3543 -0.2088 -1.3628
32304SOL     OW99353   1.249   0.296   6.343  0.0336 -0.0996 -0.1032
32304SOL    HW199354   1.245   0.343   6.260  1.8673  1.1053  0.4295
32304SOL    HW299355   1.316   0.342   6.394 -1.0001 -0.8262  2.0403
32305SOL     OW99356   0.533   2.596   5.302 -0.0832  0.4563  0.3615
32305SOL    HW199357   0.510   2.628   5.215 -0.3473  0.1126  0.3040
32305SOL    HW299358   0.623   2.626   5.315  0.3066 -0.3240 -0.4351
32306SOL     OW99359   8.186   1.755   5.595  0.6275 -0.4358  0.4739
32306SOL    HW199360   8.143   1.676   5.563  1.4340 -0.3350 -0.9401
32306SOL    HW299361   8.271   1.755   5.553  0.3256  1.6229 -0.2705
32307SOL     OW99362   3.423   9.335   9.625  0.5034  0.1499 -0.0928
32307SOL    HW199363   3.382   9.417   9.652  2.2367 -0.0125  3.7484
32307SOL    HW299364   3.362   9.296   9.563 -1.9410  2.8052  0.4433
32308SOL     OW99365  10.058   2.543   6.847 -0.0480 -0.3435  0.1687
32308SOL    HW199366  10.144   2.582   6.830 -0.8152  1.7630  0.8920
32308SOL    HW299367   9.999   2.587   6.787 -0.7573 -1.3454  0.1039
32309SOL     OW99368   0.730   4.140   7.172  0.2451 -0.1175  0.0089
32309SOL    HW199369   0.661   4.182   7.122  1.0914  1.2262 -0.0737
32309SOL    HW299370   0.705   4.047   7.175 -1.6314  0.3589  0.1414
32310SOL     OW99371   2.547   4.096   7.994  0.1544 -0.1297  0.3595
32310SOL    HW199372   2.627   4.107   8.045  0.8483 -0.9769 -0.5024
32310SOL    HW299373   2.577   4.083   7.904 -0.9198 -0.9117  0.0836
32311SOL     OW99374   3.972   6.805   4.267  0.4213  0.3485  0.9878
32311SOL    HW199375   4.015   6.819   4.183 -0.6010 -0.0438  0.3934
32311SOL    HW299376   3.989   6.713   4.288 -1.4897 -0.2982 -0.0665
32312SOL     OW99377   1.611   5.854   8.196  0.2162 -0.4262  0.3063
32312SOL    HW199378   1.554   5.864   8.119 -1.1672  1.4628  1.4787
32312SOL    HW299379   1.553   5.869   8.270  2.2935  2.3571  1.5625
32313SOL     OW99380   2.852   3.729   0.706  0.1983  0.0735 -0.1298
32313SOL    HW199381   2.944   3.703   0.700 -0.0895 -1.0564  0.1750
32313SOL    HW299382   2.806   3.649   0.732 -0.7502  0.8632  0.6738
32314SOL     OW99383  10.383   6.904   5.425 -0.4280 -0.0751 -0.2510
32314SOL    HW199384  10.351   6.825   5.381  0.8382  0.2426 -1.8549
32314SOL    HW299385  10.331   6.975   5.388 -1.1047 -0.0545  0.6962
32315SOL     OW99386   1.785   8.502   3.311  0.2285  0.0339 -0.4909
32315SOL    HW199387   1.743   8.575   3.265 -0.2593  0.8927  1.2280
32315SOL    HW299388   1.778   8.525   3.404  0.8052 -1.8205  0.0561
32316SOL     OW99389   3.692   2.814   6.377 -0.5191 -0.4509 -0.1621
32316SOL    HW199390   3.705   2.876   6.449 -0.3106  1.3513 -1.6507
32316SOL    HW299391   3.599   2.794   6.378 -1.0154  1.5232 -0.8078
32317SOL     OW99392   4.777   3.611   5.774  0.0197 -0.0555  0.3772
32317SOL    HW199393   4.827   3.612   5.855 -0.7412 -0.2940  0.8638
32317SOL    HW299394   4.692   3.574   5.799 -0.9780  1.8446 -0.0734
32318SOL     OW99395   4.967   0.722   4.948 -0.7319  0.4011 -0.4805
32318SOL    HW199396   4.994   0.636   4.979  2.0112  0.5078 -2.2397
32318SOL    HW299397   4.871   0.717   4.943 -0.7871 -1.8772  1.1820
32319SOL     OW99398   6.052   8.883   7.375 -0.0828  0.2441  0.0009
32319SOL    HW199399   6.057   8.932   7.294  0.4160 -0.0733 -0.1653
32319SOL    HW299400   5.959   8.865   7.387 -0.0123 -1.3555 -1.5048
32320SOL     OW99401   3.658   9.384   1.968 -0.7541  0.3812  0.3312
32320SOL    HW199402   3.706   9.441   2.028  1.3104 -0.0064 -0.8661
32320SOL    HW299403   3.671   9.296   2.003  1.2985  0.0388 -1.1148
32321SOL     OW99404   6.537   6.230   4.993 -0.6958 -0.5191 -0.3906
32321SOL    HW199405   6.497   6.164   5.051 -0.3444  0.6192  1.2064
32321SOL    HW299406   6.527   6.313   5.040 -0.4846  0.4834 -2.0339
32322SOL     OW99407   8.191   0.703   1.103 -0.0950 -0.2743  0.4002
32322SOL    HW199408   8.176   0.757   1.025 -0.7874  1.5400  1.7200
32322SOL    HW299409   8.121   0.637   1.100  0.6111 -1.0189 -1.1017
32323SOL     OW99410   9.436   8.138   3.138 -0.6359  0.2949  0.1206
32323SOL    HW199411   9.472   8.089   3.064 -2.9546  0.4322 -1.2040
32323SOL    HW299412   9.427   8.228   3.105  3.4885  1.8615  2.4898
32324SOL     OW99413   6.374   8.614   0.542 -0.3054  0.2322  0.0095
32324SOL    HW199414   6.310   8.544   0.556  1.7183 -1.6403  0.6435
32324SOL    HW299415   6.455   8.580   0.581  0.5818  3.3867  1.2204
32325SOL     OW99416   3.330   6.188   1.375 -0.5565 -0.4532 -0.8280
32325SOL    HW199417   3.405   6.247   1.386 -0.4632 -0.2876 -2.2262
32325SOL    HW299418   3.256   6.238   1.409 -0.3673  0.2051 -1.3689
32326SOL     OW99419   1.198   2.247   8.577  0.6779 -0.0607  0.0226
32326SOL    HW199420   1.120   2.294   8.606 -0.9687 -1.8023 -1.2787
32326SOL    HW299421   1.226   2.198   8.655  0.4050  0.4713  0.4692
32327SOL     OW99422   7.882   2.132   5.152 -0.3435 -0.2949 -0.0650
32327SOL    HW199423   7.972   2.155   5.174 -0.3918 -0.8145  0.7002
32327SOL    HW299424   7.837   2.217   5.146  0.4352  0.0378 -1.5996
32328SOL     OW99425   7.741   9.624   3.397  0.6118  0.0334  0.1527
32328SOL    HW199426   7.708   9.713   3.413  0.8261  0.2513 -0.5767
32328SOL    HW299427   7.836   9.632   3.404  0.5720 -0.4169  1.3938
32329SOL     OW99428   3.690   8.681   1.732  0.8301  1.0177 -0.3573
32329SOL    HW199429   3.676   8.689   1.826 -3.7891 -2.8455 -0.2889
32329SOL    HW299430   3.736   8.598   1.722 -1.5859 -0.3250 -1.3468
32330SOL     OW99431   1.277  10.417   1.313 -0.1485  0.3229 -0.5068
32330SOL    HW199432   1.357  10.401   1.363 -0.5986 -0.8963 -0.1378
32330SOL    HW299433   1.234  10.331   1.309 -0.6934  0.6397 -1.9986
32331SOL     OW99434   0.026   5.223   7.530  0.3932  0.6085 -0.4425
32331SOL    HW199435   0.029   5.130   7.510 -0.1259  0.4550  0.1603
32331SOL    HW299436  -0.014   5.228   7.617  1.0294  1.3537 -0.1806
32332SOL     OW99437   2.993   1.584   4.238 -0.1205 -0.5275  0.4213
32332SOL    HW199438   3.054   1.628   4.179 -1.3276  1.4812  0.5876
32332SOL    HW299439   3.024   1.606   4.326 -0.8715  0.2724  0.5049
32333SOL     OW99440   1.639   3.375   7.788 -0.1119  0.4431 -0.1347
32333SOL    HW199441   1.588   3.319   7.729 -0.2922 -0.1517  0.5628
32333SOL    HW299442   1.600   3.360   7.874  0.9766  0.3018  0.3503
32334SOL     OW99443   1.405   5.725   3.349  0.0128 -0.0497  0.0528
32334SOL    HW199444   1.442   5.807   3.316  2.0563 -0.1721  1.8330
32334SOL    HW299445   1.471   5.659   3.329 -0.3758 -0.7645  1.0429
32335SOL     OW99446   4.420   1.215   4.179 -0.0665 -0.5922  0.1300
32335SOL    HW199447   4.448   1.158   4.107  2.0566 -0.5265  0.8494
32335SOL    HW299448   4.325   1.219   4.170 -0.0126 -1.9533 -1.6407
32336SOL     OW99449   4.106   2.081   2.187 -0.4240 -0.0912 -0.5982
32336SOL    HW199450   4.176   2.145   2.196 -1.2819  0.5660  2.9738
32336SOL    HW299451   4.138   2.004   2.234 -1.8036  0.0654  0.6891
32337SOL     OW99452   9.773   3.607   8.842  0.6204 -0.4417 -0.6023
32337SOL    HW199453   9.803   3.634   8.929 -0.6503 -1.3292  0.1410
32337SOL    HW299454   9.727   3.524   8.857 -1.2358  0.3052 -1.8370
32338SOL     OW99455   0.719   4.889   9.638 -0.2920 -0.3128 -0.2960
32338SOL    HW199456   0.659   4.879   9.712 -1.6210  1.2583 -1.0941
32338SOL    HW299457   0.724   4.983   9.623  0.4192 -0.5533 -1.8321
32339SOL     OW99458   2.705   4.595   7.862 -0.1548  0.0156  0.2457
32339SOL    HW199459   2.623   4.548   7.870  0.0191 -0.1833  0.9437
32339SOL    HW299460   2.773   4.530   7.879  0.0827  0.5393  1.4560
32340SOL     OW99461   6.432   2.861   6.696 -0.3945  0.1096  0.1426
32340SOL    HW199462   6.490   2.920   6.649  0.7204 -0.1402  1.1324
32340SOL    HW299463   6.488   2.823   6.764 -1.2038 -1.7025 -0.1508
32341SOL     OW99464   6.917   9.382   5.335 -0.1002 -0.0437 -0.1463
32341SOL    HW199465   6.952   9.413   5.251  0.7355  1.5890  0.7339
32341SOL    HW299466   6.868   9.457   5.369  0.1564 -0.4276  1.1257
32342SOL     OW99467   9.218   6.712   9.869  0.2606  0.0610  0.2146
32342SOL    HW199468   9.238   6.668   9.786  5.3659 -3.1118  2.6441
32342SOL    HW299469   9.175   6.645   9.922 -0.0289  0.9737  1.1682
32343SOL     OW99470   6.820   4.117   7.397 -0.3798 -0.2316  0.3225
32343SOL    HW199471   6.908   4.102   7.430  0.4913 -0.9204 -2.0695
32343SOL    HW299472   6.775   4.033   7.410  1.0712 -1.7519 -3.1577
32344SOL     OW99473   6.409   0.430   4.577 -0.4371 -0.3684 -0.3644
32344SOL    HW199474   6.444   0.424   4.488  0.7679  1.2949 -0.0525
32344SOL    HW299475   6.470   0.488   4.623 -1.2647 -0.8507  1.4386
32345SOL     OW99476   5.016   9.577   7.796 -0.1123 -0.3486  0.7378
32345SOL    HW199477   4.930   9.547   7.767  0.4709  0.1596 -1.7503
32345SOL    HW299478   5.074   9.560   7.722  1.3002  2.0830  1.1556
32346SOL     OW99479   0.772   5.449   1.338  0.3822 -0.5245  0.0686
32346SOL    HW199480   0.855   5.408   1.316  0.9071 -0.6397  2.0546
32346SOL    HW299481   0.708   5.406   1.282  1.6339 -0.3967 -1.5407
32347SOL     OW99482   8.776   7.344   1.317 -0.2546  0.0528 -0.2347
32347SOL    HW199483   8.791   7.425   1.366 -0.2152 -0.2480  0.2559
32347SOL    HW299484   8.848   7.287   1.344 -2.0677 -1.3329  1.9548
32348SOL     OW99485   6.064   4.310   7.329  0.5282  0.1308 -0.2250
32348SOL    HW199486   6.049   4.219   7.304 -2.4662  0.8838 -1.6125
32348SOL    HW299487   6.095   4.353   7.249 -0.1727  0.7415 -0.1795
32349SOL     OW99488   7.941   0.383   3.966  0.2915 -0.3962  0.4349
32349SOL    HW199489   8.003   0.354   4.033 -0.1193  1.9805  1.9819
32349SOL    HW299490   7.862   0.332   3.982  0.5653 -0.6325  1.0741
32350SOL     OW99491   9.097   8.231   3.249 -0.2042 -0.1351  0.1681
32350SOL    HW199492   9.116   8.197   3.162  1.2176  0.6670  0.1395
32350SOL    HW299493   9.149   8.177   3.308  0.5580  0.6955  0.2927
32351SOL     OW99494   0.633   8.766   5.069  0.0570 -0.4204  0.2348
32351SOL    HW199495   0.632   8.861   5.081  1.0112 -0.3740 -0.0109
32351SOL    HW299496   0.657   8.731   5.155  1.6717 -0.3315 -0.1493
32352SOL     OW99497   8.120   9.568   5.795 -0.0663 -0.8990 -0.5023
32352SOL    HW199498   8.140   9.475   5.806 -0.8392 -0.8350  2.3066
32352SOL    HW299499   8.025   9.572   5.795 -0.0485 -0.0560  0.3707
32353SOL     OW99500   9.417   7.185   3.011  0.4619 -0.0760  0.2211
32353SOL    HW199501   9.339   7.178   3.066  0.7232  1.6959  0.8873
32353SOL    HW299502   9.383   7.190   2.921 -0.1155 -0.4873  0.4095
32354SOL     OW99503   7.521  10.132   3.738 -0.6053  0.0531  0.2558
32354SOL    HW199504   7.474  10.150   3.819 -0.2075  0.8970  0.3128
32354SOL    HW299505   7.583  10.205   3.730  0.3522 -0.7671 -0.0627
32355SOL     OW99506   5.715   5.766   5.785 -0.3674 -0.0617 -0.5926
32355SOL    HW199507   5.793   5.741   5.736 -0.2409 -0.2024 -0.3258
32355SOL    HW299508   5.743   5.761   5.877 -1.2922 -2.2940 -0.3565
32356SOL     OW99509   1.845  10.107   4.686  0.0936  0.6532  0.5429
32356SOL    HW199510   1.796  10.051   4.746  0.3372 -0.3151 -0.1292
32356SOL    HW299511   1.934  10.073   4.689 -0.1355 -0.2328 -1.2699
32357SOL     OW99512   2.326   3.279   6.268 -0.4620 -0.1779  0.0959
32357SOL    HW199513   2.316   3.299   6.175  0.3634 -0.7694 -0.1318
32357SOL    HW299514   2.249   3.228   6.291  0.5347 -2.2315 -0.9049
32358SOL     OW99515   7.448   7.574   8.652  0.0877  0.4284 -0.6019
32358SOL    HW199516   7.467   7.537   8.566  0.0382 -0.7489 -0.1154
32358SOL    HW299517   7.532   7.606   8.683  0.7238 -1.7983  0.1384
32359SOL     OW99518   7.026   5.719   7.533 -0.0986 -0.0513  0.2622
32359SOL    HW199519   7.118   5.735   7.511 -0.5058  2.0186 -0.1003
32359SOL    HW299520   7.029   5.688   7.623  0.9750 -0.2968  0.1619
32360SOL     OW99521   9.794   5.706   3.722 -0.3216  0.2766  0.2531
32360SOL    HW199522   9.775   5.640   3.788 -1.1754  0.0793 -0.1802
32360SOL    HW299523   9.823   5.783   3.772 -2.0176  0.5017  0.9314
32361SOL     OW99524   4.757   2.208  10.466  0.0785 -0.3202 -0.3481
32361SOL    HW199525   4.689   2.144  10.445  0.7700 -1.1664 -0.0778
32361SOL    HW299526   4.718   2.293  10.443 -1.0778 -0.7773 -0.1429
32362SOL     OW99527   1.848   0.738   1.169 -0.1265  0.4326  0.0083
32362SOL    HW199528   1.825   0.649   1.198  1.7775 -0.3900 -0.8521
32362SOL    HW299529   1.798   0.751   1.089 -0.6600  0.2666  0.3109
32363SOL     OW99530   0.349   5.375   7.858  0.1438 -0.3804  0.1104
32363SOL    HW199531   0.364   5.282   7.840 -0.2027 -0.3491 -0.3620
32363SOL    HW299532   0.301   5.407   7.781  0.6336  0.2888  0.0730
32364SOL     OW99533   4.843   5.605   4.663 -0.1843  0.6178  0.1610
32364SOL    HW199534   4.923   5.655   4.680  0.2640  0.1982 -0.6750
32364SOL    HW299535   4.800   5.652   4.592  0.5532 -0.4913 -1.0668
32365SOL     OW99536   9.575   8.422   1.320 -0.3264  0.0775 -0.2967
32365SOL    HW199537   9.585   8.327   1.332 -2.4075 -0.1603 -0.0236
32365SOL    HW299538   9.596   8.436   1.228  1.5702 -0.3709  0.0344
32366SOL     OW99539   9.494   5.822   4.450 -0.6333  0.1228 -0.3779
32366SOL    HW199540   9.420   5.864   4.407 -0.4603 -0.7473 -1.5703
32366SOL    HW299541   9.569   5.878   4.430 -0.5589 -0.2672 -1.2141
32367SOL     OW99542   9.455   2.119   9.950 -0.4929 -0.1839  0.3110
32367SOL    HW199543   9.381   2.074   9.912 -0.1330 -0.0133 -0.6182
32367SOL    HW299544   9.453   2.206   9.910 -0.3457  0.1415  0.9970
32368SOL     OW99545   0.831   1.937   0.748 -0.1211 -0.7098  0.6537
32368SOL    HW199546   0.820   2.024   0.787 -4.2775 -0.7350 -0.0028
32368SOL    HW299547   0.884   1.952   0.670  2.2426  0.5422  2.3895
32369SOL     OW99548   3.253   5.615   8.162  0.1945 -0.4937  0.2787
32369SOL    HW199549   3.295   5.551   8.220 -0.4711 -0.6886  0.5593
32369SOL    HW299550   3.325   5.670   8.131  0.7031 -1.0487  0.4526
32370SOL     OW99551   0.110   1.092   3.085 -0.0204 -0.4696  0.0393
32370SOL    HW199552   0.075   1.064   3.000  1.2742 -0.6217 -0.4783
32370SOL    HW299553   0.034   1.120   3.135 -0.9029 -1.1587 -0.8801
32371SOL     OW99554   4.271   1.845  10.257 -0.0865 -0.5440 -0.0287
32371SOL    HW199555   4.281   1.875  10.347  0.0957  0.5326 -0.3947
32371SOL    HW299556   4.200   1.899  10.222  2.1882  1.6248 -1.5905
32372SOL     OW99557   5.247   4.103   2.381  0.2817  0.1217 -0.8472
32372SOL    HW199558   5.311   4.144   2.324  0.6171  1.6460  0.5530
32372SOL    HW299559   5.252   4.152   2.463 -0.8341 -1.3787  0.1919
32373SOL     OW99560   4.325   2.803   7.046 -0.2081 -0.6443  0.1958
32373SOL    HW199561   4.366   2.851   7.118  0.8212  1.5875 -1.7178
32373SOL    HW299562   4.244   2.851   7.029 -1.1775 -2.0373  0.7696
32374SOL     OW99563   0.757  10.190   0.672 -0.3495 -0.5305  0.1289
32374SOL    HW199564   0.784  10.181   0.580  1.5998  0.0734  0.5846
32374SOL    HW299565   0.786  10.109   0.713 -1.2948 -0.8349  0.2138
32375SOL     OW99566   7.906   4.660   5.088 -0.8916  0.3456  0.2022
32375SOL    HW199567   7.956   4.622   5.016 -1.7892  0.1965 -0.3647
32375SOL    HW299568   7.824   4.688   5.047 -1.9316 -0.8474  1.3832
32376SOL     OW99569   9.636   6.001   6.960  0.3067 -0.5407 -0.4659
32376SOL    HW199570   9.628   5.906   6.971 -1.6843 -0.3450  0.0556
32376SOL    HW299571   9.679   6.031   7.040  0.1884 -0.8981 -0.2665
32377SOL     OW99572   0.413   7.895   6.781  0.1246 -0.1406 -0.0442
32377SOL    HW199573   0.397   7.978   6.738  0.3456  0.0745  0.2839
32377SOL    HW299574   0.424   7.917   6.873  0.2975 -0.5181  0.0292
32378SOL     OW99575   7.942   6.329   5.296  0.3585 -0.2894 -0.4203
32378SOL    HW199576   7.913   6.366   5.380 -0.5235 -1.5271 -0.1519
32378SOL    HW299577   8.002   6.394   5.261 -0.2213  0.8338  0.5914
32379SOL     OW99578   4.580   8.138   1.985 -0.2125 -0.2404 -0.3300
32379SOL    HW199579   4.552   8.195   2.056  0.6133 -0.3261  0.0767
32379SOL    HW299580   4.632   8.070   2.028  0.9421  0.1293 -1.0779
32380SOL     OW99581   8.879   0.840   9.082 -0.2198 -0.9180  0.4659
32380SOL    HW199582   8.798   0.869   9.124 -1.1206 -0.2774 -1.5864
32380SOL    HW299583   8.872   0.745   9.079 -0.4074 -0.9289  1.2354
32381SOL     OW99584   5.729   5.817   9.104 -1.2003 -0.1476  0.0942
32381SOL    HW199585   5.710   5.786   9.015  0.7323 -0.8428 -0.1163
32381SOL    HW299586   5.819   5.789   9.121 -1.0948  1.0685  1.8088
32382SOL     OW99587   1.972  10.255   9.300 -0.1101 -0.1653 -0.3479
32382SOL    HW199588   2.017  10.272   9.383 -0.0997 -0.4376 -0.2954
32382SOL    HW299589   1.883  10.231   9.326 -0.3139  0.4562 -0.4554
32383SOL     OW99590   4.689   5.808   2.577  0.0344  0.2514  0.1758
32383SOL    HW199591   4.726   5.825   2.491  2.2239 -0.8589  0.8414
32383SOL    HW299592   4.724   5.878   2.633  0.4463 -0.3069  0.6281
32384SOL     OW99593   1.679   6.348   2.031 -0.2821  0.3419  0.0759
32384SOL    HW199594   1.693   6.258   2.001 -1.0632 -0.3225  1.6349
32384SOL    HW299595   1.760   6.371   2.077  0.2132  0.7276 -0.9575
32385SOL     OW99596   9.472   3.312   3.720  0.0397  0.5352 -0.2323
32385SOL    HW199597   9.405   3.266   3.771 -2.2826  0.3516 -3.1915
32385SOL    HW299598   9.527   3.243   3.684 -1.1008  0.2553 -1.5384
32386SOL     OW99599   5.600   5.590   2.505  0.0838 -0.2694  0.1951
32386SOL    HW199600   5.624   5.601   2.597 -0.4485  2.5626  0.0661
32386SOL    HW299601   5.524   5.532   2.507 -1.9728  2.2704  1.9149
32387SOL     OW99602   9.206   2.792   9.333  0.0533  0.5738  0.1852
32387SOL    HW199603   9.205   2.751   9.420  1.1459  1.2563  0.5429
32387SOL    HW299604   9.274   2.745   9.285 -0.5971  0.1520 -0.3417
32388SOL     OW99605   2.634   8.122   0.582  0.0728  0.2940 -0.1018
32388SOL    HW199606   2.579   8.069   0.525 -0.4144  0.6640  0.0166
32388SOL    HW299607   2.719   8.126   0.537 -0.0245 -0.1933 -0.3344
32389SOL     OW99608   4.572   0.089   8.000  0.0993 -0.2866 -0.0684
32389SOL    HW199609   4.586   0.010   7.948  1.7464  0.6208 -1.0996
32389SOL    HW299610   4.597   0.161   7.942 -1.8343  1.0555  0.6628
32390SOL     OW99611   1.321   5.331   3.753  0.1029  0.4399  0.3913
32390SOL    HW199612   1.257   5.299   3.818 -0.7460 -0.7551 -0.9816
32390SOL    HW299613   1.404   5.291   3.780 -0.4157 -0.7873  0.2696
32391SOL     OW99614   6.569   8.796   2.073  0.2419 -0.4725  0.2709
32391SOL    HW199615   6.633   8.744   2.025  0.6791  0.2916 -0.0017
32391SOL    HW299616   6.621   8.867   2.111 -0.7120  1.3939 -1.6945
32392SOL     OW99617   0.232   5.758   8.994  0.6486 -0.1793  0.2354
32392SOL    HW199618   0.269   5.788   9.077  2.9153  0.5350 -0.9563
32392SOL    HW299619   0.140   5.741   9.014  1.2681 -0.6822  3.0294
32393SOL     OW99620   8.263   1.619   3.621 -0.4258 -0.5176 -0.1871
32393SOL    HW199621   8.195   1.667   3.574  0.8081 -0.2476 -1.7779
32393SOL    HW299622   8.284   1.675   3.696 -0.2922  0.5873 -1.0183
32394SOL     OW99623   0.089   5.025   7.819 -0.5541 -0.1187 -0.4591
32394SOL    HW199624   0.046   5.107   7.795 -0.9963 -0.5600 -1.1990
32394SOL    HW299625   0.182   5.041   7.802 -0.5705  0.4137 -0.0578
32395SOL     OW99626   7.122   2.780   3.781 -0.1009  0.1454 -0.4037
32395SOL    HW199627   7.188   2.811   3.844 -0.9325  1.8923 -0.3173
32395SOL    HW299628   7.100   2.692   3.810 -0.2373  0.7877  1.5946
32396SOL     OW99629   0.174   0.030   8.420 -0.6219  0.1645  0.3140
32396SOL    HW199630   0.240   0.082   8.375  1.3221 -0.1777  2.5890
32396SOL    HW299631   0.149   0.083   8.496  1.1768 -1.9353  2.5132
32397SOL     OW99632  10.118   7.608   8.198 -0.7448  0.1046 -0.2438
32397SOL    HW199633  10.041   7.553   8.181 -0.2318 -0.1435 -2.0453
32397SOL    HW299634  10.168   7.604   8.116  0.5616  1.2673  0.4573
32398SOL     OW99635   9.480   0.726   3.038 -0.5221 -0.0899 -0.4129
32398SOL    HW199636   9.479   0.694   3.128 -0.5154  1.0136 -0.0122
32398SOL    HW299637   9.388   0.731   3.013 -0.5059 -1.0360 -0.7181
32399SOL     OW99638   7.893   2.300   4.204 -0.0887  0.5501  0.3535
32399SOL    HW199639   7.851   2.321   4.287 -0.3135 -1.7327  0.9008
32399SOL    HW299640   7.987   2.308   4.221 -0.1381  0.1636  0.8170
32400SOL     OW99641   9.735   6.621   0.415  0.0850  0.0654  0.3256
32400SOL    HW199642   9.726   6.636   0.509 -1.6667 -1.0510  0.3728
32400SOL    HW299643   9.758   6.528   0.408 -1.7300 -0.3664 -0.3844
32401SOL     OW99644   0.761   4.541   7.218  0.1089 -0.4836 -0.0267
32401SOL    HW199645   0.826   4.472   7.208 -0.7712 -1.6365  1.5688
32401SOL    HW299646   0.767   4.593   7.138  0.9378 -2.2992 -1.1942
32402SOL     OW99647   9.574   4.395   2.331 -0.3598  0.1584  0.0141
32402SOL    HW199648   9.586   4.468   2.393  0.2707  0.0093  0.0655
32402SOL    HW299649   9.559   4.319   2.388 -0.3638  0.1265 -0.0299
32403SOL     OW99650   2.316   3.804   3.789  0.0869 -0.0550  0.3506
32403SOL    HW199651   2.342   3.712   3.801 -0.2278 -0.0463  1.1978
32403SOL    HW299652   2.334   3.822   3.697  1.1257 -0.6582  0.4121
32404SOL     OW99653   9.839   0.876   2.725  0.1390  0.2899  0.7401
32404SOL    HW199654   9.785   0.915   2.793  0.3566  0.7458  0.6514
32404SOL    HW299655   9.919   0.849   2.771  0.2036  0.4192  0.7038
32405SOL     OW99656   0.452   0.635   0.689  0.9768 -0.5739 -1.0385
32405SOL    HW199657   0.486   0.545   0.696  1.8252 -0.1447  0.9978
32405SOL    HW299658   0.517   0.689   0.735 -0.1958  0.9124 -1.0561
32406SOL     OW99659   5.017   8.447   2.350  0.1632 -0.5905  0.3181
32406SOL    HW199660   5.040   8.472   2.439 -0.5150  2.4423 -0.2406
32406SOL    HW299661   5.015   8.530   2.301 -0.5722 -2.0064 -2.2641
32407SOL     OW99662   5.171   1.548   5.955  0.3339  0.2335 -0.1461
32407SOL    HW199663   5.222   1.535   6.035 -3.4073  0.1072  2.5101
32407SOL    HW299664   5.138   1.461   5.933  0.6335  0.4118 -1.3484
32408SOL     OW99665   2.591   1.706   0.106  0.2518 -0.3994 -0.2258
32408SOL    HW199666   2.554   1.626   0.142 -0.7450 -0.0083 -0.3490
32408SOL    HW299667   2.538   1.776   0.144  0.5786  0.1481 -0.7677
32409SOL     OW99668   3.647   6.425   8.911 -0.2659 -0.6578  0.0177
32409SOL    HW199669   3.604   6.499   8.953  1.0357 -0.3339  0.8430
32409SOL    HW299670   3.576   6.368   8.883 -1.6384  2.3739 -3.6899
32410SOL     OW99671   3.245   0.735   9.958 -0.1998  0.0634  0.1013
32410SOL    HW199672   3.254   0.720  10.052 -1.8851  0.8365  0.4161
32410SOL    HW299673   3.214   0.652   9.923 -0.6304  0.0993  0.3992
32411SOL     OW99674   4.640   1.980   4.952 -0.1656  0.0996  0.0114
32411SOL    HW199675   4.720   1.928   4.962 -1.2172 -1.7001 -0.5647
32411SOL    HW299676   4.585   1.929   4.893 -2.5270  0.3361  1.8589
32412SOL     OW99677   9.847   4.242   9.517  0.0694  0.0027  0.4564
32412SOL    HW199678   9.783   4.172   9.503  0.2042  0.0408 -0.4427
32412SOL    HW299679   9.798   4.311   9.562 -0.6452  0.1937 -0.5729
32413SOL     OW99680   7.318   6.332   4.049  0.0017 -0.6433  0.5009
32413SOL    HW199681   7.344   6.422   4.030 -2.4470  0.0981  0.3830
32413SOL    HW299682   7.383   6.301   4.112  1.1457  1.0344  0.2097
32414SOL     OW99683   2.628   1.158   5.628  0.6696  0.9112 -0.4720
32414SOL    HW199684   2.534   1.140   5.622  0.7588  0.4674 -0.5500
32414SOL    HW299685   2.666   1.078   5.665  1.4169 -0.1106 -3.2196
32415SOL     OW99686   0.709   2.231   9.739  0.2762  0.0340 -0.1522
32415SOL    HW199687   0.750   2.178   9.808 -1.8709 -0.1915  1.0326
32415SOL    HW299688   0.720   2.178   9.659 -2.3144 -2.6274  1.0774
32416SOL     OW99689   6.410   4.196   6.258 -0.2674  0.0086 -0.4431
32416SOL    HW199690   6.441   4.107   6.274 -2.2214 -0.4623  1.1033
32416SOL    HW299691   6.414   4.207   6.163 -0.9827 -2.1308 -0.7586
32417SOL     OW99692   6.323   7.020   5.513  0.3917  0.1180  0.0668
32417SOL    HW199693   6.307   6.990   5.602  0.5314  0.3302  0.1668
32417SOL    HW299694   6.406   6.978   5.488  0.1280 -0.2895 -0.1267
32418SOL     OW99695   5.730   3.375   4.700  0.1003  0.7190 -0.0367
32418SOL    HW199696   5.705   3.283   4.708 -2.2708  1.2066 -1.1315
32418SOL    HW299697   5.769   3.382   4.613  0.0360  0.8074 -0.0585
32419SOL     OW99698   8.831   6.986   8.035  0.8261 -0.3775 -0.1711
32419SOL    HW199699   8.918   6.967   8.069  0.9198 -0.0323 -0.2129
32419SOL    HW299700   8.799   6.902   8.002  1.5004 -0.3302 -0.9711
32420SOL     OW99701   9.622   5.730   8.302  0.4687 -0.1821 -0.1080
32420SOL    HW199702   9.586   5.818   8.313  0.0542 -0.1317 -1.5739
32420SOL    HW299703   9.716   5.740   8.317  0.6794  0.8731 -1.8454
32421SOL     OW99704   7.201   3.316   2.508 -0.0175  0.2546 -0.0250
32421SOL    HW199705   7.162   3.237   2.472  0.2598  1.0001 -2.1016
32421SOL    HW299706   7.241   3.360   2.433  2.6013  0.8303  1.5381
32422SOL     OW99707   4.744   1.978   1.743 -0.5177  0.6675  0.1814
32422SOL    HW199708   4.662   1.947   1.706  0.8249  0.9348 -3.3721
32422SOL    HW299709   4.801   1.901   1.745 -0.8139  0.4110  2.8973
32423SOL     OW99710   4.405   7.408   0.586 -0.4733 -1.0814  0.3218
32423SOL    HW199711   4.413   7.488   0.534  1.3245 -1.7071 -0.4312
32423SOL    HW299712   4.437   7.433   0.673  0.2804 -1.0231  0.0337
32424SOL     OW99713   4.052   6.567   6.478 -0.6330  0.2923 -0.8107
32424SOL    HW199714   4.071   6.627   6.550  2.5712 -0.0886 -1.2193
32424SOL    HW299715   4.027   6.625   6.405  0.1262  0.9873 -0.5337
32425SOL     OW99716   1.279   6.345   8.237  0.0037 -0.2232  0.1693
32425SOL    HW199717   1.342   6.283   8.274  0.9180  1.5841  1.8527
32425SOL    HW299718   1.320   6.431   8.249 -0.9917  0.7267 -2.5121
32426SOL     OW99719   0.321   5.814   1.159  0.3197 -0.2145 -0.3440
32426SOL    HW199720   0.226   5.810   1.155  0.2500  1.4221 -1.2494
32426SOL    HW299721   0.351   5.734   1.117 -0.6655 -0.0358 -1.4199
32427SOL     OW99722   5.959   0.000   3.779  0.2779 -0.4323  0.1849
32427SOL    HW199723   6.042  -0.047   3.782 -0.1553 -1.1780  1.0191
32427SOL    HW299724   5.959   0.045   3.694  1.0114 -1.3742 -0.3269
32428SOL     OW99725   9.267   2.458   1.012  0.3018 -0.0657 -0.0500
32428SOL    HW199726   9.313   2.506   1.081  0.3644 -0.3311  0.0938
32428SOL    HW299727   9.183   2.433   1.053 -0.8026  2.0397 -0.8890
32429SOL     OW99728   2.756   7.488   3.007 -0.3543  0.2397 -0.6913
32429SOL    HW199729   2.757   7.420   3.074 -1.4852 -1.1855 -2.0230
32429SOL    HW299730   2.714   7.563   3.049 -0.7125 -0.5005  0.3019
32430SOL     OW99731   8.867  10.161   3.167  0.0210  0.2072 -0.4509
32430SOL    HW199732   8.948  10.204   3.193 -0.5299  0.2056  1.4460
32430SOL    HW299733   8.894  10.080   3.125  1.0448 -0.9419  2.2220
32431SOL     OW99734   7.033   2.196   4.721  0.3293 -0.2653  0.2086
32431SOL    HW199735   7.113   2.145   4.735 -0.4910 -1.6472  0.0215
32431SOL    HW299736   7.060   2.266   4.661  1.0738 -1.6099 -1.0845
32432SOL     OW99737   2.867  10.140   1.965 -0.0307  0.2395  0.0116
32432SOL    HW199738   2.864  10.169   1.873  1.1388  2.9933  0.7448
32432SOL    HW299739   2.793  10.183   2.006  1.0148  1.2820  0.8844
32433SOL     OW99740   8.976   8.504   2.509  0.2286 -0.1925 -0.0013
32433SOL    HW199741   8.887   8.518   2.478  0.3929 -0.2865 -0.5299
32433SOL    HW299742   9.005   8.590   2.539 -0.2751 -0.3015  0.8079
32434SOL     OW99743   3.326   6.448   3.370  0.5833 -0.1043  0.1167
32434SOL    HW199744   3.248   6.451   3.315 -0.5616 -0.0012  1.6917
32434SOL    HW299745   3.336   6.537   3.403 -0.2848 -0.6858  2.0895
32435SOL     OW99746   7.425   8.003   3.669 -0.1911  0.2094  0.4844
32435SOL    HW199747   7.452   8.090   3.696 -0.1465  0.4046 -0.1706
32435SOL    HW299748   7.472   7.944   3.729 -0.2556  0.6275  0.9558
32436SOL     OW99749   6.165   8.721   2.366  0.0875  0.3903 -0.2241
32436SOL    HW199750   6.222   8.697   2.293  0.6354 -1.3371  0.7021
32436SOL    HW299751   6.220   8.709   2.444 -1.1069  0.1074  0.5990
32437SOL     OW99752   3.318   3.508  10.411 -0.2080 -0.1591  0.2970
32437SOL    HW199753   3.323   3.551  10.325 -0.2385 -0.0833  0.3329
32437SOL    HW299754   3.227   3.521  10.439 -0.3113 -0.5593  0.1492
32438SOL     OW99755   0.129   1.854   8.764 -0.4640 -0.2389 -0.5375
32438SOL    HW199756   0.220   1.826   8.780 -0.6642 -0.7186 -0.1802
32438SOL    HW299757   0.113   1.920   8.831 -0.0262  0.6777 -1.3089
32439SOL     OW99758   6.869   5.605   7.351  0.4265 -0.0650  0.0306
32439SOL    HW199759   6.929   5.642   7.416 -0.8871 -0.0007  1.2443
32439SOL    HW299760   6.815   5.679   7.324  0.6368 -0.1998 -0.7975
32440SOL     OW99761   0.715   8.624   5.289  0.2664 -0.1429 -0.4013
32440SOL    HW199762   0.778   8.649   5.356 -0.8454  1.1453  0.2079
32440SOL    HW299763   0.630   8.645   5.327 -0.5553 -1.7733 -1.2266
32441SOL     OW99764   5.270   9.325   4.004  0.0975  0.3902  0.5554
32441SOL    HW199765   5.338   9.362   3.947  0.6739 -0.0117  0.9594
32441SOL    HW299766   5.235   9.251   3.954  1.7470 -1.0051  1.3195
32442SOL     OW99767   8.212   2.463   3.774 -0.8048  0.4110 -0.1787
32442SOL    HW199768   8.185   2.542   3.727 -0.6306  0.9349  0.5994
32442SOL    HW299769   8.234   2.401   3.704  1.4212  1.8278 -0.8168
32443SOL     OW99770   3.192   0.156   3.056 -0.0995 -0.0063 -0.3821
32443SOL    HW199771   3.198   0.068   3.020 -1.3898 -0.5189  0.5876
32443SOL    HW299772   3.231   0.149   3.143  1.6179  0.8752 -1.0218
32444SOL     OW99773   5.678   8.635   9.174 -0.2675 -0.1384 -0.9417
32444SOL    HW199774   5.587   8.658   9.159 -0.4671 -0.2300  0.0496
32444SOL    HW299775   5.723   8.719   9.181 -0.4584 -0.0788 -0.4020
32445SOL     OW99776   3.116   1.674   5.771  0.2045 -0.4949  0.1800
32445SOL    HW199777   3.107   1.769   5.763 -0.4193 -0.5338  0.3981
32445SOL    HW299778   3.207   1.661   5.799  0.0782  0.0808  0.8933
32446SOL     OW99779   9.169   7.637   9.352  0.1866  0.6284 -0.4983
32446SOL    HW199780   9.159   7.639   9.257 -1.1731  1.3899 -0.3813
32446SOL    HW299781   9.226   7.563   9.370 -0.5544 -0.2916 -1.8294
32447SOL     OW99782   0.544   6.881   5.181  0.1233 -0.1816 -0.1643
32447SOL    HW199783   0.564   6.967   5.217 -2.2593  0.3364  0.0413
32447SOL    HW299784   0.602   6.873   5.106  1.5053  0.9080  0.7268
32448SOL     OW99785   7.864   8.833   8.350 -0.2242 -0.0642 -0.1165
32448SOL    HW199786   7.843   8.751   8.395  1.1899  0.3365  1.3844
32448SOL    HW299787   7.869   8.898   8.420  1.5061  0.7083 -0.9085
32449SOL     OW99788   8.557   3.409   0.681 -0.2799 -1.2131  0.7500
32449SOL    HW199789   8.470   3.428   0.645 -0.0349 -1.5085 -0.0159
32449SOL    HW299790   8.542   3.399   0.775 -0.6782  1.0586  0.9650
32450SOL     OW99791   8.494  10.386   4.849 -0.2166  0.0135 -0.5085
32450SOL    HW199792   8.433  10.364   4.778  0.8753  0.6835 -1.6889
32450SOL    HW299793   8.465  10.332   4.923 -2.4347  0.5523 -0.9117
32451SOL     OW99794   2.454   9.963   7.294 -0.1549  0.1615 -0.4463
32451SOL    HW199795   2.392  10.019   7.342 -0.4368  0.6036 -1.3002
32451SOL    HW299796   2.399   9.902   7.246  0.1031  0.0185 -0.5613
32452SOL     OW99797   8.144   7.029   3.582 -0.3566 -0.3641 -0.4659
32452SOL    HW199798   8.114   7.009   3.671  1.0662 -1.9699 -0.2941
32452SOL    HW299799   8.216   7.091   3.594  3.0639 -4.0323  0.0516
32453SOL     OW99800   7.347   9.814   3.972 -0.3156  0.5040  0.2963
32453SOL    HW199801   7.333   9.908   3.976 -2.2070  0.2068  1.8230
32453SOL    HW299802   7.309   9.788   3.888  1.1437  1.1960 -0.6168
32454SOL     OW99803   6.014   5.267   9.174 -0.0575  0.1584  0.1662
32454SOL    HW199804   6.093   5.215   9.188  1.6184  2.3282 -0.5508
32454SOL    HW299805   5.949   5.205   9.143  2.1630 -1.3844 -1.7906
32455SOL     OW99806   1.628   1.632   1.873 -0.4068 -0.0631 -0.2625
32455SOL    HW199807   1.668   1.613   1.789  1.1093 -2.4551  0.8897
32455SOL    HW299808   1.652   1.723   1.892 -1.7765  0.9420 -2.8319
32456SOL     OW99809   7.007   1.668   2.712 -1.2575 -0.1025 -0.2339
32456SOL    HW199810   7.010   1.740   2.650  1.4698  0.2786  0.2340
32456SOL    HW299811   7.014   1.589   2.659 -1.2851  0.1132 -0.5560
32457SOL     OW99812   5.692   3.309   2.507  0.3201 -0.1507  0.7233
32457SOL    HW199813   5.733   3.389   2.540 -0.3840  1.9630 -2.9683
32457SOL    HW299814   5.620   3.292   2.568  0.2876  2.2527  1.4407
32458SOL     OW99815   3.172   2.094   1.056 -0.0256  0.0035  0.5483
32458SOL    HW199816   3.095   2.086   0.999 -1.8027  1.4223  2.5738
32458SOL    HW299817   3.156   2.032   1.127  1.0144 -0.1232  0.6854
32459SOL     OW99818   1.460   6.007   2.999  0.0899 -0.0128 -0.0713
32459SOL    HW199819   1.456   5.913   2.979 -1.8660 -0.0715  0.3523
32459SOL    HW299820   1.548   6.034   2.973  1.8332 -2.5541  2.4951
32460SOL     OW99821   4.687   1.657   0.334  0.5336 -0.0215  0.2179
32460SOL    HW199822   4.715   1.566   0.331 -1.5508 -0.8280  2.3814
32460SOL    HW299823   4.628   1.667   0.259  0.3002 -0.6226  0.3208
32461SOL     OW99824   3.158   9.039   9.933  0.4967 -0.3438 -0.3227
32461SOL    HW199825   3.241   8.994   9.919  1.3756  0.0226  2.8982
32461SOL    HW299826   3.183   9.127   9.961 -1.0854  0.4931 -1.3554
32462SOL     OW99827   3.594  10.361   1.655 -0.2309 -0.1379 -0.0193
32462SOL    HW199828   3.566  10.437   1.604  0.0762 -0.2375 -0.3354
32462SOL    HW299829   3.567  10.286   1.602 -0.3568 -0.2502  0.2013
32463SOL     OW99830   6.319   1.240   8.284 -0.3383 -0.7696 -0.2166
32463SOL    HW199831   6.380   1.173   8.317  0.8266 -0.0734 -0.8685
32463SOL    HW299832   6.266   1.263   8.360  1.1331 -0.4270  0.7496
32464SOL     OW99833   9.721   2.221   8.052  0.2027  0.0337  0.4876
32464SOL    HW199834   9.802   2.271   8.055 -0.3528  0.9217  1.2971
32464SOL    HW299835   9.687   2.225   8.142 -1.7299  1.3731 -0.2308
32465SOL     OW99836   3.820   3.229   0.264 -0.1357 -0.2596  0.1470
32465SOL    HW199837   3.842   3.301   0.323 -2.8446  0.5498  0.3123
32465SOL    HW299838   3.748   3.184   0.307 -1.1434 -0.6241 -1.7855
32466SOL     OW99839   3.884   2.493   1.710 -0.3367 -0.1661  0.4548
32466SOL    HW199840   3.908   2.485   1.803 -1.0972 -0.1145  0.6618
32466SOL    HW299841   3.828   2.417   1.694 -0.3664 -0.0656  0.0829
32467SOL     OW99842   9.828   1.630   3.300  0.5194  0.6741 -0.2450
32467SOL    HW199843   9.840   1.706   3.243 -0.5836 -0.6740 -2.4068
32467SOL    HW299844   9.734   1.626   3.317  0.2122 -1.3671 -1.9864
32468SOL     OW99845   0.808   9.433   0.507  0.2661  0.1225  0.1383
32468SOL    HW199846   0.762   9.385   0.575 -1.2161 -0.8073 -1.4289
32468SOL    HW299847   0.800   9.378   0.429  1.7348  1.2153 -0.8469
32469SOL     OW99848   9.989   3.339   0.612  1.0402 -0.7975 -0.3481
32469SOL    HW199849  10.063   3.399   0.611  0.5758 -0.1823  0.5187
32469SOL    HW299850   9.935   3.366   0.538 -0.2210  1.2925  1.1905
32470SOL     OW99851   1.945   2.440   3.869  0.5154  0.2550 -0.0853
32470SOL    HW199852   1.884   2.426   3.797 -0.8996 -0.1479  1.1382
32470SOL    HW299853   1.927   2.530   3.898  1.0882  0.4201 -0.2328
32471SOL     OW99854   3.260   2.967   3.802  0.1110 -0.3811 -0.2228
32471SOL    HW199855   3.354   2.988   3.804  0.3736 -1.5433 -0.0088
32471SOL    HW299856   3.217   3.053   3.805  1.1578  0.2777 -2.2747
32472SOL     OW99857   0.458   5.060   5.528  0.2600 -0.7001  0.2234
32472SOL    HW199858   0.473   5.089   5.438  1.0267 -0.8726  0.2893
32472SOL    HW299859   0.363   5.056   5.536  0.1631  0.3288 -0.2509
32473SOL     OW99860   0.334   6.617   6.804 -0.2629  0.4658 -0.0347
32473SOL    HW199861   0.378   6.698   6.830 -0.4291  0.2499  0.9852
32473SOL    HW299862   0.327   6.567   6.885 -1.7576  0.1950 -0.3077
32474SOL     OW99863   1.292   2.737   9.463  0.1326  0.1122 -0.1992
32474SOL    HW199864   1.266   2.776   9.547  0.3508  0.1706 -0.1574
32474SOL    HW299865   1.380   2.704   9.479 -0.0902 -0.4916 -0.2078
32475SOL     OW99866   8.965   4.571   8.036  0.4558 -0.1540 -0.5054
32475SOL    HW199867   8.878   4.554   8.073  1.2194 -2.5937  0.3895
32475SOL    HW299868   9.001   4.642   8.090 -0.4017 -0.1826  0.1265
32476SOL     OW99869   2.289   4.345   8.238 -0.4540 -0.2594 -0.0829
32476SOL    HW199870   2.279   4.257   8.200  0.0371  0.0548 -0.9776
32476SOL    HW299871   2.200   4.378   8.245 -0.7279 -1.1920  1.1782
32477SOL     OW99872   2.297   3.806   7.097  0.3688  0.1511  0.5577
32477SOL    HW199873   2.362   3.741   7.070 -0.7434 -1.0213  0.6490
32477SOL    HW299874   2.345   3.864   7.156  1.9458  0.7308 -1.1842
32478SOL     OW99875   9.862   3.809   4.537 -0.0252 -0.1126  0.1698
32478SOL    HW199876   9.881   3.807   4.443  0.6766  1.3861  0.2612
32478SOL    HW299877   9.886   3.897   4.565 -0.9177 -0.2981  1.6235
32479SOL     OW99878   1.880  10.378   7.240  0.5119 -0.2023 -0.0816
32479SOL    HW199879   1.914  10.458   7.280  0.0954 -0.2532  0.3801
32479SOL    HW299880   1.920  10.307   7.291 -1.5239 -0.2581  1.5696
32480SOL     OW99881   8.624   7.871   5.433 -0.3233  0.2948  0.2480
32480SOL    HW199882   8.596   7.852   5.343 -0.3541  0.1207  0.2956
32480SOL    HW299883   8.654   7.787   5.467 -1.1845  0.1739  0.7202
32481SOL     OW99884   2.240   0.236  10.164 -0.3861 -0.1244  0.4133
32481SOL    HW199885   2.238   0.211  10.071 -1.0998 -1.7406  0.8226
32481SOL    HW299886   2.157   0.281  10.178 -1.6149 -2.3344  0.8291
32482SOL     OW99887   5.542   8.102   0.033  0.2604  0.4434 -0.1983
32482SOL    HW199888   5.586   8.023   0.065 -1.3975 -0.3272  0.2489
32482SOL    HW299889   5.606   8.172   0.048  0.8062 -0.4139  1.8187
32483SOL     OW99890   0.580   3.862   6.394 -0.1042 -0.3163 -0.1457
32483SOL    HW199891   0.612   3.940   6.439 -0.1986 -0.2073 -0.2696
32483SOL    HW299892   0.485   3.864   6.406 -0.0825 -0.5493  0.0723
32484SOL     OW99893   5.356   1.967   7.538 -0.0326 -0.0435 -0.4574
32484SOL    HW199894   5.433   2.023   7.539 -0.9315  1.3186 -2.4485
32484SOL    HW299895   5.289   2.017   7.492 -1.2000 -2.3533 -1.4820
32485SOL     OW99896  10.054   2.227   2.527  0.2453  0.4806  0.2085
32485SOL    HW199897  10.083   2.317   2.511  0.0969  0.2744 -1.4292
32485SOL    HW299898  10.110   2.196   2.598  2.3173  0.9497 -1.1301
32486SOL     OW99899   2.611   0.935   2.290  0.2866 -0.2842 -0.6459
32486SOL    HW199900   2.590   1.022   2.324  2.0477  0.1480 -0.5486
32486SOL    HW299901   2.527   0.898   2.262 -1.5742 -0.9327  4.6058
32487SOL     OW99902   4.087   8.648  10.283 -0.4764 -0.5685 -0.3845
32487SOL    HW199903   4.050   8.611  10.363  1.5802 -3.8227 -0.7733
32487SOL    HW299904   4.179   8.663  10.303 -0.3642  0.5540 -1.5582
32488SOL     OW99905   7.245   7.397   5.145 -0.1337 -0.4619  0.0824
32488SOL    HW199906   7.180   7.419   5.078 -1.4925 -1.7159  0.9160
32488SOL    HW299907   7.296   7.326   5.107 -0.0705 -0.3236 -0.0930
32489SOL     OW99908   4.873   2.482   6.646 -0.7830  0.0946 -0.7173
32489SOL    HW199909   4.790   2.528   6.632 -0.3907  0.6337 -1.3263
32489SOL    HW299910   4.848   2.401   6.691 -1.5422  0.6466 -0.1046
32490SOL     OW99911   2.016   1.371   4.454  0.0449  0.1705  0.0601
32490SOL    HW199912   1.997   1.453   4.500 -0.2691 -0.1932  0.5786
32490SOL    HW299913   2.101   1.387   4.412 -0.1172  0.8415 -0.0356
32491SOL     OW99914   3.479   8.211   6.998  0.1748  0.6655  0.0568
32491SOL    HW199915   3.551   8.158   6.966  0.3336  1.3422 -0.7504
32491SOL    HW299916   3.442   8.251   6.920  0.6959  2.5267  0.7085
32492SOL     OW99917   9.343   0.021   5.254 -0.4888  0.0790 -0.3428
32492SOL    HW199918   9.320  -0.030   5.332 -0.1570 -0.4928 -0.6117
32492SOL    HW299919   9.414   0.077   5.283 -1.0591  0.6151  0.0362
32493SOL     OW99920   8.821   2.668   8.345  0.0198  0.1443  0.0143
32493SOL    HW199921   8.911   2.655   8.374 -0.0964  0.9150  0.7559
32493SOL    HW299922   8.826   2.675   8.250  1.2426  3.8248  0.2021
32494SOL     OW99923   1.831   0.034   7.610  0.2301 -0.5556  0.2106
32494SOL    HW199924   1.802   0.102   7.670  0.5149 -0.6282  0.4358
32494SOL    HW299925   1.751  -0.009   7.580 -0.0022  0.3387 -0.4924
32495SOL     OW99926   4.741   3.783   4.666 -0.0995  0.0947 -0.3404
32495SOL    HW199927   4.827   3.741   4.662  0.6651  1.5141  0.2629
32495SOL    HW299928   4.739   3.825   4.752 -1.3781  0.1327 -0.3749
32496SOL     OW99929   9.300   7.119   8.598 -0.5797  0.5637 -0.4675
32496SOL    HW199930   9.305   7.097   8.691 -0.2672 -0.9977 -0.8148
32496SOL    HW299931   9.304   7.214   8.595 -1.6432  0.6979  1.1688
32497SOL     OW99932   9.132   9.308  10.366  0.1682 -0.1144 -0.1416
32497SOL    HW199933   9.177   9.225  10.351 -0.0849 -0.2764 -0.0247
32497SOL    HW299934   9.138   9.321  10.461 -0.6764 -0.5193 -0.0205
32498SOL     OW99935   8.645   7.579   5.888 -0.1331 -0.2018 -0.6375
32498SOL    HW199936   8.684   7.522   5.955 -0.0271  0.0503 -0.4838
32498SOL    HW299937   8.579   7.524   5.846  0.2435 -0.5671 -0.7606
32499SOL     OW99938   4.989   8.409   6.133  0.1265 -0.2179  0.0265
32499SOL    HW199939   5.038   8.469   6.077  0.2589  0.0703  0.4485
32499SOL    HW299940   5.055   8.373   6.194 -0.1547  0.0600  0.5016
32500SOL     OW99941  10.063   1.346   8.305  0.8550  0.0587  0.1275
32500SOL    HW199942  10.139   1.335   8.362 -0.1180  1.4306  1.8090
32500SOL    HW299943  10.052   1.441   8.298 -0.6490 -0.1021 -0.1030
32501SOL     OW99944   1.922   2.614   4.534  0.1918 -0.0993 -0.3101
32501SOL    HW199945   1.977   2.605   4.456  1.5873  0.1955  0.6050
32501SOL    HW299946   1.960   2.687   4.582 -0.9549  0.0459  0.4154
32502SOL     OW99947   0.562   8.680   7.467 -0.1319 -0.3005  0.4405
32502SOL    HW199948   0.545   8.612   7.532  1.3255 -0.4672  0.6795
32502SOL    HW299949   0.582   8.758   7.519 -0.8686  0.0696  0.1744
32503SOL     OW99950   5.804   3.213   6.313  0.0561  0.2309 -0.6616
32503SOL    HW199951   5.855   3.221   6.394  0.6169  0.1328 -0.9987
32503SOL    HW299952   5.821   3.295   6.266 -0.5504  0.4399 -0.5239
32504SOL     OW99953   2.699   0.752   4.608 -0.5634 -0.0869 -0.1156
32504SOL    HW199954   2.745   0.674   4.637 -0.0612  0.6432  1.1449
32504SOL    HW299955   2.607   0.733   4.624 -0.3712 -0.0847  1.0617
32505SOL     OW99956   9.366   5.834   5.744  0.4386 -0.1413  0.0265
32505SOL    HW199957   9.285   5.860   5.787  1.3246  1.6046  0.7479
32505SOL    HW299958   9.360   5.739   5.738 -2.4031  0.0411 -1.5397
32506SOL     OW99959   8.121   4.320   5.567  0.2646 -0.4000 -0.2627
32506SOL    HW199960   8.063   4.371   5.624 -0.1442  1.8596 -2.5462
32506SOL    HW299961   8.209   4.349   5.590  0.3888 -1.8429  1.3149
32507SOL     OW99962   4.088   8.805   1.873  0.3773 -0.1052  0.5201
32507SOL    HW199963   4.017   8.766   1.925 -0.7352  0.2074 -0.7069
32507SOL    HW299964   4.053   8.808   1.784  1.2942  1.5914  0.1748
32508SOL     OW99965   0.472   9.272   5.215  0.0231  0.1968  0.1999
32508SOL    HW199966   0.414   9.196   5.222  0.6580 -0.3193 -0.0007
32508SOL    HW299967   0.510   9.282   5.302 -0.6686  0.7937  0.4454
32509SOL     OW99968   2.206   3.474   4.676 -0.2227  0.1010  0.0664
32509SOL    HW199969   2.155   3.429   4.609  1.2417  0.3899 -1.3237
32509SOL    HW299970   2.144   3.533   4.719 -1.5841 -1.3451  0.1624
32510SOL     OW99971   6.845   6.138   8.891 -0.2112 -0.0244  0.0274
32510SOL    HW199972   6.831   6.175   8.978  1.5279  0.7921  0.0009
32510SOL    HW299973   6.757   6.117   8.859 -0.9935  1.0487  1.3755
32511SOL     OW99974   3.121  10.170   2.531 -0.2230 -0.5847  0.0209
32511SOL    HW199975   3.099  10.148   2.441  0.0681 -3.7176  0.5933
32511SOL    HW299976   3.213  10.197   2.528  0.0580 -1.5745 -0.5173
32512SOL     OW99977   4.114   9.053   1.222  0.1391 -0.0528 -0.2226
32512SOL    HW199978   4.161   9.136   1.217 -2.6700  1.8892  1.8764
32512SOL    HW299979   4.052   9.055   1.149 -1.3264  0.7942  0.9683
32513SOL     OW99980   2.852  10.266   7.395  0.2323  0.2066 -0.2149
32513SOL    HW199981   2.854  10.191   7.336  0.5851 -0.0052  0.0602
32513SOL    HW299982   2.760  10.289   7.402  0.3126  1.4278 -2.3511
32514SOL     OW99983   7.738   1.650   1.693  0.4821  0.4181  0.1588
32514SOL    HW199984   7.718   1.556   1.692  1.4593  0.1030  2.6424
32514SOL    HW299985   7.822   1.657   1.650 -0.0320  0.3099 -0.8904
32515SOL     OW99986   5.241   4.984   5.104  0.2737  0.0104 -0.0109
32515SOL    HW199987   5.267   5.071   5.135 -2.7311  0.6811  1.0807
32515SOL    HW299988   5.250   4.927   5.181 -0.0330 -0.0567 -0.0202
32516SOL     OW99989   6.026   4.825   7.350 -0.2993 -0.0703 -0.2478
32516SOL    HW199990   6.030   4.834   7.445  1.6489 -0.4950 -0.2623
32516SOL    HW299991   6.105   4.778   7.326  0.0437  1.3543 -2.2292
32517SOL     OW99992   2.553   5.113   6.153  0.0707  0.5175 -0.3603
32517SOL    HW199993   2.546   5.078   6.064 -0.8176 -0.7445  0.1812
32517SOL    HW299994   2.594   5.043   6.203 -1.6839  0.2314  0.7413
32518SOL     OW99995   5.591   9.349   7.055  0.0440 -0.0546  0.2890
32518SOL    HW199996   5.625   9.368   7.143 -1.1437 -0.6356  0.8936
32518SOL    HW299997   5.646   9.402   6.997 -0.2845  1.7330  1.5206
32519SOL     OW99998   8.864   3.736   7.301 -0.2099 -0.0124  0.4168
32519SOL    HW199999   8.937   3.703   7.353 -1.6008 -1.1436  1.7611
32519SOL    HW2    0   8.786   3.710   7.350 -1.5149  2.0280 -0.4359
32520SOL     OW    1   6.762   9.104   5.970  0.2036  0.3498 -0.5578
32520SOL    HW1    2   6.783   9.165   5.898  0.2652  1.0737  0.0578
32520SOL    HW2    3   6.808   9.024   5.947 -1.1614 -0.0110 -2.1914
32521SOL     OW    4   5.173   2.130   7.690 -0.2381  0.1523  0.6837
32521SOL    HW1    5   5.244   2.071   7.665 -0.8297 -0.0459 -0.5785
32521SOL    HW2    6   5.095   2.075   7.692 -0.7571  0.8163 -0.2945
32522SOL     OW    7   1.561  10.476   3.803  0.0885 -0.8403 -0.2696
32522SOL    HW1    8   1.516  10.417   3.862 -0.5050  0.6534  0.8231
32522SOL    HW2    9   1.519  10.561   3.816  3.3551  0.7545  1.1076
32523SOL     OW   10   5.715   4.975   8.663 -0.2670  0.3869 -0.2769
32523SOL    HW1   11   5.779   4.958   8.594  0.2937  1.1830  0.0312
32523SOL    HW2   12   5.707   5.071   8.667  1.8899  0.5889  2.6584
32524SOL     OW   13   5.215   8.680   6.592  0.0775 -0.4578 -0.0185
32524SOL    HW1   14   5.259   8.730   6.661 -1.3913 -1.8688  2.0033
32524SOL    HW2   15   5.220   8.589   6.620 -1.0548 -1.0286 -1.5239
32525SOL     OW   16   5.253   4.910   8.387  0.3747  0.0275  0.4849
32525SOL    HW1   17   5.214   4.886   8.470 -1.2758  0.1035 -0.2279
32525SOL    HW2   18   5.277   4.826   8.346 -0.0852 -0.0936  0.4572
32526SOL     OW   19   9.924   2.928   8.905  0.0681 -0.4482 -0.4919
32526SOL    HW1   20   9.910   3.000   8.966 -0.4133 -0.0549 -1.0519
32526SOL    HW2   21   9.839   2.883   8.901 -1.1911  1.7723 -3.6862
32527SOL     OW   22   8.912   6.924   2.139  0.0564 -0.5326  0.4569
32527SOL    HW1   23   8.994   6.908   2.093 -0.1807 -0.1696 -0.1061
32527SOL    HW2   24   8.878   6.837   2.160 -0.5608 -0.7753 -1.3881
32528SOL     OW   25   9.902   4.054   6.890  0.3295  0.0817  0.3786
32528SOL    HW1   26   9.974   3.998   6.859 -0.9945 -1.6309  0.2765
32528SOL    HW2   27   9.891   4.119   6.821  1.3148 -0.0427  0.0819
32529SOL     OW   28   4.371   5.592   3.005 -0.1274  0.5662 -0.0154
32529SOL    HW1   29   4.452   5.552   3.037  0.7820  2.5119  0.2352
32529SOL    HW2   30   4.301   5.546   3.052  0.9061 -0.0867  0.9338
32530SOL     OW   31   1.663   8.311   1.676 -0.1866 -0.0364  0.3296
32530SOL    HW1   32   1.733   8.263   1.632  0.8325 -0.3612  2.1717
32530SOL    HW2   33   1.691   8.402   1.674 -0.5425  0.0633 -0.3716
32531SOL     OW   34   3.269   2.766   9.205 -0.4345 -0.3659 -0.0909
32531SOL    HW1   35   3.232   2.853   9.222 -0.1184 -0.2197 -0.1399
32531SOL    HW2   36   3.211   2.728   9.139 -1.6359 -0.9146  1.2422
32532SOL     OW   37   0.476   1.846   5.847  0.0399 -0.0571 -0.4383
32532SOL    HW1   38   0.466   1.764   5.798  0.9572  0.0041 -0.7495
32532SOL    HW2   39   0.527   1.903   5.789  1.1716  0.0060  0.5704
32533SOL     OW   40   9.564   6.362   6.559 -0.6607 -0.1012  0.1625
32533SOL    HW1   41   9.529   6.296   6.619  1.5122 -0.3321  1.2661
32533SOL    HW2   42   9.567   6.443   6.611 -1.9534  0.5621 -0.7397
32534SOL     OW   43   3.152   0.409   8.156 -0.8553  0.3660 -0.2611
32534SOL    HW1   44   3.153   0.327   8.205  0.1025  1.8222  2.4191
32534SOL    HW2   45   3.155   0.383   8.064 -1.0663 -2.5646  0.4656
32535SOL     OW   46  10.350   9.153   0.844  0.3470  0.3443 -0.1153
32535SOL    HW1   47  10.276   9.095   0.865  0.5880 -0.5825 -1.7353
32535SOL    HW2   48  10.411   9.139   0.916  0.7591 -2.0789 -0.8254
32536SOL     OW   49   0.159   2.531   0.294 -0.5532  0.2602 -0.0585
32536SOL    HW1   50   0.082   2.580   0.326  0.5444  1.5075  0.7970
32536SOL    HW2   51   0.181   2.473   0.367 -1.1304 -0.6830 -0.6126
32537SOL     OW   52   8.544   0.510  10.463  0.1157 -0.5123 -0.3251
32537SOL    HW1   53   8.527   0.422  10.428 -0.2321 -1.2682  1.5939
32537SOL    HW2   54   8.458   0.551  10.467 -0.0509 -0.9353  0.8403
32538SOL     OW   55  10.260   8.953   4.324  0.2772  0.3733 -0.0267
32538SOL    HW1   56  10.174   8.914   4.309 -0.4639  2.0295 -0.3129
32538SOL    HW2   57  10.245   9.019   4.392  1.3774  0.4985  0.1104
32539SOL     OW   58   0.982   7.277   6.412 -0.4882  0.5925  0.6595
32539SOL    HW1   59   1.035   7.332   6.355  1.2560 -0.6357  1.0083
32539SOL    HW2   60   0.896   7.275   6.370 -0.3269  2.7026  0.1078
32540SOL     OW   61   9.542   0.488   0.798  0.0928  0.0882 -0.2720
32540SOL    HW1   62   9.589   0.424   0.744 -0.7633 -0.9978  0.2357
32540SOL    HW2   63   9.609   0.553   0.820  1.1824 -0.9938 -0.2203
32541SOL     OW   64   9.318   3.292   5.767  0.3901 -0.3462 -0.1261
32541SOL    HW1   65   9.381   3.250   5.707  0.1299 -2.8259  1.1913
32541SOL    HW2   66   9.343   3.260   5.854 -1.1887  0.5871  0.7041
32542SOL     OW   67   4.089   0.795   9.811  0.6362  0.5326 -0.3383
32542SOL    HW1   68   4.152   0.852   9.767  2.5760 -1.2771 -0.0478
32542SOL    HW2   69   4.142   0.743   9.872 -1.2880 -0.4406  0.5871
32543SOL     OW   70   1.450   8.973   6.525 -0.1005 -0.2342  0.3438
32543SOL    HW1   71   1.370   9.025   6.516  0.5299  1.1819  2.2658
32543SOL    HW2   72   1.424   8.899   6.580 -0.8092 -1.6155 -1.7434
32544SOL     OW   73   4.600   4.749   5.670  0.1071  0.2660  0.1622
32544SOL    HW1   74   4.646   4.718   5.748  0.8127  1.0050  0.0615
32544SOL    HW2   75   4.625   4.687   5.601 -0.5537 -0.4127  0.5227
32545SOL     OW   76   1.772   7.837   6.126 -0.0090 -0.8705 -0.0863
32545SOL    HW1   77   1.836   7.909   6.123  0.0272 -0.9307 -0.8394
32545SOL    HW2   78   1.818   7.762   6.091 -0.3633 -1.0190 -0.2395
32546SOL     OW   79   0.534   6.456   4.316  0.2895 -0.1854 -0.2753
32546SOL    HW1   80   0.525   6.360   4.315 -0.5351 -0.1409 -2.1861
32546SOL    HW2   81   0.595   6.474   4.387  1.3136 -2.2230 -0.5624
32547SOL     OW   82   0.100   9.079   2.477  0.0158 -0.2285 -0.4057
32547SOL    HW1   83   0.011   9.049   2.462 -1.0212  1.0157  2.4229
32547SOL    HW2   84   0.145   9.004   2.517 -0.0819 -0.5288 -0.8603
32548SOL     OW   85   3.301   8.205   5.768 -0.5207 -0.2033 -0.1692
32548SOL    HW1   86   3.274   8.130   5.821  1.4105 -3.1345 -2.8837
32548SOL    HW2   87   3.241   8.205   5.693  0.7618 -0.4796 -1.2469
32549SOL     OW   88   3.428   2.741   8.192 -0.4900 -0.3343  0.4015
32549SOL    HW1   89   3.489   2.804   8.153 -0.7611 -0.2337  0.1373
32549SOL    HW2   90   3.482   2.667   8.217 -0.2762 -0.2881  0.0725
32550SOL     OW   91   1.323   4.525   8.949 -0.0781 -0.0520  0.0110
32550SOL    HW1   92   1.234   4.494   8.964 -0.7295  1.0637 -1.3350
32550SOL    HW2   93   1.357   4.469   8.880  0.4887 -0.8277  0.8930
32551SOL     OW   94   1.038   1.952   5.564 -0.0355 -0.4752 -0.4108
32551SOL    HW1   95   1.027   1.971   5.471 -0.5537 -1.1511 -0.4893
32551SOL    HW2   96   1.084   2.029   5.598 -0.4122  0.0689 -1.0940
32552SOL     OW   97   2.507   4.790   9.077 -0.1272 -0.5644 -0.0130
32552SOL    HW1   98   2.511   4.787   9.172  1.7183 -1.3600 -0.0693
32552SOL    HW2   99   2.509   4.699   9.049 -1.3283 -0.3672 -0.8197
32553SOL     OW  100   5.922  10.234   4.925 -0.0609 -0.0757  0.4386
32553SOL    HW1  101   5.868  10.227   4.847  1.1734  1.0762 -0.5711
32553SOL    HW2  102   5.996  10.176   4.908  1.4843  2.0259 -0.4153
32554SOL     OW  103   5.630   9.309   4.252 -0.1340 -0.0486  0.0074
32554SOL    HW1  104   5.716   9.272   4.271 -0.9463 -1.9392  0.1462
32554SOL    HW2  105   5.648   9.402   4.234  1.8802 -0.3354  0.2981
32555SOL     OW  106   3.849   6.451   6.618 -0.8257  0.0761  0.1142
32555SOL    HW1  107   3.916   6.495   6.565 -0.5777  0.7880  0.9845
32555SOL    HW2  108   3.847   6.361   6.586 -1.3155  0.7013 -1.7040
32556SOL     OW  109   4.342   6.865   1.201 -0.7830  0.4431 -0.1296
32556SOL    HW1  110   4.369   6.948   1.240  2.7136 -0.6896  0.2104
32556SOL    HW2  111   4.424   6.818   1.185 -2.5966 -3.0870 -0.0427
32557SOL     OW  112   7.269   8.493   4.191 -0.4190  0.0072 -0.0587
32557SOL    HW1  113   7.321   8.573   4.189  2.1366 -1.5504 -0.9284
32557SOL    HW2  114   7.308   8.440   4.261  1.5573 -2.5489 -2.8164
32558SOL     OW  115   5.435  10.359   9.092  0.4775 -0.5260  0.0384
32558SOL    HW1  116   5.398  10.347   9.005  2.4349 -1.2534 -0.7339
32558SOL    HW2  117   5.365  10.402   9.142 -0.9785 -0.8652 -1.6301
32559SOL     OW  118   5.032   5.972   8.080  0.0605 -0.3288 -0.0291
32559SOL    HW1  119   5.127   5.983   8.078  0.3696 -2.6230 -0.1885
32559SOL    HW2  120   5.010   5.970   8.173 -0.0194  1.2296  0.0180
32560SOL     OW  121   8.079   6.528   2.749  0.0606 -0.0965 -0.6471
32560SOL    HW1  122   8.057   6.531   2.656 -0.0364  1.0202 -0.6026
32560SOL    HW2  123   8.173   6.545   2.752  0.0910 -0.2787 -0.5502
32561SOL     OW  124   7.731   9.501   3.136  0.1597  0.0565 -0.0563
32561SOL    HW1  125   7.737   9.519   3.230 -0.5468  1.9357 -0.3141
32561SOL    HW2  126   7.811   9.540   3.100 -0.7045  1.5063 -0.4750
32562SOL     OW  127   6.558   6.461   1.689  0.1195  0.0099 -0.3501
32562SOL    HW1  128   6.638   6.491   1.731 -0.1936  1.0257 -0.4514
32562SOL    HW2  129   6.544   6.523   1.616 -0.7959 -0.0921 -0.2791
32563SOL     OW  130  10.063   2.493   2.565 -0.6638 -0.6075  0.4972
32563SOL    HW1  131  10.001   2.479   2.637 -1.4220  2.3019  0.5075
32563SOL    HW2  132  10.035   2.574   2.524  1.2935 -0.8609 -1.5116
32564SOL     OW  133   5.768   5.299   2.175  0.5754 -0.0339 -0.4041
32564SOL    HW1  134   5.852   5.284   2.133  1.0214  2.4728 -0.5692
32564SOL    HW2  135   5.788   5.357   2.249 -0.6359 -1.8018  1.4174
32565SOL     OW  136   5.055   4.119   4.822 -0.4690 -0.3198  0.1750
32565SOL    HW1  137   5.104   4.037   4.812  0.1138  0.0238  0.1868
32565SOL    HW2  138   4.984   4.097   4.883 -0.1802 -0.7532  0.3573
32566SOL     OW  139   9.511   1.378   9.725 -0.1634 -0.5340 -0.3458
32566SOL    HW1  140   9.497   1.292   9.687 -0.1485 -1.3719  1.4355
32566SOL    HW2  141   9.599   1.374   9.762  0.0545  0.4524 -0.7196
32567SOL     OW  142   1.458   6.351   8.653 -0.2661  0.2047 -0.0961
32567SOL    HW1  143   1.415   6.382   8.733  2.0558 -0.2967  1.4504
32567SOL    HW2  144   1.409   6.272   8.629 -1.8525  1.1149 -0.0127
32568SOL     OW  145   8.486   8.195   0.570  0.1924 -0.5873 -0.4578
32568SOL    HW1  146   8.570   8.165   0.604  0.9264  0.4027 -1.3353
32568SOL    HW2  147   8.486   8.167   0.478 -0.2477 -0.2165 -0.5733
32569SOL     OW  148   3.959   4.107   3.090  0.0379 -0.5005  0.2420
32569SOL    HW1  149   4.019   4.080   3.160 -0.8887 -2.6932  0.2650
32569SOL    HW2  150   4.001   4.079   3.009  0.3793  0.6351  0.0016
32570SOL     OW  151   9.578   5.934   8.712  0.0235  1.0002  0.4253
32570SOL    HW1  152   9.500   5.917   8.660  0.0404 -1.1847  0.9988
32570SOL    HW2  153   9.604   6.023   8.689 -1.9260  1.3402 -0.6774
32571SOL     OW  154   4.937   9.266   5.035 -0.6265 -0.2723  0.0057
32571SOL    HW1  155   4.844   9.276   5.055 -0.6010 -0.9708  0.4931
32571SOL    HW2  156   4.980   9.260   5.120 -0.0546  0.6502 -0.2052
32572SOL     OW  157   9.911   1.789   6.579 -0.3261  0.1561  0.6168
32572SOL    HW1  158  10.002   1.772   6.554 -0.3241  0.6547  0.2808
32572SOL    HW2  159   9.862   1.780   6.498 -1.1507 -3.7668  1.3166
32573SOL     OW  160   2.596   7.412   0.826 -0.1178  0.3090  0.4207
32573SOL    HW1  161   2.593   7.325   0.865 -1.8078 -0.6846 -1.6708
32573SOL    HW2  162   2.675   7.412   0.772  0.1059  0.2358  0.7453
32574SOL     OW  163   9.752   8.419   5.665  0.1755  0.4573  0.0306
32574SOL    HW1  164   9.752   8.330   5.631  0.1745 -0.3680  2.1011
32574SOL    HW2  165   9.816   8.465   5.610  2.3754 -1.5714  0.7190
32575SOL     OW  166   4.460   0.861   5.657  0.0503  0.4002 -0.0074
32575SOL    HW1  167   4.476   0.883   5.748  1.1830 -1.8153  0.3896
32575SOL    HW2  168   4.370   0.828   5.655  0.8518 -2.0862  0.9226
32576SOL     OW  169   1.768   4.802   5.251 -0.7631 -0.9424  0.2988
32576SOL    HW1  170   1.689   4.823   5.300  0.0719  0.7859  0.9643
32576SOL    HW2  171   1.736   4.752   5.176 -2.5827  0.2536  0.2043
32577SOL     OW  172   6.098   3.650   7.007 -0.2911  0.3613  0.6891
32577SOL    HW1  173   6.103   3.637   6.912  1.6071  0.2544  0.7619
32577SOL    HW2  174   6.178   3.609   7.041  1.1247  3.7296  1.8822
32578SOL     OW  175   7.390  10.225   6.635 -0.0112  0.2628 -0.1359
32578SOL    HW1  176   7.425  10.271   6.711 -0.0670 -1.3111  0.8814
32578SOL    HW2  177   7.302  10.261   6.623  0.0680  0.6529  0.4175
32579SOL     OW  178   9.917   6.088   6.138 -0.7703 -0.1081  0.3119
32579SOL    HW1  179   9.967   6.093   6.219 -1.7898 -1.0369  1.0198
32579SOL    HW2  180   9.905   5.994   6.123  0.9063 -0.0575 -1.8800
32580SOL     OW  181   4.431   2.090   5.789  0.6196 -0.0727  0.1323
32580SOL    HW1  182   4.394   2.172   5.757  2.0839  1.5233  2.2380
32580SOL    HW2  183   4.490   2.062   5.720  0.5852  1.0133 -0.3516
32581SOL     OW  184   1.957   3.010  10.486 -0.4665  0.0914  0.2503
32581SOL    HW1  185   1.945   3.054  10.570 -2.9099  0.1930 -0.0604
32581SOL    HW2  186   2.032   3.054  10.446  1.1403 -0.3669  2.5710
32582SOL     OW  187   9.072   3.195   4.303 -0.0221 -0.2899  0.0646
32582SOL    HW1  188   9.054   3.273   4.355 -1.2489 -0.4507 -0.0891
32582SOL    HW2  189   9.165   3.178   4.316  0.2920  1.2618  0.0002
32583SOL     OW  190   5.854   0.976   7.633  0.9423 -0.7416 -0.0686
32583SOL    HW1  191   5.897   0.942   7.555  2.3561 -0.0298  0.3703
32583SOL    HW2  192   5.925   1.011   7.687 -0.0514 -0.7011  1.2878
32584SOL     OW  193  10.279   7.159   3.887 -0.4772  0.1175 -0.6357
32584SOL    HW1  194  10.370   7.173   3.860  0.3971 -0.6148  1.6330
32584SOL    HW2  195  10.231   7.233   3.851  1.6185  2.2073  0.6234
32585SOL     OW  196   1.762   2.048   0.776 -0.4485  0.1328 -0.4852
32585SOL    HW1  197   1.762   2.108   0.852  0.3011 -0.9792  0.4207
32585SOL    HW2  198   1.720   2.099   0.707 -2.0453  0.8768  0.9288
32586SOL     OW  199   0.745   5.098  10.449 -0.1223 -0.3269  0.9059
32586SOL    HW1  200   0.798   5.169  10.413  1.1750 -1.4447  0.5207
32586SOL    HW2  201   0.676   5.084  10.384  0.2185 -0.0991  0.4874
32587SOL     OW  202  10.059   7.699   3.191 -0.2981  0.0119  0.2792
32587SOL    HW1  203  10.110   7.667   3.117 -1.6786 -0.2571 -0.5955
32587SOL    HW2  204  10.096   7.785   3.211 -0.1508  0.2582 -0.9896
32588SOL     OW  205   7.244   3.907   0.199 -0.1095 -0.1865  0.2712
32588SOL    HW1  206   7.225   3.969   0.270  0.5769  1.0966 -0.6413
32588SOL    HW2  207   7.199   3.943   0.123 -1.3997 -1.9002  0.1516
32589SOL     OW  208   5.365   6.781   0.465  0.0482  0.1397  0.2767
32589SOL    HW1  209   5.330   6.750   0.549 -2.1296  3.6154  0.8946
32589SOL    HW2  210   5.459   6.787   0.479 -0.1557 -0.3242  2.1282
32590SOL     OW  211   2.134   5.737   4.895 -0.2164  0.3087  0.5704
32590SOL    HW1  212   2.199   5.694   4.839 -1.8007  0.4196 -1.4649
32590SOL    HW2  213   2.136   5.687   4.977  1.3366 -0.6323  0.0032
32591SOL     OW  214   7.911   4.541   3.489  0.2275 -0.7232  0.1883
32591SOL    HW1  215   7.970   4.468   3.471  1.1176  0.4521 -2.1212
32591SOL    HW2  216   7.875   4.565   3.403  0.0895  1.6106  0.8137
32592SOL     OW  217   8.239   1.808   1.600 -0.2259  0.5581 -0.1853
32592SOL    HW1  218   8.273   1.840   1.684  3.1387  0.2935 -1.3170
32592SOL    HW2  219   8.251   1.713   1.603 -1.4594  0.3759 -0.4469
32593SOL     OW  220   0.755   6.245   4.719  0.0759  0.4385 -0.4716
32593SOL    HW1  221   0.661   6.234   4.738  0.2870  0.7835  0.8648
32593SOL    HW2  222   0.784   6.312   4.781  1.2714  0.1383 -0.6920
32594SOL     OW  223   8.115   6.936  10.323  0.3643 -0.0842 -0.3399
32594SOL    HW1  224   8.081   7.023  10.305  0.3525 -0.0010  0.0828
32594SOL    HW2  225   8.134   6.936  10.417 -1.0457 -1.0101 -0.0128
32595SOL     OW  226   6.983   2.127   3.482  0.1979  0.1388  0.3431
32595SOL    HW1  227   6.904   2.120   3.428  0.1682  0.3843  0.3573
32595SOL    HW2  228   7.051   2.155   3.421  0.2003  0.2578  0.4012
32596SOL     OW  229   7.576   5.657   5.461  0.6946 -0.3618  0.1810
32596SOL    HW1  230   7.572   5.607   5.543 -0.9152 -2.4374 -1.0494
32596SOL    HW2  231   7.631   5.604   5.403 -1.0714 -0.8166 -1.1693
32597SOL     OW  232   4.937   0.438   9.613  0.0369  0.3030  0.7311
32597SOL    HW1  233   4.878   0.502   9.575 -0.1059  0.1791  0.7429
32597SOL    HW2  234   5.011   0.434   9.552  0.7230  1.5139  1.4560
32598SOL     OW  235   6.047   6.394   3.661  0.2776 -0.0710 -0.2335
32598SOL    HW1  236   6.111   6.350   3.717 -2.2338 -0.6601  2.4070
32598SOL    HW2  237   6.005   6.324   3.612  0.7015  0.1746 -0.9706
32599SOL     OW  238   8.919   3.114   0.480  0.1355 -0.2460  0.1514
32599SOL    HW1  239   8.976   3.046   0.516  1.6781  0.3585 -1.0256
32599SOL    HW2  240   8.856   3.133   0.550  0.4046 -2.0351  0.9262
32600SOL     OW  241   1.323   6.122   8.577 -0.4909  0.3067 -0.3838
32600SOL    HW1  242   1.243   6.129   8.525 -0.4818  0.3490 -0.3931
32600SOL    HW2  243   1.322   6.033   8.612 -0.5951  0.3421 -0.2966
32601SOL     OW  244   6.667  10.104   7.790 -0.1508  0.1054 -0.1199
32601SOL    HW1  245   6.671  10.008   7.790  0.2249  0.1095  1.1075
32601SOL    HW2  246   6.759  10.131   7.787 -0.2523  0.4317 -0.2593
32602SOL     OW  247   8.483   2.755  10.300  0.6239 -0.3037 -0.1049
32602SOL    HW1  248   8.480   2.678  10.243 -1.8732 -0.6103  0.3329
32602SOL    HW2  249   8.566   2.797  10.279  0.9120 -1.7629 -2.1663
32603SOL     OW  250   5.991   1.852   7.174 -0.6299  0.0191 -0.2552
32603SOL    HW1  251   5.968   1.776   7.227  4.1993  0.0979  2.5002
32603SOL    HW2  252   6.041   1.815   7.101 -2.2897  0.3981 -1.6774
32604SOL     OW  253   3.946   2.344   8.653 -0.3830  0.6529 -0.6291
32604SOL    HW1  254   3.943   2.266   8.709 -0.8899  0.7407 -0.5358
32604SOL    HW2  255   4.021   2.328   8.595  0.5501  0.8614  0.5022
32605SOL     OW  256   3.600  10.434   4.384 -0.3612 -0.0127 -0.0927
32605SOL    HW1  257   3.689  10.413   4.358 -0.4676 -1.1105  0.3812
32605SOL    HW2  258   3.580  10.515   4.338  0.0992 -0.9128 -1.9846
32606SOL     OW  259   1.529   7.715   3.644 -0.2345  0.0012 -0.4176
32606SOL    HW1  260   1.562   7.698   3.732  0.5589 -0.4707 -0.7956
32606SOL    HW2  261   1.505   7.808   3.646 -1.7002 -0.3566  0.7418
32607SOL     OW  262   9.184   8.177   7.658  0.0677  0.4645  0.2006
32607SOL    HW1  263   9.130   8.256   7.656  0.1533  0.5103 -1.0825
32607SOL    HW2  264   9.157   8.127   7.581 -0.3290 -1.0162  1.2466
32608SOL     OW  265   7.386   1.547   9.724 -0.0599  0.4585 -0.0348
32608SOL    HW1  266   7.353   1.620   9.776 -2.5949 -1.1376  0.7946
32608SOL    HW2  267   7.335   1.551   9.642 -0.6750 -0.6639  0.2647
32609SOL     OW  268   5.962   0.870   4.721 -0.3799  0.6140  0.4194
32609SOL    HW1  269   5.876   0.889   4.756 -1.2018 -0.7635 -0.7436
32609SOL    HW2  270   5.952   0.787   4.674  1.0869  1.3703 -1.3980
32610SOL     OW  271   0.981   5.320   7.462  0.7079  0.5891 -0.8068
32610SOL    HW1  272   1.048   5.329   7.394  0.0650  0.5352 -1.4547
32610SOL    HW2  273   0.952   5.409   7.480  0.2624  0.5359 -1.2353
32611SOL     OW  274   3.542   8.783   0.443 -0.2296  0.0088 -0.6975
32611SOL    HW1  275   3.498   8.859   0.480  0.5010  0.3112 -0.4441
32611SOL    HW2  276   3.631   8.787   0.476  0.2673 -0.0619 -1.9765
32612SOL     OW  277   2.375   9.241   4.134 -0.6810 -0.7763 -0.1273
32612SOL    HW1  278   2.459   9.279   4.158 -0.5864 -1.0921  0.0536
32612SOL    HW2  279   2.332   9.307   4.080 -0.8319 -0.1123  0.7858
32613SOL     OW  280  10.358   8.579   0.563 -0.1043 -0.0621  0.4407
32613SOL    HW1  281  10.391   8.505   0.512 -0.6845  0.3761 -0.5946
32613SOL    HW2  282  10.436   8.629   0.586  0.0090  1.4579 -2.7299
32614SOL     OW  283   9.670   8.088   6.534 -0.3837  0.3391 -0.1671
32614SOL    HW1  284   9.684   8.148   6.460  0.8877  0.1461 -0.1101
32614SOL    HW2  285   9.709   8.133   6.609 -0.7585  0.0905  0.1779
32615SOL     OW  286   3.987   0.735   9.457 -0.8996  0.2476  0.2877
32615SOL    HW1  287   3.958   0.669   9.520  1.4393 -2.7035 -1.4435
32615SOL    HW2  288   3.937   0.716   9.377 -0.1888  0.5168 -0.2384
32616SOL     OW  289   8.919   6.329   1.170  0.2918 -0.8917 -0.1718
32616SOL    HW1  290   8.916   6.239   1.138 -0.4725 -0.6861 -0.7026
32616SOL    HW2  291   8.839   6.369   1.136  0.4052 -0.1378  0.4351
32617SOL     OW  292   2.433   5.341   8.379  0.8896  0.5232  0.4455
32617SOL    HW1  293   2.389   5.396   8.314 -0.4448  0.9772  1.6884
32617SOL    HW2  294   2.526   5.352   8.359  0.6180  2.3312 -0.0739
32618SOL     OW  295   8.341   1.366   2.035  0.1404  0.1727  0.2528
32618SOL    HW1  296   8.365   1.432   2.100  0.0732 -0.7370  1.2185
32618SOL    HW2  297   8.416   1.363   1.975  0.2717  0.8936  0.3660
32619SOL     OW  298   5.852   9.072   4.039 -0.1896  0.0197  0.4447
32619SOL    HW1  299   5.838   9.117   4.122  0.3434  2.7974 -0.8651
32619SOL    HW2  300   5.921   9.123   3.995 -1.5849 -0.3418 -2.3689
32620SOL     OW  301  10.455   9.422   8.164  0.3992 -0.4488  1.1122
32620SOL    HW1  302  10.378   9.369   8.143  0.5010  0.1637 -1.0578
32620SOL    HW2  303  10.422   9.512   8.164  1.2307 -0.1228 -0.5860
32621SOL     OW  304   5.552   3.416   6.362 -0.0217 -0.0126 -0.3957
32621SOL    HW1  305   5.635   3.400   6.318  0.6387 -2.6499  1.4851
32621SOL    HW2  306   5.576   3.457   6.445 -0.8493  1.3805 -0.8243
32622SOL     OW  307  10.294   2.031   2.628  0.2962 -0.4289  0.4358
32622SOL    HW1  308  10.337   2.112   2.601  1.4571 -0.3402  2.3241
32622SOL    HW2  309  10.238   2.007   2.554  0.9544  1.3539 -0.7049
32623SOL     OW  310  10.135   2.663   3.056  0.2575 -0.5537 -0.2967
32623SOL    HW1  311  10.194   2.627   2.990  1.4993 -1.6072  1.3274
32623SOL    HW2  312  10.156   2.756   3.060  2.2509 -0.9992  0.6342
32624SOL     OW  313   0.244   5.775   3.627  0.2410 -0.0987 -0.0402
32624SOL    HW1  314   0.252   5.870   3.637 -2.0567  0.0322  1.1773
32624SOL    HW2  315   0.193   5.764   3.547 -0.5946 -0.2358  0.5026
32625SOL     OW  316   2.002   9.699   6.097 -0.8778 -0.6126  0.6258
32625SOL    HW1  317   1.983   9.606   6.093 -0.4095 -0.6568 -2.8769
32625SOL    HW2  318   2.076   9.706   6.157  0.2458 -2.7319 -0.4402
32626SOL     OW  319   8.225   7.104   0.289 -0.4113 -0.0530 -0.0503
32626SOL    HW1  320   8.308   7.128   0.330  0.2426 -0.3319 -1.1571
32626SOL    HW2  321   8.189   7.186   0.255 -0.6593  0.0838  0.5198
32627SOL     OW  322   4.011  10.444   6.939  0.4704 -0.2544 -0.8394
32627SOL    HW1  323   3.940  10.389   6.907  0.4986 -0.6030 -0.3173
32627SOL    HW2  324   3.990  10.460   7.031  1.2328 -0.6454 -0.5837
32628SOL     OW  325   6.564   5.605  10.403  0.6904  0.0021 -0.5321
32628SOL    HW1  326   6.536   5.586  10.492 -0.2602  1.6067 -0.4394
32628SOL    HW2  327   6.482   5.611  10.353  1.1987 -0.6558 -1.4629
32629SOL     OW  328   2.971   6.432   9.101 -0.4613 -0.0789  0.3162
32629SOL    HW1  329   3.015   6.450   9.018  1.3758 -3.2291  0.4295
32629SOL    HW2  330   3.043   6.421   9.164 -1.5012 -2.3684  1.2245
32630SOL     OW  331   9.115   1.451   4.978 -0.0458 -0.3439 -0.7626
32630SOL    HW1  332   9.160   1.396   5.042 -1.8990 -1.3619 -0.2719
32630SOL    HW2  333   9.177   1.522   4.960 -0.0642  0.9935  3.4494
32631SOL     OW  334   3.434   7.318   6.193 -0.0592  0.3232  0.5412
32631SOL    HW1  335   3.398   7.235   6.224  0.9463 -0.7605 -1.0673
32631SOL    HW2  336   3.524   7.319   6.224  0.6230 -0.2710 -1.2540
32632SOL     OW  337   6.717   3.756   7.614  0.2722  0.1211 -0.2944
32632SOL    HW1  338   6.629   3.783   7.640  0.5171 -0.3338  1.0617
32632SOL    HW2  339   6.711   3.661   7.601  0.8070 -0.1025  0.9432
32633SOL     OW  340   8.801   1.623   6.569  0.5343  0.0341  0.2999
32633SOL    HW1  341   8.843   1.603   6.485  1.7652 -0.6556  1.0527
32633SOL    HW2  342   8.758   1.541   6.594 -0.1600  0.3537  0.1682
32634SOL     OW  343   8.708   4.278   8.601  0.0384 -0.2582 -1.0105
32634SOL    HW1  344   8.730   4.279   8.694 -0.8078  1.4448 -0.7876
32634SOL    HW2  345   8.621   4.319   8.597  1.4613  2.9480 -2.8376
32635SOL     OW  346   5.355   5.132   0.003 -0.4086  0.0117 -0.0173
32635SOL    HW1  347   5.338   5.053  -0.049  1.2743 -1.6392  1.7912
32635SOL    HW2  348   5.399   5.192  -0.057 -2.9232  0.2159 -1.8101
32636SOL     OW  349   7.574   4.310   9.646 -0.1672  0.0990  0.5567
32636SOL    HW1  350   7.484   4.288   9.624 -0.3235  0.7495  0.5263
32636SOL    HW2  351   7.577   4.405   9.642  1.0592  0.0243 -1.5282
32637SOL     OW  352   9.799   9.205   0.898  0.5300 -0.2659 -0.0834
32637SOL    HW1  353   9.823   9.146   0.826  1.2373  1.1143 -1.0273
32637SOL    HW2  354   9.883   9.234   0.934  0.1834 -0.5883  1.0263
32638SOL     OW  355   3.537   2.148   6.115  0.0598 -0.4444  0.3522
32638SOL    HW1  356   3.600   2.214   6.086 -0.5361 -0.7822 -1.9148
32638SOL    HW2  357   3.467   2.198   6.157  0.7757  0.1105  0.9220
32639SOL     OW  358   8.072   1.704   0.307  0.3778 -0.3604 -0.2345
32639SOL    HW1  359   8.139   1.704   0.239  0.4527  0.0572 -0.1656
32639SOL    HW2  360   8.120   1.700   0.390  0.2732 -1.3322 -0.2078
32640SOL     OW  361   5.156   6.122   2.262 -0.2589 -0.3636 -0.8879
32640SOL    HW1  362   5.079   6.152   2.215  0.6511  0.4784 -1.9104
32640SOL    HW2  363   5.226   6.182   2.234  0.2790  0.3695  1.7646
32641SOL     OW  364   9.347   4.479   8.243 -0.5255  0.4492 -0.8019
32641SOL    HW1  365   9.310   4.565   8.265 -0.3827  0.0116  1.3005
32641SOL    HW2  366   9.303   4.455   8.161 -0.9065  2.2998 -1.1935
32642SOL     OW  367   6.325   3.286   5.471 -0.0104 -0.2603 -0.0447
32642SOL    HW1  368   6.236   3.283   5.506 -0.0692  2.9318  0.4290
32642SOL    HW2  369   6.381   3.273   5.547 -0.1461  1.4149  0.3897
32643SOL     OW  370   8.353   3.162   1.380 -0.2223 -0.3797 -0.3698
32643SOL    HW1  371   8.397   3.178   1.464  0.4388  1.1523 -0.9893
32643SOL    HW2  372   8.318   3.073   1.389  2.8174 -1.6389  0.2255
32644SOL     OW  373   0.513   9.194  10.311  0.3003 -0.4497 -0.5645
32644SOL    HW1  374   0.564   9.115  10.327  1.4592  0.4374  0.3880
32644SOL    HW2  375   0.558   9.237  10.238  1.3268  0.6111  0.6374
32645SOL     OW  376   1.455   8.207   5.455 -0.3032  0.3132 -0.2806
32645SOL    HW1  377   1.471   8.236   5.544 -1.1566  0.8803 -0.3028
32645SOL    HW2  378   1.533   8.233   5.406  0.7190 -1.0976  0.5309
32646SOL     OW  379   4.155   2.106   3.704 -0.0453 -0.4021 -0.4757
32646SOL    HW1  380   4.202   2.064   3.776  0.2861 -0.3149 -0.6345
32646SOL    HW2  381   4.206   2.185   3.686  0.1907 -0.7044 -1.1694
32647SOL     OW  382   8.938   1.442   2.122  0.6787  0.3020  0.2405
32647SOL    HW1  383   8.997   1.368   2.108 -0.0254 -0.5189  1.4189
32647SOL    HW2  384   8.971   1.485   2.202  0.6973  0.8839 -0.0712
32648SOL     OW  385   7.623   0.320   5.131 -0.3372 -0.4423 -0.5196
32648SOL    HW1  386   7.662   0.272   5.203 -0.4315 -2.2131 -1.6034
32648SOL    HW2  387   7.668   0.288   5.053  1.1750  2.8436 -1.1648
32649SOL     OW  388   8.951   4.500   0.247  0.7637  0.6612 -0.1050
32649SOL    HW1  389   8.893   4.517   0.321 -0.6695 -0.1700 -1.0113
32649SOL    HW2  390   8.958   4.405   0.242  1.1939  0.7195 -0.7961
32650SOL     OW  391   9.493   8.345   6.692  0.3737 -0.3692 -0.3229
32650SOL    HW1  392   9.405   8.378   6.677  0.6785 -0.1316 -1.8065
32650SOL    HW2  393   9.484   8.250   6.691  0.3679 -0.3908 -2.4222
32651SOL     OW  394   5.024   6.715   5.548  0.5431 -0.0008 -0.1296
32651SOL    HW1  395   5.014   6.623   5.569 -1.2384  0.1201 -0.2812
32651SOL    HW2  396   5.103   6.742   5.595 -0.4347 -0.9516  2.2515
32652SOL     OW  397   6.700   2.415   8.942  0.0584  0.2467 -0.3553
32652SOL    HW1  398   6.631   2.357   8.973  0.6620 -0.5814 -0.5353
32652SOL    HW2  399   6.655   2.478   8.885 -1.0785  1.7819  2.0681
32653SOL     OW  400   1.163   0.988   9.916  0.0032  0.1297  0.3684
32653SOL    HW1  401   1.208   0.930   9.854 -0.3230 -0.3130  0.5384
32653SOL    HW2  402   1.102   1.038   9.861  2.1367  2.2657 -0.2050
32654SOL     OW  403   0.254   5.870   2.924  0.1895 -0.1209 -0.3329
32654SOL    HW1  404   0.182   5.808   2.934 -1.5609  1.6743 -1.1103
32654SOL    HW2  405   0.326   5.831   2.973 -1.8622 -1.1055  2.1111
32655SOL     OW  406   6.681   1.606   8.818  0.3552 -0.0158 -0.0742
32655SOL    HW1  407   6.685   1.570   8.907 -0.9469  1.9289  0.8730
32655SOL    HW2  408   6.696   1.531   8.761  0.4082 -1.5023  1.7639
32656SOL     OW  409   2.931   1.105   9.752 -0.3510 -0.5858 -0.2529
32656SOL    HW1  410   2.996   1.065   9.809 -0.2213 -0.1361 -0.0750
32656SOL    HW2  411   2.854   1.117   9.808  0.0503  0.6066  0.0694
32657SOL     OW  412   0.017   6.686   1.533  0.2005 -0.2252  0.1278
32657SOL    HW1  413  -0.051   6.722   1.475  0.8979  0.7032 -0.1425
32657SOL    HW2  414  -0.005   6.594   1.542 -0.9161 -0.0061 -0.2180
32658SOL     OW  415   8.593   8.869   1.936 -0.0398  0.0987  0.1902
32658SOL    HW1  416   8.628   8.875   1.847 -0.3449 -1.0861 -0.0258
32658SOL    HW2  417   8.670   8.858   1.992  0.2565  2.0459  0.2401
32659SOL     OW  418   2.533   4.562   8.919 -0.0991  0.1418  0.3110
32659SOL    HW1  419   2.580   4.490   8.878  1.1553  0.3306  1.3467
32659SOL    HW2  420   2.444   4.557   8.884  0.3941 -0.9311 -0.8239
32660SOL     OW  421   2.347   2.272   2.779 -0.2707  0.2138 -0.6811
32660SOL    HW1  422   2.442   2.260   2.779 -0.4251 -1.3023 -1.0926
32660SOL    HW2  423   2.323   2.277   2.871  0.2432  0.9692 -0.5836
32661SOL     OW  424   8.238   1.135   1.284  0.3607 -0.8872  0.0633
32661SOL    HW1  425   8.152   1.098   1.266  0.5981 -0.3193 -2.6199
32661SOL    HW2  426   8.227   1.229   1.273  1.2799 -0.8029 -0.2658
32662SOL     OW  427   1.873   4.124   9.654  0.4642 -0.3475 -0.3412
32662SOL    HW1  428   1.939   4.089   9.714  1.0232 -0.4503 -1.0047
32662SOL    HW2  429   1.790   4.091   9.687  0.7611 -0.3911  0.3844
32663SOL     OW  430   5.044   5.016  10.345  0.1212 -0.2646 -0.0622
32663SOL    HW1  431   5.091   4.943  10.386  2.9161  2.0075  1.1253
32663SOL    HW2  432   5.051   5.088  10.408 -1.9750  1.2822 -1.4347
32664SOL     OW  433   8.285   7.138   2.108 -0.1588  0.4706  0.2612
32664SOL    HW1  434   8.243   7.060   2.071  1.0145  0.0749 -0.2895
32664SOL    HW2  435   8.326   7.107   2.189  0.1079  0.5672  0.1627
32665SOL     OW  436   4.413   6.823   0.827  0.1854 -0.0199  0.3919
32665SOL    HW1  437   4.324   6.842   0.799  1.1739  0.9262 -2.4428
32665SOL    HW2  438   4.444   6.905   0.866 -0.5048 -0.7224  2.5839
32666SOL     OW  439   8.987   2.674   8.121 -0.1539 -0.0128  0.0098
32666SOL    HW1  440   8.980   2.673   8.025 -0.5859  0.6502  0.0228
32666SOL    HW2  441   9.070   2.718   8.139  0.0800 -0.4185 -0.0603
32667SOL     OW  442   9.579   1.757   0.395  0.6010  0.2572 -0.2523
32667SOL    HW1  443   9.498   1.806   0.381  1.0268  0.8035 -0.8589
32667SOL    HW2  444   9.633   1.815   0.448  0.8379  0.1540 -0.3831
32668SOL     OW  445   5.897   6.054   0.604  0.3296  0.4722 -0.6563
32668SOL    HW1  446   5.888   6.081   0.513  1.8818  2.6268 -0.2519
32668SOL    HW2  447   5.923   6.134   0.650  1.4190 -0.9526  1.3624
32669SOL     OW  448   1.653   4.576   2.989 -0.0718  0.5230 -0.2803
32669SOL    HW1  449   1.590   4.511   2.957  0.0252  0.1791  0.2100
32669SOL    HW2  450   1.602   4.657   2.997 -0.2854  0.4152 -0.5391
32670SOL     OW  451   5.973   9.141  10.034 -0.2609 -0.5294 -0.2674
32670SOL    HW1  452   5.933   9.219  10.073  0.4450 -0.7505  0.9580
32670SOL    HW2  453   6.064   9.164  10.021 -0.3642 -0.6643 -1.2706
32671SOL     OW  454   0.403   4.858   2.842  0.5470 -0.0284  0.0822
32671SOL    HW1  455   0.431   4.894   2.927  0.0018  0.9677 -0.1468
32671SOL    HW2  456   0.467   4.891   2.780  0.6588 -0.3487  0.0253
32672SOL     OW  457   5.391   4.493   8.005 -0.3259  0.2056 -0.5364
32672SOL    HW1  458   5.484   4.486   8.029 -0.4255  0.3261 -0.0951
32672SOL    HW2  459   5.351   4.413   8.040 -0.2696 -0.1797 -1.3302
32673SOL     OW  460   6.825   2.768   9.001  0.2331 -0.0220 -0.1728
32673SOL    HW1  461   6.857   2.763   8.911  0.1307  0.9674 -0.2756
32673SOL    HW2  462   6.818   2.677   9.028 -1.2287 -0.4238 -1.7024
32674SOL     OW  463   2.945   5.634   2.603  0.4400  0.3499  0.4578
32674SOL    HW1  464   2.879   5.698   2.575 -1.1365 -1.8200 -1.0294
32674SOL    HW2  465   2.896   5.566   2.648  2.2166  0.5796  2.9522
32675SOL     OW  466   1.955   3.947   9.159 -0.5636  0.4892 -0.1495
32675SOL    HW1  467   1.998   4.012   9.214  1.5637 -1.8397  1.1316
32675SOL    HW2  468   1.902   3.895   9.220 -1.5870  0.4760 -1.0177
32676SOL     OW  469   0.082  10.250   8.380  0.2578 -0.2944  0.0208
32676SOL    HW1  470  -0.005  10.264   8.419  0.0494 -0.9571 -0.1741
32676SOL    HW2  471   0.131  10.329   8.401 -0.4423  0.1542  0.0075
32677SOL     OW  472   1.085   0.834   1.444  0.2300  0.0768  0.2352
32677SOL    HW1  473   1.032   0.912   1.462  0.0814 -0.1848  0.9962
32677SOL    HW2  474   1.021   0.768   1.417 -0.1332 -0.7673  2.8364
32678SOL     OW  475   2.160   5.144   9.718  0.3136 -0.1311  0.9637
32678SOL    HW1  476   2.248   5.108   9.703  0.1362  0.4549 -2.0958
32678SOL    HW2  477   2.105   5.101   9.652 -0.7209  2.6928 -0.1462
32679SOL     OW  478   6.056   9.769   7.239 -0.2074  0.3815  0.2859
32679SOL    HW1  479   5.969   9.754   7.204  0.0153  0.7287 -0.4339
32679SOL    HW2  480   6.080   9.857   7.208  0.0844  0.6096  1.1210
32680SOL     OW  481   3.430   5.039   1.888  0.3217 -0.3087 -0.1402
32680SOL    HW1  482   3.400   5.066   1.974  2.0758  2.7327 -0.3382
32680SOL    HW2  483   3.498   4.974   1.905  0.8954  0.5187  0.8110
32681SOL     OW  484   8.053   8.090   0.101  0.2302 -0.1396 -0.3934
32681SOL    HW1  485   8.078   8.159   0.040  1.8426 -0.2735  0.0854
32681SOL    HW2  486   8.043   8.012   0.045 -0.3062  0.1740 -0.7485
32682SOL     OW  487   9.839   2.173  10.245  0.3644 -0.4372  0.0780
32682SOL    HW1  488   9.763   2.217  10.282 -0.0419 -0.0174 -1.2457
32682SOL    HW2  489   9.820   2.164  10.152  1.5112 -1.2097 -0.1049
32683SOL     OW  490   3.759   9.338   2.814  0.2372  0.5273 -0.3084
32683SOL    HW1  491   3.739   9.306   2.725 -0.9481 -0.4616  0.2887
32683SOL    HW2  492   3.686   9.307   2.867  0.1968  2.3690  0.7579
32684SOL     OW  493   9.502   8.735   9.513  0.3394 -0.0647 -0.1616
32684SOL    HW1  494   9.432   8.749   9.577  0.0572  0.2056 -0.5198
32684SOL    HW2  495   9.479   8.793   9.440  0.3471 -0.7927 -0.7519
32685SOL     OW  496   4.943   1.214   3.642 -0.3027 -0.0391  0.4641
32685SOL    HW1  497   5.014   1.268   3.607 -0.0182 -0.1203  0.9127
32685SOL    HW2  498   4.978   1.176   3.722 -0.7892 -0.2323  0.5921
32686SOL     OW  499   3.966   8.802   5.630 -0.0262 -0.0102  0.3767
32686SOL    HW1  500   3.893   8.783   5.689  0.7240  0.3979  1.4498
32686SOL    HW2  501   4.045   8.788   5.683  0.6724  0.1219 -0.5986
32687SOL     OW  502   7.577  10.363   8.610  0.2000  0.5779  0.2355
32687SOL    HW1  503   7.654  10.306   8.603  0.2792  0.8476 -1.8170
32687SOL    HW2  504   7.528  10.329   8.685 -0.0163 -2.5301 -1.1706
32688SOL     OW  505   5.807   7.771   5.046 -0.3300  0.4639  0.4239
32688SOL    HW1  506   5.880   7.712   5.026  1.0034  2.5940 -1.4857
32688SOL    HW2  507   5.742   7.715   5.089  1.3616 -2.0719 -0.0975
32689SOL     OW  508   1.031   8.778   1.253  0.5639 -0.0507  0.3347
32689SOL    HW1  509   1.091   8.848   1.228  0.8608 -0.5362 -0.3712
32689SOL    HW2  510   1.048   8.763   1.346  1.7741 -0.3853  0.0780
32690SOL     OW  511   7.964   9.869   2.929  0.8669 -0.5179  0.3612
32690SOL    HW1  512   7.979   9.834   2.840  0.8131  0.3186  0.0160
32690SOL    HW2  513   7.903   9.941   2.916  0.8166 -0.4264  1.0967
32691SOL     OW  514   9.661   5.154   8.355  0.0703  0.1223  0.1725
32691SOL    HW1  515   9.657   5.227   8.294 -1.9121 -0.5177 -0.5525
32691SOL    HW2  516   9.705   5.084   8.306 -0.9263 -0.1803 -0.3032
32692SOL     OW  517   5.615   5.752   7.560 -0.2099 -0.3354 -0.9525
32692SOL    HW1  518   5.563   5.680   7.596 -1.3632  0.9770  0.1373
32692SOL    HW2  519   5.596   5.752   7.467  0.5504 -1.9969 -1.1497
32693SOL     OW  520   4.385   7.875   0.211 -0.5852 -0.0672 -0.2279
32693SOL    HW1  521   4.355   7.941   0.274  0.3589 -0.1453  0.3131
32693SOL    HW2  522   4.375   7.918   0.126  0.0829  0.8235  0.1215
32694SOL     OW  523   3.544   8.193   6.392 -0.7960 -0.2409 -0.0105
32694SOL    HW1  524   3.453   8.223   6.387 -0.9798 -1.0085 -2.3203
32694SOL    HW2  525   3.539   8.100   6.371  0.6589  0.0949 -2.1977
32695SOL     OW  526   6.375   4.757   2.679 -0.1085 -0.0837  0.7289
32695SOL    HW1  527   6.364   4.768   2.773 -1.9769 -1.1098  0.6872
32695SOL    HW2  528   6.285   4.760   2.644  0.4853 -0.4864 -0.9214
32696SOL     OW  529   2.062   5.334   7.304  0.2436  0.3830 -0.9470
32696SOL    HW1  530   2.073   5.415   7.353 -0.2067  1.4307 -2.5231
32696SOL    HW2  531   2.103   5.351   7.220  1.0469 -1.3949 -0.9603
32697SOL     OW  532   5.460   0.954   3.370  0.3063 -0.1689  0.3210
32697SOL    HW1  533   5.464   0.912   3.284 -1.0626  0.3341 -0.0128
32697SOL    HW2  534   5.538   0.922   3.416  0.8263 -0.7841 -0.9443
32698SOL     OW  535   3.769   2.305  10.322 -0.1948 -0.2506  0.0129
32698SOL    HW1  536   3.755   2.212  10.334  0.5086 -0.3061  0.4430
32698SOL    HW2  537   3.698   2.347  10.372 -1.0300 -0.5508 -0.8919
32699SOL     OW  538   9.728   6.108   2.617 -0.0349  0.3104  0.7184
32699SOL    HW1  539   9.758   6.158   2.541 -0.8708  2.2882  1.6081
32699SOL    HW2  540   9.769   6.152   2.692 -0.7180 -0.4127  1.5346
32700SOL     OW  541   1.963   9.652   3.226  0.3726  0.3481 -0.0831
32700SOL    HW1  542   1.932   9.712   3.294  0.0497  0.5577 -0.4065
32700SOL    HW2  543   1.885   9.634   3.173  0.2172 -1.1480  0.5900
32701SOL     OW  544   4.582   6.788   8.235  0.1053 -0.3292  0.1801
32701SOL    HW1  545   4.514   6.726   8.262 -0.3141  0.3221  0.6314
32701SOL    HW2  546   4.651   6.733   8.197  0.0863 -1.1517  1.2916
32702SOL     OW  547   3.778   6.726   3.057  0.5502 -0.0650 -0.6778
32702SOL    HW1  548   3.832   6.801   3.083  0.7150 -0.4891  0.2476
32702SOL    HW2  549   3.695   6.765   3.029  0.5706  0.4539 -0.0448
32703SOL     OW  550   1.313   1.444   4.679  0.4794  0.4911 -0.2406
32703SOL    HW1  551   1.319   1.354   4.710 -1.0277  0.5826  0.3806
32703SOL    HW2  552   1.262   1.439   4.598 -1.3203  0.9446  0.7989
32704SOL     OW  553   1.728   5.134   4.388  0.0097  0.0924 -0.1770
32704SOL    HW1  554   1.665   5.063   4.377 -1.1341  1.1230 -0.3958
32704SOL    HW2  555   1.749   5.133   4.481 -1.3746  0.5980  0.1576
32705SOL     OW  556  10.415   8.629   4.096 -0.8821  0.1920  0.0418
32705SOL    HW1  557  10.403   8.669   4.010 -2.2245 -0.0776  0.0940
32705SOL    HW2  558  10.498   8.666   4.127 -0.8194  0.9698 -0.9787
32706SOL     OW  559   3.401   2.918   4.413 -0.1118  0.1662 -0.4041
32706SOL    HW1  560   3.348   2.847   4.450 -2.2836  1.8054 -0.1736
32706SOL    HW2  561   3.393   2.989   4.477  1.2722  0.9469 -1.0576
32707SOL     OW  562   9.644   6.805  10.167 -0.3229 -0.1640 -0.1226
32707SOL    HW1  563   9.655   6.890  10.210 -1.1226  0.2522 -0.7308
32707SOL    HW2  564   9.549   6.790  10.167 -0.1982 -1.0067 -0.1188
32708SOL     OW  565   1.932   8.122   3.508  0.1479 -0.0994  0.0667
32708SOL    HW1  566   1.893   8.184   3.570 -2.4658 -0.6921 -0.8380
32708SOL    HW2  567   1.873   8.047   3.510  0.9617 -0.8507 -1.8363
32709SOL     OW  568   0.388   8.752   3.186 -0.4225 -0.2299  0.0933
32709SOL    HW1  569   0.297   8.743   3.157  0.1173  0.6410 -2.0297
32709SOL    HW2  570   0.389   8.830   3.241 -1.0037 -0.4652  0.4493
32710SOL     OW  571   0.960   2.708   5.924  0.2854 -0.6755  0.4890
32710SOL    HW1  572   0.864   2.702   5.932  0.3146 -2.5058 -0.1882
32710SOL    HW2  573   0.974   2.745   5.837  0.1845 -1.6317  0.0535
32711SOL     OW  574  10.326   9.158   6.876  0.2033 -0.0308 -0.0588
32711SOL    HW1  575  10.235   9.188   6.888  0.3125  0.9643 -1.4779
32711SOL    HW2  576  10.336   9.150   6.781  2.0583  1.3916 -0.0234
32712SOL     OW  577   1.084   7.071   3.024  0.7031  0.2877 -0.4249
32712SOL    HW1  578   1.147   6.999   3.028  0.7696  0.3860  1.1344
32712SOL    HW2  579   1.134   7.147   3.053 -0.0785  0.4012  0.6761
32713SOL     OW  580   2.970   1.475   2.771  0.4053  0.1579  0.0764
32713SOL    HW1  581   3.009   1.388   2.764  1.3673  0.6969 -1.6026
32713SOL    HW2  582   3.009   1.525   2.700  0.0776  2.0640  1.1873
32714SOL     OW  583   7.937   5.927   7.861  0.2235  0.2625  0.3230
32714SOL    HW1  584   7.922   6.017   7.831  0.4467  0.8391  1.8209
32714SOL    HW2  585   8.017   5.900   7.816 -0.3487  0.4500 -0.8536
32715SOL     OW  586   5.478   9.912   4.033 -0.3311  0.1665 -0.1296
32715SOL    HW1  587   5.506   9.981   4.093 -0.1357 -1.0966  1.3010
32715SOL    HW2  588   5.503   9.944   3.947  0.8895  1.3248  0.6091
32716SOL     OW  589   4.092   4.151   0.154  0.2258  0.0159  0.3490
32716SOL    HW1  590   4.041   4.187   0.082  1.7307 -0.2857 -0.9185
32716SOL    HW2  591   4.104   4.225   0.214 -0.9939  0.2781  0.2950
32717SOL     OW  592   1.384   9.783   1.114  0.5783 -0.0625  0.2047
32717SOL    HW1  593   1.471   9.756   1.145  0.6955 -0.8921 -0.7778
32717SOL    HW2  594   1.394   9.875   1.092  1.6623 -0.5258 -1.3746
32718SOL     OW  595   6.185   2.965   3.414 -0.4700  0.2657  0.1795
32718SOL    HW1  596   6.183   2.877   3.453  0.3077 -0.6201 -1.6443
32718SOL    HW2  597   6.256   3.010   3.459 -1.4267  0.3028  1.7325
32719SOL     OW  598   8.723   6.839  10.192  0.3644  0.6255  0.1708
32719SOL    HW1  599   8.648   6.841  10.250  1.0812  0.3469  1.1325
32719SOL    HW2  600   8.778   6.768  10.226  1.1785  0.9859 -0.3521
32720SOL     OW  601   5.211   9.232   7.719 -0.1742  0.5199 -0.0819
32720SOL    HW1  602   5.135   9.200   7.669 -1.1278  2.4505  0.0642
32720SOL    HW2  603   5.180   9.235   7.809 -0.0481  1.6666 -0.0743
32721SOL     OW  604  10.354   6.043   9.188  0.0937 -0.3607 -0.6558
32721SOL    HW1  605  10.444   6.019   9.211 -0.1168 -0.1425  0.4403
32721SOL    HW2  606  10.308   6.047   9.271 -0.9579 -0.5276 -1.2129
32722SOL     OW  607   3.904   0.135   4.282  0.2844  0.3980 -0.5144
32722SOL    HW1  608   3.888   0.126   4.375 -2.1653  2.2425 -0.6664
32722SOL    HW2  609   3.962   0.062   4.260  0.8996 -0.0861  2.4037
32723SOL     OW  610   8.520   4.075   3.739 -0.2722 -0.1942  0.4451
32723SOL    HW1  611   8.490   4.109   3.655 -1.0343  0.7406  1.0526
32723SOL    HW2  612   8.583   4.007   3.718 -1.9440 -1.3894 -0.9065
32724SOL     OW  613   2.898  10.028   6.815  0.5027  0.1414 -0.1219
32724SOL    HW1  614   2.895  10.090   6.743  0.1485 -0.7757 -0.9133
32724SOL    HW2  615   2.990  10.005   6.824  0.4467 -0.4247 -0.8949
32725SOL     OW  616   6.925   1.262   4.804  0.0915 -0.4857 -0.6544
32725SOL    HW1  617   6.991   1.310   4.853  0.6842 -0.6775 -1.2508
32725SOL    HW2  618   6.974   1.215   4.736 -0.7112 -0.1028 -1.5279
32726SOL     OW  619   3.046   0.917   9.581  0.0670 -0.3840 -0.1344
32726SOL    HW1  620   3.071   0.954   9.496 -0.2851  1.0249  0.3586
32726SOL    HW2  621   3.024   0.993   9.635  1.9355 -1.1093  1.7937
32727SOL     OW  622   5.280   6.923   7.634  0.1535 -0.6491 -0.3824
32727SOL    HW1  623   5.287   7.011   7.671  0.1436  0.2136 -2.3074
32727SOL    HW2  624   5.357   6.877   7.666  0.8885  0.5075 -0.4334
32728SOL     OW  625   6.544   3.507   2.093 -0.2088  0.2604 -0.5030
32728SOL    HW1  626   6.501   3.561   2.026 -0.9263  0.7453  0.3245
32728SOL    HW2  627   6.549   3.565   2.169  1.2933 -0.0285 -0.3589
32729SOL     OW  628   5.822   9.910   0.294 -0.2266  0.4481 -0.2858
32729SOL    HW1  629   5.789   9.985   0.342 -0.8721  0.7672 -1.1923
32729SOL    HW2  630   5.802   9.835   0.350 -1.8179  0.7149 -0.4375
32730SOL     OW  631   3.505   8.749   0.907  0.2056 -0.2610 -0.6107
32730SOL    HW1  632   3.432   8.696   0.876  0.9601 -1.8618  0.2200
32730SOL    HW2  633   3.476   8.782   0.992  0.2555 -0.4694 -0.5129
32731SOL     OW  634   2.348   3.738  10.392 -0.5975  0.5625 -0.0368
32731SOL    HW1  635   2.302   3.776  10.318 -2.3851 -0.8493  0.2844
32731SOL    HW2  636   2.421   3.689  10.353  0.2666  2.2127 -0.5974
32732SOL     OW  637   5.373   2.533   9.425  0.0041 -0.6539 -0.1143
32732SOL    HW1  638   5.468   2.526   9.420  0.1950  1.0494  0.4970
32732SOL    HW2  639   5.355   2.548   9.517 -1.0349 -2.5495  0.0556
32733SOL     OW  640   8.086   4.697  10.293  0.1362 -0.1147 -0.0798
32733SOL    HW1  641   8.157   4.644  10.328 -1.4639 -1.9937  0.5153
32733SOL    HW2  642   8.039   4.639  10.233 -0.2746  1.4149 -1.3092
32734SOL     OW  643   1.388  10.380   6.961  0.9451 -0.4762 -0.0610
32734SOL    HW1  644   1.318  10.439   6.931  1.2743 -0.1057 -0.1069
32734SOL    HW2  645   1.431  10.351   6.880  1.1930 -0.2652 -0.0090
32735SOL     OW  646   4.056   1.302   2.741  0.8727  0.2111  0.0756
32735SOL    HW1  647   4.128   1.359   2.768  1.7316 -1.0669  0.5883
32735SOL    HW2  648   3.977   1.345   2.774  1.0722  2.8441 -2.4495
32736SOL     OW  649  10.154   3.271   4.991 -0.2671 -0.3743 -0.7403
32736SOL    HW1  650  10.062   3.283   4.966 -0.6678 -0.6135  0.5237
32736SOL    HW2  651  10.174   3.348   5.045 -0.3166 -1.2337  0.5362
32737SOL     OW  652   4.200   1.199   3.991 -0.0442  0.2585  0.4913
32737SOL    HW1  653   4.142   1.124   3.993  1.0073 -0.6117 -0.2537
32737SOL    HW2  654   4.157   1.265   4.045 -1.6663 -0.3731  0.0178
32738SOL     OW  655   0.166   3.039   4.710 -1.0736  0.4315 -0.1827
32738SOL    HW1  656   0.148   3.026   4.803  1.6573  0.9235  0.4903
32738SOL    HW2  657   0.104   3.107   4.682 -1.6665  0.5475  1.3427
32739SOL     OW  658   2.063   1.011   3.364  0.6888 -0.0599 -0.4393
32739SOL    HW1  659   2.000   0.993   3.293  0.3565  1.5454 -0.5725
32739SOL    HW2  660   2.015   1.067   3.425  1.4911 -0.1442  0.2888
32740SOL     OW  661   5.330   5.689   9.628  0.3402  0.2982 -0.4146
32740SOL    HW1  662   5.315   5.626   9.699  0.4617 -1.3305 -1.7837
32740SOL    HW2  663   5.246   5.694   9.583  0.1639  1.6029  0.0176
32741SOL     OW  664   8.620   3.802   8.397 -0.5521  0.3235  0.3722
32741SOL    HW1  665   8.681   3.868   8.431  1.6899 -0.2504 -2.1694
32741SOL    HW2  666   8.675   3.726   8.380 -2.4309 -0.9942 -0.0448
32742SOL     OW  667   2.217   8.847   1.490 -0.2967 -0.4627 -0.1371
32742SOL    HW1  668   2.245   8.938   1.499  0.7747 -0.6276 -1.3760
32742SOL    HW2  669   2.277   8.798   1.546 -1.7745 -0.3153  1.6593
32743SOL     OW  670   7.069   3.123   4.678  0.1875  0.5538 -0.0425
32743SOL    HW1  671   7.154   3.120   4.634  1.8090 -2.4764  2.8342
32743SOL    HW2  672   7.029   3.038   4.659 -0.2043  0.2135  2.0686
32744SOL     OW  673   3.280   9.991   4.019  0.1830 -0.0644 -1.0830
32744SOL    HW1  674   3.189   9.969   4.042  0.5238  0.2674  0.7374
32744SOL    HW2  675   3.278  10.003   3.924 -1.4652 -1.0277 -1.2214
32745SOL     OW  676   8.012   9.525   9.443  0.0553  0.7846 -0.3274
32745SOL    HW1  677   8.058   9.512   9.526 -0.3587 -1.8361 -0.4279
32745SOL    HW2  678   8.077   9.567   9.386  2.0905 -1.7794 -0.1244
32746SOL     OW  679   0.702   9.524   2.099  0.3698 -0.2109 -0.1349
32746SOL    HW1  680   0.621   9.559   2.136  0.0281 -1.4266  0.3127
32746SOL    HW2  681   0.680   9.435   2.073  1.1007  0.0179 -1.6526
32747SOL     OW  682   1.923   7.329   4.811 -0.1488 -0.4389  0.2050
32747SOL    HW1  683   1.868   7.293   4.881  0.9121 -0.8668  0.8372
32747SOL    HW2  684   1.872   7.316   4.731 -1.4517  0.1944  0.9043
32748SOL     OW  685   9.115   6.457   9.697  0.4964  0.5187 -0.4344
32748SOL    HW1  686   9.177   6.504   9.641 -0.0498 -1.4084 -2.8498
32748SOL    HW2  687   9.034   6.507   9.692  0.2665  0.0532 -1.9823
32749SOL     OW  688   4.493   2.637   3.435 -0.1742 -0.1641 -0.0618
32749SOL    HW1  689   4.575   2.683   3.450  0.0024  0.0794 -1.5945
32749SOL    HW2  690   4.512   2.578   3.362 -1.2480 -0.4192 -0.1524
32750SOL     OW  691  10.383   7.994   4.783  0.4723 -1.0062  0.1530
32750SOL    HW1  692  10.326   7.929   4.741  0.6136 -0.8855 -0.2328
32750SOL    HW2  693  10.429   7.945   4.851 -0.7231 -0.9103  1.0523
32751SOL     OW  694   7.435   5.950   8.077  0.2869 -0.0294  0.0810
32751SOL    HW1  695   7.468   6.033   8.043  1.6650 -0.4359  0.3614
32751SOL    HW2  696   7.510   5.890   8.069 -1.2886 -1.8941 -2.2748
32752SOL     OW  697   1.622  10.012   7.356 -0.0921 -0.1125  0.1846
32752SOL    HW1  698   1.683  10.072   7.399 -0.8899  0.9115 -0.0742
32752SOL    HW2  699   1.557   9.992   7.423 -0.1793 -0.1839  0.0772
32753SOL     OW  700   0.285   7.357   0.360  0.0129 -0.3721 -0.0107
32753SOL    HW1  701   0.222   7.409   0.311  0.0754  0.8249  1.1239
32753SOL    HW2  702   0.245   7.346   0.446  0.0563 -2.1308 -0.1813
32754SOL     OW  703   0.537   8.330   5.500 -0.1080  0.3288 -0.2642
32754SOL    HW1  704   0.554   8.418   5.533  2.0918 -0.4935  1.0015
32754SOL    HW2  705   0.543   8.274   5.577  1.1592 -1.2062 -1.4118
32755SOL     OW  706   0.512   7.456   0.997 -0.6454  0.1733 -0.0408
32755SOL    HW1  707   0.428   7.449   0.952 -0.7673 -2.5204  0.4699
32755SOL    HW2  708   0.571   7.401   0.947  0.7586  1.7394 -0.1724
32756SOL     OW  709   0.353  10.166   9.390  0.4810  0.2858  0.2124
32756SOL    HW1  710   0.408  10.244   9.380 -1.7252  2.1443  1.5559
32756SOL    HW2  711   0.383  10.126   9.472  0.4811  0.7297  0.4337
32757SOL     OW  712   9.335   1.063   1.766  0.0919 -0.6347  0.7979
32757SOL    HW1  713   9.369   0.975   1.777  0.7235 -0.3650  1.0923
32757SOL    HW2  714   9.392   1.118   1.820  0.6682  0.1611 -0.5473
32758SOL     OW  715   8.810   2.979   8.568  0.3414  0.0806 -0.3974
32758SOL    HW1  716   8.903   2.977   8.591  0.4316 -1.0169 -0.8229
32758SOL    HW2  717   8.771   2.909   8.619  0.0660 -0.5898 -1.4816
32759SOL     OW  718   5.552   2.629   9.937 -0.3457 -0.2740 -0.2218
32759SOL    HW1  719   5.639   2.615   9.973 -0.8141 -0.6683  0.7882
32759SOL    HW2  720   5.522   2.711   9.976 -0.7204 -0.5243  0.0288
32760SOL     OW  721   8.742   6.501   0.120  0.3701 -0.8977 -0.4252
32760SOL    HW1  722   8.761   6.407   0.125 -1.5859 -1.3316 -0.4839
32760SOL    HW2  723   8.695   6.512   0.037 -1.5735 -0.3287  0.6892
32761SOL     OW  724   2.295   1.123   5.224 -0.3559  0.3727 -0.4977
32761SOL    HW1  725   2.261   1.161   5.305  0.1793 -1.8552  0.8437
32761SOL    HW2  726   2.376   1.172   5.208 -1.0682  1.6367 -0.3936
32762SOL     OW  727   1.094   1.472   4.485 -0.2913 -0.5517  0.1757
32762SOL    HW1  728   1.029   1.485   4.415 -1.1366  0.2797  1.0797
32762SOL    HW2  729   1.177   1.458   4.439 -0.9158 -0.5131 -0.9948
32763SOL     OW  730  10.411   5.909   2.842  0.6677  0.5804 -1.1110
32763SOL    HW1  731  10.332   5.911   2.787  0.6788  0.7891 -1.1207
32763SOL    HW2  732  10.455   5.993   2.823  0.1940  1.0766 -0.0775
32764SOL     OW  733   2.623   6.447   0.682 -0.1467 -0.1480  0.1261
32764SOL    HW1  734   2.719   6.452   0.685 -0.1841  0.2887  0.7377
32764SOL    HW2  735   2.605   6.378   0.619  0.5585  0.5672 -0.8908
32765SOL     OW  736   2.220   3.362   8.802  0.6045 -0.2317 -0.9723
32765SOL    HW1  737   2.143   3.313   8.831  0.3313  0.5900 -0.2909
32765SOL    HW2  738   2.213   3.447   8.845  2.7362 -0.6882  0.4355
32766SOL     OW  739   0.499   8.355   4.220  0.2442  0.0141  0.3559
32766SOL    HW1  740   0.529   8.414   4.289 -0.1302 -0.9022  1.3198
32766SOL    HW2  741   0.536   8.270   4.242  0.4131 -0.2270 -0.7774
32767SOL     OW  742   0.052   8.389   8.589 -0.2642 -0.2753  0.4455
32767SOL    HW1  743   0.130   8.423   8.546 -0.3377 -0.6112  0.0433
32767SOL    HW2  744   0.012   8.466   8.629  0.0464 -0.0328  0.2942
32768SOL     OW  745   3.131   6.360   1.508  0.1382 -0.3954  0.2997
32768SOL    HW1  746   3.070   6.353   1.582  0.2785  1.4774  0.6506
32768SOL    HW2  747   3.164   6.450   1.513  2.4575 -1.1497 -0.2658
32769SOL     OW  748   0.057   1.774   4.179 -0.3519 -0.0994 -0.2797
32769SOL    HW1  749  -0.001   1.703   4.153 -0.6662  0.3477 -0.8139
32769SOL    HW2  750   0.141   1.751   4.139 -0.5487  0.0131 -0.7731
32770SOL     OW  751   3.981   6.398   8.449  0.3124 -0.5322 -0.2597
32770SOL    HW1  752   3.949   6.440   8.369 -1.3351  1.8379  1.5193
32770SOL    HW2  753   3.902   6.382   8.501  1.5541  1.5809  2.4902
32771SOL     OW  754   0.635   5.194   8.455  0.2273  0.2338 -0.5146
32771SOL    HW1  755   0.608   5.286   8.450  1.3150  0.7818  1.9038
32771SOL    HW2  756   0.720   5.197   8.499  1.4510 -1.8146 -2.5406
32772SOL     OW  757   4.431   3.901   6.424  0.3086  0.0672  0.4507
32772SOL    HW1  758   4.513   3.866   6.390 -0.0427 -0.1665 -0.1664
32772SOL    HW2  759   4.444   3.996   6.424  0.7125  0.0147  0.7098
32773SOL     OW  760   0.789   5.742   9.576  0.2901  0.2336 -1.4188
32773SOL    HW1  761   0.708   5.793   9.570  0.1739 -0.0180 -2.0376
32773SOL    HW2  762   0.849   5.799   9.623 -0.0377  0.6951 -1.5466
32774SOL     OW  763   4.278  10.092   5.983  0.5722 -0.1783 -0.4765
32774SOL    HW1  764   4.311  10.169   5.937  1.6227 -1.3644 -1.7835
32774SOL    HW2  765   4.230  10.044   5.917  2.5983 -2.2236 -0.5750
32775SOL     OW  766   4.897   5.721   6.933 -0.0827 -0.2775 -0.5410
32775SOL    HW1  767   4.805   5.703   6.916  0.6762 -4.3656 -1.3731
32775SOL    HW2  768   4.938   5.720   6.846  0.8206  1.2440 -0.1695
32776SOL     OW  769   2.276   4.134   2.754  0.0339  0.3475  0.2056
32776SOL    HW1  770   2.257   4.212   2.806 -0.8917 -0.0276  0.4507
32776SOL    HW2  771   2.370   4.140   2.736  0.2726  0.7562  1.4738
32777SOL     OW  772   1.097   7.814   5.312  0.5156 -0.3203 -0.4906
32777SOL    HW1  773   1.123   7.737   5.362  0.6898 -0.2029 -0.3976
32777SOL    HW2  774   1.034   7.860   5.368 -0.3335 -0.8969 -0.9483
32778SOL     OW  775   4.732   9.114   3.730 -0.1045  0.1542 -0.6515
32778SOL    HW1  776   4.739   9.079   3.819  0.8021 -0.6163 -1.0113
32778SOL    HW2  777   4.779   9.197   3.734 -0.1511  0.1698 -0.3907
32779SOL     OW  778   3.446   5.683   7.285  0.2163 -0.2877 -0.2230
32779SOL    HW1  779   3.523   5.635   7.316 -0.6557 -0.9132  1.0772
32779SOL    HW2  780   3.423   5.641   7.203  1.5189  0.2082 -0.8680
32780SOL     OW  781   9.052   6.859   8.118  0.0685 -0.1932 -0.4501
32780SOL    HW1  782   9.142   6.872   8.145  0.7845 -1.8946 -1.7961
32780SOL    HW2  783   9.014   6.803   8.185 -0.1463  0.8447  0.3243
32781SOL     OW  784   9.797   5.005   4.267  0.2420  0.3085  0.4930
32781SOL    HW1  785   9.736   5.011   4.194  0.9210 -0.1980 -0.1357
32781SOL    HW2  786   9.862   4.940   4.238  1.0097  0.7575  1.1815
32782SOL     OW  787   2.221   1.522   3.793  0.4631 -0.7051 -0.3681
32782SOL    HW1  788   2.301   1.523   3.741  0.7829 -0.1154  0.1240
32782SOL    HW2  789   2.203   1.614   3.811 -2.0422 -0.4847 -3.0441
32783SOL     OW  790   8.179   5.484   8.250 -0.5458 -0.0239  0.5057
32783SOL    HW1  791   8.215   5.410   8.299 -0.5169 -0.9664 -0.8724
32783SOL    HW2  792   8.199   5.561   8.304 -0.9166 -1.0391  2.1624
32784SOL     OW  793   8.134   1.761   5.227  0.0082 -0.0102 -0.0503
32784SOL    HW1  794   8.229   1.750   5.235  0.2126  0.7585 -1.1756
32784SOL    HW2  795   8.098   1.705   5.296  1.3216  1.0777  1.6228
32785SOL     OW  796   7.199   2.464   5.259 -0.4796 -0.5732 -0.1548
32785SOL    HW1  797   7.156   2.545   5.231  1.6315  0.5871 -0.2196
32785SOL    HW2  798   7.185   2.461   5.353  0.0763  0.2964 -0.0338
32786SOL     OW  799   5.072   9.282   3.652 -0.4310 -0.0293  0.1530
32786SOL    HW1  800   5.149   9.339   3.662  0.2782 -0.8094 -0.6579
32786SOL    HW2  801   5.068   9.232   3.733  0.9301 -1.1589 -0.4333
32787SOL     OW  802  10.387  10.454   3.086  0.0269 -0.1434 -0.0778
32787SOL    HW1  803  10.306  10.437   3.134 -0.5707  1.1143 -0.5848
32787SOL    HW2  804  10.424  10.531   3.128  0.5076 -0.1944 -0.4033
32788SOL     OW  805   5.700   6.320   3.609  0.2203  0.0941 -0.5587
32788SOL    HW1  806   5.695   6.415   3.602  1.0924  0.0662 -1.9104
32788SOL    HW2  807   5.747   6.305   3.691  1.0626  0.8690 -0.8853
32789SOL     OW  808   9.735   8.799   9.951  0.4028  0.1803  0.1975
32789SOL    HW1  809   9.654   8.807   9.901  0.8177  0.2205 -0.4933
32789SOL    HW2  810   9.775   8.719   9.917  1.6695  1.2645 -1.0308
32790SOL     OW  811   9.541   3.595   9.778 -0.8203 -0.3940  0.1849
32790SOL    HW1  812   9.517   3.569   9.867  1.6891  3.0822  2.1268
32790SOL    HW2  813   9.499   3.680   9.766  0.1027 -0.1177 -1.3673
32791SOL     OW  814   0.943  10.301   9.077 -0.9580  0.1429  0.4459
32791SOL    HW1  815   0.855  10.339   9.076 -1.3942 -0.5993 -3.1842
32791SOL    HW2  816   1.001  10.374   9.055 -0.7520  0.3469  1.5709
32792SOL     OW  817   9.480   6.864   6.833 -0.3859 -0.0548 -0.4637
32792SOL    HW1  818   9.428   6.794   6.872  0.2973 -0.2789  0.0767
32792SOL    HW2  819   9.570   6.847   6.863  0.3478 -0.7418 -2.8589
32793SOL     OW  820   5.595   1.061   3.618  0.4973  0.8429 -0.0860
32793SOL    HW1  821   5.573   1.021   3.702  0.2443  1.8333  0.3294
32793SOL    HW2  822   5.512   1.067   3.571  0.8034 -0.8180 -0.9352
32794SOL     OW  823   9.237  10.425   0.643 -0.0397  0.1585 -0.0237
32794SOL    HW1  824   9.195  10.510   0.627 -2.1663 -1.0315 -1.2310
32794SOL    HW2  825   9.257  10.392   0.555  0.4309 -0.7466  0.4158
32795SOL     OW  826   9.032   8.811   1.829 -0.0830 -0.2522  0.4237
32795SOL    HW1  827   9.126   8.811   1.842  0.1952 -2.4227 -1.1501
32795SOL    HW2  828   9.012   8.726   1.789 -2.4994  0.7178 -0.6672
32796SOL     OW  829   7.039   0.668   5.175 -0.4976 -0.0834  0.2416
32796SOL    HW1  830   6.970   0.722   5.214 -2.0613 -1.9046  0.1025
32796SOL    HW2  831   7.059   0.602   5.242  1.2839  0.5058  0.3531
32797SOL     OW  832   7.492   1.440   5.328 -0.1353  0.1821 -0.4882
32797SOL    HW1  833   7.440   1.367   5.360  0.1004  0.8192  1.4368
32797SOL    HW2  834   7.430   1.513   5.321 -0.2628 -0.0342 -1.9080
32798SOL     OW  835   1.679   0.599   7.094 -0.1320 -0.5559  0.4631
32798SOL    HW1  836   1.768   0.634   7.087 -0.7037  0.7100 -3.3534
32798SOL    HW2  837   1.643   0.640   7.172  2.0491  0.3852  1.0550
32799SOL     OW  838   2.677   7.399  10.137 -0.1175  0.0283  0.4665
32799SOL    HW1  839   2.623   7.364  10.066 -0.0632  1.1995 -0.1735
32799SOL    HW2  840   2.628   7.475  10.169  0.2504 -0.0112  1.1308
32800SOL     OW  841   7.715   1.141   2.974  0.0424  0.1543  0.6007
32800SOL    HW1  842   7.749   1.230   2.971 -0.7734  0.6079  2.6477
32800SOL    HW2  843   7.769   1.097   3.041 -0.6194 -0.3740  0.8032
32801SOL     OW  844   6.808   8.708   6.426  0.5103 -0.2568  0.2896
32801SOL    HW1  845   6.811   8.615   6.444  0.4218 -0.4732 -0.7201
32801SOL    HW2  846   6.849   8.717   6.340  0.1159  0.5748  0.1730
32802SOL     OW  847   9.046   4.642   1.679 -0.1356 -0.0281  0.1666
32802SOL    HW1  848   9.125   4.588   1.674  0.1567  0.2732  1.3494
32802SOL    HW2  849   8.975   4.583   1.654  0.2513 -0.7936  0.8521
32803SOL     OW  850   2.876   0.480   7.654  0.3806  0.3584 -0.2533
32803SOL    HW1  851   2.904   0.389   7.640 -1.7282 -0.2343 -1.0566
32803SOL    HW2  852   2.844   0.508   7.568 -2.4308  0.5680  0.7905
32804SOL     OW  853   2.851   9.730   5.078 -0.1328 -0.6196 -0.0994
32804SOL    HW1  854   2.909   9.805   5.063 -1.5098  0.8288  1.3534
32804SOL    HW2  855   2.793   9.729   5.001 -1.4449  1.1943  0.7733
32805SOL     OW  856   5.626   2.188   6.549 -0.1517 -0.2462  0.0422
32805SOL    HW1  857   5.691   2.129   6.588  0.4952 -0.1884 -0.9279
32805SOL    HW2  858   5.665   2.275   6.556 -0.9852  0.0682  1.2123
32806SOL     OW  859   4.354   6.301   5.346  0.0369  0.2152  0.1358
32806SOL    HW1  860   4.376   6.208   5.343  0.5634  0.3673 -1.6514
32806SOL    HW2  861   4.357   6.322   5.439  0.2067 -1.4786  0.5592
32807SOL     OW  862   9.249   5.822   9.345  0.3799 -0.2378 -0.2171
32807SOL    HW1  863   9.207   5.799   9.262 -0.1445 -2.1059  0.5061
32807SOL    HW2  864   9.193   5.890   9.383 -0.3005 -0.5470 -0.6529
32808SOL     OW  865   0.512   3.752   6.875 -0.5053  0.3467 -0.1538
32808SOL    HW1  866   0.425   3.774   6.843 -0.8452  0.8054  1.0394
32808SOL    HW2  867   0.567   3.825   6.845 -0.5322  0.0796 -0.8663
32809SOL     OW  868   7.837   3.432   9.612 -0.3097  0.9228  0.2259
32809SOL    HW1  869   7.782   3.441   9.534  2.2818  2.6300 -1.5604
32809SOL    HW2  870   7.805   3.500   9.671  0.0799  2.1880 -0.9623
32810SOL     OW  871  10.247   6.874  10.398 -0.0632  0.2735 -0.2586
32810SOL    HW1  872  10.152   6.865  10.391  0.0628 -0.1789 -1.7261
32810SOL    HW2  873  10.278   6.788  10.428  0.0051 -0.1163 -1.3980
32811SOL     OW  874   2.480   2.767   2.400  0.3984  0.0687 -0.4783
32811SOL    HW1  875   2.398   2.739   2.441  0.4242 -0.4764 -0.7900
32811SOL    HW2  876   2.517   2.829   2.462 -0.2064  0.2547 -0.2909
32812SOL     OW  877  10.269   1.950   1.433  0.1799 -0.3912  0.8305
32812SOL    HW1  878  10.256   1.972   1.525 -3.2337 -0.6938  0.5290
32812SOL    HW2  879  10.299   2.031   1.392 -1.5442  0.7106  1.6638
32813SOL     OW  880   8.850   5.782   8.112  0.5250 -0.0854  0.1561
32813SOL    HW1  881   8.868   5.872   8.138  0.0106  0.1016 -0.1426
32813SOL    HW2  882   8.840   5.735   8.195  2.2198 -0.1735  0.3499
32814SOL     OW  883   7.651   8.734   5.349 -0.2391 -0.9459 -0.4504
32814SOL    HW1  884   7.620   8.784   5.424  1.0021 -1.8172  0.6887
32814SOL    HW2  885   7.734   8.775   5.325 -0.2959 -1.0958 -0.9224
32815SOL     OW  886   9.237   0.329   2.681 -0.5539 -0.6037 -0.1617
32815SOL    HW1  887   9.325   0.291   2.674 -0.0938  0.4967 -0.4772
32815SOL    HW2  888   9.187   0.285   2.613  0.2017 -0.0247 -1.1101
32816SOL     OW  889   4.868   5.318   0.146  0.2592  0.3600 -0.1566
32816SOL    HW1  890   4.908   5.391   0.194 -0.7888 -0.5544  2.2729
32816SOL    HW2  891   4.785   5.352   0.115 -1.1054 -0.1623  2.5672
32817SOL     OW  892   5.308   0.895   1.060  0.2763  0.2227 -0.0711
32817SOL    HW1  893   5.278   0.970   1.008  0.9869 -0.6324 -1.7769
32817SOL    HW2  894   5.310   0.928   1.150 -0.3014  1.9702 -0.6554
32818SOL     OW  895   8.320   3.851   1.078 -0.2652  0.0029  0.0085
32818SOL    HW1  896   8.377   3.928   1.081 -0.9300  0.5995 -1.6511
32818SOL    HW2  897   8.272   3.853   1.161 -0.0129  1.1693  0.1365
32819SOL     OW  898   3.895   3.647   9.531 -0.2428 -0.1449  0.4138
32819SOL    HW1  899   3.938   3.677   9.611  0.4270 -0.9188  0.3641
32819SOL    HW2  900   3.919   3.554   9.524 -0.7932 -0.2424 -0.3560
32820SOL     OW  901   3.367   3.940   6.297 -0.7422  0.4409 -0.1042
32820SOL    HW1  902   3.364   4.032   6.321  3.0765  0.9674 -1.0653
32820SOL    HW2  903   3.415   3.937   6.215 -1.0146 -2.4083 -0.2891
32821SOL     OW  904   4.764   8.564   4.094 -0.1994  0.0067  0.0644
32821SOL    HW1  905   4.790   8.477   4.126 -3.2966 -0.7396  0.8719
32821SOL    HW2  906   4.729   8.547   4.006  2.1719  1.0306 -1.1544
32822SOL     OW  907   6.300   8.755   9.630 -0.0333 -0.1443 -0.4868
32822SOL    HW1  908   6.393   8.772   9.646 -0.2027 -0.5040  0.9741
32822SOL    HW2  909   6.288   8.778   9.538  1.1330  1.4544 -0.2917
32823SOL     OW  910   2.571   0.702   4.975 -0.1101 -0.8074 -0.2420
32823SOL    HW1  911   2.491   0.708   4.923  0.2828 -0.4223 -0.8168
32823SOL    HW2  912   2.553   0.755   5.053 -1.3529 -2.7962  0.9229
32824SOL     OW  913   0.572   5.630   1.072 -0.1093 -0.1260 -0.3499
32824SOL    HW1  914   0.665   5.654   1.070  0.3002 -1.5424  0.1824
32824SOL    HW2  915   0.551   5.612   0.980 -0.3879  1.9798 -0.7354
32825SOL     OW  916   4.329   4.191   4.697  0.3130 -0.7109  0.4452
32825SOL    HW1  917   4.303   4.283   4.689  0.2832 -0.1977  4.4369
32825SOL    HW2  918   4.250   4.146   4.725  0.2109 -2.1685 -1.9117
32826SOL     OW  919   6.008   4.224   2.772  0.8423  0.3391 -0.0058
32826SOL    HW1  920   6.006   4.285   2.698 -0.7483 -3.4527 -3.4990
32826SOL    HW2  921   6.092   4.178   2.762  1.0406  0.4025  1.2177
32827SOL     OW  922   4.518   0.657  10.181  0.4819  0.1333 -0.8703
32827SOL    HW1  923   4.454   0.656  10.252 -0.1506 -0.8948 -1.4331
32827SOL    HW2  924   4.588   0.599  10.212  0.4043  0.0224 -0.8992
32828SOL     OW  925   1.573   3.834   0.917 -0.5770 -0.1993  0.5293
32828SOL    HW1  926   1.510   3.872   0.978  0.8274  2.4485  0.5083
32828SOL    HW2  927   1.647   3.808   0.971 -0.4782 -0.4838  0.2598
32829SOL     OW  928   9.781   3.949   2.627  0.1992 -0.0654  0.1310
32829SOL    HW1  929   9.797   3.924   2.718 -2.1815 -2.9373 -0.0869
32829SOL    HW2  930   9.780   3.866   2.579 -1.0502  1.1177 -2.0667
32830SOL     OW  931   2.083   0.577   1.583  0.0447  1.1207  0.5481
32830SOL    HW1  932   1.997   0.603   1.618 -2.1461 -0.3360 -3.1416
32830SOL    HW2  933   2.112   0.653   1.533 -0.7725  0.5400 -0.8674
32831SOL     OW  934   0.329   9.347   2.043  0.0217  0.4640 -0.1872
32831SOL    HW1  935   0.282   9.428   2.061 -0.9035 -0.2067  0.5232
32831SOL    HW2  936   0.281   9.280   2.092 -0.5533 -0.8790 -2.4598
32832SOL     OW  937   7.967   6.203   8.217  0.2606 -0.3924 -0.2809
32832SOL    HW1  938   7.978   6.213   8.311 -0.4064  0.8031 -0.3134
32832SOL    HW2  939   7.962   6.293   8.184  3.2667 -0.6641 -1.8249
32833SOL     OW  940   6.935   4.347   3.625  0.2855  0.0730  0.3617
32833SOL    HW1  941   6.975   4.401   3.693  0.2038 -0.5995  0.9520
32833SOL    HW2  942   6.891   4.410   3.567  0.1211  0.6332  1.0805
32834SOL     OW  943   8.385   1.747   0.687 -0.2096  0.0845  0.0758
32834SOL    HW1  944   8.414   1.696   0.762  0.8770  1.0870  0.3785
32834SOL    HW2  945   8.447   1.724   0.617 -0.7741 -0.3008 -0.3049
32835SOL     OW  946   8.842   6.003   7.281 -0.5475 -0.2524 -0.1820
32835SOL    HW1  947   8.787   5.970   7.210  0.6737 -0.5822 -1.0035
32835SOL    HW2  948   8.832   6.098   7.277 -2.4964 -0.3583  0.8970
32836SOL     OW  949   1.492   9.647   3.997  0.4536  0.0370  0.0997
32836SOL    HW1  950   1.554   9.622   4.065  0.3691  1.1423  0.6013
32836SOL    HW2  951   1.504   9.742   3.987 -0.4238  0.0954 -0.5210
32837SOL     OW  952   6.190   3.432   8.811  0.7169  0.1233 -0.1567
32837SOL    HW1  953   6.123   3.366   8.793  0.5804  0.1159  0.3619
32837SOL    HW2  954   6.145   3.499   8.863  1.4016 -0.4705  1.2370
32838SOL     OW  955  10.005   5.075   9.902  0.4521 -0.2383  0.8036
32838SOL    HW1  956  10.021   5.029   9.984  0.1139 -0.0328  0.9811
32838SOL    HW2  957   9.914   5.103   9.906 -0.7810 -3.4655 -1.2196
32839SOL     OW  958   1.351   9.715   9.072  0.2392 -0.3412 -0.5513
32839SOL    HW1  959   1.413   9.690   9.140  0.7703  1.1626 -0.4425
32839SOL    HW2  960   1.400   9.774   9.015 -0.2545 -1.3827 -2.1389
32840SOL     OW  961   7.707   6.726   3.963 -0.6608  0.4182  0.5522
32840SOL    HW1  962   7.649   6.759   3.895 -0.9263 -0.2201  0.4611
32840SOL    HW2  963   7.648   6.696   4.032 -0.4018  0.8442  0.9678
32841SOL     OW  964   8.372   7.217   0.776 -0.1173 -0.9592  0.3543
32841SOL    HW1  965   8.311   7.241   0.707 -0.9154  0.8474  1.6006
32841SOL    HW2  966   8.384   7.122   0.766 -0.6289 -0.8472 -1.8524
32842SOL     OW  967   9.159   6.309   4.422 -0.1117 -0.2452  0.1238
32842SOL    HW1  968   9.228   6.375   4.434  2.1997 -2.2622 -1.1283
32842SOL    HW2  969   9.078   6.353   4.448  1.7303  1.9793  2.5963
32843SOL     OW  970   6.690   2.740   0.547  0.0056 -0.1997 -0.1096
32843SOL    HW1  971   6.744   2.665   0.523 -0.5599 -1.4374  2.2960
32843SOL    HW2  972   6.732   2.775   0.626  0.0043  1.7907 -0.9331
32844SOL     OW  973   9.004   5.271   6.614 -0.7668 -0.0360  0.3184
32844SOL    HW1  974   9.012   5.239   6.704 -0.6931 -0.7658  0.0631
32844SOL    HW2  975   9.033   5.197   6.561  0.0992  0.7082 -0.2748
32845SOL     OW  976   4.666   9.092   9.369 -0.0670 -0.2096 -0.2219
32845SOL    HW1  977   4.679   9.043   9.288 -0.4424 -0.1774 -0.3032
32845SOL    HW2  978   4.711   9.175   9.354  0.5977 -0.5271 -0.0745
32846SOL     OW  979   0.349   9.029   9.988  0.8249  0.2185 -0.1963
32846SOL    HW1  980   0.363   9.123   9.994 -0.9422  0.8482 -3.3591
32846SOL    HW2  981   0.384   8.994  10.070  0.9573  3.6467  1.3934
32847SOL     OW  982   2.218   4.040   8.672  0.5443  0.0099  0.0219
32847SOL    HW1  983   2.125   4.045   8.694  0.3424  0.2478 -0.8432
32847SOL    HW2  984   2.229   4.105   8.602  1.2015 -0.5362 -0.3893
32848SOL     OW  985   8.640   5.282   8.049  0.1380 -0.2467  0.2804
32848SOL    HW1  986   8.606   5.343   8.114 -0.9016 -0.7924  0.2693
32848SOL    HW2  987   8.589   5.300   7.970  0.2176 -0.7370  0.1127
32849SOL     OW  988   7.778   3.825   7.909 -0.2462 -0.4076  0.1283
32849SOL    HW1  989   7.770   3.920   7.917 -0.9949 -0.4902  0.4428
32849SOL    HW2  990   7.844   3.813   7.841  0.9725  0.3274  1.1331
32850SOL     OW  991   4.243   1.129   5.913 -0.2203  0.6278  0.6910
32850SOL    HW1  992   4.272   1.219   5.897 -0.2478  0.7075  1.0690
32850SOL    HW2  993   4.309   1.093   5.972 -0.2456  0.4207  0.5932
32851SOL     OW  994   2.239   0.405   6.068  0.3651  0.2126  0.5829
32851SOL    HW1  995   2.306   0.434   6.130 -0.6301  0.5354  1.5366
32851SOL    HW2  996   2.161   0.393   6.122 -0.8128  1.5267 -0.7886
32852SOL     OW  997   1.106   3.524   6.537 -0.2808 -0.1396 -0.4788
32852SOL    HW1  998   1.055   3.499   6.614  0.0495  0.3956 -0.0756
32852SOL    HW2  999   1.156   3.601   6.565 -1.0115  0.7708 -1.5728
32853SOL     OW 1000   5.913   7.769   4.676  0.2151  0.0416  0.3229
32853SOL    HW1 1001   5.976   7.720   4.729  0.2362 -0.5195 -0.2115
32853SOL    HW2 1002   5.963   7.841   4.639  0.1939  0.4546  1.0826
32854SOL     OW 1003   0.538   2.707   9.788 -0.5499 -0.1099 -0.0956
32854SOL    HW1 1004   0.521   2.715   9.694 -0.2387 -1.8729 -0.3392
32854SOL    HW2 1005   0.456   2.734   9.829 -2.1257 -3.0078 -1.0522
32855SOL     OW 1006  10.278   4.732   3.204  0.4182  0.4147 -0.2313
32855SOL    HW1 1007  10.222   4.777   3.140  0.0379  0.2968  0.0119
32855SOL    HW2 1008  10.351   4.699   3.152 -0.4318 -0.6280 -0.8256
32856SOL     OW 1009   3.318   5.756   5.970  0.9262 -0.1392 -0.0904
32856SOL    HW1 1010   3.399   5.733   5.924  1.3153  0.3953  0.3172
32856SOL    HW2 1011   3.271   5.673   5.979  1.4614 -0.4665 -0.2666
32857SOL     OW 1012   8.046   0.653   4.336  0.0406  0.4065  0.0482
32857SOL    HW1 1013   7.989   0.618   4.404  0.8590  2.4134  1.8831
32857SOL    HW2 1014   7.993   0.721   4.294  0.7026  1.6457  1.1485
32858SOL     OW 1015   9.770   5.839   7.604 -0.1135  0.2287  0.5704
32858SOL    HW1 1016   9.770   5.844   7.509  0.1495  0.1540  0.5668
32858SOL    HW2 1017   9.855   5.803   7.627  0.0850  0.8667  0.8669
32859SOL     OW 1018   5.605   1.264   3.909 -0.2277 -0.1932 -0.1999
32859SOL    HW1 1019   5.549   1.248   3.833 -0.7457 -2.0245  0.5052
32859SOL    HW2 1020   5.566   1.341   3.951 -2.2641 -1.3641  0.2283
32860SOL     OW 1021   6.079   3.715   4.335  0.0049 -0.2884 -0.2568
32860SOL    HW1 1022   6.013   3.778   4.365  1.1884  0.1848  1.4667
32860SOL    HW2 1023   6.140   3.768   4.284  0.2358 -0.3064  0.0014
32861SOL     OW 1024   4.125   9.637  10.259  0.0077  0.2319 -0.0227
32861SOL    HW1 1025   4.215   9.667  10.245  0.1167 -0.4343 -0.8425
32861SOL    HW2 1026   4.131   9.578  10.333  0.2406  0.2174 -0.0522
32862SOL     OW 1027   8.934   2.515   9.304  0.0396  0.0087  0.3311
32862SOL    HW1 1028   8.931   2.603   9.268 -0.8606  0.5374  1.6217
32862SOL    HW2 1029   8.968   2.526   9.393  0.3354 -1.0020  0.3566
32863SOL     OW 1030   6.944   4.936   9.049  0.3022 -0.0901  0.0263
32863SOL    HW1 1031   7.010   4.942   9.118 -1.0287 -0.5468  1.3937
32863SOL    HW2 1032   6.895   5.019   9.054 -0.7309 -0.7092  0.6555
32864SOL     OW 1033   4.467   7.867   4.098  0.6118  0.2527  0.1785
32864SOL    HW1 1034   4.537   7.897   4.155  0.8656 -1.0023  0.5571
32864SOL    HW2 1035   4.511   7.837   4.019  0.9420 -3.5734  1.6298
32865SOL     OW 1036   2.934   7.913   1.215  0.4163 -0.0036  0.4536
32865SOL    HW1 1037   2.933   8.007   1.198  3.0108  0.2114  1.0685
32865SOL    HW2 1038   2.973   7.874   1.136  1.0159 -0.3596  0.9180
32866SOL     OW 1039  10.245   1.887   3.448  0.1813 -0.2444 -0.2967
32866SOL    HW1 1040  10.167   1.937   3.426 -0.9356 -1.8110 -0.0908
32866SOL    HW2 1041  10.230   1.855   3.537  1.5182  0.2566  0.1330
32867SOL     OW 1042   8.945   2.261   6.318 -0.4623 -0.1492 -0.2134
32867SOL    HW1 1043   8.901   2.316   6.253 -0.1411 -0.4071 -0.6492
32867SOL    HW2 1044   8.995   2.198   6.267  0.6140  0.2845  0.2730
32868SOL     OW 1045   4.097   4.745   3.711 -0.5139 -0.0283 -0.6297
32868SOL    HW1 1046   4.141   4.661   3.724 -1.9248 -0.5789  1.0683
32868SOL    HW2 1047   4.009   4.722   3.682 -0.5685  0.9346 -1.2857
32869SOL     OW 1048   0.533   5.187   8.176 -0.4888 -0.4289  0.0461
32869SOL    HW1 1049   0.446   5.154   8.198 -0.5124  0.1162  0.8442
32869SOL    HW2 1050   0.585   5.168   8.254  0.3613 -1.5748 -0.7716
32870SOL     OW 1051   4.229   4.806   6.638  0.0853 -0.2057 -0.1030
32870SOL    HW1 1052   4.138   4.805   6.669 -0.2868 -0.0674 -1.1278
32870SOL    HW2 1053   4.248   4.714   6.618  0.4252 -0.3379  0.7755
32871SOL     OW 1054   3.097   4.517   7.996 -0.4207 -0.0912 -0.0421
32871SOL    HW1 1055   3.184   4.497   7.960 -0.5222  2.2101 -1.8145
32871SOL    HW2 1056   3.115   4.546   8.085  0.5956 -0.0462 -0.2445
32872SOL     OW 1057   6.592   3.234   5.908 -0.5952  0.3839 -0.6651
32872SOL    HW1 1058   6.686   3.248   5.915 -0.2149 -1.5305 -1.2963
32872SOL    HW2 1059   6.563   3.215   5.997 -0.1709 -0.0596 -0.6167
32873SOL     OW 1060   5.011   2.917   0.536 -0.0583 -0.1974  0.2309
32873SOL    HW1 1061   5.090   2.868   0.561 -0.5005 -0.5853  0.8964
32873SOL    HW2 1062   4.939   2.858   0.556 -0.4659 -0.9376 -2.8019
32874SOL     OW 1063   0.917  10.106   7.322  0.3646 -0.3987  0.0078
32874SOL    HW1 1064   0.940  10.173   7.258  0.8204  0.4828  1.0471
32874SOL    HW2 1065   0.840  10.063   7.286  1.3820 -0.8323 -1.7478
32875SOL     OW 1066   2.098   6.447   6.469  0.1231  0.3945  0.3481
32875SOL    HW1 1067   2.003   6.438   6.472  0.3200 -1.9629  1.6095
32875SOL    HW2 1068   2.117   6.524   6.522 -1.0105  0.1842  1.0869
32876SOL     OW 1069   8.877   4.499   1.298 -0.2957  0.4337 -0.2775
32876SOL    HW1 1070   8.885   4.415   1.252  1.1720 -0.2165  1.0774
32876SOL    HW2 1071   8.948   4.552   1.262 -0.5903  0.7502 -0.3979
32877SOL     OW 1072   7.211   2.549   7.314  0.0911  0.3549  0.1523
32877SOL    HW1 1073   7.286   2.506   7.355  1.3479  1.5716 -0.7609
32877SOL    HW2 1074   7.173   2.483   7.257  1.3986  0.1299 -0.4995
32878SOL     OW 1075   1.535   9.051   2.368 -0.1392 -0.0475 -0.6495
32878SOL    HW1 1076   1.466   9.116   2.359 -1.8640 -1.9051 -1.6992
32878SOL    HW2 1077   1.556   9.026   2.278  0.1243 -1.2977 -0.2557
32879SOL     OW 1078   1.327   7.273   6.943 -0.0620 -0.6731 -0.3350
32879SOL    HW1 1079   1.301   7.296   7.032 -0.0688  0.3566 -0.5928
32879SOL    HW2 1080   1.306   7.180   6.935  0.9265 -1.0398  1.0817
32880SOL     OW 1081   7.440   2.868   6.762  0.0090 -0.5838  0.3426
32880SOL    HW1 1082   7.395   2.788   6.789  0.1086 -1.1373 -1.0732
32880SOL    HW2 1083   7.519   2.838   6.718  0.8565  0.3490  1.1568
32881SOL     OW 1084   7.650   8.197   4.354 -0.0249  0.4020  0.0680
32881SOL    HW1 1085   7.697   8.247   4.286 -1.5359  1.7015 -0.0812
32881SOL    HW2 1086   7.688   8.229   4.436  2.0491 -1.4178 -0.0835
32882SOL     OW 1087   9.451   6.211   2.216 -0.2078  0.2256 -0.2968
32882SOL    HW1 1088   9.387   6.282   2.218 -0.6424 -0.1539  1.3476
32882SOL    HW2 1089   9.428   6.157   2.291  2.2377  0.2536  0.5730
32883SOL     OW 1090   3.863   1.168   3.812 -0.4386 -0.2298  0.1837
32883SOL    HW1 1091   3.806   1.242   3.832  1.1578  0.7706  1.2234
32883SOL    HW2 1092   3.916   1.196   3.738  0.0676 -0.3843  0.4804
32884SOL     OW 1093   7.538   1.826   7.508  0.9255  0.0098 -0.4290
32884SOL    HW1 1094   7.530   1.920   7.493  1.0382  0.2472  0.8883
32884SOL    HW2 1095   7.490   1.810   7.589  1.1593 -1.0277 -0.4718
32885SOL     OW 1096   4.188   9.151   7.074  0.4495  0.1204  0.3727
32885SOL    HW1 1097   4.117   9.101   7.115  1.5347 -0.3106  1.7894
32885SOL    HW2 1098   4.255   9.087   7.054  1.7426  0.9223  1.9490
32886SOL     OW 1099   5.297   4.696   3.475  0.3485 -0.0273  0.3496
32886SOL    HW1 1100   5.282   4.673   3.567 -0.8035  0.2284  0.2408
32886SOL    HW2 1101   5.266   4.786   3.467 -0.2516 -0.2865 -0.4425
32887SOL     OW 1102   6.429   1.521   7.915 -0.0873  0.0426  0.4239
32887SOL    HW1 1103   6.429   1.443   7.860  0.8424  0.1587  0.2342
32887SOL    HW2 1104   6.366   1.502   7.985  0.6670 -1.1860  0.7983
32888SOL     OW 1105   6.143   7.164   8.033  0.1190  0.0048  0.0919
32888SOL    HW1 1106   6.195   7.091   8.068  1.2495  0.5290 -0.4548
32888SOL    HW2 1107   6.203   7.211   7.976 -1.1334  0.3049 -1.0104
32889SOL     OW 1108   5.240   1.612   2.971 -0.1729  0.2266  0.2059
32889SOL    HW1 1109   5.172   1.552   3.001 -0.6590  0.8778  0.4291
32889SOL    HW2 1110   5.194   1.675   2.915  0.3511  0.3189 -0.1326
32890SOL     OW 1111   0.322   2.555   6.518 -0.4282 -0.5992 -0.6762
32890SOL    HW1 1112   0.415   2.532   6.515  0.1412  1.6065 -1.2294
32890SOL    HW2 1113   0.298   2.569   6.426 -1.1995 -0.7190 -0.4994
32891SOL     OW 1114   8.983   3.048   3.956  0.1788 -0.3367  0.0299
32891SOL    HW1 1115   8.999   3.127   4.008 -3.2132 -0.7486  2.0001
32891SOL    HW2 1116   8.931   3.079   3.881  1.6846 -0.3163 -1.0529
32892SOL     OW 1117   2.792   1.220   1.129  0.2761  0.2863  0.7569
32892SOL    HW1 1118   2.862   1.186   1.074 -0.2065  0.7424 -0.1663
32892SOL    HW2 1119   2.833   1.288   1.183  1.2004 -1.5233  2.4689
32893SOL     OW 1120   6.881   9.788   7.046 -0.2694  0.5226  0.4033
32893SOL    HW1 1121   6.790   9.811   7.028 -0.2031  0.4603 -0.0316
32893SOL    HW2 1122   6.877   9.698   7.079 -0.2084 -0.2781 -1.6010
32894SOL     OW 1123   0.402   1.241   0.625  0.1186  0.5071  0.4648
32894SOL    HW1 1124   0.336   1.187   0.581  0.5609  0.0351  0.3637
32894SOL    HW2 1125   0.443   1.182   0.688  1.4280  0.3514 -0.4760
32895SOL     OW 1126   8.931   9.889   8.465  0.8614 -0.4279  0.0453
32895SOL    HW1 1127   8.906   9.909   8.555 -2.3956  1.4797 -1.0632
32895SOL    HW2 1128   8.890   9.805   8.446  1.5060 -0.8053  0.3300
32896SOL     OW 1129   0.724   7.660   2.334 -0.3357 -0.3188  0.2457
32896SOL    HW1 1130   0.810   7.702   2.344  0.0050 -1.3580  1.9740
32896SOL    HW2 1131   0.677   7.682   2.413 -1.2384 -0.7559 -0.1563
32897SOL     OW 1132   3.622   3.665   8.408  0.0105  0.1449  0.3156
32897SOL    HW1 1133   3.603   3.584   8.454  2.8386 -0.2794  0.9196
32897SOL    HW2 1134   3.679   3.639   8.335  1.0206  1.5351  0.5571
32898SOL     OW 1135   6.865   5.552   0.405 -0.1614 -0.5180 -0.1805
32898SOL    HW1 1136   6.807   5.551   0.481  1.0186 -1.5903  0.7395
32898SOL    HW2 1137   6.953   5.539   0.441  0.8040  1.8748 -1.4621
32899SOL     OW 1138  10.333   0.286   5.751 -0.0358  0.1121  0.1974
32899SOL    HW1 1139  10.251   0.334   5.756  0.2404  1.2144 -3.2193
32899SOL    HW2 1140  10.311   0.207   5.702  0.6480 -0.4403  0.7588
32900SOL     OW 1141   2.140   5.744   5.490  0.0382 -0.0544 -0.0119
32900SOL    HW1 1142   2.057   5.711   5.525  0.4310 -1.6500 -0.4985
32900SOL    HW2 1143   2.140   5.837   5.512 -2.3967  0.2461 -0.9651
32901SOL     OW 1144   4.354   8.837   2.850 -0.1710  0.6770  0.8018
32901SOL    HW1 1145   4.416   8.802   2.914 -2.2810 -0.5912  2.2820
32901SOL    HW2 1146   4.302   8.900   2.899 -1.4699  0.0898  0.2279
32902SOL     OW 1147   9.900   0.561   6.599  0.3928  0.0137 -0.4462
32902SOL    HW1 1148   9.958   0.599   6.532  0.6121 -1.5518 -1.2034
32902SOL    HW2 1149   9.874   0.477   6.562 -0.2036 -0.5018  1.0846
32903SOL     OW 1150   2.031   4.235   4.796 -0.2065  0.5411  0.1061
32903SOL    HW1 1151   2.055   4.146   4.769  0.8220  1.1938 -1.2395
32903SOL    HW2 1152   2.059   4.241   4.888  2.0826  0.2833 -0.5340
32904SOL     OW 1153   0.625   6.329   7.847  0.5420  0.1558 -0.4159
32904SOL    HW1 1154   0.594   6.263   7.785 -0.4748  0.6600 -0.4669
32904SOL    HW2 1155   0.682   6.281   7.907 -0.0300 -0.7326 -0.5630
32905SOL     OW 1156   1.395   5.486   1.662  0.3558  0.0200 -0.4654
32905SOL    HW1 1157   1.441   5.546   1.722 -0.5375 -0.2213  0.4963
32905SOL    HW2 1158   1.443   5.494   1.580  0.9730  1.1783 -0.0328
32906SOL     OW 1159   1.196   4.847   5.032 -0.2190  0.1520 -0.2321
32906SOL    HW1 1160   1.160   4.877   4.948 -0.2116  1.0124  0.0622
32906SOL    HW2 1161   1.186   4.752   5.029 -2.3581  0.3335 -0.2388
32907SOL     OW 1162   1.836   1.668   6.561  0.4112 -0.1443  0.0018
32907SOL    HW1 1163   1.752   1.674   6.514 -0.1252 -0.5627  0.8943
32907SOL    HW2 1164   1.814   1.627   6.644  1.5891 -0.6805  0.0584
32908SOL     OW 1165   5.299   0.642   7.083  0.4920 -0.3239 -0.3602
32908SOL    HW1 1166   5.292   0.555   7.042 -0.3247 -0.3202 -0.2490
32908SOL    HW2 1167   5.209   0.665   7.105  0.6885  0.6086 -0.4953
32909SOL     OW 1168   1.790   3.848   9.902  0.2582  0.0407  0.3164
32909SOL    HW1 1169   1.883   3.857   9.921  0.0824 -1.2279  2.0329
32909SOL    HW2 1170   1.759   3.783   9.965 -1.9320  0.9061  0.2151
32910SOL     OW 1171   5.827   5.401   1.559  0.7177  0.0921 -0.4041
32910SOL    HW1 1172   5.870   5.318   1.539 -1.4993 -0.9966 -1.0629
32910SOL    HW2 1173   5.747   5.400   1.506  1.5220  3.5737 -1.9399
32911SOL     OW 1174   1.770   3.004   2.202 -0.0511  0.0679 -0.3465
32911SOL    HW1 1175   1.738   2.913   2.197 -0.5733  0.3012 -2.5258
32911SOL    HW2 1176   1.857   3.000   2.164 -0.9787  0.7852 -2.7219
32912SOL     OW 1177   0.107   8.915   3.839  0.0315  0.3015  0.0471
32912SOL    HW1 1178   0.186   8.967   3.849  0.5128 -0.2351 -0.8627
32912SOL    HW2 1179   0.052   8.941   3.913  0.9992  0.7664  0.6247
32913SOL     OW 1180   3.410   0.111   9.275  0.3013 -0.5017 -0.2930
32913SOL    HW1 1181   3.330   0.122   9.326 -0.2277 -0.0906 -1.1754
32913SOL    HW2 1182   3.481   0.111   9.339 -0.3957 -0.6908  0.4814
32914SOL     OW 1183   7.129   2.861   2.469  0.1560  0.2945 -0.4469
32914SOL    HW1 1184   7.111   2.936   2.413  0.5959 -0.1282 -1.1661
32914SOL    HW2 1185   7.071   2.792   2.435 -0.2298  0.2945  0.1944
32915SOL     OW 1186   1.860   9.090   6.697 -0.0061 -0.7359 -0.4332
32915SOL    HW1 1187   1.939   9.132   6.663  0.2476 -0.8987 -0.0566
32915SOL    HW2 1188   1.891   9.008   6.736 -0.3894 -0.9055 -0.4749
32916SOL     OW 1189   7.992   3.338   2.694  0.3524  0.0324 -0.3283
32916SOL    HW1 1190   8.086   3.325   2.681  0.4781  0.3068  0.2969
32916SOL    HW2 1191   7.981   3.344   2.789 -0.2482  0.3822 -0.4152
32917SOL     OW 1192   8.717   3.828   0.974 -0.2031 -0.2339 -0.2881
32917SOL    HW1 1193   8.745   3.752   1.025  1.2540  0.1667 -0.4419
32917SOL    HW2 1194   8.751   3.904   1.021  1.4220  0.1324 -1.9171
32918SOL     OW 1195   8.051   2.440   2.285  0.2520 -0.3493 -0.0617
32918SOL    HW1 1196   8.126   2.473   2.235  0.8972  0.1147  1.1516
32918SOL    HW2 1197   7.975   2.485   2.247  0.6224 -0.5429 -1.0653
32919SOL     OW 1198  10.464   2.988   3.276 -0.0467 -0.1592 -0.3881
32919SOL    HW1 1199  10.514   2.910   3.300  0.8634  0.9292  1.4529
32919SOL    HW2 1200  10.477   3.048   3.349 -1.5926  1.3302 -1.2726
32920SOL     OW 1201   8.278   9.404   8.741 -0.3527 -0.4095  0.0062
32920SOL    HW1 1202   8.184   9.383   8.748 -0.1226 -0.9344  2.0843
32920SOL    HW2 1203   8.314   9.332   8.689 -1.1981  0.2616 -1.6099
32921SOL     OW 1204   6.749  10.235   9.038  0.4261 -0.1449  0.2853
32921SOL    HW1 1205   6.666  10.193   9.057  1.0236 -0.8781  1.4249
32921SOL    HW2 1206   6.815  10.166   9.052  1.3575  0.9084  1.3192
32922SOL     OW 1207   1.474   2.757   7.872  0.1734 -0.4169  0.2627
32922SOL    HW1 1208   1.552   2.788   7.918  1.0499 -2.0832 -0.0094
32922SOL    HW2 1209   1.456   2.671   7.910 -1.3203 -0.2356  0.0389
32923SOL     OW 1210   7.613   2.728   5.562 -0.2819 -0.0455  0.3061
32923SOL    HW1 1211   7.694   2.685   5.534 -0.3469 -0.3303  0.5596
32923SOL    HW2 1212   7.544   2.664   5.546 -0.3943  0.0068  0.5660
32924SOL     OW 1213   6.865   8.164   4.788 -0.3800 -0.6329  0.4484
32924SOL    HW1 1214   6.913   8.221   4.848 -1.6560  0.4888  0.4552
32924SOL    HW2 1215   6.929   8.143   4.719  0.5178 -0.3291  1.1650
32925SOL     OW 1216   9.547   4.869   8.950  0.9070 -0.7464  0.3019
32925SOL    HW1 1217   9.565   4.814   9.026  1.4651 -0.3997  0.4273
32925SOL    HW2 1218   9.495   4.813   8.892 -0.5798 -0.6197  1.4540
32926SOL     OW 1219   3.173   1.549   8.534 -0.1707 -0.0563  0.4279
32926SOL    HW1 1220   3.185   1.471   8.589  0.2824  0.2292  0.7396
32926SOL    HW2 1221   3.257   1.594   8.538 -0.1812  0.0506 -0.3765
32927SOL     OW 1222   9.720   9.626   6.422 -0.3675  0.2854 -0.2426
32927SOL    HW1 1223   9.656   9.684   6.381 -0.6052 -0.0941 -0.4077
32927SOL    HW2 1224   9.798   9.633   6.368 -0.8306 -0.5752 -1.0338
32928SOL     OW 1225   9.347   9.775   9.440  0.3787 -0.1869 -0.6108
32928SOL    HW1 1226   9.271   9.735   9.397 -0.1249  0.7317 -0.6183
32928SOL    HW2 1227   9.404   9.702   9.462 -1.0439 -1.0296  0.4583
32929SOL     OW 1228   4.405   2.025   8.397 -0.0360 -0.5381  0.7411
32929SOL    HW1 1229   4.376   1.939   8.428 -0.1496 -0.2029  1.5809
32929SOL    HW2 1230   4.351   2.042   8.320  0.5300 -1.5625  0.0853
32930SOL     OW 1231   6.052   6.656   7.621  0.1227  0.0746 -0.1608
32930SOL    HW1 1232   6.029   6.582   7.565 -1.9178  1.0196 -0.6308
32930SOL    HW2 1233   6.008   6.637   7.704 -0.6536  0.8905 -0.3792
32931SOL     OW 1234   1.748   7.174   1.574 -0.5262  0.1367 -0.7778
32931SOL    HW1 1235   1.684   7.236   1.607  2.4601  2.8582  0.3773
32931SOL    HW2 1236   1.760   7.199   1.482 -0.0362  0.6277 -0.5814
32932SOL     OW 1237   3.667   6.780   4.771  0.0393  0.8222 -0.4224
32932SOL    HW1 1238   3.693   6.694   4.736 -0.8260  0.2705  0.2399
32932SOL    HW2 1239   3.651   6.833   4.694  1.1320  0.5666 -0.8459
32933SOL     OW 1240   4.986   9.041   6.834 -0.3254  0.8785  0.1561
32933SOL    HW1 1241   4.903   9.038   6.883 -2.3184  1.4968 -2.9222
32933SOL    HW2 1242   5.053   9.036   6.902 -2.8149 -1.1506  2.7658
32934SOL     OW 1243   2.401   6.554   4.120 -0.3337  0.7216  0.1428
32934SOL    HW1 1244   2.342   6.536   4.193  0.3759  2.3149  1.1710
32934SOL    HW2 1245   2.358   6.515   4.044 -1.6864  0.0668  1.1971
32935SOL     OW 1246   7.992   7.108   9.953  0.0415  0.5064 -0.7167
32935SOL    HW1 1247   8.040   7.031   9.922 -0.6168  0.7518 -2.4877
32935SOL    HW2 1248   7.963   7.152   9.873 -4.2812 -0.3377  0.1163
32936SOL     OW 1249   6.137   8.701   0.023  0.1591  0.5930  0.5762
32936SOL    HW1 1250   6.123   8.642   0.097 -0.9205  0.6206  0.4035
32936SOL    HW2 1251   6.077   8.773   0.038  0.1960  0.7761 -0.1461
32937SOL     OW 1252   8.019   4.453   7.954 -0.1010  0.0734 -0.0322
32937SOL    HW1 1253   8.097   4.406   7.927  0.8763  0.8709  1.2719
32937SOL    HW2 1254   8.048   4.508   8.027 -1.4462  1.7717 -0.6990
32938SOL     OW 1255   9.901   8.938   0.741  0.4713  0.6020 -0.7545
32938SOL    HW1 1256   9.941   8.965   0.659 -0.3328 -0.9688 -1.7064
32938SOL    HW2 1257   9.842   8.867   0.717  1.6804 -1.2743  1.4444
32939SOL     OW 1258  10.391   6.051   0.288 -0.0469 -0.5039 -0.2102
32939SOL    HW1 1259  10.436   6.012   0.362  0.7309  0.2702 -0.2573
32939SOL    HW2 1260  10.311   6.000   0.278  0.6031 -1.6144  0.1581
32940SOL     OW 1261   5.161   9.488   1.134  0.0279  0.4084 -0.0284
32940SOL    HW1 1262   5.180   9.579   1.157  2.5863 -0.3354  1.0997
32940SOL    HW2 1263   5.117   9.452   1.211 -2.1266  0.9064 -0.9250
32941SOL     OW 1264   4.383   5.460   5.170  0.2346  0.1198  1.1640
32941SOL    HW1 1265   4.350   5.492   5.086 -0.5401 -0.3636  1.2705
32941SOL    HW2 1266   4.367   5.366   5.167  1.1383 -0.0492  1.4444
32942SOL     OW 1267   4.156   3.909   0.029  0.1183  0.1730 -0.3971
32942SOL    HW1 1268   4.157   3.993   0.075 -3.5130  0.0651  0.1528
32942SOL    HW2 1269   4.072   3.908  -0.018  0.3904 -2.8380 -1.0038
32943SOL     OW 1270   6.256   9.421   0.427  0.0204 -0.0910 -0.3804
32943SOL    HW1 1271   6.290   9.383   0.509 -0.9484 -0.4941 -0.1488
32943SOL    HW2 1272   6.196   9.354   0.393 -0.1150  0.3697 -1.0616
32944SOL     OW 1273   5.598   4.271   1.723 -0.6421  0.1363 -0.0345
32944SOL    HW1 1274   5.543   4.235   1.654 -0.0652 -0.5532 -0.1367
32944SOL    HW2 1275   5.548   4.257   1.803 -1.3718  1.0483 -0.3002
32945SOL     OW 1276   7.093   6.080   2.759 -0.9866 -0.1875 -0.2019
32945SOL    HW1 1277   7.032   6.091   2.832  1.4960  2.5305  1.6980
32945SOL    HW2 1278   7.158   6.018   2.792  0.5491  1.6089  0.2871
32946SOL     OW 1279   2.823   6.573   2.827  0.2836  0.3307  0.3595
32946SOL    HW1 1280   2.900   6.627   2.847 -0.0915  0.7503  0.6965
32946SOL    HW2 1281   2.750   6.634   2.827 -0.1595 -0.1816  0.7912
32947SOL     OW 1282   7.482  10.146   4.512 -0.0753  0.1394  0.1439
32947SOL    HW1 1283   7.486  10.242   4.518 -0.5858  0.3035 -1.7235
32947SOL    HW2 1284   7.573  10.118   4.518 -0.0214  0.5980  2.1791
32948SOL     OW 1285   4.529  10.429   7.285  0.2780  0.1355  0.3566
32948SOL    HW1 1286   4.462  10.398   7.346 -0.6662  0.4416 -0.5089
32948SOL    HW2 1287   4.481  10.471   7.214  1.2980 -1.0669 -1.1194
32949SOL     OW 1288   9.169   8.409   8.113 -0.0021 -0.3465 -0.5394
32949SOL    HW1 1289   9.169   8.444   8.202  0.9790 -1.1248 -0.2309
32949SOL    HW2 1290   9.219   8.328   8.118  1.3737  0.3604 -2.0993
32950SOL     OW 1291   6.370   2.964   2.421  0.3888 -0.2023 -0.2494
32950SOL    HW1 1292   6.409   2.890   2.467  1.2432  0.1312 -0.4330
32950SOL    HW2 1293   6.290   2.982   2.471  0.3773 -0.9866  0.0339
32951SOL     OW 1294   4.137   4.013   6.223 -0.4566 -0.0257  0.1460
32951SOL    HW1 1295   4.204   3.976   6.165 -1.6934 -0.1585 -1.2466
32951SOL    HW2 1296   4.078   4.060   6.164 -1.5946  0.0800  1.3506
32952SOL     OW 1297   3.211   7.525   1.864 -0.2720  0.2468  0.0411
32952SOL    HW1 1298   3.194   7.447   1.917 -0.8989  1.3127  1.4787
32952SOL    HW2 1299   3.169   7.508   1.780 -0.5564 -0.8703  0.4073
32953SOL     OW 1300   7.223   1.529   1.502 -0.3224  0.2898 -0.2828
32953SOL    HW1 1301   7.233   1.620   1.473  0.6072  0.9876  2.0344
32953SOL    HW2 1302   7.313   1.497   1.512 -0.6377 -0.5979 -0.1455
32954SOL     OW 1303   8.150   3.825   4.139 -0.1114 -0.0917  0.2843
32954SOL    HW1 1304   8.079   3.889   4.141 -1.4821 -1.5743  0.1265
32954SOL    HW2 1305   8.109   3.742   4.116  1.5062 -1.2027  1.1517
32955SOL     OW 1306   3.826   5.459   9.084  0.0156 -0.0020  0.0507
32955SOL    HW1 1307   3.779   5.384   9.048 -1.2395  1.0872 -0.6526
32955SOL    HW2 1308   3.853   5.510   9.008  0.3720  0.5613  0.5377
32956SOL     OW 1309   1.226   2.989   5.075 -0.2316  0.0817 -0.1963
32956SOL    HW1 1310   1.289   3.044   5.028  0.6167 -1.3035 -0.7863
32956SOL    HW2 1311   1.243   3.007   5.168  0.5724  0.2362 -0.3641
32957SOL     OW 1312   1.612   3.457   8.488  0.2748  0.7259 -0.0922
32957SOL    HW1 1313   1.685   3.511   8.519 -0.1823  2.1674 -1.3835
32957SOL    HW2 1314   1.617   3.377   8.541  0.6131  2.2708  2.3764
32958SOL     OW 1315   7.343   4.300   6.365 -0.1946  0.5502  0.0776
32958SOL    HW1 1316   7.309   4.323   6.279 -2.8698  0.3626  1.0082
32958SOL    HW2 1317   7.420   4.356   6.376  0.3866  0.3751 -2.5019
32959SOL     OW 1318   0.332   7.440   5.315  0.1030  0.1470 -0.1674
32959SOL    HW1 1319   0.338   7.448   5.410 -1.3670  0.2489 -0.0573
32959SOL    HW2 1320   0.398   7.500   5.281 -0.5928  1.4864  0.7734
32960SOL     OW 1321   6.733   7.673   0.516 -0.0698  0.0931  0.2396
32960SOL    HW1 1322   6.653   7.681   0.568 -0.6254  1.2066 -0.7252
32960SOL    HW2 1323   6.715   7.601   0.455  0.2281 -0.6038  0.9658
32961SOL     OW 1324   6.355   0.325  10.438 -0.1127  0.3737  0.3609
32961SOL    HW1 1325   6.441   0.362  10.418 -0.2004  0.5978  0.3891
32961SOL    HW2 1326   6.313   0.392  10.493  0.9346 -1.1052  3.1774
32962SOL     OW 1327   7.790   8.536   9.971  0.0153  0.2087 -0.1095
32962SOL    HW1 1328   7.836   8.605  10.019 -3.2873  2.2288  0.4767
32962SOL    HW2 1329   7.770   8.577   9.886  0.0594 -0.9327 -0.6844
32963SOL     OW 1330   7.258   5.743   2.979  0.8373 -0.2388 -0.0037
32963SOL    HW1 1331   7.319   5.677   3.011  0.5431 -0.6090 -0.1953
32963SOL    HW2 1332   7.235   5.794   3.056 -0.5839 -1.6946  0.5946
32964SOL     OW 1333   6.440   3.287   5.210 -0.0430  0.2019  0.0537
32964SOL    HW1 1334   6.397   3.334   5.281 -1.1048  1.3221 -1.2835
32964SOL    HW2 1335   6.401   3.200   5.212 -0.3465  0.3473  0.5923
32965SOL     OW 1336   4.257   5.666   6.545  0.3034 -0.3817  0.2357
32965SOL    HW1 1337   4.198   5.635   6.476  1.3366 -1.9903  0.0420
32965SOL    HW2 1338   4.241   5.607   6.618 -0.6842  1.2297  1.3732
32966SOL     OW 1339   7.019   6.055  10.164 -0.3238 -0.0038  0.2195
32966SOL    HW1 1340   6.980   5.985  10.217 -1.7380  0.0617 -0.6767
32966SOL    HW2 1341   6.972   6.134  10.190 -0.3315  0.2058 -0.4203
32967SOL     OW 1342   1.305   1.091   6.565  0.5659 -0.0618  0.0844
32967SOL    HW1 1343   1.233   1.138   6.524  0.7140  0.0418 -0.0586
32967SOL    HW2 1344   1.271   1.003   6.581 -0.8696  0.9279  3.3865
32968SOL     OW 1345   6.272   9.876  10.243  0.0228 -0.9349 -0.2668
32968SOL    HW1 1346   6.294   9.924  10.164  1.1283 -1.5174 -0.3341
32968SOL    HW2 1347   6.305   9.787  10.228  0.1096 -1.1004  0.7727
32969SOL     OW 1348   4.752   6.403   9.423  1.5103 -0.3752 -0.0955
32969SOL    HW1 1349   4.835   6.450   9.412  0.8922  0.6502 -0.5246
32969SOL    HW2 1350   4.731   6.413   9.515  0.6056  1.6019 -0.4626
32970SOL     OW 1351   4.837   0.844  10.315 -0.4528  0.3421 -0.1686
32970SOL    HW1 1352   4.918   0.811  10.353  0.4949  2.7449  0.0870
32970SOL    HW2 1353   4.769   0.818  10.377  0.4127 -0.0122  0.6482
32971SOL     OW 1354   4.830   2.012   8.204  0.3294 -0.1167  0.5702
32971SOL    HW1 1355   4.761   1.948   8.224 -1.7257  1.7217 -0.1939
32971SOL    HW2 1356   4.848   2.054   8.288  0.4339 -0.5360  0.7580
32972SOL     OW 1357   7.370   2.890   8.078  0.1260 -0.4104 -0.2814
32972SOL    HW1 1358   7.301   2.912   8.015 -0.1276  0.1804  0.1915
32972SOL    HW2 1359   7.423   2.969   8.084  0.4577 -0.6432 -0.1449
32973SOL     OW 1360   8.413   2.323   2.458 -0.0132  0.3706  0.1155
32973SOL    HW1 1361   8.424   2.263   2.532  0.3232  1.0556  0.6366
32973SOL    HW2 1362   8.412   2.267   2.381 -0.7121 -0.3829  0.6673
32974SOL     OW 1363  10.309   3.243   7.604 -0.0688 -0.3439  0.3097
32974SOL    HW1 1364  10.404   3.242   7.607 -0.0481 -0.5896 -0.3343
32974SOL    HW2 1365  10.287   3.254   7.512 -0.6655  0.3660  0.5219
32975SOL     OW 1366   5.115  10.035   6.425 -0.0308 -0.1916 -0.3297
32975SOL    HW1 1367   5.204  10.004   6.439 -0.4799 -0.4359  2.7211
32975SOL    HW2 1368   5.078   9.973   6.362  1.8568 -0.1447 -1.5646
32976SOL     OW 1369   6.019   1.973   6.879  0.0648  0.3310  0.1185
32976SOL    HW1 1370   5.927   1.946   6.874 -0.0670  0.7734  0.1202
32976SOL    HW2 1371   6.019   2.049   6.937  0.3998  0.4806 -0.0701
32977SOL     OW 1372   9.500   0.625   0.507 -0.2880 -0.3458 -0.2489
32977SOL    HW1 1373   9.491   0.597   0.415  0.7389  3.2025 -1.5997
32977SOL    HW2 1374   9.594   0.640   0.518 -0.6381  1.4871  0.5762
32978SOL     OW 1375   3.831   5.504   5.562  0.4320 -0.1216 -0.1888
32978SOL    HW1 1376   3.807   5.582   5.612 -1.3627 -0.2763 -0.7732
32978SOL    HW2 1377   3.897   5.461   5.617  0.3523  1.0170  0.8505
32979SOL     OW 1378  10.167   4.195   8.310 -0.5914 -0.3159 -0.3739
32979SOL    HW1 1379  10.215   4.148   8.242 -0.3271  0.0621 -0.4503
32979SOL    HW2 1380  10.077   4.199   8.278 -0.3496  0.3766 -0.9738
32980SOL     OW 1381   8.702   2.278   3.567 -0.3714 -0.3029  0.0313
32980SOL    HW1 1382   8.608   2.291   3.576 -0.7981 -2.5000 -0.6979
32980SOL    HW2 1383   8.714   2.244   3.478  1.2433  0.7733 -0.2233
32981SOL     OW 1384   7.690   7.449   9.860  1.0148  0.1248 -0.0309
32981SOL    HW1 1385   7.719   7.536   9.832  1.4710 -0.1603 -0.4538
32981SOL    HW2 1386   7.758   7.390   9.829  1.6468 -0.2012  1.8558
32982SOL     OW 1387   2.626   5.108   9.526  0.4908 -0.1942 -0.1928
32982SOL    HW1 1388   2.594   5.190   9.489 -0.5351 -0.3864  0.2442
32982SOL    HW2 1389   2.557   5.081   9.587  1.0207 -1.1531 -0.0120
32983SOL     OW 1390   9.732   9.606   1.120  0.7533 -0.0592 -0.0252
32983SOL    HW1 1391   9.655   9.661   1.100 -0.0982 -1.1464  0.1942
32983SOL    HW2 1392   9.703   9.551   1.192  1.7459 -0.5069  0.0306
32984SOL     OW 1393   9.927   8.712  10.393 -0.0617  0.8051  0.2872
32984SOL    HW1 1394   9.911   8.699  10.299  1.8474  1.6974 -0.2123
32984SOL    HW2 1395   9.991   8.644  10.415 -0.1873  0.8705  0.8500
32985SOL     OW 1396   9.152   3.430   0.943  0.2310 -0.3741  0.1663
32985SOL    HW1 1397   9.128   3.522   0.950  0.8604 -0.2278  0.4759
32985SOL    HW2 1398   9.248   3.430   0.943  0.2424 -0.9465 -0.9306
32986SOL     OW 1399   9.770   3.696   0.143 -0.1197  0.0184 -0.5417
32986SOL    HW1 1400   9.741   3.745   0.066 -0.8025 -0.9834 -0.9498
32986SOL    HW2 1401   9.776   3.605   0.113 -1.1964 -0.5309  0.7656
32987SOL     OW 1402   3.234   5.803   3.501  0.0835  0.2093 -0.1793
32987SOL    HW1 1403   3.264   5.856   3.575 -0.1705  0.1894 -0.0580
32987SOL    HW2 1404   3.156   5.758   3.534  1.8248 -2.3949  0.6147
32988SOL     OW 1405   9.456   6.257   9.294  0.1954 -0.3767 -0.6540
32988SOL    HW1 1406   9.373   6.284   9.334  0.3559  0.7033 -1.0235
32988SOL    HW2 1407   9.441   6.266   9.200  0.6747 -0.3641 -0.7323
32989SOL     OW 1408   5.358   4.414   0.639  0.2220 -0.5167  0.6733
32989SOL    HW1 1409   5.384   4.496   0.680  0.0964  0.0853 -0.4012
32989SOL    HW2 1410   5.263   4.411   0.648  0.2556 -0.6788  0.9609
32990SOL     OW 1411   8.008   9.429   4.644  0.0515  0.0356 -0.2542
32990SOL    HW1 1412   7.924   9.431   4.690  0.2474 -0.7451  0.1555
32990SOL    HW2 1413   8.041   9.518   4.650  0.4804 -0.2264  1.9163
32991SOL     OW 1414   0.255   5.990   5.936  0.1521  0.1899  0.1296
32991SOL    HW1 1415   0.232   5.906   5.974 -0.2224  0.2940  0.1433
32991SOL    HW2 1416   0.258   5.974   5.841  0.1656  0.1417  0.1385
32992SOL     OW 1417   7.541   8.065   9.084 -0.1873  0.1222  0.6629
32992SOL    HW1 1418   7.618   8.013   9.109  0.2415  0.5102  0.1712
32992SOL    HW2 1419   7.575   8.154   9.074 -0.8169  0.4022  0.9913
32993SOL     OW 1420   2.465   3.319   4.702 -0.4058  0.4308  0.2042
32993SOL    HW1 1421   2.386   3.369   4.683 -0.0146  0.7720 -0.5921
32993SOL    HW2 1422   2.434   3.239   4.743 -1.1300  0.7707  0.3285
32994SOL     OW 1423   0.288   7.896   7.966 -0.4682  0.3135  0.3499
32994SOL    HW1 1424   0.246   7.933   8.044  0.2646 -1.7713  1.8205
32994SOL    HW2 1425   0.263   7.804   7.967  1.3017 -0.2264 -0.6678
32995SOL     OW 1426   6.823   9.652   0.267 -0.2513  0.6146  0.1098
32995SOL    HW1 1427   6.854   9.609   0.187  0.0826  0.8055  0.1335
32995SOL    HW2 1428   6.799   9.580   0.325  1.5335  0.3928  0.6502
32996SOL     OW 1429   3.310   0.808   8.314  0.2842 -0.1492 -0.9447
32996SOL    HW1 1430   3.243   0.755   8.272 -0.4579 -0.8654  1.0416
32996SOL    HW2 1431   3.269   0.894   8.326 -0.4620 -0.6821  0.5730
32997SOL     OW 1432   2.141   0.246   3.297  0.6363 -0.1776 -0.6771
32997SOL    HW1 1433   2.204   0.195   3.348 -2.2095 -2.9564  0.3027
32997SOL    HW2 1434   2.130   0.197   3.216 -0.0763  0.4085 -0.9442
32998SOL     OW 1435   4.765   0.889   7.411 -0.1637  0.2989  0.3244
32998SOL    HW1 1436   4.753   0.795   7.423 -0.0445  0.3117  0.5465
32998SOL    HW2 1437   4.736   0.927   7.494  1.9623  0.2978  1.1143
32999SOL     OW 1438   1.605   5.522   6.086 -0.1101 -0.0359 -0.4545
32999SOL    HW1 1439   1.527   5.578   6.081 -1.6008 -1.8497  1.0045
32999SOL    HW2 1440   1.659   5.563   6.154 -0.3971  0.5010 -0.5384
33000SOL     OW 1441   0.301   5.566   6.985 -0.0551 -0.4456  0.4061
33000SOL    HW1 1442   0.294   5.633   7.053  1.9604 -1.6047  1.8736
33000SOL    HW2 1443   0.331   5.613   6.907 -2.7686  0.9679  0.0787
33001SOL     OW 1444   2.518   3.231   2.582  0.2146  0.1064  0.3735
33001SOL    HW1 1445   2.508   3.251   2.675 -2.0157 -2.3087  0.7898
33001SOL    HW2 1446   2.562   3.146   2.580  0.8371  0.4330 -0.8088
33002SOL     OW 1447   6.371   6.325   7.759 -0.1776  0.1332 -0.3402
33002SOL    HW1 1448   6.286   6.281   7.753 -0.2741 -0.0882  1.7805
33002SOL    HW2 1449   6.350   6.418   7.752 -0.3084  0.0187 -1.9287
33003SOL     OW 1450   7.137   7.924   5.820 -0.6107  0.5056 -0.4115
33003SOL    HW1 1451   7.183   7.990   5.769 -3.2586  3.1864  0.4109
33003SOL    HW2 1452   7.165   7.939   5.911 -1.1146  0.4152 -0.2365
33004SOL     OW 1453   5.398   1.407   2.852 -0.5735 -0.2594 -0.0377
33004SOL    HW1 1454   5.363   1.477   2.908 -0.9536  0.5675 -1.2597
33004SOL    HW2 1455   5.354   1.420   2.768  1.2202 -0.4114 -1.0493
33005SOL     OW 1456   3.856   9.791   0.926 -0.3654 -0.4639 -0.4356
33005SOL    HW1 1457   3.930   9.832   0.971 -0.9241 -0.8564  0.8892
33005SOL    HW2 1458   3.888   9.703   0.904 -0.1533 -0.3427 -0.6065
33006SOL     OW 1459   2.664   4.701   0.643 -0.2426  0.6885 -0.5592
33006SOL    HW1 1460   2.651   4.794   0.621  1.9232  1.9276  2.5985
33006SOL    HW2 1461   2.728   4.670   0.579 -0.0113  1.7701 -0.8782
33007SOL     OW 1462   4.516   9.631   7.084 -0.3776 -0.1840  0.7233
33007SOL    HW1 1463   4.426   9.664   7.097  0.1185  1.6686 -0.1786
33007SOL    HW2 1464   4.530   9.635   6.990  0.4079 -1.2070  0.7838
33008SOL     OW 1465   6.545   9.844   1.169  0.1718 -0.2035  0.7309
33008SOL    HW1 1466   6.495   9.837   1.250 -0.9856  1.0737  0.1603
33008SOL    HW2 1467   6.582   9.757   1.156  0.9414 -0.2690  2.9621
33009SOL     OW 1468   8.755   2.917   9.251 -0.3682  0.0552 -0.3191
33009SOL    HW1 1469   8.763   2.868   9.333 -0.5860 -0.6378 -0.7076
33009SOL    HW2 1470   8.757   2.850   9.183 -1.6681  0.4893 -0.8098
33010SOL     OW 1471   0.174   1.099   0.161 -0.2477 -0.1757  0.0434
33010SOL    HW1 1472   0.095   1.060   0.200 -0.3719 -0.6149 -0.6233
33010SOL    HW2 1473   0.203   1.033   0.097  0.1598  0.3640 -0.3317
33011SOL     OW 1474   2.170   4.553   2.364  0.5476  0.4959  0.2568
33011SOL    HW1 1475   2.112   4.586   2.432 -0.4964 -2.3460  0.9077
33011SOL    HW2 1476   2.112   4.504   2.305  2.0068 -0.7512 -0.1973
33012SOL     OW 1477   0.650   1.238   9.263 -0.4840  0.2997 -0.4343
33012SOL    HW1 1478   0.641   1.213   9.171 -3.3460  1.1119 -0.4690
33012SOL    HW2 1479   0.663   1.333   9.260 -0.2935  0.2895  0.0074
33013SOL     OW 1480   7.211   2.601   5.927 -0.5292  0.0446  0.0195
33013SOL    HW1 1481   7.201   2.519   5.878  0.7705  0.3892 -0.8706
33013SOL    HW2 1482   7.247   2.574   6.012  0.7787 -0.2517 -0.6030
33014SOL     OW 1483   4.455   5.614   7.265  0.1744  0.3958  0.5828
33014SOL    HW1 1484   4.387   5.606   7.333 -1.3030 -0.9188 -0.9451
33014SOL    HW2 1485   4.444   5.703   7.231 -0.4203  0.3893  0.7367
33015SOL     OW 1486   2.792   1.768   6.116 -0.2708 -0.0755  0.0859
33015SOL    HW1 1487   2.758   1.798   6.201 -0.4461  1.4935 -0.5045
33015SOL    HW2 1488   2.714   1.747   6.065 -0.1619 -1.1078  0.3181
33016SOL     OW 1489   4.162   8.666   3.591 -0.2663 -0.1346  0.0511
33016SOL    HW1 1490   4.176   8.709   3.506  1.4477 -1.3029 -0.3126
33016SOL    HW2 1491   4.202   8.725   3.655 -0.9061  0.3968 -0.0305
33017SOL     OW 1492   7.348   7.937   6.650 -0.1296  0.0471  0.3430
33017SOL    HW1 1493   7.283   8.004   6.671  0.0851 -0.2889  2.1744
33017SOL    HW2 1494   7.296   7.862   6.620 -0.4603  0.4081 -0.0059
33018SOL     OW 1495   3.791   9.718   1.877  0.0166 -0.0059 -0.3245
33018SOL    HW1 1496   3.813   9.804   1.842 -2.1414  0.5005 -0.5324
33018SOL    HW2 1497   3.812   9.724   1.970 -0.4759  0.8903 -0.2602
33019SOL     OW 1498   0.399   0.491   8.316 -0.3460 -0.2533  0.4741
33019SOL    HW1 1499   0.371   0.459   8.402  1.5921  0.1954  1.3339
33019SOL    HW2 1500   0.395   0.414   8.259 -1.4647 -0.6038  0.9946
33020SOL     OW 1501   4.019   6.041   9.974 -0.2008  0.0820  0.3558
33020SOL    HW1 1502   4.010   5.993   9.892 -0.6496 -0.0221  0.4608
33020SOL    HW2 1503   4.086   6.106   9.956  0.7150 -0.8430  0.3404
33021SOL     OW 1504   5.491   7.878   1.549 -0.3058 -0.1520 -0.1303
33021SOL    HW1 1505   5.563   7.816   1.539 -0.2360  0.0276 -0.7746
33021SOL    HW2 1506   5.450   7.883   1.462 -1.5179 -0.7504  0.3754
33022SOL     OW 1507   0.510   5.327   1.148 -0.8416  0.0186 -0.0258
33022SOL    HW1 1508   0.466   5.358   1.069 -2.1793  1.8789  1.3536
33022SOL    HW2 1509   0.595   5.295   1.117 -0.9927  1.4234 -2.1205
33023SOL     OW 1510   0.389  10.151   5.112 -0.0724 -0.2752 -0.0341
33023SOL    HW1 1511   0.406  10.232   5.159 -1.7345 -1.1465  2.2650
33023SOL    HW2 1512   0.429  10.083   5.167 -1.1643 -1.2498 -0.3911
33024SOL     OW 1513   3.969   9.330   3.377 -0.1421 -0.4872 -0.2043
33024SOL    HW1 1514   3.986   9.264   3.311 -0.9178  0.2795 -1.1943
33024SOL    HW2 1515   4.049   9.382   3.381  0.5790 -1.6406  0.7914
33025SOL     OW 1516   3.189   6.633   1.572 -0.2956 -0.1611  0.3394
33025SOL    HW1 1517   3.130   6.663   1.641 -0.8634  0.1499 -0.2720
33025SOL    HW2 1518   3.269   6.685   1.585 -0.3064 -0.2699  0.8958
33026SOL     OW 1519   9.651   4.060   6.272 -0.0589 -0.9702 -0.6322
33026SOL    HW1 1520   9.600   4.109   6.337 -2.5622 -2.1417 -1.5742
33026SOL    HW2 1521   9.730   4.112   6.260 -0.4141  0.3102  1.8658
33027SOL     OW 1522   2.696   3.152   0.099 -0.3959  0.0353  0.1534
33027SOL    HW1 1523   2.783   3.161   0.139 -0.2894 -0.4052  0.0253
33027SOL    HW2 1524   2.639   3.209   0.151 -0.0612  0.2143  0.3268
33028SOL     OW 1525   3.459   0.745   1.521 -0.4429  0.3343  0.0594
33028SOL    HW1 1526   3.458   0.840   1.532 -0.1288  0.2217  1.2674
33028SOL    HW2 1527   3.404   0.712   1.593  0.5392 -0.4566  0.4747
33029SOL     OW 1528   5.722   7.386   6.645 -0.0827 -0.2895 -0.7080
33029SOL    HW1 1529   5.686   7.431   6.721 -1.2894 -2.7898  0.3486
33029SOL    HW2 1530   5.681   7.429   6.570 -1.0854  0.4249  0.2138
33030SOL     OW 1531   1.969   4.355   9.354 -0.4169 -0.6612  0.3200
33030SOL    HW1 1532   2.048   4.353   9.300  0.1390  0.6127  1.0258
33030SOL    HW2 1533   1.940   4.264   9.360 -0.0218 -0.9233 -1.4151
33031SOL     OW 1534   2.269   5.051   6.936  0.3020  0.6099  0.3653
33031SOL    HW1 1535   2.294   4.980   6.994  0.2361 -1.0749 -1.5540
33031SOL    HW2 1536   2.339   5.115   6.945  0.2611  0.4417  2.2872
33032SOL     OW 1537   0.200   9.393   0.777  0.6089  0.1862 -0.0722
33032SOL    HW1 1538   0.178   9.399   0.870  1.9138 -0.6927  0.3301
33032SOL    HW2 1539   0.221   9.483   0.751  1.5305  0.2549  0.8489
33033SOL     OW 1540   7.488   5.348   5.290 -0.4673 -0.2826 -0.0200
33033SOL    HW1 1541   7.463   5.271   5.342 -0.9113  0.3957  0.8076
33033SOL    HW2 1542   7.574   5.373   5.324 -1.2274  0.8194  1.2272
33034SOL     OW 1543   2.461   8.705   6.124 -0.6746  0.4845 -0.2156
33034SOL    HW1 1544   2.464   8.793   6.086 -1.2626  0.7472  0.3201
33034SOL    HW2 1545   2.517   8.710   6.201 -0.3760  0.2726 -0.4211
33035SOL     OW 1546   5.411   9.111   3.138  0.3504 -0.3002  0.2117
33035SOL    HW1 1547   5.492   9.146   3.100 -0.7950  1.4751 -0.7586
33035SOL    HW2 1548   5.341   9.152   3.086 -1.1825 -1.1945  1.4967
33036SOL     OW 1549   0.814   0.442   5.157 -0.2755 -0.8031 -0.0979
33036SOL    HW1 1550   0.847   0.364   5.113  0.3811 -0.8042  0.3789
33036SOL    HW2 1551   0.806   0.416   5.248  0.3345 -0.2013  0.1353
33037SOL     OW 1552   8.787   8.617   6.105 -0.1102  0.2369 -0.1450
33037SOL    HW1 1553   8.812   8.564   6.180  0.0007  0.9219  0.3132
33037SOL    HW2 1554   8.832   8.577   6.030  0.7055  0.2298  0.3388
33038SOL     OW 1555   0.534   0.409  10.114  0.1152 -0.4061 -0.3623
33038SOL    HW1 1556   0.613   0.426  10.165 -0.8851 -0.9723  1.4657
33038SOL    HW2 1557   0.548   0.321  10.077  1.1434  0.2947 -1.7102
33039SOL     OW 1558   9.430   9.452   5.117 -0.4222 -0.5054  0.4290
33039SOL    HW1 1559   9.373   9.416   5.050 -0.2626 -1.2485  0.6844
33039SOL    HW2 1560   9.379   9.522   5.157 -1.0059 -0.9028  0.3901
33040SOL     OW 1561   3.759   4.031   0.044  0.1681 -0.1310  0.1449
33040SOL    HW1 1562   3.844   4.000   0.012  0.8806  1.5604  0.3064
33040SOL    HW2 1563   3.776   4.120   0.075 -2.2404  1.3331 -2.3629
33041SOL     OW 1564   9.366   8.964   8.265 -0.0207  0.1031 -0.1830
33041SOL    HW1 1565   9.310   8.989   8.191  0.6158  0.0293 -0.6985
33041SOL    HW2 1566   9.372   8.869   8.259  0.4844  0.1442 -0.3749
33042SOL     OW 1567   5.718   4.287   4.375  0.3357  1.0001  0.6448
33042SOL    HW1 1568   5.642   4.285   4.432  1.2474 -0.0952  1.9050
33042SOL    HW2 1569   5.691   4.236   4.298 -0.2032  0.5874  1.0929
33043SOL     OW 1570   8.383   7.938   0.714 -0.5219  0.2292  0.5206
33043SOL    HW1 1571   8.308   7.916   0.658  0.7718  0.4719 -1.3617
33043SOL    HW2 1572   8.371   8.031   0.735  1.1012  1.3935 -2.9401
33044SOL     OW 1573   2.523  10.106   6.231 -0.1323 -0.4686  0.4826
33044SOL    HW1 1574   2.463  10.078   6.300  0.2622 -0.1552  0.9621
33044SOL    HW2 1575   2.466  10.136   6.160 -0.5682 -2.5009 -0.0823
33045SOL     OW 1576   0.227   9.555   7.322 -0.0544 -0.3612 -0.6154
33045SOL    HW1 1577   0.192   9.565   7.234 -1.0639 -2.5096 -0.5213
33045SOL    HW2 1578   0.272   9.470   7.321  1.2783  0.2895  0.5316
33046SOL     OW 1579   4.947   1.422   9.020 -0.2979  0.1354 -0.4109
33046SOL    HW1 1580   4.861   1.463   9.013 -0.6838 -0.1928  1.6622
33046SOL    HW2 1581   5.005   1.479   8.971 -1.4884  1.0356 -0.8254
33047SOL     OW 1582   6.567   0.470   5.960 -0.7011  0.1182 -0.1636
33047SOL    HW1 1583   6.552   0.414   5.884 -0.2058 -0.8997  0.4594
33047SOL    HW2 1584   6.479   0.492   5.991 -0.9196 -0.7557 -0.1213
33048SOL     OW 1585   3.510   7.470   5.230  0.7207  0.4492  0.2425
33048SOL    HW1 1586   3.563   7.486   5.308 -0.0854 -2.2359  1.4765
33048SOL    HW2 1587   3.574   7.454   5.161  1.4869  0.9788  0.8119
33049SOL     OW 1588   6.264   6.340   3.335 -0.1619  0.5001  0.0092
33049SOL    HW1 1589   6.241   6.412   3.276 -1.6313 -0.2420 -0.3977
33049SOL    HW2 1590   6.242   6.261   3.286  3.3674 -0.3992 -0.3935
33050SOL     OW 1591   2.586   5.680   7.544 -0.3286 -0.2545  0.0817
33050SOL    HW1 1592   2.574   5.596   7.587 -0.1279  0.0002  0.6403
33050SOL    HW2 1593   2.552   5.744   7.607  1.1679  0.2329  0.4233
33051SOL     OW 1594   3.472   7.595   6.763  0.2739 -0.2668  0.6284
33051SOL    HW1 1595   3.563   7.623   6.777 -0.0480  1.5351 -0.5750
33051SOL    HW2 1596   3.423   7.676   6.753 -1.3611 -1.2276  0.5188
33052SOL     OW 1597   1.164   5.208   0.637  0.2220  0.0506 -0.2394
33052SOL    HW1 1598   1.236   5.217   0.700 -0.6611 -1.0399  0.9856
33052SOL    HW2 1599   1.105   5.280   0.657  0.2595  0.0842 -0.2508
33053SOL     OW 1600   8.630   3.777   7.729  0.1879 -0.3253  0.0788
33053SOL    HW1 1601   8.690   3.849   7.707  1.7938 -1.4017  0.7213
33053SOL    HW2 1602   8.573   3.813   7.796  0.2194  0.6887 -0.4162
33054SOL     OW 1603   5.307   1.916   8.239  0.1500 -0.4507 -0.4345
33054SOL    HW1 1604   5.218   1.906   8.206  0.4679 -1.0603 -1.1331
33054SOL    HW2 1605   5.362   1.868   8.176  0.8577 -0.9576  0.5513
33055SOL     OW 1606   9.373   4.237   6.158  0.2740  0.2297 -0.4057
33055SOL    HW1 1607   9.327   4.202   6.234 -0.7836  1.4660 -0.4401
33055SOL    HW2 1608   9.458   4.264   6.192  0.9685 -1.9285 -0.3005
33056SOL     OW 1609   6.706  10.094  10.296 -0.3508 -0.1056 -0.7405
33056SOL    HW1 1610   6.754  10.026  10.248  0.0651 -0.1366 -0.2885
33056SOL    HW2 1611   6.768  10.167  10.302 -1.1512  0.7364 -2.1552
33057SOL     OW 1612   3.135   5.851   0.112  0.7417  0.2667 -0.1671
33057SOL    HW1 1613   3.098   5.768   0.142  1.4644  0.5766  1.7412
33057SOL    HW2 1614   3.229   5.842   0.128  1.3316  0.1949 -3.1722
33058SOL     OW 1615   8.130   0.683   3.122 -0.4614 -0.2813  0.2531
33058SOL    HW1 1616   8.170   0.608   3.077  1.3863 -0.2702  1.7312
33058SOL    HW2 1617   8.147   0.758   3.065 -0.6617 -0.6888 -0.3510
33059SOL     OW 1618   8.556   2.562   0.996  0.0799 -0.2119  0.5311
33059SOL    HW1 1619   8.505   2.558   0.916 -1.3118 -0.6751  1.3985
33059SOL    HW2 1620   8.638   2.518   0.975  0.1741  0.6071 -0.9177
33060SOL     OW 1621   3.617   9.089   6.837  0.4559 -0.4231 -0.5525
33060SOL    HW1 1622   3.613   9.011   6.781 -0.9570 -0.5553 -0.2831
33060SOL    HW2 1623   3.534   9.089   6.884 -0.4300  2.2952 -1.9338
33061SOL     OW 1624   5.207   5.615   2.685  0.1614 -0.6035 -0.2877
33061SOL    HW1 1625   5.254   5.617   2.769  0.4882 -1.4882 -0.4377
33061SOL    HW2 1626   5.119   5.585   2.708 -0.2826  0.8039 -0.0426
33062SOL     OW 1627   1.049   5.910   0.552  0.5723  0.1644  0.5550
33062SOL    HW1 1628   1.064   5.919   0.458  0.3899 -0.4695  0.4615
33062SOL    HW2 1629   0.954   5.912   0.563  0.5512 -0.6209  0.6218
33063SOL     OW 1630   0.568   9.859  10.178 -0.0156  0.1663  0.0991
33063SOL    HW1 1631   0.594   9.774  10.212 -0.8271  0.0399  0.4229
33063SOL    HW2 1632   0.473   9.863  10.191  0.0563  1.2685  0.4414
33064SOL     OW 1633   6.842   8.401   9.890 -0.2012 -0.2999  0.3754
33064SOL    HW1 1634   6.793   8.321   9.871  1.7416 -1.1391 -1.5261
33064SOL    HW2 1635   6.780   8.471   9.871 -0.7759 -1.3047 -1.8191
33065SOL     OW 1636   6.631   4.291   3.067 -0.3291 -0.5731  0.3536
33065SOL    HW1 1637   6.566   4.237   3.022 -1.5678  0.5851  0.6857
33065SOL    HW2 1638   6.687   4.325   2.996 -1.7043  0.5043 -0.2719
33066SOL     OW 1639   4.882   0.144   0.813  0.0187 -0.4824 -0.3497
33066SOL    HW1 1640   4.926   0.224   0.842 -0.6010 -1.2212  3.0150
33066SOL    HW2 1641   4.798   0.145   0.859 -0.0491 -2.9865 -0.2880
33067SOL     OW 1642   2.236   3.202   5.114 -0.2473 -0.0455  0.0326
33067SOL    HW1 1643   2.209   3.166   5.029 -1.5953  0.1653  0.3448
33067SOL    HW2 1644   2.183   3.155   5.178 -0.4577  0.9654  0.6233
33068SOL     OW 1645   2.281   8.921   2.861 -0.2239  0.6453  0.0438
33068SOL    HW1 1646   2.310   8.996   2.809  1.9137 -0.1259  0.0392
33068SOL    HW2 1647   2.352   8.857   2.854 -1.8668 -1.3338  0.2255
33069SOL     OW 1648   7.628   0.136   5.568  0.0803 -0.4116  0.2405
33069SOL    HW1 1649   7.707   0.082   5.560  0.5792  0.2699  0.3563
33069SOL    HW2 1650   7.631   0.169   5.658 -0.9582 -1.2857  0.6099
33070SOL     OW 1651   0.869   1.013   6.720 -0.3178 -0.0219 -0.1850
33070SOL    HW1 1652   0.823   0.931   6.734  0.0921 -0.2048  0.1135
33070SOL    HW2 1653   0.927   1.022   6.797  1.6621 -0.8267 -1.5051
33071SOL     OW 1654   4.718   7.688   7.187 -0.4340 -0.5156 -0.4397
33071SOL    HW1 1655   4.780   7.758   7.168  0.1982 -0.9506 -0.0245
33071SOL    HW2 1656   4.632   7.726   7.169 -0.4249  1.5027  2.9501
33072SOL     OW 1657   2.963   2.956   3.915  0.5095 -0.4407  0.4795
33072SOL    HW1 1658   2.967   3.037   3.865  0.2334 -0.0765  1.0396
33072SOL    HW2 1659   3.042   2.908   3.889  1.9908  1.0741  1.9362
33073SOL     OW 1660   1.176   6.916   4.526  0.1563 -0.7006 -0.2236
33073SOL    HW1 1661   1.149   6.874   4.607 -0.3247  0.3250  0.1736
33073SOL    HW2 1662   1.177   6.846   4.461  2.3732 -1.9313  1.0283
33074SOL     OW 1663   4.167   7.821   7.824  0.2292 -0.3034  0.2588
33074SOL    HW1 1664   4.123   7.867   7.753 -1.8526 -0.2014  1.5127
33074SOL    HW2 1665   4.240   7.777   7.783  0.8345  2.0815 -1.4252
33075SOL     OW 1666   3.057   2.925   7.684  0.3865  0.7171 -0.6212
33075SOL    HW1 1667   3.151   2.925   7.666  0.7365  0.6517  1.0147
33075SOL    HW2 1668   3.040   2.837   7.718 -0.3281  0.6494 -1.1368
33076SOL     OW 1669   7.105   9.303   4.730  0.4734  0.0440 -0.1295
33076SOL    HW1 1670   7.153   9.381   4.760 -0.1685 -0.1312  1.4736
33076SOL    HW2 1671   7.158   9.229   4.760  0.1084 -0.1358  0.0802
33077SOL     OW 1672   0.621   2.957   5.126 -0.3401 -0.1724 -0.2197
33077SOL    HW1 1673   0.599   3.041   5.166  1.1308 -1.3418  3.4684
33077SOL    HW2 1674   0.537   2.913   5.115 -0.8858  0.5957  0.7329
33078SOL     OW 1675   7.248   9.144   0.031  0.3017  0.5301 -1.0706
33078SOL    HW1 1676   7.179   9.200  -0.004  0.0038  0.7631 -0.1428
33078SOL    HW2 1677   7.255   9.072  -0.032 -2.3938 -0.7453 -0.1043
33079SOL     OW 1678   5.686   4.038   4.689  0.3183 -0.0200 -1.1382
33079SOL    HW1 1679   5.640   4.076   4.765  1.2855 -0.0725 -0.5069
33079SOL    HW2 1680   5.616   4.010   4.630 -0.4700 -0.5091 -0.0043
33080SOL     OW 1681   0.695   3.704   2.747 -0.2830 -0.4069  0.6010
33080SOL    HW1 1682   0.710   3.798   2.739  1.0179 -0.6854 -0.8224
33080SOL    HW2 1683   0.763   3.674   2.807 -0.9940 -0.4075  1.4375
33081SOL     OW 1684   9.194   3.251   3.320 -0.5689 -0.2048 -0.2313
33081SOL    HW1 1685   9.129   3.288   3.378 -0.9006  0.6048 -1.0862
33081SOL    HW2 1686   9.164   3.162   3.303 -1.6956  0.3008 -0.9519
33082SOL     OW 1687   3.776   3.088  10.129  0.8593  0.0742 -0.0993
33082SOL    HW1 1688   3.843   3.095  10.198  0.8019 -0.1419 -0.0193
33082SOL    HW2 1689   3.714   3.023  10.163 -0.8655  2.2110  1.0535
33083SOL     OW 1690   2.585   7.483   5.645  0.9859  0.1446  0.4835
33083SOL    HW1 1691   2.571   7.483   5.739  0.6145  1.2665  0.4493
33083SOL    HW2 1692   2.504   7.448   5.608  1.3943 -0.9599  0.5898
33084SOL     OW 1693   2.991   9.524   4.318 -0.2460  0.5914 -0.0033
33084SOL    HW1 1694   3.083   9.544   4.304 -0.0838 -0.1629 -0.0897
33084SOL    HW2 1695   2.956   9.600   4.365  0.5195  0.6921  0.4237
33085SOL     OW 1696   4.279   0.275   0.441 -0.0866  0.0580  0.0884
33085SOL    HW1 1697   4.239   0.227   0.369 -1.8605  2.4545 -0.6248
33085SOL    HW2 1698   4.216   0.269   0.512  0.6617 -0.4348  0.7294
33086SOL     OW 1699   6.028   4.388   7.799  0.1204  0.7624  0.2656
33086SOL    HW1 1700   5.955   4.332   7.772 -1.5411  2.1445  1.6854
33086SOL    HW2 1701   6.028   4.458   7.734  0.8766  0.2311 -0.3236
33087SOL     OW 1702   5.065   6.179   8.918  0.1823  0.2770  0.3771
33087SOL    HW1 1703   5.129   6.249   8.919  0.5476 -0.0281 -0.6332
33087SOL    HW2 1704   4.984   6.220   8.888  1.0879 -0.2233 -3.2405
33088SOL     OW 1705   9.525   8.427   9.373  0.1313 -0.1892 -0.2896
33088SOL    HW1 1706   9.533   8.436   9.468 -1.1649  1.0399 -0.2632
33088SOL    HW2 1707   9.533   8.517   9.339 -2.1698 -0.2087 -1.0780
33089SOL     OW 1708   4.039   4.426   9.441  0.6045  0.1416  0.0659
33089SOL    HW1 1709   4.085   4.347   9.412  1.6297  1.5151 -2.2929
33089SOL    HW2 1710   3.972   4.441   9.375 -1.6509 -0.3513  2.0978
33090SOL     OW 1711   8.323   5.371   5.726  0.0724 -0.4552  0.5434
33090SOL    HW1 1712   8.310   5.448   5.781  0.4717 -0.1572  0.2258
33090SOL    HW2 1713   8.255   5.309   5.754  0.1609 -0.2404  1.2454
33091SOL     OW 1714   1.053   3.791   7.707 -0.3333  0.4439  0.3722
33091SOL    HW1 1715   0.960   3.782   7.686  0.0068  1.1499 -1.7301
33091SOL    HW2 1716   1.068   3.886   7.712  0.5095  0.3939 -0.7283
33092SOL     OW 1717   2.713   4.501   4.487  0.0174 -0.4075 -0.0184
33092SOL    HW1 1718   2.694   4.460   4.403 -0.6746 -1.5091  0.6404
33092SOL    HW2 1719   2.729   4.593   4.467 -0.3910 -0.6063 -1.3159
33093SOL     OW 1720   5.530   7.759   7.678 -0.0081  0.2872 -0.2030
33093SOL    HW1 1721   5.556   7.783   7.767  0.8788  1.4292 -0.7368
33093SOL    HW2 1722   5.549   7.665   7.672 -1.1674 -0.0575  1.1560
33094SOL     OW 1723   6.320   8.340   9.982  0.2381 -0.2340  0.5174
33094SOL    HW1 1724   6.282   8.292  10.055 -0.9457 -1.3565 -0.7740
33094SOL    HW2 1725   6.387   8.282   9.947  1.6525  0.8135  1.4292
33095SOL     OW 1726   1.298   6.842   7.746 -0.6442  0.2548 -0.0069
33095SOL    HW1 1727   1.215   6.876   7.714  0.0423  2.0576 -0.0292
33095SOL    HW2 1728   1.360   6.860   7.674 -0.0688 -0.2777  0.3442
33096SOL     OW 1729   7.992  10.261   5.774  0.0296 -0.0886  0.2930
33096SOL    HW1 1730   7.976  10.217   5.857 -1.9684 -0.3232 -0.1621
33096SOL    HW2 1731   7.999  10.190   5.710  3.6965 -0.0514  0.4659
33097SOL     OW 1732   2.046   2.475   7.718  0.3772 -0.2322  0.1385
33097SOL    HW1 1733   2.013   2.497   7.631  0.1972  0.6931  0.4326
33097SOL    HW2 1734   2.036   2.555   7.769 -1.4182 -1.3111  1.6096
33098SOL     OW 1735   5.054   8.449   8.313 -0.4587  0.3440 -0.5478
33098SOL    HW1 1736   5.120   8.497   8.262 -0.4037 -0.4533 -1.2428
33098SOL    HW2 1737   4.980   8.441   8.254 -1.4407  1.7678  0.4349
33099SOL     OW 1738   9.761   7.006   9.411  0.1545 -0.3102 -0.1773
33099SOL    HW1 1739   9.729   6.935   9.466 -0.6904 -0.1820 -0.4870
33099SOL    HW2 1740   9.733   6.983   9.322  1.5516 -0.5413 -0.5851
33100SOL     OW 1741   1.547   5.308   5.008  0.0567 -0.4987 -0.2819
33100SOL    HW1 1742   1.576   5.232   4.957 -3.4625 -1.9667 -0.3147
33100SOL    HW2 1743   1.505   5.271   5.085 -0.4431  1.4822  0.4388
33101SOL     OW 1744   3.718   7.243   2.098 -0.0168 -0.0771  0.1233
33101SOL    HW1 1745   3.699   7.285   2.014 -1.3652  0.3386  0.6135
33101SOL    HW2 1746   3.813   7.232   2.098  0.0176  0.0378 -1.3966
33102SOL     OW 1747   8.300   2.860   2.050 -0.0362 -0.0722  0.3654
33102SOL    HW1 1748   8.217   2.909   2.047 -0.2960 -0.5324 -0.7553
33102SOL    HW2 1749   8.331   2.871   2.139 -1.6313 -0.4265  1.0034
33103SOL     OW 1750   2.460   2.863   7.680 -1.1653  0.5265 -0.0206
33103SOL    HW1 1751   2.423   2.795   7.623 -1.5006 -0.7033  1.6130
33103SOL    HW2 1752   2.384   2.907   7.718 -0.9466  1.5916 -0.7528
33104SOL     OW 1753   3.151   9.894   4.755 -0.1053 -0.2296 -0.3266
33104SOL    HW1 1754   3.153   9.824   4.690  2.1185 -0.5680  0.0387
33104SOL    HW2 1755   3.218   9.956   4.726 -1.9630  1.7698 -0.6063
33105SOL     OW 1756   6.443   9.641   0.817  0.7735  0.3588  0.0374
33105SOL    HW1 1757   6.398   9.585   0.880 -0.2780 -0.7269 -1.5867
33105SOL    HW2 1758   6.373   9.690   0.774  1.4310  0.8823 -0.4665
33106SOL     OW 1759   0.948   3.012  10.392 -0.1078  0.0159  0.0989
33106SOL    HW1 1760   0.894   2.958  10.334  0.6475 -0.9923  0.3104
33106SOL    HW2 1761   0.930   2.978  10.479  3.0394 -2.4323 -0.0288
33107SOL     OW 1762   1.312   3.855   5.939 -0.3295 -0.2425  0.1909
33107SOL    HW1 1763   1.344   3.910   6.010  0.9411 -1.5418  0.6790
33107SOL    HW2 1764   1.223   3.831   5.965 -0.2575  0.1626  0.8125
33108SOL     OW 1765   1.794   2.242   1.205 -0.1006 -0.1792  0.2624
33108SOL    HW1 1766   1.783   2.314   1.267  0.9949  0.8294 -0.6680
33108SOL    HW2 1767   1.776   2.163   1.257  0.9959  0.6094  1.9320
33109SOL     OW 1768   5.532   1.974   7.818  0.5163 -0.3149  0.7356
33109SOL    HW1 1769   5.440   1.948   7.807  1.0896 -2.4513  0.5973
33109SOL    HW2 1770   5.570   1.906   7.874  1.6340  1.4588  2.2292
33110SOL     OW 1771   6.565   8.485   3.050  0.1533 -0.0888  0.6454
33110SOL    HW1 1772   6.543   8.394   3.071  0.0829  0.1259  1.5409
33110SOL    HW2 1773   6.644   8.503   3.102  2.6819 -0.8738 -2.5364
33111SOL     OW 1774   0.299   9.115   3.863 -0.1508  0.2012  0.2909
33111SOL    HW1 1775   0.324   9.165   3.786 -0.3887 -1.8121 -1.1678
33111SOL    HW2 1776   0.382   9.098   3.908  0.6094 -1.9893 -1.7277
33112SOL     OW 1777   7.221   5.798   7.771  0.1889 -0.4558 -0.1198
33112SOL    HW1 1778   7.203   5.889   7.796 -1.2304  0.1470 -2.9122
33112SOL    HW2 1779   7.253   5.757   7.852  0.0273  2.2671  1.4644
33113SOL     OW 1780   4.658   6.661   3.249  0.3858  0.2019 -0.2617
33113SOL    HW1 1781   4.675   6.734   3.309  1.5703 -0.7939  0.6564
33113SOL    HW2 1782   4.608   6.701   3.178 -2.1487  1.1965  1.9174
33114SOL     OW 1783   4.980   9.760   1.662  0.1188 -0.0950  0.2111
33114SOL    HW1 1784   5.068   9.758   1.625  0.1479 -1.0105  0.2834
33114SOL    HW2 1785   4.972   9.675   1.707 -0.5958  0.2100  0.6754
33115SOL     OW 1786   1.997   2.207   7.747  0.4673  0.5629 -0.2462
33115SOL    HW1 1787   2.084   2.168   7.743  1.2087  1.7853  2.3477
33115SOL    HW2 1788   2.012   2.300   7.735 -0.4852  0.7772  0.1496
33116SOL     OW 1789   9.865   5.704   0.721  0.5319  0.5616 -0.1080
33116SOL    HW1 1790   9.878   5.653   0.641 -0.0239  1.6193 -0.8886
33116SOL    HW2 1791   9.887   5.643   0.792 -0.5600 -0.8985 -0.9860
33117SOL     OW 1792   6.982   1.439   1.440 -0.1552 -0.0095  0.2595
33117SOL    HW1 1793   7.071   1.474   1.442 -0.3269  0.4197  0.5162
33117SOL    HW2 1794   6.947   1.457   1.527  0.5630 -3.0057  1.2822
33118SOL     OW 1795   7.687   7.333  10.121 -0.2890 -0.0289  0.2329
33118SOL    HW1 1796   7.698   7.352  10.028 -1.2074  0.4844  0.2282
33118SOL    HW2 1797   7.667   7.417  10.161 -1.5681 -0.5133  0.6343
33119SOL     OW 1798   2.244   4.770   3.952  0.5192  0.0305  0.1280
33119SOL    HW1 1799   2.182   4.830   3.993 -0.3171 -1.4278  1.0653
33119SOL    HW2 1800   2.271   4.816   3.872 -1.0359  1.1118  0.1708
33120SOL     OW 1801   9.400   1.119   0.556 -0.1124  0.0864  0.1585
33120SOL    HW1 1802   9.406   1.024   0.558 -0.2271  0.0803  0.2432
33120SOL    HW2 1803   9.312   1.138   0.589  0.0925  0.2460  0.6202
33121SOL     OW 1804   2.747   9.886   3.136 -0.1149  0.0309  0.0733
33121SOL    HW1 1805   2.817   9.911   3.075 -0.9332  2.3375 -0.0032
33121SOL    HW2 1806   2.787   9.892   3.222  0.0800  0.2471 -0.0316
33122SOL     OW 1807   0.210   7.331   0.954 -0.8053  0.2778  0.0260
33122SOL    HW1 1808   0.265   7.255   0.974  1.4408  1.7368 -0.1630
33122SOL    HW2 1809   0.196   7.326   0.859  2.3614  1.8147 -0.6744
33123SOL     OW 1810   6.027   5.870   3.851 -0.1356  0.1578 -0.3634
33123SOL    HW1 1811   5.939   5.904   3.864  0.3578  1.3830 -0.1609
33123SOL    HW2 1812   6.039   5.807   3.922 -0.5671  0.5375  0.0497
33124SOL     OW 1813   1.317   4.412   4.057 -0.1075 -0.2473  0.1465
33124SOL    HW1 1814   1.256   4.486   4.061 -0.2452 -0.3439 -0.1416
33124SOL    HW2 1815   1.261   4.335   4.050 -0.0185 -0.5414  2.1723
33125SOL     OW 1816   7.085   4.975   3.660  0.6127 -0.2788 -0.0293
33125SOL    HW1 1817   7.058   5.059   3.625 -0.1583 -0.1574  0.8124
33125SOL    HW2 1818   7.157   4.996   3.721 -0.1935 -0.1013  0.8857
33126SOL     OW 1819   1.842  10.438   5.824  0.1902 -0.2521 -0.3515
33126SOL    HW1 1820   1.912  10.390   5.780 -0.2199 -0.4800 -0.7696
33126SOL    HW2 1821   1.766  10.381   5.817 -0.6588  0.9801 -2.0371
33127SOL     OW 1822   0.808   3.238   2.677 -0.4728 -0.0102  0.7122
33127SOL    HW1 1823   0.717   3.238   2.708 -1.3253  1.1167 -1.5265
33127SOL    HW2 1824   0.842   3.323   2.704 -0.2574 -0.2113  1.0762
33128SOL     OW 1825   7.307   1.018   7.805  0.5398  0.2515 -0.0873
33128SOL    HW1 1826   7.388   0.972   7.784  1.7254  1.9076  0.6314
33128SOL    HW2 1827   7.335   1.102   7.840 -1.5013  1.4938 -1.1766
33129SOL     OW 1828   0.135   9.211   6.212 -0.0720 -0.2334 -0.0014
33129SOL    HW1 1829   0.052   9.260   6.217  0.2277  1.0763 -4.0073
33129SOL    HW2 1830   0.202   9.277   6.229  0.2482 -0.9838  1.8156
33130SOL     OW 1831   7.342   0.419   5.161 -0.3409  0.4686 -0.0285
33130SOL    HW1 1832   7.414   0.469   5.199 -0.5953  0.8450 -0.0405
33130SOL    HW2 1833   7.361   0.415   5.068 -0.4533  0.7638 -0.0647
33131SOL     OW 1834   5.377   5.172   5.764  0.3130 -0.7002 -0.0059
33131SOL    HW1 1835   5.384   5.153   5.858  0.3597 -0.5906  0.0136
33131SOL    HW2 1836   5.379   5.086   5.722  2.4797 -0.6823 -0.0448
33132SOL     OW 1837   4.921   4.464   7.765 -0.3548 -0.5121  0.3428
33132SOL    HW1 1838   4.893   4.531   7.827  0.6406 -0.5942  0.9168
33132SOL    HW2 1839   4.854   4.464   7.697 -0.8314  0.4405  0.7903
33133SOL     OW 1840   1.127   8.864   6.683 -0.2464  0.8253 -0.0766
33133SOL    HW1 1841   1.129   8.958   6.665 -0.3498  0.9890  0.7451
33133SOL    HW2 1842   1.052   8.852   6.742  0.7893  0.4815  1.2174
33134SOL     OW 1843   9.017   3.603   3.729  0.0201 -0.2194 -0.0046
33134SOL    HW1 1844   9.073   3.534   3.693 -1.3221 -1.5858  0.4005
33134SOL    HW2 1845   9.072   3.681   3.727  2.9125 -1.9352  2.7497
33135SOL     OW 1846   5.173   9.500   7.537 -0.0744 -0.1661  0.0972
33135SOL    HW1 1847   5.102   9.536   7.484  1.6319  0.3652 -1.9787
33135SOL    HW2 1848   5.178   9.408   7.513 -0.9062 -0.5558  1.3015
33136SOL     OW 1849   6.510   7.854   0.433 -0.3186  0.2898  0.3278
33136SOL    HW1 1850   6.585   7.890   0.480  1.4682  1.7098 -3.2250
33136SOL    HW2 1851   6.472   7.930   0.388 -3.7669 -0.4438  1.6884
33137SOL     OW 1852   7.699   7.376   6.483 -0.2068  0.2925  0.5036
33137SOL    HW1 1853   7.670   7.356   6.572 -0.6594 -0.1111  0.2654
33137SOL    HW2 1854   7.737   7.464   6.491  0.1214  0.0964  1.1738
33138SOL     OW 1855   6.525   6.494   3.112  0.0751  0.0259 -0.2856
33138SOL    HW1 1856   6.501   6.423   3.052 -0.3032  0.1183 -0.2445
33138SOL    HW2 1857   6.443   6.540   3.129  0.3705  0.6820 -0.5832
33139SOL     OW 1858   6.350   5.515   3.139  0.1589 -0.1809  0.0018
33139SOL    HW1 1859   6.430   5.568   3.144  1.6892 -2.2013 -1.1625
33139SOL    HW2 1860   6.371   5.447   3.075 -2.1279 -1.4411  0.4881
33140SOL     OW 1861   7.262   7.921   1.924 -0.0528 -0.3262 -0.3252
33140SOL    HW1 1862   7.253   7.995   1.864  1.1516 -1.3592 -1.8589
33140SOL    HW2 1863   7.312   7.856   1.875 -0.7583 -2.0378  1.1002
33141SOL     OW 1864   6.661   9.065   7.060 -0.8478 -0.4107  0.3050
33141SOL    HW1 1865   6.596   9.098   7.123 -1.1491 -1.2841  0.4604
33141SOL    HW2 1866   6.734   9.036   7.115 -0.7671 -0.4083  0.1974
33142SOL     OW 1867   6.765   7.898   6.464  0.0620  1.2022  0.3464
33142SOL    HW1 1868   6.671   7.882   6.463  0.3684 -0.7500 -0.3669
33142SOL    HW2 1869   6.777   7.973   6.406 -1.0510  1.6691  0.6750
33143SOL     OW 1870   1.176   0.061   6.892 -0.3950  0.5197 -0.1291
33143SOL    HW1 1871   1.180   0.145   6.848  0.3903  0.5682  0.0140
33143SOL    HW2 1872   1.170   0.083   6.985 -0.3616  0.4157 -0.1019
33144SOL     OW 1873   4.084  10.163   3.096 -0.0943 -0.2479  0.3109
33144SOL    HW1 1874   4.030  10.149   3.018  1.8446  0.9344 -1.3428
33144SOL    HW2 1875   4.110  10.075   3.124 -1.7933 -0.7591  0.4165
33145SOL     OW 1876   3.432   6.143   7.633  0.1145 -0.6772  0.2253
33145SOL    HW1 1877   3.443   6.055   7.596  1.1711  0.2050 -1.7302
33145SOL    HW2 1878   3.491   6.198   7.582 -0.8356  1.2693  1.1096
33146SOL     OW 1879   4.661   9.987   4.194 -0.0820 -0.1820  0.2133
33146SOL    HW1 1880   4.588   9.986   4.256  0.7087  1.8281  1.2714
33146SOL    HW2 1881   4.733   9.942   4.240  1.0959  2.9289  1.6794
33147SOL     OW 1882   6.098   0.779   1.499  0.3029 -0.0642  0.4679
33147SOL    HW1 1883   6.104   0.849   1.563  0.8627  0.6000 -0.2890
33147SOL    HW2 1884   6.180   0.731   1.507  0.0494 -0.4548  0.7725
33148SOL     OW 1885   1.447   7.361   8.351 -0.3974 -0.1190 -0.2752
33148SOL    HW1 1886   1.378   7.404   8.402  1.3745  0.2915  1.9244
33148SOL    HW2 1887   1.439   7.400   8.263 -1.7347  1.3456  0.4448
33149SOL     OW 1888   8.453   0.530   2.139  0.7259  0.2589  0.4511
33149SOL    HW1 1889   8.540   0.570   2.136  0.3586  1.0467 -0.6055
33149SOL    HW2 1890   8.404   0.584   2.201  0.7666  0.3270  0.4243
33150SOL     OW 1891   1.076   9.345   8.031 -0.0398 -0.6973 -0.2252
33150SOL    HW1 1892   0.983   9.352   8.008 -0.2163 -1.1999  0.2999
33150SOL    HW2 1893   1.115   9.299   7.957 -0.1516 -0.2218 -0.5831
33151SOL     OW 1894   9.136   9.673   1.966 -0.0664 -0.0810 -0.0526
33151SOL    HW1 1895   9.126   9.758   2.009 -1.5177 -0.4750  0.4257
33151SOL    HW2 1896   9.161   9.614   2.037  0.4193 -0.1612 -0.2903
33152SOL     OW 1897   7.963   5.124   5.462 -0.6154  0.0645 -0.0209
33152SOL    HW1 1898   7.946   5.099   5.371  0.3381  0.7664 -0.4076
33152SOL    HW2 1899   7.984   5.218   5.458 -0.2039  0.0254  0.8660
33153SOL     OW 1900   5.881   8.123   3.919  0.0344  0.3188 -0.2948
33153SOL    HW1 1901   5.904   8.031   3.926 -1.9843 -0.1682  0.6973
33153SOL    HW2 1902   5.903   8.160   4.005 -1.4834  0.1476  0.1964
33154SOL     OW 1903   3.065   7.448   3.050 -0.2368  0.5111 -0.1401
33154SOL    HW1 1904   3.028   7.479   2.967 -0.6335  2.0688  0.5822
33154SOL    HW2 1905   3.154   7.484   3.052  0.0168 -0.0942 -0.1811
33155SOL     OW 1906   0.911   8.381   4.777 -0.1861  0.0792 -0.6508
33155SOL    HW1 1907   0.939   8.450   4.717 -1.4701 -0.7957 -2.3270
33155SOL    HW2 1908   0.985   8.321   4.783  0.9962  1.5851  0.9298
33156SOL     OW 1909   0.264   6.936   4.494 -0.0209  0.0899  0.7995
33156SOL    HW1 1910   0.283   6.851   4.534  1.0288  0.0048  0.1550
33156SOL    HW2 1911   0.349   6.968   4.463 -0.3680  1.4617  1.1814
33157SOL     OW 1912   2.092   9.175   6.618  0.2022  0.7148 -0.5398
33157SOL    HW1 1913   2.115   9.267   6.633  0.4032  0.7974 -1.2956
33157SOL    HW2 1914   2.149   9.127   6.677 -0.7753  1.1165  0.7791
33158SOL     OW 1915   7.869   2.499   9.737 -0.9252 -0.5767  0.6617
33158SOL    HW1 1916   7.815   2.567   9.777 -0.4144 -0.2107  0.7201
33158SOL    HW2 1917   7.814   2.465   9.666 -1.1057  0.0159  0.5140
33159SOL     OW 1918   3.645   2.253   7.232  0.1461 -0.1512 -0.1317
33159SOL    HW1 1919   3.584   2.212   7.171  1.4005 -1.1824 -0.7437
33159SOL    HW2 1920   3.706   2.302   7.177  0.4887  0.0278  0.3947
33160SOL     OW 1921   4.861   5.137   2.380 -0.6363 -0.1072 -0.2030
33160SOL    HW1 1922   4.876   5.045   2.402  0.2039 -0.0651 -0.5742
33160SOL    HW2 1923   4.769   5.152   2.403 -0.5703 -0.8267  0.5730
33161SOL     OW 1924   9.239   3.564   2.145 -0.2013  0.1259  0.0485
33161SOL    HW1 1925   9.192   3.483   2.126 -0.6778  0.0195  1.5044
33161SOL    HW2 1926   9.307   3.569   2.078  0.3450 -1.9068  0.3767
33162SOL     OW 1927   5.764   1.220   5.371  0.8448  0.8328 -0.0391
33162SOL    HW1 1928   5.805   1.232   5.286  1.7185  0.5067  0.3200
33162SOL    HW2 1929   5.811   1.147   5.411 -0.1617  0.3768  0.3591
33163SOL     OW 1930  10.011   7.523   8.884  0.0290  0.7563  0.5059
33163SOL    HW1 1931  10.026   7.555   8.795  0.9167  2.1544  1.1072
33163SOL    HW2 1932  10.097   7.527   8.925  0.2108 -2.5467  0.6668
33164SOL     OW 1933  10.083   1.080   2.594  0.2771  0.4055  0.1970
33164SOL    HW1 1934  10.119   1.145   2.535  0.5729 -0.0384 -0.1130
33164SOL    HW2 1935   9.991   1.071   2.567  0.3882  0.2711 -0.1389
33165SOL     OW 1936   5.731  10.385   0.037  0.2034 -0.3194 -0.0611
33165SOL    HW1 1937   5.773  10.458  -0.009  1.9375 -0.9303  0.4602
33165SOL    HW2 1938   5.801  10.321   0.049 -1.2068 -1.9968 -0.2858
33166SOL     OW 1939   5.265   9.785   3.248  0.0387 -0.0386  0.0958
33166SOL    HW1 1940   5.247   9.820   3.335  1.1640 -1.4023  0.9243
33166SOL    HW2 1941   5.294   9.861   3.197  0.2311  0.6234  1.1689
33167SOL     OW 1942   3.766   8.797   5.817  0.2159  0.3485 -0.1890
33167SOL    HW1 1943   3.769   8.713   5.863 -2.6613  0.3305  0.1712
33167SOL    HW2 1944   3.712   8.853   5.873  2.3345  2.6263 -0.2490
33168SOL     OW 1945   5.185  10.251   0.567 -0.1832 -0.4691  0.4741
33168SOL    HW1 1946   5.162  10.225   0.478  2.5727  0.7387 -0.6849
33168SOL    HW2 1947   5.152  10.340   0.576 -0.0230 -0.4096  0.4782
33169SOL     OW 1948   3.741   0.146   4.799 -0.0039 -0.3879  0.0715
33169SOL    HW1 1949   3.649   0.167   4.782  0.3697  0.8128 -0.5475
33169SOL    HW2 1950   3.775   0.116   4.715  0.2865 -0.3955  0.1916
33170SOL     OW 1951   1.351   6.096   1.816 -0.1022 -0.0633 -0.3019
33170SOL    HW1 1952   1.354   6.092   1.912 -0.2377 -2.7276 -0.3354
33170SOL    HW2 1953   1.258   6.105   1.795 -0.1640 -0.4658 -0.1981
33171SOL     OW 1954   0.227   7.829   0.861  0.2476  0.1503  0.4177
33171SOL    HW1 1955   0.218   7.764   0.931  0.9139 -0.2108  0.1780
33171SOL    HW2 1956   0.293   7.791   0.802  0.0245  0.6586 -0.1648
33172SOL     OW 1957   0.104   5.629   0.029  0.6090  0.2122 -0.4049
33172SOL    HW1 1958   0.192   5.663   0.013  0.3987  0.0972 -1.9568
33172SOL    HW2 1959   0.047   5.681  -0.027 -0.9005  2.6539  2.9855
33173SOL     OW 1960   7.667   6.565   1.838  0.0214 -0.5399 -0.0510
33173SOL    HW1 1961   7.581   6.592   1.869  0.9055  1.9267  0.4981
33173SOL    HW2 1962   7.653   6.539   1.747 -1.3683 -0.7290  0.1936
33174SOL     OW 1963   5.823   2.633   5.118 -0.0625 -0.1113  0.3682
33174SOL    HW1 1964   5.825   2.726   5.139  0.9450 -0.2126  0.7611
33174SOL    HW2 1965   5.822   2.589   5.203  1.0452 -0.4747  0.2114
33175SOL     OW 1966   5.454   1.845   6.569 -0.6150 -0.5630  0.1430
33175SOL    HW1 1967   5.512   1.770   6.580  0.1595 -0.0276 -0.2067
33175SOL    HW2 1968   5.457   1.890   6.654  0.1167 -0.0978 -0.1240
33176SOL     OW 1969   1.812   9.052  10.222 -0.5702  0.8906  0.1389
33176SOL    HW1 1970   1.805   8.957  10.213 -1.5910  0.6947  2.2672
33176SOL    HW2 1971   1.905   9.068  10.239 -0.3059  0.3474 -0.7568
33177SOL     OW 1972   8.908   7.637  10.394  0.3428  0.4487  0.4759
33177SOL    HW1 1973   8.920   7.713  10.338  0.6770  0.3679  0.4345
33177SOL    HW2 1974   8.997   7.612  10.421  0.3797 -0.8472 -0.7367
33178SOL     OW 1975   4.658   9.911   3.677 -0.3604 -0.0633  0.6112
33178SOL    HW1 1976   4.612   9.968   3.739  0.6952 -1.0420  2.4126
33178SOL    HW2 1977   4.748   9.906   3.712  0.7854  0.7004 -2.0048
33179SOL     OW 1978   9.821   0.200   1.780  0.4431  0.2743  0.1957
33179SOL    HW1 1979   9.770   0.222   1.858 -0.3979 -0.4743 -0.1292
33179SOL    HW2 1980   9.764   0.142   1.730  1.8203 -1.0462  0.0898
33180SOL     OW 1981   7.485   3.771   6.615 -0.3333  0.4368  0.1218
33180SOL    HW1 1982   7.465   3.789   6.523 -0.7550 -0.9492 -0.0887
33180SOL    HW2 1983   7.510   3.855   6.651 -1.9747  1.3798 -0.8056
33181SOL     OW 1984   2.989   0.346   4.798 -0.2421  0.0862 -0.1171
33181SOL    HW1 1985   2.937   0.409   4.750 -0.7135 -1.1576 -1.3120
33181SOL    HW2 1986   3.074   0.388   4.810 -0.4269  0.7981 -1.2253
33182SOL     OW 1987   1.779   2.973   4.871  0.1766 -0.1667 -0.0586
33182SOL    HW1 1988   1.801   3.066   4.864  0.2698 -0.0525  1.3423
33182SOL    HW2 1989   1.684   2.971   4.881  0.1893 -0.1988  0.0666
33183SOL     OW 1990   2.548   1.469   0.428 -0.0023  0.1376 -0.7095
33183SOL    HW1 1991   2.549   1.457   0.333  0.6295  1.1605 -0.8479
33183SOL    HW2 1992   2.631   1.431   0.458  0.2542  0.7016 -0.6942
33184SOL     OW 1993   6.427   3.317   2.981 -0.3579  0.1476 -0.5963
33184SOL    HW1 1994   6.459   3.398   2.941  0.3896  0.2449  0.1636
33184SOL    HW2 1995   6.379   3.347   3.059 -1.8998 -0.0299 -1.4435
33185SOL     OW 1996   6.827   0.214   8.532 -0.1312  0.8125 -0.1787
33185SOL    HW1 1997   6.791   0.266   8.605 -0.1987  1.0669 -0.3892
33185SOL    HW2 1998   6.804   0.124   8.553 -0.0643  0.8755  0.1668
33186SOL     OW 1999   2.529   6.447   4.825  0.0321  0.0516 -0.2112
33186SOL    HW1 2000   2.453   6.436   4.768 -0.4536 -1.1950  0.6506
33186SOL    HW2 2001   2.509   6.526   4.876  0.4721  1.1819 -1.7129
33187SOL     OW 2002   7.170   1.208   6.014  0.1777 -0.1443 -0.2117
33187SOL    HW1 2003   7.204   1.120   6.001 -1.9518 -0.8586 -1.3914
33187SOL    HW2 2004   7.184   1.252   5.930 -1.0174 -0.1960 -0.4529
33188SOL     OW 2005   5.444   9.309   7.608  0.1650 -0.8547 -0.2914
33188SOL    HW1 2006   5.362   9.285   7.651  0.9247 -1.7693  0.7013
33188SOL    HW2 2007   5.443   9.405   7.607 -0.8590 -0.8458 -0.2173
33189SOL     OW 2008   3.227   4.845   8.406  0.4458 -0.4569 -0.2451
33189SOL    HW1 2009   3.265   4.789   8.475  2.4022 -0.1383 -1.0004
33189SOL    HW2 2010   3.258   4.933   8.427  0.2572 -0.2050 -1.0014
33190SOL     OW 2011   2.165   5.247   6.456 -0.2836 -0.2813  0.0862
33190SOL    HW1 2012   2.175   5.216   6.546  0.5169  0.0023  0.0984
33190SOL    HW2 2013   2.174   5.342   6.462  1.3698 -0.3757 -0.4910
33191SOL     OW 2014   2.088   6.232   1.462  0.0210 -0.4115  0.1503
33191SOL    HW1 2015   2.134   6.167   1.517 -0.5469 -0.8056  0.1647
33191SOL    HW2 2016   2.106   6.316   1.505  0.4981 -0.5935  0.3157
33192SOL     OW 2017   2.798   9.652   0.040 -0.1220 -0.2829 -0.3740
33192SOL    HW1 2018   2.819   9.573   0.090 -1.3675 -1.4070 -1.5313
33192SOL    HW2 2019   2.795   9.722   0.106 -0.0224 -1.3855  0.8508
33193SOL     OW 2020   0.296   3.751   8.409  0.2948 -0.1900 -0.2004
33193SOL    HW1 2021   0.303   3.719   8.319 -1.2343  2.1060 -1.2373
33193SOL    HW2 2022   0.281   3.845   8.400  0.8838  0.2547  2.5122
33194SOL     OW 2023   6.071   4.306   6.075 -0.0621  0.5485  0.6515
33194SOL    HW1 2024   6.107   4.361   6.006 -1.8168  0.8342 -0.1062
33194SOL    HW2 2025   6.026   4.235   6.027 -0.6590  0.3318  1.5123
33195SOL     OW 2026   0.799   2.345   2.235 -0.0090 -0.2935 -0.1211
33195SOL    HW1 2027   0.735   2.287   2.193  1.6699 -0.8473 -2.0525
33195SOL    HW2 2028   0.750   2.426   2.250 -1.3531 -0.9047 -0.9202
33196SOL     OW 2029   6.729   7.642   2.223 -0.1324  0.0860  0.3320
33196SOL    HW1 2030   6.640   7.613   2.208 -0.0368  0.8116 -2.0345
33196SOL    HW2 2031   6.779   7.562   2.237 -0.7891 -0.4698 -0.4692
33197SOL     OW 2032   6.227   2.002   0.010  0.3168 -0.3386  0.2361
33197SOL    HW1 2033   6.223   1.940  -0.063 -0.9704 -1.9323  1.5850
33197SOL    HW2 2034   6.136   2.015   0.037  0.7801 -0.2814  1.9174
33198SOL     OW 2035   5.637   9.376   5.546 -0.2249 -0.0638  0.0836
33198SOL    HW1 2036   5.581   9.428   5.488  0.2574 -1.0979 -1.3840
33198SOL    HW2 2037   5.578   9.313   5.587 -0.7145  1.2078  1.4385
33199SOL     OW 2038   6.738   6.893   1.316  0.3160  0.1819 -0.6955
33199SOL    HW1 2039   6.782   6.908   1.232  0.5772 -2.2993 -1.0666
33199SOL    HW2 2040   6.808   6.868   1.376 -0.1670 -0.4096 -0.3726
33200SOL     OW 2041   1.073   5.786   9.318  0.1836 -0.6452 -0.2963
33200SOL    HW1 2042   1.143   5.847   9.297 -0.5543  0.1230 -0.5685
33200SOL    HW2 2043   1.118   5.706   9.344  1.1592 -0.1364 -0.3792
33201SOL     OW 2044   4.723   7.990   6.908 -0.5450 -0.3008  0.2640
33201SOL    HW1 2045   4.632   8.011   6.889 -0.2463  1.4530  0.5406
33201SOL    HW2 2046   4.720   7.933   6.984 -1.4037 -0.1908  0.3234
33202SOL     OW 2047   3.134   9.352   6.801  0.7995 -0.4149  0.2153
33202SOL    HW1 2048   3.156   9.337   6.893  2.2520  2.0324  0.3494
33202SOL    HW2 2049   3.165   9.273   6.756  1.9457 -0.7847  1.5796
33203SOL     OW 2050   4.924   9.240   4.075 -0.2065  0.0715 -0.3806
33203SOL    HW1 2051   4.897   9.331   4.091  0.2115  0.0807  0.3325
33203SOL    HW2 2052   4.957   9.239   3.986 -1.0806  0.4121 -0.7198
33204SOL     OW 2053   3.868   6.314   6.213  0.1340 -0.0357  0.0825
33204SOL    HW1 2054   3.919   6.279   6.287  0.7894  0.9891  0.1314
33204SOL    HW2 2055   3.787   6.264   6.215  1.4641 -2.3782 -0.5537
33205SOL     OW 2056   2.666   6.530   1.975  0.0398  0.2557  0.0915
33205SOL    HW1 2057   2.691   6.439   1.961 -0.2092  0.1964  0.0362
33205SOL    HW2 2058   2.651   6.538   2.069  0.0038  0.2251  0.0882
33206SOL     OW 2059   4.647   0.154   3.318 -0.9214 -0.5134 -0.9115
33206SOL    HW1 2060   4.658   0.086   3.251 -0.3837  0.9122 -2.3277
33206SOL    HW2 2061   4.733   0.196   3.324 -1.4947  0.6713 -0.7766
33207SOL     OW 2062   9.317  10.368   6.002  0.5263 -0.5369  0.9835
33207SOL    HW1 2063   9.273  10.283   5.997  1.3952 -0.9924  0.8281
33207SOL    HW2 2064   9.267  10.425   5.944  0.3538 -1.1375  0.5342
33208SOL     OW 2065   9.085   6.409   0.691  0.6536 -0.3783 -0.0190
33208SOL    HW1 2066   9.060   6.430   0.601  0.8771 -0.6442 -0.1431
33208SOL    HW2 2067   9.034   6.330   0.712  0.7934 -0.4633  0.0003
33209SOL     OW 2068   5.627   6.856   0.668  0.1670  0.4154  0.4081
33209SOL    HW1 2069   5.592   6.770   0.691 -2.1216  1.9907  3.5046
33209SOL    HW2 2070   5.660   6.845   0.579 -0.3238 -3.5308  0.5247
33210SOL     OW 2071   0.853   0.686   4.295 -0.0010  0.4967 -0.0693
33210SOL    HW1 2072   0.901   0.738   4.360  1.6063  0.7357 -1.3734
33210SOL    HW2 2073   0.919   0.625   4.261 -1.0641 -0.2881 -0.7693
33211SOL     OW 2074   9.597   5.714   6.977 -0.4332  0.7796  0.6031
33211SOL    HW1 2075   9.507   5.725   6.947  0.0164  3.0749 -0.0614
33211SOL    HW2 2076   9.629   5.638   6.929 -1.3631  1.2371 -0.8118
33212SOL     OW 2077   4.819   7.238   6.874 -0.3064 -0.0623  0.5373
33212SOL    HW1 2078   4.784   7.277   6.794 -0.2530  1.5425  1.2749
33212SOL    HW2 2079   4.799   7.301   6.943  0.0220 -1.2192  1.7393
33213SOL     OW 2080   3.692  10.027   6.181  0.0824 -0.0809  0.2370
33213SOL    HW1 2081   3.697   9.957   6.246 -1.0325 -0.2614  0.1338
33213SOL    HW2 2082   3.636   9.992   6.112  0.5530  0.4382 -0.4252
33214SOL     OW 2083   0.591   1.349   9.525  0.1233  0.2877  0.4070
33214SOL    HW1 2084   0.645   1.311   9.594  1.1170  0.6982 -0.1221
33214SOL    HW2 2085   0.616   1.302   9.445 -0.3354  0.4520  0.1607
33215SOL     OW 2086   7.238   3.127   4.305 -0.6730 -0.1771 -0.2406
33215SOL    HW1 2087   7.279   3.196   4.252  0.0256 -0.9702 -0.7588
33215SOL    HW2 2088   7.276   3.140   4.393  1.5311 -1.4794 -0.9103
33216SOL     OW 2089   4.317   6.935   4.464  0.6633 -0.0633 -0.0274
33216SOL    HW1 2090   4.373   6.860   4.482 -1.0589 -1.4984 -0.4438
33216SOL    HW2 2091   4.377   7.001   4.429  2.0384 -1.6733 -0.8554
33217SOL     OW 2092   2.601   3.297   3.904  0.5450 -0.0421  0.2141
33217SOL    HW1 2093   2.635   3.240   3.972  1.5112 -0.3503 -0.5050
33217SOL    HW2 2094   2.631   3.385   3.929  0.1925 -0.0335  0.6139
33218SOL     OW 2095   4.942  10.056   6.043  0.0627  0.0512  0.0338
33218SOL    HW1 2096   5.000  10.099   5.980  0.1853  0.3872  0.3702
33218SOL    HW2 2097   4.976   9.967   6.049  1.9760  0.8268  1.8940
33219SOL     OW 2098  10.352   5.976   7.440  0.4295 -0.7996 -0.0740
33219SOL    HW1 2099  10.360   5.903   7.501 -1.3555 -0.6974  0.3498
33219SOL    HW2 2100  10.386   6.052   7.488 -1.3002 -0.6481  0.9917
33220SOL     OW 2101   4.211   7.056   2.971  1.2133 -0.1506 -0.5177
33220SOL    HW1 2102   4.171   7.143   2.977  1.2244 -0.2116  0.9367
33220SOL    HW2 2103   4.137   6.996   2.964  0.9974 -0.2179  1.5870
33221SOL     OW 2104   6.480   9.194   7.967  0.7234  0.2040 -0.5289
33221SOL    HW1 2105   6.387   9.204   7.947  0.5252 -0.0469  0.2332
33221SOL    HW2 2106   6.489   9.104   7.997  0.6780  0.9573  2.0222
33222SOL     OW 2107  10.247   2.890   6.218  0.5724  0.5830 -0.1921
33222SOL    HW1 2108  10.219   2.957   6.280  0.3406 -0.3061  0.6873
33222SOL    HW2 2109  10.281   2.819   6.272  0.2426 -0.2710 -1.0699
33223SOL     OW 2110   6.196   3.576   6.753  0.6815 -0.3416 -0.1717
33223SOL    HW1 2111   6.288   3.552   6.746  0.5072 -0.4898 -2.5067
33223SOL    HW2 2112   6.151   3.514   6.696 -0.7616  0.3203  0.2131
33224SOL     OW 2113   2.176   1.285   9.049 -0.4302 -0.1706  0.3441
33224SOL    HW1 2114   2.135   1.202   9.021  1.5436 -1.2011  0.3409
33224SOL    HW2 2115   2.210   1.323   8.968 -0.8383  0.3947  0.4286
33225SOL     OW 2116   2.507   0.288   8.520  0.5492 -0.2735 -0.3323
33225SOL    HW1 2117   2.532   0.271   8.611  1.0181  4.0021  0.5362
33225SOL    HW2 2118   2.580   0.254   8.469  0.2375 -2.8418  0.7650
33226SOL     OW 2119   8.019   7.267   0.098 -0.5058  0.5171  0.0665
33226SOL    HW1 2120   8.028   7.316   0.016  1.4357 -1.9874 -1.3469
33226SOL    HW2 2121   7.967   7.324   0.154  0.7753  3.7292 -1.7591
33227SOL     OW 2122   4.035   4.650   4.446 -0.7646  0.0508  0.0196
33227SOL    HW1 2123   3.991   4.714   4.390 -0.9477 -0.2271 -0.1580
33227SOL    HW2 2124   3.971   4.631   4.515 -0.0214  1.4505  1.1489
33228SOL     OW 2125   4.654   2.478   9.480 -0.2686 -0.3201  0.2073
33228SOL    HW1 2126   4.684   2.563   9.449 -1.1492  0.3522  1.1233
33228SOL    HW2 2127   4.562   2.491   9.501 -0.2211 -1.2672  1.1271
33229SOL     OW 2128   1.741   8.342   6.292 -0.2728  0.2346  0.3011
33229SOL    HW1 2129   1.731   8.252   6.260  0.3762  0.2393  0.0816
33229SOL    HW2 2130   1.777   8.332   6.380 -0.9594  0.2614  0.5939
33230SOL     OW 2131   9.917   4.801   4.924  0.2997 -0.5983 -0.0466
33230SOL    HW1 2132   9.999   4.838   4.957 -0.6372  1.1537  0.4489
33230SOL    HW2 2133   9.942   4.758   4.842  1.6146  0.4831 -0.2676
33231SOL     OW 2134   4.586   7.962   9.756  0.6910  0.2033 -0.3048
33231SOL    HW1 2135   4.650   7.893   9.743 -1.3341 -1.9640  0.5487
33231SOL    HW2 2136   4.627   8.020   9.820  2.5454 -0.0066 -1.2327
33232SOL     OW 2137   9.068   6.052   7.659 -0.2142 -0.6143  0.6616
33232SOL    HW1 2138   8.988   6.055   7.608 -0.3532  2.0334  0.8745
33232SOL    HW2 2139   9.056   5.979   7.720 -1.5015 -1.6204 -0.7352
33233SOL     OW 2140   6.695   6.345   8.000 -0.0953  0.4034  0.3501
33233SOL    HW1 2141   6.731   6.297   7.926  0.4320 -0.4613  1.1511
33233SOL    HW2 2142   6.649   6.420   7.960 -0.0920 -0.2141 -0.8513
33234SOL     OW 2143   2.592   0.444   9.231 -0.9397  0.0041  0.0956
33234SOL    HW1 2144   2.588   0.351   9.211 -1.5538  0.1179 -0.3721
33234SOL    HW2 2145   2.578   0.449   9.326 -0.1200 -0.4210  0.2440
33235SOL     OW 2146   9.237  10.215   7.091  0.0992  0.3031 -0.2930
33235SOL    HW1 2147   9.275  10.302   7.079  1.3102 -0.2385 -0.5066
33235SOL    HW2 2148   9.241  10.200   7.186  2.0243 -0.4151 -0.4406
33236SOL     OW 2149   8.934   1.402   1.795  0.7191  0.1570  0.2330
33236SOL    HW1 2150   8.916   1.309   1.781  1.4178  0.3501 -2.7020
33236SOL    HW2 2151   9.026   1.405   1.824  0.6016 -0.0787  0.6324
33237SOL     OW 2152   4.554   5.661   0.203 -0.2961 -0.9605  0.0574
33237SOL    HW1 2153   4.513   5.721   0.140 -0.0713 -1.2270 -0.3402
33237SOL    HW2 2154   4.550   5.709   0.286 -1.4687 -1.0022  0.0455
33238SOL     OW 2155   7.351   8.856   4.298  0.6772  0.5308  0.3276
33238SOL    HW1 2156   7.440   8.834   4.325  0.1072 -0.5642  1.4268
33238SOL    HW2 2157   7.297   8.833   4.374 -0.7887 -0.8894 -1.0577
33239SOL     OW 2158   1.587   0.046   4.681 -0.1977  0.2049  0.2695
33239SOL    HW1 2159   1.549   0.072   4.765 -0.7797  0.3419 -0.0242
33239SOL    HW2 2160   1.511   0.034   4.624  0.1264 -0.9407  0.0594
33240SOL     OW 2161   9.725   0.344   4.331  0.2433 -0.0677  0.6487
33240SOL    HW1 2162   9.717   0.265   4.384 -0.9296 -0.1447  0.4006
33240SOL    HW2 2163   9.710   0.315   4.241 -1.4648  0.5890  0.6822
33241SOL     OW 2164   5.718   4.682   2.379  0.2494 -0.5190  1.0482
33241SOL    HW1 2165   5.647   4.693   2.316  2.4004  1.1976 -1.3204
33241SOL    HW2 2166   5.791   4.648   2.327  2.6027  2.4060  2.1119
33242SOL     OW 2167   5.025   9.962   2.158  0.0756  0.0655  0.1092
33242SOL    HW1 2168   5.036   9.984   2.065  0.4138 -0.2886  0.0623
33242SOL    HW2 2169   5.114   9.964   2.194 -0.2611  2.8205  1.0505
33243SOL     OW 2170   3.954   0.756   0.032 -0.2518 -0.2497  0.1724
33243SOL    HW1 2171   4.046   0.781   0.028 -0.1100  0.5357  4.0522
33243SOL    HW2 2172   3.947   0.680  -0.025  3.0067 -0.7919  0.3166
33244SOL     OW 2173   3.528   6.376   1.879 -0.1894 -0.0171 -0.3729
33244SOL    HW1 2174   3.549   6.325   1.957 -1.3437 -0.8712 -0.5963
33244SOL    HW2 2175   3.481   6.314   1.822  0.8203  0.5186 -1.8414
33245SOL     OW 2176   5.425   9.532   1.791  0.1947 -0.3160 -0.3243
33245SOL    HW1 2177   5.497   9.492   1.840 -0.0156  0.4669  0.6424
33245SOL    HW2 2178   5.349   9.526   1.849 -0.2686 -0.1748 -0.9052
33246SOL     OW 2179   1.544   3.073   2.346  0.1327  0.6147 -0.0933
33246SOL    HW1 2180   1.532   3.166   2.326 -0.6099  0.6719  0.5802
33246SOL    HW2 2181   1.621   3.048   2.295  0.8865  1.8198  0.3966
33247SOL     OW 2182   9.926   4.052   4.936 -0.0503  0.6678  0.1168
33247SOL    HW1 2183   9.837   4.063   4.970  0.2638  0.8106  0.9072
33247SOL    HW2 2184   9.913   4.023   4.846 -0.9006  1.0930  0.0891
33248SOL     OW 2185   9.408   2.885   9.575  0.0941  0.3151  0.3264
33248SOL    HW1 2186   9.502   2.870   9.574 -0.0584 -0.6948 -0.0353
33248SOL    HW2 2187   9.393   2.950   9.507  0.5402  0.5887  0.4846
33249SOL     OW 2188   7.846   8.212   6.132  0.4997  0.1285 -0.2823
33249SOL    HW1 2189   7.809   8.200   6.219 -0.1916  1.1405 -0.4220
33249SOL    HW2 2190   7.810   8.295   6.101  2.4255  0.8945 -0.6669
33250SOL     OW 2191   6.418  10.167   1.469  0.0852  0.5198  0.2438
33250SOL    HW1 2192   6.466  10.226   1.411 -0.5539  0.4389 -0.3738
33250SOL    HW2 2193   6.481  10.098   1.490  1.0105  1.6536  1.3767
33251SOL     OW 2194   5.146   3.042   2.053 -0.2619 -0.2392  0.0042
33251SOL    HW1 2195   5.198   3.109   2.098  1.4913 -2.4242  1.4966
33251SOL    HW2 2196   5.141   3.072   1.962 -0.8117  2.5586  0.8707
33252SOL     OW 2197   3.323   5.018   0.390 -0.7593 -0.0085  0.1072
33252SOL    HW1 2198   3.384   4.987   0.322  0.3020 -1.1328  1.5087
33252SOL    HW2 2199   3.297   5.105   0.360 -1.5151 -1.0238 -2.4882
33253SOL     OW 2200   4.719   9.554   4.754 -0.3594  0.9051 -0.8902
33253SOL    HW1 2201   4.688   9.468   4.726 -0.7904  0.2516  1.4435
33253SOL    HW2 2202   4.793   9.572   4.696  0.0436 -1.2356 -1.1232
33254SOL     OW 2203   0.650   4.616   4.232  0.2696 -0.1554  0.1181
33254SOL    HW1 2204   0.735   4.634   4.191 -0.5566 -0.3322 -1.7664
33254SOL    HW2 2205   0.662   4.533   4.278  0.4033 -1.6691 -2.4750
33255SOL     OW 2206   6.995   6.328   4.263  0.1660 -0.3689  0.2570
33255SOL    HW1 2207   6.910   6.284   4.272 -0.2323  0.4593  0.6442
33255SOL    HW2 2208   7.054   6.259   4.233 -0.8270 -0.7579 -0.9005
33256SOL     OW 2209   1.015   4.473   0.342  0.2200  0.2718  1.0364
33256SOL    HW1 2210   1.074   4.486   0.417 -0.3814  2.6703  1.1868
33256SOL    HW2 2211   1.073   4.467   0.266  0.7497 -0.3263  1.4753
33257SOL     OW 2212   9.049   1.817   4.713  0.4641 -0.2705 -0.2406
33257SOL    HW1 2213   9.003   1.893   4.748 -1.6293 -2.1162  1.3946
33257SOL    HW2 2214   8.979   1.758   4.686  1.9291 -2.3137  0.1868
33258SOL     OW 2215   1.782  10.283   7.763 -0.1833 -0.2809  0.2950
33258SOL    HW1 2216   1.759  10.223   7.834  0.6405  1.5619  2.2553
33258SOL    HW2 2217   1.763  10.370   7.799  0.4779  0.7401 -1.6841
33259SOL     OW 2218   6.864   3.413   2.305 -0.2847 -0.2161  0.2193
33259SOL    HW1 2219   6.863   3.320   2.327  0.0897 -0.3905 -0.4574
33259SOL    HW2 2220   6.803   3.421   2.232  2.5927 -0.6820 -2.4235
33260SOL     OW 2221   3.312   0.479   6.333 -0.3532 -0.0253 -0.3578
33260SOL    HW1 2222   3.240   0.467   6.271 -0.0741 -1.6162 -0.4175
33260SOL    HW2 2223   3.301   0.407   6.395  1.9658 -1.1404 -1.1474
33261SOL     OW 2224   6.483   7.207   1.788 -0.2192  0.5682  0.3685
33261SOL    HW1 2225   6.562   7.162   1.818 -0.3126 -0.9596 -1.4955
33261SOL    HW2 2226   6.503   7.234   1.698 -1.9335 -0.2131 -0.2877
33262SOL     OW 2227   4.053   6.916   5.251 -0.3928 -0.6907 -0.0847
33262SOL    HW1 2228   4.004   6.998   5.247 -1.6809 -1.4346 -0.2940
33262SOL    HW2 2229   4.003   6.862   5.312 -0.3021 -1.7766 -0.9486
33263SOL     OW 2230   7.291   6.829   3.065 -0.1141 -0.5499 -0.1966
33263SOL    HW1 2231   7.310   6.833   3.158  0.2041 -0.8524 -0.2470
33263SOL    HW2 2232   7.373   6.857   3.023  0.2568 -1.8939 -0.4188
33264SOL     OW 2233   9.860   9.458   9.895  0.1448  0.2326 -0.3393
33264SOL    HW1 2234   9.830   9.406   9.970  0.4317  0.3874 -0.1165
33264SOL    HW2 2235   9.779   9.486   9.852 -0.0823  1.3876  0.7573
33265SOL     OW 2236   4.084   7.703   4.925 -0.2400  0.0681  0.4640
33265SOL    HW1 2237   4.162   7.741   4.966  0.9303  0.4812 -1.9666
33265SOL    HW2 2238   4.026   7.777   4.910 -0.1015  0.1133  0.1634
33266SOL     OW 2239   3.918   3.598  10.463 -1.4023  0.9031  0.1633
33266SOL    HW1 2240   3.827   3.591  10.491 -1.8948  0.5189 -1.4293
33266SOL    HW2 2241   3.962   3.524  10.504 -1.5370  1.7074  1.8272
33267SOL     OW 2242   8.035   0.590   9.412 -0.0810  0.5120 -0.3333
33267SOL    HW1 2243   8.018   0.684   9.418 -1.9520  0.1621  0.5586
33267SOL    HW2 2244   7.953   0.549   9.442  1.5146 -1.4037  1.7291
33268SOL     OW 2245   7.212   8.355   2.836 -0.0982  0.3772  0.4774
33268SOL    HW1 2246   7.293   8.402   2.816 -1.6933  2.5194 -1.4836
33268SOL    HW2 2247   7.241   8.270   2.870  2.9674  0.7940 -0.7926
33269SOL     OW 2248   0.022   1.517   4.095 -0.4717  0.0023  0.1906
33269SOL    HW1 2249   0.093   1.485   4.152 -0.8570 -1.5627 -0.1811
33269SOL    HW2 2250  -0.055   1.470   4.125 -1.0263  0.4625 -0.5037
33270SOL     OW 2251   8.406   0.032   2.146  0.6700 -0.1722 -0.2183
33270SOL    HW1 2252   8.401   0.122   2.178  0.5498 -0.4513  0.5733
33270SOL    HW2 2253   8.372   0.036   2.057  0.3252  0.4994 -0.0594
33271SOL     OW 2254   6.136   0.428   0.362 -0.3131 -0.2409 -0.5770
33271SOL    HW1 2255   6.120   0.461   0.451  1.2438  1.4485 -0.8701
33271SOL    HW2 2256   6.054   0.383   0.338 -0.5268 -1.3483  1.9398
33272SOL     OW 2257   9.120   0.534   6.666 -0.5320  0.3157  0.1832
33272SOL    HW1 2258   9.027   0.551   6.684 -0.6478  0.1858 -0.2706
33272SOL    HW2 2259   9.164   0.555   6.748 -0.9616  0.3939  0.4003
33273SOL     OW 2260   4.177   4.500  10.011  0.2182 -0.0760 -0.0341
33273SOL    HW1 2261   4.242   4.430  10.005  0.4270  0.0117  1.0164
33273SOL    HW2 2262   4.198   4.559   9.938  0.4309 -0.7767 -0.5471
33274SOL     OW 2263   2.953   4.938   6.602  0.6549  0.2547 -0.4134
33274SOL    HW1 2264   2.989   4.963   6.687 -2.0398 -1.0039  1.2595
33274SOL    HW2 2265   2.912   5.018   6.569 -1.0483  0.0974  1.1081
33275SOL     OW 2266   9.855   9.825   3.953  0.1052  0.0727  0.4986
33275SOL    HW1 2267   9.774   9.828   3.902  0.4880 -3.1781 -0.5135
33275SOL    HW2 2268   9.833   9.774   4.031  1.0629 -0.5772  0.3627
33276SOL     OW 2269   0.739   2.490   2.571 -0.4277  0.3350  0.1017
33276SOL    HW1 2270   0.798   2.564   2.557  1.4492 -1.4304 -2.5061
33276SOL    HW2 2271   0.671   2.500   2.504 -1.3017  0.6965  1.0251
33277SOL     OW 2272   9.594   9.211   5.157  0.0626  0.0965  0.3951
33277SOL    HW1 2273   9.591   9.302   5.128 -1.4280 -0.4376 -1.3487
33277SOL    HW2 2274   9.522   9.203   5.219  0.5147  0.2049  0.9439
33278SOL     OW 2275   8.068  10.084   4.154  0.1671 -0.1339  0.0480
33278SOL    HW1 2276   8.066  10.179   4.144 -0.1350 -0.2042 -0.6384
33278SOL    HW2 2277   8.137  10.068   4.219 -1.1424  0.6685  1.7068
33279SOL     OW 2278   0.018   7.377  10.120 -0.0638 -0.6767  0.2547
33279SOL    HW1 2279   0.036   7.321  10.044 -0.1965 -1.9737  1.1367
33279SOL    HW2 2280   0.098   7.371  10.173  0.4326  1.0492 -0.2410
33280SOL     OW 2281   1.559  10.048   0.670  0.0822 -0.0212  0.3410
33280SOL    HW1 2282   1.487   9.988   0.650  0.5075 -0.1650 -0.8586
33280SOL    HW2 2283   1.638   9.999   0.648  0.5658  0.1331  1.6483
33281SOL     OW 2284   7.214   7.310   1.938  0.1460 -0.1582 -0.1123
33281SOL    HW1 2285   7.305   7.286   1.923 -0.0055 -1.3496  0.7130
33281SOL    HW2 2286   7.178   7.326   1.851  0.7516 -1.2174 -0.5689
33282SOL     OW 2287   8.793   5.213   0.169  0.0776  0.1280  0.2220
33282SOL    HW1 2288   8.880   5.184   0.139 -0.1389 -0.9999  0.6427
33282SOL    HW2 2289   8.787   5.182   0.259 -0.4456  0.9183  0.4626
33283SOL     OW 2290   3.526  10.396   1.171 -0.2243 -0.1562 -0.2495
33283SOL    HW1 2291   3.472  10.361   1.242  0.0749  1.4616  0.8455
33283SOL    HW2 2292   3.498  10.487   1.163  0.5124 -0.0204 -1.4828
33284SOL     OW 2293   8.419   2.118   7.967 -0.6154 -0.4481 -0.3666
33284SOL    HW1 2294   8.393   2.206   7.941 -3.4815 -0.7758  0.9936
33284SOL    HW2 2295   8.435   2.124   8.061 -0.9368 -1.3528 -0.2329
33285SOL     OW 2296   1.431   4.416   2.975  0.6209  0.3345  0.1982
33285SOL    HW1 2297   1.425   4.484   3.042  1.2471  1.0766 -0.4769
33285SOL    HW2 2298   1.454   4.337   3.022  0.8543  0.8014  0.8775
33286SOL     OW 2299  10.109   3.274   3.925  0.3263 -0.0908  0.7954
33286SOL    HW1 2300  10.072   3.308   4.006 -2.8072 -1.6949  0.2396
33286SOL    HW2 2301  10.159   3.346   3.888 -2.2636  2.4048  1.7901
33287SOL     OW 2302   6.656   9.924   5.010 -0.0734 -0.2245 -0.2911
33287SOL    HW1 2303   6.582   9.965   5.055 -0.0252 -0.7923  0.3200
33287SOL    HW2 2304   6.718   9.995   4.996  0.0615 -0.0843  0.8696
33288SOL     OW 2305   8.762   9.740   2.848  0.3612  0.0311  0.6385
33288SOL    HW1 2306   8.718   9.806   2.794  1.3430  0.7579  0.7105
33288SOL    HW2 2307   8.691   9.683   2.879 -0.3535  0.3424 -0.3963
33289SOL     OW 2308   0.500   7.168   0.392  0.2356  0.1585  0.5196
33289SOL    HW1 2309   0.485   7.089   0.444  0.3875  0.4551  1.0230
33289SOL    HW2 2310   0.412   7.202   0.375  0.0352 -1.1562 -1.3723
33290SOL     OW 2311   6.799   5.604   1.413  0.4943  0.1009 -0.0384
33290SOL    HW1 2312   6.881   5.598   1.364  0.0932 -0.1421 -0.6855
33290SOL    HW2 2313   6.773   5.514   1.429 -0.1113  0.1624 -0.6315
33291SOL     OW 2314   8.097   0.258   8.480 -0.7977  0.4127 -0.4973
33291SOL    HW1 2315   8.060   0.172   8.503 -1.4139  0.7916 -0.0472
33291SOL    HW2 2316   8.066   0.317   8.549  1.1685  0.6401  0.2644
33292SOL     OW 2317   7.265   6.543   3.047 -0.4780 -0.4465 -0.3562
33292SOL    HW1 2318   7.185   6.501   3.016 -0.3798 -0.1075 -1.0862
33292SOL    HW2 2319   7.244   6.636   3.048  0.8077 -0.0229 -3.4556
33293SOL     OW 2320   6.589   9.669   3.538 -0.5286  0.6311 -0.1961
33293SOL    HW1 2321   6.658   9.683   3.603 -0.2628  0.8083 -0.5116
33293SOL    HW2 2322   6.599   9.741   3.477 -0.9139  0.5822 -0.3162
33294SOL     OW 2323   3.436   0.916   3.304 -0.5453 -0.0395 -0.0610
33294SOL    HW1 2324   3.507   0.921   3.241 -2.0078  1.4361 -1.6984
33294SOL    HW2 2325   3.432   1.003   3.343 -0.5822 -0.5168  1.0299
33295SOL     OW 2326   9.713   0.303   4.763  0.0309  0.1243 -0.1934
33295SOL    HW1 2327   9.649   0.368   4.791 -1.6743 -1.3201 -0.5261
33295SOL    HW2 2328   9.667   0.251   4.697  0.2373 -3.2740  2.1091
33296SOL     OW 2329   0.285   6.803   5.192  0.3330  0.5568  0.2141
33296SOL    HW1 2330   0.364   6.854   5.175  0.9248 -0.3019  0.3305
33296SOL    HW2 2331   0.238   6.803   5.109  0.9724  0.2041 -0.1529
33297SOL     OW 2332   3.216   8.591   7.742 -0.0903 -0.7496 -0.0800
33297SOL    HW1 2333   3.295   8.646   7.748 -0.0063 -0.7390 -1.1821
33297SOL    HW2 2334   3.241   8.509   7.785  0.1611 -0.3607  0.5379
33298SOL     OW 2335   2.170   8.642  10.300 -0.0974 -0.4036 -0.1078
33298SOL    HW1 2336   2.172   8.569  10.361 -1.6075  0.8257  1.4992
33298SOL    HW2 2337   2.084   8.637  10.259  0.8704 -1.1688 -2.1721
33299SOL     OW 2338   8.741  10.052   0.969  0.3266 -0.7641 -0.0031
33299SOL    HW1 2339   8.792  10.078   0.893  0.6519 -0.6150  0.2596
33299SOL    HW2 2340   8.804  10.011   1.028  0.7520  1.7260  1.4673
33300SOL     OW 2341   2.177   3.365   9.632  0.1582  0.2073  0.1602
33300SOL    HW1 2342   2.258   3.314   9.641  0.0485  0.2052  1.2556
33300SOL    HW2 2343   2.188   3.412   9.549  0.1903 -1.7160 -0.9922
33301SOL     OW 2344  10.449   3.804   3.929  0.3622  0.0098  0.0863
33301SOL    HW1 2345  10.541   3.829   3.915  0.2929 -0.2746 -0.9155
33301SOL    HW2 2346  10.400   3.855   3.865 -0.1734  0.0816  0.5527
33302SOL     OW 2347  10.484   6.121   4.054 -0.5505 -0.3825 -0.3909
33302SOL    HW1 2348  10.502   6.202   4.007 -1.0960  0.0024  0.0420
33302SOL    HW2 2349  10.389   6.110   4.047 -0.7143 -0.0439  1.0302
33303SOL     OW 2350   4.645   2.562   2.391  0.3291 -0.4025 -0.6929
33303SOL    HW1 2351   4.695   2.508   2.452  1.1205  0.9656 -0.0781
33303SOL    HW2 2352   4.558   2.566   2.429  0.7520  0.2470  0.2612
33304SOL     OW 2353  10.220   5.127   3.316 -0.1822 -0.0409 -0.5593
33304SOL    HW1 2354  10.137   5.094   3.283 -0.2851  1.0186 -1.3926
33304SOL    HW2 2355  10.239   5.204   3.262 -0.1859  1.5621  1.5750
33305SOL     OW 2356  10.071   8.581   1.143  0.3569  0.7702 -0.2900
33305SOL    HW1 2357  10.114   8.510   1.096 -1.4055 -0.2212 -0.5144
33305SOL    HW2 2358  10.018   8.625   1.077 -1.2783  0.0536  0.4751
33306SOL     OW 2359   5.995   0.358   7.591 -0.0188  0.1018 -0.0904
33306SOL    HW1 2360   5.992   0.303   7.512 -0.5436 -1.6122  1.0629
33306SOL    HW2 2361   5.908   0.351   7.629  0.4436  0.2955  1.0404
33307SOL     OW 2362   8.580   5.975   5.932  0.6899  0.1040  0.2689
33307SOL    HW1 2363   8.551   6.066   5.922  0.3476  0.0071  0.3548
33307SOL    HW2 2364   8.608   5.949   5.845  1.1617  0.4163  0.3228
33308SOL     OW 2365   5.223   0.552   9.022 -0.5868 -0.1352 -0.5210
33308SOL    HW1 2366   5.210   0.534   8.929 -0.2525  1.5408 -0.9257
33308SOL    HW2 2367   5.310   0.518   9.041  0.1301  1.1704 -1.3129
33309SOL     OW 2368   1.779   3.802   9.297 -0.6701  0.6735  0.1174
33309SOL    HW1 2369   1.783   3.804   9.393  0.0452  0.1266  0.1109
33309SOL    HW2 2370   1.686   3.791   9.277 -0.8897  1.3219  0.7348
33310SOL     OW 2371   2.347   3.819   8.538  0.1493 -0.0652  0.2125
33310SOL    HW1 2372   2.367   3.766   8.615 -1.7690  0.9600  1.4859
33310SOL    HW2 2373   2.343   3.909   8.571 -1.2171  0.3419 -0.9582
33311SOL     OW 2374   0.640   9.057   0.923 -0.3409 -0.0309  0.3063
33311SOL    HW1 2375   0.550   9.024   0.928 -0.4367  0.2671  0.5708
33311SOL    HW2 2376   0.678   9.037   1.009 -0.9069  1.9871  1.0709
33312SOL     OW 2377   0.617   7.843   8.027  0.0304  0.4542 -0.0439
33312SOL    HW1 2378   0.671   7.921   8.035  0.5206  0.0840  0.3077
33312SOL    HW2 2379   0.535   7.874   7.989  1.3372  0.6607 -2.9107
33313SOL     OW 2380   0.286  10.305   0.396 -0.3521 -0.0656 -0.1186
33313SOL    HW1 2381   0.191  10.293   0.405 -0.0565 -2.3933  0.3895
33313SOL    HW2 2382   0.300  10.398   0.416 -2.3730  0.0215  1.1378
33314SOL     OW 2383   6.171   7.043   2.593  0.2408 -0.0368 -0.1636
33314SOL    HW1 2384   6.205   6.954   2.584 -0.3641 -0.4629  1.4078
33314SOL    HW2 2385   6.229   7.097   2.539  1.5639 -1.1638  0.0855
33315SOL     OW 2386   4.997   4.687   6.923  0.0772 -0.0506  0.1933
33315SOL    HW1 2387   4.964   4.767   6.883 -0.8083  0.1406  1.2662
33315SOL    HW2 2388   4.986   4.700   7.017  1.7470 -0.6509  0.5175
33316SOL     OW 2389   9.543   0.572   4.310 -0.6601 -0.6352  0.3604
33316SOL    HW1 2390   9.611   0.505   4.308  0.0573  0.0935 -0.6159
33316SOL    HW2 2391   9.543   0.610   4.222 -1.2159  0.4693  0.8093
33317SOL     OW 2392   2.073   1.907   4.098  0.2953  0.3204 -0.0714
33317SOL    HW1 2393   1.998   1.945   4.142  0.6641  1.3278 -0.2849
33317SOL    HW2 2394   2.149   1.941   4.146  0.7140  1.5785 -1.5497
33318SOL     OW 2395   9.638   7.477   3.526  0.1450 -0.1021 -0.2374
33318SOL    HW1 2396   9.546   7.460   3.506  0.4916 -2.4379 -0.1674
33318SOL    HW2 2397   9.651   7.440   3.613  1.0415  0.6806 -0.0182
33319SOL     OW 2398   1.873   1.105   7.391  0.0122  0.6787  0.4342
33319SOL    HW1 2399   1.884   1.019   7.352  0.6609  0.8292  0.2633
33319SOL    HW2 2400   1.846   1.162   7.319 -0.7816  0.5447  0.6225
33320SOL     OW 2401   4.106   0.663   6.263 -0.3831 -0.7305 -0.4632
33320SOL    HW1 2402   4.100   0.701   6.175 -2.8754 -2.3074 -1.0873
33320SOL    HW2 2403   4.178   0.601   6.257  1.6072  1.4247 -0.3591
33321SOL     OW 2404   6.471   2.391   9.095  0.3366  0.5657  0.5865
33321SOL    HW1 2405   6.387   2.354   9.121  0.7263 -0.4552  0.4182
33321SOL    HW2 2406   6.449   2.476   9.055 -0.6781 -0.0234 -0.1369
33322SOL     OW 2407   9.414   4.684   8.799  0.4167 -0.7563 -0.0658
33322SOL    HW1 2408   9.396   4.593   8.820 -1.3913 -0.4001  0.0709
33322SOL    HW2 2409   9.449   4.682   8.710 -2.3438 -1.4033 -1.2465
33323SOL     OW 2410   3.542   4.590   2.884 -0.1032 -0.8409 -0.1931
33323SOL    HW1 2411   3.564   4.623   2.971 -0.8041  1.4680 -0.8211
33323SOL    HW2 2412   3.450   4.614   2.872 -0.2214 -1.7565 -1.2917
33324SOL     OW 2413   0.927   4.701   4.941 -0.2179  0.2453 -0.1398
33324SOL    HW1 2414   0.952   4.663   4.857  0.8160  0.1763  0.1955
33324SOL    HW2 2415   0.992   4.668   5.003 -0.8085  0.5187  0.6409
33325SOL     OW 2416   2.164   0.094   1.115  0.0404  0.0118 -0.0300
33325SOL    HW1 2417   2.231   0.031   1.088 -0.3388  0.3274 -1.8317
33325SOL    HW2 2418   2.200   0.179   1.092 -0.1949  0.3254  0.7485
33326SOL     OW 2419   3.753   5.301   0.485 -0.2244  0.1027 -0.2244
33326SOL    HW1 2420   3.833   5.324   0.439 -0.1515  0.2384 -0.0303
33326SOL    HW2 2421   3.777   5.301   0.578 -0.3034 -0.4411 -0.2031
33327SOL     OW 2422   2.159   1.840   2.216 -0.1824  0.0996  0.4447
33327SOL    HW1 2423   2.126   1.771   2.158  0.7361 -0.4028  0.5057
33327SOL    HW2 2424   2.095   1.911   2.208 -1.8797 -1.2387  1.3725
33328SOL     OW 2425   3.954   6.218   6.474  0.2808  0.2189 -0.1554
33328SOL    HW1 2426   3.911   6.149   6.525 -1.7973  1.2826 -0.4004
33328SOL    HW2 2427   4.047   6.207   6.494 -0.1008 -1.8555  0.7843
33329SOL     OW 2428   1.528   0.969   5.551  0.4025 -0.4052  0.6781
33329SOL    HW1 2429   1.439   0.979   5.518  0.4322 -0.9335  0.4347
33329SOL    HW2 2430   1.573   1.049   5.523  0.7701 -1.3646 -1.6821
33330SOL     OW 2431   9.918   2.671   4.592  0.0129  0.2211  0.5507
33330SOL    HW1 2432   9.846   2.673   4.655 -0.9303  0.3933 -0.5185
33330SOL    HW2 2433   9.953   2.581   4.599  2.0783  1.0729  3.6369
33331SOL     OW 2434   8.624   7.278   0.482 -0.0203 -0.3296  0.0770
33331SOL    HW1 2435   8.657   7.260   0.570 -0.5089  1.3103  0.6239
33331SOL    HW2 2436   8.598   7.192   0.449  1.3565 -1.1528  1.0209
33332SOL     OW 2437   6.054   7.043   4.571  0.0832  0.2688  0.6542
33332SOL    HW1 2438   6.136   7.089   4.589  2.0596 -2.4546 -0.6818
33332SOL    HW2 2439   6.049   7.039   4.475 -1.1343 -0.4423  0.7256
33333SOL     OW 2440   2.710   8.075   3.325 -0.1226  0.6755  0.0072
33333SOL    HW1 2441   2.704   8.170   3.322 -2.1149  0.5699 -2.0104
33333SOL    HW2 2442   2.619   8.045   3.327  0.4622 -1.1990  0.9674
33334SOL     OW 2443   6.907   2.080   8.008  0.2964 -0.4485 -0.3307
33334SOL    HW1 2444   6.887   2.043   8.094  0.1527  2.1789  0.8527
33334SOL    HW2 2445   7.001   2.100   8.012 -0.0698  1.3589 -0.0447
33335SOL     OW 2446   0.596   2.151   4.427  0.6996  0.6721 -0.3658
33335SOL    HW1 2447   0.583   2.065   4.388 -2.2084  0.1339  1.5188
33335SOL    HW2 2448   0.673   2.142   4.483  2.1075  0.1777 -2.2839
33336SOL     OW 2449   6.847   2.327   9.806 -0.4566 -0.3681 -0.1933
33336SOL    HW1 2450   6.837   2.420   9.825 -0.3701 -0.8353  2.7031
33336SOL    HW2 2451   6.942   2.313   9.803 -0.4697 -0.3336 -0.9028
33337SOL     OW 2452   2.775  10.464   2.884 -0.0320  0.2961 -0.2759
33337SOL    HW1 2453   2.839  10.430   2.822 -0.2623  0.1826 -0.4521
33337SOL    HW2 2454   2.805  10.553   2.902  0.1669  0.2493 -0.3702
33338SOL     OW 2455   2.951   5.076   0.823  0.7113 -0.5289  0.6531
33338SOL    HW1 2456   2.930   4.983   0.830 -1.2328 -0.3445 -1.5418
33338SOL    HW2 2457   2.904   5.106   0.745  2.3231  2.0301  0.5475
33339SOL     OW 2458   0.662   4.921   8.562  0.6575 -0.4829 -0.0836
33339SOL    HW1 2459   0.620   4.999   8.528  2.1669 -0.4282 -1.9838
33339SOL    HW2 2460   0.704   4.950   8.644  1.6422  0.8603 -1.0242
33340SOL     OW 2461   9.622   4.303   0.246 -0.1703 -0.1326  0.0498
33340SOL    HW1 2462   9.636   4.397   0.239  0.1433 -0.2059 -0.3160
33340SOL    HW2 2463   9.626   4.285   0.340 -2.7412  0.6053  0.3818
33341SOL     OW 2464   4.449   1.140  10.135  0.4182  0.1367 -0.1079
33341SOL    HW1 2465   4.440   1.065  10.077  0.8862  1.4074 -1.9134
33341SOL    HW2 2466   4.512   1.197  10.091 -0.6726  2.0516  0.6697
33342SOL     OW 2467   9.149   3.872   2.119 -0.3146 -0.2826  0.0437
33342SOL    HW1 2468   9.101   3.798   2.156  0.2605 -0.8013 -0.2139
33342SOL    HW2 2469   9.240   3.841   2.115 -0.3464 -0.2482 -1.7875
33343SOL     OW 2470   2.798   1.834   0.327  0.3756  0.4036 -0.0904
33343SOL    HW1 2471   2.848   1.753   0.338  1.1143  0.6161 -1.5981
33343SOL    HW2 2472   2.719   1.821   0.379  0.6982 -1.1013  0.0730
33344SOL     OW 2473   1.370   3.085   9.663  0.3882  0.0671  0.0126
33344SOL    HW1 2474   1.415   3.006   9.693 -0.2209 -0.7574 -1.1771
33344SOL    HW2 2475   1.437   3.133   9.614  0.9909  0.7233  1.4352
33345SOL     OW 2476   1.189   0.725  10.400 -0.0214 -0.3034  0.5866
33345SOL    HW1 2477   1.144   0.803  10.368  1.8315  1.6874  2.5472
33345SOL    HW2 2478   1.266   0.716  10.344 -0.8779 -1.5579 -0.4526
33346SOL     OW 2479   2.156   1.932   0.101 -0.1207 -0.1374 -0.1535
33346SOL    HW1 2480   2.087   1.997   0.101  1.7022  1.9786 -2.0650
33346SOL    HW2 2481   2.113   1.851   0.075 -2.5156  0.1218  2.6004
33347SOL     OW 2482   0.894   0.065   1.782 -0.3834 -0.6283  0.6509
33347SOL    HW1 2483   0.951  -0.002   1.820 -0.6646 -0.9934  0.4336
33347SOL    HW2 2484   0.845   0.100   1.856 -0.9840 -1.3903  0.6307
33348SOL     OW 2485   7.162   4.906   0.556 -0.1260  0.4119 -0.8378
33348SOL    HW1 2486   7.204   4.843   0.498 -1.0877 -2.5730  1.4878
33348SOL    HW2 2487   7.229   4.928   0.621 -0.1104  1.0661 -1.0613
33349SOL     OW 2488   4.720   4.069   4.925 -0.6145  0.4001  0.0486
33349SOL    HW1 2489   4.635   4.034   4.951 -0.7540  0.0361 -0.8607
33349SOL    HW2 2490   4.782   4.026   4.983 -1.1574  1.6347  1.5907
33350SOL     OW 2491   7.836   2.673   1.933 -0.0324  0.2845 -0.1232
33350SOL    HW1 2492   7.753   2.656   1.888  0.3735  1.3645 -1.3753
33350SOL    HW2 2493   7.884   2.591   1.926 -0.6165 -0.0569 -0.2332
33351SOL     OW 2494   6.807   3.286   6.416 -0.8885 -0.1961  0.2758
33351SOL    HW1 2495   6.850   3.200   6.421 -1.6379 -0.6012 -0.0927
33351SOL    HW2 2496   6.865   3.345   6.464  0.2953 -0.6421 -0.5631
33352SOL     OW 2497   0.567   5.502   0.301  0.1889 -0.9942  0.0603
33352SOL    HW1 2498   0.622   5.581   0.292  0.7708 -1.5186 -1.2984
33352SOL    HW2 2499   0.484   5.535   0.335 -0.2091  0.5191 -2.1337
33353SOL     OW 2500   1.322   1.814   9.448 -0.1682  0.6902  0.3654
33353SOL    HW1 2501   1.271   1.771   9.380 -0.0999  0.1400  0.6516
33353SOL    HW2 2502   1.408   1.827   9.408 -0.2093  0.6166  0.2501
33354SOL     OW 2503   7.788   7.482   2.645  0.0768 -0.0594 -0.0097
33354SOL    HW1 2504   7.724   7.419   2.679  0.7988 -1.2895 -0.8409
33354SOL    HW2 2505   7.737   7.561   2.627 -0.7838 -0.2589  1.4194
33355SOL     OW 2506   2.033   3.762   4.889  0.2409  0.7835  0.0658
33355SOL    HW1 2507   2.101   3.751   4.956  1.7656  2.6749 -1.0670
33355SOL    HW2 2508   2.053   3.846   4.848 -1.3621  0.2517 -1.9701
33356SOL     OW 2509   7.584   7.711   4.101  0.3279 -0.0713  0.6926
33356SOL    HW1 2510   7.646   7.661   4.154  0.0954 -2.6663 -1.3158
33356SOL    HW2 2511   7.513   7.650   4.082 -1.0041  1.6752 -0.2215
33357SOL     OW 2512   6.794   1.583   9.514 -0.2423  0.3893 -0.5127
33357SOL    HW1 2513   6.855   1.657   9.513 -1.8222  1.7374 -1.8833
33357SOL    HW2 2514   6.851   1.506   9.511  1.4182  1.5488 -0.5064
33358SOL     OW 2515   6.723   0.571   8.281  0.0068  0.3338  0.2706
33358SOL    HW1 2516   6.813   0.584   8.312 -0.3203  0.8420  1.0378
33358SOL    HW2 2517   6.669   0.584   8.358 -0.5680 -3.4089  0.6723
33359SOL     OW 2518   2.544   3.581   7.655  0.2252 -0.6189  0.1008
33359SOL    HW1 2519   2.477   3.533   7.606 -0.0722 -1.6668  1.4633
33359SOL    HW2 2520   2.496   3.654   7.695  0.6522  0.8152 -1.8632
33360SOL     OW 2521   0.318   7.141   2.259 -0.0367  0.3621  0.2096
33360SOL    HW1 2522   0.267   7.216   2.291 -2.6196 -1.2404  0.1748
33360SOL    HW2 2523   0.315   7.078   2.331  0.4181 -0.4285 -0.4429
33361SOL     OW 2524   3.938   0.703   9.190  0.1748  0.1077 -0.2720
33361SOL    HW1 2525   4.028   0.734   9.184 -0.7980  4.2182  2.1714
33361SOL    HW2 2526   3.892   0.747   9.119 -0.5057  1.0806  0.7303
33362SOL     OW 2527  10.055   5.395   8.970 -0.2875  0.2384  0.1402
33362SOL    HW1 2528   9.987   5.332   8.945  1.2773 -0.7900 -1.9020
33362SOL    HW2 2529  10.120   5.342   9.017 -0.4388  1.0163  1.2583
33363SOL     OW 2530   9.920   6.320   1.857  0.4343 -0.4384  0.1118
33363SOL    HW1 2531   9.961   6.406   1.847  1.5974 -0.9420  0.3030
33363SOL    HW2 2532   9.827   6.336   1.845  0.6054  0.8834  0.3389
33364SOL     OW 2533   0.481   9.409   0.033 -0.0862  0.0870 -0.5475
33364SOL    HW1 2534   0.486   9.330  -0.022  2.3786 -0.1993 -0.0084
33364SOL    HW2 2535   0.452   9.377   0.118 -2.1823  0.2835 -1.1261
33365SOL     OW 2536   3.014   3.697   6.701 -1.1455  0.0382  0.6380
33365SOL    HW1 2537   2.946   3.646   6.656 -2.5836  0.1654  2.5314
33365SOL    HW2 2538   2.966   3.749   6.765  0.8092 -0.6232  2.7734
33366SOL     OW 2539   4.779   7.500   4.174 -0.5994  0.1413  0.2367
33366SOL    HW1 2540   4.759   7.415   4.212  0.9155  0.0176  0.8096
33366SOL    HW2 2541   4.781   7.484   4.079  1.4588 -0.8979  0.4089
33367SOL     OW 2542   1.937   2.109   0.089 -0.5723 -0.4285  0.3504
33367SOL    HW1 2543   1.849   2.084   0.117 -0.1859 -1.5883  0.5940
33367SOL    HW2 2544   1.925   2.146   0.001 -1.3545 -0.1068  0.5877
33368SOL     OW 2545  10.297  10.112   3.709 -0.1678 -0.4058  0.0739
33368SOL    HW1 2546  10.237  10.078   3.775  0.1144  0.2375  0.6705
33368SOL    HW2 2547  10.384  10.087   3.741 -0.0871 -1.0915 -0.6440
33369SOL     OW 2548   3.393   2.752   1.167 -0.4008 -0.0585 -0.0733
33369SOL    HW1 2549   3.383   2.734   1.073  1.0713 -2.7226  0.1811
33369SOL    HW2 2550   3.394   2.847   1.173  0.9302  0.2228 -2.9470
33370SOL     OW 2551   6.153   7.491   8.068  0.3412  0.3390 -0.0341
33370SOL    HW1 2552   6.089   7.530   8.010 -0.1186  3.6205  2.4385
33370SOL    HW2 2553   6.109   7.413   8.103 -1.7886  1.7014  0.5004
33371SOL     OW 2554  10.093   5.401   6.226  0.4983  0.0005 -0.4932
33371SOL    HW1 2555  10.001   5.383   6.206  0.6335 -0.8814 -0.3513
33371SOL    HW2 2556  10.104   5.369   6.316  0.7731  0.7459 -0.2541
33372SOL     OW 2557   1.311   2.650   4.662  0.1654 -0.3349  0.2787
33372SOL    HW1 2558   1.383   2.609   4.711 -0.4917 -0.6590  1.0022
33372SOL    HW2 2559   1.232   2.612   4.700 -0.3817 -0.3934 -0.8783
33373SOL     OW 2560   6.124   3.741   2.162 -0.4268 -0.0333  0.9395
33373SOL    HW1 2561   6.217   3.748   2.187 -0.1279  1.2264 -0.4122
33373SOL    HW2 2562   6.108   3.819   2.109 -2.2708 -0.2623  1.1258
33374SOL     OW 2563   0.776   0.834  10.388  0.1072 -0.3107 -0.3720
33374SOL    HW1 2564   0.717   0.907  10.402  0.3971 -0.0956 -0.2715
33374SOL    HW2 2565   0.780   0.789  10.472  0.2642 -0.1907 -0.3137
33375SOL     OW 2566   2.312   9.966   1.868  0.1845  0.4398  0.2987
33375SOL    HW1 2567   2.312   9.958   1.773 -0.6164  1.2963  0.2064
33375SOL    HW2 2568   2.404   9.972   1.892  0.3999  0.0252 -0.4053
33376SOL     OW 2569   2.792  10.382   5.514 -0.3983  0.2744 -0.5425
33376SOL    HW1 2570   2.844  10.430   5.579 -1.7766  0.8940  0.1265
33376SOL    HW2 2571   2.763  10.450   5.453 -3.1319  0.5204  0.9108
33377SOL     OW 2572   7.051   0.007   4.519 -0.4933 -0.3725  0.2639
33377SOL    HW1 2573   7.003   0.036   4.441  0.9372 -0.0039 -0.5053
33377SOL    HW2 2574   7.060  -0.088   4.508 -0.0677 -0.2864 -0.1575
33378SOL     OW 2575   4.053  10.231   2.522  0.1544  0.5460 -0.0539
33378SOL    HW1 2576   3.962  10.250   2.545 -0.1852  0.2759 -1.1430
33378SOL    HW2 2577   4.055  10.232   2.427  1.1476 -0.1459 -0.0561
33379SOL     OW 2578   3.422   5.517   0.471 -0.3549  0.2420  0.2362
33379SOL    HW1 2579   3.516   5.532   0.465 -0.2733 -0.3675 -0.1752
33379SOL    HW2 2580   3.413   5.439   0.525 -0.6405  0.4306  0.4669
33380SOL     OW 2581   9.568   9.243   5.633 -0.2018  0.1817 -0.3077
33380SOL    HW1 2582   9.479   9.254   5.667  0.0623 -0.1247  0.4794
33380SOL    HW2 2583   9.625   9.248   5.709  0.6485  2.3068 -0.9923
33381SOL     OW 2584  10.311   6.460  10.443 -0.5404 -0.1937  0.2846
33381SOL    HW1 2585  10.227   6.471  10.399  0.9357  0.9185 -2.5455
33381SOL    HW2 2586  10.314   6.529  10.509 -0.8614  1.4533 -1.3498
33382SOL     OW 2587   1.739   7.786   1.685 -0.3058 -0.3565  0.3132
33382SOL    HW1 2588   1.803   7.758   1.751 -1.2523 -0.6472  1.1265
33382SOL    HW2 2589   1.692   7.707   1.662  1.3224 -0.6956 -2.2600
33383SOL     OW 2590   6.092   0.019   9.841  0.7375 -0.7282  0.3754
33383SOL    HW1 2591   6.020   0.006   9.779  1.1881 -2.4092  0.1679
33383SOL    HW2 2592   6.053   0.002   9.927  0.6272 -0.5500  0.3608
33384SOL     OW 2593   0.885   8.939   9.048 -0.3625 -0.3625  0.5564
33384SOL    HW1 2594   0.964   8.888   9.068 -0.4978  0.2697  3.0613
33384SOL    HW2 2595   0.845   8.893   8.974  1.7623 -1.3377 -0.0601
33385SOL     OW 2596   2.053  10.256   0.627  0.2149  0.0721 -0.0018
33385SOL    HW1 2597   2.148  10.259   0.638  0.3907 -0.8083 -1.0230
33385SOL    HW2 2598   2.029  10.344   0.599  0.2376  1.2453  3.2925
33386SOL     OW 2599   3.247   3.279   1.302  0.3199 -0.1261  0.0594
33386SOL    HW1 2600   3.201   3.199   1.327  0.0487  0.1631  0.5216
33386SOL    HW2 2601   3.188   3.321   1.238 -0.3799  0.5474  1.1093
33387SOL     OW 2602   0.741   8.035   6.357  0.0622 -0.1163 -0.2359
33387SOL    HW1 2603   0.729   7.969   6.288  0.9128 -0.9274  0.3677
33387SOL    HW2 2604   0.677   8.013   6.424  0.1026 -0.1154 -0.1963
33388SOL     OW 2605   6.230   3.798   2.570  0.2944 -0.3066 -0.3477
33388SOL    HW1 2606   6.322   3.805   2.544  0.4187  0.8651  0.3420
33388SOL    HW2 2607   6.230   3.820   2.663 -0.8302  0.9272 -0.6160
33389SOL     OW 2608   5.172   3.919   4.255  0.6104 -0.5408  0.9058
33389SOL    HW1 2609   5.082   3.908   4.225  0.5358 -0.2425  1.0114
33389SOL    HW2 2610   5.164   3.953   4.344  0.8246 -0.1157  0.7691
33390SOL     OW 2611   0.514   9.983   8.663 -0.6360  0.1199  0.0474
33390SOL    HW1 2612   0.444   9.937   8.710 -0.0423 -0.8538  0.0052
33390SOL    HW2 2613   0.590   9.926   8.673 -0.3389  0.2089 -1.5524
33391SOL     OW 2614   9.248   9.383   0.929 -0.7087  0.2570 -0.5433
33391SOL    HW1 2615   9.264   9.307   0.984 -0.3662  0.6849 -0.0354
33391SOL    HW2 2616   9.307   9.373   0.855  1.2826  1.3010  0.7993
33392SOL     OW 2617   0.165   2.522   7.757 -0.0104 -0.0458  0.0942
33392SOL    HW1 2618   0.222   2.595   7.735 -0.3963 -0.0053 -0.7945
33392SOL    HW2 2619   0.139   2.485   7.673 -1.5344  0.1264  0.4668
33393SOL     OW 2620   6.230   3.739   3.605 -0.3458  0.5516 -0.1367
33393SOL    HW1 2621   6.236   3.829   3.639  0.2436  0.3368  0.3631
33393SOL    HW2 2622   6.311   3.698   3.635  0.2770  0.3870 -1.9536
33394SOL     OW 2623   1.928   7.481   5.481  0.2355 -0.0522 -0.0326
33394SOL    HW1 2624   1.908   7.550   5.418 -0.9850 -0.7326 -0.4146
33394SOL    HW2 2625   1.867   7.410   5.460 -2.6600  0.9042  3.9919
33395SOL     OW 2626   0.839   5.283   3.478 -0.4580 -0.2781 -0.0416
33395SOL    HW1 2627   0.904   5.220   3.510 -1.7010 -0.9193  1.3525
33395SOL    HW2 2628   0.881   5.368   3.490 -0.2177 -0.6085  1.8107
33396SOL     OW 2629   8.732   6.474   3.117  0.0938  0.0764  0.0599
33396SOL    HW1 2630   8.774   6.412   3.058  1.1756 -2.4008  3.1757
33396SOL    HW2 2631   8.804   6.512   3.167 -0.8531  1.2939  0.5358
33397SOL     OW 2632   8.365   6.543   4.557 -0.2761 -0.0193 -0.2449
33397SOL    HW1 2633   8.422   6.467   4.552  1.1653  1.0761 -1.3340
33397SOL    HW2 2634   8.414   6.613   4.515 -1.4965  1.5683  0.8225
33398SOL     OW 2635   3.476   7.279   1.811 -0.4639 -0.1014 -0.4158
33398SOL    HW1 2636   3.453   7.219   1.740  1.4978  1.4574 -2.5320
33398SOL    HW2 2637   3.406   7.344   1.811 -0.9772 -0.6435 -0.2274
33399SOL     OW 2638   8.873   4.892   9.233 -0.2449  0.1659  0.0528
33399SOL    HW1 2639   8.916   4.824   9.180  0.4285  0.1379  0.6275
33399SOL    HW2 2640   8.782   4.892   9.202 -0.2446 -0.9549  0.0000
33400SOL     OW 2641   1.106   3.557   6.004  0.0292  0.2264  0.1721
33400SOL    HW1 2642   1.110   3.652   5.997  2.2133  0.2779  1.0616
33400SOL    HW2 2643   1.123   3.539   6.097  0.6287 -1.0245 -0.1470
33401SOL     OW 2644   6.722   2.330   9.294 -0.0580  0.3130 -0.0281
33401SOL    HW1 2645   6.633   2.358   9.271  0.1108  0.8534 -0.0306
33401SOL    HW2 2646   6.746   2.267   9.226 -0.8402 -0.6595  0.5602
33402SOL     OW 2647   3.415   6.551   6.761  0.0632  0.5615  0.2261
33402SOL    HW1 2648   3.496   6.544   6.811 -0.4554  0.5288  1.0848
33402SOL    HW2 2649   3.371   6.628   6.798 -1.3089 -0.6686  1.3079
33403SOL     OW 2650   4.378   4.824   4.014  0.3232 -0.2580 -0.3458
33403SOL    HW1 2651   4.303   4.856   3.965 -0.1580  1.1676  1.2570
33403SOL    HW2 2652   4.340   4.783   4.092  1.1809  0.7845  0.6553
33404SOL     OW 2653   1.625   4.000   0.292  0.2339  0.2888  0.4769
33404SOL    HW1 2654   1.706   4.050   0.296 -0.2589  1.0518  1.5339
33404SOL    HW2 2655   1.564   4.049   0.348 -0.9110 -0.3398 -0.1782
33405SOL     OW 2656   5.453   2.643   3.685  0.4724  0.4542  0.5943
33405SOL    HW1 2657   5.448   2.571   3.622  1.6367 -0.3517  1.3766
33405SOL    HW2 2658   5.375   2.695   3.668  0.1405 -0.4143 -0.6970
33406SOL     OW 2659   6.486   2.718   9.787  0.7630 -0.3644  0.0884
33406SOL    HW1 2660   6.532   2.790   9.831 -0.8091  2.0899 -1.9956
33406SOL    HW2 2661   6.407   2.704   9.840  1.2228 -0.7988  0.6703
33407SOL     OW 2662   4.910   8.344   4.170 -0.0089  0.4455  0.0217
33407SOL    HW1 2663   4.894   8.258   4.209 -1.8831 -0.2400 -2.0472
33407SOL    HW2 2664   5.004   8.345   4.151  0.5303 -0.0644  2.3532
33408SOL     OW 2665   9.083   6.900   2.822 -0.3054 -0.4167  0.8975
33408SOL    HW1 2666   9.156   6.961   2.835  0.9930 -1.1845 -1.9544
33408SOL    HW2 2667   9.004   6.952   2.840  0.8282  1.4793  0.6130
33409SOL     OW 2668   7.919   7.734   1.181 -0.6023  0.3493  0.3263
33409SOL    HW1 2669   7.835   7.733   1.137 -0.6810 -1.0575  0.4715
33409SOL    HW2 2670   7.970   7.800   1.134 -1.7925  1.2706  0.2922
33410SOL     OW 2671   4.209   2.657   4.159  0.2156  0.3610 -1.1275
33410SOL    HW1 2672   4.282   2.717   4.140 -0.1575  0.6215 -1.7816
33410SOL    HW2 2673   4.227   2.625   4.247  1.3410  0.1163 -1.4259
33411SOL     OW 2674   9.479   0.801  10.458 -0.5896 -0.1634  0.2170
33411SOL    HW1 2675   9.510   0.714  10.482 -0.2839  0.4073  2.1161
33411SOL    HW2 2676   9.453   0.794  10.366  1.3673 -1.7143 -0.2734
33412SOL     OW 2677   4.643   5.629   5.930  0.0429 -0.0095 -0.3106
33412SOL    HW1 2678   4.695   5.706   5.951  0.1415 -0.1895  0.1193
33412SOL    HW2 2679   4.571   5.662   5.876  1.0665  0.1117 -1.6407
33413SOL     OW 2680   0.616   9.184   8.149 -0.1659 -0.1348 -0.3878
33413SOL    HW1 2681   0.544   9.171   8.210 -0.5710  1.9402 -0.3577
33413SOL    HW2 2682   0.582   9.156   8.064 -0.5118 -0.5078 -0.1278
33414SOL     OW 2683   4.454   1.930   7.237 -0.0453 -0.4860  0.1359
33414SOL    HW1 2684   4.365   1.909   7.210  0.3627 -0.1967 -1.5766
33414SOL    HW2 2685   4.501   1.942   7.154  1.1492  1.1512  1.0002
33415SOL     OW 2686   3.441   0.201   0.855 -0.6457 -0.0171 -0.5305
33415SOL    HW1 2687   3.467   0.211   0.764 -0.4491 -0.0546 -0.4785
33415SOL    HW2 2688   3.351   0.233   0.858  0.1578  2.4784 -0.2422
33416SOL     OW 2689   9.416   4.285   5.446 -0.3007  0.0285 -0.0817
33416SOL    HW1 2690   9.368   4.323   5.519  1.2565  1.6099  0.1828
33416SOL    HW2 2691   9.409   4.350   5.376  0.1785 -0.3962 -0.5313
33417SOL     OW 2692   3.425   2.476   5.420 -0.1402 -0.6622 -0.0301
33417SOL    HW1 2693   3.359   2.523   5.471 -1.1505  0.9373 -2.6056
33417SOL    HW2 2694   3.384   2.392   5.398 -0.6563 -0.3693 -0.2030
33418SOL     OW 2695   4.545   4.475   4.412  0.0104 -0.4904 -0.5463
33418SOL    HW1 2696   4.579   4.417   4.345  0.1056  1.6496 -2.4772
33418SOL    HW2 2697   4.593   4.451   4.492 -0.1135 -3.0967 -1.1760
33419SOL     OW 2698   8.983   3.092   7.523 -0.5918  0.1757  0.1576
33419SOL    HW1 2699   8.947   3.179   7.507  0.3331  0.1760 -2.2792
33419SOL    HW2 2700   9.078   3.107   7.530 -0.5349 -0.4947  0.9361
33420SOL     OW 2701   8.020   1.354   9.116 -0.0026  0.4079 -0.3946
33420SOL    HW1 2702   8.004   1.356   9.210  0.6233  0.1615 -0.2783
33420SOL    HW2 2703   7.935   1.333   9.077  0.4202 -3.4082  0.3358
33421SOL     OW 2704   9.620   2.255   6.994  0.1516  0.4364  0.2475
33421SOL    HW1 2705   9.568   2.264   7.074 -0.2800  0.1641  0.0054
33421SOL    HW2 2706   9.691   2.318   7.003  0.3001  0.1647  0.9986
33422SOL     OW 2707   9.769   4.487   8.275  0.4810  0.1087 -0.4158
33422SOL    HW1 2708   9.772   4.564   8.333 -2.9554 -0.7442  1.1391
33422SOL    HW2 2709   9.800   4.520   8.191 -0.1268  3.0396  0.3835
33423SOL     OW 2710   6.585   1.567   3.161 -0.0081  0.3308 -0.1919
33423SOL    HW1 2711   6.529   1.491   3.177 -0.2097  0.7346  1.1543
33423SOL    HW2 2712   6.674   1.532   3.160 -0.1378 -0.0037 -0.1795
33424SOL     OW 2713   7.276   0.196   6.422  0.2923  0.6949 -0.1916
33424SOL    HW1 2714   7.358   0.221   6.464 -0.1592  0.4847  0.8505
33424SOL    HW2 2715   7.208   0.231   6.479 -0.3827  2.2997 -1.8966
33425SOL     OW 2716   9.783   2.527   1.340  0.0628  0.0028 -0.4448
33425SOL    HW1 2717   9.770   2.507   1.432 -1.7389 -2.0231 -1.0584
33425SOL    HW2 2718   9.740   2.612   1.328 -0.2229 -0.0095  0.4378
33426SOL     OW 2719   9.967   5.620  10.197  0.1453 -0.2188 -0.6704
33426SOL    HW1 2720   9.981   5.544  10.254  0.2329  1.7831  2.1815
33426SOL    HW2 2721  10.054   5.655  10.181 -0.0107  0.1124 -0.7958
33427SOL     OW 2722   4.890   0.640   0.145  0.3982 -0.2502 -0.1366
33427SOL    HW1 2723   4.911   0.719   0.095 -0.7856 -0.2815 -0.7182
33427SOL    HW2 2724   4.797   0.627   0.130  0.2299 -0.8142  1.3223
33428SOL     OW 2725   3.089   4.975   6.825 -0.3879  0.1146 -0.2989
33428SOL    HW1 2726   3.138   5.054   6.803 -2.2582  1.0777 -1.2249
33428SOL    HW2 2727   3.125   4.948   6.910  0.0240  2.2055  0.2485
33429SOL     OW 2728   2.090   2.902   0.457  0.1027  0.3069 -0.5925
33429SOL    HW1 2729   2.098   2.886   0.551 -2.1311 -2.4913 -0.7298
33429SOL    HW2 2730   2.180   2.908   0.426  0.9147  0.4992  1.5957
33430SOL     OW 2731   0.638   2.920   3.910  0.3783  0.3624 -0.1567
33430SOL    HW1 2732   0.720   2.965   3.931  0.8323 -1.0621  1.2603
33430SOL    HW2 2733   0.578   2.948   3.979 -0.0405  0.5987 -0.6104
33431SOL     OW 2734   9.205   9.013   9.185  0.2475  0.3702 -0.1312
33431SOL    HW1 2735   9.269   9.014   9.114 -0.1246 -0.6237 -0.4961
33431SOL    HW2 2736   9.132   8.962   9.151 -1.0570  2.0620  0.0143
33432SOL     OW 2737   3.053   7.364   5.594  0.1517 -0.4568 -0.0461
33432SOL    HW1 2738   3.097   7.315   5.664  1.8363  0.6377 -0.2708
33432SOL    HW2 2739   2.973   7.397   5.634  0.4867 -0.8889  1.0129
33433SOL     OW 2740   8.876   2.479   7.677  0.1898 -0.3917 -0.2550
33433SOL    HW1 2741   8.941   2.414   7.650  0.1882 -0.5527  0.1331
33433SOL    HW2 2742   8.792   2.443   7.649 -0.0813 -1.6764  2.0067
33434SOL     OW 2743   1.907   6.936   6.015  0.5704 -0.3425 -0.2355
33434SOL    HW1 2744   1.952   7.012   6.051 -1.2191  0.5636  0.2443
33434SOL    HW2 2745   1.866   6.894   6.091 -0.4065 -0.3958 -0.7654
33435SOL     OW 2746   1.632   3.344   6.749 -0.5909 -0.1395 -0.2916
33435SOL    HW1 2747   1.719   3.331   6.711 -0.2754 -0.9278  0.6358
33435SOL    HW2 2748   1.582   3.389   6.681  0.0640 -1.1231 -1.4773
33436SOL     OW 2749   9.021   7.963   6.806  0.1830  0.3206  0.0499
33436SOL    HW1 2750   9.085   7.925   6.867 -2.3023 -3.0942  0.8441
33436SOL    HW2 2751   9.042   7.921   6.722 -1.4471 -1.5801  0.5225
33437SOL     OW 2752   3.265   9.123   0.418 -0.3135  0.3146 -0.4502
33437SOL    HW1 2753   3.247   9.159   0.331 -0.5406 -0.0261 -0.5478
33437SOL    HW2 2754   3.196   9.058   0.431 -0.7685  0.9440  0.3327
33438SOL     OW 2755   4.344   7.465   4.370 -0.3308  0.4663  0.7384
33438SOL    HW1 2756   4.306   7.535   4.318  0.6985 -0.6312 -1.6685
33438SOL    HW2 2757   4.272   7.403   4.384 -0.8614  1.2472  1.5429
33439SOL     OW 2758   5.329   7.005   5.842  0.1748 -0.3029 -0.1629
33439SOL    HW1 2759   5.255   7.060   5.867  1.0799  1.9243 -2.0337
33439SOL    HW2 2760   5.398   7.027   5.903 -0.0289 -0.8032  0.2579
33440SOL     OW 2761   8.953   5.095   7.503  0.1958 -0.4863 -0.5479
33440SOL    HW1 2762   9.045   5.112   7.522 -0.2072  0.4108  0.7332
33440SOL    HW2 2763   8.954   5.048   7.420  1.7254  0.8393 -1.3252
33441SOL     OW 2764   0.655   2.849   0.070  0.5401  0.1406  0.0993
33441SOL    HW1 2765   0.635   2.769   0.118  0.3269 -0.1233 -0.4194
33441SOL    HW2 2766   0.711   2.821  -0.002 -1.8355 -0.0433 -1.8091
33442SOL     OW 2767   1.054   1.737   2.951  0.5764 -0.2939  0.7185
33442SOL    HW1 2768   1.078   1.722   3.043  1.0070 -1.2308  0.4679
33442SOL    HW2 2769   1.099   1.667   2.903 -0.2928 -0.2961 -0.1178
33443SOL     OW 2770   8.058   8.651   5.004 -0.0901 -0.1070 -0.0110
33443SOL    HW1 2771   8.028   8.565   5.034  0.9749 -0.3792  0.3418
33443SOL    HW2 2772   8.145   8.634   4.967  1.2440  1.1332  2.2656
33444SOL     OW 2773   2.199   8.757   6.637 -0.8073 -0.1771  0.0966
33444SOL    HW1 2774   2.235   8.841   6.665  2.2695 -1.5243  0.6215
33444SOL    HW2 2775   2.171   8.772   6.547  0.1995  1.2922 -0.0079
33445SOL     OW 2776  10.405   0.375   7.887  0.4846  0.4221 -0.0699
33445SOL    HW1 2777  10.475   0.323   7.925  0.9695  0.1350 -1.3097
33445SOL    HW2 2778  10.396   0.342   7.798  1.0271  2.6559 -1.0311
33446SOL     OW 2779   5.014   5.949   0.550 -0.0077 -0.5820 -0.6494
33446SOL    HW1 2780   5.057   5.977   0.469 -0.8349  2.7645 -0.1048
33446SOL    HW2 2781   4.937   5.900   0.521  0.3250 -0.4263 -1.8429
33447SOL     OW 2782   9.177   5.428   1.191  0.1368 -0.1964 -0.0804
33447SOL    HW1 2783   9.220   5.497   1.140  1.8618 -0.5811  0.7634
33447SOL    HW2 2784   9.227   5.423   1.272 -2.4594  0.3220  1.6778
33448SOL     OW 2785   7.790   4.302   1.996 -0.4663 -0.0342 -0.1868
33448SOL    HW1 2786   7.870   4.253   2.013  0.7036  2.4732  2.2337
33448SOL    HW2 2787   7.787   4.312   1.901  1.2080 -1.5399 -0.4411
33449SOL     OW 2788  10.174   3.389   5.375 -0.0056  1.0428  0.3225
33449SOL    HW1 2789  10.189   3.301   5.341 -1.2235  1.5119 -1.5934
33449SOL    HW2 2790  10.212   3.388   5.463  0.0397 -1.3705  0.3395
33450SOL     OW 2791   7.027   9.750   2.434  0.0181 -0.1031  0.6917
33450SOL    HW1 2792   7.078   9.674   2.463 -1.2236 -1.1691  0.1840
33450SOL    HW2 2793   7.034   9.748   2.339  0.0396  0.4735  0.6801
33451SOL     OW 2794   0.776   0.683   2.928  0.3562 -0.4659  0.3239
33451SOL    HW1 2795   0.850   0.743   2.913  0.2183 -0.0266  1.3160
33451SOL    HW2 2796   0.812   0.614   2.983 -0.4673  0.9543  2.7922
33452SOL     OW 2797   8.568   8.219   8.622 -0.4493  0.4856 -0.4354
33452SOL    HW1 2798   8.492   8.163   8.639  0.1194  0.1524  1.2513
33452SOL    HW2 2799   8.578   8.271   8.702  2.3568 -1.0402  0.3458
33453SOL     OW 2800   8.823   0.534   4.220  0.2377  0.2811 -0.1437
33453SOL    HW1 2801   8.744   0.556   4.269 -0.0411  2.7574 -1.5387
33453SOL    HW2 2802   8.889   0.596   4.251  0.5301  0.7637 -1.6589
33454SOL     OW 2803   1.306   5.122  10.416 -0.2379  0.0072  0.0218
33454SOL    HW1 2804   1.343   5.113  10.504  2.7345 -0.4698 -1.1473
33454SOL    HW2 2805   1.339   5.206  10.385 -1.6497  0.3921 -0.5174
33455SOL     OW 2806   5.323   2.903   0.330  0.3960  0.4114 -0.4324
33455SOL    HW1 2807   5.277   2.966   0.385 -0.0850 -0.7314  0.5336
33455SOL    HW2 2808   5.410   2.940   0.316 -0.1631  1.6869 -0.6420
33456SOL     OW 2809   0.828   7.346   7.830  0.0489  0.1220 -0.1699
33456SOL    HW1 2810   0.856   7.435   7.811  0.6920 -0.1792 -0.6693
33456SOL    HW2 2811   0.898   7.310   7.884  0.0421 -0.2330 -0.3908
33457SOL     OW 2812   6.677   9.136  10.172  0.4885  0.2040  0.3080
33457SOL    HW1 2813   6.657   9.169  10.085  0.8205  3.0991  1.2404
33457SOL    HW2 2814   6.596   9.094  10.201 -0.2249  0.8704 -0.6636
33458SOL     OW 2815   3.008   9.195   1.967  0.1558 -0.8467 -0.2229
33458SOL    HW1 2816   3.045   9.283   1.954  2.7593 -1.9445 -0.8338
33458SOL    HW2 2817   2.970   9.172   1.882  0.3527 -0.7121 -0.3471
33459SOL     OW 2818   7.281   3.149   8.212 -0.0727 -0.1247 -0.2991
33459SOL    HW1 2819   7.239   3.153   8.126  0.6995 -2.3089 -0.8450
33459SOL    HW2 2820   7.354   3.211   8.206 -0.9808  0.9578 -0.6035
33460SOL     OW 2821   1.125   9.073   0.500 -0.5108 -0.3207  0.0614
33460SOL    HW1 2822   1.105   9.152   0.549 -2.9954  0.2954 -1.7678
33460SOL    HW2 2823   1.085   9.002   0.550 -0.9212 -0.0253  0.1498
33461SOL     OW 2824  10.201   6.690   9.856  0.2456 -0.2058  0.0969
33461SOL    HW1 2825  10.229   6.682   9.947  1.9755  1.4938 -0.2065
33461SOL    HW2 2826  10.129   6.754   9.859  2.4382  2.4372  0.0320
33462SOL     OW 2827   2.656   9.263   0.061  0.5405 -0.4281 -0.2362
33462SOL    HW1 2828   2.733   9.302   0.103 -0.0962  1.4461 -0.6951
33462SOL    HW2 2829   2.632   9.326  -0.007 -1.5475 -0.8556  0.0479
33463SOL     OW 2830   7.482   6.193   3.167  0.9126  0.4534  0.4708
33463SOL    HW1 2831   7.539   6.172   3.093 -0.2691  1.2154 -0.7029
33463SOL    HW2 2832   7.525   6.153   3.243  2.1575 -0.3459 -0.6155
33464SOL     OW 2833   1.429   7.535   6.371 -0.4268  0.6615 -0.7955
33464SOL    HW1 2834   1.510   7.556   6.325 -0.5737 -1.4026 -2.1554
33464SOL    HW2 2835   1.456   7.491   6.451 -0.1126 -1.5499 -2.0310
33465SOL     OW 2836   9.629   8.375   2.823  0.4196 -0.1165  0.5191
33465SOL    HW1 2837   9.625   8.470   2.809 -0.8758 -0.4438 -1.8869
33465SOL    HW2 2838   9.545   8.353   2.862 -0.8266 -0.6353 -2.2309
33466SOL     OW 2839   7.414   2.451   1.447  0.3315 -0.2155 -0.3097
33466SOL    HW1 2840   7.331   2.492   1.422  0.6492 -0.3697 -1.6995
33466SOL    HW2 2841   7.424   2.379   1.385  1.5496 -0.1290 -0.2219
33467SOL     OW 2842   7.900   2.572   7.342  0.3495 -0.0628  0.1876
33467SOL    HW1 2843   7.918   2.652   7.392  1.3236  1.0439 -1.7557
33467SOL    HW2 2844   7.833   2.598   7.279  1.1496 -0.5455 -0.9056
33468SOL     OW 2845   3.702   3.005   2.502  0.1881  0.3098 -1.0503
33468SOL    HW1 2846   3.684   2.916   2.472 -0.3720  0.6410 -1.7523
33468SOL    HW2 2847   3.668   3.061   2.431  1.4159  1.0552 -1.0854
33469SOL     OW 2848   4.043   0.638   3.877 -0.7331  0.4554 -0.4165
33469SOL    HW1 2849   4.076   0.554   3.909 -1.6834  1.1510  2.7553
33469SOL    HW2 2850   4.121   0.690   3.861 -0.1704 -0.4975 -0.8529
33470SOL     OW 2851   2.970   7.293   4.156  0.1429 -1.1210 -0.5679
33470SOL    HW1 2852   3.011   7.361   4.103  0.4398 -0.9856 -0.1709
33470SOL    HW2 2853   2.904   7.339   4.208  0.3264 -1.1389 -0.3181
33471SOL     OW 2854   5.241   8.137   8.102  0.2571 -0.5148 -0.4198
33471SOL    HW1 2855   5.222   8.141   8.196  1.4132  0.7076 -0.2277
33471SOL    HW2 2856   5.272   8.047   8.088  1.6715 -0.2352  0.6999
33472SOL     OW 2857   8.110   5.734   9.323  0.6164  0.1448  0.3945
33472SOL    HW1 2858   8.050   5.728   9.248  0.5717  0.6745  0.3785
33472SOL    HW2 2859   8.062   5.695   9.395  0.9631 -1.0812 -0.0231
33473SOL     OW 2860  10.368   3.074   4.756 -0.5987 -0.3408  0.3827
33473SOL    HW1 2861  10.276   3.091   4.734 -0.2032 -0.2908 -1.4283
33473SOL    HW2 2862  10.372   2.980   4.772 -1.1885 -0.1472  1.7407
33474SOL     OW 2863   1.927   6.741   3.203  0.2342 -0.2042  0.4279
33474SOL    HW1 2864   1.908   6.648   3.191  0.8259 -0.0867 -2.1000
33474SOL    HW2 2865   1.844   6.779   3.233 -0.4923 -1.3044 -0.1044
33475SOL     OW 2866   6.595   9.939   2.347 -0.0778  0.2575  0.2025
33475SOL    HW1 2867   6.506   9.923   2.377 -1.4327 -1.6158 -4.0765
33475SOL    HW2 2868   6.630   9.852   2.327  1.6065  1.1560 -1.0008
33476SOL     OW 2869   0.486   9.112   7.941 -0.3101  0.2782 -0.4545
33476SOL    HW1 2870   0.404   9.161   7.935 -0.8559 -0.5112  0.2738
33476SOL    HW2 2871   0.485   9.055   7.863 -0.3213  0.4647 -0.5910
33477SOL     OW 2872   0.377   6.847   3.309  0.1713 -0.2107 -0.0481
33477SOL    HW1 2873   0.429   6.771   3.334  1.3162  0.4976 -0.2198
33477SOL    HW2 2874   0.417   6.920   3.355 -0.5068  0.4016 -0.4028
33478SOL     OW 2875   6.299   5.182   3.845 -0.0149  0.0988 -0.1272
33478SOL    HW1 2876   6.265   5.254   3.791 -0.3745 -1.7986 -2.6223
33478SOL    HW2 2877   6.389   5.169   3.814 -0.2567 -1.0874 -0.3741
33479SOL     OW 2878   5.817   7.105   9.017  0.2898  0.1540 -0.4540
33479SOL    HW1 2879   5.790   7.019   9.052  2.0918  0.4906  2.0564
33479SOL    HW2 2880   5.804   7.097   8.923 -1.2088 -2.2831 -0.1443
33480SOL     OW 2881   4.014   3.078   0.598  0.4581  0.6707 -0.1593
33480SOL    HW1 2882   3.970   3.162   0.586 -0.5286  0.5199  1.9543
33480SOL    HW2 2883   4.082   3.077   0.531  1.2002  3.6281  0.3847
33481SOL     OW 2884   3.476   9.779   4.867 -0.6364  0.4730  0.1022
33481SOL    HW1 2885   3.531   9.751   4.794 -1.3755 -1.2872  0.1739
33481SOL    HW2 2886   3.438   9.862   4.838 -0.4293  0.1158 -1.2561
33482SOL     OW 2887   8.473   7.555   1.060  0.1286 -0.0907  0.3523
33482SOL    HW1 2888   8.438   7.620   0.999 -1.2580  0.1004  1.3051
33482SOL    HW2 2889   8.476   7.599   1.145 -0.3393 -1.0851  0.9154
33483SOL     OW 2890   9.500   8.175   8.306  0.2967 -0.0220 -0.3920
33483SOL    HW1 2891   9.539   8.093   8.275 -0.6705 -0.1517 -1.3434
33483SOL    HW2 2892   9.407   8.165   8.288  0.1969  1.3938 -0.7649
33484SOL     OW 2893   8.575   0.932   1.988  0.5415  0.0805 -0.5062
33484SOL    HW1 2894   8.577   0.897   1.898  0.9708 -0.5961 -0.2439
33484SOL    HW2 2895   8.485   0.917   2.017  0.7316 -0.8936 -0.3783
33485SOL     OW 2896   4.552   6.259   4.350 -0.0881 -0.6140 -0.5320
33485SOL    HW1 2897   4.526   6.175   4.314 -0.2664 -0.9933  0.4373
33485SOL    HW2 2898   4.524   6.255   4.442  0.0487  0.4337 -0.4315
33486SOL     OW 2899   9.228   8.688   6.092  0.4036  0.1477 -0.3461
33486SOL    HW1 2900   9.277   8.623   6.042 -2.5057 -0.9349 -1.9965
33486SOL    HW2 2901   9.179   8.638   6.157  1.0616  1.1558  0.9856
33487SOL     OW 2902   0.894   1.404   7.824 -0.1234 -0.7038 -0.2047
33487SOL    HW1 2903   0.943   1.486   7.815  0.6494 -1.1687 -0.4009
33487SOL    HW2 2904   0.962   1.336   7.830 -0.7400 -1.4099 -0.8716
33488SOL     OW 2905   0.868   0.124   4.965  0.3052 -0.7483  0.0553
33488SOL    HW1 2906   0.857   0.029   4.956 -1.3350 -0.5773 -0.0910
33488SOL    HW2 2907   0.931   0.134   5.036  0.1327 -1.9491  0.4093
33489SOL     OW 2908   0.275   3.222   8.790  0.1683 -0.4199 -0.1129
33489SOL    HW1 2909   0.304   3.289   8.728  0.3873 -0.7632 -0.3836
33489SOL    HW2 2910   0.183   3.206   8.767 -0.1278  0.3719  0.4794
33490SOL     OW 2911   6.037   4.197   3.847  0.0314 -0.2674 -0.1930
33490SOL    HW1 2912   5.989   4.214   3.928  0.6012  0.1977  0.0528
33490SOL    HW2 2913   6.098   4.270   3.839  0.3638 -0.5969 -0.7571
33491SOL     OW 2914   9.898   1.072   4.772  0.7572 -0.7593  0.3334
33491SOL    HW1 2915   9.894   0.986   4.729  0.0873 -0.3106 -0.5371
33491SOL    HW2 2916   9.967   1.119   4.726  0.3885 -0.4589  0.0752
33492SOL     OW 2917   7.546   9.726   9.675 -0.2619 -0.9030 -0.0492
33492SOL    HW1 2918   7.636   9.694   9.679  0.3265  0.7593  1.2265
33492SOL    HW2 2919   7.509   9.703   9.761  0.4549  2.3318  1.2813
33493SOL     OW 2920   7.821   1.138   2.337  0.3439 -0.0068 -0.0417
33493SOL    HW1 2921   7.884   1.106   2.400 -0.1302 -0.9030 -0.0109
33493SOL    HW2 2922   7.839   1.232   2.330  0.2237  0.1702  1.6311
33494SOL     OW 2923  10.197   6.433   7.854 -0.1083  0.4846  0.0397
33494SOL    HW1 2924  10.253   6.448   7.931  0.0181 -0.3070  0.1034
33494SOL    HW2 2925  10.242   6.479   7.783  0.1457  0.6247  0.2891
33495SOL     OW 2926   2.823   7.900   1.484  0.6434 -0.1129 -0.8124
33495SOL    HW1 2927   2.731   7.923   1.494  0.7596  0.1442 -0.3279
33495SOL    HW2 2928   2.832   7.880   1.391  0.7513  2.7652 -1.5210
33496SOL     OW 2929   2.933   9.821   1.513  0.5907  0.0602  0.0532
33496SOL    HW1 2930   2.925   9.809   1.418 -1.2475 -0.0258  0.1934
33496SOL    HW2 2931   2.874   9.756   1.551  1.7518 -0.3149  1.3016
33497SOL     OW 2932   0.020   1.726   3.403  0.2942  0.1602  0.5204
33497SOL    HW1 2933  -0.013   1.653   3.349  0.8830  0.1808  0.1313
33497SOL    HW2 2934  -0.050   1.791   3.400  0.6356  0.4888 -0.8640
33498SOL     OW 2935   6.987  10.483  10.443  0.0260 -0.1190 -0.2981
33498SOL    HW1 2936   6.975  10.400  10.489 -0.7537 -0.2100 -0.6467
33498SOL    HW2 2937   7.066  10.470  10.391  1.1350  0.1170  1.2619
33499SOL     OW 2938   7.218   1.190   6.564  0.4435  0.4246  0.3791
33499SOL    HW1 2939   7.263   1.271   6.587  1.5703 -0.2200  0.5005
33499SOL    HW2 2940   7.136   1.194   6.613 -0.5680  2.4974 -1.3068
33500SOL     OW 2941  10.009   5.798   7.932  0.3350 -0.5372  0.1687
33500SOL    HW1 2942  10.065   5.844   7.994  1.4141 -2.1746  0.4517
33500SOL    HW2 2943   9.946   5.750   7.986 -0.0500 -0.3310 -0.0849
33501SOL     OW 2944   9.299   3.443   4.988 -0.1661 -0.0466  0.6131
33501SOL    HW1 2945   9.275   3.369   5.043  0.9151 -1.0737 -0.2432
33501SOL    HW2 2946   9.395   3.441   4.984 -0.2038 -0.0789 -1.3511
33502SOL     OW 2947   9.875   0.971   0.782 -0.5148 -0.0709 -0.3346
33502SOL    HW1 2948   9.944   0.905   0.789  1.0702  1.4767 -0.5159
33502SOL    HW2 2949   9.921   1.054   0.796 -2.6051  0.9370  0.8746
33503SOL     OW 2950   3.335   3.632  10.137 -0.3826 -0.0115 -0.3337
33503SOL    HW1 2951   3.291   3.587  10.065  1.2307 -1.0207 -0.7491
33503SOL    HW2 2952   3.373   3.710  10.096 -2.9566  1.7076  0.3347
33504SOL     OW 2953   6.999   3.230   4.341  0.7321 -0.4256 -0.4177
33504SOL    HW1 2954   7.066   3.163   4.329  1.0611  0.2066 -2.6226
33504SOL    HW2 2955   7.047   3.307   4.371  0.8942 -0.2031 -1.2268
33505SOL     OW 2956  10.156   5.031   6.514 -0.7795  0.1701  0.1472
33505SOL    HW1 2957  10.238   5.007   6.470  0.7415  4.6869  0.0134
33505SOL    HW2 2958  10.178   5.031   6.607 -1.1608 -0.1455  0.2419
33506SOL     OW 2959   0.516   3.004   7.868 -0.9716  0.0972  0.3117
33506SOL    HW1 2960   0.429   3.031   7.839 -1.0316 -0.5282 -0.0940
33506SOL    HW2 2961   0.551   2.953   7.795 -0.0283  0.8374  0.2274
33507SOL     OW 2962   1.392   0.935   2.094  0.2184 -0.0969  0.0468
33507SOL    HW1 2963   1.364   0.911   2.183 -0.3807  0.7321  0.0945
33507SOL    HW2 2964   1.311   0.933   2.042  0.4669  0.0383 -0.3461
33508SOL     OW 2965   7.492   6.706   0.645 -0.2564  0.0195 -0.0024
33508SOL    HW1 2966   7.546   6.785   0.653  0.3545 -0.4041  0.1399
33508SOL    HW2 2967   7.510   6.674   0.557 -0.4555  0.0061 -0.0373
33509SOL     OW 2968   9.562   9.125   4.413  0.1249  0.5048  0.6771
33509SOL    HW1 2969   9.614   9.090   4.340 -0.1344 -0.6767  1.0440
33509SOL    HW2 2970   9.618   9.113   4.490  1.0603  3.1916  0.5168
33510SOL     OW 2971   5.600   4.631   0.749 -0.3695  0.0494 -0.4958
33510SOL    HW1 2972   5.505   4.643   0.741 -0.3984 -1.0262 -2.5374
33510SOL    HW2 2973   5.637   4.696   0.690  0.0917 -0.3760 -0.6819
33511SOL     OW 2974   8.827   9.412   4.708  0.4839 -0.5645 -0.1121
33511SOL    HW1 2975   8.839   9.396   4.615 -0.0406  0.4293 -0.3686
33511SOL    HW2 2976   8.746   9.463   4.713 -0.1883 -1.6978  0.9965
33512SOL     OW 2977   7.801   2.482   3.758  0.3746 -0.3096  0.0734
33512SOL    HW1 2978   7.798   2.389   3.733  0.1774  0.0143 -1.1324
33512SOL    HW2 2979   7.710   2.507   3.770  0.4355 -0.2942  0.5334
33513SOL     OW 2980   0.264   4.598   8.729  0.1145 -0.0822  0.0044
33513SOL    HW1 2981   0.222   4.610   8.645  0.2825 -2.0483 -0.4084
33513SOL    HW2 2982   0.357   4.614   8.712  0.0946 -0.0433 -0.0669
33514SOL     OW 2983   0.906   3.543   1.813  0.1232 -0.1819 -0.0492
33514SOL    HW1 2984   0.924   3.545   1.907 -1.2691 -0.2202  0.2316
33514SOL    HW2 2985   0.811   3.533   1.806  0.2469 -0.6435 -1.4667
33515SOL     OW 2986   9.006   2.542   2.598  0.0064  0.1450  0.5293
33515SOL    HW1 2987   8.985   2.464   2.547 -0.4691  0.1470  0.7156
33515SOL    HW2 2988   8.922   2.587   2.609 -0.2615 -0.7538  2.7997
33516SOL     OW 2989   1.896   0.042   1.200  0.1260  0.3744 -0.1692
33516SOL    HW1 2990   1.989   0.058   1.184  0.4880 -1.5371 -0.2471
33516SOL    HW2 2991   1.874  -0.032   1.143 -1.0280 -0.2352  1.0045
33517SOL     OW 2992   5.971   3.923   3.768 -0.0091  0.5105 -0.0453
33517SOL    HW1 2993   5.975   4.018   3.781 -2.4672  0.5342  1.1034
33517SOL    HW2 2994   5.959   3.912   3.674  2.1742  1.1862 -0.4670
33518SOL     OW 2995   2.972   0.204   1.378 -0.1402 -1.2782 -0.5388
33518SOL    HW1 2996   3.028   0.148   1.324  2.1676  0.8924 -0.5601
33518SOL    HW2 2997   2.999   0.187   1.468  0.0622 -0.7531 -0.4956
33519SOL     OW 2998  10.092   5.321   2.597 -0.6252  0.0082 -0.4831
33519SOL    HW1 2999   9.996   5.317   2.595 -0.7029  1.2960 -0.3451
33519SOL    HW2 3000  10.111   5.402   2.644  0.4876  1.2041 -2.8131
33520SOL     OW 3001   5.571   4.123  10.209 -0.3060  0.2041  0.6192
33520SOL    HW1 3002   5.581   4.120  10.304 -1.9495 -1.0292  0.8126
33520SOL    HW2 3003   5.656   4.097  10.175  0.4219  1.0479  1.7266
33521SOL     OW 3004   4.723   7.915   2.030  0.2342 -1.3017 -0.5142
33521SOL    HW1 3005   4.811   7.936   2.061 -0.0119  1.6440 -1.5503
33521SOL    HW2 3006   4.678   7.880   2.107  1.9617 -1.7795  0.3162
33522SOL     OW 3007   0.209   5.074   0.301 -0.0926 -0.0767  0.0123
33522SOL    HW1 3008   0.188   5.128   0.225 -0.9616  1.4426  1.2578
33522SOL    HW2 3009   0.127   5.030   0.322 -0.5255  1.2896  1.3800
33523SOL     OW 3010   1.462   3.960   6.490 -0.2855  0.2786  0.3190
33523SOL    HW1 3011   1.380   3.917   6.466 -0.0319  1.1724 -2.4779
33523SOL    HW2 3012   1.530   3.901   6.458  0.0673  1.4624 -1.2671
33524SOL     OW 3013   8.375   4.656   8.038 -0.3253 -0.0807  0.0426
33524SOL    HW1 3014   8.458   4.664   7.992  0.6865 -0.1473  1.7729
33524SOL    HW2 3015   8.309   4.674   7.972  1.1102  1.4886 -1.0326
33525SOL     OW 3016   4.283   3.944   1.153 -0.2785 -0.2217  0.1754
33525SOL    HW1 3017   4.369   3.941   1.109 -0.2092 -0.1078  0.3023
33525SOL    HW2 3018   4.246   4.028   1.128 -0.3542 -0.2702  0.1225
33526SOL     OW 3019   7.066   1.628   3.392 -0.5219 -0.6675  0.2930
33526SOL    HW1 3020   7.080   1.560   3.325  2.2285 -0.4440  0.5249
33526SOL    HW2 3021   7.051   1.708   3.342 -1.2858 -0.9924 -0.0099
33527SOL     OW 3022   1.533   7.795   2.130  0.2310  0.1098  0.1752
33527SOL    HW1 3023   1.562   7.707   2.151 -1.8862 -0.5900  0.4006
33527SOL    HW2 3024   1.514   7.835   2.215 -1.1086 -0.0745 -0.0251
33528SOL     OW 3025   7.555   8.194   7.273  0.1118 -0.1221  0.4716
33528SOL    HW1 3026   7.612   8.181   7.198 -0.9411 -1.0004 -0.2056
33528SOL    HW2 3027   7.561   8.112   7.322  0.2639  0.1908  0.9835
33529SOL     OW 3028   5.687   6.184   7.752 -0.3395 -0.6848 -0.6100
33529SOL    HW1 3029   5.760   6.153   7.806 -0.1953 -1.4178 -1.1975
33529SOL    HW2 3030   5.634   6.106   7.738 -0.2272 -0.5699 -1.7444
33530SOL     OW 3031   5.049   8.295  10.350 -0.6181  0.2565 -0.4955
33530SOL    HW1 3032   5.118   8.233  10.374 -0.5599  0.8564  0.9941
33530SOL    HW2 3033   5.078   8.331  10.267  0.9018  0.5076  0.0932
33531SOL     OW 3034   5.304   2.230   2.729  0.3604  0.8510 -0.5533
33531SOL    HW1 3035   5.338   2.141   2.732 -1.2871  0.1218 -1.9754
33531SOL    HW2 3036   5.283   2.250   2.821  0.8543 -0.1727 -0.2004
33532SOL     OW 3037   3.515   3.394   9.720  0.2956 -0.1049 -0.0137
33532SOL    HW1 3038   3.535   3.335   9.648 -0.3396 -1.5318  0.9178
33532SOL    HW2 3039   3.421   3.411   9.711  0.6443  1.5620 -0.8129
33533SOL     OW 3040  10.238   8.526   4.669  0.1550 -0.0517 -0.4795
33533SOL    HW1 3041  10.215   8.527   4.576  0.9146  0.1214 -0.6713
33533SOL    HW2 3042  10.257   8.434   4.687  4.2057  0.3600 -1.6020
33534SOL     OW 3043   3.378   4.584   3.450  0.0047 -0.3465 -0.1471
33534SOL    HW1 3044   3.353   4.597   3.542 -0.3860  0.6620 -0.3837
33534SOL    HW2 3045   3.468   4.551   3.455  0.7380  1.6161  0.5758
33535SOL     OW 3046   3.845   1.098   6.864  0.1435  0.6005 -0.9661
33535SOL    HW1 3047   3.827   1.160   6.794 -0.4953  0.2082 -1.1679
33535SOL    HW2 3048   3.819   1.013   6.827 -0.0004  0.3651 -0.3342
33536SOL     OW 3049   5.947   1.671   1.736 -0.3269  0.3522  0.0820
33536SOL    HW1 3050   5.854   1.690   1.723 -0.6379  1.1425  2.8024
33536SOL    HW2 3051   5.949   1.584   1.776  0.0272  0.5622  0.5402
33537SOL     OW 3052   7.796   0.038   8.051 -0.3908  0.4420 -0.0021
33537SOL    HW1 3053   7.842   0.115   8.085 -1.0026  0.7229  0.1916
33537SOL    HW2 3054   7.866  -0.023   8.027  0.0935  1.0411 -0.1160
33538SOL     OW 3055   4.442   0.719   3.195 -0.8529 -0.0420 -0.4205
33538SOL    HW1 3056   4.435   0.630   3.230  2.3831 -0.0112  0.6645
33538SOL    HW2 3057   4.424   0.776   3.269  0.9079  0.0827 -0.0368
33539SOL     OW 3058   9.972   7.861   5.986 -0.3310 -0.2337  0.1121
33539SOL    HW1 3059  10.011   7.931   5.933 -2.0364 -0.2207 -1.2319
33539SOL    HW2 3060   9.911   7.907   6.044  0.3804 -0.3937  0.9887
33540SOL     OW 3061   6.815   4.365   9.610  0.1876 -0.6505  0.0015
33540SOL    HW1 3062   6.835   4.456   9.587  0.3058 -0.7731 -0.4036
33540SOL    HW2 3063   6.804   4.322   9.525 -0.0129 -0.9820  0.1955
33541SOL     OW 3064   9.346   7.966   0.366 -1.1304  0.2051  0.0525
33541SOL    HW1 3065   9.266   7.913   0.362 -0.0857 -1.3729 -1.0951
33541SOL    HW2 3066   9.328   8.041   0.310 -1.5232 -0.5981 -0.9325
33542SOL     OW 3067   5.228   8.725   2.485  0.4570 -0.0333  0.0820
33542SOL    HW1 3068   5.233   8.796   2.421 -1.7641 -1.0608 -1.3409
33542SOL    HW2 3069   5.314   8.682   2.481  0.9424  0.9979 -0.8943
33543SOL     OW 3070   7.040   3.749   4.434 -0.2088  0.4253  0.0353
33543SOL    HW1 3071   6.957   3.797   4.423 -0.4525 -0.1539 -0.6936
33543SOL    HW2 3072   7.067   3.770   4.523 -0.2300  2.0475 -0.3021
33544SOL     OW 3073   1.802   7.984  10.361 -0.2086  0.0133 -0.3127
33544SOL    HW1 3074   1.800   7.907  10.418  1.4902  0.1914  0.0511
33544SOL    HW2 3075   1.798   8.058  10.422  0.8350  0.2003 -0.4527
33545SOL     OW 3076   4.006   7.909   4.431 -0.2755 -0.1678 -0.1647
33545SOL    HW1 3077   4.035   7.941   4.516 -0.3018 -0.7139  0.0533
33545SOL    HW2 3078   3.988   7.988   4.380 -0.9848  0.1710  0.5858
33546SOL     OW 3079   4.101   4.600   0.696  0.3434  0.3022  0.6965
33546SOL    HW1 3080   4.073   4.616   0.606  1.5280 -1.0929  0.0397
33546SOL    HW2 3081   4.059   4.517   0.720  0.8480  0.1446  1.0539
33547SOL     OW 3082   9.324   2.980   0.361 -0.0236  0.3546  0.2960
33547SOL    HW1 3083   9.234   2.964   0.389  0.3541  0.2538  1.5190
33547SOL    HW2 3084   9.335   3.075   0.369  0.3725  0.2269  1.4657
33548SOL     OW 3085   1.043  10.140   6.140 -0.2647 -0.0547 -0.1313
33548SOL    HW1 3086   1.081  10.098   6.063  0.1158 -1.6685  0.8961
33548SOL    HW2 3087   0.960  10.174   6.109 -0.4391 -1.2765 -1.1121
33549SOL     OW 3088   0.150   9.557   3.364  0.2941 -0.6333  1.3416
33549SOL    HW1 3089   0.221   9.585   3.306 -1.5927 -1.9029 -1.9003
33549SOL    HW2 3090   0.189   9.490   3.420  1.8715 -0.7073  0.2204
33550SOL     OW 3091   9.640   9.217   1.728  0.4270  0.5260 -0.5495
33550SOL    HW1 3092   9.549   9.214   1.697  0.5116  2.6476 -1.1507
33550SOL    HW2 3093   9.642   9.156   1.801 -0.5471 -2.3426 -2.7213
33551SOL     OW 3094   9.480  10.227  10.398  0.7330  0.0337 -0.1484
33551SOL    HW1 3095   9.524  10.274  10.469  1.3930  1.0389 -1.1965
33551SOL    HW2 3096   9.457  10.142  10.436  0.1772  0.9112  1.5599
33552SOL     OW 3097   9.251   0.837   3.727 -0.2085 -0.3367 -0.5467
33552SOL    HW1 3098   9.200   0.907   3.687 -0.9002 -0.1703  0.5833
33552SOL    HW2 3099   9.318   0.882   3.780 -0.5787 -0.5176  0.0870
33553SOL     OW 3100   8.613   5.005   3.458 -0.5307  0.5268  0.0995
33553SOL    HW1 3101   8.688   5.035   3.406 -0.1364  1.2416  1.0648
33553SOL    HW2 3102   8.556   4.960   3.394  1.0040 -0.5959 -0.5331
33554SOL     OW 3103   6.951   0.755   9.207  0.1566 -0.6939 -0.1678
33554SOL    HW1 3104   6.996   0.779   9.126 -0.0984 -0.9486 -0.3861
33554SOL    HW2 3105   7.018   0.712   9.260  0.7185  0.7692  0.3749
33555SOL     OW 3106   5.141   6.747   8.035  0.5803  0.2297 -0.0305
33555SOL    HW1 3107   5.122   6.656   8.058 -1.6494  0.5600 -0.3454
33555SOL    HW2 3108   5.147   6.748   7.940 -0.3470  0.5488 -0.0956
33556SOL     OW 3109   1.778   9.443   3.310  0.0810  0.1604  0.4938
33556SOL    HW1 3110   1.794   9.419   3.218 -1.4244  1.7554 -0.2508
33556SOL    HW2 3111   1.866   9.445   3.349  0.6320 -1.9895 -0.4912
33557SOL     OW 3112   9.148   7.711   3.214 -0.5223 -0.0011  0.0378
33557SOL    HW1 3113   9.242   7.706   3.199 -0.4990 -1.5231  0.4657
33557SOL    HW2 3114   9.137   7.687   3.306 -1.2839  0.9332  0.2096
33558SOL     OW 3115   9.646   3.125   7.882  0.3293 -0.4032  0.0241
33558SOL    HW1 3116   9.596   3.201   7.911  1.4923  0.1538  0.6263
33558SOL    HW2 3117   9.602   3.097   7.801 -0.3873  0.6163  0.0430
33559SOL     OW 3118   3.129   8.990   6.103 -0.0786 -0.0071  0.2250
33559SOL    HW1 3119   3.105   9.025   6.189 -0.3079 -0.7692  0.4790
33559SOL    HW2 3120   3.208   8.939   6.120 -0.1614 -0.2095 -0.0064
33560SOL     OW 3121   5.162   8.230   1.105  0.1539 -0.5313 -0.2041
33560SOL    HW1 3122   5.247   8.265   1.079  0.7835 -2.3179 -0.6680
33560SOL    HW2 3123   5.098   8.284   1.059  0.9921  0.9402  0.2707
33561SOL     OW 3124   8.823   5.109   4.019  0.0509  0.1112 -0.1550
33561SOL    HW1 3125   8.741   5.155   4.000  0.8180  1.6563  0.1143
33561SOL    HW2 3126   8.813   5.080   4.110  0.1870  1.2150  0.2304
33562SOL     OW 3127   1.415   5.168   6.075 -0.0804 -0.0437  0.2983
33562SOL    HW1 3128   1.415   5.113   6.153 -0.1625 -0.7677 -0.2027
33562SOL    HW2 3129   1.443   5.109   6.005  0.5966  0.7477 -0.1129
33563SOL     OW 3130   6.993   0.204   5.272  0.4421 -0.0664  0.4339
33563SOL    HW1 3131   6.942   0.187   5.352 -0.9787  0.8596 -0.2258
33563SOL    HW2 3132   6.954   0.147   5.206  0.2497  0.6119 -0.0617
33564SOL     OW 3133   0.828   1.096   2.710 -0.6504 -0.1644 -0.1110
33564SOL    HW1 3134   0.840   1.187   2.682  0.9329 -0.3176 -0.0049
33564SOL    HW2 3135   0.905   1.050   2.676 -0.2831 -1.0030  1.7336
33565SOL     OW 3136   9.467   4.722   8.535 -0.1853  0.4561  0.0521
33565SOL    HW1 3137   9.424   4.750   8.454  2.1831  0.7946 -1.1882
33565SOL    HW2 3138   9.536   4.787   8.549  0.3634 -0.3921  1.5726
33566SOL     OW 3139   9.228   2.111   7.545 -0.9350 -0.0211  0.6617
33566SOL    HW1 3140   9.277   2.130   7.465 -1.6429  1.5166  0.5463
33566SOL    HW2 3141   9.245   2.187   7.602  0.6559 -1.6838  2.5674
33567SOL     OW 3142   3.858   3.706   3.229  0.0189 -0.2144 -0.4021
33567SOL    HW1 3143   3.898   3.773   3.285  0.0180  0.3916 -1.1287
33567SOL    HW2 3144   3.804   3.654   3.289  1.2820 -0.5819  0.4675
33568SOL     OW 3145   4.438   2.621   7.924 -0.3705 -0.0495 -0.1067
33568SOL    HW1 3146   4.495   2.685   7.964  0.4961 -0.6947 -0.2830
33568SOL    HW2 3147   4.497   2.558   7.883 -1.2040 -0.6968 -0.3485
33569SOL     OW 3148   4.461   7.339   5.014 -0.2625  0.0473  0.2630
33569SOL    HW1 3149   4.386   7.337   4.956 -0.3202  0.8235  0.3010
33569SOL    HW2 3150   4.531   7.297   4.964 -1.2895 -2.9386  1.1173
33570SOL     OW 3151   7.086   8.404   8.747 -0.0285 -1.2635  0.3937
33570SOL    HW1 3152   7.033   8.451   8.683  0.7492 -1.1508 -0.1803
33570SOL    HW2 3153   7.158   8.463   8.768  1.4014 -2.4489 -0.9267
33571SOL     OW 3154   7.736   5.117   2.151 -0.0526  0.0920  0.0231
33571SOL    HW1 3155   7.806   5.154   2.097 -0.0039 -0.5020 -0.3264
33571SOL    HW2 3156   7.674   5.190   2.162  0.0474  0.2842 -0.6452
33572SOL     OW 3157   8.249  10.158   2.761  0.0046  0.2769  0.3409
33572SOL    HW1 3158   8.272  10.065   2.765 -0.4069  0.1462 -0.1413
33572SOL    HW2 3159   8.243  10.177   2.668  1.2430  1.0979  0.4063
33573SOL     OW 3160   1.920   5.785   8.403  0.1606 -0.3120 -0.3757
33573SOL    HW1 3161   1.987   5.847   8.433 -0.8693  0.4299  0.4509
33573SOL    HW2 3162   1.967   5.726   8.344  2.1891 -1.5351  2.2584
33574SOL     OW 3163   1.916   0.328   9.421  0.0090 -0.1027 -0.1682
33574SOL    HW1 3164   1.867   0.298   9.344 -0.5263 -1.0644  0.5283
33574SOL    HW2 3165   1.866   0.404   9.453 -2.3656 -2.2865  1.7708
33575SOL     OW 3166   7.803   5.459   7.424 -0.5490  0.0023  0.1515
33575SOL    HW1 3167   7.883   5.436   7.378 -1.5190 -0.9622 -1.1362
33575SOL    HW2 3168   7.831   5.477   7.514  1.0951 -0.2628 -0.2770
33576SOL     OW 3169   1.556   3.734   1.360  0.7082 -0.5869  0.1768
33576SOL    HW1 3170   1.543   3.719   1.454 -0.0307 -1.8852 -0.0942
33576SOL    HW2 3171   1.528   3.824   1.345  0.7370 -0.4030  1.1865
33577SOL     OW 3172   0.903   9.146   1.892 -0.2255  0.2826  0.2541
33577SOL    HW1 3173   0.943   9.067   1.855 -0.4399  1.0264 -1.6632
33577SOL    HW2 3174   0.811   9.141   1.866 -0.1595  1.3448 -0.2315
33578SOL     OW 3175   6.378   8.920   8.813 -0.0236 -0.1685  0.0154
33578SOL    HW1 3176   6.356   8.980   8.884  2.3070  0.8537 -0.0320
33578SOL    HW2 3177   6.389   8.976   8.736 -1.3860 -1.1304 -0.9351
33579SOL     OW 3178   1.700   4.239   5.667 -0.1790 -0.4733  0.2199
33579SOL    HW1 3179   1.721   4.162   5.613 -0.7506 -0.9491  0.6544
33579SOL    HW2 3180   1.672   4.305   5.604  0.3169 -0.6259 -0.1619
33580SOL     OW 3181   7.078   0.377   8.043 -0.5979  0.0413 -0.4227
33580SOL    HW1 3182   7.095   0.383   8.137  1.6319 -1.7214 -0.6129
33580SOL    HW2 3183   7.108   0.461   8.008  1.1466 -0.2814  0.1817
33581SOL     OW 3184  10.121   8.768   7.166  0.1330  0.0937 -0.2407
33581SOL    HW1 3185  10.108   8.829   7.239 -1.5046 -0.4603 -0.0316
33581SOL    HW2 3186  10.078   8.688   7.194  0.2469 -0.4120 -1.4717
33582SOL     OW 3187   0.149   5.003   9.010  0.4023 -0.2923  0.3046
33582SOL    HW1 3188   0.083   4.937   8.990 -0.2096 -0.1098  1.6128
33582SOL    HW2 3189   0.101   5.074   9.054  1.0953  0.8959 -0.7723
33583SOL     OW 3190   5.977   9.305  10.443  0.4546  0.0770 -0.4772
33583SOL    HW1 3191   5.908   9.262  10.494  0.9790  1.0816  1.1633
33583SOL    HW2 3192   6.031   9.234  10.410 -1.3247 -0.7433 -1.8095
33584SOL     OW 3193   3.214   7.372   0.793 -0.2128  0.0833  0.2723
33584SOL    HW1 3194   3.296   7.410   0.825  0.2486 -0.4410 -0.2580
33584SOL    HW2 3195   3.176   7.330   0.870  0.6289 -0.7112  0.2746
33585SOL     OW 3196   4.347   2.577   0.767  0.1926 -0.6247  0.8549
33585SOL    HW1 3197   4.425   2.534   0.731 -0.2624 -1.4616  0.8585
33585SOL    HW2 3198   4.310   2.513   0.827 -0.3023 -0.0851  1.1347
33586SOL     OW 3199   4.418   5.592   8.465  0.3210  0.5607 -0.2508
33586SOL    HW1 3200   4.421   5.540   8.385  1.4017  1.5390 -0.8708
33586SOL    HW2 3201   4.359   5.664   8.446 -0.8313 -0.1668  0.4616
33587SOL     OW 3202   4.055   3.722   2.168  0.3034 -0.2433 -0.1964
33587SOL    HW1 3203   4.074   3.685   2.082  2.3450  1.5411 -0.6001
33587SOL    HW2 3204   4.070   3.650   2.229  1.8069 -0.7712 -1.1326
33588SOL     OW 3205   3.342   6.369   7.287 -0.0298  0.0784  0.0191
33588SOL    HW1 3206   3.267   6.324   7.249 -0.0434 -0.1548  0.3213
33588SOL    HW2 3207   3.339   6.457   7.249 -0.8035  0.2602  0.4798
33589SOL     OW 3208  10.327   9.401   7.667 -0.4325  0.2902  0.6685
33589SOL    HW1 3209  10.335   9.466   7.737 -1.1172 -0.6890  1.6985
33589SOL    HW2 3210  10.252   9.347   7.693 -1.8090  0.8933 -1.6880
33590SOL     OW 3211   3.954   8.812   2.775  0.0656  0.1929 -0.0362
33590SOL    HW1 3212   4.023   8.748   2.794  0.3035  0.0758 -1.2139
33590SOL    HW2 3213   3.997   8.897   2.780  0.3827  0.1064 -1.0362
33591SOL     OW 3214   3.711   8.371   7.400 -0.1512 -0.2498 -0.1206
33591SOL    HW1 3215   3.696   8.379   7.306  1.3150 -0.6445 -0.4119
33591SOL    HW2 3216   3.641   8.423   7.440  0.4397  1.7140 -1.4843
33592SOL     OW 3217   9.980   4.289   3.308  0.0153  0.1267 -0.6055
33592SOL    HW1 3218  10.037   4.316   3.236  2.5453 -0.0886  1.1863
33592SOL    HW2 3219  10.035   4.293   3.386 -2.1124 -1.2561  1.1195
33593SOL     OW 3220   4.669   6.480   6.141 -0.4135  0.2122  0.1276
33593SOL    HW1 3221   4.628   6.559   6.177 -1.8247 -0.3671 -0.1188
33593SOL    HW2 3222   4.626   6.408   6.188 -0.6039 -0.4627 -1.0485
33594SOL     OW 3223   2.418   4.722   7.853  0.5488  0.3933  0.2025
33594SOL    HW1 3224   2.429   4.812   7.820 -0.9599  1.0156  1.2918
33594SOL    HW2 3225   2.473   4.718   7.931 -0.1921  0.7194  0.7479
33595SOL     OW 3226   9.338   1.472   4.750  0.0840 -0.4643  0.1711
33595SOL    HW1 3227   9.372   1.417   4.821  0.3770 -0.5046  0.0018
33595SOL    HW2 3228   9.305   1.550   4.794 -0.0146 -0.6207  0.3799
33596SOL     OW 3229   5.927   1.833   0.246 -0.2494 -0.5860 -0.2726
33596SOL    HW1 3230   5.939   1.892   0.172 -2.0943 -1.7989 -1.6407
33596SOL    HW2 3231   5.872   1.882   0.307  0.5375  0.1012 -0.1052
33597SOL     OW 3232   8.824   2.076   7.626  0.0154 -0.2555  0.2627
33597SOL    HW1 3233   8.902   2.035   7.663  0.5174  0.3734 -0.0757
33597SOL    HW2 3234   8.793   2.135   7.695 -0.4144 -0.8277  0.5603
33598SOL     OW 3235   1.953   4.608   6.195  0.2086  0.1537 -0.7037
33598SOL    HW1 3236   1.917   4.693   6.170 -0.2547  0.6368  1.3981
33598SOL    HW2 3237   1.877   4.550   6.201  0.6405 -0.7871 -3.2755
33599SOL     OW 3238   7.350   7.612   3.062  0.3394  0.0265 -0.0074
33599SOL    HW1 3239   7.295   7.602   2.985 -0.0829  0.0591  0.2845
33599SOL    HW2 3240   7.324   7.539   3.119  0.4094  0.1967  0.2445
33600SOL     OW 3241   7.386   4.755   3.858  0.1052 -0.2058 -0.4462
33600SOL    HW1 3242   7.310   4.697   3.868 -0.2434 -0.0140 -1.7954
33600SOL    HW2 3243   7.462   4.696   3.865 -0.2638 -1.0762 -2.9722
33601SOL     OW 3244   8.986   3.840   5.241  0.1511 -0.4509  0.2040
33601SOL    HW1 3245   9.072   3.881   5.244  0.2346 -0.5216 -0.8101
33601SOL    HW2 3246   8.942   3.870   5.320  1.0331 -0.2571  0.6297
33602SOL     OW 3247   6.523   3.469   6.459 -0.0954  0.2990  0.2889
33602SOL    HW1 3248   6.538   3.378   6.486 -2.2191  0.2286  1.4641
33602SOL    HW2 3249   6.473   3.461   6.378  0.0428  0.4218  0.1923
33603SOL     OW 3250   1.917  10.341   6.070 -0.4156  0.0464 -0.0631
33603SOL    HW1 3251   1.836  10.378   6.105 -0.6132 -0.8299  0.4442
33603SOL    HW2 3252   1.922  10.375   5.981 -0.6612  1.1472  0.3320
33604SOL     OW 3253   9.183   6.458   8.975 -0.1688 -0.3875 -0.2930
33604SOL    HW1 3254   9.132   6.485   9.051 -1.5536 -0.3029 -1.2195
33604SOL    HW2 3255   9.204   6.540   8.930  2.5090 -0.2173  1.0675
33605SOL     OW 3256   6.709   0.779   0.936  0.2561 -0.0180 -0.4860
33605SOL    HW1 3257   6.645   0.712   0.962  0.1154  0.0391 -0.6861
33605SOL    HW2 3258   6.741   0.749   0.851  0.9272 -0.3556 -0.1193
33606SOL     OW 3259   4.533  10.106   3.838  0.2098  0.2255 -0.1211
33606SOL    HW1 3260   4.450  10.151   3.824  0.3707  1.5701  2.5370
33606SOL    HW2 3261   4.601  10.171   3.819  0.4939  0.4945  1.5979
33607SOL     OW 3262   9.307   2.938   4.625  0.0136 -0.2877  0.3300
33607SOL    HW1 3263   9.353   2.932   4.541 -1.5386  0.1916 -0.5906
33607SOL    HW2 3264   9.279   2.848   4.644  2.3826 -0.8447  1.5771
33608SOL     OW 3265   3.189   3.745   8.974  0.0317  0.1494  0.1766
33608SOL    HW1 3266   3.211   3.793   8.894 -1.4083  0.6288  0.0368
33608SOL    HW2 3267   3.167   3.814   9.037 -1.1963 -0.2782  0.2426
33609SOL     OW 3268   6.867   4.821   3.186  0.6253 -0.1222  0.3977
33609SOL    HW1 3269   6.928   4.895   3.189  1.3469 -0.7266  1.4208
33609SOL    HW2 3270   6.923   4.744   3.197 -0.3008 -0.6938  1.2482
33610SOL     OW 3271   6.166   0.573   2.850 -1.2017 -0.1259 -0.4882
33610SOL    HW1 3272   6.238   0.620   2.809 -0.5137 -1.3250 -0.6960
33610SOL    HW2 3273   6.139   0.630   2.923  1.5400 -0.6687  1.1122
33611SOL     OW 3274   2.352   0.267   9.144  0.1933  1.1077  0.0817
33611SOL    HW1 3275   2.287   0.246   9.077 -0.9432  2.2756  0.7783
33611SOL    HW2 3276   2.301   0.297   9.219  1.4160 -0.5368  1.6577
33612SOL     OW 3277   8.712   4.637   8.826 -0.0478 -0.1942 -0.3165
33612SOL    HW1 3278   8.772   4.712   8.825 -1.0259  0.6185 -0.2254
33612SOL    HW2 3279   8.693   4.620   8.734  0.4921 -0.6052 -0.3573
33613SOL     OW 3280   4.386   0.948   6.328 -0.2943  0.1601  0.5110
33613SOL    HW1 3281   4.300   0.921   6.361 -0.5662 -1.1617 -1.1971
33613SOL    HW2 3282   4.443   0.874   6.346 -0.0856  0.0571 -0.5297
33614SOL     OW 3283   8.810   9.482   1.573 -0.4110 -0.0498 -0.2178
33614SOL    HW1 3284   8.815   9.410   1.635  0.0633  2.8313  3.4366
33614SOL    HW2 3285   8.898   9.520   1.574 -0.8017  0.9622 -1.5673
33615SOL     OW 3286  10.000  10.078   5.811 -0.0156 -0.3670 -0.4049
33615SOL    HW1 3287   9.970  10.033   5.731 -1.0992  1.0156 -0.8263
33615SOL    HW2 3288   9.934  10.056   5.877 -0.4446  0.3858 -0.5617
33616SOL     OW 3289   6.265   2.910   7.853 -0.8042 -0.2162  0.1939
33616SOL    HW1 3290   6.239   2.876   7.939 -0.8576  1.6573  0.9642
33616SOL    HW2 3291   6.182   2.936   7.812 -0.6487  0.5736  0.3523
33617SOL     OW 3292   0.187   5.548   5.367 -0.0089 -0.5423  0.3078
33617SOL    HW1 3293   0.139   5.628   5.386 -0.5870 -0.5070 -1.1913
33617SOL    HW2 3294   0.122   5.489   5.328  0.6827 -1.2783  0.2318
33618SOL     OW 3295   6.805   2.236   3.012  0.8913 -0.2588 -1.0093
33618SOL    HW1 3296   6.734   2.300   3.013  1.3465  0.2678 -1.9869
33618SOL    HW2 3297   6.804   2.200   2.924  0.9770 -1.2389 -0.6271
33619SOL     OW 3298   8.675   0.798   5.743 -0.0050  0.5353 -0.0179
33619SOL    HW1 3299   8.735   0.870   5.760  0.7246  0.5698 -2.4837
33619SOL    HW2 3300   8.596   0.839   5.707 -0.1545  0.2120 -0.0705
33620SOL     OW 3301   2.113   2.874   9.312 -0.4838 -0.1299  0.3931
33620SOL    HW1 3302   2.109   2.957   9.359  0.5071 -0.3427  0.8932
33620SOL    HW2 3303   2.096   2.897   9.221  0.6682  0.7855  0.3789
33621SOL     OW 3304   8.154   4.665   6.455 -0.4426 -0.2478  0.1865
33621SOL    HW1 3305   8.167   4.612   6.534 -1.2115 -0.1031  0.4167
33621SOL    HW2 3306   8.126   4.751   6.489 -0.4734 -0.0928 -0.2307
33622SOL     OW 3307   3.152   3.210   2.343  0.2891 -0.1180 -0.1174
33622SOL    HW1 3308   3.135   3.134   2.287  1.3860 -0.7219  0.3248
33622SOL    HW2 3309   3.068   3.228   2.386 -0.5367  0.2836 -1.8317
33623SOL     OW 3310   6.335   6.045   3.993  0.1668 -0.6918 -0.7667
33623SOL    HW1 3311   6.342   5.965   4.044 -0.0797 -1.3889 -1.8026
33623SOL    HW2 3312   6.344   6.017   3.902 -1.5400  0.2323 -1.2639
33624SOL     OW 3313   3.123   5.405   0.104  0.8976  0.2538  0.4659
33624SOL    HW1 3314   3.140   5.444   0.018  0.4384 -0.0498  0.2327
33624SOL    HW2 3315   3.182   5.451   0.164 -0.9812  2.6960  0.5856
33625SOL     OW 3316   5.628   0.167   4.197 -0.2596 -0.0233 -0.2615
33625SOL    HW1 3317   5.649   0.218   4.275 -0.0772  0.1694 -0.4314
33625SOL    HW2 3318   5.714   0.142   4.162 -0.3592 -0.7542  0.0172
33626SOL     OW 3319   1.235   4.020   3.102  0.2147  0.5058 -0.7739
33626SOL    HW1 3320   1.253   3.935   3.062  1.3418  0.2859  0.1611
33626SOL    HW2 3321   1.166   4.003   3.166 -0.4083  0.5364 -1.4316
33627SOL     OW 3322   4.732  10.236   6.016 -0.2182 -0.4714  0.1549
33627SOL    HW1 3323   4.812  10.187   6.033  0.0692  0.1853  0.7371
33627SOL    HW2 3324   4.752  10.325   6.044 -0.7372 -0.0134 -0.8744
33628SOL     OW 3325   3.508   6.090   6.571 -0.1750  0.2361 -0.0781
33628SOL    HW1 3326   3.472   6.023   6.512  0.5975 -0.5543  0.3231
33628SOL    HW2 3327   3.598   6.061   6.588  0.6662  2.1243 -0.9871
33629SOL     OW 3328   4.891   7.092   4.620 -0.1234  0.4249 -0.1872
33629SOL    HW1 3329   4.834   7.077   4.544  1.0363  0.9886 -1.2027
33629SOL    HW2 3330   4.948   7.015   4.622  1.0290  1.2082 -1.0173
33630SOL     OW 3331   9.270   8.480   1.312  0.3888 -0.0105  0.1791
33630SOL    HW1 3332   9.234   8.518   1.393  1.4676 -0.7900  1.0534
33630SOL    HW2 3333   9.354   8.443   1.338  0.7940 -0.2200 -1.3336
33631SOL     OW 3334   2.098   4.863   3.239 -0.1606  0.5406 -0.0859
33631SOL    HW1 3335   2.030   4.854   3.173  0.2567  1.0275 -0.5936
33631SOL    HW2 3336   2.058   4.917   3.308 -0.5317  0.1918 -0.0252
33632SOL     OW 3337  10.444   8.266   2.924  0.6962  0.6852 -0.2474
33632SOL    HW1 3338  10.418   8.308   2.842  0.8116 -0.1262 -0.7127
33632SOL    HW2 3339  10.514   8.321   2.959 -0.0911  1.6456 -0.1269
33633SOL     OW 3340   4.946   2.364   0.310  0.3868 -0.0244  0.3134
33633SOL    HW1 3341   5.002   2.416   0.253 -0.3029 -0.2008 -0.5380
33633SOL    HW2 3342   4.929   2.284   0.261  0.7619 -0.7153  1.2662
33634SOL     OW 3343   8.304   1.679   7.944  0.4255  0.4438 -0.0029
33634SOL    HW1 3344   8.365   1.742   7.905 -0.2042  0.7117 -0.5858
33634SOL    HW2 3345   8.354   1.598   7.951  1.7738  1.3741  2.2461
33635SOL     OW 3346   8.903  10.266   2.214  0.1689  0.4544 -0.6110
33635SOL    HW1 3347   8.979  10.317   2.188 -1.4493  2.3551 -1.9360
33635SOL    HW2 3348   8.834  10.292   2.152 -1.4719 -1.4550  0.2799
33636SOL     OW 3349   6.540   2.069   2.521  0.0571 -0.1114 -0.1136
33636SOL    HW1 3350   6.592   2.081   2.600  0.0316  0.6850 -0.2131
33636SOL    HW2 3351   6.604   2.072   2.450 -0.2572  2.4320 -0.3578
33637SOL     OW 3352   6.135   0.996   9.966  0.3628  0.6991 -0.4506
33637SOL    HW1 3353   6.051   0.995   9.919  1.2953  3.0220 -2.3248
33637SOL    HW2 3354   6.123   1.062  10.034 -0.0652 -0.7182  0.9183
33638SOL     OW 3355   8.762   1.471   9.663  0.0413  0.3853 -0.1572
33638SOL    HW1 3356   8.765   1.562   9.694 -1.6371  0.5776 -0.4598
33638SOL    HW2 3357   8.700   1.473   9.591 -1.3352 -1.2964  0.9033
33639SOL     OW 3358   6.766   8.699   1.882  0.5975 -0.3642  0.1347
33639SOL    HW1 3359   6.791   8.756   1.810  1.1362  0.2070  0.7497
33639SOL    HW2 3360   6.753   8.613   1.842 -1.7064  0.4816 -1.0485
33640SOL     OW 3361   4.976  10.468  10.333  0.0591 -0.0512 -0.0659
33640SOL    HW1 3362   5.039  10.434  10.396 -0.5816 -2.9732 -0.8405
33640SOL    HW2 3363   5.010  10.439  10.248 -2.3966 -2.0485 -0.4785
33641SOL     OW 3364   6.489   9.573   5.947 -0.3973  0.5005  0.1354
33641SOL    HW1 3365   6.560   9.626   5.911 -1.4696  1.4200 -0.6869
33641SOL    HW2 3366   6.503   9.576   6.042  0.0606  1.5613  0.0491
33642SOL     OW 3367   7.239   2.164   1.390 -0.2208 -0.4213 -1.0947
33642SOL    HW1 3368   7.165   2.220   1.371  0.3486  1.3555  1.4236
33642SOL    HW2 3369   7.297   2.174   1.315 -0.9745  0.9199 -1.5305
33643SOL     OW 3370   6.385   8.273   3.723  0.5771  0.6360 -0.2137
33643SOL    HW1 3371   6.339   8.324   3.656 -0.1113 -0.8646 -0.9391
33643SOL    HW2 3372   6.341   8.295   3.805 -0.2942  0.5558 -0.6476
33644SOL     OW 3373  10.027   3.690   3.198 -0.3189  0.2052 -0.3945
33644SOL    HW1 3374  10.107   3.644   3.222 -0.4794  0.4688  0.7070
33644SOL    HW2 3375   9.974   3.625   3.151  0.4528 -0.0175 -0.9698
33645SOL     OW 3376   6.705   9.356   7.967 -0.4558  0.8859  0.2202
33645SOL    HW1 3377   6.616   9.321   7.968 -1.9783  4.3078 -0.4784
33645SOL    HW2 3378   6.753   9.303   8.031 -2.9475 -1.1090  0.5841
33646SOL     OW 3379   2.062   1.307   7.019  0.4504 -0.3326 -0.1754
33646SOL    HW1 3380   2.097   1.226   6.982  1.5686  0.5999 -1.2397
33646SOL    HW2 3381   2.026   1.355   6.944  0.3733  0.4353  0.3392
33647SOL     OW 3382   0.617   4.279   0.069 -0.3181 -0.1632  0.3867
33647SOL    HW1 3383   0.612   4.285   0.165  0.6285 -0.0305  0.4429
33647SOL    HW2 3384   0.695   4.329   0.047 -1.1319  0.7150 -0.5666
33648SOL     OW 3385   9.214   9.684   0.490  0.6452  0.2500  0.3321
33648SOL    HW1 3386   9.200   9.731   0.572 -1.0501  0.9393 -0.3046
33648SOL    HW2 3387   9.303   9.708   0.464  0.5103  1.5915  1.0105
33649SOL     OW 3388   8.118   5.061   5.168 -0.8585  0.0118 -0.1194
33649SOL    HW1 3389   8.054   5.130   5.150 -1.7545 -1.0712 -1.2955
33649SOL    HW2 3390   8.066   4.987   5.199 -0.0329 -0.4891  0.1180
33650SOL     OW 3391   2.175   3.771   6.453 -0.1651  0.3640 -0.0517
33650SOL    HW1 3392   2.184   3.754   6.547 -1.4973  1.2651  0.2726
33650SOL    HW2 3393   2.185   3.685   6.412  0.0479 -0.1050  0.9423
33651SOL     OW 3394   0.403   5.565   9.611  0.6945  0.0517 -0.2426
33651SOL    HW1 3395   0.466   5.614   9.663  0.1963  0.9246 -0.4351
33651SOL    HW2 3396   0.318   5.599   9.639  0.3942  0.1921 -1.2695
33652SOL     OW 3397   0.095   1.103   1.020  0.8589 -0.0219 -0.1132
33652SOL    HW1 3398   0.130   1.182   0.977  1.8317  0.2002  1.0294
33652SOL    HW2 3399   0.173   1.055   1.048  0.2753  0.0140  1.6804
33653SOL     OW 3400   7.163   0.942   1.754 -0.1065 -0.5251  0.4838
33653SOL    HW1 3401   7.143   1.030   1.723 -0.7639 -0.7509  0.2443
33653SOL    HW2 3402   7.078   0.900   1.762  0.1810 -1.0389  0.9077
33654SOL     OW 3403   4.761   6.520   6.806 -0.4499 -0.1296  0.1391
33654SOL    HW1 3404   4.672   6.486   6.801 -0.6663  0.3268  0.8792
33654SOL    HW2 3405   4.752   6.607   6.844  0.5773 -1.3062  3.4645
33655SOL     OW 3406   1.696   0.152  10.222  0.4889  0.6197 -0.6494
33655SOL    HW1 3407   1.652   0.079  10.264 -0.5058  2.7594  2.3232
33655SOL    HW2 3408   1.636   0.181  10.154  0.4840 -0.6558 -1.2294
33656SOL     OW 3409   6.013   6.989   3.017 -0.1520 -0.5110  0.0901
33656SOL    HW1 3410   6.034   6.977   3.110  1.1190 -0.7201 -0.2095
33656SOL    HW2 3411   6.096   7.015   2.977 -0.9918  1.0170 -0.7455
33657SOL     OW 3412   2.082   5.472   6.223 -0.1101 -0.0409 -0.3414
33657SOL    HW1 3413   2.138   5.460   6.299 -0.2888 -0.7238 -0.3153
33657SOL    HW2 3414   2.017   5.402   6.229 -1.4733  1.2119  0.0687
33658SOL     OW 3415   4.752   2.685   9.267 -0.9332  0.3533 -0.2729
33658SOL    HW1 3416   4.789   2.609   9.221  0.0974  0.5676  0.1737
33658SOL    HW2 3417   4.705   2.733   9.199 -1.8809 -0.8418 -0.4968
33659SOL     OW 3418   7.585   1.157   2.574 -0.2853 -0.1924  0.5909
33659SOL    HW1 3419   7.666   1.169   2.526 -0.1956  0.2026  0.8386
33659SOL    HW2 3420   7.606   1.091   2.640 -0.7202 -1.5957 -0.6297
33660SOL     OW 3421   5.024   3.433   6.247  0.2455 -0.2971  0.5514
33660SOL    HW1 3422   4.941   3.414   6.293 -1.0896 -1.1901 -2.0468
33660SOL    HW2 3423   5.089   3.435   6.317 -1.5376 -2.2068  2.4452
33661SOL     OW 3424   5.346   7.850   1.328 -0.6768 -0.0846 -0.5271
33661SOL    HW1 3425   5.394   7.821   1.251  1.6645 -0.0214  0.8345
33661SOL    HW2 3426   5.264   7.801   1.325 -0.3309 -0.6233 -2.6360
33662SOL     OW 3427   5.713   7.594   6.375  0.7010  0.0844 -0.4158
33662SOL    HW1 3428   5.676   7.649   6.306 -0.2774 -0.2260 -0.1524
33662SOL    HW2 3429   5.764   7.655   6.429 -0.7709  0.8679  0.1617
33663SOL     OW 3430   9.265   1.001   4.779 -0.2287  0.6175  0.7750
33663SOL    HW1 3431   9.256   0.968   4.869 -0.0363  0.0231  0.5796
33663SOL    HW2 3432   9.299   0.927   4.730  0.0937  1.0750  0.3003
33664SOL     OW 3433  10.415   4.465   0.567  0.3098  0.7954 -0.5903
33664SOL    HW1 3434  10.341   4.484   0.509 -1.2449 -0.3629  0.8961
33664SOL    HW2 3435  10.490   4.453   0.508 -1.0030  0.5666 -2.2781
33665SOL     OW 3436   9.442   3.503   1.018  0.3486  0.1749  0.4424
33665SOL    HW1 3437   9.451   3.554   1.098  0.0632  0.5352  0.2467
33665SOL    HW2 3438   9.445   3.567   0.948  2.6799 -0.3176  0.0279
33666SOL     OW 3439   0.920   5.427   1.021 -0.2790 -0.1040 -0.1065
33666SOL    HW1 3440   0.980   5.372   0.970  0.4598 -1.9139  2.4816
33666SOL    HW2 3441   0.839   5.376   1.025  0.4032 -1.1486  2.3013
33667SOL     OW 3442   7.966   7.516   1.759  0.3374 -0.5618  0.2832
33667SOL    HW1 3443   7.958   7.610   1.744 -0.2138 -0.7415 -0.6673
33667SOL    HW2 3444   7.994   7.508   1.850  0.8546  0.5312  0.2350
33668SOL     OW 3445   1.707   4.505   3.291 -0.2582 -0.5542 -0.4548
33668SOL    HW1 3446   1.682   4.478   3.202  0.6193  0.5137 -1.0517
33668SOL    HW2 3447   1.798   4.477   3.300  0.1873  0.8364 -0.5311
33669SOL     OW 3448   8.085   6.949   6.247  0.4053 -0.0633  0.6181
33669SOL    HW1 3449   8.034   6.995   6.180  1.0138  0.0125  0.2031
33669SOL    HW2 3450   8.072   7.001   6.326 -0.2306 -0.0906  0.5384
33670SOL     OW 3451   2.206   5.203   6.725 -0.0323 -0.5270 -0.4717
33670SOL    HW1 3452   2.133   5.253   6.761 -0.6152 -1.3734 -0.4509
33670SOL    HW2 3453   2.230   5.141   6.794  1.3315  0.3458 -0.1176
33671SOL     OW 3454   9.473   6.058   7.928  0.1654 -0.4587 -0.1715
33671SOL    HW1 3455   9.452   6.005   8.005 -0.7452  0.5378  0.2940
33671SOL    HW2 3456   9.401   6.041   7.867 -0.0665  0.1296 -0.0681
33672SOL     OW 3457   1.012   2.729   4.792 -0.3207 -0.4185  0.2765
33672SOL    HW1 3458   1.027   2.741   4.886 -0.4685  1.2066  0.1078
33672SOL    HW2 3459   1.051   2.805   4.751  0.9462 -1.7580 -1.1361
33673SOL     OW 3460   4.005   3.133   5.077  0.1842 -0.0666 -0.1340
33673SOL    HW1 3461   4.050   3.154   4.996  2.9924  1.6588  1.6787
33673SOL    HW2 3462   4.040   3.048   5.104 -1.6609 -1.2445 -1.2108
33674SOL     OW 3463   0.345   3.801   5.278  0.3693  0.1952 -0.1125
33674SOL    HW1 3464   0.285   3.774   5.348 -0.2031 -0.4766 -0.8424
33674SOL    HW2 3465   0.429   3.814   5.322  0.2037 -0.9340  0.5854
33675SOL     OW 3466   8.662   5.761   4.683 -0.2088  0.8034  0.0248
33675SOL    HW1 3467   8.712   5.679   4.673  2.0006  2.1496 -0.7529
33675SOL    HW2 3468   8.573   5.738   4.656  0.4619 -1.2455 -0.6441
33676SOL     OW 3469   2.362   4.684  10.048  0.1341  0.1662  0.0021
33676SOL    HW1 3470   2.355   4.710  10.140 -1.1024  1.3435 -0.3904
33676SOL    HW2 3471   2.354   4.588  10.050 -2.4332  0.2955  0.9736
33677SOL     OW 3472   5.803   4.706   4.199  0.1277 -0.0310 -0.0598
33677SOL    HW1 3473   5.842   4.782   4.243  1.4922 -1.1550  0.7803
33677SOL    HW2 3474   5.877   4.663   4.155 -0.7991 -0.3113 -1.4087
33678SOL     OW 3475   1.614   5.658   6.814 -0.4164 -0.1923  0.3732
33678SOL    HW1 3476   1.562   5.729   6.778 -0.0092 -0.0077  0.1411
33678SOL    HW2 3477   1.705   5.689   6.809 -0.2010 -0.8562 -0.0425
33679SOL     OW 3478   8.704  10.379   6.932 -0.5298 -0.3379  0.3319
33679SOL    HW1 3479   8.698  10.450   6.869 -2.3947 -0.2076  0.6017
33679SOL    HW2 3480   8.797  10.377   6.958 -0.2182  1.1783 -0.5825
33680SOL     OW 3481   2.268   4.697   1.760  0.0955 -0.1484  0.7290
33680SOL    HW1 3482   2.335   4.764   1.746 -0.9567  1.0160  1.0236
33680SOL    HW2 3483   2.296   4.623   1.707  1.2347  0.5753  0.2871
33681SOL     OW 3484   0.159   1.309   8.860  0.2196  0.1548  0.0696
33681SOL    HW1 3485   0.127   1.390   8.820 -1.0232 -0.5794 -0.4795
33681SOL    HW2 3486   0.136   1.241   8.798  0.2562 -0.7540  1.0273
33682SOL     OW 3487   8.779   4.601   5.669  0.1084 -0.4932  0.5509
33682SOL    HW1 3488   8.854   4.645   5.710  0.7545 -1.7114  0.7106
33682SOL    HW2 3489   8.783   4.630   5.578  0.0091  0.4411  0.8242
33683SOL     OW 3490   1.969   4.577   4.258  0.0335 -0.0647 -0.3267
33683SOL    HW1 3491   2.064   4.589   4.259  0.0446 -0.1957  0.6858
33683SOL    HW2 3492   1.954   4.510   4.191  0.6707 -0.1923 -0.3508
33684SOL     OW 3493   1.128   6.176   3.582 -0.4436  0.1196 -0.1755
33684SOL    HW1 3494   1.211   6.197   3.538 -1.4368 -0.9926 -2.7630
33684SOL    HW2 3495   1.151   6.106   3.643  0.7058  0.6037 -0.0156
33685SOL     OW 3496   2.511   5.150   9.216  0.0186  0.0522  1.1959
33685SOL    HW1 3497   2.574   5.126   9.148 -0.5856  0.5274  0.4518
33685SOL    HW2 3498   2.447   5.079   9.215 -0.0983  0.1578  1.1265
33686SOL     OW 3499   6.127   6.217   7.838 -0.7190 -0.2098  0.3243
33686SOL    HW1 3500   6.071   6.149   7.875 -1.5826  0.5457  0.4399
33686SOL    HW2 3501   6.103   6.297   7.885 -0.2352  0.3188 -0.3022
33687SOL     OW 3502  10.218   7.947   8.586  0.2944  0.4850  0.0270
33687SOL    HW1 3503  10.230   7.950   8.491  0.7242  0.1210  0.0667
33687SOL    HW2 3504  10.307   7.950   8.621  0.1348  0.6407  0.4191
33688SOL     OW 3505   2.691   8.443   5.884 -0.5181  0.3313 -0.3469
33688SOL    HW1 3506   2.622   8.490   5.838 -1.2437 -1.3034 -0.9981
33688SOL    HW2 3507   2.705   8.363   5.833  0.2301 -0.4691  1.0361
33689SOL     OW 3508   1.003  10.303   2.492 -0.3189 -0.5277  0.5369
33689SOL    HW1 3509   0.914  10.337   2.502  0.4614  1.3653  1.4026
33689SOL    HW2 3510   1.047  10.330   2.573  1.4507 -0.1530 -0.5293
33690SOL     OW 3511  10.469   1.253   6.418  0.2133 -0.5967  0.5675
33690SOL    HW1 3512  10.418   1.333   6.407 -0.3728 -0.8379  1.4092
33690SOL    HW2 3513  10.543   1.263   6.358 -0.8360 -0.2590 -0.7382
33691SOL     OW 3514   3.075   8.067   1.494 -0.1076 -0.6263  0.5370
33691SOL    HW1 3515   3.002   8.014   1.462 -1.1693  1.3364 -0.5141
33691SOL    HW2 3516   3.117   8.013   1.561 -1.0988 -2.7420 -0.4532
33692SOL     OW 3517   0.119   4.060  10.003  0.0017  0.4814  0.5166
33692SOL    HW1 3518   0.120   4.043   9.909 -1.0690 -1.4487  0.8032
33692SOL    HW2 3519   0.088   4.151  10.010  2.1308  1.4059 -1.0083
33693SOL     OW 3520  10.294   1.542  10.195  0.2692 -0.4253  0.0814
33693SOL    HW1 3521  10.375   1.544  10.246  0.4609 -1.1671 -0.1812
33693SOL    HW2 3522  10.226   1.572  10.255  0.3620 -1.9898  1.0015
33694SOL     OW 3523   3.073   0.707   2.282 -0.5614  0.2104  0.1381
33694SOL    HW1 3524   3.020   0.787   2.284 -0.1092  0.5532 -1.0572
33694SOL    HW2 3525   3.148   0.728   2.227  1.5119  0.1145  2.7092
33695SOL     OW 3526   5.496  10.134   6.658 -0.2568 -0.5187  0.3156
33695SOL    HW1 3527   5.557  10.067   6.625  0.4397 -0.5605  1.6250
33695SOL    HW2 3528   5.427  10.138   6.591  0.8222 -0.9522 -0.8756
33696SOL     OW 3529   2.158   1.860   1.846  0.2431 -0.5111 -0.2400
33696SOL    HW1 3530   2.160   1.919   1.771 -1.7354  1.4314  1.0997
33696SOL    HW2 3531   2.250   1.855   1.874  0.9754 -1.0154 -2.5053
33697SOL     OW 3532   0.489   9.663   4.513  0.2384 -0.1271  0.2355
33697SOL    HW1 3533   0.483   9.666   4.418  0.9720  1.6095  0.2094
33697SOL    HW2 3534   0.427   9.594   4.539 -1.1323  0.4377 -1.3917
33698SOL     OW 3535   0.830   0.385   1.404  0.6234  0.1996  0.0553
33698SOL    HW1 3536   0.865   0.307   1.362 -1.1131 -0.5207 -0.1388
33698SOL    HW2 3537   0.741   0.393   1.370 -0.2181  0.6435  2.1862
33699SOL     OW 3538   3.812  10.420   2.900  0.2418 -0.3331 -0.0032
33699SOL    HW1 3539   3.808  10.326   2.882 -1.3100 -0.2026 -0.5471
33699SOL    HW2 3540   3.746  10.458   2.842  1.4206  1.2036 -0.3923
33700SOL     OW 3541   7.500   7.134  10.127  0.1888  0.1042 -0.6237
33700SOL    HW1 3542   7.472   7.109  10.039 -0.5640 -0.8301 -0.1429
33700SOL    HW2 3543   7.574   7.193  10.113 -0.4897  0.6970 -1.8881
33701SOL     OW 3544   2.596   7.041   3.056  0.8851 -0.0636  0.2797
33701SOL    HW1 3545   2.559   6.970   3.003  1.1774  1.2724 -1.8292
33701SOL    HW2 3546   2.617   7.000   3.140 -0.3439 -2.0995 -0.3420
33702SOL     OW 3547   9.935   9.129   8.372 -0.9685 -0.2366 -0.3500
33702SOL    HW1 3548   9.998   9.057   8.372 -0.8301 -0.1274  0.6227
33702SOL    HW2 3549   9.977   9.198   8.321 -1.3382 -1.0233 -1.7887
33703SOL     OW 3550   8.167   9.259   2.883 -0.6218  0.8552  0.0412
33703SOL    HW1 3551   8.128   9.206   2.952  0.0362  0.1801 -0.0969
33703SOL    HW2 3552   8.239   9.207   2.850 -0.2511  1.6385 -0.4224
33704SOL     OW 3553  10.077   1.338   5.229  0.0235  0.1138 -0.6941
33704SOL    HW1 3554  10.089   1.432   5.219 -3.5614  0.6772 -0.9237
33704SOL    HW2 3555  10.062   1.306   5.140 -1.5950 -0.1500 -0.3432
33705SOL     OW 3556   6.526   7.503   6.245  0.0118  0.2980 -0.2537
33705SOL    HW1 3557   6.602   7.537   6.198  0.8972  1.5661  1.9418
33705SOL    HW2 3558   6.562   7.472   6.329 -1.8447  0.6207  0.7076
33706SOL     OW 3559   7.728   8.156   6.383  0.3747  0.1560  0.2608
33706SOL    HW1 3560   7.780   8.194   6.453  0.3519  0.2484  0.2289
33706SOL    HW2 3561   7.709   8.067   6.412 -1.2446  0.7837  1.2627
33707SOL     OW 3562   8.218   7.087   1.406  0.0611  0.2707 -0.3868
33707SOL    HW1 3563   8.241   7.157   1.345  2.7254  0.0727  0.2397
33707SOL    HW2 3564   8.127   7.104   1.429  0.0635  2.4295 -1.6915
33708SOL     OW 3565  10.443   9.464   4.998 -0.0783  0.2768  0.6893
33708SOL    HW1 3566  10.392   9.383   4.994  0.4761 -0.0948  0.9006
33708SOL    HW2 3567  10.522   9.445   4.947 -0.7506  1.3078 -0.7765
33709SOL     OW 3568   0.102   0.777   2.435 -0.2837 -0.2743  0.0575
33709SOL    HW1 3569   0.044   0.718   2.387  1.7924 -2.4402  0.0147
33709SOL    HW2 3570   0.093   0.751   2.526  1.1025 -1.1442 -0.0277
33710SOL     OW 3571   4.164   4.431   0.053  0.1532 -0.6053 -0.0898
33710SOL    HW1 3572   4.212   4.491   0.110 -0.3076 -0.4733  0.1617
33710SOL    HW2 3573   4.167   4.472  -0.034  0.8516 -0.8049 -0.1652
33711SOL     OW 3574   3.147   7.053   5.348 -0.1361  0.2763  0.3237
33711SOL    HW1 3575   3.216   7.117   5.330  0.2713 -0.2209  0.1084
33711SOL    HW2 3576   3.166   7.022   5.437  1.6834 -2.0032 -0.7476
33712SOL     OW 3577   1.889   0.835   4.975  0.2269  0.2747 -0.2362
33712SOL    HW1 3578   1.926   0.909   5.023  0.1374  0.0690  0.1471
33712SOL    HW2 3579   1.859   0.775   5.042 -0.5210  0.2905 -0.5478
33713SOL     OW 3580   8.653   8.809   6.419 -0.4959  0.1973 -0.0988
33713SOL    HW1 3581   8.729   8.847   6.375  0.3332 -0.3661  0.8106
33713SOL    HW2 3582   8.593   8.883   6.431  1.0369  1.2494  1.5633
33714SOL     OW 3583   7.699   0.892   7.002  0.1406 -0.0126  0.4227
33714SOL    HW1 3584   7.695   0.978   6.962  0.3807  0.3306  1.1225
33714SOL    HW2 3585   7.653   0.835   6.940 -0.5311  0.7170  0.2343
33715SOL     OW 3586   9.424   3.156   6.512 -0.0952 -0.1936  0.1915
33715SOL    HW1 3587   9.342   3.107   6.519  0.3784 -0.9327  0.6990
33715SOL    HW2 3588   9.453   3.168   6.602  1.8468 -2.5657 -0.0034
33716SOL     OW 3589   2.263   6.353   8.204  0.3254  0.0514  0.1309
33716SOL    HW1 3590   2.251   6.261   8.231  1.8149 -0.2652 -0.1766
33716SOL    HW2 3591   2.338   6.350   8.145  1.4899  1.6961  1.4477
33717SOL     OW 3592   0.626   7.956   1.431  0.5904 -0.3057  0.1062
33717SOL    HW1 3593   0.595   8.040   1.465  0.2115 -0.5438  0.3501
33717SOL    HW2 3594   0.551   7.898   1.438  1.2494 -1.0534  1.2463
33718SOL     OW 3595   2.401   8.246   5.947 -0.0003 -0.2655 -0.1444
33718SOL    HW1 3596   2.318   8.199   5.959  0.0667 -0.4005 -0.2052
33718SOL    HW2 3597   2.468   8.178   5.951  0.1516 -0.0859  0.4421
33719SOL     OW 3598   9.787   1.668   6.002  0.1895  0.1864 -0.5176
33719SOL    HW1 3599   9.805   1.716   6.083  0.9497 -0.9199 -0.0108
33719SOL    HW2 3600   9.695   1.641   6.010 -0.2623  1.5244 -0.8243
33720SOL     OW 3601   3.451   5.485   9.553  0.5765 -0.2271 -0.3469
33720SOL    HW1 3602   3.498   5.517   9.477  2.0916  0.6254  0.8920
33720SOL    HW2 3603   3.431   5.563   9.604  1.0170 -0.8943  0.8983
33721SOL     OW 3604   7.205   9.301   5.375  0.0647  0.1317  0.2651
33721SOL    HW1 3605   7.109   9.298   5.371  0.0335 -0.2890  1.0121
33721SOL    HW2 3606   7.225   9.380   5.425  0.1308  0.4775 -0.2976
33722SOL     OW 3607   4.062   6.146   8.297  0.9138 -0.7243  0.2063
33722SOL    HW1 3608   4.045   6.218   8.358 -0.5085 -0.2698 -0.6782
33722SOL    HW2 3609   4.153   6.159   8.269  0.6609  0.7871 -0.0051
33723SOL     OW 3610  10.181   0.209   0.699 -0.2259 -0.2520  0.5336
33723SOL    HW1 3611  10.205   0.178   0.786  0.2731 -1.0357  0.1271
33723SOL    HW2 3612  10.124   0.140   0.664  0.4968 -0.4930 -0.1952
33724SOL     OW 3613   9.647   7.727   1.668  0.2494 -0.1385 -0.5881
33724SOL    HW1 3614   9.560   7.703   1.699  1.3892 -2.7864  0.9316
33724SOL    HW2 3615   9.668   7.661   1.603  0.7802  1.0618 -1.6746
33725SOL     OW 3616   9.256   5.599   3.590 -0.1280 -0.1186  0.1246
33725SOL    HW1 3617   9.271   5.513   3.630  0.6580 -0.4208 -0.7754
33725SOL    HW2 3618   9.166   5.595   3.558 -0.1881 -0.5058  0.3304
33726SOL     OW 3619   5.972   5.386   0.566 -0.2126  0.4149  0.6412
33726SOL    HW1 3620   5.885   5.376   0.605 -0.3595 -1.5574 -0.0934
33726SOL    HW2 3621   5.956   5.387   0.472  0.6067 -0.5221  0.4846
33727SOL     OW 3622   8.006   1.987   0.473  0.8376  0.8288  0.2125
33727SOL    HW1 3623   7.932   1.934   0.503 -0.6357  3.1076  0.9494
33727SOL    HW2 3624   8.065   1.991   0.548  0.5856  0.8212  0.4141
33728SOL     OW 3625   6.512   4.289   1.374 -0.5479 -0.2767 -0.3900
33728SOL    HW1 3626   6.468   4.305   1.458 -1.2359  0.4833 -0.8762
33728SOL    HW2 3627   6.445   4.248   1.319 -0.3816  0.0659 -0.8538
33729SOL     OW 3628   1.550   8.517   1.470  0.2154  0.2414  0.0537
33729SOL    HW1 3629   1.506   8.532   1.554  1.1149 -0.7722  0.7252
33729SOL    HW2 3630   1.512   8.583   1.412  1.4248  2.7694  1.9061
33730SOL     OW 3631   9.925   7.129   8.855  0.0389  0.3530 -0.5237
33730SOL    HW1 3632   9.861   7.057   8.851  0.3760  0.0751 -1.0316
33730SOL    HW2 3633   9.929   7.162   8.765  0.2976  0.6498 -0.4032
33731SOL     OW 3634   1.512   7.770   9.936 -0.5793  0.0173 -0.2321
33731SOL    HW1 3635   1.418   7.783   9.950 -0.5283  1.6344 -1.2002
33731SOL    HW2 3636   1.531   7.817   9.855  1.0907 -0.2225 -0.0058
33732SOL     OW 3637   5.040   7.683   8.054  0.1301  0.2088  0.1412
33732SOL    HW1 3638   5.107   7.637   8.105 -0.2065 -2.5149 -1.6333
33732SOL    HW2 3639   4.986   7.613   8.018 -4.1500  2.2446  1.9186
33733SOL     OW 3640   5.531   2.904   5.281 -0.1587  0.1646  0.5150
33733SOL    HW1 3641   5.518   2.823   5.331 -0.0729 -0.5278 -0.5624
33733SOL    HW2 3642   5.552   2.970   5.348  0.0800 -0.7613  1.3804
33734SOL     OW 3643  10.408   5.243   4.739  0.2543 -0.1819 -0.0356
33734SOL    HW1 3644  10.370   5.282   4.818  0.4104 -1.1982  0.5741
33734SOL    HW2 3645  10.437   5.317   4.687  0.6897  0.5125  1.1449
33735SOL     OW 3646   9.768   6.437   2.471  0.2130 -0.5864  0.0188
33735SOL    HW1 3647   9.752   6.406   2.382  2.7657  2.6463 -1.7975
33735SOL    HW2 3648   9.861   6.419   2.487  0.4317  1.1393  0.9673
33736SOL     OW 3649   9.251   8.927   7.176 -0.2420  0.0656 -0.3124
33736SOL    HW1 3650   9.247   8.864   7.248 -0.2268 -0.6581 -0.9318
33736SOL    HW2 3651   9.195   8.999   7.205 -0.9451 -0.6101  0.0567
33737SOL     OW 3652   4.211   1.591  10.253 -0.0240  0.3488  0.3625
33737SOL    HW1 3653   4.240   1.680  10.233  1.1989 -0.1637 -0.3224
33737SOL    HW2 3654   4.167   1.562  10.174 -1.1891  0.6275  0.8949
33738SOL     OW 3655   5.850   3.534   7.896  0.2260 -0.2784  0.3740
33738SOL    HW1 3656   5.797   3.459   7.869  0.8339  0.1166 -2.1447
33738SOL    HW2 3657   5.929   3.528   7.843 -0.2930  2.8746 -1.0066
33739SOL     OW 3658   5.112   9.503   4.116  0.0908  0.2445  0.9820
33739SOL    HW1 3659   5.155   9.588   4.116  0.4273  0.0851  2.0542
33739SOL    HW2 3660   5.178   9.442   4.084 -0.5474  0.5412 -1.0657
33740SOL     OW 3661   5.082   5.841   6.169  0.0875  0.3285  0.5046
33740SOL    HW1 3662   5.041   5.923   6.142  2.4316  1.4399  0.0709
33740SOL    HW2 3663   5.066   5.836   6.264 -1.3707  0.4745  0.2823
33741SOL     OW 3664   3.491   7.017   9.541  0.0868 -0.0294 -0.6273
33741SOL    HW1 3665   3.536   6.965   9.607 -1.2698 -0.3745  0.0489
33741SOL    HW2 3666   3.508   6.971   9.459 -2.3366 -2.4988  0.1333
33742SOL     OW 3667   5.659   4.301   9.073 -0.0016  0.6719  0.3161
33742SOL    HW1 3668   5.579   4.314   9.021 -1.8049 -1.6910  2.2434
33742SOL    HW2 3669   5.714   4.245   9.018  0.2572  2.0500 -0.8970
33743SOL     OW 3670   3.064   5.921   3.274 -0.5287  0.3945 -0.5587
33743SOL    HW1 3671   3.104   5.894   3.192 -2.1534 -0.5313 -1.1046
33743SOL    HW2 3672   3.125   5.892   3.342  1.3337  2.0930 -1.4378
33744SOL     OW 3673  10.204   5.888   0.684 -0.3781  0.7344 -0.3661
33744SOL    HW1 3674  10.182   5.981   0.689 -2.3563  0.3146 -0.3883
33744SOL    HW2 3675  10.179   5.862   0.595 -0.0544  0.1234 -0.2869
33745SOL     OW 3676   0.102   2.158   2.301 -0.1743 -0.0542  0.7017
33745SOL    HW1 3677   0.172   2.218   2.325  0.7962 -0.6962 -0.4585
33745SOL    HW2 3678   0.128   2.074   2.338  0.9609 -0.8806 -1.7840
33746SOL     OW 3679   4.796  10.487   9.905 -0.1250 -0.1105 -0.3161
33746SOL    HW1 3680   4.873  10.520   9.951 -0.9625 -0.9325  1.8253
33746SOL    HW2 3681   4.728  10.551   9.923 -1.2880 -1.9320  2.3686
33747SOL     OW 3682   8.452   0.891   4.629  0.2659 -0.4511 -0.1614
33747SOL    HW1 3683   8.518   0.956   4.610  0.2333 -0.9121 -1.9833
33747SOL    HW2 3684   8.372   0.925   4.590 -0.1491 -0.7613  0.4055
33748SOL     OW 3685   7.655   7.147   7.514  0.3645  0.0949 -0.5150
33748SOL    HW1 3686   7.693   7.060   7.502 -0.8866 -0.6834  0.9290
33748SOL    HW2 3687   7.731   7.206   7.510  1.8057 -1.3789  2.0692
33749SOL     OW 3688   0.730  10.358   2.500  0.4656  0.6879  0.2261
33749SOL    HW1 3689   0.721  10.405   2.583  0.6401 -1.5397  1.5898
33749SOL    HW2 3690   0.683  10.276   2.514  0.5966  0.1994 -1.8668
33750SOL     OW 3691   3.066   7.707   4.494 -0.5672 -0.3302  0.4923
33750SOL    HW1 3692   3.053   7.794   4.455 -0.2508 -0.0380  1.0394
33750SOL    HW2 3693   3.103   7.724   4.580 -0.6821 -1.0056  0.6793
33751SOL     OW 3694   7.762   2.524   0.553  0.4798 -0.0881 -0.3487
33751SOL    HW1 3695   7.678   2.520   0.507  0.8080 -0.0005 -0.9666
33751SOL    HW2 3696   7.826   2.547   0.485  0.8089  1.1845  0.3703
33752SOL     OW 3697   9.973   3.180   2.720  0.4656 -0.4219  0.1138
33752SOL    HW1 3698   9.889   3.134   2.726  1.6052 -2.8629 -1.3426
33752SOL    HW2 3699   9.980   3.207   2.629  0.8574  0.6577  0.4436
33753SOL     OW 3700   6.917   7.242   2.522  0.5050 -0.0684 -0.5787
33753SOL    HW1 3701   6.938   7.319   2.574 -1.2025  1.1372 -1.5559
33753SOL    HW2 3702   6.929   7.270   2.431  1.2208 -1.4036 -0.9149
33754SOL     OW 3703   0.762   9.480   0.121  0.3154 -0.0189 -0.5578
33754SOL    HW1 3704   0.751   9.409   0.184  1.6155  0.4276  0.1917
33754SOL    HW2 3705   0.672   9.502   0.096 -0.1582 -1.2486 -0.0671
33755SOL     OW 3706   7.974   0.228   6.897 -0.3566 -0.3046  0.7573
33755SOL    HW1 3707   8.048   0.175   6.926 -0.0001 -0.2833 -0.0788
33755SOL    HW2 3708   8.009   0.317   6.891 -0.8117 -0.0614  1.6518
33756SOL     OW 3709   1.458   4.809   1.967 -0.1269  0.3356 -0.0415
33756SOL    HW1 3710   1.433   4.720   1.994  0.3570  0.2268  0.0621
33756SOL    HW2 3711   1.493   4.799   1.879 -0.1240  0.4302 -0.0511
33757SOL     OW 3712  10.301   0.630   9.351 -0.3610  0.1530  0.3843
33757SOL    HW1 3713  10.283   0.550   9.301 -0.9164  1.5415 -1.7468
33757SOL    HW2 3714  10.229   0.636   9.414 -1.3917 -0.0383 -0.7451
33758SOL     OW 3715   0.204  10.464   5.225 -0.4713  0.0032  0.1713
33758SOL    HW1 3716   0.161  10.410   5.291 -0.6764  0.0985  0.1177
33758SOL    HW2 3717   0.293  10.430   5.219 -0.3165  0.2780  0.8209
33759SOL     OW 3718   1.172  10.335   3.271 -0.4977 -0.4037  0.1636
33759SOL    HW1 3719   1.130  10.383   3.343  0.4945  0.1128  0.4150
33759SOL    HW2 3720   1.236  10.396   3.236 -1.2357 -0.5124 -1.4391
33760SOL     OW 3721   7.144   3.712   1.549  0.4398 -0.1428  0.3312
33760SOL    HW1 3722   7.178   3.657   1.479 -0.6603  2.2829 -2.2924
33760SOL    HW2 3723   7.206   3.785   1.556  1.7019 -1.3184  3.5223
33761SOL     OW 3724   8.327   8.607   4.926 -0.2972  0.4434  0.4077
33761SOL    HW1 3725   8.367   8.535   4.877  0.8035  1.3535 -0.0576
33761SOL    HW2 3726   8.364   8.600   5.014 -1.1221 -0.2746  0.7147
33762SOL     OW 3727   2.497   6.678   4.994  0.3472  0.4245  0.1103
33762SOL    HW1 3728   2.531   6.653   5.080 -1.1293 -0.4370  0.4826
33762SOL    HW2 3729   2.567   6.731   4.955  2.6906 -2.3797  0.2248
33763SOL     OW 3730   8.033   8.061   9.021 -0.3630 -0.1475  0.3173
33763SOL    HW1 3731   8.119   8.086   8.987 -1.8826  1.2990 -2.8473
33763SOL    HW2 3732   8.021   8.115   9.099  0.7036  1.2610 -0.4599
33764SOL     OW 3733   0.405   7.012   3.860 -0.2082 -0.6338 -0.5310
33764SOL    HW1 3734   0.473   6.977   3.918 -0.5801 -1.5129 -0.6221
33764SOL    HW2 3735   0.430   7.104   3.848  1.3170 -1.0829 -1.0430
33765SOL     OW 3736   0.320   0.755   3.004  0.4593 -0.1211 -0.2705
33765SOL    HW1 3737   0.380   0.774   2.932  1.8396 -0.9239  0.6254
33765SOL    HW2 3738   0.307   0.840   3.046  0.7868  0.1076 -0.6146
33766SOL     OW 3739   2.297   9.887   8.100  0.1455  0.2086 -0.6991
33766SOL    HW1 3740   2.346   9.856   8.024 -1.9711  0.5618 -2.3075
33766SOL    HW2 3741   2.226   9.825   8.110 -0.4065  0.9509  0.1355
33767SOL     OW 3742   5.333   3.704   4.806  0.1742 -1.3078 -0.6065
33767SOL    HW1 3743   5.331   3.743   4.893  0.0912  0.5378 -1.3895
33767SOL    HW2 3744   5.312   3.612   4.820  0.3359 -1.0794  1.3266
33768SOL     OW 3745   9.562   7.325   5.095  0.3559 -0.2897  0.4928
33768SOL    HW1 3746   9.657   7.327   5.081  0.2634 -1.8680 -0.6695
33768SOL    HW2 3747   9.543   7.406   5.143  2.2086  0.3221  0.2852
33769SOL     OW 3748   8.545   6.816   5.581 -0.5543 -0.2633  0.7050
33769SOL    HW1 3749   8.521   6.816   5.674  0.6656 -1.0744  1.0459
33769SOL    HW2 3750   8.639   6.831   5.580 -0.5566 -0.2024 -0.4076
33770SOL     OW 3751   1.441   8.994   3.799 -0.0928 -0.3983 -0.4648
33770SOL    HW1 3752   1.378   8.988   3.871  0.3502 -0.6669 -0.1017
33770SOL    HW2 3753   1.434   8.909   3.755  0.1939 -0.5227 -0.2740
33771SOL     OW 3754   7.439   1.707   6.506 -0.6300  0.1835  0.4597
33771SOL    HW1 3755   7.426   1.748   6.591 -1.3141  0.6851  0.1283
33771SOL    HW2 3756   7.352   1.675   6.482 -0.1901 -1.0907  0.5166
33772SOL     OW 3757  10.262   7.972   2.413  0.1610 -0.4076  0.2559
33772SOL    HW1 3758  10.307   7.889   2.399 -0.5479 -0.7337 -0.1385
33772SOL    HW2 3759  10.302   8.007   2.492 -0.8522 -2.0749  1.5955
33773SOL     OW 3760   3.088   3.595   0.622 -0.6423  0.3580  0.2455
33773SOL    HW1 3761   3.066   3.622   0.532  1.3408  0.7950 -0.1437
33773SOL    HW2 3762   3.171   3.638   0.640 -0.7535 -0.1652  2.1223
33774SOL     OW 3763   1.567   0.499   4.564 -0.0365 -0.0200 -0.3341
33774SOL    HW1 3764   1.628   0.436   4.602 -0.7901  0.4394  1.7187
33774SOL    HW2 3765   1.591   0.582   4.604 -0.0952  0.7367 -1.8074
33775SOL     OW 3766  10.188   5.338   2.205  0.8851 -0.0567  0.2648
33775SOL    HW1 3767  10.138   5.393   2.144  1.2352 -0.5408 -0.4738
33775SOL    HW2 3768  10.132   5.261   2.219  0.3896  0.4609  1.3096
33776SOL     OW 3769   1.887   0.545   8.219  0.1981  0.2224 -0.1686
33776SOL    HW1 3770   1.980   0.525   8.212  0.4821  1.7629 -1.4993
33776SOL    HW2 3771   1.868   0.540   8.313  1.4340 -0.7881  0.0531
33777SOL     OW 3772   7.422   0.876   8.155  0.0039  0.5423 -0.5827
33777SOL    HW1 3773   7.373   0.807   8.110 -0.5553 -0.0467  0.8710
33777SOL    HW2 3774   7.510   0.872   8.116  0.2606 -1.6240  0.0673
33778SOL     OW 3775   1.016   7.372   2.893  0.4284 -0.0824 -0.0419
33778SOL    HW1 3776   1.027   7.335   2.980 -2.1016  2.8295  1.7248
33778SOL    HW2 3777   0.948   7.318   2.852  0.5261 -0.5490  0.4070
33779SOL     OW 3778   8.223   8.852   0.055 -0.1634  0.1030  0.2240
33779SOL    HW1 3779   8.249   8.763   0.029  0.7990 -0.2403  2.1392
33779SOL    HW2 3780   8.291   8.908   0.019  0.0000 -0.1157  0.1846
33780SOL     OW 3781   1.424   7.412   2.403  0.3663  0.4537  0.7952
33780SOL    HW1 3782   1.454   7.476   2.337 -0.6973  0.8960  0.7232
33780SOL    HW2 3783   1.367   7.462   2.461 -0.0637 -0.3194  1.0519
33781SOL     OW 3784   3.081   2.649   7.093 -0.0427 -0.2106 -0.1447
33781SOL    HW1 3785   3.027   2.612   7.023 -1.8419  2.7380 -0.4382
33781SOL    HW2 3786   3.044   2.613   7.174 -1.1223  0.1568 -0.4619
33782SOL     OW 3787   8.479   6.246   1.708  0.2128  0.9102 -0.0616
33782SOL    HW1 3788   8.441   6.199   1.634 -2.0119  1.1478  0.8591
33782SOL    HW2 3789   8.466   6.339   1.687  1.1883  1.0384 -0.1554
33783SOL     OW 3790   3.289   2.354   3.591 -0.2275  0.2757 -0.0442
33783SOL    HW1 3791   3.198   2.354   3.564  0.2172 -0.3517 -1.6272
33783SOL    HW2 3792   3.332   2.416   3.532  0.5747 -0.2723 -0.0510
33784SOL     OW 3793   7.585   3.606  10.414 -0.5973  0.0482  0.5298
33784SOL    HW1 3794   7.633   3.689  10.419 -0.3149  0.0295 -1.3357
33784SOL    HW2 3795   7.607   3.561  10.495  2.0369  0.3079  0.0404
33785SOL     OW 3796   2.298   9.125   1.864 -0.2732 -0.0647  0.1254
33785SOL    HW1 3797   2.222   9.072   1.838  0.7171 -0.7183 -1.6120
33785SOL    HW2 3798   2.314   9.182   1.789  0.3814  0.7489  0.8639
33786SOL     OW 3799   6.863   2.896   2.701 -0.5760  0.2677  0.0016
33786SOL    HW1 3800   6.826   2.982   2.718 -0.0807  0.5205 -0.1789
33786SOL    HW2 3801   6.955   2.913   2.680 -0.2230 -0.3875  0.9361
33787SOL     OW 3802   4.429   1.347   5.099 -0.0161 -0.0645 -0.0818
33787SOL    HW1 3803   4.349   1.350   5.047  0.8487 -1.1820 -1.5691
33787SOL    HW2 3804   4.459   1.256   5.092  1.1710  0.2325  0.7640
33788SOL     OW 3805   0.444   3.395   2.075 -0.2112  0.1474 -0.3211
33788SOL    HW1 3806   0.389   3.320   2.100  0.2464 -0.6815 -1.6926
33788SOL    HW2 3807   0.490   3.366   1.997  1.2245  1.2988  0.0516
33789SOL     OW 3808   8.344   3.886   8.776 -0.2553 -0.5629 -0.2231
33789SOL    HW1 3809   8.370   3.953   8.839  0.4098 -1.5222  0.5590
33789SOL    HW2 3810   8.371   3.921   8.691  1.2229 -0.3592  0.2922
33790SOL     OW 3811   6.813   6.141   4.576 -0.5269  0.0352  0.1279
33790SOL    HW1 3812   6.765   6.194   4.640  0.6053  1.9285 -0.5045
33790SOL    HW2 3813   6.859   6.076   4.628 -1.1644  0.2970  1.0427
33791SOL     OW 3814   4.004   7.081   7.792 -0.1883 -0.0536  0.2495
33791SOL    HW1 3815   4.096   7.080   7.821  0.4386 -1.0005 -1.6119
33791SOL    HW2 3816   4.006   7.130   7.710 -1.3640 -0.1035  0.1803
33792SOL     OW 3817   1.960   7.554   1.548  0.3275 -0.1600 -0.2987
33792SOL    HW1 3818   1.879   7.505   1.534  0.1470  0.3622 -1.1087
33792SOL    HW2 3819   1.959   7.622   1.481  0.8338  0.6258  0.4694
33793SOL     OW 3820   0.462   3.919   5.905  0.0956  0.1711 -0.0454
33793SOL    HW1 3821   0.554   3.936   5.889  0.5998 -0.6656  1.6765
33793SOL    HW2 3822   0.459   3.828   5.935 -1.5298 -0.4149 -1.7707
33794SOL     OW 3823   6.174   2.078   9.326 -0.0288 -0.0539  0.0668
33794SOL    HW1 3824   6.238   2.070   9.397 -0.3916 -1.3834  0.2763
33794SOL    HW2 3825   6.096   2.113   9.368 -0.2295 -0.7977  0.3227
33795SOL     OW 3826   4.654   2.488   1.302  0.4240  0.2453  0.1875
33795SOL    HW1 3827   4.643   2.410   1.356 -0.3709  0.0635 -0.2217
33795SOL    HW2 3828   4.740   2.522   1.326  0.0366  0.2489  1.6747
33796SOL     OW 3829   3.217   2.474   4.871 -0.8751  0.0480 -0.2743
33796SOL    HW1 3830   3.216   2.563   4.906 -1.9765  0.2518 -0.7520
33796SOL    HW2 3831   3.205   2.418   4.948 -1.4473  0.3899 -0.1065
33797SOL     OW 3832   8.220   9.866   7.760 -0.4488 -0.1617 -0.2088
33797SOL    HW1 3833   8.199   9.937   7.699  0.9955 -0.7245 -1.4335
33797SOL    HW2 3834   8.219   9.787   7.706 -0.2675 -0.8382  0.7492
33798SOL     OW 3835   8.638   1.578   1.161 -0.0123 -0.0894  0.4098
33798SOL    HW1 3836   8.586   1.499   1.147  0.5553 -0.2003 -1.3310
33798SOL    HW2 3837   8.625   1.599   1.254 -2.1313 -0.8094  0.3350
33799SOL     OW 3838   7.550   9.000   4.700 -0.3082 -0.0074 -0.4446
33799SOL    HW1 3839   7.540   8.905   4.701  1.9206 -0.3159  1.5057
33799SOL    HW2 3840   7.601   9.018   4.622  0.7545 -0.6447  0.0832
33800SOL     OW 3841   9.535   8.700   5.798 -0.0352 -0.1389  0.7281
33800SOL    HW1 3842   9.448   8.734   5.776 -0.0234 -0.4498  0.1670
33800SOL    HW2 3843   9.530   8.678   5.891 -1.0059 -1.4303  0.4061
33801SOL     OW 3844   9.558   8.258   4.728  0.1367  0.4558  0.0279
33801SOL    HW1 3845   9.530   8.350   4.729  2.0731  1.1223  2.0199
33801SOL    HW2 3846   9.522   8.223   4.646 -1.2210  2.7882 -0.4764
33802SOL     OW 3847   1.497   3.980   4.789  0.3757 -0.1547  0.1429
33802SOL    HW1 3848   1.488   3.888   4.764 -0.7360  0.1671 -0.7440
33802SOL    HW2 3849   1.422   4.024   4.748  1.8329  1.4621 -0.9595
33803SOL     OW 3850   9.085   7.654   7.845  0.1624  0.0661 -0.1419
33803SOL    HW1 3851   9.020   7.584   7.851  1.3847 -1.1622 -0.6718
33803SOL    HW2 3852   9.117   7.664   7.935  0.7809 -0.8652 -0.2484
33804SOL     OW 3853   7.618   5.959   6.597  0.4314 -0.0644 -0.1630
33804SOL    HW1 3854   7.538   5.909   6.581 -0.2152  0.4381  1.3491
33804SOL    HW2 3855   7.650   5.926   6.681  1.0718  0.7050 -0.0998
33805SOL     OW 3856   0.813   6.363   3.192 -0.2699  0.0259 -0.3044
33805SOL    HW1 3857   0.895   6.409   3.179  0.5922 -1.6118 -1.0167
33805SOL    HW2 3858   0.837   6.282   3.238 -1.2404 -1.1179 -1.6818
33806SOL     OW 3859  10.251   9.819   4.579 -0.4043 -0.2648  0.6284
33806SOL    HW1 3860  10.256   9.816   4.675 -2.3988  2.8084  0.9648
33806SOL    HW2 3861  10.202   9.740   4.556 -2.0006  0.1112  2.4251
33807SOL     OW 3862   6.296   9.424   3.731 -0.0729  0.5561  0.6359
33807SOL    HW1 3863   6.365   9.359   3.719 -2.4210 -2.1288  0.6605
33807SOL    HW2 3864   6.295   9.474   3.649  3.8334  2.8854  1.7683
33808SOL     OW 3865   2.825   2.277   2.259  0.6505  0.6645  0.3811
33808SOL    HW1 3866   2.840   2.205   2.319 -1.6255 -0.4777 -0.2929
33808SOL    HW2 3867   2.912   2.311   2.240  1.6435 -0.7419  2.0972
33809SOL     OW 3868   9.723   5.309   4.839 -0.5901  0.1952  0.3778
33809SOL    HW1 3869   9.670   5.382   4.807  0.0442  1.1338  1.3744
33809SOL    HW2 3870   9.805   5.316   4.792  0.0235  1.0557  1.5229
33810SOL     OW 3871   8.145   7.097   5.091  0.4698  0.0112  0.0099
33810SOL    HW1 3872   8.186   7.030   5.145 -0.6817 -0.2402  0.6019
33810SOL    HW2 3873   8.213   7.122   5.027  1.1518 -1.1631  0.2558
33811SOL     OW 3874   8.256   0.600   9.553  0.1420  0.1380 -0.1082
33811SOL    HW1 3875   8.249   0.602   9.648  1.3215 -0.9610  0.0263
33811SOL    HW2 3876   8.167   0.583   9.522 -0.1638  0.0420  0.8078
33812SOL     OW 3877   8.149   9.203   9.847  0.6091 -0.0116 -0.4457
33812SOL    HW1 3878   8.063   9.246   9.854 -1.1650 -2.8966 -2.1825
33812SOL    HW2 3879   8.208   9.258   9.898 -1.8056  3.2558 -0.8345
33813SOL     OW 3880   9.507   1.513   6.615 -0.1608 -0.5231  0.1870
33813SOL    HW1 3881   9.591   1.538   6.653  0.5770  0.8418 -2.1789
33813SOL    HW2 3882   9.461   1.469   6.687  2.3277 -0.8430  1.7072
33814SOL     OW 3883   8.822   5.046   0.403  0.2002  0.4274 -0.2530
33814SOL    HW1 3884   8.910   5.009   0.398  0.1710  0.3546 -0.2252
33814SOL    HW2 3885   8.818   5.085   0.491 -0.5239 -1.4323  0.5941
33815SOL     OW 3886   7.941   2.485   5.743 -0.1938  0.0341 -0.2793
33815SOL    HW1 3887   7.978   2.555   5.797  2.7117 -0.6816 -1.1241
33815SOL    HW2 3888   7.984   2.405   5.774  0.6627 -0.5623 -2.7442
33816SOL     OW 3889   6.221   7.240   0.399 -0.3702  0.7725  0.0618
33816SOL    HW1 3890   6.164   7.309   0.431 -0.0130  0.3007  1.8174
33816SOL    HW2 3891   6.288   7.230   0.467  2.8770  2.4329 -2.6326
33817SOL     OW 3892   0.540   2.257   1.748 -0.0146  0.6564 -0.6277
33817SOL    HW1 3893   0.527   2.259   1.843  2.2584  1.6191 -0.2618
33817SOL    HW2 3894   0.453   2.272   1.712 -1.2929 -1.6603  1.2213
33818SOL     OW 3895  10.075   8.159   0.346 -0.3470  0.3869 -0.0530
33818SOL    HW1 3896  10.124   8.126   0.421 -0.3204  1.6245  0.4900
33818SOL    HW2 3897  10.142   8.192   0.286 -0.3826 -0.3784 -0.5323
33819SOL     OW 3898   2.412   0.992   9.647  0.5396 -0.2663 -0.2644
33819SOL    HW1 3899   2.506   0.975   9.651  1.0728  2.0763 -1.0667
33819SOL    HW2 3900   2.392   0.993   9.553  0.1579  1.1196 -0.2028
33820SOL     OW 3901   3.812   0.358   5.515 -0.1409  0.6303  0.2006
33820SOL    HW1 3902   3.780   0.278   5.558 -3.6616  0.8802 -1.5522
33820SOL    HW2 3903   3.905   0.342   5.501 -0.0093 -1.7539  2.7740
33821SOL     OW 3904   4.574   4.801  10.310  0.1934 -0.4849 -0.5526
33821SOL    HW1 3905   4.667   4.812  10.288  0.0075  1.7954 -0.4239
33821SOL    HW2 3906   4.553   4.878  10.362 -1.9598 -0.6028 -1.1744
33822SOL     OW 3907   5.839   0.290   3.813  0.7875 -0.6431 -0.0898
33822SOL    HW1 3908   5.901   0.361   3.799  1.8820 -1.3291  1.0757
33822SOL    HW2 3909   5.864   0.222   3.751  0.5449 -0.5169 -0.3275
33823SOL     OW 3910  10.239   3.590   2.933  0.1875  0.1868 -0.0807
33823SOL    HW1 3911  10.191   3.611   2.853 -0.6472 -1.8081 -0.1521
33823SOL    HW2 3912  10.331   3.608   2.912 -0.0327 -0.2258 -1.4466
33824SOL     OW 3913   7.519   5.291   6.907 -0.1353  0.2695 -0.2821
33824SOL    HW1 3914   7.553   5.369   6.950 -0.7626  0.0019  0.7415
33824SOL    HW2 3915   7.594   5.232   6.901 -0.2049 -0.0276  1.2751
33825SOL     OW 3916   0.368   4.017   4.103 -0.4231 -0.3164  0.0990
33825SOL    HW1 3917   0.319   3.985   4.027 -0.3971  0.0218 -0.0584
33825SOL    HW2 3918   0.432   3.948   4.120 -0.3912 -0.3692 -0.2200
33826SOL     OW 3919   9.553   9.593   2.250  0.4296 -0.3845 -0.2237
33826SOL    HW1 3920   9.501   9.544   2.185  0.8599 -1.1089 -0.0279
33826SOL    HW2 3921   9.497   9.667   2.274 -0.9395 -1.6593  0.6891
33827SOL     OW 3922   5.265   2.426   6.267 -0.0121 -0.2618  0.2498
33827SOL    HW1 3923   5.242   2.400   6.356 -0.6824  1.1388  0.5144
33827SOL    HW2 3924   5.350   2.470   6.275  0.4793 -1.1379  0.0058
33828SOL     OW 3925   0.155   0.543   5.532  0.0802 -0.4081 -0.0633
33828SOL    HW1 3926   0.217   0.580   5.595  0.6178 -2.1118  0.4506
33828SOL    HW2 3927   0.185   0.576   5.447  1.1322 -0.4563  0.2703
33829SOL     OW 3928   5.231   9.383   4.636  0.4281  0.0901 -0.7672
33829SOL    HW1 3929   5.281   9.375   4.554 -0.3378 -1.8561 -1.1045
33829SOL    HW2 3930   5.170   9.309   4.634 -0.2171  0.5129  1.1635
33830SOL     OW 3931   5.698   4.652   9.324 -0.1429 -0.0617  0.0551
33830SOL    HW1 3932   5.605   4.659   9.301  0.5342  1.6370 -2.7022
33830SOL    HW2 3933   5.727   4.743   9.331  2.0701 -0.3759 -3.0313
33831SOL     OW 3934   6.943   7.512   2.618 -0.0086 -0.0204 -0.1060
33831SOL    HW1 3935   6.956   7.550   2.531 -0.0013 -0.8025 -0.4550
33831SOL    HW2 3936   6.895   7.580   2.666 -0.9889 -0.0039 -1.0539
33832SOL     OW 3937   2.451   9.446   3.111 -0.3299 -0.0100 -0.2917
33832SOL    HW1 3938   2.500   9.527   3.100 -0.7298  0.3982  0.8349
33832SOL    HW2 3939   2.364   9.473   3.139 -0.5263 -0.8143 -0.0791
33833SOL     OW 3940   3.541   0.550   2.569  0.2953 -0.0222 -0.3023
33833SOL    HW1 3941   3.556   0.585   2.657 -0.2839 -1.7311  0.5077
33833SOL    HW2 3942   3.552   0.456   2.578  1.6514 -0.1350 -2.3928
33834SOL     OW 3943   7.511   6.740   2.483 -0.1709  0.5263  0.7111
33834SOL    HW1 3944   7.457   6.723   2.405 -1.6127  0.4745  1.6766
33834SOL    HW2 3945   7.580   6.674   2.479 -0.6312  0.0717 -0.1518
33835SOL     OW 3946   8.111   5.622   6.672 -0.5681  0.2071 -0.1945
33835SOL    HW1 3947   8.108   5.652   6.763  0.5080  0.2326 -0.1613
33835SOL    HW2 3948   8.023   5.639   6.639 -1.3484 -0.8531  1.1757
33836SOL     OW 3949   6.017   2.952   6.974  0.8335  0.4756  0.2278
33836SOL    HW1 3950   6.110   2.953   7.000  1.4683 -1.9173 -1.5674
33836SOL    HW2 3951   5.997   2.859   6.965 -1.1255  1.0105 -1.5404
33837SOL     OW 3952   7.390   4.894   5.785 -0.0908  0.8125 -0.3788
33837SOL    HW1 3953   7.354   4.841   5.715 -0.4264  0.1813  0.2574
33837SOL    HW2 3954   7.399   4.834   5.859 -0.1756  1.5650  0.2563
33838SOL     OW 3955   2.277   9.054   3.378  0.2316  0.3602  0.0399
33838SOL    HW1 3956   2.294   8.965   3.346 -0.6580  0.6771 -1.3836
33838SOL    HW2 3957   2.189   9.050   3.415 -0.7793  1.1497 -2.1346
33839SOL     OW 3958   2.987   5.602   8.280 -0.2312 -0.1029  0.5239
33839SOL    HW1 3959   2.965   5.647   8.199  0.8623 -0.5120 -0.0261
33839SOL    HW2 3960   3.022   5.518   8.251  1.2118  0.1815  1.3567
33840SOL     OW 3961   4.813   6.526  10.002  0.2132 -0.0720 -0.7014
33840SOL    HW1 3962   4.777   6.456  10.057 -0.6646  1.5238  0.8827
33840SOL    HW2 3963   4.902   6.498   9.983  0.4758 -0.8594  1.3671
33841SOL     OW 3964   2.191   8.334   2.832  0.0734  0.3618 -0.3187
33841SOL    HW1 3965   2.240   8.413   2.810 -1.6596  1.4182 -0.5819
33841SOL    HW2 3966   2.099   8.358   2.819 -0.6454 -1.0146  1.7080
33842SOL     OW 3967   0.878   9.726   3.764  0.3915 -0.5799  0.4697
33842SOL    HW1 3968   0.959   9.761   3.728  0.1367 -1.0123 -0.5497
33842SOL    HW2 3969   0.888   9.631   3.759 -1.2222 -0.7177 -2.2582
33843SOL     OW 3970   8.086   4.404   8.544 -0.2202 -0.0017  0.2692
33843SOL    HW1 3971   8.017   4.396   8.610 -0.2297  0.0826  0.2697
33843SOL    HW2 3972   8.044   4.376   8.462  0.0303 -0.9306  0.4466
33844SOL     OW 3973   6.504   0.088   8.839  0.3378 -0.1617  0.0462
33844SOL    HW1 3974   6.538   0.156   8.781 -2.9704  0.2252 -1.6835
33844SOL    HW2 3975   6.491   0.131   8.923  0.0621  0.8142 -0.4902
33845SOL     OW 3976   9.277   7.296   9.321 -0.0011  0.5632  0.2291
33845SOL    HW1 3977   9.194   7.291   9.368  1.2503  0.0793  2.5229
33845SOL    HW2 3978   9.336   7.341   9.381  1.5430  0.4595 -1.1476
33846SOL     OW 3979   4.381   0.084   4.023 -0.2220  0.3140 -0.3018
33846SOL    HW1 3980   4.420   0.037   3.949  0.5738  0.0449  0.2742
33846SOL    HW2 3981   4.299   0.120   3.988 -0.3058 -0.5745 -1.0517
33847SOL     OW 3982   8.051   8.068   7.075 -0.4507  0.3457 -0.6653
33847SOL    HW1 3983   8.113   8.063   7.148 -2.2365 -0.4602  0.8495
33847SOL    HW2 3984   8.051   7.980   7.037 -0.8511  0.2736 -0.5007
33848SOL     OW 3985   6.501   0.819   5.928  0.1900 -0.0704  0.2425
33848SOL    HW1 3986   6.587   0.820   5.968  0.0605  1.2456  0.5253
33848SOL    HW2 3987   6.470   0.729   5.939  1.4362 -0.5027  0.3013
33849SOL     OW 3988   5.759   8.721   1.885  0.0718 -0.1778  0.1447
33849SOL    HW1 3989   5.682   8.670   1.910  0.3598 -0.3384  0.7132
33849SOL    HW2 3990   5.786   8.683   1.802 -1.3498  0.8668 -0.8538
33850SOL     OW 3991   8.903   6.802   6.233  0.2100  0.3219  0.2479
33850SOL    HW1 3992   8.884   6.732   6.294 -0.6518  0.8859  0.6452
33850SOL    HW2 3993   8.936   6.758   6.154 -2.5300 -0.7210 -0.4021
33851SOL     OW 3994   5.569   8.803   9.713 -0.3964 -0.8947 -0.2659
33851SOL    HW1 3995   5.476   8.788   9.726 -0.4684 -0.2598  0.0587
33851SOL    HW2 3996   5.575   8.897   9.693  0.3184 -0.4679  1.6591
33852SOL     OW 3997   7.352   1.759   0.583  0.3587 -0.0623  0.2188
33852SOL    HW1 3998   7.306   1.703   0.521 -0.3969 -0.1104  0.8047
33852SOL    HW2 3999   7.326   1.726   0.669  1.0328  0.2908  0.5700
33853SOL     OW 4000   7.202   5.741   9.941  0.3642 -0.5153  0.1078
33853SOL    HW1 4001   7.109   5.731   9.963  0.7638 -1.8743  1.3108
33853SOL    HW2 4002   7.201   5.781   9.854 -1.3388 -0.0088  0.3141
33854SOL     OW 4003   6.193   5.684   0.555  0.2866 -0.1468 -0.2578
33854SOL    HW1 4004   6.154   5.627   0.621  0.9370 -2.1255 -1.4950
33854SOL    HW2 4005   6.234   5.754   0.605  0.1591 -1.2117  1.3996
33855SOL     OW 4006   0.517   5.894   6.056  0.3017 -0.2492  0.2267
33855SOL    HW1 4007   0.559   5.854   6.132 -0.2664  0.2237  0.8001
33855SOL    HW2 4008   0.424   5.896   6.078  0.2899  1.1810  0.1273
33856SOL     OW 4009   2.299   6.948   5.758 -0.3024 -0.2775  0.6764
33856SOL    HW1 4010   2.329   6.922   5.670  1.1210 -2.4360  1.7052
33856SOL    HW2 4011   2.207   6.923   5.760  0.2754 -2.7219  0.5817
33857SOL     OW 4012   7.256   6.076   8.337 -0.3171 -0.1924 -0.1627
33857SOL    HW1 4013   7.227   6.022   8.264  0.7058  0.5379 -1.1353
33857SOL    HW2 4014   7.297   6.152   8.296  0.4630  0.1337  1.1685
33858SOL     OW 4015   6.220   8.302   7.139  0.2351 -0.3078  0.4378
33858SOL    HW1 4016   6.140   8.278   7.185 -0.8950  2.3731  0.0635
33858SOL    HW2 4017   6.284   8.236   7.164 -1.6677 -1.6398  1.9901
33859SOL     OW 4018   1.124   7.213   5.762  0.3091  0.0326  0.0756
33859SOL    HW1 4019   1.137   7.272   5.837  0.2002 -0.3263  0.3800
33859SOL    HW2 4020   1.184   7.246   5.695 -0.2369  0.9030 -0.0038
33860SOL     OW 4021   5.523   8.470   3.710 -0.2417 -0.1467  0.0159
33860SOL    HW1 4022   5.590   8.417   3.667  0.0860  1.2746 -1.2953
33860SOL    HW2 4023   5.469   8.504   3.639  1.1658  3.4541  0.4389
33861SOL     OW 4024   0.773   4.130   1.750  0.0209 -0.5286  0.7103
33861SOL    HW1 4025   0.801   4.039   1.751  2.2949  0.0900  2.0725
33861SOL    HW2 4026   0.812   4.167   1.671 -2.5826 -1.1227 -0.9487
33862SOL     OW 4027   5.992   2.208   4.955  0.2236  0.2587 -0.4960
33862SOL    HW1 4028   5.937   2.230   5.031 -0.9259  0.0061 -1.2278
33862SOL    HW2 4029   5.996   2.289   4.904  0.1149  0.1393 -0.6945
33863SOL     OW 4030   1.457   5.914   5.429 -0.1926 -0.0467  0.0966
33863SOL    HW1 4031   1.363   5.931   5.426 -0.2918 -0.1881  1.6426
33863SOL    HW2 4032   1.468   5.837   5.373 -0.9969 -0.0694 -0.0529
33864SOL     OW 4033   5.326   0.239   2.523  0.6424  0.6659  0.1508
33864SOL    HW1 4034   5.387   0.177   2.483  0.8751  0.6040  0.6009
33864SOL    HW2 4035   5.239   0.205   2.499  0.7369 -0.5195  1.3717
33865SOL     OW 4036   1.682   8.055   7.673  0.0313  0.0293 -0.3760
33865SOL    HW1 4037   1.633   8.029   7.751  3.2936 -3.9206  0.6906
33865SOL    HW2 4038   1.621   8.040   7.600 -2.2970  1.4647  1.1744
33866SOL     OW 4039   5.798   5.829   5.302 -0.3163 -0.8555 -0.1578
33866SOL    HW1 4040   5.873   5.880   5.333 -0.6200 -1.7816  2.3013
33866SOL    HW2 4041   5.834   5.743   5.282 -0.7699 -1.4439  1.4811
33867SOL     OW 4042   8.672   8.185   7.892  0.6319  0.0399  0.5168
33867SOL    HW1 4043   8.715   8.270   7.903  2.3032 -0.7513  0.3020
33867SOL    HW2 4044   8.609   8.181   7.964  1.7466  0.7473  1.5765
33868SOL     OW 4045  10.182   1.845   8.967  0.3073  0.3472  0.4097
33868SOL    HW1 4046  10.214   1.846   9.057  0.1419  0.3187  0.4691
33868SOL    HW2 4047  10.185   1.753   8.940 -1.7500  0.0196  1.1454
33869SOL     OW 4048   5.603   7.517   2.220  0.0988 -0.6677  0.8271
33869SOL    HW1 4049   5.586   7.580   2.290  0.7251 -0.7708  1.0793
33869SOL    HW2 4050   5.696   7.497   2.227  0.5798  0.5907 -1.1022
33870SOL     OW 4051   6.388   0.011   5.312  0.1586 -0.1144  0.5617
33870SOL    HW1 4052   6.448   0.085   5.318 -0.9764  0.7669  1.5490
33870SOL    HW2 4053   6.432  -0.051   5.254  1.0742  1.3977 -0.4300
33871SOL     OW 4054   8.522   5.496   6.345  0.6007 -0.2363 -0.5516
33871SOL    HW1 4055   8.447   5.494   6.405  0.6668  2.3530 -0.2724
33871SOL    HW2 4056   8.490   5.454   6.266 -1.0866  0.5760 -0.3456
33872SOL     OW 4057   8.341   0.465   1.890  0.4874 -0.4349  0.0417
33872SOL    HW1 4058   8.357   0.556   1.914  1.3637 -0.0647 -1.7540
33872SOL    HW2 4059   8.389   0.414   1.954  1.4600  0.4385  0.0334
33873SOL     OW 4060   1.608   8.053   0.847  0.4196 -0.1042 -0.1969
33873SOL    HW1 4061   1.559   7.971   0.852 -0.9936  0.7717  1.9681
33873SOL    HW2 4062   1.686   8.038   0.900  1.2858 -0.6965 -1.5892
33874SOL     OW 4063   5.224   9.528  10.294 -0.3333 -0.9959  0.0173
33874SOL    HW1 4064   5.300   9.472  10.283  1.1215  1.0275 -0.8058
33874SOL    HW2 4065   5.157   9.489  10.237  0.4343 -2.1623 -0.1125
33875SOL     OW 4066   0.500   3.260   9.309 -0.0034 -0.2114 -0.4195
33875SOL    HW1 4067   0.444   3.313   9.253  1.4854  1.4342 -0.4380
33875SOL    HW2 4068   0.443   3.230   9.380 -1.1076  0.6381 -0.9215
33876SOL     OW 4069   1.053   4.461   7.750  0.3400 -0.0496 -0.3799
33876SOL    HW1 4070   1.129   4.403   7.751 -0.3716 -1.1425  2.9944
33876SOL    HW2 4071   0.978   4.402   7.754 -0.4999  1.0577  0.6409
33877SOL     OW 4072   9.223   4.614   7.365 -0.8320  0.3952 -0.4753
33877SOL    HW1 4073   9.238   4.641   7.456 -0.2579 -0.4855 -0.2938
33877SOL    HW2 4074   9.128   4.607   7.358 -0.8498 -1.1860  0.5968
33878SOL     OW 4075   8.576   9.810   2.222  0.3419 -0.0799 -0.1846
33878SOL    HW1 4076   8.581   9.717   2.240  1.8892  0.0486  0.2439
33878SOL    HW2 4077   8.491   9.823   2.181  0.9748 -2.0276 -2.3011
33879SOL     OW 4078   6.844   9.468   0.778 -0.0315  0.1235 -0.4079
33879SOL    HW1 4079   6.805   9.385   0.751 -1.2273  0.4583  0.2141
33879SOL    HW2 4080   6.811   9.482   0.867  1.8795  0.2091  0.3306
33880SOL     OW 4081   2.096   6.236   3.992  0.3335  0.1029  0.0152
33880SOL    HW1 4082   2.070   6.323   4.021  0.9384  0.5043 -0.6080
33880SOL    HW2 4083   2.139   6.251   3.908  2.4420 -0.5099  0.9201
33881SOL     OW 4084   9.162   9.425   6.086  0.0454  0.6261  0.0478
33881SOL    HW1 4085   9.178   9.492   6.020 -0.0448 -1.1034 -1.8315
33881SOL    HW2 4086   9.186   9.467   6.169  1.5634  2.4248 -1.2091
33882SOL     OW 4087   5.721  10.463   8.428 -0.5946 -0.1081  0.3532
33882SOL    HW1 4088   5.727  10.400   8.356 -0.1885  0.1745  0.1371
33882SOL    HW2 4089   5.807  10.504   8.432 -0.4038 -0.5740  1.4262
33883SOL     OW 4090   5.312   6.368   0.965  0.3315  0.1951 -0.0406
33883SOL    HW1 4091   5.273   6.432   1.025  1.0632  1.3976 -0.8068
33883SOL    HW2 4092   5.392   6.340   1.008  0.3123  0.2462  0.0281
33884SOL     OW 4093   3.998   0.361   3.570 -0.4691 -0.5304  0.2397
33884SOL    HW1 4094   3.940   0.435   3.585  0.3104  0.0041  0.7456
33884SOL    HW2 4095   4.084   0.401   3.553 -0.5844 -1.2152 -2.4413
33885SOL     OW 4096   7.438   1.049   6.917 -0.1963 -0.0859 -0.3754
33885SOL    HW1 4097   7.382   1.004   6.854 -0.0412 -2.0093  0.7928
33885SOL    HW2 4098   7.457   0.984   6.984 -0.5759  1.9153  1.8387
33886SOL     OW 4099   9.883   8.084   8.556 -0.1015  0.2005  0.0763
33886SOL    HW1 4100   9.850   8.156   8.502 -0.4550  0.2129  0.3029
33886SOL    HW2 4101   9.899   8.013   8.494  2.0301  1.0607 -0.4232
33887SOL     OW 4102   5.617   8.920   0.557  0.1429  0.6541  0.0890
33887SOL    HW1 4103   5.662   8.839   0.581  0.5575  0.6590 -0.6483
33887SOL    HW2 4104   5.545   8.893   0.500  0.6214  0.8430 -0.6186
33888SOL     OW 4105   5.949   6.333   8.599  0.2506  0.1761 -0.2293
33888SOL    HW1 4106   5.927   6.273   8.670 -0.6694 -0.4798 -1.0370
33888SOL    HW2 4107   5.923   6.286   8.519  3.8031 -0.3055 -1.2868
33889SOL     OW 4108   0.682   5.780   3.921 -0.8403 -0.4688  0.5547
33889SOL    HW1 4109   0.680   5.864   3.876  0.4703  0.1297  1.5370
33889SOL    HW2 4110   0.593   5.766   3.951 -0.7424  1.4555  1.9143
33890SOL     OW 4111   9.157   9.290   1.319  0.6656 -0.1127  0.5301
33890SOL    HW1 4112   9.145   9.382   1.295  0.5677 -0.5590 -1.2534
33890SOL    HW2 4113   9.213   9.254   1.251 -0.9547 -1.8548  0.0080
33891SOL     OW 4114   9.357   2.506   4.508 -0.0244  0.3174 -0.1502
33891SOL    HW1 4115   9.323   2.418   4.493  0.2881  0.0474  0.6903
33891SOL    HW2 4116   9.452   2.495   4.512  0.0589  0.7936 -0.6851
33892SOL     OW 4117   3.126   0.309   0.814 -0.3280 -0.0399  0.1528
33892SOL    HW1 4118   3.042   0.342   0.784 -0.1438  1.4332  1.1512
33892SOL    HW2 4119   3.191   0.352   0.758 -0.1411  0.5440  0.7976
33893SOL     OW 4120   2.270   9.091   2.642 -0.0121  0.3674  0.1281
33893SOL    HW1 4121   2.210   9.067   2.571  0.1378  1.8839 -0.5456
33893SOL    HW2 4122   2.243   9.179   2.667 -0.5625 -0.3976  2.5138
33894SOL     OW 4123   9.500   9.799   8.108 -0.1935  0.2553 -0.4736
33894SOL    HW1 4124   9.541   9.722   8.147 -2.1309 -0.1443  0.9146
33894SOL    HW2 4125   9.534   9.802   8.019  0.9983 -1.3737 -0.1245
33895SOL     OW 4126  10.016   3.994   0.736 -0.0218  0.2498  0.5238
33895SOL    HW1 4127  10.050   3.923   0.681 -0.0587  0.7757 -0.1931
33895SOL    HW2 4128  10.090   4.055   0.744 -0.1501  0.3824  0.6899
33896SOL     OW 4129   4.770   4.968   7.449 -0.1748 -0.3349  0.5725
33896SOL    HW1 4130   4.810   5.028   7.512  2.1796 -1.7280  0.5275
33896SOL    HW2 4131   4.706   4.918   7.500  0.3625 -0.1699  1.4250
33897SOL     OW 4132   2.267   1.510   1.291 -0.4360 -0.4572  0.2659
33897SOL    HW1 4133   2.215   1.494   1.212 -0.4048 -4.2212  0.8040
33897SOL    HW2 4134   2.283   1.604   1.291 -3.1265  0.1560 -2.4814
33898SOL     OW 4135   1.081   0.516   9.010  0.1986  0.3556 -0.0418
33898SOL    HW1 4136   1.109   0.572   8.938 -0.0889  0.0893 -0.3706
33898SOL    HW2 4137   0.985   0.523   9.009  0.1639 -0.0802 -0.0468
33899SOL     OW 4138   0.375   2.855   2.239 -0.0136  0.1932 -0.5644
33899SOL    HW1 4139   0.353   2.935   2.192  0.4128  1.0450  0.6507
33899SOL    HW2 4140   0.458   2.827   2.200  0.1620  0.6940 -0.5554
33900SOL     OW 4141   8.715   2.836   9.497 -0.0197 -0.4423 -0.0577
33900SOL    HW1 4142   8.683   2.910   9.548 -0.2640 -0.5019 -0.1236
33900SOL    HW2 4143   8.690   2.759   9.548 -1.2836 -0.5609 -0.8053
33901SOL     OW 4144  10.072   6.721   5.440  0.5192 -0.0688 -0.3848
33901SOL    HW1 4145  10.022   6.795   5.406 -1.0336 -1.1992 -0.6811
33901SOL    HW2 4146  10.084   6.740   5.533 -0.8225  0.0776 -0.2166
33902SOL     OW 4147   5.362   8.233   4.977  0.7449  0.4374 -0.2318
33902SOL    HW1 4148   5.319   8.148   4.987  1.5985  0.1102  0.8838
33902SOL    HW2 4149   5.290   8.295   4.964  0.0643 -0.3396 -0.2907
33903SOL     OW 4150   8.074   6.157   5.139 -0.3492  0.1337  0.1010
33903SOL    HW1 4151   8.045   6.220   5.205 -1.4243  1.1988 -1.3277
33903SOL    HW2 4152   8.147   6.201   5.094  0.1743 -0.4563  0.3581
33904SOL     OW 4153   5.787   3.087   0.772 -0.5312 -0.3489 -0.1223
33904SOL    HW1 4154   5.855   3.082   0.839  0.5409  1.3934 -1.0113
33904SOL    HW2 4155   5.718   3.139   0.813  0.6320  1.7607 -0.6947
33905SOL     OW 4156   5.651   9.882   5.464 -0.6599  0.0204 -0.6833
33905SOL    HW1 4157   5.679   9.973   5.454  0.3682 -0.1423  0.4464
33905SOL    HW2 4158   5.706   9.847   5.534 -1.7768 -1.1669 -0.3460
33906SOL     OW 4159   2.978   4.936   8.288 -0.3828 -0.1694  0.4547
33906SOL    HW1 4160   3.016   4.920   8.202  2.0995  0.2188  1.4120
33906SOL    HW2 4161   3.037   4.892   8.350 -1.5270  0.4192  2.0412
33907SOL     OW 4162   7.512   1.470   4.870  0.1433  0.1161  0.2221
33907SOL    HW1 4163   7.531   1.381   4.900  0.4398  0.2073  0.3078
33907SOL    HW2 4164   7.509   1.522   4.951 -0.7192  0.0633  0.2374
33908SOL     OW 4165   2.260  10.432   9.942 -0.0655  0.3144  0.4014
33908SOL    HW1 4166   2.210  10.390  10.011  2.3759 -1.5004  1.1982
33908SOL    HW2 4167   2.351  10.421   9.968  0.9042  0.8504 -2.4071
33909SOL     OW 4168   7.246   4.388   1.339 -0.0160 -0.5845  0.4192
33909SOL    HW1 4169   7.204   4.347   1.264 -0.9381  0.6600  0.2333
33909SOL    HW2 4170   7.339   4.368   1.328  0.0124  0.4254 -1.6192
33910SOL     OW 4171   4.330  10.386   7.493  0.3247  0.1735 -0.3487
33910SOL    HW1 4172   4.312  10.480   7.487  0.1798  0.1928  0.3082
33910SOL    HW2 4173   4.275  10.346   7.425 -2.6962  0.1736  1.8842
33911SOL     OW 4174   4.651   7.636   7.757 -0.0289  0.2446 -0.3765
33911SOL    HW1 4175   4.639   7.548   7.722  1.7854 -0.7061  1.2030
33911SOL    HW2 4176   4.591   7.640   7.832 -0.6652  0.6550 -0.8964
33912SOL     OW 4177   5.480  10.364   0.375 -0.5426  0.0776 -0.4427
33912SOL    HW1 4178   5.463  10.367   0.470  1.5290 -0.6976  0.0086
33912SOL    HW2 4179   5.501  10.454   0.352  0.3404  0.0528  0.1717
33913SOL     OW 4180   7.541   3.736   9.649  0.7703  0.1912  0.1078
33913SOL    HW1 4181   7.541   3.681   9.728 -1.1726  0.3318  0.2442
33913SOL    HW2 4182   7.542   3.826   9.683 -4.3859  0.4526  0.3186
33914SOL     OW 4183   9.596   4.006   5.402 -0.2473  0.5353  0.0741
33914SOL    HW1 4184   9.569   4.095   5.381 -0.9699  0.8344  2.0120
33914SOL    HW2 4185   9.690   4.005   5.389 -0.3146  1.4195 -0.5303
33915SOL     OW 4186   0.356   3.238   3.247 -0.0200  0.7274 -0.6508
33915SOL    HW1 4187   0.368   3.145   3.270 -1.2986  0.1713 -2.0070
33915SOL    HW2 4188   0.387   3.286   3.324 -1.0875 -0.8882  0.8821
33916SOL     OW 4189   8.105   2.698   3.344 -0.2827 -0.0077 -0.5239
33916SOL    HW1 4190   8.085   2.634   3.276  0.5402 -0.5349 -0.2830
33916SOL    HW2 4191   8.074   2.781   3.309  1.8510  0.0920 -2.4006
33917SOL     OW 4192   2.435   0.216   5.958 -0.4576  0.2600  0.4181
33917SOL    HW1 4193   2.411   0.246   5.871 -1.8516 -0.6849  0.4606
33917SOL    HW2 4194   2.405   0.286   6.016 -0.9388  0.1833  0.2651
33918SOL     OW 4195   0.418   5.784   7.303  0.2440 -0.1647  0.3192
33918SOL    HW1 4196   0.465   5.701   7.297  0.4462 -0.0509  0.3194
33918SOL    HW2 4197   0.326   5.759   7.310  0.1017 -0.3520 -1.6342
33919SOL     OW 4198   3.989   9.221   6.494 -0.4586 -0.4326 -0.1665
33919SOL    HW1 4199   3.978   9.128   6.473 -1.7118 -0.0718 -1.2145
33919SOL    HW2 4200   4.081   9.239   6.472  0.4802 -1.9081  2.1943
33920SOL     OW 4201   4.056   9.129   2.541 -0.9758 -1.5075  0.9926
33920SOL    HW1 4202   4.013   9.095   2.462  0.1670  1.7645 -1.2436
33920SOL    HW2 4203   4.133   9.175   2.508 -2.3939  3.2778  3.4168
33921SOL     OW 4204   4.452   9.881   9.306 -0.4836  0.2517 -0.3659
33921SOL    HW1 4205   4.411   9.850   9.225 -0.1845  0.1710 -0.4867
33921SOL    HW2 4206   4.400   9.842   9.376 -0.5907  0.1209 -0.5193
33922SOL     OW 4207   0.403   4.360   5.218 -0.1359  0.1281  0.3792
33922SOL    HW1 4208   0.466   4.288   5.219 -1.0253 -0.6631  1.5236
33922SOL    HW2 4209   0.329   4.328   5.270 -0.4960  1.9187  1.0315
33923SOL     OW 4210   7.030   7.441   0.559  0.6289  0.4146  0.3042
33923SOL    HW1 4211   7.007   7.457   0.468 -0.2991  0.5774  0.5527
33923SOL    HW2 4212   6.998   7.353   0.578  0.2727  0.6085  0.6319
33924SOL     OW 4213   5.826   9.564   2.950 -0.0158  0.2872  0.4533
33924SOL    HW1 4214   5.749   9.552   2.894  0.1407  1.0303  0.0677
33924SOL    HW2 4215   5.799   9.529   3.035 -0.0211 -1.5025 -0.2430
33925SOL     OW 4216  10.442   9.722   6.748 -0.1634 -0.1620 -0.2391
33925SOL    HW1 4217  10.348   9.729   6.731 -0.2134  0.3550  0.1983
33925SOL    HW2 4218  10.479   9.802   6.710  0.2881 -0.9562 -1.5515
33926SOL     OW 4219   7.742   8.507   5.223 -0.1882 -0.3123  0.0667
33926SOL    HW1 4220   7.684   8.515   5.147 -1.1618 -1.9134  0.5972
33926SOL    HW2 4221   7.722   8.583   5.277  0.8366  1.1069 -1.4303
33927SOL     OW 4222   8.671   8.444   2.089 -0.0074  0.5248  0.0980
33927SOL    HW1 4223   8.751   8.447   2.142 -0.9790  0.9378  1.6171
33927SOL    HW2 4224   8.697   8.476   2.003  1.0747  2.4402  1.0817
33928SOL     OW 4225   8.150   7.118   6.841 -0.6917 -0.6906  0.0236
33928SOL    HW1 4226   8.169   7.207   6.869 -1.9890  0.0042 -1.1693
33928SOL    HW2 4227   8.209   7.063   6.892  1.3806  0.9577 -0.4832
33929SOL     OW 4228   1.876   5.174   2.646  0.2493  1.4243 -0.3095
33929SOL    HW1 4229   1.819   5.231   2.594 -0.8692  0.5398 -0.1001
33929SOL    HW2 4230   1.818   5.105   2.678  1.6328 -0.0926 -0.9160
33930SOL     OW 4231   8.670   2.315   4.729 -0.1882  0.2518 -0.2398
33930SOL    HW1 4232   8.712   2.397   4.704  0.3663  0.1146  0.2266
33930SOL    HW2 4233   8.614   2.337   4.803 -0.3970  0.2961 -0.4092
33931SOL     OW 4234   4.532   1.078   8.239  0.6612 -0.4370 -0.2515
33931SOL    HW1 4235   4.499   1.168   8.233 -0.3520 -0.6485  1.4767
33931SOL    HW2 4236   4.626   1.086   8.224  0.7771  1.0899  1.0120
33932SOL     OW 4237   8.169   8.324   4.900 -0.1853  0.6874  0.8111
33932SOL    HW1 4238   8.078   8.340   4.876 -0.8255 -1.3129  1.6492
33932SOL    HW2 4239   8.217   8.330   4.818 -1.1784  1.1521  0.2465
33933SOL     OW 4240   1.258   9.371   1.657  0.0944 -0.2367  0.2995
33933SOL    HW1 4241   1.316   9.357   1.731  2.0901 -0.6106 -1.2389
33933SOL    HW2 4242   1.170   9.363   1.693  0.9874 -0.4160  2.5889
33934SOL     OW 4243   3.609   4.173   3.464  0.1664  0.1534 -0.4717
33934SOL    HW1 4244   3.526   4.128   3.478 -0.4725  1.0773 -1.1641
33934SOL    HW2 4245   3.675   4.111   3.495 -0.7843 -0.4871  0.3603
33935SOL     OW 4246   5.424   1.231  10.271 -0.3002  0.2442  0.8812
33935SOL    HW1 4247   5.432   1.322  10.244  0.5997 -0.0872 -0.0798
33935SOL    HW2 4248   5.502   1.214  10.324 -0.0398 -0.1671  0.3816
33936SOL     OW 4249   6.185   2.635   2.870  0.7491  0.2804  0.0858
33936SOL    HW1 4250   6.139   2.680   2.799  0.3969 -0.0893  0.0817
33936SOL    HW2 4251   6.206   2.705   2.932 -0.9180  0.2784  0.6878
33937SOL     OW 4252   1.224   9.515   9.602 -0.4472 -0.0171  0.0785
33937SOL    HW1 4253   1.311   9.486   9.629 -0.2740  0.5482  0.1449
33937SOL    HW2 4254   1.167   9.491   9.675 -0.0958  0.9012  0.6727
33938SOL     OW 4255   7.800   6.167   7.351  0.4166  0.1428 -0.7120
33938SOL    HW1 4256   7.880   6.150   7.301  0.9693 -0.5596  0.3436
33938SOL    HW2 4257   7.829   6.222   7.424  0.5267 -2.2040  1.1384
33939SOL     OW 4258   8.639   2.503   1.491 -0.2019  0.4960  0.6403
33939SOL    HW1 4259   8.559   2.543   1.456 -0.1870  0.0656  0.1057
33939SOL    HW2 4260   8.685   2.471   1.414 -0.4013 -0.9085  1.0736
33940SOL     OW 4261   2.889   5.527   0.243  0.0223 -0.0755 -0.1745
33940SOL    HW1 4262   2.955   5.479   0.194 -0.0434 -0.0168 -0.3206
33940SOL    HW2 4263   2.939   5.578   0.307 -0.0339 -2.8676  2.3077
33941SOL     OW 4264  10.034   7.430   1.274  0.1122  0.2693 -0.4757
33941SOL    HW1 4265   9.979   7.373   1.220  0.1772 -0.5909  0.3356
33941SOL    HW2 4266  10.077   7.370   1.336  0.6473  1.1343  0.0111
33942SOL     OW 4267   7.811   6.518   3.349 -0.0469  0.4017 -0.0819
33942SOL    HW1 4268   7.755   6.450   3.387  0.1330  0.4205  0.2196
33942SOL    HW2 4269   7.821   6.583   3.419 -1.0932  1.2792 -0.7154
33943SOL     OW 4270   3.705   5.514   3.101  0.5870  0.0269  0.0601
33943SOL    HW1 4271   3.733   5.477   3.018 -0.9380  0.9632 -0.9094
33943SOL    HW2 4272   3.671   5.440   3.151 -1.1191 -0.1536 -1.2951
33944SOL     OW 4273   0.960   2.886   8.272  0.2197 -0.6919  0.2871
33944SOL    HW1 4274   0.874   2.879   8.230  0.1414  0.6682  0.1619
33944SOL    HW2 4275   1.022   2.859   8.205 -0.0146 -0.1375 -0.1589
33945SOL     OW 4276   4.668   7.644   1.953 -0.1252  0.1093  0.1694
33945SOL    HW1 4277   4.715   7.727   1.961 -1.5394  1.0289 -0.5764
33945SOL    HW2 4278   4.584   7.668   1.914 -0.3980 -1.7410 -0.4771
33946SOL     OW 4279   5.322   8.902   9.103 -0.0465  0.0502  0.4859
33946SOL    HW1 4280   5.340   8.911   9.009  3.2352  1.1366  1.1005
33946SOL    HW2 4281   5.235   8.942   9.114 -0.1511  0.6862 -1.9387
33947SOL     OW 4282  10.228   2.896   2.075  0.0737  0.2073 -0.1717
33947SOL    HW1 4283  10.154   2.956   2.074  1.9823  2.7343  0.6947
33947SOL    HW2 4284  10.253   2.886   1.983  0.8054  2.2298 -0.2275
33948SOL     OW 4285   7.523   3.363   3.773  0.3308  0.2763 -0.3450
33948SOL    HW1 4286   7.459   3.434   3.782 -2.6655 -2.3070  0.4864
33948SOL    HW2 4287   7.527   3.347   3.679  0.2223  0.8762 -0.4548
33949SOL     OW 4288   6.328   5.244   6.524 -0.4013  0.2239 -0.0036
33949SOL    HW1 4289   6.417   5.209   6.516 -0.5560 -0.1386 -0.1730
33949SOL    HW2 4290   6.287   5.223   6.440 -0.3437  1.2680 -0.3006
33950SOL     OW 4291   5.476   4.229   3.415 -0.6451 -0.2395  0.0714
33950SOL    HW1 4292   5.455   4.322   3.413  0.8520  0.1076 -0.8231
33950SOL    HW2 4293   5.547   4.222   3.480  0.7455 -0.3824 -1.4053
33951SOL     OW 4294   4.745   3.642   1.084  0.1134  0.0719 -0.0505
33951SOL    HW1 4295   4.679   3.712   1.085  2.3760  2.3519 -0.0149
33951SOL    HW2 4296   4.697   3.563   1.109 -2.3252  1.8407  1.2529
33952SOL     OW 4297   3.532   9.405   0.873  0.4112 -0.3647 -0.5176
33952SOL    HW1 4298   3.591   9.331   0.887  0.1636 -0.6622 -0.9973
33952SOL    HW2 4299   3.590   9.478   0.851  0.7743 -0.0063  1.4331
33953SOL     OW 4300   7.258   4.098   8.140  0.1112 -0.0501  0.6605
33953SOL    HW1 4301   7.271   4.042   8.064 -0.7845 -0.1356  0.5591
33953SOL    HW2 4302   7.319   4.065   8.205  0.0376 -0.7402  0.3814
33954SOL     OW 4303   3.017   2.478   9.271 -0.5815 -0.1968 -0.0842
33954SOL    HW1 4304   3.033   2.385   9.262 -0.3958 -0.3535  1.5821
33954SOL    HW2 4305   3.096   2.513   9.312 -0.8926  0.5806 -0.1256
33955SOL     OW 4306   6.113   0.514   9.063  0.0881 -0.1775 -0.2444
33955SOL    HW1 4307   6.187   0.576   9.064 -1.0340  1.2120  0.8299
33955SOL    HW2 4308   6.107   0.482   9.153 -0.9381  0.1511 -0.1843
33956SOL     OW 4309   5.053   7.970   0.818 -0.3786  0.1222 -0.3649
33956SOL    HW1 4310   5.126   7.989   0.760  1.0910 -2.4974  0.4748
33956SOL    HW2 4311   5.004   7.900   0.774 -0.8154 -0.0027  0.2897
33957SOL     OW 4312   6.000   0.264   7.341 -0.5160 -0.9353 -0.4182
33957SOL    HW1 4313   6.028   0.239   7.252  0.1685 -1.1712 -0.1429
33957SOL    HW2 4314   5.928   0.325   7.326  0.2642 -0.1460 -1.1761
33958SOL     OW 4315   8.144   8.834   4.676  0.1115  0.2978 -0.5727
33958SOL    HW1 4316   8.052   8.850   4.655  0.4454  0.8267 -1.7294
33958SOL    HW2 4317   8.146   8.743   4.705 -1.0146  0.7446  1.0796
33959SOL     OW 4318   3.142   4.025   4.226  0.2293  0.0725  0.1714
33959SOL    HW1 4319   3.221   4.078   4.213  0.1621 -0.0644 -0.9333
33959SOL    HW2 4320   3.148   3.995   4.316  0.9636  0.8350  0.3935
33960SOL     OW 4321   2.796   1.717   5.429  0.1026 -0.4671 -0.2830
33960SOL    HW1 4322   2.733   1.720   5.501 -0.1131  1.3098 -0.5010
33960SOL    HW2 4323   2.811   1.808   5.406  0.5363 -0.9668 -2.1952
33961SOL     OW 4324   0.139   5.982   6.882  0.2249 -0.7839  0.7441
33961SOL    HW1 4325   0.225   6.020   6.902  0.1879  0.1269 -0.6646
33961SOL    HW2 4326   0.081   6.058   6.875  0.4326 -0.7941 -3.6149
33962SOL     OW 4327   8.186   5.281   6.310  0.1538  0.2014  0.2137
33962SOL    HW1 4328   8.242   5.271   6.233 -0.7124 -1.1297 -0.2772
33962SOL    HW2 4329   8.209   5.207   6.366 -0.2285  0.3688  0.5984
33963SOL     OW 4330   2.902   7.811   3.912 -0.2422 -0.0008  0.7899
33963SOL    HW1 4331   2.812   7.783   3.898 -0.4903  0.5158  1.3194
33963SOL    HW2 4332   2.915   7.884   3.852 -0.0365 -0.3335  0.4183
33964SOL     OW 4333   4.078   3.444   5.654  0.1261  0.5654 -0.4184
33964SOL    HW1 4334   4.155   3.388   5.663 -1.2527 -1.2766  0.6400
33964SOL    HW2 4335   4.079   3.500   5.732  0.1099  0.1603 -0.1256
33965SOL     OW 4336   6.463   9.290  10.484  0.1621 -0.3247 -0.0906
33965SOL    HW1 4337   6.440   9.363  10.541 -1.5830 -0.9059 -0.0051
33965SOL    HW2 4338   6.448   9.212  10.537  0.2574 -0.8071 -0.7572
33966SOL     OW 4339   2.031   5.174   3.214  0.1313  0.4701  0.2731
33966SOL    HW1 4340   1.973   5.125   3.273 -0.9865  1.0889 -0.2773
33966SOL    HW2 4341   2.110   5.191   3.266 -0.5450  0.4003  1.3532
33967SOL     OW 4342   9.021   4.110   0.020 -0.0924  0.0348  0.7495
33967SOL    HW1 4343   9.098   4.165   0.035 -0.1859 -0.0320  1.5319
33967SOL    HW2 4344   9.013   4.105  -0.075 -1.6271  3.6149  0.5077
33968SOL     OW 4345   8.626   5.002   9.409 -0.1309 -0.3926 -0.4448
33968SOL    HW1 4346   8.627   5.076   9.348  0.5550 -0.6800 -0.7902
33968SOL    HW2 4347   8.713   4.964   9.402  0.0396 -0.2772  0.9272
33969SOL     OW 4348   0.229   3.454   7.070 -0.0116 -0.3061  0.0581
33969SOL    HW1 4349   0.300   3.517   7.054 -0.8319  0.3308 -1.3122
33969SOL    HW2 4350   0.161   3.506   7.113  0.6259 -1.1090  2.1554
33970SOL     OW 4351   8.296   1.938  10.443  0.0039  0.0320 -0.3203
33970SOL    HW1 4352   8.255   1.883  10.510  0.5658  0.7602  0.6297
33970SOL    HW2 4353   8.337   1.875  10.383  1.0397 -0.6029  1.0099
33971SOL     OW 4354   6.603   6.971   4.250 -0.4484 -0.0305 -0.0897
33971SOL    HW1 4355   6.680   7.025   4.232  0.3334 -1.4929 -1.3179
33971SOL    HW2 4356   6.638   6.884   4.267 -1.8618 -1.1634 -2.4341
33972SOL     OW 4357   9.947   7.972   0.911  0.5929  0.2177 -0.2812
33972SOL    HW1 4358   9.979   8.061   0.896  1.2498 -0.1410 -1.1442
33972SOL    HW2 4359   9.878   7.960   0.846 -1.2293  0.9001  1.4163
33973SOL     OW 4360   9.529   0.776   6.973  0.0781 -0.3383 -0.3139
33973SOL    HW1 4361   9.569   0.692   6.996  0.6687 -0.0266 -0.1793
33973SOL    HW2 4362   9.582   0.809   6.900  0.5813  0.4559  0.3911
33974SOL     OW 4363   8.770   3.377   4.049  0.1042 -0.2148  0.2809
33974SOL    HW1 4364   8.803   3.464   4.028 -0.2188 -0.1395  0.0691
33974SOL    HW2 4365   8.771   3.330   3.966 -1.1028  0.0566  0.0918
33975SOL     OW 4366   8.594   3.333   8.445 -0.3809 -0.5329  0.2553
33975SOL    HW1 4367   8.579   3.410   8.500  0.6057 -1.2443  1.5627
33975SOL    HW2 4368   8.550   3.262   8.490 -0.7711 -0.8755 -0.6362
33976SOL     OW 4369   8.786   1.214  10.254 -0.0811 -0.1672 -0.0535
33976SOL    HW1 4370   8.856   1.239  10.314 -0.2355 -0.1412  0.1189
33976SOL    HW2 4371   8.784   1.119  10.257  1.0956 -0.2663 -1.3854
33977SOL     OW 4372   5.912   4.878   0.707 -0.3641  0.4179  0.4345
33977SOL    HW1 4373   5.881   4.850   0.793 -1.4835  2.1019  0.6250
33977SOL    HW2 4374   5.996   4.920   0.724 -0.5107  0.6095  0.6926
33978SOL     OW 4375  10.402   4.330   2.695  0.6746 -0.2135 -0.1592
33978SOL    HW1 4376  10.341   4.375   2.753 -1.3574 -0.1949 -2.1406
33978SOL    HW2 4377  10.418   4.245   2.736 -1.1388 -0.4270  0.1621
33979SOL     OW 4378   6.108   5.247  10.245 -0.0269 -0.7365 -0.0246
33979SOL    HW1 4379   6.053   5.293  10.308 -0.6070 -0.4285 -0.7437
33979SOL    HW2 4380   6.143   5.316  10.188  1.9876 -0.8055  1.0729
33980SOL     OW 4381   6.278   9.807   7.001 -0.0827 -0.3403 -0.1508
33980SOL    HW1 4382   6.368   9.834   6.987 -0.5201  0.4830 -1.4855
33980SOL    HW2 4383   6.255   9.757   6.923 -0.0929 -2.5688  1.1694
33981SOL     OW 4384   1.599   2.508   6.105  0.0016 -0.3697 -0.4462
33981SOL    HW1 4385   1.652   2.432   6.080  0.0258  0.1267 -1.9903
33981SOL    HW2 4386   1.511   2.472   6.120 -0.1931 -0.6093 -2.0070
33982SOL     OW 4387   7.660   3.432   9.396 -0.2410 -0.1018 -0.6750
33982SOL    HW1 4388   7.725   3.405   9.331  0.2111  0.0962 -0.3136
33982SOL    HW2 4389   7.635   3.521   9.369  0.0898  0.0547 -0.4721
33983SOL     OW 4390   9.749   4.268   3.899  0.2672 -0.2156  0.2191
33983SOL    HW1 4391   9.753   4.255   3.804  0.1822 -1.7190  0.4046
33983SOL    HW2 4392   9.834   4.306   3.922 -0.9193  3.5526 -0.8858
33984SOL     OW 4393   4.403   0.506   2.353 -0.1004  0.2587 -0.1736
33984SOL    HW1 4394   4.384   0.561   2.277  0.1612 -0.4485 -0.7669
33984SOL    HW2 4395   4.498   0.490   2.347 -0.2245 -0.4899 -0.1787
33985SOL     OW 4396   4.973   1.096   1.556  0.2032 -0.1739 -0.2207
33985SOL    HW1 4397   5.005   1.086   1.646  0.8972 -1.3601 -0.5748
33985SOL    HW2 4398   5.040   1.053   1.502  0.4076  1.5564 -1.4226
33986SOL     OW 4399   1.627   0.805   8.423 -0.1030  0.3402  0.0813
33986SOL    HW1 4400   1.649   0.713   8.435  0.5231  0.6439  1.5039
33986SOL    HW2 4401   1.539   0.814   8.458  1.0975  0.8907  3.3324
33987SOL     OW 4402   6.161   9.701   0.486  0.4281  0.2690  0.0881
33987SOL    HW1 4403   6.166   9.755   0.407  3.1909 -0.4572 -0.3348
33987SOL    HW2 4404   6.177   9.612   0.456 -1.0959 -0.4299  1.1828
33988SOL     OW 4405   7.930  10.037   1.107  0.3235  0.4808 -0.2297
33988SOL    HW1 4406   7.861  10.078   1.159  1.1232  0.1368  1.1515
33988SOL    HW2 4407   7.960   9.964   1.161 -1.3354 -2.2987 -2.7666
33989SOL     OW 4408   7.470   8.933   8.422  0.4951  0.6856 -0.3361
33989SOL    HW1 4409   7.550   8.943   8.473  0.9192 -0.2482 -0.7914
33989SOL    HW2 4410   7.401   8.926   8.488  0.9692  0.0127  0.1013
33990SOL     OW 4411   0.764   8.722   1.139  0.1347  0.0311 -0.3905
33990SOL    HW1 4412   0.822   8.716   1.215 -0.1562 -1.1620 -0.2512
33990SOL    HW2 4413   0.746   8.816   1.130  0.3712  0.2125  0.8650
33991SOL     OW 4414   7.223   3.416   0.355 -0.1785 -0.2856  0.5787
33991SOL    HW1 4415   7.195   3.503   0.326  2.5120  0.5608  0.2080
33991SOL    HW2 4416   7.144   3.362   0.349 -2.3865  2.4666  2.4579
33992SOL     OW 4417   9.289   4.679   2.712 -0.3368 -0.5393 -0.3308
33992SOL    HW1 4418   9.288   4.748   2.646  0.3073  0.8954  1.0763
33992SOL    HW2 4419   9.202   4.681   2.750 -0.5080 -0.9266 -0.6972
33993SOL     OW 4420  10.066   5.785   3.866 -0.1819  0.0574 -0.1661
33993SOL    HW1 4421   9.984   5.828   3.843 -0.6603 -1.0913 -0.7509
33993SOL    HW2 4422  10.060   5.768   3.960  0.4618  2.1159  0.2845
33994SOL     OW 4423   0.562   0.463   9.721  0.0524  0.1714 -0.5548
33994SOL    HW1 4424   0.467   0.463   9.713 -0.0221  0.3709  0.1870
33994SOL    HW2 4425   0.580   0.530   9.788  0.8518  1.5866 -2.0999
33995SOL     OW 4426   5.706   1.979   2.705 -0.2271  0.1963  0.4615
33995SOL    HW1 4427   5.689   2.067   2.673 -1.6445 -0.0784  0.3989
33995SOL    HW2 4428   5.770   1.991   2.775 -1.3800  1.4307  1.3458
33996SOL     OW 4429   9.092   8.545   0.011 -0.2852 -0.2519  0.3934
33996SOL    HW1 4430   9.160   8.545   0.079 -0.4542 -0.0532  0.5673
33996SOL    HW2 4431   9.023   8.599   0.048 -0.5001 -0.3793  0.1785
33997SOL     OW 4432   7.873   3.751   4.299  0.7510 -0.5498 -0.1987
33997SOL    HW1 4433   7.881   3.842   4.269  0.3907 -0.1396  0.8741
33997SOL    HW2 4434   7.878   3.699   4.219  1.4823  0.3791 -0.7840
33998SOL     OW 4435  10.116   8.854   7.507  0.6079 -0.7761  0.0422
33998SOL    HW1 4436  10.078   8.903   7.580  2.2509 -0.8104  0.9778
33998SOL    HW2 4437  10.045   8.797   7.477 -0.0911 -0.8498  1.7082
33999SOL     OW 4438   6.015   4.716   3.091 -0.7165 -0.2135 -0.3327
33999SOL    HW1 4439   6.086   4.775   3.114 -1.4700 -0.0228  1.7208
33999SOL    HW2 4440   6.043   4.675   3.009  0.5467  1.7592 -0.9542
34000SOL     OW 4441   5.811   8.602   0.062  0.1757 -0.3406  0.3604
34000SOL    HW1 4442   5.842   8.682   0.104 -0.6069 -0.0797  0.4576
34000SOL    HW2 4443   5.788   8.629  -0.027  1.5755 -0.8360 -0.1865
34001SOL     OW 4444   1.566   4.954   7.057  0.2615  0.1633  0.0731
34001SOL    HW1 4445   1.518   5.037   7.067 -0.8100 -0.6142  1.7414
34001SOL    HW2 4446   1.502   4.893   7.023  0.6870 -0.3191  0.1233
34002SOL     OW 4447  10.133   0.089   8.481 -0.0076 -0.5448  0.8444
34002SOL    HW1 4448  10.086   0.102   8.563 -0.2890  0.0978  0.5831
34002SOL    HW2 4449  10.194   0.163   8.476 -1.0540  0.2916 -0.2536
34003SOL     OW 4450   7.792   8.355   0.361 -0.1768 -0.5004  0.0913
34003SOL    HW1 4451   7.782   8.352   0.456  0.5665  0.3804  0.2116
34003SOL    HW2 4452   7.794   8.263   0.334  0.7265 -0.7804  1.0532
34004SOL     OW 4453   6.197   7.027   1.568  1.0689 -0.0781 -0.1369
34004SOL    HW1 4454   6.207   7.112   1.526  1.9066 -1.3558 -2.7775
34004SOL    HW2 4455   6.227   6.964   1.501  0.1010 -2.4635  1.5452
34005SOL     OW 4456   0.379   2.789   5.126  0.7738  0.4150  0.6247
34005SOL    HW1 4457   0.304   2.730   5.121  0.9058  0.3109 -0.1262
34005SOL    HW2 4458   0.339   2.877   5.127  0.6221  0.3463  0.6880
34006SOL     OW 4459   6.400   2.406   0.328  0.0479  0.2052 -0.2277
34006SOL    HW1 4460   6.340   2.332   0.344 -1.5840  1.3575 -0.7531
34006SOL    HW2 4461   6.418   2.402   0.234 -0.8609  1.0446 -0.4502
34007SOL     OW 4462   1.386   3.457   2.143 -0.7731  0.0374 -0.1906
34007SOL    HW1 4463   1.358   3.376   2.184  0.6597 -0.0013  0.7773
34007SOL    HW2 4464   1.476   3.440   2.114 -0.6359  1.0988 -0.4529
34008SOL     OW 4465  10.087   9.988   6.476  0.3269 -0.5726 -0.1757
34008SOL    HW1 4466  10.090   9.898   6.443  1.7650 -0.1976 -1.1583
34008SOL    HW2 4467  10.175  10.006   6.508  0.5382  0.9703 -1.4429
34009SOL     OW 4468   4.810   6.807   6.108 -0.3125 -0.4396 -0.0812
34009SOL    HW1 4469   4.838   6.814   6.017 -0.7884  3.2841 -0.1149
34009SOL    HW2 4470   4.857   6.731   6.142  1.1613 -0.9631 -2.9857
34010SOL     OW 4471   6.502   8.089   8.269 -0.1253  0.4384  0.0949
34010SOL    HW1 4472   6.409   8.113   8.269 -0.5536 -1.0645 -1.0414
34010SOL    HW2 4473   6.515   8.039   8.349 -0.1946  0.9464  0.4281
34011SOL     OW 4474   5.995   5.711   9.121 -0.4634  0.1954  0.2825
34011SOL    HW1 4475   6.059   5.740   9.056 -0.2606  1.5466  1.0270
34011SOL    HW2 4476   6.033   5.632   9.159  0.6106  0.7716  0.4584
34012SOL     OW 4477   3.801   5.515   6.312 -0.1954 -0.7569  0.2287
34012SOL    HW1 4478   3.769   5.581   6.250 -1.3756 -0.1628  1.4038
34012SOL    HW2 4479   3.735   5.446   6.308  0.0091 -0.9608  0.4311
34013SOL     OW 4480   5.866   3.385   4.910 -0.0873  0.0439  0.2032
34013SOL    HW1 4481   5.803   3.395   4.839  0.7283  0.2893 -0.5069
34013SOL    HW2 4482   5.865   3.469   4.955  0.0447  0.1953 -0.0742
34014SOL     OW 4483  10.034   7.295   9.694  0.3388 -0.9027  0.0619
34014SOL    HW1 4484   9.956   7.338   9.660  0.0757 -0.3909  1.2457
34014SOL    HW2 4485  10.087   7.276   9.617  0.2063  1.0422 -0.5587
34015SOL     OW 4486   4.913   9.295   8.488 -0.0653 -0.1141  0.0162
34015SOL    HW1 4487   4.850   9.359   8.455  0.7150  0.3115 -0.6747
34015SOL    HW2 4488   4.983   9.293   8.422  1.2572  0.3518  1.3409
34016SOL     OW 4489   6.527   0.154   1.938  0.4293 -0.6083  0.2089
34016SOL    HW1 4490   6.477   0.235   1.923  0.4945 -0.7901 -1.2042
34016SOL    HW2 4491   6.559   0.161   2.027 -0.1264  0.6259  0.3320
34017SOL     OW 4492   7.527   3.356   1.657 -0.3232  0.3170 -0.3256
34017SOL    HW1 4493   7.515   3.404   1.739 -3.0993  0.5763 -0.7897
34017SOL    HW2 4494   7.478   3.275   1.670  0.5180 -0.3577 -1.1909
34018SOL     OW 4495   3.261   4.194   3.361  0.6789 -0.4086 -0.1656
34018SOL    HW1 4496   3.207   4.254   3.412  3.0796 -0.0826  2.1779
34018SOL    HW2 4497   3.305   4.250   3.297 -1.6061 -0.6840 -2.1292
34019SOL     OW 4498   8.046   4.048   9.839  0.1595 -0.3648 -0.2390
34019SOL    HW1 4499   8.013   4.126   9.793 -0.9822 -1.0935 -0.6878
34019SOL    HW2 4500   8.082   3.993   9.769 -0.5211 -0.9562 -0.1336
34020SOL     OW 4501   5.288   8.336   5.475  0.1311  0.4157  0.4105
34020SOL    HW1 4502   5.336   8.276   5.418 -0.3022  0.0706  0.4095
34020SOL    HW2 4503   5.279   8.289   5.558 -0.3614  0.4084  0.3549
34021SOL     OW 4504   9.945   1.694   2.423  0.8843 -0.5180  1.0255
34021SOL    HW1 4505  10.002   1.617   2.428  1.6282 -0.0395  0.2733
34021SOL    HW2 4506   9.904   1.689   2.337  1.0867  0.0180  0.8906
34022SOL     OW 4507   8.279   1.128   0.863 -0.3134  0.3436  0.2644
34022SOL    HW1 4508   8.250   1.119   0.772  0.0378  0.8479  0.0985
34022SOL    HW2 4509   8.322   1.214   0.866  0.7045 -0.1620  0.6216
34023SOL     OW 4510   1.931   6.006   2.130 -0.2131  0.1503  0.5499
34023SOL    HW1 4511   1.871   6.064   2.177 -0.5510  0.6800 -0.5182
34023SOL    HW2 4512   1.878   5.930   2.108 -0.0740 -0.0648  0.9423
34024SOL     OW 4513   5.863   6.462   4.683 -0.1599  0.5191  0.1743
34024SOL    HW1 4514   5.941   6.432   4.729  0.5575  1.6157 -0.2831
34024SOL    HW2 4515   5.827   6.530   4.741 -0.0597  0.8963 -0.2042
34025SOL     OW 4516   6.055   9.022   6.906  0.0015  0.5843 -0.2997
34025SOL    HW1 4517   6.015   9.090   6.852 -2.4412 -0.2772  0.2660
34025SOL    HW2 4518   6.003   8.944   6.889  3.1211 -1.4515 -1.4368
34026SOL     OW 4519   8.322   8.399   4.678 -0.1976  0.0083 -0.2508
34026SOL    HW1 4520   8.349   8.342   4.606  0.4644  0.5838 -0.4653
34026SOL    HW2 4521   8.400   8.407   4.733  0.0435  1.5200 -0.7690
34027SOL     OW 4522   2.992   3.358   3.354 -0.4783 -0.5380 -0.3165
34027SOL    HW1 4523   3.070   3.361   3.299  1.7004 -1.4236  2.4945
34027SOL    HW2 4524   2.956   3.446   3.349  1.7589  0.4342 -0.3001
34028SOL     OW 4525   2.205   9.150   5.061 -0.3406  0.3763 -0.0148
34028SOL    HW1 4526   2.162   9.079   5.013  2.1529 -0.4529 -1.1676
34028SOL    HW2 4527   2.273   9.182   5.001  1.5536  0.7018  2.1833
34029SOL     OW 4528   8.712   2.121   6.028  0.5837 -0.7424  0.1778
34029SOL    HW1 4529   8.638   2.181   6.014 -0.9395 -2.2653  1.2311
34029SOL    HW2 4530   8.789   2.171   6.000 -0.5590  1.7586  1.1593
34030SOL     OW 4531   2.002   2.783   1.389  0.0285  0.3339 -1.1890
34030SOL    HW1 4532   1.939   2.752   1.455  0.8691 -0.2959 -0.6679
34030SOL    HW2 4533   1.960   2.764   1.305 -1.0410  1.1016 -0.8562
34031SOL     OW 4534   5.137   6.256   5.881  0.6936  0.9792  0.0742
34031SOL    HW1 4535   5.173   6.168   5.870  0.0689  0.6603  0.5195
34031SOL    HW2 4536   5.156   6.301   5.799 -0.3986 -0.0749 -0.7729
34032SOL     OW 4537   4.589   9.652   6.818 -0.5081 -0.1686 -0.1676
34032SOL    HW1 4538   4.546   9.732   6.790  0.0249 -0.4473 -1.9376
34032SOL    HW2 4539   4.682   9.667   6.800 -0.2375 -0.7077  0.7093
34033SOL     OW 4540   1.439  10.079   2.059 -0.0256 -0.3704 -0.2104
34033SOL    HW1 4541   1.421  10.035   1.976 -1.5784  1.2496 -0.7999
34033SOL    HW2 4542   1.422  10.013   2.126 -0.7379 -1.1266 -1.1150
34034SOL     OW 4543   1.521   5.336   4.503 -0.0310 -0.5427  0.0993
34034SOL    HW1 4544   1.587   5.277   4.467  0.3713  0.0416 -0.1197
34034SOL    HW2 4545   1.491   5.387   4.428 -1.0824 -1.1219  0.0950
34035SOL     OW 4546   5.385   6.480  10.315  0.1374  0.6560  0.3576
34035SOL    HW1 4547   5.325   6.531  10.369  1.3483  1.8590  0.6317
34035SOL    HW2 4548   5.330   6.413  10.273 -1.3578  1.6726  0.6374
34036SOL     OW 4549   6.786   9.849   6.598 -0.1202  0.0579 -0.0869
34036SOL    HW1 4550   6.720   9.790   6.636 -0.8030  0.0555 -1.2429
34036SOL    HW2 4551   6.863   9.793   6.587  0.0817  0.0438  1.2091
34037SOL     OW 4552   5.569   1.631   6.780 -0.2085  0.3064 -0.4429
34037SOL    HW1 4553   5.657   1.595   6.771 -0.6373 -0.5766 -1.4037
34037SOL    HW2 4554   5.559   1.649   6.873  0.6341 -0.5430 -0.1713
34038SOL     OW 4555   5.685   8.902   8.397  0.5919 -0.5605 -0.7929
34038SOL    HW1 4556   5.624   8.957   8.446 -0.0180 -0.3739 -1.7369
34038SOL    HW2 4557   5.679   8.816   8.439 -0.5977 -0.6361 -1.0972
34039SOL     OW 4558   3.597   8.573   5.934  0.1818  0.0016  0.1547
34039SOL    HW1 4559   3.546   8.498   5.963  0.7366  0.1759  1.6818
34039SOL    HW2 4560   3.646   8.600   6.012  2.8459 -0.3428 -1.2800
34040SOL     OW 4561   5.512   7.939   5.678  0.2843 -0.0924  0.1033
34040SOL    HW1 4562   5.488   8.031   5.684  1.2904  0.0660  3.1928
34040SOL    HW2 4563   5.581   7.936   5.611  1.4650  1.7455  1.1501
34041SOL     OW 4564   2.939   0.431   5.147  0.1970 -0.2353 -0.3422
34041SOL    HW1 4565   2.930   0.489   5.071  2.0819  1.0826  0.3751
34041SOL    HW2 4566   2.943   0.491   5.222 -1.4902 -1.5041  0.8201
34042SOL     OW 4567   8.860   2.638  10.252 -0.3629 -0.2135  0.9761
34042SOL    HW1 4568   8.833   2.729  10.259 -0.1100 -0.1608  1.3139
34042SOL    HW2 4569   8.802   2.600  10.186 -0.5672  0.1537  0.9447
34043SOL     OW 4570   7.806   2.294   0.116  0.6471  0.3921  0.2785
34043SOL    HW1 4571   7.900   2.288   0.102  0.4309  0.4667 -1.4079
34043SOL    HW2 4572   7.784   2.216   0.168  1.6246  0.4191  0.7676
34044SOL     OW 4573   9.992   6.309   4.466 -0.4274 -0.2364 -0.1366
34044SOL    HW1 4574   9.949   6.318   4.381  1.5050 -0.7971 -1.2253
34044SOL    HW2 4575  10.050   6.234   4.456 -0.6763 -0.7709  1.9301
34045SOL     OW 4576   4.912  10.197   9.835 -0.7976  0.4815 -0.3662
34045SOL    HW1 4577   4.838  10.258   9.825 -1.6827 -0.4285  0.3622
34045SOL    HW2 4578   4.941  10.211   9.926 -0.1533  0.7327 -0.6064
34046SOL     OW 4579   7.522   9.357   5.924  0.4453 -0.2272  0.0340
34046SOL    HW1 4580   7.501   9.265   5.938 -0.0010 -0.1923 -0.3677
34046SOL    HW2 4581   7.482   9.403   5.998  0.7503 -0.3587  0.2862
34047SOL     OW 4582   2.296   1.704   5.224 -0.2411 -0.1223 -0.2781
34047SOL    HW1 4583   2.321   1.779   5.279  2.1859 -0.3740 -0.8971
34047SOL    HW2 4584   2.203   1.692   5.241 -0.2242  1.6382  1.5248
34048SOL     OW 4585   9.287   7.383   7.987  0.4827  0.0686  0.3462
34048SOL    HW1 4586   9.317   7.307   8.037  2.2578  1.2746  1.2103
34048SOL    HW2 4587   9.206   7.354   7.945  0.4799 -1.8996  1.6120
34049SOL     OW 4588   8.490   0.514   9.460  0.1675 -0.2204  0.3878
34049SOL    HW1 4589   8.512   0.436   9.510 -0.1305 -1.2013 -0.9797
34049SOL    HW2 4590   8.399   0.532   9.482  0.1895 -0.3464  0.5809
34050SOL     OW 4591   0.270   1.387   6.816 -0.0704  0.4786  0.4545
34050SOL    HW1 4592   0.290   1.380   6.723 -2.6321  1.4560 -0.2612
34050SOL    HW2 4593   0.289   1.300   6.851  1.7049  0.3086 -0.7571
34051SOL     OW 4594   1.883   5.797   0.154 -0.1960 -0.1584  0.7986
34051SOL    HW1 4595   1.842   5.873   0.113 -0.0370 -0.5823 -0.1679
34051SOL    HW2 4596   1.969   5.790   0.112 -0.5086 -1.3222  0.3233
34052SOL     OW 4597   7.054   8.176   5.547  0.8543 -0.2315 -0.1144
34052SOL    HW1 4598   7.013   8.093   5.521  0.1694 -0.7563  2.3884
34052SOL    HW2 4599   7.009   8.242   5.494 -0.1397 -1.2376 -0.5743
34053SOL     OW 4600   4.870   9.418   8.096 -0.1848  0.3959 -0.0611
34053SOL    HW1 4601   4.919   9.469   8.161 -1.0880  1.1255  0.0557
34053SOL    HW2 4602   4.803   9.478   8.064 -0.5722 -0.3804 -0.7224
34054SOL     OW 4603   7.533   7.129   8.449 -0.2827  0.7781 -0.2492
34054SOL    HW1 4604   7.619   7.090   8.466  0.0622  1.4384 -0.4185
34054SOL    HW2 4605   7.511   7.102   8.360  0.0482  1.1208 -0.4399
34055SOL     OW 4606   7.719   6.394   9.876 -0.3533 -0.3698  0.6916
34055SOL    HW1 4607   7.799   6.358   9.914 -0.3793 -1.5481 -0.2914
34055SOL    HW2 4608   7.652   6.328   9.895 -0.6028 -0.4380 -0.3635
34056SOL     OW 4609   6.436   1.924   6.029  0.2483 -0.3735 -0.1866
34056SOL    HW1 4610   6.470   1.951   5.943  0.9339 -0.2066  0.1304
34056SOL    HW2 4611   6.478   1.984   6.091 -0.4204 -0.3432  0.2430
34057SOL     OW 4612   6.778   8.242   1.005 -0.0005 -1.0794  0.2477
34057SOL    HW1 4613   6.783   8.149   1.027 -2.2073 -0.6706  3.1928
34057SOL    HW2 4614   6.813   8.287   1.082  2.7959  0.6214 -1.8486
34058SOL     OW 4615   0.260   3.811   0.093 -0.1710 -0.1155  0.0858
34058SOL    HW1 4616   0.273   3.726   0.050  0.0308  0.1155 -0.3110
34058SOL    HW2 4617   0.337   3.822   0.148  0.8222  0.7215 -1.3884
34059SOL     OW 4618   5.755   1.759   1.303  0.2318 -0.2019 -0.0597
34059SOL    HW1 4619   5.823   1.742   1.369  2.0793  0.9691 -1.5498
34059SOL    HW2 4620   5.749   1.677   1.254  0.9359 -0.1772 -0.2045
34060SOL     OW 4621   0.638   2.788   9.529 -0.2033  0.2899 -0.1962
34060SOL    HW1 4622   0.604   2.778   9.440  0.0559  0.4122 -0.3101
34060SOL    HW2 4623   0.657   2.882   9.537 -0.8756  0.3911  0.2274
34061SOL     OW 4624  10.283   7.273   5.087 -0.0876  0.0449  0.4953
34061SOL    HW1 4625  10.211   7.234   5.137 -0.2433 -1.7418 -0.9988
34061SOL    HW2 4626  10.348   7.203   5.080 -1.1952 -0.8860 -3.9791
34062SOL     OW 4627   7.476   0.411   2.708  0.0510 -0.4666  0.1370
34062SOL    HW1 4628   7.416   0.368   2.647 -0.3469 -1.4925  1.2015
34062SOL    HW2 4629   7.422   0.434   2.783  0.3497  1.5750 -0.2220
34063SOL     OW 4630   5.986   3.587   8.964 -0.4061  0.1032  0.3722
34063SOL    HW1 4631   6.073   3.619   8.985  0.4581 -0.5038 -1.9676
34063SOL    HW2 4632   5.950   3.653   8.905  0.1888 -1.5879 -2.0317
34064SOL     OW 4633  10.339   6.682   4.431 -0.3564 -0.0202  0.4645
34064SOL    HW1 4634  10.261   6.650   4.477  0.0262  0.1637  1.2705
34064SOL    HW2 4635  10.309   6.702   4.343 -1.1931 -0.0793  0.7280
34065SOL     OW 4636   9.582   4.756   2.207  0.1177 -0.1265 -0.6017
34065SOL    HW1 4637   9.521   4.703   2.257  0.8508  0.5984  1.1199
34065SOL    HW2 4638   9.648   4.784   2.270  1.2889  0.5285 -2.0458
34066SOL     OW 4639   9.836   4.970   8.232 -0.4548  0.3314  0.3450
34066SOL    HW1 4640   9.889   4.968   8.153 -1.1188  1.3864 -0.1383
34066SOL    HW2 4641   9.844   4.882   8.268  0.5273  0.0849 -0.4414
34067SOL     OW 4642   7.241   2.334   6.801 -0.4444 -0.8872 -0.3108
34067SOL    HW1 4643   7.269   2.304   6.715 -0.5965 -0.6414 -0.4484
34067SOL    HW2 4644   7.179   2.405   6.783  0.6428  0.1666  0.0220
34068SOL     OW 4645   8.011   5.155   0.546 -0.1796  0.4096 -0.2856
34068SOL    HW1 4646   7.927   5.199   0.536 -0.6876 -0.3736  0.3444
34068SOL    HW2 4647   8.075   5.216   0.509 -1.0582  0.8636 -1.0920
34069SOL     OW 4648   0.730   6.727   6.342 -0.0497  0.8493  0.1253
34069SOL    HW1 4649   0.822   6.732   6.369  0.3031  1.8147 -1.1541
34069SOL    HW2 4650   0.731   6.750   6.249 -1.5163  0.1996 -0.0737
34070SOL     OW 4651   1.258   0.331   8.829 -0.4652 -0.1474  0.0943
34070SOL    HW1 4652   1.186   0.394   8.829 -1.4504 -1.2162 -1.3208
34070SOL    HW2 4653   1.217   0.246   8.812  0.7859 -1.2700  2.2292
34071SOL     OW 4654   6.376   9.622  10.271  0.6257 -0.0155 -0.0436
34071SOL    HW1 4655   6.388   9.625  10.366 -0.0490 -0.1716  0.0474
34071SOL    HW2 4656   6.341   9.534  10.254 -0.5243  0.4840 -0.2865
34072SOL     OW 4657   9.355   1.351   2.835 -0.2128  0.0602  0.3337
34072SOL    HW1 4658   9.273   1.303   2.837  0.3146 -0.9596 -1.0157
34072SOL    HW2 4659   9.387   1.348   2.925 -0.2958 -1.9729  0.3408
34073SOL     OW 4660   8.966   9.678   6.020  0.4857  0.1429 -0.1509
34073SOL    HW1 4661   8.928   9.617   6.084  0.8157 -1.4399 -1.3927
34073SOL    HW2 4662   8.890   9.718   5.978  0.1956 -0.8791 -0.6476
34074SOL     OW 4663   7.365   2.604   2.266  0.0860  0.2964 -0.0302
34074SOL    HW1 4664   7.297   2.663   2.234  0.4003  0.8852  0.3627
34074SOL    HW2 4665   7.372   2.624   2.360 -1.5450 -2.0886  0.6983
34075SOL     OW 4666   8.737   6.281   8.355 -0.1653 -0.1273  0.2947
34075SOL    HW1 4667   8.698   6.277   8.442 -1.3806 -1.6817 -0.2625
34075SOL    HW2 4668   8.817   6.332   8.366 -0.4024 -0.1215  2.2690
34076SOL     OW 4669   8.671   9.016   3.712  0.3972 -0.1823  0.3016
34076SOL    HW1 4670   8.615   8.966   3.652  2.8908 -0.2842 -2.1376
34076SOL    HW2 4671   8.693   8.954   3.781  0.3567 -1.2932 -0.6323
34077SOL     OW 4672   7.856   8.689   7.610  0.1977 -0.3504  0.0884
34077SOL    HW1 4673   7.786   8.693   7.676 -1.7951  0.6853 -1.9615
34077SOL    HW2 4674   7.814   8.649   7.534  1.5055  1.3333 -1.5850
34078SOL     OW 4675   8.435   7.753   8.635 -0.2387  0.1762  0.2290
34078SOL    HW1 4676   8.345   7.723   8.641  0.1808 -1.0283  1.1013
34078SOL    HW2 4677   8.436   7.816   8.564 -1.4043 -1.1526 -1.0197
34079SOL     OW 4678   0.454   6.906   7.208 -0.0355  0.1896  0.9359
34079SOL    HW1 4679   0.414   6.837   7.261  0.2145  0.6354  1.7082
34079SOL    HW2 4680   0.548   6.890   7.215 -0.0266 -1.1393 -1.2593
34080SOL     OW 4681   3.691   1.239   8.440  0.1075 -0.4215 -0.2676
34080SOL    HW1 4682   3.612   1.282   8.473  0.7061  1.6376 -1.4008
34080SOL    HW2 4683   3.721   1.186   8.514 -1.5514 -0.1835  0.6423
34081SOL     OW 4684   7.227  10.080   6.976  0.3705  0.1350 -0.2990
34081SOL    HW1 4685   7.189  10.031   7.049  0.2929 -0.7827 -0.9421
34081SOL    HW2 4686   7.299  10.129   7.016  0.5626 -0.6362  0.3355
34082SOL     OW 4687   3.485   9.484   2.746  0.1574 -0.0498  0.5520
34082SOL    HW1 4688   3.400   9.439   2.743 -0.2085  0.6294  0.6117
34082SOL    HW2 4689   3.463   9.576   2.759  0.8555  0.3309 -0.8206
34083SOL     OW 4690   2.741   1.183   3.331 -0.6314  0.0523  0.6011
34083SOL    HW1 4691   2.694   1.113   3.286 -0.5333  0.2117  0.2524
34083SOL    HW2 4692   2.748   1.253   3.267 -0.4691  0.2719  0.8552
34084SOL     OW 4693   6.456   2.494   0.018  0.0163 -0.0424  0.2919
34084SOL    HW1 4694   6.540   2.538   0.031  0.2140  0.1180 -1.2762
34084SOL    HW2 4695   6.431   2.518  -0.071 -0.8153 -1.5399  0.0921
34085SOL     OW 4696   2.810   9.872   2.004 -0.5452  0.3853 -0.4445
34085SOL    HW1 4697   2.861   9.952   2.001 -1.6100  1.0944 -0.3385
34085SOL    HW2 4698   2.831   9.832   2.089 -0.0315  0.5593 -0.4899
34086SOL     OW 4699   0.251   1.566   1.270  0.0772  0.5884  0.0886
34086SOL    HW1 4700   0.160   1.549   1.247 -0.0224  0.7204  0.3764
34086SOL    HW2 4701   0.295   1.481   1.262 -0.0904  0.5076  0.0402
34087SOL     OW 4702   6.363   5.389   3.393  0.3228 -0.5033 -0.1312
34087SOL    HW1 4703   6.379   5.417   3.303 -0.8769 -0.8217 -0.4579
34087SOL    HW2 4704   6.444   5.344   3.418  0.6630 -0.4342 -1.0458
34088SOL     OW 4705  10.360   9.316   7.146 -0.4818 -0.4643  0.1962
34088SOL    HW1 4706  10.322   9.387   7.095  0.5718 -1.4242 -2.0590
34088SOL    HW2 4707  10.285   9.271   7.185 -1.2979  0.5250 -0.2020
34089SOL     OW 4708   3.144   0.656   8.059  0.1008 -0.6474  0.8781
34089SOL    HW1 4709   3.170   0.587   8.120 -0.5344 -0.5117  1.3119
34089SOL    HW2 4710   3.061   0.688   8.094  0.3436  0.2743  0.6271
34090SOL     OW 4711   3.117  10.282   4.052  0.2704 -0.4686  0.1253
34090SOL    HW1 4712   3.170  10.277   3.972  0.1320  1.1555 -0.0924
34090SOL    HW2 4713   3.180  10.303   4.121  0.1010  0.2261  0.0751
34091SOL     OW 4714   7.163   6.646   2.649 -0.7222  0.3179 -0.0579
34091SOL    HW1 4715   7.112   6.671   2.726 -1.1042  0.3993 -0.3340
34091SOL    HW2 4716   7.106   6.667   2.574 -1.3755 -1.9455 -0.2989
34092SOL     OW 4717   9.680   5.610   3.974 -0.0564  0.0213 -0.2403
34092SOL    HW1 4718   9.703   5.572   4.059  0.0442  0.5135 -0.0453
34092SOL    HW2 4719   9.652   5.699   3.994 -2.0696 -0.5215 -0.4897
34093SOL     OW 4720  10.178   0.040   5.665  0.1494 -0.2336  0.1744
34093SOL    HW1 4721  10.135  -0.041   5.690  1.3985 -0.5265  1.5013
34093SOL    HW2 4722  10.112   0.088   5.616 -0.3149 -2.4652 -1.5585
34094SOL     OW 4723   8.721   0.410   4.755  0.6798 -0.4272 -0.1483
34094SOL    HW1 4724   8.695   0.449   4.671  1.4969  0.4819 -0.0025
34094SOL    HW2 4725   8.746   0.484   4.809 -0.0876 -0.9943  1.0049
34095SOL     OW 4726   8.125  10.149   9.932  0.4705 -0.0990 -0.3801
34095SOL    HW1 4727   8.071  10.137  10.010 -0.8868 -0.3138 -1.3276
34095SOL    HW2 4728   8.107  10.072   9.877  0.2229  0.7900 -1.5855
34096SOL     OW 4729   7.658   6.778   8.934 -0.3260 -0.2253 -0.4216
34096SOL    HW1 4730   7.587   6.771   8.871 -0.5833 -0.5250 -0.0989
34096SOL    HW2 4731   7.625   6.835   9.002 -0.2965 -0.4440 -0.2209
34097SOL     OW 4732   9.923   7.914   8.205  0.2321  0.1804 -0.1973
34097SOL    HW1 4733   9.967   7.855   8.266 -0.5940  0.7727  1.0040
34097SOL    HW2 4734   9.945   8.002   8.237  0.6347  0.5421 -1.3781
34098SOL     OW 4735   4.650   4.229   7.954 -0.2121 -0.3983  0.1247
34098SOL    HW1 4736   4.655   4.154   7.894  1.6938 -0.4036  0.2277
34098SOL    HW2 4737   4.663   4.191   8.041 -2.1234 -0.2782  0.5144
34099SOL     OW 4738   5.051   6.589   7.798  0.2664  0.4417  0.2628
34099SOL    HW1 4739   5.146   6.600   7.786  0.4455 -0.6273  0.6151
34099SOL    HW2 4740   5.038   6.495   7.797 -0.7243  0.5632  0.8313
34100SOL     OW 4741   3.474   4.210   0.770 -0.0731  0.1654 -0.1836
34100SOL    HW1 4742   3.521   4.235   0.691  1.4585  0.6340  0.8161
34100SOL    HW2 4743   3.529   4.245   0.842 -1.0649 -0.8012  1.0855
34101SOL     OW 4744   3.040  10.451   6.870  0.0039  0.3271 -0.6720
34101SOL    HW1 4745   2.995  10.453   6.955  1.3370 -0.9459  0.1328
34101SOL    HW2 4746   2.989  10.508   6.814 -0.5834  1.7021  1.1645
34102SOL     OW 4747   3.474   6.965   4.190  0.3393  0.1475 -0.0254
34102SOL    HW1 4748   3.494   7.020   4.114  0.0608  1.1533  0.6207
34102SOL    HW2 4749   3.379   6.972   4.200  0.3802  0.0326  0.4308
34103SOL     OW 4750   4.774   5.372   1.777  0.2783 -0.5393 -0.0606
34103SOL    HW1 4751   4.821   5.416   1.847  1.9964 -1.6529 -0.4396
34103SOL    HW2 4752   4.688   5.414   1.774  0.2106 -0.3703  2.5955
34104SOL     OW 4753   9.390   8.714   6.559  0.1735 -0.0377  0.4071
34104SOL    HW1 4754   9.429   8.737   6.643 -0.0483 -0.7304  0.6948
34104SOL    HW2 4755   9.354   8.627   6.571 -0.4048  0.1066 -0.2255
34105SOL     OW 4756   9.689   7.712   0.622  0.1722  1.0119 -0.0403
34105SOL    HW1 4757   9.637   7.777   0.574 -1.9924 -1.1066 -0.7727
34105SOL    HW2 4758   9.778   7.721   0.586 -0.6347  1.8136 -1.9901
34106SOL     OW 4759   5.053   9.281  10.413 -0.0494  0.1057 -0.5290
34106SOL    HW1 4760   5.039   9.324  10.329  0.2855 -1.1737 -1.2761
34106SOL    HW2 4761   4.983   9.313  10.470 -0.9104  0.1881 -1.6207
34107SOL     OW 4762   3.058   1.981   7.514  0.0989 -0.2287  0.5456
34107SOL    HW1 4763   3.130   1.982   7.451  0.0450 -1.0243  0.4665
34107SOL    HW2 4764   3.056   1.891   7.547 -0.1371  0.0788  1.3810
34108SOL     OW 4765   6.991   1.844   6.269 -0.0155  0.5728 -0.0491
34108SOL    HW1 4766   6.952   1.919   6.314  0.5336  1.2926 -0.7424
34108SOL    HW2 4767   7.085   1.857   6.278  0.1070  0.6933 -1.2977
34109SOL     OW 4768   9.603   7.282   9.458  0.1236  0.6689 -0.6063
34109SOL    HW1 4769   9.616   7.332   9.377  1.3150  1.7713  0.2255
34109SOL    HW2 4770   9.659   7.205   9.448  1.6143  1.6544 -0.1663
34110SOL     OW 4771   0.522   4.949   3.102 -0.2703 -0.0576  0.1094
34110SOL    HW1 4772   0.491   5.016   3.163  1.1954  2.5230 -1.7751
34110SOL    HW2 4773   0.608   4.924   3.136 -0.0089  0.4283 -0.1848
34111SOL     OW 4774   5.474   5.839   1.873 -0.1321  0.0760  0.6433
34111SOL    HW1 4775   5.562   5.824   1.907 -0.5105 -0.5760  1.3616
34111SOL    HW2 4776   5.451   5.927   1.903 -0.7162 -0.7213  2.7207
34112SOL     OW 4777   2.190   4.131   4.456  0.5202  0.0526 -0.2136
34112SOL    HW1 4778   2.226   4.097   4.538  0.6373  1.3705  0.3097
34112SOL    HW2 4779   2.207   4.225   4.460  0.5460  0.1364 -1.7694
34113SOL     OW 4780   4.195   7.519   1.077  0.2848  0.7806 -0.2659
34113SOL    HW1 4781   4.175   7.523   0.984  1.8407 -0.1147 -0.6685
34113SOL    HW2 4782   4.290   7.530   1.082  0.9181 -3.3446  0.7971
34114SOL     OW 4783   9.062   7.276   2.258  0.1783  0.6399 -0.3197
34114SOL    HW1 4784   9.008   7.355   2.261 -0.2912  0.3763 -1.2500
34114SOL    HW2 4785   9.130   7.295   2.194  1.1549  0.9362  0.7885
34115SOL     OW 4786   9.823   6.205   6.851 -0.7979  0.0784  0.2992
34115SOL    HW1 4787   9.893   6.165   6.903  0.0251  0.0979 -0.7528
34115SOL    HW2 4788   9.755   6.138   6.847 -0.2772 -0.4525  0.2326
34116SOL     OW 4789   7.299   2.878   3.954  0.1476  0.1668 -0.2445
34116SOL    HW1 4790   7.336   2.965   3.969 -0.7291  0.3871  0.7753
34116SOL    HW2 4791   7.373   2.825   3.925  1.0843  0.8260  0.8470
34117SOL     OW 4792   6.247   7.253   5.775  0.4596 -0.3647 -0.4327
34117SOL    HW1 4793   6.318   7.316   5.780  0.0058  0.0858  1.4066
34117SOL    HW2 4794   6.195   7.280   5.699  0.7220  1.0021 -0.1556
34118SOL     OW 4795   8.993   7.166   4.541  0.2536 -0.0047  0.2887
34118SOL    HW1 4796   9.064   7.148   4.479  0.3026  1.5959 -0.1587
34118SOL    HW2 4797   9.038   7.192   4.621  0.1915  0.7419  0.0892
34119SOL     OW 4798   2.786   8.693   1.765  0.0166  0.1533  0.5498
34119SOL    HW1 4799   2.857   8.758   1.773 -1.1599  1.4815  0.6121
34119SOL    HW2 4800   2.816   8.634   1.696  0.6007  1.4892 -0.4021
34120SOL     OW 4801   5.751   6.498   3.055  0.0058 -0.0787 -0.2226
34120SOL    HW1 4802   5.796   6.445   3.121 -0.9874  1.0573  1.4327
34120SOL    HW2 4803   5.822   6.538   3.004  0.8696  0.6414  1.4887
34121SOL     OW 4804   7.907   8.403   4.833 -0.5852 -0.5230  0.3579
34121SOL    HW1 4805   7.925   8.407   4.926 -0.1247  0.9532  0.2197
34121SOL    HW2 4806   7.842   8.471   4.817  1.1017  0.9183 -0.7566
34122SOL     OW 4807   1.558   7.501   0.052 -0.1163 -0.4287  0.0305
34122SOL    HW1 4808   1.495   7.537   0.115  2.0340  0.4296  1.8256
34122SOL    HW2 4809   1.546   7.406   0.058 -1.0098 -0.2911  0.5869
34123SOL     OW 4810   1.813   6.356   3.846  0.4325  0.0549 -0.3014
34123SOL    HW1 4811   1.813   6.445   3.810  1.4207 -0.1076 -0.7535
34123SOL    HW2 4812   1.848   6.365   3.934 -1.4843  0.3832  0.4606
34124SOL     OW 4813   0.252   8.025   2.469 -0.2438 -0.6826 -0.6127
34124SOL    HW1 4814   0.252   8.005   2.562 -1.5251  0.5715 -0.3142
34124SOL    HW2 4815   0.339   8.058   2.451 -0.8588  1.9347  0.8293
34125SOL     OW 4816   3.540   1.198   1.874  0.5281 -0.6173  0.0277
34125SOL    HW1 4817   3.521   1.246   1.794 -1.5769 -1.0607  0.2186
34125SOL    HW2 4818   3.525   1.106   1.852  0.2395 -0.7768  0.8374
34126SOL     OW 4819   5.732   3.977   8.340 -0.7162 -0.1704 -0.4432
34126SOL    HW1 4820   5.706   3.895   8.382  1.0778 -1.1002 -1.0175
34126SOL    HW2 4821   5.823   3.989   8.367 -0.5582  0.9504 -1.4072
34127SOL     OW 4822   0.798   6.631   8.283  0.3807  0.1652  0.4393
34127SOL    HW1 4823   0.858   6.647   8.355 -0.5979  0.4662  1.2189
34127SOL    HW2 4824   0.782   6.536   8.285  0.2610  0.1907  0.6989
34128SOL     OW 4825   9.191   0.661   2.342  0.4451  0.3454  0.3776
34128SOL    HW1 4826   9.137   0.714   2.284  1.7703 -0.0353 -1.2984
34128SOL    HW2 4827   9.162   0.571   2.324  0.2995  0.2808  0.9340
34129SOL     OW 4828   8.955   8.627   2.891 -0.0405  0.3095 -0.1048
34129SOL    HW1 4829   8.987   8.649   2.978 -0.3891 -0.1511  0.1447
34129SOL    HW2 4830   8.895   8.554   2.905 -2.0177  1.7932 -0.4237
34130SOL     OW 4831   6.102   0.600   6.466  0.3668 -0.0723 -0.5040
34130SOL    HW1 4832   6.191   0.600   6.499  1.3954 -0.3645 -3.0555
34130SOL    HW2 4833   6.110   0.625   6.374 -2.4735  2.5038 -0.2008
34131SOL     OW 4834   3.994   1.525   9.690 -1.0524  0.9912 -0.0398
34131SOL    HW1 4835   4.029   1.438   9.707 -1.8597  0.6999  0.1771
34131SOL    HW2 4836   4.061   1.585   9.721 -0.2119  0.4501 -0.7823
34132SOL     OW 4837   0.526   2.791   5.577 -0.4759 -0.2403 -0.4783
34132SOL    HW1 4838   0.609   2.746   5.560 -0.0071  0.9460 -1.4713
34132SOL    HW2 4839   0.460   2.740   5.530 -0.0788 -0.3586 -0.9086
34133SOL     OW 4840   3.980   8.733   9.822  0.3716 -0.0711  0.0335
34133SOL    HW1 4841   3.893   8.706   9.793  0.4283 -0.1750 -0.0387
34133SOL    HW2 4842   3.989   8.695   9.909 -0.5095  1.7048  0.9515
34134SOL     OW 4843   3.059   1.150   5.261  0.5875 -0.3210  0.0912
34134SOL    HW1 4844   3.008   1.231   5.255  0.8304 -0.2181 -0.6826
34134SOL    HW2 4845   3.123   1.156   5.190  1.7730 -0.3899  1.1405
34135SOL     OW 4846   3.232   5.783   3.132 -0.3669 -0.3188 -0.1177
34135SOL    HW1 4847   3.222   5.695   3.166  0.6645 -1.3257 -2.2516
34135SOL    HW2 4848   3.322   5.788   3.101 -0.7997  1.0114 -1.2855
34136SOL     OW 4849   2.868   5.763   2.284 -0.1472  0.1395  0.2113
34136SOL    HW1 4850   2.781   5.736   2.314 -1.6721  1.0649 -2.9434
34136SOL    HW2 4851   2.885   5.845   2.331 -1.6791  0.7308 -0.2180
34137SOL     OW 4852   5.070   1.908   1.478  0.4080 -0.3643 -0.1916
34137SOL    HW1 4853   5.078   1.813   1.470  2.5852 -0.1273 -1.6731
34137SOL    HW2 4854   5.125   1.942   1.408 -0.2395  2.0088  0.3870
34138SOL     OW 4855   5.465   8.096   6.883  0.1307  0.4257 -0.7872
34138SOL    HW1 4856   5.440   8.006   6.862 -0.9626  1.0780 -2.5166
34138SOL    HW2 4857   5.467   8.099   6.979 -0.4700 -1.2628 -0.6942
34139SOL     OW 4858   0.323  10.473   8.674 -0.1696 -0.3094  0.1957
34139SOL    HW1 4859   0.327  10.488   8.579  0.8681  1.7136  0.5067
34139SOL    HW2 4860   0.312  10.378   8.682 -0.4227 -0.5280 -1.9402
34140SOL     OW 4861   7.074   4.404   6.392 -0.1209 -0.5184  0.2658
34140SOL    HW1 4862   7.166   4.378   6.386 -0.2994 -0.9029 -1.1819
34140SOL    HW2 4863   7.028   4.343   6.334 -1.2440 -0.0775  0.6637
34141SOL     OW 4864   5.560   5.879   0.316  0.6250  0.9067  0.1860
34141SOL    HW1 4865   5.556   5.975   0.315 -0.3770  0.9349  2.0665
34141SOL    HW2 4866   5.652   5.858   0.300  0.9938  2.2080  0.5227
34142SOL     OW 4867  10.449   5.522   7.418  0.2325  0.2396  0.2258
34142SOL    HW1 4868  10.417   5.567   7.339 -0.3291 -0.2919  0.1398
34142SOL    HW2 4869  10.492   5.444   7.384  1.0686  0.6256  0.3834
34143SOL     OW 4870  10.399   5.632   3.597  0.3663  0.0204 -0.0929
34143SOL    HW1 4871  10.328   5.696   3.604 -0.3099 -0.5886 -1.1413
34143SOL    HW2 4872  10.431   5.622   3.686  0.5803  1.9134  0.0769
34144SOL     OW 4873   4.932   9.777   5.789 -0.3174 -0.2453 -0.2284
34144SOL    HW1 4874   4.853   9.760   5.840 -0.5909  1.6573  0.0812
34144SOL    HW2 4875   4.902   9.830   5.715  0.7753  1.7108  0.6225
34145SOL     OW 4876   3.400   2.380   1.409 -0.3905  0.2500  0.3963
34145SOL    HW1 4877   3.351   2.354   1.331  1.3250  0.5646 -0.8720
34145SOL    HW2 4878   3.472   2.433   1.374  1.4209 -1.0142  2.0201
34146SOL     OW 4879   6.469   1.053   9.471 -0.0490 -0.2062 -0.4711
34146SOL    HW1 4880   6.417   1.117   9.519  0.6175  0.0736 -0.1109
34146SOL    HW2 4881   6.448   0.969   9.512 -0.2908 -0.1080 -0.3958
34147SOL     OW 4882   8.924   3.971   9.528  0.1027 -0.1058 -0.6627
34147SOL    HW1 4883   8.991   3.943   9.465  1.9918  0.5008  0.9677
34147SOL    HW2 4884   8.894   4.056   9.494  0.8559  0.0616 -0.9344
34148SOL     OW 4885   7.201   8.184   6.897 -0.1518 -0.9281  0.3231
34148SOL    HW1 4886   7.144   8.259   6.915  0.4435 -0.4790  0.3563
34148SOL    HW2 4887   7.286   8.223   6.877  0.3750 -1.6302  1.1522
34149SOL     OW 4888   7.076   5.732   8.420  0.2612  0.2497 -0.3145
34149SOL    HW1 4889   7.056   5.697   8.507  0.8510  0.7770  0.0404
34149SOL    HW2 4890   7.055   5.660   8.360  0.0045 -0.1750  0.2719
34150SOL     OW 4891   2.525   7.628   3.431  0.1698 -0.0916 -0.1011
34150SOL    HW1 4892   2.621   7.619   3.433  0.2683  0.8448 -0.3316
34150SOL    HW2 4893   2.495   7.545   3.394  0.7231 -1.4083  2.2299
34151SOL     OW 4894   5.108   8.192   7.113  0.0223  0.4002  0.4242
34151SOL    HW1 4895   5.040   8.164   7.174 -0.9952  2.6652  0.4231
34151SOL    HW2 4896   5.145   8.271   7.153  2.3049 -0.4522  0.1465
34152SOL     OW 4897   5.056   9.555   5.183 -0.3273  0.1985  0.8016
34152SOL    HW1 4898   5.031   9.463   5.193  1.5407 -0.6530 -1.3885
34152SOL    HW2 4899   4.995   9.589   5.118  0.4575 -0.2147 -0.1766
34153SOL     OW 4900   3.091   7.501   0.578  0.2772  0.4454  0.0240
34153SOL    HW1 4901   3.104   7.595   0.584 -1.1176  0.5981  1.0703
34153SOL    HW2 4902   3.150   7.464   0.643  0.0357  0.6825  0.3831
34154SOL     OW 4903   1.360   7.576   3.053 -0.4527  0.3739  0.1537
34154SOL    HW1 4904   1.288   7.596   2.993  0.0296 -0.8555 -0.8825
34154SOL    HW2 4905   1.323   7.587   3.140 -1.6721  0.5190 -0.3674
34155SOL     OW 4906   1.429   5.055   8.606 -0.0407  0.0007 -0.2648
34155SOL    HW1 4907   1.517   5.034   8.638  0.8741  0.6580 -2.2226
34155SOL    HW2 4908   1.423   5.011   8.522 -2.0971 -1.0653  0.3831
34156SOL     OW 4909   3.815   5.817   7.906 -0.1071 -0.6796  0.3924
34156SOL    HW1 4910   3.782   5.808   7.817  1.1836 -2.3295  0.0163
34156SOL    HW2 4911   3.746   5.863   7.954 -1.7893 -1.7316 -0.9295
34157SOL     OW 4912   7.887   7.509   1.321 -0.9207  0.2963 -0.0036
34157SOL    HW1 4913   7.911   7.597   1.293  0.2672  0.4896  1.5055
34157SOL    HW2 4914   7.875   7.460   1.240  1.0591  1.1521 -0.8748
34158SOL     OW 4915   3.832   8.317   4.471 -0.5627 -0.2565  0.0777
34158SOL    HW1 4916   3.907   8.295   4.417 -0.6320 -1.0373  0.2874
34158SOL    HW2 4917   3.756   8.296   4.417 -0.6677  1.2814 -0.4445
34159SOL     OW 4918   3.194   4.247   9.424 -0.0101 -0.0871  0.5955
34159SOL    HW1 4919   3.152   4.319   9.471 -0.1098  0.4576 -0.2912
34159SOL    HW2 4920   3.146   4.242   9.341  0.6241 -0.5370  0.2454
34160SOL     OW 4921   7.237   3.658   3.637  0.0675 -0.0931 -0.6655
34160SOL    HW1 4922   7.240   3.636   3.544  0.9077 -0.3697 -0.5834
34160SOL    HW2 4923   7.288   3.739   3.644 -2.8190  1.8741 -0.9311
34161SOL     OW 4924   1.109   9.420   5.883  0.2627 -0.8117  0.0744
34161SOL    HW1 4925   1.058   9.477   5.941 -0.7993 -1.7482  0.0743
34161SOL    HW2 4926   1.084   9.331   5.907  2.9266 -1.4103  1.0485
34162SOL     OW 4927   2.304   5.548   7.280 -0.3233 -0.3753  0.1152
34162SOL    HW1 4928   2.253   5.512   7.207  1.3263 -0.0153 -1.2788
34162SOL    HW2 4929   2.386   5.501   7.277  0.6373  1.2150  0.3023
34163SOL     OW 4930   9.710   9.680   6.955  0.0588  0.2037  0.2505
34163SOL    HW1 4931   9.633   9.623   6.954  0.3342 -0.1521 -0.4447
34163SOL    HW2 4932   9.674   9.769   6.947 -0.3524  0.1349  1.1372
34164SOL     OW 4933   2.432   7.424   2.455 -0.3193 -0.4469  0.2356
34164SOL    HW1 4934   2.439   7.427   2.360 -0.8735 -0.4043  0.1896
34164SOL    HW2 4935   2.362   7.361   2.471 -1.3791  0.7726  0.5544
34165SOL     OW 4936   7.758   5.563   3.180  0.2601 -0.0825  0.0252
34165SOL    HW1 4937   7.763   5.509   3.259 -0.7967 -2.4270 -1.4230
34165SOL    HW2 4938   7.768   5.653   3.213  0.6450 -1.0045  2.7179
34166SOL     OW 4939   5.089   8.015   5.247 -0.4901 -0.0075  1.0009
34166SOL    HW1 4940   5.055   8.091   5.293  0.9005  0.3244  1.5326
34166SOL    HW2 4941   5.084   8.039   5.154 -0.7131  0.4378  1.1245
34167SOL     OW 4942   2.535   8.788   0.650 -0.3051  0.2783 -0.1036
34167SOL    HW1 4943   2.617   8.747   0.679 -1.0630 -1.0148  0.2842
34167SOL    HW2 4944   2.497   8.726   0.589 -1.2971  0.5682  0.1951
34168SOL     OW 4945   7.653   1.212   9.358 -0.4608 -0.2609 -0.2606
34168SOL    HW1 4946   7.581   1.226   9.420 -0.6716 -1.0262 -0.3252
34168SOL    HW2 4947   7.728   1.254   9.400 -0.1975 -2.2047  1.3619
34169SOL     OW 4948   0.729   7.986   3.086 -0.1498 -0.0496  0.2647
34169SOL    HW1 4949   0.679   7.999   3.166  1.3451 -2.3918  1.6957
34169SOL    HW2 4950   0.812   8.032   3.100  0.2258 -0.6895  0.2015
34170SOL     OW 4951   4.633   2.460  10.383  0.4840 -0.3619  0.1190
34170SOL    HW1 4952   4.607   2.466  10.475  1.3290 -0.0179  0.3454
34170SOL    HW2 4953   4.578   2.523  10.337  0.0273 -0.5700  0.3792
34171SOL     OW 4954   3.901   5.180   2.183 -0.3908  0.2343 -0.6582
34171SOL    HW1 4955   3.826   5.239   2.171 -1.2850 -0.4355  1.2871
34171SOL    HW2 4956   3.869   5.095   2.154 -0.0628  0.1333 -0.7229
34172SOL     OW 4957   8.498   1.203   7.783 -0.5308 -0.4545  0.0780
34172SOL    HW1 4958   8.540   1.288   7.794 -0.9982 -0.3460  1.1551
34172SOL    HW2 4959   8.568   1.145   7.751  0.0063  0.1177  0.2098
34173SOL     OW 4960   8.181   4.038   5.715 -0.3657 -0.4472  0.1041
34173SOL    HW1 4961   8.134   4.056   5.633 -1.6977 -0.4561  0.8427
34173SOL    HW2 4962   8.272   4.024   5.687 -1.0370 -1.9606 -1.5690
34174SOL     OW 4963   5.106   4.255   7.767  0.6165  0.2644  0.3900
34174SOL    HW1 4964   5.056   4.335   7.783 -0.7240 -0.4685 -0.0559
34174SOL    HW2 4965   5.060   4.187   7.816  0.4000 -0.6805 -1.0915
34175SOL     OW 4966   1.348   4.673   8.609  0.3077  0.0051  0.1483
34175SOL    HW1 4967   1.321   4.611   8.676  2.4266 -1.8598 -0.5868
34175SOL    HW2 4968   1.292   4.655   8.534  1.4502 -1.7299 -0.3540
34176SOL     OW 4969   3.237   1.754   4.177  0.2391  0.4564  0.0229
34176SOL    HW1 4970   3.326   1.781   4.153  0.8913 -1.2286  0.3521
34176SOL    HW2 4971   3.184   1.777   4.101  1.1810  0.4403 -0.6585
34177SOL     OW 4972   9.944   1.823   3.127 -0.2462  0.3165  0.3142
34177SOL    HW1 4973  10.034   1.792   3.137 -0.4821 -0.0157  1.5756
34177SOL    HW2 4974   9.952   1.913   3.097  0.4823 -0.1794 -1.0372
34178SOL     OW 4975   3.030   7.874   6.913 -0.1541  0.2575  0.2846
34178SOL    HW1 4976   2.938   7.898   6.904  0.2513  1.1117 -2.3136
34178SOL    HW2 4977   3.029   7.781   6.935 -1.6269  0.5996  1.8370
34179SOL     OW 4978   9.740   1.419   6.386 -0.6170  0.5127 -0.6376
34179SOL    HW1 4979   9.749   1.433   6.480 -0.8670  1.8401 -0.7968
34179SOL    HW2 4980   9.659   1.369   6.377 -1.3669  1.6336 -0.2407
34180SOL     OW 4981   3.383   9.736   2.517  0.6857 -0.1133  0.2968
34180SOL    HW1 4982   3.365   9.649   2.481 -0.3651  0.3844 -0.4330
34180SOL    HW2 4983   3.354   9.731   2.608  2.0675 -0.9666  0.7229
34181SOL     OW 4984   3.746   2.211   9.052  0.4881  0.1644  0.4458
34181SOL    HW1 4985   3.680   2.149   9.020 -0.2423  0.6087  1.0719
34181SOL    HW2 4986   3.782   2.168   9.129 -0.4234  0.7540  1.2167
34182SOL     OW 4987   1.960   5.694   6.644 -0.4062  0.4479 -0.1736
34182SOL    HW1 4988   1.894   5.642   6.597  1.4555 -1.9430 -0.3797
34182SOL    HW2 4989   2.023   5.718   6.577  1.5188 -1.7454  0.7097
34183SOL     OW 4990   0.882   9.699   1.261 -0.0787 -0.1994 -0.0772
34183SOL    HW1 4991   0.967   9.742   1.254  0.8479 -1.6206  1.5768
34183SOL    HW2 4992   0.843   9.736   1.340 -0.4193 -0.4932 -0.1074
34184SOL     OW 4993   6.962   5.254   3.823  0.1585  0.2515 -0.1065
34184SOL    HW1 4994   6.938   5.330   3.770  0.5488  0.3410 -0.1582
34184SOL    HW2 4995   6.956   5.286   3.913 -1.2302 -0.1101 -0.0496
34185SOL     OW 4996   1.962   4.298   0.161  0.2770 -0.1260 -0.4400
34185SOL    HW1 4997   1.915   4.350   0.226  1.8606  0.3161  0.3945
34185SOL    HW2 4998   2.055   4.317   0.177  0.9079 -2.9857 -0.3111
34186SOL     OW 4999   4.184  10.406   4.860  0.5846 -0.5641  0.2014
34186SOL    HW1 5000   4.111  10.387   4.918 -0.9987  1.3134 -1.0595
34186SOL    HW2 5001   4.146  10.407   4.772  2.2366 -0.1043 -0.5611
34187SOL     OW 5002   5.635   9.657  10.300 -0.2679 -0.3399 -0.0839
34187SOL    HW1 5003   5.717   9.623  10.336 -0.7016 -1.8247 -0.4467
34187SOL    HW2 5004   5.575   9.659  10.373  0.5261  2.4670  0.6201
34188SOL     OW 5005   8.382   0.319   7.355  0.4700  0.0255  0.0696
34188SOL    HW1 5006   8.418   0.319   7.444 -1.4211 -1.0668  0.9180
34188SOL    HW2 5007   8.299   0.272   7.364  0.7708 -1.1442 -2.5174
34189SOL     OW 5008   3.327   3.772   5.273 -0.0648  0.3555 -0.2629
34189SOL    HW1 5009   3.415   3.808   5.280 -0.0335  0.1498  0.4826
34189SOL    HW2 5010   3.340   3.684   5.237  0.0054  0.4448 -0.4557
34190SOL     OW 5011   3.984   5.353   6.056 -0.0664 -0.2244 -0.3336
34190SOL    HW1 5012   4.064   5.329   6.008  0.6540  2.5276 -0.7110
34190SOL    HW2 5013   3.999   5.323   6.145  0.7014 -1.1249 -0.7495
34191SOL     OW 5014   5.864   8.727   5.544 -0.3468  0.4568 -0.0707
34191SOL    HW1 5015   5.783   8.768   5.575 -0.1747  0.2932  0.5976
34191SOL    HW2 5016   5.901   8.791   5.483 -0.9353  0.5698 -0.3160
34192SOL     OW 5017   2.213   2.107   4.247 -0.5842  0.1034 -0.7991
34192SOL    HW1 5018   2.199   2.182   4.190 -0.5616  0.8694  0.1774
34192SOL    HW2 5019   2.199   2.141   4.335  0.1810 -0.8562 -0.2879
34193SOL     OW 5020   1.373   6.425   1.438 -0.0382 -0.2016 -0.4853
34193SOL    HW1 5021   1.356   6.344   1.391 -0.8175 -0.6782  0.5966
34193SOL    HW2 5022   1.466   6.443   1.421  1.1312 -3.0921  1.8660
34194SOL     OW 5023  10.140   0.871   6.211 -0.0566 -0.5070 -0.3212
34194SOL    HW1 5024  10.196   0.934   6.164 -0.7774  1.5665  1.4218
34194SOL    HW2 5025  10.189   0.788   6.207  1.9336  0.6201 -1.0203
34195SOL     OW 5026   2.271   7.236   7.055  0.3892  0.3440 -0.0136
34195SOL    HW1 5027   2.325   7.158   7.070  0.7633  0.2129 -1.7484
34195SOL    HW2 5028   2.334   7.307   7.044  0.0308  1.3636  3.3742
34196SOL     OW 5029   1.453   9.503   1.516 -0.7421  0.1160  0.2282
34196SOL    HW1 5030   1.384   9.454   1.560  0.9013 -0.2984  2.5119
34196SOL    HW2 5031   1.534   9.468   1.552  0.6099  2.1608 -0.6339
34197SOL     OW 5032   1.356   3.685   6.331 -0.4824  0.7949  0.8339
34197SOL    HW1 5033   1.309   3.735   6.397 -0.9332  0.7090  0.5831
34197SOL    HW2 5034   1.290   3.628   6.292 -0.4303  1.4538 -0.2864
34198SOL     OW 5035   1.462   6.385   4.221 -0.1373  0.2694  0.0906
34198SOL    HW1 5036   1.460   6.323   4.148 -0.2875  0.0041  0.3170
34198SOL    HW2 5037   1.371   6.412   4.232  0.0314  1.1346 -0.5116
34199SOL     OW 5038   9.215   0.667   2.967  0.0260  0.3093  0.2685
34199SOL    HW1 5039   9.187   0.622   2.887 -1.8121 -0.7831  1.4393
34199SOL    HW2 5040   9.198   0.604   3.037  2.0014  1.0758  1.5183
34200SOL     OW 5041   0.435   9.938   0.937 -0.0484 -0.2127  0.0740
34200SOL    HW1 5042   0.501   9.923   0.870 -0.4277  2.0892 -0.9097
34200SOL    HW2 5043   0.485   9.968   1.013  0.1488  0.5166 -0.3320
34201SOL     OW 5044   1.906   3.220   4.576  0.0079  0.0572 -0.1852
34201SOL    HW1 5045   1.959   3.283   4.527  0.1865  0.7809  0.8943
34201SOL    HW2 5046   1.894   3.147   4.516 -0.2912  1.1560 -1.5115
34202SOL     OW 5047   9.823   9.633   2.247 -0.1302 -0.1345  0.1055
34202SOL    HW1 5048   9.730   9.613   2.242 -0.7882  2.1625  1.2445
34202SOL    HW2 5049   9.838   9.649   2.341  1.1661  0.4025 -0.1776
34203SOL     OW 5050   9.134   2.410   8.806 -0.0333 -0.1641  0.2730
34203SOL    HW1 5051   9.061   2.415   8.867 -0.3101 -1.6272  0.0904
34203SOL    HW2 5052   9.129   2.322   8.768  1.9626 -0.4131  0.4462
34204SOL     OW 5053   2.010   0.348  10.121  0.4866  0.4604 -0.3863
34204SOL    HW1 5054   1.964   0.273  10.084 -0.9533  1.5053 -0.8174
34204SOL    HW2 5055   1.961   0.369  10.201  1.8596 -0.0399  0.6119
34205SOL     OW 5056   0.186   1.132   8.198  0.2926 -0.0821 -0.0234
34205SOL    HW1 5057   0.211   1.097   8.112 -0.5793 -1.3784  0.2320
34205SOL    HW2 5058   0.257   1.193   8.220  1.2886 -0.8529 -0.9811
34206SOL     OW 5059   9.068   7.827   8.839  0.4606 -0.1088  0.2450
34206SOL    HW1 5060   8.999   7.788   8.785 -1.3223  0.5288  1.9329
34206SOL    HW2 5061   9.020   7.876   8.907  2.5499 -0.5577  2.1683
34207SOL     OW 5062   1.192   9.420   4.891  0.6291  0.3237  0.3145
34207SOL    HW1 5063   1.122   9.469   4.935  1.4062  1.2137  0.5889
34207SOL    HW2 5064   1.251   9.394   4.961  0.9939  0.2785 -0.0095
34208SOL     OW 5065   9.285   6.676   2.944 -0.3119  0.0055 -0.0144
34208SOL    HW1 5066   9.212   6.725   2.982 -0.8947 -0.4913 -0.4733
34208SOL    HW2 5067   9.286   6.702   2.852 -0.4409 -0.6274 -0.1953
34209SOL     OW 5068   8.791  10.067   2.504  0.1189 -0.1054  0.6220
34209SOL    HW1 5069   8.720  10.067   2.439  0.5608 -2.8014  0.0375
34209SOL    HW2 5070   8.777  10.147   2.554 -2.7978 -0.0808 -0.0535
34210SOL     OW 5071   9.730   6.927   6.493  0.0202 -0.0951 -0.1186
34210SOL    HW1 5072   9.656   6.972   6.535 -1.2554 -1.1741 -1.0948
34210SOL    HW2 5073   9.702   6.836   6.487  2.1451 -0.8808  0.9594
34211SOL     OW 5074   9.446  10.288   3.457 -0.4195 -0.2319 -0.5895
34211SOL    HW1 5075   9.370  10.337   3.427 -0.2240 -0.4566 -1.4764
34211SOL    HW2 5076   9.463  10.225   3.388 -0.9039 -1.8444  0.6980
34212SOL     OW 5077   1.079   1.193   4.145 -0.3109 -0.2167  0.0446
34212SOL    HW1 5078   1.094   1.130   4.215 -0.7453 -0.0894  0.2585
34212SOL    HW2 5079   1.119   1.274   4.177  1.7777 -0.7825 -0.9554
34213SOL     OW 5080   1.525   0.186  10.022  0.4423 -0.2870 -0.3311
34213SOL    HW1 5081   1.581   0.242   9.968  1.5803 -0.4029  0.6795
34213SOL    HW2 5082   1.437   0.219  10.008  0.9493  0.9607 -0.7247
34214SOL     OW 5083   0.435   2.333   5.164 -0.4111  0.0498  0.2638
34214SOL    HW1 5084   0.451   2.351   5.072 -0.7670 -0.1649  0.1588
34214SOL    HW2 5085   0.522   2.330   5.204 -0.2724  0.4422 -0.0061
34215SOL     OW 5086   1.258   3.542   9.588 -0.5519 -0.2492  0.3420
34215SOL    HW1 5087   1.195   3.492   9.640  0.1454  0.0324  1.4870
34215SOL    HW2 5088   1.212   3.622   9.565 -0.0815  0.7512  2.6639
34216SOL     OW 5089   0.088   5.968   1.953  0.2942 -0.0394  0.1792
34216SOL    HW1 5090   0.138   5.893   1.920  1.2376  0.6967 -0.0929
34216SOL    HW2 5091  -0.003   5.947   1.931  0.4234 -1.5062  0.8838
34217SOL     OW 5092  10.358   5.696   4.159  0.6735  0.3507  0.1329
34217SOL    HW1 5093  10.264   5.706   4.172  0.7611  1.4455  0.0403
34217SOL    HW2 5094  10.394   5.783   4.177  1.6291  0.0233 -0.1424
34218SOL     OW 5095   8.694   8.433   5.160  0.1982 -0.7620 -0.2491
34218SOL    HW1 5096   8.636   8.436   5.236  1.3514 -0.2243  0.6423
34218SOL    HW2 5097   8.640   8.464   5.087 -0.8354 -0.9789  0.4015
34219SOL     OW 5098   0.651   3.242   7.818  0.6190  0.2247  0.3472
34219SOL    HW1 5099   0.743   3.254   7.844  0.2699  2.4605  0.7664
34219SOL    HW2 5100   0.612   3.194   7.891  1.1158  0.7347  0.9669
34220SOL     OW 5101   0.647   0.480   8.098 -0.7978  0.5397  0.0552
34220SOL    HW1 5102   0.706   0.504   8.169 -0.3514  0.1088 -0.1675
34220SOL    HW2 5103   0.566   0.453   8.142  0.7107 -3.6689  0.7533
34221SOL     OW 5104   5.589  10.346   2.637  0.2405 -0.2817  0.1823
34221SOL    HW1 5105   5.657  10.400   2.598  0.2797  0.0634  0.7034
34221SOL    HW2 5106   5.618  10.334   2.728  1.3348 -3.0195 -0.4460
34222SOL     OW 5107   8.185   7.837   5.191 -0.3155  0.4657 -0.1448
34222SOL    HW1 5108   8.121   7.774   5.225  1.2313 -1.4499 -0.6052
34222SOL    HW2 5109   8.228   7.873   5.269 -0.1863 -0.1858  0.0901
34223SOL     OW 5110   9.746   6.435   1.302  0.5191 -0.5745  0.1462
34223SOL    HW1 5111   9.834   6.460   1.275 -0.3988  1.6060 -1.1558
34223SOL    HW2 5112   9.732   6.481   1.385 -0.0700  0.7863 -0.6776
34224SOL     OW 5113   6.292   8.026   6.474 -0.0118  0.4517  0.1784
34224SOL    HW1 5114   6.207   8.053   6.440  1.5442  3.9719 -1.4456
34224SOL    HW2 5115   6.346   8.105   6.469  3.6759 -1.8386  0.1378
34225SOL     OW 5116  10.438   7.622   3.250  0.2736  0.4672  0.1609
34225SOL    HW1 5117  10.379   7.549   3.269  0.2364 -0.0269 -1.6642
34225SOL    HW2 5118  10.380   7.698   3.242  0.2158  0.5442  1.1379
34226SOL     OW 5119   9.692   9.930   6.410  0.3803  0.8919  0.0238
34226SOL    HW1 5120   9.634   9.854   6.408  0.8934  0.5026 -1.4644
34226SOL    HW2 5121   9.670   9.975   6.492 -0.4596 -0.4379  0.5681
34227SOL     OW 5122   5.740   1.016   3.994 -0.6044  0.1432 -0.5270
34227SOL    HW1 5123   5.694   1.100   3.996  0.4643  0.7564 -1.0621
34227SOL    HW2 5124   5.683   0.959   3.942 -1.9474  0.1380  0.8834
34228SOL     OW 5125   9.442   0.092   0.187  0.1210 -0.6257  0.1870
34228SOL    HW1 5126   9.396   0.009   0.201 -2.1278  0.0003 -2.4611
34228SOL    HW2 5127   9.397   0.155   0.243 -0.8708 -0.4608 -0.7572
34229SOL     OW 5128  10.244   3.371   4.301  0.3279 -0.3826  0.0094
34229SOL    HW1 5129  10.268   3.453   4.259 -0.7124 -0.2818 -0.4090
34229SOL    HW2 5130  10.249   3.389   4.394  0.6311 -0.0112 -0.0757
34230SOL     OW 5131   1.866   3.045   3.635 -0.1164  0.3095  0.0840
34230SOL    HW1 5132   1.891   3.138   3.630 -1.6492  0.8190  1.1294
34230SOL    HW2 5133   1.778   3.046   3.673  0.2797 -1.6403  1.1852
34231SOL     OW 5134   0.612   7.326   2.927 -0.7901  0.4293 -0.2132
34231SOL    HW1 5135   0.536   7.352   2.875 -1.6063 -0.0273  0.7305
34231SOL    HW2 5136   0.577   7.310   3.015  0.2154 -0.8157 -0.0109
34232SOL     OW 5137   1.106   0.230   7.457  0.3561 -0.7674  0.2441
34232SOL    HW1 5138   1.072   0.227   7.546  1.5546 -0.8212  0.7134
34232SOL    HW2 5139   1.180   0.169   7.457  1.0348  0.0284 -0.4962
34233SOL     OW 5140   3.208   5.022   7.573  0.0308  0.0243 -0.1413
34233SOL    HW1 5141   3.174   4.950   7.520  1.3152 -1.5873  1.0893
34233SOL    HW2 5142   3.252   5.079   7.510 -0.5896 -0.5318 -1.1072
34234SOL     OW 5143   6.815   1.024   7.850 -0.1031  0.4540 -0.3617
34234SOL    HW1 5144   6.731   1.065   7.872 -0.5579 -1.0142  0.7572
34234SOL    HW2 5145   6.795   0.966   7.777  0.3385  1.4092 -1.2756
34235SOL     OW 5146   4.876   2.218   2.435  0.4607  0.0579  1.1681
34235SOL    HW1 5147   4.856   2.219   2.341 -0.9636 -0.8612  1.4376
34235SOL    HW2 5148   4.971   2.204   2.438  0.7437  1.3530 -0.1275
34236SOL     OW 5149   0.759   1.031   5.055  0.0831  0.7508  0.7771
34236SOL    HW1 5150   0.753   1.101   4.990 -1.2084  1.0344  1.1563
34236SOL    HW2 5151   0.701   1.060   5.126  0.4143 -0.1780  1.4517
34237SOL     OW 5152   1.364   4.803   4.169 -0.5352 -0.2094  0.6168
34237SOL    HW1 5153   1.393   4.743   4.238 -0.8643 -1.4134 -0.2677
34237SOL    HW2 5154   1.268   4.805   4.178 -0.6511 -1.0333 -0.3205
34238SOL     OW 5155   2.988   5.010  10.027  0.3307  0.3295  0.4871
34238SOL    HW1 5156   2.977   4.915  10.031  1.0582  0.2211 -0.0157
34238SOL    HW2 5157   2.922   5.039   9.964  1.0755 -0.0153 -0.4694
34239SOL     OW 5158   2.302   7.693  10.317 -0.1601 -0.7353 -1.0163
34239SOL    HW1 5159   2.253   7.633  10.373  0.6946  0.3658  1.0426
34239SOL    HW2 5160   2.241   7.764  10.297  0.2215  0.1090  0.6622
34240SOL     OW 5161   7.351   5.596  10.149  1.0634  0.0509 -0.4153
34240SOL    HW1 5162   7.420   5.545  10.107  0.4213  0.6312 -2.2637
34240SOL    HW2 5163   7.306   5.639  10.077 -0.0738  1.1457  0.8989
34241SOL     OW 5164   1.691   8.430   7.453 -0.1546  0.1259 -0.7058
34241SOL    HW1 5165   1.632   8.460   7.522  0.4045  0.1488 -0.2226
34241SOL    HW2 5166   1.764   8.390   7.500  0.2289  0.1304 -1.2872
34242SOL     OW 5167   2.657   8.180   2.276 -0.0291 -0.0591  0.2371
34242SOL    HW1 5168   2.574   8.208   2.238  0.3098  2.4271  1.1244
34242SOL    HW2 5169   2.656   8.213   2.365  2.2714  0.9668 -0.0192
34243SOL     OW 5170   6.796   2.952   9.366  0.1500  0.6190  0.0645
34243SOL    HW1 5171   6.799   2.880   9.303  1.1430  0.9438 -0.2763
34243SOL    HW2 5172   6.704   2.957   9.392  0.2861 -1.7485  1.2441
34244SOL     OW 5173   1.033   3.923   3.813 -0.0266 -0.1906 -0.3203
34244SOL    HW1 5174   1.020   4.009   3.773 -1.3917  0.0140  0.4930
34244SOL    HW2 5175   0.957   3.911   3.870  0.3790 -1.7318 -0.0441
34245SOL     OW 5176   4.497   0.100   2.715 -0.6306  0.2032 -0.7266
34245SOL    HW1 5177   4.491   0.188   2.751  0.3873 -0.0702  0.1947
34245SOL    HW2 5178   4.416   0.057   2.743 -0.9395  0.7195 -0.8193
34246SOL     OW 5179   7.148   3.352   9.898  0.0692  0.0540  0.3410
34246SOL    HW1 5180   7.209   3.426   9.899 -0.0937  0.1841  0.7880
34246SOL    HW2 5181   7.127   3.340   9.805  0.6067  0.1438  0.2061
34247SOL     OW 5182   8.435   4.703   7.687  0.0158  0.0845  0.1351
34247SOL    HW1 5183   8.446   4.794   7.714 -1.3252  0.3876 -0.2247
34247SOL    HW2 5184   8.508   4.656   7.726  1.6417  1.5729 -0.9744
34248SOL     OW 5185   6.345   5.222   8.244 -0.0783 -1.0953 -0.5327
34248SOL    HW1 5186   6.287   5.286   8.286  1.0238 -2.3234  3.2263
34248SOL    HW2 5187   6.395   5.274   8.181 -1.2453  1.1179  0.2529
34249SOL     OW 5188   7.395   0.321   7.568 -0.3798 -0.2827  0.4889
34249SOL    HW1 5189   7.343   0.241   7.561  1.4254 -1.3579 -1.7468
34249SOL    HW2 5190   7.354   0.382   7.507  0.1807 -0.6676 -0.2791
34250SOL     OW 5191   8.608   7.560   5.251 -0.6982 -0.7529 -0.9911
34250SOL    HW1 5192   8.685   7.596   5.207 -0.5231 -1.5135 -1.3332
34250SOL    HW2 5193   8.561   7.515   5.181 -1.5821 -0.0973 -0.8339
34251SOL     OW 5194   2.991   6.931   4.750  0.1852  0.6198  0.1204
34251SOL    HW1 5195   2.912   6.978   4.777 -0.7887  0.8721 -2.7663
34251SOL    HW2 5196   3.039   6.915   4.831 -2.7331  0.5929  1.9979
34252SOL     OW 5197   3.939   0.518  10.382 -0.1081  0.0999  0.6675
34252SOL    HW1 5198   3.945   0.562  10.297  0.3684 -0.4308  0.4185
34252SOL    HW2 5199   4.029   0.495  10.404 -0.3114 -0.4471  0.9525
34253SOL     OW 5200   1.862   0.259   3.539 -0.3485 -0.3727  1.1078
34253SOL    HW1 5201   1.862   0.178   3.488 -0.2969  0.3545 -0.0761
34253SOL    HW2 5202   1.826   0.233   3.624  0.1351 -1.7345  0.9296
34254SOL     OW 5203   4.787   4.992  10.237  0.2159  0.3991 -0.5717
34254SOL    HW1 5204   4.876   4.977  10.268 -0.3687  0.9922  1.6016
34254SOL    HW2 5205   4.787   5.083  10.206  0.2787  0.5432 -0.1587
34255SOL     OW 5206   6.706   5.453   4.962 -0.2055 -0.2760  0.0861
34255SOL    HW1 5207   6.631   5.512   4.960 -0.9214 -1.1723 -0.4465
34255SOL    HW2 5208   6.670   5.369   4.990  0.6217 -0.6858 -0.0423
34256SOL     OW 5209   6.272   6.258   9.928 -0.1308  0.1569 -0.2861
34256SOL    HW1 5210   6.190   6.209   9.925 -0.3532  0.5018  0.1579
34256SOL    HW2 5211   6.315   6.236   9.845  0.0242 -1.2143  0.1262
34257SOL     OW 5212   0.241   3.725   1.884  0.2978 -0.1816  0.0120
34257SOL    HW1 5213   0.217   3.689   1.798  1.2722  1.0983 -0.8406
34257SOL    HW2 5214   0.330   3.757   1.873  1.4509 -2.3151  2.3024
34258SOL     OW 5215   3.897   3.486   8.486 -0.6026  0.1957 -0.6990
34258SOL    HW1 5216   3.964   3.428   8.451  1.5146  1.6694  0.6888
34258SOL    HW2 5217   3.894   3.560   8.425  0.4265  1.0044  0.1866
34259SOL     OW 5218   9.030   2.694   0.861 -0.0082  0.4983  0.2083
34259SOL    HW1 5219   8.973   2.766   0.833  0.4243  0.6449 -0.3021
34259SOL    HW2 5220   8.998   2.618   0.814 -0.8037  0.2362  1.1511
34260SOL     OW 5221   7.576   6.024   4.854  0.2668 -0.4132 -0.3499
34260SOL    HW1 5222   7.664   6.039   4.890 -0.7199  1.3280  1.5312
34260SOL    HW2 5223   7.560   6.098   4.797 -0.8980  0.7032  1.3277
34261SOL     OW 5224   2.722   1.270  10.058 -0.6481  0.0324  0.6994
34261SOL    HW1 5225   2.700   1.321  10.136  1.0811  1.8062  0.0956
34261SOL    HW2 5226   2.790   1.210  10.086  1.7336  2.3045  0.1490
34262SOL     OW 5227   3.329   4.428   5.911 -0.1574 -0.3127  0.1619
34262SOL    HW1 5228   3.335   4.506   5.965 -1.5478  0.6380 -0.9934
34262SOL    HW2 5229   3.386   4.447   5.836 -0.6902 -0.2975 -0.2416
34263SOL     OW 5230   0.536   5.988   7.453  0.0178 -0.1562  0.3487
34263SOL    HW1 5231   0.478   5.917   7.424  0.3427 -0.7588  1.1182
34263SOL    HW2 5232   0.564   6.030   7.372  0.7352 -1.6417 -0.2206
34264SOL     OW 5233   6.049   5.564   0.750 -0.4717 -0.1157 -0.1017
34264SOL    HW1 5234   6.039   5.490   0.690 -0.6445 -2.5204  2.6755
34264SOL    HW2 5235   5.977   5.622   0.728 -1.2417 -1.4830 -1.4122
34265SOL     OW 5236   7.300   8.055   6.369  0.3688  0.4170 -0.3090
34265SOL    HW1 5237   7.362   8.120   6.400 -1.6018  1.6625  1.2594
34265SOL    HW2 5238   7.295   7.990   6.439 -1.1805  1.1487  0.3058
34266SOL     OW 5239   7.791  10.283   6.780 -0.4293  0.6598  0.9450
34266SOL    HW1 5240   7.848  10.320   6.847  0.4200  0.0633  0.5616
34266SOL    HW2 5241   7.778  10.354   6.717  0.9865  0.3978  0.3397
34267SOL     OW 5242   6.045   3.340   2.067 -0.0202  0.1306  0.9922
34267SOL    HW1 5243   6.024   3.430   2.093 -1.2388 -0.1385  0.9776
34267SOL    HW2 5244   6.113   3.350   1.999  0.3543  0.9969  1.4764
34268SOL     OW 5245   4.083   3.467   0.193 -0.2201  0.0097  0.2581
34268SOL    HW1 5246   4.072   3.431   0.281  0.5829 -0.2942  0.2422
34268SOL    HW2 5247   4.121   3.395   0.142 -0.9107  0.1026 -0.4090
34269SOL     OW 5248   2.914   7.123   0.855 -0.4344 -1.0373 -0.2659
34269SOL    HW1 5249   2.853   7.079   0.796 -1.7625 -2.0353  1.7378
34269SOL    HW2 5250   2.883   7.099   0.943  1.8182 -0.1326  0.8382
34270SOL     OW 5251   8.661   5.227   4.462  0.1307  0.4782  0.2505
34270SOL    HW1 5252   8.681   5.161   4.396  0.3856  0.7483  0.0580
34270SOL    HW2 5253   8.570   5.251   4.445 -0.2876 -0.5212  0.9301
34271SOL     OW 5254   9.732   3.789   8.338 -0.7924 -0.2656 -0.2266
34271SOL    HW1 5255   9.688   3.750   8.414 -1.8828  2.1453  0.4891
34271SOL    HW2 5256   9.777   3.866   8.373  0.5998 -0.3492 -1.6850
34272SOL     OW 5257   3.910   4.702   2.719  0.3777 -0.9018  0.1513
34272SOL    HW1 5258   3.829   4.742   2.686  0.5660 -0.5571  0.1051
34272SOL    HW2 5259   3.910   4.720   2.813  1.3919  0.8867 -0.1494
34273SOL     OW 5260   0.282   3.220   0.105 -0.8346 -0.1863  0.0396
34273SOL    HW1 5261   0.266   3.308   0.069  0.0237 -0.0151  0.0444
34273SOL    HW2 5262   0.302   3.236   0.197 -1.6666 -0.4889  0.2724
34274SOL     OW 5263   2.782  10.233   6.627  0.3853  0.4886 -0.0190
34274SOL    HW1 5264   2.750  10.312   6.670  0.5099  0.1941  0.6228
34274SOL    HW2 5265   2.711  10.169   6.638  1.2993 -0.2955  1.7677
34275SOL     OW 5266   9.880   0.265   8.983  0.4981  0.3597  0.2765
34275SOL    HW1 5267   9.806   0.208   9.003  0.5226  1.1016  2.7994
34275SOL    HW2 5268   9.940   0.254   9.057  2.2095  0.9474 -0.9485
34276SOL     OW 5269   6.709   9.065   3.302 -0.1611  0.3022  0.2501
34276SOL    HW1 5270   6.683   9.150   3.338  0.6797  0.4406  0.5662
34276SOL    HW2 5271   6.655   9.054   3.224  0.2224  1.4745 -0.1991
34277SOL     OW 5272   8.679   6.248   9.350 -0.0999 -0.2760 -0.4757
34277SOL    HW1 5273   8.588   6.264   9.375  0.0875  0.1359 -0.0303
34277SOL    HW2 5274   8.674   6.200   9.268 -0.7079  0.4132 -0.8501
34278SOL     OW 5275   4.009   0.094  10.272 -0.2171 -0.3476 -0.0783
34278SOL    HW1 5276   4.092   0.131  10.301 -0.7495 -0.8300  2.2594
34278SOL    HW2 5277   3.990   0.025  10.336 -2.0930 -0.6890 -0.9406
34279SOL     OW 5278   2.737   4.463   4.212  0.0388 -0.1292 -0.0894
34279SOL    HW1 5279   2.748   4.378   4.170 -0.8648 -0.7803  0.9599
34279SOL    HW2 5280   2.726   4.524   4.139 -1.5285 -1.2427 -0.8200
34280SOL     OW 5281   5.970   2.307   5.637 -0.2973  0.1552 -0.1368
34280SOL    HW1 5282   5.896   2.247   5.632  0.5652 -1.0047  0.6515
34280SOL    HW2 5283   5.995   2.322   5.546 -0.7546 -0.3682 -0.3535
34281SOL     OW 5284   7.326   8.583   2.534  0.0706  0.3116  0.6490
34281SOL    HW1 5285   7.291   8.629   2.610  0.9327  0.6753  0.8437
34281SOL    HW2 5286   7.420   8.604   2.534  0.3739 -0.9627  0.3881
34282SOL     OW 5287   5.302   7.458   7.135 -0.9624  0.1703  0.2048
34282SOL    HW1 5288   5.255   7.399   7.075 -1.1735  0.2758  0.2647
34282SOL    HW2 5289   5.389   7.419   7.144 -1.5171 -0.8913  1.2997
34283SOL     OW 5290   5.765   7.391   0.098  0.3057  0.2323  0.0418
34283SOL    HW1 5291   5.805   7.360   0.017  0.6011 -0.0976  0.3083
34283SOL    HW2 5292   5.838   7.408   0.156  0.1191  1.0362  0.0442
34284SOL     OW 5293   7.936  10.299   2.461  0.4193  0.2496  0.5203
34284SOL    HW1 5294   7.926  10.276   2.369 -0.1184 -0.3503  0.7237
34284SOL    HW2 5295   7.881  10.237   2.508 -1.6331  2.3200  1.0438
34285SOL     OW 5296   3.856   1.928   2.510 -0.1948  0.4263  0.0796
34285SOL    HW1 5297   3.921   1.999   2.501 -0.1956  0.9245  3.0605
34285SOL    HW2 5298   3.906   1.855   2.546 -0.9948  0.3822  1.1428
34286SOL     OW 5299   2.283   4.330   3.144  0.4424  0.1611  0.1894
34286SOL    HW1 5300   2.300   4.331   3.050 -0.9390 -1.7604 -0.1328
34286SOL    HW2 5301   2.195   4.367   3.153  0.7527  0.7729  0.7876
34287SOL     OW 5302   1.125   3.953   4.099  0.8803 -0.1426  0.3824
34287SOL    HW1 5303   1.187   3.921   4.033  0.4883  1.2620 -0.7399
34287SOL    HW2 5304   1.087   4.031   4.058 -2.0286 -1.2508  0.7861
34288SOL     OW 5305   7.664   7.947   8.428  0.0540 -0.4327  0.7206
34288SOL    HW1 5306   7.664   8.042   8.417 -0.7782 -0.2553  2.0898
34288SOL    HW2 5307   7.741   7.918   8.379  0.3038  0.9378  0.2524
34289SOL     OW 5308   3.968  10.278   3.346 -0.3217 -0.5371 -0.5412
34289SOL    HW1 5309   3.988  10.240   3.261  0.2869 -2.2849  0.3404
34289SOL    HW2 5310   4.047  10.326   3.370 -1.5931  2.7615 -2.3099
34290SOL     OW 5311  10.092   9.754   6.336  0.0720 -0.2588 -0.0123
34290SOL    HW1 5312  10.029   9.742   6.264  0.8138  0.2567 -0.7671
34290SOL    HW2 5313  10.097   9.668   6.378 -1.0638 -0.3323  0.0099
34291SOL     OW 5314   5.721   8.648   9.474 -0.3154  0.3245  0.2246
34291SOL    HW1 5315   5.810   8.617   9.457  0.5277  2.1933  0.9576
34291SOL    HW2 5316   5.689   8.677   9.389 -1.6920 -3.6166 -0.8116
34292SOL     OW 5317   4.559   5.056   5.750 -0.4697  0.9587  0.2391
34292SOL    HW1 5318   4.555   5.094   5.838 -3.6453  1.3153  0.0597
34292SOL    HW2 5319   4.575   4.963   5.766 -0.3432  1.1241  1.1541
34293SOL     OW 5320   0.384   1.186   3.867 -0.4193 -0.0948  0.0980
34293SOL    HW1 5321   0.321   1.148   3.805  0.4878 -0.7580 -0.4377
34293SOL    HW2 5322   0.339   1.182   3.952 -2.5396  2.7556 -0.7363
34294SOL     OW 5323   0.289  10.343   3.993 -0.4275  0.3396  0.6442
34294SOL    HW1 5324   0.381  10.364   3.976 -0.6966  0.9391 -0.1391
34294SOL    HW2 5325   0.251  10.426   4.022 -1.0587  0.4939 -0.5522
34295SOL     OW 5326   7.017   8.151   8.651 -0.0677  0.0572 -0.2002
34295SOL    HW1 5327   7.092   8.127   8.596 -1.2143 -0.4494 -1.6145
34295SOL    HW2 5328   7.045   8.230   8.697  1.4010 -0.2415 -0.5264
34296SOL     OW 5329   8.131   4.323   7.214  0.1377 -0.1755 -0.9151
34296SOL    HW1 5330   8.111   4.415   7.198  0.6776 -0.1247 -1.3731
34296SOL    HW2 5331   8.224   4.322   7.237 -0.3180 -0.3930  1.1312
34297SOL     OW 5332   6.991   1.790   9.509 -0.4549  0.5434 -0.1005
34297SOL    HW1 5333   6.959   1.877   9.482 -1.8579  0.3988  0.9709
34297SOL    HW2 5334   6.979   1.789   9.604  0.7172 -0.3844  0.0576
34298SOL     OW 5335   3.901  10.208   9.083 -0.0459 -0.0083  0.1286
34298SOL    HW1 5336   3.894  10.253   8.999  1.6755  1.5527  0.7655
34298SOL    HW2 5337   3.986  10.233   9.118  1.3578 -4.1941  0.3608
34299SOL     OW 5338   6.138   5.040   6.657  0.2920 -0.7694 -0.2541
34299SOL    HW1 5339   6.156   4.962   6.710 -0.0852  0.0308  1.0930
34299SOL    HW2 5340   6.224   5.072   6.631  0.5792 -0.2724  1.2361
34300SOL     OW 5341   2.202   1.118   2.139  0.1376 -0.0120 -0.2468
34300SOL    HW1 5342   2.114   1.105   2.174  0.2186  0.4326  0.1304
34300SOL    HW2 5343   2.223   1.209   2.161  0.1072  0.3621 -1.6077
34301SOL     OW 5344   1.238   6.499   5.435 -0.2763  0.0902  0.4632
34301SOL    HW1 5345   1.257   6.592   5.445  0.9931 -0.2132  1.0843
34301SOL    HW2 5346   1.179   6.478   5.507  1.1884 -0.0349  1.6542
34302SOL     OW 5347   2.594   3.943   3.666  0.1806 -0.2678 -0.8919
34302SOL    HW1 5348   2.606   3.969   3.575  2.1373  2.4873  0.0046
34302SOL    HW2 5349   2.503   3.914   3.672  0.3478 -1.7468 -3.9338
34303SOL     OW 5350  10.036   0.540   5.295 -0.3768  0.3006 -0.1990
34303SOL    HW1 5351   9.970   0.472   5.309  1.1820 -1.7088 -1.9757
34303SOL    HW2 5352  10.119   0.499   5.319  0.5376  1.8226 -0.6218
34304SOL     OW 5353  10.020   2.072   6.387  0.6150  0.1595  0.0186
34304SOL    HW1 5354   9.943   2.123   6.412  1.5302  0.7383  1.8117
34304SOL    HW2 5355   9.983   1.991   6.350 -0.8369  1.1296 -0.7479
34305SOL     OW 5356   6.632   5.756   3.914 -0.1416 -0.2603 -0.0307
34305SOL    HW1 5357   6.716   5.785   3.950  0.2030  1.2762 -1.9414
34305SOL    HW2 5358   6.652   5.726   3.825 -1.5979  0.1414 -0.5298
34306SOL     OW 5359   7.240   7.749   7.010  0.1938 -0.4365  0.2666
34306SOL    HW1 5360   7.327   7.779   6.983 -0.3182  1.3010  0.4492
34306SOL    HW2 5361   7.255   7.708   7.095  0.9510 -0.9255 -0.0833
34307SOL     OW 5362   1.714   1.287   0.957  0.3902 -0.2889  0.0752
34307SOL    HW1 5363   1.667   1.277   0.875  1.1929  1.0216 -0.5830
34307SOL    HW2 5364   1.663   1.237   1.021 -1.2289  0.1479 -0.8349
34308SOL     OW 5365   5.692   4.062   3.642 -0.3783 -0.0581 -0.5080
34308SOL    HW1 5366   5.663   4.058   3.733 -2.7361  2.0768 -1.0450
34308SOL    HW2 5367   5.668   3.978   3.605 -3.1429  0.4445 -0.0738
34309SOL     OW 5368   3.490   8.088   2.290  0.6543  0.1783  0.5007
34309SOL    HW1 5369   3.445   8.167   2.259 -1.8696 -0.6328  1.8184
34309SOL    HW2 5370   3.573   8.088   2.244 -0.5688  1.9652 -1.9093
34310SOL     OW 5371   8.500   3.646   9.835 -0.3826  0.2917 -0.5860
34310SOL    HW1 5372   8.511   3.554   9.810 -1.9638  0.3099 -1.5182
34310SOL    HW2 5373   8.420   3.673   9.789  1.0257  2.6574 -1.7984
34311SOL     OW 5374   2.830   0.853   9.942  0.4555 -0.3497 -0.1603
34311SOL    HW1 5375   2.802   0.933   9.898 -0.4707  0.3925  1.6784
34311SOL    HW2 5376   2.922   0.867   9.961  0.2401  0.4176  0.3758
34312SOL     OW 5377   0.658   4.777   6.978  0.0485 -0.2950  0.3512
34312SOL    HW1 5378   0.742   4.818   6.998 -0.3292  0.1519  1.1056
34312SOL    HW2 5379   0.593   4.840   7.012 -0.5926 -0.4264 -0.6066
34313SOL     OW 5380   7.725   7.420   8.266  0.1720  0.3270  0.0176
34313SOL    HW1 5381   7.656   7.486   8.271 -1.8545 -1.7063  0.9041
34313SOL    HW2 5382   7.744   7.412   8.172  0.5746  2.1979 -0.0981
34314SOL     OW 5383   6.041   5.968   8.835 -0.4789 -0.3140 -0.1694
34314SOL    HW1 5384   6.125   5.996   8.870 -1.5530  0.0539  2.3384
34314SOL    HW2 5385   6.053   5.876   8.812  0.5587 -0.3009  0.2876
34315SOL     OW 5386   4.473   4.248   3.299 -0.2538 -0.3850 -0.2830
34315SOL    HW1 5387   4.490   4.299   3.378 -1.3803 -1.3192  0.6301
34315SOL    HW2 5388   4.508   4.161   3.320 -1.8513 -1.0458 -0.1795
34316SOL     OW 5389   4.616  10.005   7.760  0.1171  0.0703  0.2714
34316SOL    HW1 5390   4.655   9.923   7.729 -0.4128 -0.0216 -0.1687
34316SOL    HW2 5391   4.691  10.059   7.787  0.4651 -0.5639  0.5836
34317SOL     OW 5392   7.586   5.717   6.312  0.1525 -0.8539 -0.2245
34317SOL    HW1 5393   7.515   5.763   6.267  1.2315  1.3751  0.2156
34317SOL    HW2 5394   7.552   5.704   6.401  0.5109  0.9163  0.2170
34318SOL     OW 5395   9.963   8.451   5.449  0.2291  0.1388  0.2291
34318SOL    HW1 5396   9.934   8.394   5.378 -0.4281 -0.1169  0.6948
34318SOL    HW2 5397  10.000   8.528   5.404  0.0911 -0.1477 -0.3891
34319SOL     OW 5398   9.423   1.904  10.268  0.3313 -0.5652  0.5144
34319SOL    HW1 5399   9.403   1.853  10.189  0.4894 -0.0981  0.1738
34319SOL    HW2 5400   9.464   1.840  10.327  0.9882 -0.7307 -0.0987
34320SOL     OW 5401   7.872   2.635   5.538 -0.2679  0.3245  0.1186
34320SOL    HW1 5402   7.902   2.577   5.607 -0.1889 -0.2788 -0.4159
34320SOL    HW2 5403   7.940   2.702   5.531  0.1518 -0.1051  0.0356
34321SOL     OW 5404   0.992   9.254   5.665  0.0076  0.1073  0.2294
34321SOL    HW1 5405   1.015   9.182   5.606  1.2330  0.9962 -0.3994
34321SOL    HW2 5406   1.048   9.242   5.741 -0.0357  0.2134  0.2783
34322SOL     OW 5407   7.201  10.421   6.407  0.1398  0.4840 -0.0826
34322SOL    HW1 5408   7.210  10.515   6.422  0.6299  0.3988  0.1840
34322SOL    HW2 5409   7.168  10.386   6.490  1.3480  0.2293  0.3140
34323SOL     OW 5410   2.638   1.130   7.875  0.0261  0.3795 -0.3121
34323SOL    HW1 5411   2.671   1.213   7.910  0.1095  0.2054  0.0295
34323SOL    HW2 5412   2.544   1.132   7.893  0.3789 -0.6793  1.9994
34324SOL     OW 5413   7.473   9.106   9.824  0.1955 -0.4992 -0.1588
34324SOL    HW1 5414   7.447   9.172   9.888  0.0049 -1.8079  1.1713
34324SOL    HW2 5415   7.480   9.154   9.742  1.0323  1.3690  0.9300
34325SOL     OW 5416   1.439   4.594  10.054  0.5702 -0.0937  0.4104
34325SOL    HW1 5417   1.444   4.675  10.104 -1.5271  1.5282 -1.7723
34325SOL    HW2 5418   1.484   4.613   9.972  0.6653 -1.3859  0.1407
34326SOL     OW 5419   1.939   9.048   5.643  0.0332  0.3710  0.3614
34326SOL    HW1 5420   1.887   9.102   5.703 -2.3599 -1.6954  0.3369
34326SOL    HW2 5421   1.926   8.959   5.674  0.9402 -0.5173 -1.6314
34327SOL     OW 5422   1.419   4.383   4.579  0.6279  0.0663  0.0519
34327SOL    HW1 5423   1.435   4.301   4.531  1.8440 -0.1085  0.7192
34327SOL    HW2 5424   1.412   4.449   4.510 -0.6125 -0.6176 -0.5128
34328SOL     OW 5425   7.135   8.085   1.463 -0.7306 -0.6682  0.3350
34328SOL    HW1 5426   7.142   8.005   1.514 -1.7846  0.1314  1.8153
34328SOL    HW2 5427   7.175   8.153   1.517  1.7087 -0.4120 -1.6142
34329SOL     OW 5428   3.161   4.576   2.311 -0.0901 -0.1443  0.2094
34329SOL    HW1 5429   3.191   4.663   2.339  0.0178 -0.1381  0.0768
34329SOL    HW2 5430   3.071   4.570   2.343 -0.0377 -0.0533  0.3725
34330SOL     OW 5431   5.037   9.389  10.140 -0.0830 -0.2739 -0.4683
34330SOL    HW1 5432   4.948   9.422  10.125  0.4087  1.4489  0.2228
34330SOL    HW2 5433   5.084   9.410  10.059 -0.3937 -1.5858 -1.0090
34331SOL     OW 5434   2.994   2.222   5.169 -0.1621  0.0114 -0.4797
34331SOL    HW1 5435   2.984   2.202   5.076 -1.1096  0.1546 -0.4152
34331SOL    HW2 5436   2.939   2.157   5.213  1.1825 -0.8148  0.0708
34332SOL     OW 5437   5.278   5.915   9.348  0.1332 -0.2336 -0.7121
34332SOL    HW1 5438   5.318   5.978   9.408  0.4487 -0.3216 -0.8311
34332SOL    HW2 5439   5.267   5.964   9.267 -0.6588  0.0047 -0.4686
34333SOL     OW 5440   3.176   4.393   8.378  0.5234 -0.2464  0.2474
34333SOL    HW1 5441   3.214   4.313   8.417  2.1460  0.8275  0.9871
34333SOL    HW2 5442   3.099   4.411   8.432  0.0050 -1.4231 -0.0669
34334SOL     OW 5443   4.876   7.816   5.209  0.6864  0.6662 -0.0373
34334SOL    HW1 5444   4.868   7.756   5.135 -1.2788  2.0063 -1.0033
34334SOL    HW2 5445   4.968   7.841   5.210  0.6040  1.4360 -2.7823
34335SOL     OW 5446   3.441   9.193   1.885 -0.4785  0.4536 -0.0743
34335SOL    HW1 5447   3.381   9.188   1.810 -3.6314  0.8728  2.2155
34335SOL    HW2 5448   3.502   9.263   1.862 -1.1891  0.4121 -2.3390
34336SOL     OW 5449   5.014   3.419  10.026 -0.3833  0.1810  0.3277
34336SOL    HW1 5450   5.006   3.408  10.121 -2.9607  0.4201  0.2286
34336SOL    HW2 5451   4.923   3.416   9.995  0.4766 -0.8941 -2.2618
34337SOL     OW 5452   0.581   4.170   5.170 -0.0632  0.3815  0.0934
34337SOL    HW1 5453   0.504   4.133   5.126 -0.5945  2.4707 -0.8914
34337SOL    HW2 5454   0.585   4.125   5.254 -2.2628  0.0560  0.0863
34338SOL     OW 5455   2.556   2.495   6.947  0.5690  0.2368  0.2232
34338SOL    HW1 5456   2.509   2.430   6.999 -1.3239  1.9927  0.8520
34338SOL    HW2 5457   2.509   2.499   6.863 -0.8369  2.3343  1.0207
34339SOL     OW 5458   1.956   8.711   4.432 -0.1848 -0.0677 -0.4275
34339SOL    HW1 5459   1.894   8.768   4.386 -0.1471 -0.7040 -1.2870
34339SOL    HW2 5460   2.042   8.746   4.408 -0.1038 -1.3132 -2.1331
34340SOL     OW 5461   6.463   8.212   3.080  0.1545  0.1976  0.2521
34340SOL    HW1 5462   6.517   8.139   3.110  1.1206  0.7650 -0.0442
34340SOL    HW2 5463   6.424   8.181   2.998  1.4240  0.3678 -0.4485
34341SOL     OW 5464   5.846   5.446   6.777 -0.0143 -0.1461 -0.3581
34341SOL    HW1 5465   5.840   5.367   6.723 -0.2784 -0.4146  0.0634
34341SOL    HW2 5466   5.940   5.458   6.792  0.1366  0.4342 -1.6081
34342SOL     OW 5467   2.506   1.984   9.406 -0.2826 -0.7899 -0.6058
34342SOL    HW1 5468   2.518   1.894   9.434  0.7801 -0.2495  0.8250
34342SOL    HW2 5469   2.437   2.018   9.464  0.4184 -0.2721 -0.0462
34343SOL     OW 5470   2.094   0.374   9.814  0.0308 -0.1175 -0.3184
34343SOL    HW1 5471   2.110   0.439   9.882  0.4396 -0.5552  0.0141
34343SOL    HW2 5472   2.150   0.300   9.838 -2.9724 -2.0768  1.3530
34344SOL     OW 5473  10.155   2.066   3.145 -0.0873  0.0196  0.1497
34344SOL    HW1 5474  10.064   2.074   3.171 -0.8102  1.4611 -2.4953
34344SOL    HW2 5475  10.198   2.144   3.180 -0.5483  0.8036 -0.9847
34345SOL     OW 5476   6.642  10.162   6.706 -0.6651 -0.2475  0.5450
34345SOL    HW1 5477   6.594  10.079   6.696  0.0169 -0.5435 -0.3811
34345SOL    HW2 5478   6.651  10.173   6.801 -0.4910 -1.4053  0.6778
34346SOL     OW 5479   1.135  10.420   4.748  0.4920 -0.0702  0.0338
34346SOL    HW1 5480   1.053  10.385   4.781 -0.2521 -0.4253 -2.0276
34346SOL    HW2 5481   1.118  10.513   4.735  0.2797 -0.1920 -0.6529
34347SOL     OW 5482   7.926   2.864   4.549 -0.5017  0.1286 -0.1522
34347SOL    HW1 5483   7.907   2.956   4.565  0.6562  0.2594  0.6276
34347SOL    HW2 5484   7.842   2.825   4.524 -1.4131  0.9881  1.4637
34348SOL     OW 5485   9.771   9.914   5.671 -0.3306  0.0381 -0.1758
34348SOL    HW1 5486   9.837   9.845   5.676 -0.3242  0.0017 -0.6894
34348SOL    HW2 5487   9.697   9.873   5.626 -0.8239 -0.0093  0.6565
34349SOL     OW 5488   1.921   8.632   1.189 -0.1414 -0.4128  0.6934
34349SOL    HW1 5489   1.831   8.635   1.223 -0.5931  0.6683 -0.4819
34349SOL    HW2 5490   1.934   8.719   1.151  1.4260 -0.5500  0.8722
34350SOL     OW 5491   1.860   5.744   2.227  0.1734  0.4479  0.6737
34350SOL    HW1 5492   1.798   5.744   2.299  0.0889 -1.5069  0.6618
34350SOL    HW2 5493   1.924   5.677   2.250  1.9385  1.9394  0.3629
34351SOL     OW 5494   4.487  10.152   0.149  0.5128 -0.2893  0.4595
34351SOL    HW1 5495   4.507  10.059   0.137  0.2544 -0.3044  0.1176
34351SOL    HW2 5496   4.467  10.160   0.242  2.3543 -0.2145  0.8890
34352SOL     OW 5497   1.491   5.899   4.938 -0.2078 -0.2578  0.9583
34352SOL    HW1 5498   1.584   5.920   4.930  0.7995 -4.3861 -0.3553
34352SOL    HW2 5499   1.453   5.925   4.853  0.7263 -2.2693 -0.1445
34353SOL     OW 5500   4.901   3.165   0.628  0.0593  0.7518 -0.5585
34353SOL    HW1 5501   4.915   3.124   0.713  0.4071  1.6893 -0.1609
34353SOL    HW2 5502   4.930   3.099   0.565  0.2914  0.2529  0.0622
34354SOL     OW 5503   8.083   5.613   2.206  0.1311 -0.7434 -0.4890
34354SOL    HW1 5504   8.146   5.550   2.171  1.8317  0.0372  0.9922
34354SOL    HW2 5505   8.077   5.592   2.299  0.0190  0.6776 -0.1430
34355SOL     OW 5506   9.623   9.950   0.531 -0.0086 -0.0882 -0.6223
34355SOL    HW1 5507   9.564   9.898   0.476 -0.7250  0.8993 -0.8172
34355SOL    HW2 5508   9.609   9.916   0.620  0.0559 -0.6961 -0.8370
34356SOL     OW 5509   0.597   7.723   5.852  0.5555  0.1280  0.0399
34356SOL    HW1 5510   0.678   7.709   5.803  1.3165 -1.1266  1.5525
34356SOL    HW2 5511   0.534   7.663   5.812  1.2380 -1.0640  0.6870
34357SOL     OW 5512   6.736   0.461   4.585  0.2559 -0.4049 -0.4988
34357SOL    HW1 5513   6.827   0.431   4.594 -0.1224 -1.0897  1.6550
34357SOL    HW2 5514   6.737   0.548   4.624 -0.2342 -0.9112  0.6747
34358SOL     OW 5515   7.189   7.844   7.305  0.2667 -0.0939 -0.8267
34358SOL    HW1 5516   7.114   7.791   7.333 -0.7419  1.7010  0.1032
34358SOL    HW2 5517   7.263   7.784   7.305 -0.7846 -1.4580  0.3178
34359SOL     OW 5518   4.452   9.979   6.283 -0.2563  0.1401 -0.2807
34359SOL    HW1 5519   4.464   9.884   6.274 -2.5654 -0.0850 -2.0632
34359SOL    HW2 5520   4.531  10.009   6.326  0.6476 -2.5693  0.1701
34360SOL     OW 5521   6.886   9.080  10.370  0.4641 -0.4717  0.4465
34360SOL    HW1 5522   6.947   9.153  10.385  0.4904 -0.8537  2.4254
34360SOL    HW2 5523   6.822   9.116  10.308  0.6229  1.1781  1.1646
34361SOL     OW 5524   2.921   2.862   1.507  0.2335 -0.0197  0.6367
34361SOL    HW1 5525   2.874   2.908   1.438  0.0009 -0.3066  0.5999
34361SOL    HW2 5526   2.873   2.882   1.587  0.0620 -0.2876  0.6035
34362SOL     OW 5527   4.798   5.220   9.182 -0.0678  0.0802 -0.4206
34362SOL    HW1 5528   4.885   5.231   9.145  1.0786  1.0180  2.2564
34362SOL    HW2 5529   4.781   5.301   9.230 -1.9319 -0.5234  0.0422
34363SOL     OW 5530   9.081   6.331   6.736 -0.2779  0.3068  0.1522
34363SOL    HW1 5531   9.005   6.275   6.756  0.4193 -0.6976  0.0769
34363SOL    HW2 5532   9.157   6.276   6.756  0.4457  1.4545  0.6707
34364SOL     OW 5533   7.516   5.794   1.393 -0.2776 -0.5026 -0.6426
34364SOL    HW1 5534   7.422   5.796   1.408 -0.3904  0.5212 -1.4188
34364SOL    HW2 5535   7.525   5.757   1.305  0.0385 -0.3187 -0.6876
34365SOL     OW 5536   5.447   6.369   5.647 -0.4199  0.4499  0.3389
34365SOL    HW1 5537   5.426   6.454   5.608  0.1483  0.0872 -0.8010
34365SOL    HW2 5538   5.470   6.390   5.738  0.7725  1.6713 -0.2119
34366SOL     OW 5539   5.942   3.962   4.700 -0.2108  0.7381 -0.2566
34366SOL    HW1 5540   5.946   3.941   4.794 -1.0238  1.0088 -0.1595
34366SOL    HW2 5541   5.849   3.957   4.678  0.0964 -0.8264 -1.3983
34367SOL     OW 5542   6.248   9.448   4.247  0.3358  0.2099 -0.4305
34367SOL    HW1 5543   6.257   9.355   4.268 -1.6110 -0.0148 -0.4035
34367SOL    HW2 5544   6.260   9.453   4.153 -0.2092 -0.1980 -0.5307
34368SOL     OW 5545   0.585   7.608   4.724 -0.7372 -0.6785  0.3104
34368SOL    HW1 5546   0.511   7.548   4.714 -2.3858  1.6179 -3.4713
34368SOL    HW2 5547   0.569   7.677   4.660  3.3805  1.4140  1.1774
34369SOL     OW 5548   6.124   1.980   3.152 -0.4402  0.2847 -0.0281
34369SOL    HW1 5549   6.095   1.931   3.229 -1.2965 -0.4787 -0.8134
34369SOL    HW2 5550   6.176   1.917   3.101 -0.1631  0.6816 -0.2466
34370SOL     OW 5551   9.613   6.637   6.957  0.2535 -0.2304  0.5024
34370SOL    HW1 5552   9.683   6.587   6.915  0.1958 -0.1118  0.2623
34370SOL    HW2 5553   9.657   6.710   6.999  0.3331 -0.4559  0.8138
34371SOL     OW 5554   3.318   9.490   2.434 -0.0959  0.1399  0.2590
34371SOL    HW1 5555   3.386   9.437   2.391 -0.2660 -1.3549  1.7290
34371SOL    HW2 5556   3.237   9.441   2.419 -0.1103 -0.6380  2.4962
34372SOL     OW 5557   7.716   6.391   2.048 -0.8007  1.0902  0.6039
34372SOL    HW1 5558   7.666   6.314   2.022  0.3919 -0.0106  1.4566
34372SOL    HW2 5559   7.725   6.442   1.968 -1.0011 -0.0120 -0.1391
34373SOL     OW 5560   3.095   3.560   7.077  0.1301  0.3497 -0.3608
34373SOL    HW1 5561   3.040   3.562   7.156  1.7198  1.7224  0.7697
34373SOL    HW2 5562   3.116   3.651   7.059  0.1422  0.0319 -2.1812
34374SOL     OW 5563   3.110   1.910   1.272  0.3353  0.2958  0.2950
34374SOL    HW1 5564   3.099   1.933   1.365 -0.7101  2.3340 -0.2781
34374SOL    HW2 5565   3.041   1.847   1.254  0.7572 -0.3775  0.9591
34375SOL     OW 5566   7.152   3.463   4.446  0.2472  0.2572 -0.1258
34375SOL    HW1 5567   7.091   3.537   4.452 -1.1183 -0.8950  1.0971
34375SOL    HW2 5568   7.225   3.487   4.502 -0.1612  0.7149  0.2172
34376SOL     OW 5569   4.248   7.958   6.752 -0.1796  0.0341  0.5488
34376SOL    HW1 5570   4.197   8.027   6.794  0.2235  0.0517  1.0191
34376SOL    HW2 5571   4.333   7.999   6.734 -0.2428 -0.0682 -0.0007
34377SOL     OW 5572   5.454   6.277   4.394 -0.0651  0.2403  0.2390
34377SOL    HW1 5573   5.402   6.316   4.323 -2.5568  0.0265  1.8083
34377SOL    HW2 5574   5.438   6.335   4.469  1.2602 -0.3786  1.0264
34378SOL     OW 5575   9.694   9.564   3.914  0.4483 -0.4508  0.4615
34378SOL    HW1 5576   9.769   9.570   3.854  0.8682 -1.5824  0.8434
34378SOL    HW2 5577   9.644   9.644   3.897  0.5135 -0.7487 -1.4514
34379SOL     OW 5578   6.682   8.693   9.166  0.4157 -0.0001  0.1729
34379SOL    HW1 5579   6.715   8.627   9.105 -0.2356  1.0666 -1.3754
34379SOL    HW2 5580   6.635   8.642   9.232  0.8086 -1.1542 -0.3981
34380SOL     OW 5581   3.781   9.256   0.343  0.5874  0.1615 -0.4172
34380SOL    HW1 5582   3.760   9.196   0.415  0.6267  1.4958  0.7472
34380SOL    HW2 5583   3.787   9.199   0.266  2.2477 -1.5823  0.8865
34381SOL     OW 5584   4.153   4.895   7.841 -0.2128 -0.5104 -0.1616
34381SOL    HW1 5585   4.108   4.946   7.774 -0.7598  0.1523  0.6870
34381SOL    HW2 5586   4.246   4.913   7.826 -0.3815  0.5169 -0.0624
34382SOL     OW 5587   1.864   6.965   0.110 -0.0203 -0.6302  0.1413
34382SOL    HW1 5588   1.856   6.876   0.076 -1.8596 -1.2165  1.9234
34382SOL    HW2 5589   1.952   6.992   0.083  1.5325 -3.8068  1.3727
34383SOL     OW 5590   2.218   2.242  10.043  0.7259 -0.4446  0.0896
34383SOL    HW1 5591   2.276   2.168  10.058  2.2796  0.3234 -1.7229
34383SOL    HW2 5592   2.188   2.231   9.953 -1.1200 -0.2291  0.6460
34384SOL     OW 5593   8.670   3.848   0.724 -0.2950  0.5277 -0.1327
34384SOL    HW1 5594   8.704   3.771   0.678 -0.1916  1.7488 -2.2056
34384SOL    HW2 5595   8.698   3.836   0.815  1.4379 -0.8951 -0.8076
34385SOL     OW 5596   5.097   3.646   8.462  0.8523 -0.0895 -0.3248
34385SOL    HW1 5597   5.029   3.610   8.405  0.4574  0.9551 -0.5362
34385SOL    HW2 5598   5.103   3.583   8.535  0.6447 -0.9056 -0.9945
34386SOL     OW 5599   3.849   1.776   4.608  0.0914  0.4185 -0.6234
34386SOL    HW1 5600   3.937   1.739   4.595  0.5557  1.3144 -0.0893
34386SOL    HW2 5601   3.801   1.708   4.656  0.7611  0.2757 -0.1431
34387SOL     OW 5602   8.440   8.239   6.396  0.1978 -0.4410 -0.0348
34387SOL    HW1 5603   8.427   8.316   6.340 -3.1610 -0.2675  0.7478
34387SOL    HW2 5604   8.433   8.272   6.485 -1.7626 -1.6213  0.3135
34388SOL     OW 5605   8.267   7.947   5.858  0.0006  0.2980 -0.5290
34388SOL    HW1 5606   8.343   7.901   5.895 -0.9460 -1.1408 -0.2973
34388SOL    HW2 5607   8.290   7.960   5.766  0.3184 -0.6491 -0.6042
34389SOL     OW 5608   1.787   5.014   5.525 -0.4500  0.2444 -0.0446
34389SOL    HW1 5609   1.863   5.016   5.584  0.7416  0.0228 -1.5007
34389SOL    HW2 5610   1.822   5.042   5.441 -1.7790 -0.9050 -1.0160
34390SOL     OW 5611   9.815   5.471   5.043  0.0836  0.1401  0.2350
34390SOL    HW1 5612   9.752   5.430   4.984  0.3603 -0.5967  0.4438
34390SOL    HW2 5613   9.765   5.538   5.089  0.0750  1.3518 -1.4720
34391SOL     OW 5614   3.835   6.118   3.090  0.3519 -0.3652 -0.0967
34391SOL    HW1 5615   3.917   6.087   3.052  0.9983  0.3907  0.6526
34391SOL    HW2 5616   3.770   6.104   3.021  1.0579 -1.1948 -0.6127
34392SOL     OW 5617   4.118   0.542   7.056 -0.0691 -0.2251 -0.3509
34392SOL    HW1 5618   4.105   0.527   7.149  0.4583  0.1199 -0.2204
34392SOL    HW2 5619   4.102   0.636   7.044  1.5460  0.0841 -0.3043
34393SOL     OW 5620   4.693   4.689   2.222  0.0813  0.0265 -0.2307
34393SOL    HW1 5621   4.678   4.648   2.137 -1.6463  1.0097 -0.4531
34393SOL    HW2 5622   4.763   4.752   2.206  1.0704 -1.1039 -0.4521
34394SOL     OW 5623   8.134   3.948   1.936  0.2432 -0.0618 -0.4592
34394SOL    HW1 5624   8.100   3.860   1.922 -0.3468  0.0067  0.4639
34394SOL    HW2 5625   8.227   3.942   1.914 -0.0817 -0.5466 -1.8272
34395SOL     OW 5626   0.376   2.149   3.668  0.0719  0.4389 -0.1293
34395SOL    HW1 5627   0.324   2.229   3.671  0.3697  0.6747 -0.8560
34395SOL    HW2 5628   0.382   2.128   3.574  1.4895  0.5617 -0.0937
34396SOL     OW 5629   0.195  10.487   5.679  0.2895 -0.0606 -0.1432
34396SOL    HW1 5630   0.114  10.456   5.637  0.0394  0.0250  0.2686
34396SOL    HW2 5631   0.207  10.576   5.645 -0.8786  0.6829  1.2873
34397SOL     OW 5632   5.870   4.189   4.092  0.4841 -0.5939  0.1088
34397SOL    HW1 5633   5.918   4.144   4.162  0.6613  2.9613  2.5454
34397SOL    HW2 5634   5.778   4.169   4.110  0.6271 -1.2552  0.1393
34398SOL     OW 5635   4.723   2.740   0.170  0.3051  0.4760 -0.2148
34398SOL    HW1 5636   4.657   2.671   0.174 -0.0441  0.8433  2.2164
34398SOL    HW2 5637   4.703   2.788   0.089 -0.7016 -1.0350 -0.9023
34399SOL     OW 5638   3.035  10.304   3.458 -0.1538  0.3567 -1.4608
34399SOL    HW1 5639   3.114  10.288   3.509  0.3767 -0.5644 -2.5231
34399SOL    HW2 5640   2.966  10.257   3.505 -0.3579  2.0752  0.0947
34400SOL     OW 5641   8.739   0.484   2.966 -0.0312  0.1719  0.5490
34400SOL    HW1 5642   8.776   0.442   3.044  0.8213  0.5182  0.3538
34400SOL    HW2 5643   8.804   0.467   2.897 -0.7505 -0.0819 -0.0700
34401SOL     OW 5644   9.827   2.122   1.504  0.3238  0.2912 -0.2318
34401SOL    HW1 5645   9.895   2.151   1.443  1.2654 -1.0622  0.1367
34401SOL    HW2 5646   9.858   2.037   1.537 -1.9352 -0.7977 -0.6997
34402SOL     OW 5647   1.564   6.190   7.254 -0.2000 -0.0832 -0.7383
34402SOL    HW1 5648   1.518   6.151   7.329 -0.4735  0.4689 -0.6131
34402SOL    HW2 5649   1.655   6.198   7.284 -0.5759  1.4963  0.1104
34403SOL     OW 5650   6.330   0.516   6.046  0.1098 -0.0334  0.1476
34403SOL    HW1 5651   6.243   0.485   6.022  0.3401 -0.0785 -0.6899
34403SOL    HW2 5652   6.315   0.590   6.105 -0.4743 -0.6034  0.7179
34404SOL     OW 5653   6.794   3.820   6.679  0.4182  0.0589  0.4419
34404SOL    HW1 5654   6.762   3.881   6.745  0.6850  0.8810 -0.1809
34404SOL    HW2 5655   6.725   3.816   6.613  0.7898  0.3919  0.0287
34405SOL     OW 5656   9.556   8.259   9.160 -0.0893  0.3290 -0.6966
34405SOL    HW1 5657   9.476   8.272   9.108 -0.5580  0.5811  0.0688
34405SOL    HW2 5658   9.545   8.316   9.235  0.6285  0.0464 -0.3686
34406SOL     OW 5659   1.862   6.038   1.092 -0.2593 -0.2634 -0.3046
34406SOL    HW1 5660   1.774   6.076   1.097 -0.3885 -0.5352 -0.4705
34406SOL    HW2 5661   1.872   5.989   1.174  0.3354  1.0256  0.4111
34407SOL     OW 5662   7.932   2.879  10.090 -0.0571 -0.2577 -0.2484
34407SOL    HW1 5663   8.014   2.912  10.128 -1.7577  1.8310  1.8655
34407SOL    HW2 5664   7.934   2.910   9.999  1.5181 -0.3628 -0.2809
34408SOL     OW 5665  10.094   9.677   3.942  0.2975  0.1673  0.2091
34408SOL    HW1 5666  10.025   9.733   3.977  0.7719  0.4758  0.6616
34408SOL    HW2 5667  10.176   9.717   3.972  0.6799 -0.1180 -0.4383
34409SOL     OW 5668  10.004   8.267   7.508 -0.7252 -0.4035  0.2160
34409SOL    HW1 5669  10.061   8.332   7.550 -0.8646  1.2122 -1.9119
34409SOL    HW2 5670  10.054   8.238   7.432 -1.9284 -0.4322 -0.5855
34410SOL     OW 5671  10.117   3.703   0.985 -0.2115  0.3957  0.3929
34410SOL    HW1 5672  10.144   3.746   1.066  0.3274  0.8571 -0.0279
34410SOL    HW2 5673  10.103   3.612   1.011 -0.3171  0.5936  1.0646
34411SOL     OW 5674   1.044   6.846   1.773 -0.2165  0.2992 -0.3314
34411SOL    HW1 5675   1.085   6.807   1.850  0.5020 -0.4844 -1.0971
34411SOL    HW2 5676   1.066   6.787   1.701  0.7928  2.0334 -1.5147
34412SOL     OW 5677   4.775   3.597   1.591  0.3026 -0.6210 -0.0062
34412SOL    HW1 5678   4.697   3.541   1.588 -0.4642  0.4467 -1.1104
34412SOL    HW2 5679   4.797   3.602   1.684  0.5580 -2.9057  0.1288
34413SOL     OW 5680   8.855   2.677   7.048  0.3891 -0.4868 -0.6833
34413SOL    HW1 5681   8.888   2.598   7.004  1.2802 -1.5486  1.7463
34413SOL    HW2 5682   8.930   2.713   7.094 -0.0477  1.7654 -1.5854
34414SOL     OW 5683   0.239   2.775   1.272 -0.0841  0.2234 -0.3874
34414SOL    HW1 5684   0.288   2.720   1.333 -0.7317 -1.0900 -1.0214
34414SOL    HW2 5685   0.159   2.798   1.318 -0.3388 -0.3415 -0.5389
34415SOL     OW 5686   6.698   4.472   1.608 -0.3774 -0.0765  0.5717
34415SOL    HW1 5687   6.766   4.511   1.664  0.6286  0.3721 -0.8892
34415SOL    HW2 5688   6.746   4.411   1.552 -1.3792 -0.6478  0.3177
34416SOL     OW 5689  10.364   8.589   6.366  0.1801  0.0837 -0.3603
34416SOL    HW1 5690  10.439   8.556   6.317 -0.4437 -0.9290 -0.6726
34416SOL    HW2 5691  10.302   8.516   6.367 -1.6215  1.4768 -1.7749
34417SOL     OW 5692   4.603   8.351   6.455  0.3593 -0.1257  0.3390
34417SOL    HW1 5693   4.687   8.333   6.496  0.2720 -0.9563  0.1751
34417SOL    HW2 5694   4.590   8.278   6.394  0.0904  0.6381 -0.5412
34418SOL     OW 5695   3.194   2.613   5.556 -0.7358  0.1595  0.5909
34418SOL    HW1 5696   3.101   2.629   5.542 -0.6172  0.8111  0.5261
34418SOL    HW2 5697   3.232   2.700   5.568 -0.2911 -0.1465  1.5742
34419SOL     OW 5698   5.950   3.719   8.344  0.1581 -0.1807 -0.0967
34419SOL    HW1 5699   5.869   3.758   8.312 -0.6163 -1.4608  0.2445
34419SOL    HW2 5700   5.966   3.644   8.285  0.3593 -0.7334  0.6453
34420SOL     OW 5701   8.268   9.603   1.549 -0.2889  0.1464  0.5134
34420SOL    HW1 5702   8.251   9.690   1.512  0.5335 -0.2198 -0.7682
34420SOL    HW2 5703   8.191   9.552   1.524  1.4688 -0.9087 -3.4008
34421SOL     OW 5704   7.880   5.860   5.679  0.2353  0.5131 -0.2882
34421SOL    HW1 5705   7.915   5.949   5.684  1.4857  0.1284 -1.5308
34421SOL    HW2 5706   7.785   5.872   5.669  0.4944  1.7598 -1.5978
34422SOL     OW 5707   7.419   3.619   2.944 -1.1566  0.4226 -0.0681
34422SOL    HW1 5708   7.366   3.552   2.988 -0.8517 -0.4082 -0.9436
34422SOL    HW2 5709   7.474   3.570   2.884  0.6238  1.2657  0.8126
34423SOL     OW 5710   8.797   7.459   5.641  0.4452 -0.7072 -0.0118
34423SOL    HW1 5711   8.840   7.428   5.721 -2.8832 -4.0538  0.7399
34423SOL    HW2 5712   8.794   7.383   5.583 -1.5826  0.2287 -1.2872
34424SOL     OW 5713   6.916   5.770   7.834  0.4330  0.2861 -0.3652
34424SOL    HW1 5714   6.897   5.857   7.800 -0.1175  0.8548  1.2973
34424SOL    HW2 5715   6.832   5.724   7.830 -0.1531  1.0126  1.9378
34425SOL     OW 5716   0.765   5.506   1.622  0.0721  0.2653  0.1723
34425SOL    HW1 5717   0.731   5.419   1.641 -0.7115  0.1858 -1.4489
34425SOL    HW2 5718   0.794   5.502   1.531  0.4097  1.5839  0.1905
34426SOL     OW 5719   2.852   4.826   3.625  0.5884 -0.1746 -0.9346
34426SOL    HW1 5720   2.909   4.898   3.652 -1.4039  0.1499  3.0155
34426SOL    HW2 5721   2.785   4.820   3.693 -0.6658 -4.3970 -2.1973
34427SOL     OW 5722   4.719   6.649   3.745  0.3108  0.8450 -0.3171
34427SOL    HW1 5723   4.748   6.713   3.810 -0.5977  1.6378 -0.6620
34427SOL    HW2 5724   4.631   6.679   3.720  0.2657  0.0120 -1.2061
34428SOL     OW 5725   6.565   1.924   1.644 -0.1711 -0.1393 -0.4771
34428SOL    HW1 5726   6.659   1.906   1.635 -0.0790  0.2964 -0.3846
34428SOL    HW2 5727   6.541   1.883   1.727  0.1747  0.6894  0.0488
34429SOL     OW 5728   5.855   0.738   2.015  0.2233 -0.0431 -0.2049
34429SOL    HW1 5729   5.911   0.783   2.078 -0.2982 -1.0688  1.0215
34429SOL    HW2 5730   5.856   0.646   2.042 -2.2391 -0.0681  0.0453
34430SOL     OW 5731   4.091   2.875   3.985  0.1030 -0.3331 -0.3705
34430SOL    HW1 5732   4.088   2.967   4.011 -0.4995 -0.4526 -0.0006
34430SOL    HW2 5733   4.117   2.829   4.064  1.1694 -0.4177 -0.7506
34431SOL     OW 5734   9.116   6.913   2.522 -0.1808  0.2139  0.1393
34431SOL    HW1 5735   9.045   6.952   2.472 -0.3875 -0.9254 -0.4876
34431SOL    HW2 5736   9.084   6.913   2.613 -1.3455 -1.0485 -0.2503
34432SOL     OW 5737   3.482   4.267   2.216 -0.4234 -0.1313 -0.4466
34432SOL    HW1 5738   3.560   4.240   2.167 -0.9889 -1.5717 -0.5898
34432SOL    HW2 5739   3.442   4.185   2.246  0.1415  0.6495  2.8857
34433SOL     OW 5740   2.431   0.479   6.249 -0.0737 -0.4389 -0.3451
34433SOL    HW1 5741   2.455   0.540   6.320  0.4160 -0.3394 -0.5886
34433SOL    HW2 5742   2.513   0.467   6.200 -0.3509 -0.7027 -0.7446
34434SOL     OW 5743   5.184   4.528  10.231 -0.1308  0.0725 -0.1138
34434SOL    HW1 5744   5.227   4.467  10.172  3.8674  3.9317 -1.7575
34434SOL    HW2 5745   5.195   4.490  10.318  3.0940 -1.1798 -0.9356
34435SOL     OW 5746   6.570   1.147   5.050  0.1185  0.6002 -0.1606
34435SOL    HW1 5747   6.567   1.070   5.107  1.5504 -0.0411 -0.8976
34435SOL    HW2 5748   6.496   1.201   5.078  0.4346  0.0409  1.8980
34436SOL     OW 5749   9.099   1.749   6.417  0.4565  0.6323  0.5055
34436SOL    HW1 5750   9.059   1.821   6.467 -0.3726 -1.4468  3.0872
34436SOL    HW2 5751   9.164   1.712   6.477 -0.0328 -1.5430 -0.2270
34437SOL     OW 5752   1.964   7.200   0.606  0.1798  0.3065 -0.7394
34437SOL    HW1 5753   1.984   7.114   0.570 -0.4644  0.1863 -0.8228
34437SOL    HW2 5754   2.044   7.227   0.650 -0.0248 -0.9146  0.4405
34438SOL     OW 5755   8.805   2.734   5.420 -0.0414 -0.2401  0.2983
34438SOL    HW1 5756   8.739   2.718   5.488  0.1262  0.4661  0.6422
34438SOL    HW2 5757   8.839   2.821   5.440 -1.3532  0.8359 -1.8353
34439SOL     OW 5758   7.772   5.813   7.522  0.3228  0.2376  0.0150
34439SOL    HW1 5759   7.744   5.845   7.607  1.0177  1.1357 -0.0732
34439SOL    HW2 5760   7.868   5.810   7.527  0.3182 -1.4208 -0.1474
34440SOL     OW 5761   6.616   0.133   1.375  0.5078 -0.6416  0.1931
34440SOL    HW1 5762   6.695   0.161   1.420  0.8591 -0.7852 -0.3245
34440SOL    HW2 5763   6.616   0.182   1.293  0.3707 -1.0873 -0.0738
34441SOL     OW 5764   4.383   9.362   0.367 -0.0019 -0.4474  0.0271
34441SOL    HW1 5765   4.424   9.402   0.444 -2.3843 -0.3380  1.3294
34441SOL    HW2 5766   4.360   9.436   0.312 -0.5339 -0.3274  0.4035
34442SOL     OW 5767   5.554   3.069   7.637 -0.0199 -0.0450 -0.4029
34442SOL    HW1 5768   5.637   3.054   7.592  0.5354  0.8288  0.2936
34442SOL    HW2 5769   5.548   2.999   7.702  1.1496  0.9797  0.8758
34443SOL     OW 5770   5.860   4.948   2.492  0.0654  0.5034 -0.0100
34443SOL    HW1 5771   5.824   4.873   2.443 -0.8551 -0.6149  2.2082
34443SOL    HW2 5772   5.795   5.017   2.479  0.0881  0.3925 -0.7674
34444SOL     OW 5773   5.622   1.250   6.737 -0.5253  0.0220 -0.2497
34444SOL    HW1 5774   5.638   1.217   6.648 -1.8814 -0.7495 -0.2344
34444SOL    HW2 5775   5.562   1.323   6.724 -0.6607 -0.0412  0.0337
34445SOL     OW 5776  10.376   1.742   9.159 -0.1033 -0.6143  0.4503
34445SOL    HW1 5777  10.399   1.652   9.135 -1.1795 -1.1306  1.2997
34445SOL    HW2 5778  10.411   1.753   9.247 -0.8536 -0.5471  0.7468
34446SOL     OW 5779  10.393  10.085   4.843 -0.5489 -0.3783  0.0148
34446SOL    HW1 5780  10.449  10.092   4.766 -1.9983  1.0237 -0.9664
34446SOL    HW2 5781  10.454  10.079   4.916  0.8577 -1.4013 -1.1909
34447SOL     OW 5782   2.751   7.152   4.544  0.2389  0.0720  0.2968
34447SOL    HW1 5783   2.711   7.084   4.491  0.4823  1.2568 -1.4870
34447SOL    HW2 5784   2.844   7.130   4.547  0.2532  0.1048  0.0796
34448SOL     OW 5785   5.674  10.256   8.678  0.4225 -0.4606  0.0673
34448SOL    HW1 5786   5.711  10.280   8.593 -0.1743  0.5064  0.0649
34448SOL    HW2 5787   5.628  10.335   8.708 -0.1888 -1.0902  0.8519
34449SOL     OW 5788   4.090   5.397   5.657 -0.2512 -0.0945 -0.5442
34449SOL    HW1 5789   4.142   5.347   5.720 -0.6939 -0.8002 -0.7226
34449SOL    HW2 5790   4.141   5.392   5.576 -0.3339 -0.3432 -0.5842
34450SOL     OW 5791   6.406   3.481   2.390  0.1457  0.1771 -0.0949
34450SOL    HW1 5792   6.395   3.389   2.363  1.8567 -0.0454 -0.1191
34450SOL    HW2 5793   6.491   3.483   2.433  0.1808  1.7966 -0.2048
34451SOL     OW 5794   6.209   6.117   0.369 -0.7221 -0.4025 -0.1456
34451SOL    HW1 5795   6.240   6.055   0.435  0.4103 -0.3975 -0.6446
34451SOL    HW2 5796   6.278   6.119   0.303 -1.1099  0.7711 -0.5562
34452SOL     OW 5797   7.856   4.979   8.121 -0.3338 -0.5031 -0.1622
34452SOL    HW1 5798   7.850   4.971   8.026 -0.6782 -0.5605 -0.1396
34452SOL    HW2 5799   7.929   4.922   8.146  1.8458  1.8763 -0.6763
34453SOL     OW 5800   1.384   5.673   6.066 -0.0384 -0.1481  0.5412
34453SOL    HW1 5801   1.314   5.608   6.061 -1.4931  1.4255 -0.2773
34453SOL    HW2 5802   1.370   5.717   6.150  0.4311 -0.3248  0.7146
34454SOL     OW 5803   3.702   8.822   7.294 -0.1995  0.4207  0.2880
34454SOL    HW1 5804   3.680   8.893   7.234 -1.6958  0.3514  0.7095
34454SOL    HW2 5805   3.727   8.749   7.237  2.1079  1.4563 -0.1410
34455SOL     OW 5806   1.477   3.411   0.801  0.0497 -0.2945  0.1084
34455SOL    HW1 5807   1.500   3.455   0.719  0.3700 -1.1513 -0.2684
34455SOL    HW2 5808   1.384   3.391   0.791 -0.4453  1.4046  0.8176
34456SOL     OW 5809   1.655   8.281   5.166 -0.1643 -0.2920 -0.3571
34456SOL    HW1 5810   1.690   8.272   5.255 -1.3357 -0.9503  0.0603
34456SOL    HW2 5811   1.626   8.372   5.161 -1.0028 -0.5106  0.2993
34457SOL     OW 5812   3.987   7.303   0.372 -0.5327  0.0980  0.0839
34457SOL    HW1 5813   4.047   7.252   0.317  0.2447 -0.3042  1.2537
34457SOL    HW2 5814   3.955   7.240   0.437 -2.9627  0.0742 -1.0344
34458SOL     OW 5815   9.990   6.263   0.479 -0.1467  0.4724 -0.0552
34458SOL    HW1 5816   9.913   6.292   0.528 -0.4820 -0.4542 -0.0121
34458SOL    HW2 5817  10.012   6.337   0.422 -0.4965  1.0948  0.5979
34459SOL     OW 5818   4.447   7.218   4.478  0.4026 -0.1271  0.6011
34459SOL    HW1 5819   4.363   7.263   4.477 -0.2727 -1.3620  0.6104
34459SOL    HW2 5820   4.487   7.240   4.394  1.1903  2.4341  1.5338
34460SOL     OW 5821   6.966   3.690   9.145 -0.0512 -0.8468  0.3101
34460SOL    HW1 5822   6.888   3.650   9.105 -1.7289  3.3492 -1.1166
34460SOL    HW2 5823   6.938   3.712   9.234 -1.0286  1.6260 -0.5327
34461SOL     OW 5824   0.348   6.938   2.436  0.0040  0.4571  0.7759
34461SOL    HW1 5825   0.405   6.960   2.509 -1.3921 -0.0104  2.0536
34461SOL    HW2 5826   0.408   6.919   2.364  1.4229  0.8196  1.8097
34462SOL     OW 5827   9.392   5.298   4.843 -0.3381  0.4851 -0.0308
34462SOL    HW1 5828   9.373   5.255   4.760  1.5897  0.7002 -0.6237
34462SOL    HW2 5829   9.312   5.349   4.862 -1.5546 -1.0867 -0.7219
34463SOL     OW 5830  10.192   8.708   1.998  0.0476 -0.5071  0.2525
34463SOL    HW1 5831  10.170   8.659   1.919  0.3529 -0.0139 -0.1378
34463SOL    HW2 5832  10.210   8.797   1.968  2.5095 -0.8482  0.5393
34464SOL     OW 5833   6.280   6.674   5.576  0.0832 -0.0950  0.1194
34464SOL    HW1 5834   6.357   6.687   5.520  1.4196 -0.9116  1.6635
34464SOL    HW2 5835   6.275   6.754   5.629 -1.4215  0.8521 -1.3835
34465SOL     OW 5836   5.483   2.195   9.499  0.0182  0.1527 -0.4824
34465SOL    HW1 5837   5.435   2.117   9.527 -1.6198  0.9885 -0.8049
34465SOL    HW2 5838   5.498   2.244   9.579  0.6380 -0.2640 -0.3384
34466SOL     OW 5839   9.729   2.113   3.609 -0.1633 -0.1935  0.1646
34466SOL    HW1 5840   9.782   2.035   3.597 -1.1192 -0.8909  0.3306
34466SOL    HW2 5841   9.696   2.133   3.521  1.3070  0.9446 -0.1524
34467SOL     OW 5842   6.610   6.909   6.467  0.5304 -0.0921  0.0624
34467SOL    HW1 5843   6.617   6.896   6.562 -2.2736 -1.1219  0.2104
34467SOL    HW2 5844   6.628   7.002   6.454  2.7247 -0.2523  1.3204
34468SOL     OW 5845   5.717   1.648   3.835 -0.1377  0.2472 -0.3480
34468SOL    HW1 5846   5.680   1.563   3.810 -0.7887  0.0282  1.2017
34468SOL    HW2 5847   5.647   1.689   3.886  0.5951  1.2410 -0.1300
34469SOL     OW 5848   2.307   5.040  10.369 -0.1056 -0.4319 -0.1350
34469SOL    HW1 5849   2.351   4.960  10.396 -1.0280 -0.3722  1.7646
34469SOL    HW2 5850   2.220   5.012  10.341 -0.1222 -0.1950 -0.3232
34470SOL     OW 5851   1.495   0.704   0.490 -0.7079  0.7683  0.0897
34470SOL    HW1 5852   1.431   0.758   0.538 -1.7847 -0.0905 -0.3298
34470SOL    HW2 5853   1.458   0.616   0.492 -0.3474  0.5472 -1.5361
34471SOL     OW 5854   1.790   3.030   0.664 -0.5647 -0.1066  0.2646
34471SOL    HW1 5855   1.762   3.115   0.699  0.3339  0.4396 -0.2861
34471SOL    HW2 5856   1.816   3.050   0.574  1.1668 -0.6516  0.6184
34472SOL     OW 5857   2.208   0.152   5.507  0.8560  0.3300 -0.1576
34472SOL    HW1 5858   2.279   0.105   5.550  0.3728  0.1765  0.4936
34472SOL    HW2 5859   2.158   0.084   5.462 -0.1225  0.1235  1.1833
34473SOL     OW 5860   6.147   3.151   7.240  0.0688  1.1860 -0.2487
34473SOL    HW1 5861   6.134   3.208   7.164 -0.8838 -0.0704 -1.0733
34473SOL    HW2 5862   6.223   3.098   7.216 -1.3946 -0.5686 -1.2472
34474SOL     OW 5863   6.494  10.298   7.872  0.0898 -0.1949  0.1311
34474SOL    HW1 5864   6.560  10.229   7.869  0.2508 -0.0656  0.5016
34474SOL    HW2 5865   6.513  10.354   7.797  1.1460  0.4944  0.8878
34475SOL     OW 5866   5.541   6.608   0.720  0.2930 -0.1163 -0.2187
34475SOL    HW1 5867   5.557   6.559   0.800 -0.5872  0.5628  0.3999
34475SOL    HW2 5868   5.503   6.543   0.660  0.4260 -0.4986  0.1023
34476SOL     OW 5869   6.487   2.138   6.497  0.5941 -0.1772 -0.2778
34476SOL    HW1 5870   6.545   2.094   6.559 -0.5222  1.5031  2.0682
34476SOL    HW2 5871   6.405   2.088   6.501  0.8108 -0.6441 -1.2089
34477SOL     OW 5872   7.615   8.912   8.737  0.3093 -0.5431 -0.2501
34477SOL    HW1 5873   7.601   8.994   8.784  1.7586  0.1303 -0.9170
34477SOL    HW2 5874   7.532   8.865   8.745 -0.6985  1.1493 -0.1709
34478SOL     OW 5875   6.509   6.325   7.489  0.1259  0.2501  0.0715
34478SOL    HW1 5876   6.523   6.414   7.458  0.1453  0.6895  1.2799
34478SOL    HW2 5877   6.432   6.331   7.546  0.7060 -0.2905  0.9463
34479SOL     OW 5878   3.991   8.607   2.038  0.1742 -0.8742  0.0970
34479SOL    HW1 5879   3.975   8.544   1.968  2.6067 -2.2235  0.6484
34479SOL    HW2 5880   3.953   8.567   2.116  0.3890 -0.9279  0.1730
34480SOL     OW 5881   3.159   0.376   1.528 -0.3152  0.3159 -0.3264
34480SOL    HW1 5882   3.184   0.397   1.437 -1.9185 -0.2011 -0.9177
34480SOL    HW2 5883   3.074   0.418   1.539  0.0378  0.7068  1.1010
34481SOL     OW 5884   7.548   5.676   8.106  0.1414 -0.2056 -0.5192
34481SOL    HW1 5885   7.507   5.625   8.176  0.9490 -0.3327 -0.1271
34481SOL    HW2 5886   7.639   5.645   8.104  0.6988  1.3532 -0.1387
34482SOL     OW 5887   8.028   5.753   9.033 -0.0457  0.5479 -0.2965
34482SOL    HW1 5888   7.945   5.798   9.049 -0.3999 -0.1949 -0.0054
34482SOL    HW2 5889   8.003   5.667   8.999  0.6172  0.5152 -0.7145
34483SOL     OW 5890   7.988   6.057  10.267  0.3999 -0.1845 -0.3430
34483SOL    HW1 5891   8.046   5.989  10.232  0.9430  0.1785 -0.1578
34483SOL    HW2 5892   7.983   6.123  10.198  0.4125 -0.0928 -0.2569
34484SOL     OW 5893   5.583   7.864   9.403  0.6536 -0.1096 -0.1745
34484SOL    HW1 5894   5.637   7.942   9.418 -0.6932  0.8951 -0.2823
34484SOL    HW2 5895   5.566   7.829   9.491  0.7256  0.1206 -0.0678
34485SOL     OW 5896   3.268   1.404   2.543  0.6277  0.5059  0.3507
34485SOL    HW1 5897   3.282   1.481   2.599 -0.4002  0.9895 -0.0476
34485SOL    HW2 5898   3.203   1.352   2.590  0.3452  0.5296 -0.0080
34486SOL     OW 5899   4.688   4.271   5.767 -0.5230  0.3065 -0.5967
34486SOL    HW1 5900   4.780   4.283   5.790 -0.0184 -1.4047 -1.5777
34486SOL    HW2 5901   4.658   4.200   5.824 -0.9680  0.1969 -0.9649
34487SOL     OW 5902   3.139   5.324   5.211  0.3687 -0.2361 -0.0469
34487SOL    HW1 5903   3.049   5.309   5.183  0.9630 -0.1479 -2.1854
34487SOL    HW2 5904   3.134   5.332   5.307 -1.9962  0.6524 -0.1938
34488SOL     OW 5905   9.963   9.371   4.316 -0.1901  0.3459 -0.1074
34488SOL    HW1 5906   9.982   9.352   4.408  0.3904  1.7370  0.1032
34488SOL    HW2 5907   9.868   9.377   4.311 -0.2219  0.3297  0.4300
34489SOL     OW 5908  10.223  10.390  10.296 -0.7773 -0.4584  0.4580
34489SOL    HW1 5909  10.296  10.349  10.340 -1.2798 -0.7367  1.0486
34489SOL    HW2 5910  10.263  10.452  10.234 -0.0331 -1.3419  0.0350
34490SOL     OW 5911   7.139   3.479   6.249  0.5383  0.2531  0.3762
34490SOL    HW1 5912   7.072   3.497   6.182 -0.8683  2.0867  2.1608
34490SOL    HW2 5913   7.192   3.558   6.251  1.5272 -0.3989  0.3974
34491SOL     OW 5914   7.713   2.958   5.666  0.2942  0.2162 -0.1208
34491SOL    HW1 5915   7.689   2.877   5.620  0.5794  0.2970 -0.4175
34491SOL    HW2 5916   7.635   2.982   5.715 -0.5097  0.9182 -1.6906
34492SOL     OW 5917   2.892   2.362   0.796  0.3859  0.4549  0.4246
34492SOL    HW1 5918   2.843   2.283   0.821  0.3715 -0.0061 -1.0040
34492SOL    HW2 5919   2.887   2.365   0.701  1.5840  1.4303  0.3648
34493SOL     OW 5920   4.299  10.103   6.522  0.2822 -0.1541 -0.0479
34493SOL    HW1 5921   4.330  10.032   6.466 -0.1601  1.1753 -2.0852
34493SOL    HW2 5922   4.204  10.099   6.515  0.1957 -0.3610  1.1434
34494SOL     OW 5923   1.767   0.350   5.465  0.3882 -0.2562 -0.6545
34494SOL    HW1 5924   1.759   0.265   5.510  0.7268 -0.2173 -0.5188
34494SOL    HW2 5925   1.746   0.414   5.533 -3.6563 -0.3014 -1.6077
34495SOL     OW 5926   9.362   9.321   0.165 -0.7206  0.6304  0.5658
34495SOL    HW1 5927   9.444   9.274   0.152  0.0022  2.0705 -0.2928
34495SOL    HW2 5928   9.372   9.402   0.114 -1.5282  2.1756  2.7276
34496SOL     OW 5929   1.595   3.275   5.200 -0.0334 -0.5044 -0.3486
34496SOL    HW1 5930   1.681   3.249   5.165  0.2528 -0.3354  0.2190
34496SOL    HW2 5931   1.613   3.352   5.253 -0.9444  1.1817 -2.3651
34497SOL     OW 5932   3.290   1.635   4.898  0.0442  0.3052  0.2155
34497SOL    HW1 5933   3.292   1.703   4.965  0.6041  1.3138 -0.7847
34497SOL    HW2 5934   3.381   1.609   4.888 -0.0321  0.1755 -0.1509
34498SOL     OW 5935   6.178   6.108   5.057  0.3446 -0.2723 -0.3285
34498SOL    HW1 5936   6.264   6.067   5.059  0.3820 -0.1805  0.0896
34498SOL    HW2 5937   6.195   6.202   5.059  0.3034 -0.1668 -2.8576
34499SOL     OW 5938   7.444   2.817   9.930 -0.1409  1.0804 -0.3006
34499SOL    HW1 5939   7.361   2.852   9.898 -0.9874  0.0923  0.7624
34499SOL    HW2 5940   7.424   2.780  10.016  1.1117 -0.3532 -0.5747
34500SOL     OW 5941   6.027  10.209   7.870 -0.2882  0.2924  0.7369
34500SOL    HW1 5942   6.005  10.255   7.789  0.1887  1.0453  1.0199
34500SOL    HW2 5943   6.014  10.116   7.850  0.3152  0.4345 -0.3534
34501SOL     OW 5944   7.108   1.409   2.554 -0.4097  0.0545  0.5167
34501SOL    HW1 5945   7.045   1.368   2.614 -0.2244 -0.6043  0.2753
34501SOL    HW2 5946   7.188   1.359   2.566 -0.4155 -0.2035 -0.3981
34502SOL     OW 5947   1.446   6.479   3.442 -0.3328  0.1153 -0.1616
34502SOL    HW1 5948   1.526   6.456   3.395 -0.0069 -1.3071  1.0044
34502SOL    HW2 5949   1.441   6.416   3.514 -1.9002  0.9012  0.4840
34503SOL     OW 5950   0.075   2.811   3.495 -0.0345 -0.3886  0.0842
34503SOL    HW1 5951   0.115   2.850   3.572  1.4479  0.0542 -0.8662
34503SOL    HW2 5952   0.142   2.754   3.459 -0.9537 -1.1451 -0.4978
34504SOL     OW 5953   8.915   5.360   1.205 -0.0077  0.7096 -0.0591
34504SOL    HW1 5954   8.894   5.308   1.127 -0.1537  0.5405  0.0912
34504SOL    HW2 5955   9.009   5.351   1.216  0.0228  0.7944 -0.2603
34505SOL     OW 5956   3.386  10.092   3.636  0.2678 -0.8969  0.3494
34505SOL    HW1 5957   3.386  10.060   3.546  1.6939 -1.6275  0.5820
34505SOL    HW2 5958   3.470  10.063   3.672 -0.4122 -0.8946  2.0209
34506SOL     OW 5959   7.178   6.660   0.956  0.3498 -0.6901 -0.2203
34506SOL    HW1 5960   7.145   6.689   1.041 -0.4871  0.7842 -1.0138
34506SOL    HW2 5961   7.241   6.591   0.977 -1.2280 -1.7150  1.5064
34507SOL     OW 5962   2.423   7.503   3.040 -0.2763 -0.0882 -0.3237
34507SOL    HW1 5963   2.480   7.578   3.056 -0.0311 -0.0186 -1.4189
34507SOL    HW2 5964   2.341   7.524   3.085  0.2244  0.2499  0.4511
34508SOL     OW 5965   3.480   2.755   7.752  0.1400  0.2238 -0.1993
34508SOL    HW1 5966   3.418   2.828   7.748 -0.8097 -0.5994 -0.8981
34508SOL    HW2 5967   3.519   2.752   7.665  1.7324  1.1883  0.4417
34509SOL     OW 5968   8.790   8.387   1.518 -0.2757  0.4459 -0.0823
34509SOL    HW1 5969   8.884   8.372   1.509  0.1142  2.0341  0.9050
34509SOL    HW2 5970   8.768   8.444   1.444 -0.0617  1.5179  0.6456
34510SOL     OW 5971   1.430   6.241   0.819 -0.3705  0.1651 -0.5032
34510SOL    HW1 5972   1.524   6.238   0.833 -0.0694  1.8753 -1.9587
34510SOL    HW2 5973   1.395   6.285   0.896 -0.1122 -1.1111  0.3846
34511SOL     OW 5974   5.124   5.088   8.867 -0.1705  0.5479 -0.5252
34511SOL    HW1 5975   5.090   5.146   8.935 -0.3804 -0.5652  0.3432
34511SOL    HW2 5976   5.122   5.001   8.906  1.7185  0.1582 -1.2141
34512SOL     OW 5977   8.399   5.330   3.200 -0.1331 -0.2005  0.4600
34512SOL    HW1 5978   8.460   5.383   3.252 -0.0162  0.6047 -0.4783
34512SOL    HW2 5979   8.319   5.327   3.253  0.2236 -0.0289  1.0246
34513SOL     OW 5980   3.724   8.319   3.500 -0.0722 -0.2118 -0.4042
34513SOL    HW1 5981   3.751   8.409   3.481 -0.4724 -0.6444 -3.4982
34513SOL    HW2 5982   3.806   8.270   3.506  0.1766  0.3699  1.8470
34514SOL     OW 5983   8.528   5.077   3.851  0.1536 -0.6174 -0.1670
34514SOL    HW1 5984   8.510   5.139   3.781 -0.6737  0.6189  1.0932
34514SOL    HW2 5985   8.574   5.005   3.808 -0.2531  0.1350 -1.9493
34515SOL     OW 5986   0.466   9.567   6.512 -0.0746  0.0588 -0.5900
34515SOL    HW1 5987   0.441   9.475   6.502 -2.9186  0.8248 -1.2520
34515SOL    HW2 5988   0.529   9.583   6.441 -0.1404 -1.1804 -0.9458
34516SOL     OW 5989   0.374   9.036   1.885 -0.4143  0.0334  0.3353
34516SOL    HW1 5990   0.286   9.036   1.846  0.5600 -0.8890 -2.0370
34516SOL    HW2 5991   0.411   9.120   1.858 -0.0219 -0.2419  0.0213
34517SOL     OW 5992   6.745   5.182   4.169 -0.0764 -0.2530  0.2170
34517SOL    HW1 5993   6.793   5.102   4.150 -1.1469 -0.6311 -1.1187
34517SOL    HW2 5994   6.672   5.181   4.107 -0.1339  1.7412  0.1754
34518SOL     OW 5995   9.029   2.542   9.546  0.0862  0.5051  0.3747
34518SOL    HW1 5996   8.973   2.582   9.612  0.2056  0.8303  0.2766
34518SOL    HW2 5997   9.114   2.585   9.555 -0.1982  1.3581 -0.7325
34519SOL     OW 5998   2.432   6.708   5.950  0.5062  0.0889 -0.3069
34519SOL    HW1 5999   2.440   6.689   5.857 -0.7719 -0.6551 -0.2954
34519SOL    HW2 6000   2.342   6.683   5.972  1.0081 -0.5036  1.2808
34520SOL     OW 6001   1.981   0.624   4.121 -0.3491 -0.3410  0.3243
34520SOL    HW1 6002   2.014   0.565   4.189  0.2653 -1.0305 -0.5568
34520SOL    HW2 6003   2.060   0.656   4.077 -0.7958 -2.5035 -2.2386
34521SOL     OW 6004   2.858   4.829   8.835 -0.6161  0.2506 -0.6954
34521SOL    HW1 6005   2.810   4.885   8.775 -0.2712  0.4743 -0.7682
34521SOL    HW2 6006   2.899   4.763   8.778  0.7428  1.1970 -0.8815
34522SOL     OW 6007   6.077   1.557   8.600 -0.5632  0.4879  0.3364
34522SOL    HW1 6008   6.051   1.638   8.557  2.7374  0.7012 -1.5511
34522SOL    HW2 6009   6.074   1.578   8.694 -1.5500  2.1353 -0.0175
34523SOL     OW 6010   2.597   4.938   4.519  0.0890 -0.1070  0.1699
34523SOL    HW1 6011   2.670   4.876   4.529  1.7076  1.7654  0.6051
34523SOL    HW2 6012   2.528   4.902   4.574  0.4481 -2.2277 -0.6700
34524SOL     OW 6013   0.855   6.371   0.663  0.2665 -0.1466  0.6847
34524SOL    HW1 6014   0.893   6.410   0.584 -0.8983  0.9910  0.6512
34524SOL    HW2 6015   0.883   6.428   0.734 -1.7055  1.0455  0.5992
34525SOL     OW 6016   8.248   2.778   8.197 -0.3382 -0.8056  1.1935
34525SOL    HW1 6017   8.166   2.825   8.212  0.1479  0.0279  1.2574
34525SOL    HW2 6018   8.236   2.696   8.245 -1.5826 -1.2139  0.2548
34526SOL     OW 6019   0.358   3.807   8.942  0.0994  0.6325  0.0042
34526SOL    HW1 6020   0.431   3.812   8.880  0.6333 -0.2830  0.5196
34526SOL    HW2 6021   0.367   3.885   8.996 -1.3609  2.3413 -2.0519
34527SOL     OW 6022   1.436   1.630   0.026  0.1827  0.2777 -0.0964
34527SOL    HW1 6023   1.390   1.569   0.084  0.6730  0.3145  0.3349
34527SOL    HW2 6024   1.385   1.711   0.032 -0.8858 -0.2808 -1.2230
34528SOL     OW 6025   5.956   5.601   4.633  0.2326 -0.0173 -0.1311
34528SOL    HW1 6026   5.874   5.622   4.587 -0.0940 -0.7214  0.1232
34528SOL    HW2 6027   5.960   5.665   4.704  0.4172  0.6659 -0.7411
34529SOL     OW 6028   4.163   6.770   6.616 -0.7130 -0.2420  0.1173
34529SOL    HW1 6029   4.123   6.839   6.670  0.7034  0.9065 -0.2320
34529SOL    HW2 6030   4.257   6.786   6.623 -0.3690 -1.9109 -0.3278
34530SOL     OW 6031   0.307   5.610   5.089  0.4566  0.2990 -0.0617
34530SOL    HW1 6032   0.257   5.579   5.165  1.3017 -0.6896  0.1211
34530SOL    HW2 6033   0.252   5.678   5.050 -1.0721 -0.7938  0.0866
34531SOL     OW 6034   0.720   7.053   1.363  0.0463  0.4681 -0.4329
34531SOL    HW1 6035   0.814   7.070   1.368  0.6471 -2.2790 -1.2371
34531SOL    HW2 6036   0.705   7.025   1.273 -0.7444 -2.9673  0.6152
34532SOL     OW 6037   6.512   6.588   1.981 -0.0030  0.1701 -0.2289
34532SOL    HW1 6038   6.574   6.535   1.931 -0.3180  0.0530 -0.4980
34532SOL    HW2 6039   6.437   6.530   1.994  0.0698  0.2074  0.3627
34533SOL     OW 6040   4.682   8.929   2.110 -0.3327 -0.7237 -0.1402
34533SOL    HW1 6041   4.625   8.938   2.034  0.7725 -1.5459 -1.1054
34533SOL    HW2 6042   4.644   8.858   2.161 -1.3583  0.1565  0.3723
34534SOL     OW 6043   4.731  10.278   8.145 -0.0387 -0.2575  0.6648
34534SOL    HW1 6044   4.671  10.283   8.070 -0.5005 -0.2506  1.0340
34534SOL    HW2 6045   4.740  10.369   8.173  0.4235 -0.2170  0.3924
34535SOL     OW 6046   5.613   5.965   6.836 -0.2900 -0.0824 -0.5749
34535SOL    HW1 6047   5.552   5.950   6.764  0.9314  0.9325 -1.8830
34535SOL    HW2 6048   5.658   6.046   6.813  0.6934 -0.1444  0.9570
34536SOL     OW 6049   7.574   2.941   4.918 -0.2565 -0.1400 -0.6114
34536SOL    HW1 6050   7.573   2.883   4.842  0.2005 -1.0029  0.0242
34536SOL    HW2 6051   7.661   2.928   4.956 -1.5126 -2.1504  1.8801
34537SOL     OW 6052   1.473   2.449   6.480  0.5476  0.0526 -0.0274
34537SOL    HW1 6053   1.488   2.355   6.477 -0.8274 -0.1830 -0.0145
34537SOL    HW2 6054   1.545   2.483   6.534  1.5688 -0.8587 -0.7573
34538SOL     OW 6055   9.912   3.154   7.846  0.3850 -0.6983 -0.2655
34538SOL    HW1 6056   9.928   3.163   7.940 -1.0021  0.5311 -0.1000
34538SOL    HW2 6057   9.816   3.151   7.838  0.4860 -1.2246 -1.6090
34539SOL     OW 6058   5.082   1.087   2.724  0.0308 -0.5557 -0.5598
34539SOL    HW1 6059   5.030   1.167   2.714 -0.9401 -1.0351  0.4782
34539SOL    HW2 6060   5.018   1.018   2.741  0.7306 -1.8637 -2.7891
34540SOL     OW 6061   8.975   3.486   6.604  0.5247  0.6865 -0.1757
34540SOL    HW1 6062   8.940   3.508   6.518  2.0820  0.1564 -0.9712
34540SOL    HW2 6063   8.931   3.404   6.628 -2.2812  2.3574  1.0208
34541SOL     OW 6064   7.522   0.887   7.721  0.0251  0.1299  0.4882
34541SOL    HW1 6065   7.557   0.910   7.634  1.7782  1.2807  1.4384
34541SOL    HW2 6066   7.502   0.793   7.715  0.7766  0.0335 -0.9403
34542SOL     OW 6067   1.001   6.205   5.477 -0.2365  0.6881 -0.8414
34542SOL    HW1 6068   0.964   6.121   5.447  0.6610 -0.2357  0.5540
34542SOL    HW2 6069   0.939   6.237   5.542 -0.1843  0.7365 -0.8155
34543SOL     OW 6070   1.885   8.774  10.192  0.1409  0.5886 -0.2146
34543SOL    HW1 6071   1.831   8.792  10.269  0.3402 -0.5093  0.1944
34543SOL    HW2 6072   1.897   8.679  10.192  2.8487  0.8549  0.2598
34544SOL     OW 6073   8.563   5.810   0.004  0.0889 -0.2253  0.1247
34544SOL    HW1 6074   8.592   5.791   0.093  1.3476  0.1940 -0.1750
34544SOL    HW2 6075   8.612   5.888  -0.022  1.0340 -1.2799 -1.5132
34545SOL     OW 6076   8.208   1.826   4.909  0.5800 -0.7884 -0.0856
34545SOL    HW1 6077   8.125   1.857   4.945  0.2299 -2.3402  0.5377
34545SOL    HW2 6078   8.270   1.896   4.928 -0.5201  0.2866 -0.3428
34546SOL     OW 6079   7.113   2.130   6.064  0.1537  0.3411  0.7098
34546SOL    HW1 6080   7.145   2.219   6.081  1.6227  0.4940 -2.1387
34546SOL    HW2 6081   7.022   2.142   6.037  0.3765  1.0254  0.2378
34547SOL     OW 6082   0.250   3.047   5.163  0.0088 -0.7201 -0.0404
34547SOL    HW1 6083   0.290   3.133   5.147 -1.1726 -0.2517 -0.5713
34547SOL    HW2 6084   0.207   3.056   5.248 -2.5912  0.2235 -1.3381
34548SOL     OW 6085   3.963   8.299   2.664 -0.4023 -0.7017 -0.2831
34548SOL    HW1 6086   3.967   8.262   2.752 -0.9326 -2.0389 -0.7948
34548SOL    HW2 6087   3.871   8.323   2.653 -0.0675  0.8718  0.0502
34549SOL     OW 6088   8.087   4.838   4.168 -0.3574 -0.3518  0.0318
34549SOL    HW1 6089   8.020   4.831   4.101  0.6003  0.1775 -1.0120
34549SOL    HW2 6090   8.113   4.748   4.187 -1.2295 -0.5480  0.3246
34550SOL     OW 6091   4.039   6.991   4.453 -0.4263  0.8022  0.3557
34550SOL    HW1 6092   4.134   6.977   4.461 -0.6989 -0.2229  2.4855
34550SOL    HW2 6093   4.012   6.930   4.384  0.3779  0.6817  0.1255
34551SOL     OW 6094   0.226   4.111   6.677 -0.8318  0.0694  0.1626
34551SOL    HW1 6095   0.198   4.155   6.757  1.0060 -0.6352  1.2451
34551SOL    HW2 6096   0.305   4.158   6.650 -0.1888 -1.0778  0.0035
34552SOL     OW 6097   4.009   3.412   9.507  0.0349  0.0215  0.5475
34552SOL    HW1 6098   4.039   3.328   9.543  0.2112  0.3680  1.2119
34552SOL    HW2 6099   4.086   3.469   9.510  0.6249 -0.4715 -2.1653
34553SOL     OW 6100   7.399  10.358  10.356 -0.2524  0.4796 -0.6361
34553SOL    HW1 6101   7.393  10.289  10.290  0.3041  1.1611 -1.4159
34553SOL    HW2 6102   7.370  10.316  10.437  1.4739 -1.1184 -0.7673
34554SOL     OW 6103   5.487   6.761   3.684 -0.4869  0.0918 -0.0271
34554SOL    HW1 6104   5.452   6.840   3.643 -1.3809 -0.7707 -0.9719
34554SOL    HW2 6105   5.469   6.773   3.778 -3.0105 -0.1007 -0.4123
34555SOL     OW 6106   5.800   3.492   6.226  0.4537  0.4229  0.0354
34555SOL    HW1 6107   5.792   3.587   6.215  1.2856  0.4324 -0.7101
34555SOL    HW2 6108   5.860   3.466   6.155 -0.1462 -0.7243 -0.0660
34556SOL     OW 6109  10.287   9.535   9.131 -0.0621 -0.3503 -0.0248
34556SOL    HW1 6110  10.360   9.505   9.078 -1.0371 -3.4724  0.1890
34556SOL    HW2 6111  10.211   9.526   9.074 -0.5315  1.2892  0.2830
34557SOL     OW 6112   9.580   2.599   1.948  0.0424  0.1767 -0.4606
34557SOL    HW1 6113   9.531   2.614   1.868 -1.9805 -0.8272  0.5105
34557SOL    HW2 6114   9.672   2.600   1.921 -0.5954 -1.7765 -3.0973
34558SOL     OW 6115   0.267   8.745   6.204  0.6752 -0.2041 -0.0558
34558SOL    HW1 6116   0.245   8.766   6.113  4.4486 -0.8124 -1.2733
34558SOL    HW2 6117   0.275   8.650   6.205  3.1496 -0.0601  0.1378
34559SOL     OW 6118   1.100   7.617   3.549 -0.1989 -0.5036  0.1919
34559SOL    HW1 6119   1.049   7.558   3.605 -0.0983 -0.1978  0.6139
34559SOL    HW2 6120   1.046   7.696   3.542 -0.7892 -1.0054 -1.1912
34560SOL     OW 6121   3.636   9.597   5.460 -0.2361  0.4017  0.0716
34560SOL    HW1 6122   3.647   9.684   5.421  0.0944  1.5710  2.6110
34560SOL    HW2 6123   3.543   9.577   5.449 -0.5076  1.4892  0.2748
34561SOL     OW 6124   6.258  10.106   2.349 -0.0741 -0.3401  0.8277
34561SOL    HW1 6125   6.164  10.092   2.336 -0.4548  3.1381 -1.3952
34561SOL    HW2 6126   6.299  10.068   2.272 -0.0841  1.0849  0.0783
34562SOL     OW 6127   1.078   1.231   7.880 -0.6960  0.0273 -0.0167
34562SOL    HW1 6128   1.147   1.297   7.871  0.1699 -1.0197 -1.5094
34562SOL    HW2 6129   1.076   1.211   7.974  0.3171  0.8209  0.1947
34563SOL     OW 6130   4.931   7.822   7.080  0.3852  0.2079 -0.1341
34563SOL    HW1 6131   5.020   7.790   7.096 -0.4764 -1.6161  1.4848
34563SOL    HW2 6132   4.919   7.892   7.144  0.6697  0.5304 -0.4257
34564SOL     OW 6133   4.192   2.965   6.412 -0.2059 -0.3020  0.2701
34564SOL    HW1 6134   4.126   3.032   6.429  1.7475  1.7269  0.3325
34564SOL    HW2 6135   4.243   2.961   6.493 -0.5246 -2.2348  0.4250
34565SOL     OW 6136   8.418   4.925   4.256  0.1850 -0.0777 -0.3896
34565SOL    HW1 6137   8.367   4.912   4.336 -0.3495  0.5441 -0.6246
34565SOL    HW2 6138   8.418   4.839   4.214 -0.4809 -0.1341 -0.2802
34566SOL     OW 6139   3.522   5.398   7.154 -0.8148  0.0438 -0.1156
34566SOL    HW1 6140   3.560   5.311   7.149  0.7572  0.6648  0.2759
34566SOL    HW2 6141   3.547   5.430   7.241 -0.4162  1.2822 -0.6670
34567SOL     OW 6142   3.503   4.507   8.355 -0.2890 -0.4397 -0.5831
34567SOL    HW1 6143   3.501   4.448   8.430 -0.1821  0.8990  0.4984
34567SOL    HW2 6144   3.442   4.577   8.376  1.8510  1.4875 -0.4016
34568SOL     OW 6145   7.524   3.402   2.090 -0.3692  0.2524  0.0029
34568SOL    HW1 6146   7.595   3.382   2.029 -1.8192 -2.0430 -1.0618
34568SOL    HW2 6147   7.457   3.445   2.038 -0.4446  0.9495  0.6511
34569SOL     OW 6148   9.935   8.001   6.535  0.1722  0.5352  0.7671
34569SOL    HW1 6149   9.971   7.951   6.609  0.8009 -2.1664 -1.1786
34569SOL    HW2 6150   9.840   7.994   6.545  0.1327 -3.4156 -0.6830
34570SOL     OW 6151   2.340   7.178   0.335 -0.6423  0.1076 -0.1671
34570SOL    HW1 6152   2.372   7.235   0.406 -1.6866 -0.6645  0.9746
34570SOL    HW2 6153   2.281   7.116   0.379 -0.8061 -0.8208 -1.6293
34571SOL     OW 6154   4.315   6.981   5.346 -0.2799  0.6070 -0.2823
34571SOL    HW1 6155   4.229   6.942   5.329  0.8711 -2.3459  0.2347
34571SOL    HW2 6156   4.354   6.991   5.259  0.7274 -2.8316 -0.3645
34572SOL     OW 6157   1.761   3.260   4.147 -0.3250  0.1010  0.4522
34572SOL    HW1 6158   1.694   3.240   4.082  0.4374  0.6811 -0.5440
34572SOL    HW2 6159   1.831   3.302   4.097  0.7696 -0.4550  1.4637
34573SOL     OW 6160   4.360   4.904   0.700 -0.1466 -0.0577  0.0430
34573SOL    HW1 6161   4.312   4.928   0.780 -0.1197  3.4014 -0.8242
34573SOL    HW2 6162   4.452   4.906   0.726  0.0497  3.4706 -0.4148
34574SOL     OW 6163   7.231   0.026   8.303  0.4879  0.4466  0.0339
34574SOL    HW1 6164   7.155   0.081   8.284  0.6527  0.9463  0.7809
34574SOL    HW2 6165   7.303   0.087   8.313  1.0116 -0.0359 -0.7478
34575SOL     OW 6166   5.664   8.465   8.744  0.0602 -0.4764  0.6125
34575SOL    HW1 6167   5.738   8.450   8.802 -0.2899 -2.2009  0.6681
34575SOL    HW2 6168   5.589   8.471   8.804 -0.3418 -2.5401  0.3945
34576SOL     OW 6169   3.546   3.419   1.323 -0.0129 -0.2117 -0.0116
34576SOL    HW1 6170   3.456   3.389   1.339 -0.2097  0.7404  0.7300
34576SOL    HW2 6171   3.549   3.508   1.359  1.2959 -0.3106  0.1750
34577SOL     OW 6172   2.494   2.552   5.145 -0.0928 -0.1475  0.2508
34577SOL    HW1 6173   2.416   2.597   5.113  0.7199  0.5983 -0.7823
34577SOL    HW2 6174   2.466   2.463   5.163 -1.3238  0.2864  0.5279
34578SOL     OW 6175  10.381   8.764   9.078  0.1739  0.3155 -0.5776
34578SOL    HW1 6176  10.431   8.839   9.109 -0.5042  0.8326 -0.7218
34578SOL    HW2 6177  10.394   8.697   9.146  1.2148  0.3645 -0.7157
34579SOL     OW 6178   1.336   8.390   8.789  0.2534  0.0670 -0.0381
34579SOL    HW1 6179   1.242   8.380   8.807  0.7658 -1.1974  2.3709
34579SOL    HW2 6180   1.349   8.341   8.708 -1.2397  0.7133 -0.7150
34580SOL     OW 6181   9.239   3.940   6.389 -0.1927  0.3976 -0.3235
34580SOL    HW1 6182   9.325   3.924   6.349 -0.4691  0.1484 -0.8274
34580SOL    HW2 6183   9.221   3.860   6.439  0.8931  1.3313  1.7130
34581SOL     OW 6184   5.032   5.819   1.633  0.4253 -0.2276  0.3442
34581SOL    HW1 6185   4.937   5.822   1.627  0.3809  3.1779  0.7205
34581SOL    HW2 6186   5.050   5.765   1.710 -1.1371 -1.2124  0.0640
34582SOL     OW 6187   6.206   5.105   6.296  0.7343  0.1755 -0.3116
34582SOL    HW1 6188   6.186   5.045   6.368  1.3060  0.8066  0.3852
34582SOL    HW2 6189   6.201   5.050   6.217  0.2842 -0.5623  0.2180
34583SOL     OW 6190   4.368   9.682   2.660  0.1724  0.1164 -0.1827
34583SOL    HW1 6191   4.452   9.675   2.706 -0.2177 -1.3898  0.3620
34583SOL    HW2 6192   4.322   9.601   2.682 -1.6887  1.1719  0.0416
34584SOL     OW 6193   2.000   5.603   1.042 -0.2610 -0.1913 -0.1947
34584SOL    HW1 6194   2.079   5.613   1.095  0.7640 -2.1757 -1.2556
34584SOL    HW2 6195   1.928   5.616   1.104  0.8562  1.4125  0.8377
34585SOL     OW 6196   5.147   6.046   5.494  0.1630 -0.1983 -0.0850
34585SOL    HW1 6197   5.102   6.037   5.410  1.7419  0.6115 -1.0611
34585SOL    HW2 6198   5.222   5.987   5.488  2.5373  2.6558 -0.9173
34586SOL     OW 6199   9.697   5.741   6.296 -0.0371 -0.6339  0.0860
34586SOL    HW1 6200   9.727   5.701   6.378  3.2751 -0.0064 -0.6682
34586SOL    HW2 6201   9.647   5.817   6.323 -1.9137 -2.2518  1.4796
34587SOL     OW 6202   6.294   7.396   4.997 -0.1231 -0.1500 -0.0954
34587SOL    HW1 6203   6.356   7.469   4.985  0.3458 -0.3356  1.0325
34587SOL    HW2 6204   6.224   7.413   4.934 -0.5360  1.8629  0.8226
34588SOL     OW 6205   8.188   2.990  10.099 -0.5843  0.5120  0.3984
34588SOL    HW1 6206   8.250   3.055  10.132 -1.2149  0.7831  1.0727
34588SOL    HW2 6207   8.206   2.986  10.004  4.0932 -3.2216  1.0322
34589SOL     OW 6208   8.033   8.583   7.177 -0.2186 -0.3659 -0.3935
34589SOL    HW1 6209   8.008   8.545   7.262  1.0284 -1.3577 -0.4348
34589SOL    HW2 6210   7.956   8.570   7.122 -0.8247 -0.2807  0.4052
34590SOL     OW 6211   1.376   1.295   5.327  0.6006  0.1616  0.3173
34590SOL    HW1 6212   1.349   1.353   5.398  0.2511  0.9083 -0.4164
34590SOL    HW2 6213   1.369   1.348   5.248  1.8895 -0.3694 -0.1797
34591SOL     OW 6214   8.943   9.957   1.875  0.0550  0.0383  0.1148
34591SOL    HW1 6215   8.895  10.037   1.850  2.6325  1.2855 -1.2789
34591SOL    HW2 6216   8.905   9.889   1.820  0.6878  1.2553 -1.9322
34592SOL     OW 6217   6.579   9.663   6.587  0.0914  0.4950  0.1321
34592SOL    HW1 6218   6.493   9.641   6.550  0.1477  1.3221 -0.5185
34592SOL    HW2 6219   6.619   9.578   6.607 -0.5813  0.0802 -0.2483
34593SOL     OW 6220   0.098   2.003   8.028  0.6116  0.3032  0.3213
34593SOL    HW1 6221   0.155   2.056   8.083  1.0433 -0.3813  0.5371
34593SOL    HW2 6222   0.152   1.978   7.953 -0.3638  2.4154 -1.2068
34594SOL     OW 6223   3.974   4.304   4.666 -0.2625 -0.5153  0.0792
34594SOL    HW1 6224   3.950   4.232   4.724  0.1245 -0.3084  0.5118
34594SOL    HW2 6225   3.991   4.263   4.582 -0.9724 -0.8037  0.0727
34595SOL     OW 6226   6.398   9.757   8.502  0.3932  0.0662 -0.1528
34595SOL    HW1 6227   6.396   9.690   8.570  1.7284 -0.5464 -0.6958
34595SOL    HW2 6228   6.356   9.715   8.426  0.2566  0.2284 -0.1685
34596SOL     OW 6229   4.213   9.298   4.921 -0.3393  0.4659  0.5158
34596SOL    HW1 6230   4.211   9.221   4.978 -1.5687  0.3359  0.3250
34596SOL    HW2 6231   4.157   9.362   4.966  0.8643  1.3502  0.7949
34597SOL     OW 6232  10.237   5.659   6.893  0.0381  0.5798  0.2671
34597SOL    HW1 6233  10.218   5.617   6.976  1.4039 -1.4025 -0.3560
34597SOL    HW2 6234  10.324   5.697   6.904  0.0682  0.6352 -0.1335
34598SOL     OW 6235   6.753   1.246   4.568  0.4349 -0.1131 -0.2124
34598SOL    HW1 6236   6.833   1.297   4.583  1.3300 -1.5852  0.2666
34598SOL    HW2 6237   6.711   1.242   4.653  0.0689  0.3146 -0.3747
34599SOL     OW 6238   2.936   8.380   1.078 -0.5569 -0.1822  0.0675
34599SOL    HW1 6239   2.890   8.299   1.098 -0.7742 -0.1898 -0.4608
34599SOL    HW2 6240   2.966   8.370   0.988  1.2212 -0.5296  0.6498
34600SOL     OW 6241   8.975   7.565   1.896 -0.8719 -0.4181  0.1412
34600SOL    HW1 6242   8.981   7.614   1.978  1.2799 -0.0813 -0.1624
34600SOL    HW2 6243   8.937   7.627   1.834 -2.0436 -0.5148  0.7325
34601SOL     OW 6244   4.860   0.179   8.852 -0.3515  0.3415  0.7236
34601SOL    HW1 6245   4.904   0.263   8.843  0.1713 -0.0975 -1.3825
34601SOL    HW2 6246   4.931   0.115   8.862 -0.6300 -0.0615  0.2161
34602SOL     OW 6247   2.533   9.883   7.930 -0.1197 -0.0442  0.6711
34602SOL    HW1 6248   2.597   9.873   8.000  0.3464 -0.5316  0.1823
34602SOL    HW2 6249   2.582   9.921   7.857  0.4897 -3.3777 -0.8696
34603SOL     OW 6250   2.216   7.251   5.026 -0.3301 -0.2241  0.2289
34603SOL    HW1 6251   2.155   7.182   5.052 -1.1754  0.0906 -0.8070
34603SOL    HW2 6252   2.190   7.272   4.936  2.3967 -1.2450 -0.8808
34604SOL     OW 6253   3.629   5.151   7.215  0.0276  0.3281 -0.9630
34604SOL    HW1 6254   3.624   5.065   7.174 -2.9679  0.6219 -1.4830
34604SOL    HW2 6255   3.705   5.146   7.273  0.1665 -2.5238 -1.2517
34605SOL     OW 6256   1.362   6.940   0.259 -0.4320  0.0111  0.2115
34605SOL    HW1 6257   1.408   6.946   0.175  1.5364 -1.7183  1.0594
34605SOL    HW2 6258   1.305   6.863   0.249  0.4346 -0.7124  0.6930
34606SOL     OW 6259   3.157   9.448   7.308  0.0748 -0.0474 -0.9272
34606SOL    HW1 6260   3.062   9.452   7.315  0.1190  0.0535 -0.2990
34606SOL    HW2 6261   3.189   9.493   7.386  0.6174 -3.4201  1.0135
34607SOL     OW 6262   6.317   2.928  10.032  0.3121  0.3719 -0.1553
34607SOL    HW1 6263   6.369   2.867  10.085 -1.8471 -0.4440  1.1130
34607SOL    HW2 6264   6.356   3.014  10.050  0.9952 -0.1554  1.0372
34608SOL     OW 6265   7.423   2.257  10.208  0.3131  0.2865 -0.0162
34608SOL    HW1 6266   7.474   2.296  10.279  1.8467  1.6483 -1.7352
34608SOL    HW2 6267   7.488   2.237  10.141 -1.0798 -0.8512 -1.0819
34609SOL     OW 6268   4.050   9.837   9.186 -0.0170  0.1574  0.3337
34609SOL    HW1 6269   4.124   9.879   9.230 -1.0593 -0.6102  2.9988
34609SOL    HW2 6270   3.973   9.875   9.228 -1.1231 -0.0091 -1.4780
34610SOL     OW 6271   8.983   0.234   6.827 -0.4174  0.0605 -0.2229
34610SOL    HW1 6272   8.952   0.311   6.780 -1.9894 -0.5956 -0.3299
34610SOL    HW2 6273   8.903   0.193   6.861  0.6247  0.6793  3.3389
34611SOL     OW 6274  10.248   3.387   5.907  0.1474  0.1743  0.2317
34611SOL    HW1 6275  10.193   3.448   5.958  1.6483  1.4841  0.3719
34611SOL    HW2 6276  10.301   3.343   5.973 -0.0342 -0.3739  0.0158
34612SOL     OW 6277   3.149   7.293   5.996 -0.0011  0.8362 -0.1419
34612SOL    HW1 6278   3.214   7.340   5.944 -1.7035 -0.0910 -3.3367
34612SOL    HW2 6279   3.071   7.347   5.990 -1.1723 -0.9043 -1.4845
34613SOL     OW 6280   2.973   5.141   1.449  0.1551 -0.2527 -0.5141
34613SOL    HW1 6281   2.885   5.104   1.447  0.3709 -0.7803 -2.2447
34613SOL    HW2 6282   2.999   5.146   1.357  1.5418  0.8619 -0.1039
34614SOL     OW 6283   7.096   7.623   4.678 -0.3618 -0.7120 -0.9265
34614SOL    HW1 6284   7.113   7.532   4.651 -0.6204 -0.4807 -1.9082
34614SOL    HW2 6285   7.163   7.674   4.633  0.4288 -0.5049  0.4309
34615SOL     OW 6286   5.980   0.516   3.483  0.1252  0.0128 -0.0723
34615SOL    HW1 6287   5.960   0.603   3.447 -0.5615 -0.4069 -0.7456
34615SOL    HW2 6288   5.928   0.456   3.430 -1.1813 -0.6261  1.8372
34616SOL     OW 6289   9.829   5.502   1.616 -0.7354  0.3000  0.9417
34616SOL    HW1 6290   9.793   5.530   1.531  0.0607 -0.7113  0.2502
34616SOL    HW2 6291   9.765   5.440   1.649 -0.5277 -0.1227  0.5628
34617SOL     OW 6292   7.406   1.616   8.515  0.1098 -0.1429 -0.0242
34617SOL    HW1 6293   7.389   1.582   8.603  0.1405 -1.8354 -0.6206
34617SOL    HW2 6294   7.347   1.566   8.458 -0.4049  1.4025 -0.9104
34618SOL     OW 6295  10.009   9.775   2.701 -0.0826  0.4565  0.0532
34618SOL    HW1 6296   9.924   9.757   2.661  0.4733 -1.6748 -0.3369
34618SOL    HW2 6297  10.023   9.869   2.689 -2.1416  0.7517 -0.3068
34619SOL     OW 6298   6.815  10.477   7.672  0.5655  0.0695 -0.0785
34619SOL    HW1 6299   6.818  10.573   7.667  1.3759  0.0497 -0.1919
34619SOL    HW2 6300   6.906  10.450   7.659  0.3537 -0.7153  0.0238
34620SOL     OW 6301   2.383   6.778   3.267  0.5306  0.3664 -0.4224
34620SOL    HW1 6302   2.434   6.822   3.336 -0.6071  0.2062  0.5543
34620SOL    HW2 6303   2.382   6.841   3.195  1.7045  0.5584 -0.2949
34621SOL     OW 6304   8.213   7.356   3.852  0.1751 -0.2313 -0.1847
34621SOL    HW1 6305   8.300   7.383   3.882 -0.0577  0.8144 -0.4152
34621SOL    HW2 6306   8.230   7.292   3.783  0.8057  0.7531 -0.9774
34622SOL     OW 6307   5.728   7.930   1.082 -0.0675  0.3638 -0.2475
34622SOL    HW1 6308   5.745   7.923   1.176 -1.0982  1.0161  0.0037
34622SOL    HW2 6309   5.683   7.848   1.060 -0.9183  0.7208  0.0972
34623SOL     OW 6310   4.254   4.095   6.735 -0.4067 -0.0794 -0.0270
34623SOL    HW1 6311   4.199   4.103   6.657  0.1261  0.9586 -0.3162
34623SOL    HW2 6312   4.256   4.001   6.753 -0.2422 -0.3843 -1.4817
34624SOL     OW 6313   9.187   8.688   9.261  0.1525 -0.3628 -0.1507
34624SOL    HW1 6314   9.183   8.599   9.226  0.6230 -1.6669  2.8065
34624SOL    HW2 6315   9.281   8.708   9.265  0.0488  0.3168 -0.8153
34625SOL     OW 6316   3.736   2.772   7.128 -0.4436  0.4044  0.1177
34625SOL    HW1 6317   3.788   2.730   7.197  0.2659  0.8108 -0.1623
34625SOL    HW2 6318   3.725   2.862   7.158  2.1183  1.3646 -1.4497
34626SOL     OW 6319   3.856   1.747   1.815 -0.1156  0.0714 -0.1945
34626SOL    HW1 6320   3.862   1.808   1.741  1.3862 -0.5354 -0.6018
34626SOL    HW2 6321   3.780   1.692   1.795  0.4672 -0.3082 -1.4715
34627SOL     OW 6322   9.291   9.135   2.391 -0.0573  0.3695 -0.0739
34627SOL    HW1 6323   9.289   9.203   2.323  1.2796 -0.9678 -1.5352
34627SOL    HW2 6324   9.277   9.053   2.343 -1.1738 -0.4722  1.5787
34628SOL     OW 6325   8.808   0.508  10.372 -0.0360 -0.1123  0.5014
34628SOL    HW1 6326   8.720   0.525  10.405 -0.5899 -1.9222  0.0555
34628SOL    HW2 6327   8.822   0.415  10.388  2.4002  0.4124  1.8977
34629SOL     OW 6328   1.794   4.866   3.626 -0.0749 -0.0524  0.4205
34629SOL    HW1 6329   1.868   4.916   3.661 -0.2325  0.2822  0.2792
34629SOL    HW2 6330   1.760   4.817   3.701 -0.1574  0.3435  0.6428
34630SOL     OW 6331   2.248   1.286   0.171 -0.3217  0.0970 -0.5617
34630SOL    HW1 6332   2.287   1.202   0.196  0.4130  0.3117 -0.9317
34630SOL    HW2 6333   2.242   1.283   0.076 -1.0632  0.1419 -0.5200
34631SOL     OW 6334   1.805   4.526   9.815 -0.0761 -0.6067  0.0065
34631SOL    HW1 6335   1.883   4.492   9.859 -0.4545 -0.5271  0.7594
34631SOL    HW2 6336   1.814   4.498   9.724  0.5276 -1.1179  0.2183
34632SOL     OW 6337   3.743   7.825   1.313 -0.2811  0.0084 -0.0607
34632SOL    HW1 6338   3.810   7.845   1.248  0.3316  1.4845  0.9742
34632SOL    HW2 6339   3.726   7.731   1.302  0.3596  0.0650 -1.7948
34633SOL     OW 6340   9.541   1.586   6.214  0.3606  0.0088  0.1794
34633SOL    HW1 6341   9.567   1.536   6.291 -3.3131 -2.0726  0.2570
34633SOL    HW2 6342   9.509   1.669   6.249 -2.1004 -1.2523  1.1031
34634SOL     OW 6343   4.106   1.659   8.255 -0.4022 -0.2340  0.4960
34634SOL    HW1 6344   4.023   1.683   8.215 -0.7102 -0.6933  0.8535
34634SOL    HW2 6345   4.118   1.567   8.234 -0.1068 -0.2371  0.6629
34635SOL     OW 6346   4.239   6.271   3.171  0.5961 -0.1498 -0.3297
34635SOL    HW1 6347   4.295   6.230   3.237  1.4824  0.1041 -0.9148
34635SOL    HW2 6348   4.254   6.365   3.180 -0.4124 -0.0121  0.0953
34636SOL     OW 6349   9.063   8.531   4.251 -0.1096  0.4558  0.3178
34636SOL    HW1 6350   9.153   8.557   4.230 -0.4208  1.7730  0.5198
34636SOL    HW2 6351   9.072   8.467   4.322  0.6541  0.9348  0.6645
34637SOL     OW 6352   2.442   2.915  10.088 -0.5518 -0.0486  0.1207
34637SOL    HW1 6353   2.471   2.936  10.177 -1.6347  0.1562  0.4385
34637SOL    HW2 6354   2.388   2.836  10.099 -0.7406  0.0153 -0.3503
34638SOL     OW 6355   4.439   3.903   8.807 -0.5438 -0.0108 -1.0009
34638SOL    HW1 6356   4.526   3.882   8.774 -0.0701 -0.6329  0.5543
34638SOL    HW2 6357   4.381   3.841   8.762  0.5901 -3.7470  2.0816
34639SOL     OW 6358  10.272   6.333   5.317  0.2885  0.0064  0.1747
34639SOL    HW1 6359  10.247   6.423   5.297  0.1168 -0.3029 -1.0967
34639SOL    HW2 6360  10.367   6.331   5.304  0.2715 -0.0282  0.0556
34640SOL     OW 6361   8.414   1.300   3.378 -0.3359  0.0502 -0.3077
34640SOL    HW1 6362   8.406   1.224   3.320 -1.8128  0.7639 -1.0856
34640SOL    HW2 6363   8.416   1.375   3.320  1.4612  0.6210  0.4456
34641SOL     OW 6364   4.023   4.388   9.047  0.5947  0.2480 -0.2630
34641SOL    HW1 6365   4.005   4.315   8.988  1.0270 -0.1390  0.0762
34641SOL    HW2 6366   4.059   4.347   9.126  0.6568  0.8121  0.0075
34642SOL     OW 6367   1.700   9.426   0.180 -0.4628  0.2721  0.2369
34642SOL    HW1 6368   1.697   9.332   0.196  0.2386  0.3769  1.0923
34642SOL    HW2 6369   1.681   9.465   0.266 -0.9048  0.9134 -0.1434
34643SOL     OW 6370   7.459   3.962   7.949 -0.2806 -0.1817 -0.6578
34643SOL    HW1 6371   7.478   4.013   7.870  0.1487 -0.6345 -0.8502
34643SOL    HW2 6372   7.537   3.972   8.004  0.4715 -1.8667 -1.3565
34644SOL     OW 6373   9.450   5.610   0.190 -0.4392 -0.1520 -0.5558
34644SOL    HW1 6374   9.480   5.697   0.218 -0.3632  0.5406 -2.6532
34644SOL    HW2 6375   9.505   5.549   0.239 -0.7022  0.9399  1.1973
34645SOL     OW 6376   6.560   1.925   4.618  0.0148  0.0588  0.2541
34645SOL    HW1 6377   6.562   2.020   4.614  0.4512  0.0498  0.1196
34645SOL    HW2 6378   6.638   1.901   4.669  0.6637 -0.2653 -0.8441
34646SOL     OW 6379   3.282  10.042   0.027 -0.5466 -0.1119 -0.3211
34646SOL    HW1 6380   3.263  10.116  -0.031 -0.8094  0.5942  0.6444
34646SOL    HW2 6381   3.372  10.058   0.057 -1.7131  1.7504  2.5894
34647SOL     OW 6382  10.030   1.687   7.058  0.4979 -0.0310  0.1668
34647SOL    HW1 6383  10.007   1.748   6.989  0.6956  0.5186  0.5766
34647SOL    HW2 6384  10.109   1.643   7.026  1.2265  0.9899  0.4798
34648SOL     OW 6385   5.114   9.179   7.225 -0.2720  0.3943 -0.2729
34648SOL    HW1 6386   5.064   9.252   7.262 -1.1989 -0.6996  0.7437
34648SOL    HW2 6387   5.168   9.148   7.298 -2.6209 -2.2257  0.5705
34649SOL     OW 6388   1.652   6.958   3.890  0.3569 -0.3742  0.7180
34649SOL    HW1 6389   1.563   6.994   3.887  1.0375  1.4369  0.4930
34649SOL    HW2 6390   1.666   6.921   3.803 -0.7156 -2.1826  1.2665
34650SOL     OW 6391   1.925   9.065   7.434  0.5262  0.0550 -0.1967
34650SOL    HW1 6392   1.983   8.993   7.409  0.6420 -0.8229  2.2709
34650SOL    HW2 6393   1.984   9.135   7.462  0.4200  1.2921 -2.8123
34651SOL     OW 6394   5.500   8.623   2.439  0.1850  0.1596 -0.0404
34651SOL    HW1 6395   5.474   8.556   2.376 -1.5079 -0.3324  1.1190
34651SOL    HW2 6396   5.532   8.574   2.514 -0.2437  0.6658  0.4824
34652SOL     OW 6397   9.358   0.272   8.081 -0.1064  0.6635 -0.3327
34652SOL    HW1 6398   9.367   0.338   8.149  0.1110  0.5551 -0.2563
34652SOL    HW2 6399   9.318   0.197   8.125  0.6605  0.3462 -0.1655
34653SOL     OW 6400   8.597   3.204   2.129 -0.3220  0.5671  0.1311
34653SOL    HW1 6401   8.637   3.156   2.056 -0.3492  1.0002 -0.1734
34653SOL    HW2 6402   8.503   3.195   2.115 -0.3291  1.1552 -0.2311
34654SOL     OW 6403   2.676   6.651   9.600  0.6276  0.1899  0.5741
34654SOL    HW1 6404   2.721   6.669   9.517 -1.4613  0.2325 -0.6137
34654SOL    HW2 6405   2.617   6.726   9.611 -1.8218 -1.5754  0.1230
34655SOL     OW 6406   0.415   4.209   4.798 -0.3432  0.1817  0.5897
34655SOL    HW1 6407   0.325   4.211   4.828 -0.0924  0.9825  1.3232
34655SOL    HW2 6408   0.412   4.246   4.710 -0.8376 -0.5596  0.2895
34656SOL     OW 6409   5.792   1.706   7.333  0.2475 -0.3567  0.1026
34656SOL    HW1 6410   5.708   1.662   7.346 -0.1647  0.5384  0.5470
34656SOL    HW2 6411   5.790   1.781   7.392  1.1750 -0.0586 -0.2149
34657SOL     OW 6412   6.350   4.180   3.267 -0.1910  0.0731  0.3568
34657SOL    HW1 6413   6.445   4.174   3.281 -0.3600 -0.4871  1.3153
34657SOL    HW2 6414   6.314   4.203   3.353 -0.9062  0.5401 -0.0582
34658SOL     OW 6415   5.384   8.399  10.267  0.0135 -0.1683 -0.1124
34658SOL    HW1 6416   5.348   8.338  10.203  1.2141 -0.2100 -0.7737
34658SOL    HW2 6417   5.465   8.432  10.227  1.2229 -0.7817  1.6669
34659SOL     OW 6418   9.522   6.053   5.048  0.3183  0.4938  0.1008
34659SOL    HW1 6419   9.455   5.984   5.041  0.2368  0.6302 -0.4756
34659SOL    HW2 6420   9.605   6.006   5.043  0.3142  0.1549  2.2365
34660SOL     OW 6421   0.149   7.310   5.614 -0.0724 -0.0370  0.1564
34660SOL    HW1 6422   0.223   7.304   5.555  0.4413  1.1265  0.6442
34660SOL    HW2 6423   0.072   7.296   5.559  0.4737 -0.5221 -0.4852
34661SOL     OW 6424   3.743   0.631   0.488 -0.3262 -0.2873 -0.2595
34661SOL    HW1 6425   3.820   0.687   0.485 -0.1018 -0.5909 -0.2854
34661SOL    HW2 6426   3.728   0.605   0.397 -1.4593  1.0984 -0.4884
34662SOL     OW 6427   5.034   5.751   2.977  0.5048  0.4396  0.4010
34662SOL    HW1 6428   5.013   5.689   2.907 -0.1034  1.1811 -0.0822
34662SOL    HW2 6429   4.983   5.719   3.053 -2.5576  2.1918 -0.7355
34663SOL     OW 6430   1.138   0.014   0.005 -0.3876 -0.0934  0.3243
34663SOL    HW1 6431   1.166  -0.067   0.048 -0.4869 -1.2910 -1.7589
34663SOL    HW2 6432   1.138  -0.007  -0.088 -0.1164  2.4149 -0.3038
34664SOL     OW 6433   2.044   4.540   2.803  0.4351  0.0660  0.1944
34664SOL    HW1 6434   2.011   4.618   2.848  0.5983  0.2222  0.0440
34664SOL    HW2 6435   1.973   4.477   2.811 -0.0821  0.5429 -0.5012
34665SOL     OW 6436   3.773   3.414   1.040 -0.1083 -0.8909  0.0623
34665SOL    HW1 6437   3.849   3.470   1.025 -2.0091  1.1426 -3.0900
34665SOL    HW2 6438   3.785   3.341   0.979  0.2949 -1.7650  1.1441
34666SOL     OW 6439   9.281   6.071   9.471  0.1704  0.0464  0.0038
34666SOL    HW1 6440   9.316   6.145   9.520  1.2068  1.1693 -2.2678
34666SOL    HW2 6441   9.356   6.037   9.422 -0.8370 -0.8306 -1.0017
34667SOL     OW 6442   8.054   2.879   8.679  0.3648 -0.0215 -0.3887
34667SOL    HW1 6443   7.980   2.882   8.618  0.3052  1.4788 -0.2891
34667SOL    HW2 6444   8.125   2.840   8.628  0.0837  0.4383 -1.1665
34668SOL     OW 6445   1.687   5.136   9.373  0.0116 -0.6635 -0.3052
34668SOL    HW1 6446   1.731   5.057   9.343 -1.8089 -2.3628  1.2645
34668SOL    HW2 6447   1.649   5.173   9.293  1.8856 -0.6523 -1.2422
34669SOL     OW 6448   8.284   9.973   6.065 -0.6313 -0.1264 -0.3045
34669SOL    HW1 6449   8.271  10.021   6.147 -0.3467  2.7165 -1.7877
34669SOL    HW2 6450   8.197   9.942   6.042 -1.3346  1.7988 -0.4425
34670SOL     OW 6451   6.987   4.339   2.814 -0.2776 -0.2057  0.0813
34670SOL    HW1 6452   7.030   4.271   2.865  0.7519 -0.5009 -1.1375
34670SOL    HW2 6453   7.058   4.383   2.768 -1.0831  0.6889 -0.3321
34671SOL     OW 6454   6.432   6.636  10.188 -0.1532  0.0992 -0.0968
34671SOL    HW1 6455   6.420   6.730  10.194 -0.8981 -0.0861  2.6342
34671SOL    HW2 6456   6.358   6.605  10.136 -0.2486  0.9384 -0.4727
34672SOL     OW 6457   5.981   6.212   8.333 -0.2445 -0.4882  0.4195
34672SOL    HW1 6458   6.073   6.234   8.349  0.1157 -1.6256  0.0056
34672SOL    HW2 6459   5.970   6.220   8.238 -0.8990  0.7753  0.5757
34673SOL     OW 6460   0.125   5.698   0.618 -0.5083  0.0803 -0.6782
34673SOL    HW1 6461   0.095   5.683   0.528  0.1098  0.9586 -1.0353
34673SOL    HW2 6462   0.142   5.792   0.622  2.3925 -0.3565 -0.5681
34674SOL     OW 6463   6.054   7.023   5.470 -0.2703 -0.5983 -0.4325
34674SOL    HW1 6464   6.148   7.003   5.476 -0.0019  0.7822  0.3699
34674SOL    HW2 6465   6.012   6.958   5.527  0.2484 -0.8977 -0.3861
34675SOL     OW 6466   1.889   4.162   8.758  0.1129 -0.4801 -0.2559
34675SOL    HW1 6467   1.827   4.089   8.750 -0.0887 -0.2750 -0.5804
34675SOL    HW2 6468   1.889   4.203   8.672 -0.7068  0.6543  0.2648
34676SOL     OW 6469  10.142   6.684   2.329  0.1036 -0.1507 -0.0861
34676SOL    HW1 6470  10.201   6.691   2.254  0.1092  2.2402  0.0770
34676SOL    HW2 6471  10.180   6.615   2.383  2.2368  0.6671 -0.4437
34677SOL     OW 6472   5.960   7.583   7.890  0.1840  0.2036 -0.3013
34677SOL    HW1 6473   5.910   7.660   7.861 -1.1680 -0.2869  0.6682
34677SOL    HW2 6474   5.977   7.534   7.809  0.9602  1.4275 -0.9192
34678SOL     OW 6475   5.273   4.487   0.017  0.1383  0.0020 -0.3381
34678SOL    HW1 6476   5.264   4.462   0.109  1.5364 -0.0908 -0.2091
34678SOL    HW2 6477   5.365   4.510   0.007 -0.7862  4.2776 -0.6699
34679SOL     OW 6478   5.199   1.563   5.162 -0.0549 -0.2121  0.0284
34679SOL    HW1 6479   5.216   1.469   5.166  0.8541 -0.2105 -2.3010
34679SOL    HW2 6480   5.108   1.570   5.132  0.3511 -0.3991 -1.3063
34680SOL     OW 6481   5.284   6.464   7.186 -0.2476  0.3249 -0.0655
34680SOL    HW1 6482   5.374   6.487   7.210 -0.2782 -0.4673  0.8876
34680SOL    HW2 6483   5.287   6.370   7.169 -1.6137 -0.6969  4.1181
34681SOL     OW 6484   6.863   6.091   4.028 -0.0953  0.1317 -0.3580
34681SOL    HW1 6485   6.886   6.091   3.935 -0.0882 -3.0370 -0.4477
34681SOL    HW2 6486   6.780   6.138   4.032  1.8318  4.0092 -1.2682
34682SOL     OW 6487   4.793   1.873   5.420  0.3262 -0.4123 -0.2171
34682SOL    HW1 6488   4.854   1.825   5.364  1.0890 -0.9935  1.0735
34682SOL    HW2 6489   4.848   1.922   5.480 -0.3912  2.7562 -1.8859
34683SOL     OW 6490   8.191   7.921   1.773 -0.5587  0.3193 -0.0850
34683SOL    HW1 6491   8.209   8.011   1.747  1.0237 -0.2070 -0.9598
34683SOL    HW2 6492   8.209   7.918   1.867  1.3664  0.4960 -0.4071
34684SOL     OW 6493   5.143   4.970   3.136  0.0107  0.6543 -0.1293
34684SOL    HW1 6494   5.166   4.885   3.100  1.4609  1.1056 -0.3473
34684SOL    HW2 6495   5.151   4.960   3.231 -1.4617  0.1188 -0.0366
34685SOL     OW 6496   5.174   7.110   9.554 -0.3102  0.2347  0.3554
34685SOL    HW1 6497   5.253   7.058   9.565 -0.6125 -0.3499 -0.1654
34685SOL    HW2 6498   5.116   7.082   9.625 -0.2529  0.2731  0.4165
34686SOL     OW 6499   9.877  10.274   3.778 -0.1525 -0.2176 -0.0464
34686SOL    HW1 6500   9.911  10.321   3.702 -2.2051  3.7908  1.1966
34686SOL    HW2 6501   9.940  10.292   3.848  0.8641 -2.4987 -0.2716
34687SOL     OW 6502   0.326   0.937   9.393 -0.4574  0.4343 -0.2620
34687SOL    HW1 6503   0.330   0.998   9.467  0.9805  0.4921 -0.3732
34687SOL    HW2 6504   0.344   0.851   9.432 -0.4655  0.3529 -0.4353
34688SOL     OW 6505   2.098   0.243   0.723  0.0221  0.0669 -0.3949
34688SOL    HW1 6506   2.055   0.170   0.768 -0.5425  0.3186 -0.5154
34688SOL    HW2 6507   2.099   0.313   0.788 -0.1353  0.1998 -0.5375
34689SOL     OW 6508   5.597   9.058   9.638  0.2447  0.0140 -0.2430
34689SOL    HW1 6509   5.672   9.107   9.604 -0.2782 -0.4500 -2.2487
34689SOL    HW2 6510   5.559   9.114   9.705 -0.3701  2.4314 -2.4661
34690SOL     OW 6511   0.395   1.444   9.227  0.5620 -0.1910 -0.6160
34690SOL    HW1 6512   0.343   1.364   9.236 -0.0897  0.2482 -0.3190
34690SOL    HW2 6513   0.483   1.419   9.255  0.0843 -0.5121  0.7047
34691SOL     OW 6514   0.591   7.299   6.607  0.7967  0.1115 -0.1611
34691SOL    HW1 6515   0.545   7.314   6.690  0.0328  0.0497 -0.5632
34691SOL    HW2 6516   0.684   7.300   6.630  0.6022  0.5025  0.6267
34692SOL     OW 6517   4.258   0.052   0.298 -0.0296  0.0771  0.2020
34692SOL    HW1 6518   4.341   0.021   0.261 -0.4922 -2.2293  0.8966
34692SOL    HW2 6519   4.260   0.020   0.389 -1.7845 -0.3004  0.1374
34693SOL     OW 6520   0.434   4.227  10.058 -0.2533 -0.0060  0.2967
34693SOL    HW1 6521   0.424   4.137  10.089 -2.8617 -0.0104 -0.3500
34693SOL    HW2 6522   0.400   4.281  10.130 -1.2959  0.2866 -0.4016
34694SOL     OW 6523   2.381   1.841   1.053 -0.7031 -0.0315  0.3867
34694SOL    HW1 6524   2.411   1.844   0.962 -1.9433  1.7074 -0.0049
34694SOL    HW2 6525   2.308   1.780   1.053 -0.7796  0.0615  0.1858
34695SOL     OW 6526   0.037   2.411   8.253 -0.3267  0.5529  0.4066
34695SOL    HW1 6527  -0.032   2.462   8.294 -0.5211  0.6728 -0.0655
34695SOL    HW2 6528   0.118   2.446   8.290 -0.5487 -0.4204  1.9178
34696SOL     OW 6529   0.167   0.718   9.237 -0.1110 -0.2395  0.2064
34696SOL    HW1 6530   0.156   0.630   9.274 -0.0245 -0.1363  0.4775
34696SOL    HW2 6531   0.209   0.769   9.307  0.2348 -0.0961 -0.1018
34697SOL     OW 6532   2.526   3.476   0.527  0.1522 -0.1005 -0.7032
34697SOL    HW1 6533   2.432   3.493   0.521  0.4117  1.3209 -1.2325
34697SOL    HW2 6534   2.561   3.552   0.574  1.2230  0.1987 -1.9087
34698SOL     OW 6535   4.459   7.229   0.398  0.5643 -0.2626  0.1700
34698SOL    HW1 6536   4.430   7.287   0.468 -0.5468  0.2742 -0.6985
34698SOL    HW2 6537   4.511   7.162   0.442  2.4747  1.7332  1.1319
34699SOL     OW 6538  10.479   5.481   5.760 -0.1724  0.1783  0.0328
34699SOL    HW1 6539  10.571   5.504   5.750  0.6317 -2.5022  0.3090
34699SOL    HW2 6540  10.450   5.455   5.673  0.8668 -3.5917  0.6177
34700SOL     OW 6541   1.463   0.084   9.427  0.2868 -0.1187  0.2419
34700SOL    HW1 6542   1.556   0.107   9.417  0.4087 -1.1957 -1.5314
34700SOL    HW2 6543   1.444   0.099   9.519  2.2418  0.0803  0.6500
34701SOL     OW 6544   5.483   1.577   5.279 -0.0706  0.5810 -0.2388
34701SOL    HW1 6545   5.482   1.672   5.288  0.0638  0.4954  0.7697
34701SOL    HW2 6546   5.398   1.555   5.240 -1.6183  0.8392  2.7234
34702SOL     OW 6547   7.823   3.599   9.842 -0.3155  0.5129  0.1381
34702SOL    HW1 6548   7.837   3.693   9.855 -1.0563  0.7748 -0.8782
34702SOL    HW2 6549   7.899   3.558   9.884  0.4807  1.6082 -0.1716
34703SOL     OW 6550   8.505   3.887   9.553  0.3185 -0.0663 -0.4114
34703SOL    HW1 6551   8.473   3.935   9.630 -0.3542 -0.4895 -0.4119
34703SOL    HW2 6552   8.427   3.875   9.499  0.5264 -0.9226 -0.5315
34704SOL     OW 6553   6.078   8.127   9.920  0.4991 -0.4385 -0.1279
34704SOL    HW1 6554   6.143   8.135   9.990  0.8555 -0.4577 -0.4489
34704SOL    HW2 6555   6.131   8.125   9.840  0.3518 -3.5445 -0.2686
34705SOL     OW 6556   2.784   2.105   0.499  0.1934  0.3618 -0.0830
34705SOL    HW1 6557   2.694   2.099   0.467 -0.2337  0.0496  1.1127
34705SOL    HW2 6558   2.832   2.038   0.448 -0.1716  0.7254 -0.9218
34706SOL     OW 6559   7.251   2.794   5.008 -0.2355 -0.1893  0.1235
34706SOL    HW1 6560   7.304   2.852   4.952  1.8798  0.1939  2.3589
34706SOL    HW2 6561   7.207   2.854   5.069 -2.3361 -0.6178 -0.8906
34707SOL     OW 6562   4.683   9.543   4.378 -0.2508 -0.2378 -0.0492
34707SOL    HW1 6563   4.750   9.611   4.392  0.0067 -0.2797 -1.0343
34707SOL    HW2 6564   4.601   9.592   4.368 -0.3057 -0.1613  0.7033
34708SOL     OW 6565   3.972   8.912   9.363  0.2241  0.1650 -0.1409
34708SOL    HW1 6566   4.007   8.884   9.279  0.2022 -0.3983  0.0365
34708SOL    HW2 6567   3.971   9.008   9.358 -0.1999  0.1198 -0.9437
34709SOL     OW 6568   1.216   4.837   3.108  0.3991  0.1404  0.2671
34709SOL    HW1 6569   1.135   4.856   3.060  0.7089  1.5059  0.2553
34709SOL    HW2 6570   1.198   4.866   3.197  1.2133  1.4241  0.0314
34710SOL     OW 6571   5.283   8.152   2.119  0.3140 -0.0623  0.0054
34710SOL    HW1 6572   5.207   8.157   2.178 -0.0950  0.7355 -0.5713
34710SOL    HW2 6573   5.245   8.141   2.032  0.8249  1.0045 -0.3712
34711SOL     OW 6574   0.037   4.532   4.994  0.7460  0.6360 -0.2399
34711SOL    HW1 6575   0.117   4.579   4.970 -0.7653  3.0328 -0.9599
34711SOL    HW2 6576  -0.017   4.536   4.915 -1.3198  1.9513  1.1238
34712SOL     OW 6577   1.259   1.456  10.347 -0.1361 -0.3523 -0.0511
34712SOL    HW1 6578   1.353   1.449  10.335 -0.0160  1.0661 -0.1657
34712SOL    HW2 6579   1.247   1.457  10.442  0.1117  0.7721 -0.0143
34713SOL     OW 6580   0.927   7.012   5.793 -0.3524  0.4475 -0.0579
34713SOL    HW1 6581   0.990   7.084   5.791  0.1383  0.0155 -0.5592
34713SOL    HW2 6582   0.963   6.947   5.733 -0.5580 -0.4087  0.7092
34714SOL     OW 6583   1.807   0.749   4.292 -0.5168 -0.0812  0.0862
34714SOL    HW1 6584   1.867   0.819   4.318  0.4335 -1.5285  2.0062
34714SOL    HW2 6585   1.859   0.693   4.234 -0.8044 -0.0241 -0.2320
34715SOL     OW 6586   9.310   5.130   6.576  0.3242  0.0895  0.0545
34715SOL    HW1 6587   9.301   5.042   6.614  1.0344 -0.0717 -0.1364
34715SOL    HW2 6588   9.374   5.119   6.506  1.0290  0.9156  0.5530
34716SOL     OW 6589   7.598   4.111   3.847 -0.2673  0.2353 -0.3214
34716SOL    HW1 6590   7.558   4.076   3.767  1.1558  2.1070 -1.9572
34716SOL    HW2 6591   7.552   4.193   3.863  0.3301  0.5098  0.0127
34717SOL     OW 6592   0.729   4.930   4.799 -0.1351 -0.3567  0.0703
34717SOL    HW1 6593   0.821   4.955   4.806 -0.7497  1.8069  1.3362
34717SOL    HW2 6594   0.728   4.836   4.817  1.9957 -0.8055 -1.8034
34718SOL     OW 6595   3.417   0.391   4.142  0.5681 -0.3887  0.2054
34718SOL    HW1 6596   3.439   0.481   4.119  1.3763 -0.2248  1.5382
34718SOL    HW2 6597   3.356   0.363   4.074 -1.6874  1.9942  1.0924
34719SOL     OW 6598   9.006   1.767   7.039 -0.0487  0.1856 -0.0094
34719SOL    HW1 6599   9.101   1.770   7.034 -0.0784  0.0024 -0.8047
34719SOL    HW2 6600   8.977   1.749   6.949 -0.8651  1.1109  0.0485
34720SOL     OW 6601   6.560   8.386   2.505  0.3114 -0.2466 -0.1559
34720SOL    HW1 6602   6.605   8.436   2.573  2.0873 -0.6593 -0.9836
34720SOL    HW2 6603   6.585   8.295   2.520 -0.7485 -0.5823 -0.2917
34721SOL     OW 6604   7.658   4.828   1.495  0.2414 -0.0829 -0.2127
34721SOL    HW1 6605   7.753   4.834   1.491  0.2563 -0.8488 -2.0646
34721SOL    HW2 6606   7.628   4.868   1.413 -0.9176 -1.3883 -0.4704
34722SOL     OW 6607   7.139   8.969   6.387 -0.4202 -0.7969  0.6156
34722SOL    HW1 6608   7.166   8.877   6.385  2.3267 -0.0897 -0.5768
34722SOL    HW2 6609   7.155   9.000   6.298 -0.8626  0.9530  1.1143
34723SOL     OW 6610   6.287   1.201   7.304 -0.5973 -0.5837 -0.3782
34723SOL    HW1 6611   6.225   1.263   7.343  1.3890  1.4687 -0.2435
34723SOL    HW2 6612   6.289   1.224   7.211  1.3032  0.7443 -0.0748
34724SOL     OW 6613   0.581   6.941   4.082 -0.0043  0.1297  0.5715
34724SOL    HW1 6614   0.489   6.945   4.110 -0.5411 -2.1983 -0.6048
34724SOL    HW2 6615   0.609   6.852   4.107  1.9009  0.7518  0.7667
34725SOL     OW 6616   6.224   2.777   8.547  0.3643 -0.4259  0.1840
34725SOL    HW1 6617   6.147   2.834   8.549 -0.2085 -1.1904  2.2405
34725SOL    HW2 6618   6.189   2.690   8.528  0.6528 -0.8329  1.4306
34726SOL     OW 6619   9.567   4.325   8.217 -0.7830  0.0411 -0.0621
34726SOL    HW1 6620   9.502   4.391   8.241 -1.5047 -1.4093  2.2535
34726SOL    HW2 6621   9.651   4.372   8.222 -1.4371  1.3956 -1.0529
34727SOL     OW 6622   9.948   2.730   6.242 -0.6151  0.2803  0.3107
34727SOL    HW1 6623  10.023   2.737   6.184 -0.4275 -3.1321 -0.0091
34727SOL    HW2 6624   9.982   2.753   6.329  0.3378  0.4375 -0.0977
34728SOL     OW 6625   4.263   1.895   2.327 -0.0150  0.0173 -0.1610
34728SOL    HW1 6626   4.346   1.877   2.282  0.7298  0.6133  0.9328
34728SOL    HW2 6627   4.288   1.921   2.415 -1.4381 -1.0413  0.5996
34729SOL     OW 6628   6.304   6.735   9.425  0.4638 -0.1057 -0.3208
34729SOL    HW1 6629   6.257   6.738   9.509  1.1322  2.5586  0.0381
34729SOL    HW2 6630   6.247   6.780   9.364  1.7148  1.5850 -0.2980
34730SOL     OW 6631   9.616   1.248   0.431  0.1607 -0.1549 -0.2128
34730SOL    HW1 6632   9.587   1.174   0.485  2.0850 -0.9757 -0.2225
34730SOL    HW2 6633   9.679   1.295   0.486  0.7033  0.1162 -1.0480
34731SOL     OW 6634   5.153   8.249   6.347 -0.1143  0.1574  0.3358
34731SOL    HW1 6635   5.206   8.200   6.284 -1.1374 -0.2762 -0.2219
34731SOL    HW2 6636   5.208   8.257   6.424  0.4050 -1.1204  0.1212
34732SOL     OW 6637   0.327   5.330   5.876 -0.3077 -0.2154 -0.3985
34732SOL    HW1 6638   0.412   5.368   5.899  0.2565 -1.1428 -0.8880
34732SOL    HW2 6639   0.318   5.349   5.782 -1.2119  0.9388 -0.0953
34733SOL     OW 6640   2.583   5.633  10.239  0.4053  0.6984 -0.0356
34733SOL    HW1 6641   2.505   5.680  10.208  0.0703  0.8344  0.9522
34733SOL    HW2 6642   2.556   5.598  10.324  0.3622 -2.0483 -1.1030
34734SOL     OW 6643   1.931   4.068   0.822 -0.2028 -0.8076 -0.4887
34734SOL    HW1 6644   1.888   4.058   0.907 -0.3491 -2.3033 -0.7066
34734SOL    HW2 6645   1.878   4.132   0.776 -0.7819 -0.8250  0.1345
34735SOL     OW 6646   6.994   6.029   4.771 -0.3003 -0.3057 -0.3277
34735SOL    HW1 6647   7.074   6.034   4.718  0.0800 -0.4764  0.2213
34735SOL    HW2 6648   7.012   6.086   4.846 -0.6366 -0.4707 -0.1242
34736SOL     OW 6649   2.983   2.211   5.907  0.1959  0.2040 -0.0605
34736SOL    HW1 6650   3.028   2.292   5.880  1.6560 -0.8309 -0.8752
34736SOL    HW2 6651   3.034   2.179   5.981 -2.1450  1.5369  2.2921
34737SOL     OW 6652   4.948   2.490   3.459 -0.3541  0.9235  0.6361
34737SOL    HW1 6653   5.014   2.559   3.467 -0.1167  0.6415  1.2859
34737SOL    HW2 6654   5.000   2.410   3.444 -0.7020  1.1175 -2.0469
34738SOL     OW 6655   6.533   4.494   0.772  0.8743 -0.0204  0.2958
34738SOL    HW1 6656   6.538   4.508   0.677 -0.0833  0.3668  0.2971
34738SOL    HW2 6657   6.578   4.569   0.810 -0.6314  0.9535  0.1954
34739SOL     OW 6658   3.670  10.457   8.849  0.5501  0.8444 -0.1700
34739SOL    HW1 6659   3.613  10.441   8.774 -1.1223  0.5672  1.0968
34739SOL    HW2 6660   3.739  10.391   8.842  0.5049  0.9074 -1.5014
34740SOL     OW 6661   3.353   8.283   0.606  0.2509  0.0488 -0.1377
34740SOL    HW1 6662   3.418   8.354   0.614 -0.1899  0.4588 -0.1234
34740SOL    HW2 6663   3.308   8.301   0.524  2.3488 -2.1106 -1.9065
34741SOL     OW 6664   8.762   6.785   6.722  0.5288 -0.2435  0.7698
34741SOL    HW1 6665   8.678   6.810   6.683  0.5679 -0.3821  0.5911
34741SOL    HW2 6666   8.757   6.690   6.730 -0.2193 -0.0636  2.8361
34742SOL     OW 6667   7.384   5.112   2.763 -0.0158  0.1605 -0.3824
34742SOL    HW1 6668   7.334   5.035   2.791 -0.4347  0.4223 -0.4107
34742SOL    HW2 6669   7.460   5.075   2.717 -0.5028 -0.2283 -0.8902
34743SOL     OW 6670   6.392   2.325   6.132 -0.4166 -0.6546  0.4693
34743SOL    HW1 6671   6.300   2.351   6.133 -0.2867 -0.1425  2.3072
34743SOL    HW2 6672   6.440   2.407   6.145  0.2744 -1.0259  0.2928
34744SOL     OW 6673   3.915   5.909  10.189 -0.3711 -0.4928  0.1215
34744SOL    HW1 6674   3.839   5.967  10.194 -0.4086 -0.4262 -0.9660
34744SOL    HW2 6675   3.973   5.951  10.126  0.0007 -1.1909 -0.0126
34745SOL     OW 6676   3.214   5.901   5.707  0.3242 -0.0326 -0.0326
34745SOL    HW1 6677   3.136   5.866   5.750 -0.1840 -1.0531 -1.6684
34745SOL    HW2 6678   3.240   5.976   5.760 -1.0987 -0.3663  1.1868
34746SOL     OW 6679   7.898   6.125   0.081 -0.0966 -0.7741 -0.0869
34746SOL    HW1 6680   7.900   6.111  -0.014 -0.8898 -0.8955 -0.0916
34746SOL    HW2 6681   7.833   6.063   0.113  1.3415 -1.8984  0.7567
34747SOL     OW 6682   8.558   0.241   0.372  0.2107  0.6699 -0.4534
34747SOL    HW1 6683   8.597   0.313   0.322  1.1061  0.7486  0.3233
34747SOL    HW2 6684   8.615   0.231   0.448  0.3156 -1.1112 -0.7289
34748SOL     OW 6685   8.765   0.747   9.377  0.2971  0.1638 -0.0898
34748SOL    HW1 6686   8.705   0.764   9.449  2.2741  2.1164  1.2396
34748SOL    HW2 6687   8.757   0.823   9.320  1.4424  0.4642  0.1153
34749SOL     OW 6688   1.114   0.060   8.132 -0.8618  0.0473  0.0163
34749SOL    HW1 6689   1.130   0.025   8.220 -1.0475  1.1957  0.5211
34749SOL    HW2 6690   1.046   0.125   8.144  0.8221  2.0163 -0.5531
34750SOL     OW 6691   0.807   1.827   8.323  0.5491 -0.2127  0.0865
34750SOL    HW1 6692   0.758   1.865   8.396 -1.2516 -1.4496 -0.3912
34750SOL    HW2 6693   0.795   1.733   8.332 -0.2373 -0.3929 -2.0532
34751SOL     OW 6694   1.238   6.713   5.920  0.6092 -0.0662 -0.1916
34751SOL    HW1 6695   1.297   6.753   5.984  0.5061 -1.8097  1.0565
34751SOL    HW2 6696   1.204   6.635   5.964 -3.2056  1.1584 -0.5529
34752SOL     OW 6697   7.494   3.883  10.345 -0.4420  0.1999  0.2616
34752SOL    HW1 6698   7.588   3.865  10.342 -0.6453 -0.9442  0.2508
34752SOL    HW2 6699   7.484   3.951  10.411  0.8188  3.2924 -2.4367
34753SOL     OW 6700   0.428   7.190   1.719  0.4159 -0.5974 -0.1267
34753SOL    HW1 6701   0.438   7.219   1.629 -2.3928  1.7503  0.1576
34753SOL    HW2 6702   0.358   7.125   1.716  0.9178 -1.1639  0.2610
34754SOL     OW 6703   4.887   0.259   3.339  0.2605 -0.5851  0.4996
34754SOL    HW1 6704   4.899   0.354   3.346 -0.0260 -0.5425  0.4444
34754SOL    HW2 6705   4.976   0.224   3.337  0.5079 -0.0739 -2.7053
34755SOL     OW 6706  10.242   3.192   7.304 -0.5707  0.1147 -0.9952
34755SOL    HW1 6707  10.186   3.253   7.254 -0.5085 -1.6870 -3.4628
34755SOL    HW2 6708  10.329   3.204   7.267 -0.0543  0.2089  0.2083
34756SOL     OW 6709  10.266   7.503   5.227 -0.0278  0.2939  0.6221
34756SOL    HW1 6710  10.197   7.544   5.175 -0.4152 -1.1400 -0.0442
34756SOL    HW2 6711  10.288   7.423   5.179 -0.6324 -1.2884  2.8212
34757SOL     OW 6712   2.166   0.272   4.627 -0.1871 -0.2565 -0.4031
34757SOL    HW1 6713   2.108   0.199   4.649  0.8347 -1.2114 -0.7613
34757SOL    HW2 6714   2.163   0.330   4.703 -0.9958 -0.6830 -0.1024
34758SOL     OW 6715   1.061   9.653   3.423 -0.3430  0.2853 -0.3697
34758SOL    HW1 6716   0.980   9.615   3.389 -1.9914  1.5694  1.8607
34758SOL    HW2 6717   1.066   9.623   3.514  0.0693  2.5950  0.4377
34759SOL     OW 6718   5.592   8.689   3.463  0.0445  0.4002 -0.0855
34759SOL    HW1 6719   5.607   8.644   3.380 -0.7900  1.3456 -0.7670
34759SOL    HW2 6720   5.499   8.675   3.481  0.3012 -0.1294  0.8989
34760SOL     OW 6721   2.307   8.031   5.351 -0.0052 -0.0201  0.1524
34760SOL    HW1 6722   2.258   7.950   5.336  0.0746 -0.2171  0.9169
34760SOL    HW2 6723   2.361   8.012   5.428 -0.9700  1.2129  1.1601
34761SOL     OW 6724   3.242   0.434   2.667 -0.1458 -0.3413  0.3900
34761SOL    HW1 6725   3.177   0.365   2.652  0.3274 -0.4983 -1.0840
34761SOL    HW2 6726   3.289   0.441   2.584  2.0255 -0.5411  1.5404
34762SOL     OW 6727   8.191   3.765   7.238  0.7720  0.2726  0.1499
34762SOL    HW1 6728   8.268   3.758   7.294  1.1663 -0.7027 -0.4786
34762SOL    HW2 6729   8.170   3.674   7.215 -2.1818  0.2383  2.4374
34763SOL     OW 6730   5.139   1.247   9.927  0.1049 -0.0013 -0.2994
34763SOL    HW1 6731   5.047   1.227   9.911 -0.0841  1.4309 -1.1379
34763SOL    HW2 6732   5.153   1.223  10.019 -0.8525 -1.0404 -0.3960
34764SOL     OW 6733   3.079   9.305   0.743 -0.7407 -0.2917  0.1231
34764SOL    HW1 6734   3.155   9.252   0.766  0.7555  1.9831  0.8035
34764SOL    HW2 6735   3.112   9.368   0.679 -2.1254  0.5657  0.2209
34765SOL     OW 6736   9.765   7.374   8.826  0.1973 -0.5234  0.1272
34765SOL    HW1 6737   9.853   7.409   8.839  0.1104  0.4358 -1.4624
34765SOL    HW2 6738   9.774   7.280   8.838  1.0862 -0.2793  1.5825
34766SOL     OW 6739   8.955   4.217   6.236 -0.0101 -0.0134 -0.2585
34766SOL    HW1 6740   9.031   4.265   6.204  1.6764 -1.7458  0.9175
34766SOL    HW2 6741   8.891   4.222   6.165  1.4647  0.9221 -1.5731
34767SOL     OW 6742   7.147   2.801   6.866  0.6191 -0.4637 -0.3738
34767SOL    HW1 6743   7.162   2.790   6.960 -1.1531  0.0774 -0.0048
34767SOL    HW2 6744   7.052   2.801   6.856  0.6998  1.7286 -1.8804
34768SOL     OW 6745   1.863   8.637   2.593  0.1000 -0.0795 -0.0998
34768SOL    HW1 6746   1.952   8.605   2.610  0.7023 -0.2543 -3.0566
34768SOL    HW2 6747   1.874   8.732   2.584 -0.5863  0.2980  2.3738
34769SOL     OW 6748   6.136   2.259   1.674 -0.3432 -0.4218 -0.3943
34769SOL    HW1 6749   6.206   2.309   1.632 -0.3811  0.7223  0.8326
34769SOL    HW2 6750   6.180   2.181   1.708  0.1405 -0.2087 -0.5121
34770SOL     OW 6751  10.219   7.005   4.321  0.3115  0.3612 -0.3102
34770SOL    HW1 6752  10.188   6.922   4.285  0.5130 -1.0118  2.4065
34770SOL    HW2 6753  10.152   7.029   4.386  0.2263  2.3993 -1.0778
34771SOL     OW 6754   9.691   6.385   7.285  0.8000 -0.4563 -0.0892
34771SOL    HW1 6755   9.775   6.430   7.298 -0.3712  1.5194  1.0773
34771SOL    HW2 6756   9.698   6.305   7.337  1.9294 -0.2963  0.0273
34772SOL     OW 6757   7.207   7.571   9.978 -0.5158  0.3164  0.1463
34772SOL    HW1 6758   7.209   7.508   9.906 -1.4341 -1.9244  1.9451
34772SOL    HW2 6759   7.122   7.614   9.970 -0.6235  0.0625 -0.0679
34773SOL     OW 6760   6.917   8.190   7.100  0.0499  0.3308 -0.1320
34773SOL    HW1 6761   7.004   8.168   7.132 -0.4703 -1.9178 -0.1040
34773SOL    HW2 6762   6.858   8.168   7.172 -0.6386  0.9302 -0.4950
34774SOL     OW 6763   5.651   6.767   9.591 -0.2643 -0.3236 -0.0271
34774SOL    HW1 6764   5.637   6.683   9.548 -0.5091 -0.6420  0.6714
34774SOL    HW2 6765   5.619   6.755   9.680 -0.7332  0.6485 -0.0501
34775SOL     OW 6766   9.285   0.409   4.860 -0.5507  0.4640  0.0511
34775SOL    HW1 6767   9.240   0.365   4.789 -0.3642 -2.6484  1.7059
34775SOL    HW2 6768   9.241   0.379   4.940  2.6234 -0.5822  1.5777
34776SOL     OW 6769  10.034   1.753   5.703  0.2062 -0.0595 -0.3038
34776SOL    HW1 6770   9.984   1.821   5.750  2.4715  0.7382  1.1264
34776SOL    HW2 6771  10.084   1.802   5.638  1.0781 -0.4631  0.0480
34777SOL     OW 6772   0.413   1.595   5.741 -0.6431 -0.4533 -0.3607
34777SOL    HW1 6773   0.443   1.516   5.697 -0.7006 -0.3891 -0.5150
34777SOL    HW2 6774   0.336   1.567   5.791 -0.5043 -0.5529 -0.2022
34778SOL     OW 6775   3.789   3.972   8.112 -0.4695 -0.2561 -0.1759
34778SOL    HW1 6776   3.829   3.926   8.038  1.6898 -2.0272  1.9573
34778SOL    HW2 6777   3.697   3.983   8.086  0.5051  0.7884 -3.7902
34779SOL     OW 6778   6.444   7.952   2.105  0.0330 -0.0434  0.2978
34779SOL    HW1 6779   6.352   7.973   2.092  0.8251  1.9598 -3.6905
34779SOL    HW2 6780   6.479   8.027   2.154 -0.2794 -0.3001  0.9097
34780SOL     OW 6781   0.443   2.682   1.619 -0.0689 -0.7048  0.4265
34780SOL    HW1 6782   0.527   2.689   1.573  0.0620 -0.4790  0.6967
34780SOL    HW2 6783   0.434   2.765   1.664 -0.5010 -0.6835  0.2981
34781SOL     OW 6784   2.337   5.465   6.076  0.4380 -0.0515 -0.8112
34781SOL    HW1 6785   2.255   5.429   6.109  0.1756  1.1087 -0.1230
34781SOL    HW2 6786   2.398   5.456   6.149  0.3564  0.8934 -0.6141
34782SOL     OW 6787   6.986   8.492   7.718 -0.1348  0.4761  0.1876
34782SOL    HW1 6788   6.940   8.543   7.652  1.4242 -0.9402 -2.1333
34782SOL    HW2 6789   6.928   8.417   7.735  0.1498  0.0029 -0.8426
34783SOL     OW 6790   3.753   5.740   3.368  0.0913  0.1450 -0.1306
34783SOL    HW1 6791   3.737   5.834   3.371 -1.1054 -0.0214 -0.6604
34783SOL    HW2 6792   3.844   5.732   3.339  0.3230  1.1353  0.2832
34784SOL     OW 6793   7.991   9.020   4.126  0.1170  0.3212 -0.0149
34784SOL    HW1 6794   7.993   9.065   4.041  1.4801  0.7693  0.2287
34784SOL    HW2 6795   8.066   9.056   4.173  2.1696 -3.1476 -0.2840
34785SOL     OW 6796   2.529   0.615   2.199 -0.2860  0.0626 -0.3284
34785SOL    HW1 6797   2.517   0.567   2.118 -0.2923 -0.7435  0.1421
34785SOL    HW2 6798   2.472   0.692   2.191 -1.9249 -1.0959 -0.2168
34786SOL     OW 6799  10.313   7.965   0.413 -0.3834  0.3189  0.4427
34786SOL    HW1 6800  10.306   8.022   0.489  0.3060  0.8771  0.0975
34786SOL    HW2 6801  10.380   8.006   0.357  0.0478 -0.7512  0.1329
34787SOL     OW 6802   8.981   3.342   1.937 -0.6219 -0.4290 -0.4195
34787SOL    HW1 6803   8.895   3.350   1.896 -1.2819 -0.0501  0.9484
34787SOL    HW2 6804   8.967   3.286   2.013  0.1186  0.3717  0.3514
34788SOL     OW 6805   1.751   5.903   7.060  0.1871  0.4235 -0.6535
34788SOL    HW1 6806   1.832   5.954   7.054  0.3574  0.3347  0.6797
34788SOL    HW2 6807   1.776   5.822   7.104 -0.6617  0.4911 -0.0240
34789SOL     OW 6808   5.086   5.145   2.933 -0.2680  0.2153 -0.4970
34789SOL    HW1 6809   5.108   5.083   3.001  0.1446  1.8126  0.8813
34789SOL    HW2 6810   5.018   5.200   2.972 -1.8875 -0.4021 -2.2867
34790SOL     OW 6811   1.908   1.445   5.215 -0.2492  0.3266  0.6271
34790SOL    HW1 6812   1.831   1.421   5.163 -1.2533  0.9119  1.7782
34790SOL    HW2 6813   1.982   1.405   5.169 -1.1159  0.5525 -1.0506
34791SOL     OW 6814   5.395  10.084   4.499 -0.4357 -0.3816  0.8310
34791SOL    HW1 6815   5.357  10.022   4.562 -1.0210  0.4452  1.2969
34791SOL    HW2 6816   5.320  10.130   4.462  0.0681  0.9177  1.3866
34792SOL     OW 6817   7.211   5.903   3.227  0.5080 -0.2937 -0.2597
34792SOL    HW1 6818   7.145   5.919   3.295  0.9963 -1.3467  0.4925
34792SOL    HW2 6819   7.287   5.953   3.256  0.8607 -1.0830  0.2282
34793SOL     OW 6820   6.454   7.208  10.169  0.0163 -0.1306 -0.2468
34793SOL    HW1 6821   6.474   7.301  10.174  0.5744 -0.1887 -1.0957
34793SOL    HW2 6822   6.538   7.165  10.184 -0.7099 -0.6293  3.1811
34794SOL     OW 6823   6.802   6.258   2.035 -0.3511  0.1698 -0.1637
34794SOL    HW1 6824   6.836   6.278   2.122  1.1983 -0.8098 -0.5023
34794SOL    HW2 6825   6.867   6.199   1.996 -1.5918 -0.3822 -1.5398
34795SOL     OW 6826   9.786   0.496   8.172  0.5297  0.0548  0.1194
34795SOL    HW1 6827   9.864   0.441   8.160  0.2114 -0.0528 -1.5834
34795SOL    HW2 6828   9.718   0.435   8.200 -0.0864 -0.6873 -2.7155
34796SOL     OW 6829   2.781   6.750   0.832 -0.7602 -0.6547  0.0865
34796SOL    HW1 6830   2.818   6.722   0.749  2.1530  0.7190  0.7678
34796SOL    HW2 6831   2.795   6.676   0.891  0.3121 -0.4270  0.1405
34797SOL     OW 6832   2.700   6.879  10.326 -0.3760 -0.2823 -0.0566
34797SOL    HW1 6833   2.660   6.857  10.242 -0.5936  0.3138 -0.1154
34797SOL    HW2 6834   2.630   6.863  10.390  0.1320 -1.8157  0.1522
34798SOL     OW 6835   6.727   0.144   4.860  0.1468  0.0573  0.2390
34798SOL    HW1 6836   6.741   0.177   4.772 -0.9021  0.0013  0.0468
34798SOL    HW2 6837   6.685   0.216   4.907  1.6497  0.4737  1.0137
34799SOL     OW 6838   7.660  10.271  10.123  0.0658 -1.1567 -0.0828
34799SOL    HW1 6839   7.708  10.348  10.156  0.9893 -1.5801 -0.4096
34799SOL    HW2 6840   7.670  10.276  10.028  1.3383 -2.4356 -0.0369
34800SOL     OW 6841   3.736   2.859   1.677 -0.1662 -0.2961 -0.1845
34800SOL    HW1 6842   3.668   2.864   1.611 -0.2194  1.3762 -0.0495
34800SOL    HW2 6843   3.699   2.904   1.753  0.5399 -0.6453  0.3785
34801SOL     OW 6844   1.057   6.375   7.198  0.1552 -0.1010  0.5679
34801SOL    HW1 6845   1.152   6.381   7.182  0.0850 -1.6029 -0.7034
34801SOL    HW2 6846   1.024   6.463   7.179  1.4763  0.9816  2.8555
34802SOL     OW 6847   5.712   6.160  10.245 -0.2361  0.4067  0.6841
34802SOL    HW1 6848   5.694   6.135  10.335 -0.1536 -1.8963  0.1217
34802SOL    HW2 6849   5.800   6.199  10.248  0.8970 -1.9794  1.3122
34803SOL     OW 6850   1.946   4.523   0.353  0.2466 -0.0453  0.2635
34803SOL    HW1 6851   1.951   4.569   0.436 -0.3555  1.6761 -0.6067
34803SOL    HW2 6852   1.878   4.569   0.304  0.7897 -0.8290 -1.2877
34804SOL     OW 6853   0.720   6.872   4.340  0.3849 -0.6200  0.1664
34804SOL    HW1 6854   0.733   6.834   4.427 -2.1234  0.9827  1.3529
34804SOL    HW2 6855   0.645   6.825   4.304 -0.7023  0.8900  0.3294
34805SOL     OW 6856   0.436   9.702   5.346 -0.1523  0.2357 -0.4048
34805SOL    HW1 6857   0.356   9.666   5.308 -1.0630 -0.6444  2.1731
34805SOL    HW2 6858   0.479   9.627   5.386  1.1967  0.9817 -0.3830
34806SOL     OW 6859   6.539   0.972   2.610  0.1467 -0.7645  0.6342
34806SOL    HW1 6860   6.486   1.033   2.661 -0.1364 -1.5093  1.2385
34806SOL    HW2 6861   6.487   0.955   2.531  0.1048 -0.4553  0.5915
34807SOL     OW 6862   8.689   9.051   1.396  0.7197 -0.0186  0.3131
34807SOL    HW1 6863   8.781   9.071   1.414  0.9377  0.3203 -1.1041
34807SOL    HW2 6864   8.664   9.109   1.324 -0.6074 -0.1097  0.6657
34808SOL     OW 6865   7.883   5.235   1.731 -0.0914 -0.0046 -0.1081
34808SOL    HW1 6866   7.796   5.228   1.693 -0.0838  0.0290 -0.1320
34808SOL    HW2 6867   7.937   5.271   1.661  0.7511 -3.2794 -1.3210
34809SOL     OW 6868   9.537   8.646   1.490 -0.6187  0.0926 -0.1856
34809SOL    HW1 6869   9.563   8.573   1.433  0.0523 -1.3193  1.8123
34809SOL    HW2 6870   9.618   8.676   1.531 -1.2577 -0.0978  1.3051
34810SOL     OW 6871   7.301   5.163   9.870 -0.4794  0.5963 -0.1734
34810SOL    HW1 6872   7.358   5.237   9.892 -0.7160  0.7144  0.0403
34810SOL    HW2 6873   7.213   5.200   9.870 -0.7022  0.0992  0.9272
34811SOL     OW 6874   5.476   0.670   6.222 -0.2437 -0.0514  0.1638
34811SOL    HW1 6875   5.513   0.582   6.231  0.0657  0.2292  1.9056
34811SOL    HW2 6876   5.416   0.679   6.295 -0.4674  1.1107 -0.1380
34812SOL     OW 6877   1.213   6.497   2.411  0.1126 -0.1929  0.4286
34812SOL    HW1 6878   1.253   6.412   2.429  1.9234  0.7609  1.2226
34812SOL    HW2 6879   1.264   6.533   2.338 -0.5728  0.2546  0.1570
34813SOL     OW 6880   0.218   0.687   6.793  0.0308 -0.5425 -0.3528
34813SOL    HW1 6881   0.251   0.692   6.703  0.1861 -0.3188 -0.2854
34813SOL    HW2 6882   0.218   0.778   6.823  4.4199 -0.8815  1.4861
34814SOL     OW 6883   2.984   1.416   5.293  0.6224  0.5378  0.4059
34814SOL    HW1 6884   2.895   1.424   5.329  0.6832 -0.2997  0.7809
34814SOL    HW2 6885   3.039   1.400   5.370  0.5986 -2.4593 -0.0852
34815SOL     OW 6886  10.324   3.604   2.306 -0.1081  0.0889 -0.0118
34815SOL    HW1 6887  10.410   3.631   2.274 -0.5538  0.8962 -0.5382
34815SOL    HW2 6888  10.316   3.513   2.277  0.2262  0.2627 -0.6697
34816SOL     OW 6889   5.065   7.481   5.504 -0.0043  0.2190 -0.1764
34816SOL    HW1 6890   5.149   7.452   5.541 -0.1196  1.1401  0.8374
34816SOL    HW2 6891   5.089   7.530   5.425  0.1446 -3.9300 -3.0388
34817SOL     OW 6892   0.005   0.713   8.401 -0.3726 -0.5001 -0.7071
34817SOL    HW1 6893  -0.049   0.787   8.430 -2.4189 -1.3739 -2.0282
34817SOL    HW2 6894   0.028   0.668   8.482  0.0129  0.9636  0.0385
34818SOL     OW 6895   9.614   2.923   5.484 -0.3472  0.1823 -0.1754
34818SOL    HW1 6896   9.705   2.950   5.496 -0.4645  1.1268 -1.3459
34818SOL    HW2 6897   9.588   2.890   5.570  0.4091  1.9775  0.7982
34819SOL     OW 6898   2.956   0.600   5.357  0.8268 -0.6494  0.2296
34819SOL    HW1 6899   3.020   0.582   5.427  0.7363  1.4190  0.9029
34819SOL    HW2 6900   2.999   0.666   5.303  0.8864 -2.2144 -1.7262
34820SOL     OW 6901   7.005   2.040   7.145 -0.3925 -0.0138  0.5715
34820SOL    HW1 6902   7.034   2.036   7.054 -0.2741 -0.7201  0.6335
34820SOL    HW2 6903   6.922   2.088   7.142 -1.1711 -1.3614 -0.1111
34821SOL     OW 6904   6.591   3.212   2.160  0.3898 -0.3229 -0.5418
34821SOL    HW1 6905   6.563   3.298   2.127 -1.9125 -1.3351 -1.4366
34821SOL    HW2 6906   6.577   3.218   2.255  0.2808  0.2995 -0.5892
34822SOL     OW 6907   1.793   9.166   4.955 -0.4639  0.2754 -0.6398
34822SOL    HW1 6908   1.874   9.210   4.927  0.3733 -0.0988  1.0367
34822SOL    HW2 6909   1.820   9.077   4.976 -1.4622 -0.0583 -0.7207
34823SOL     OW 6910   9.826   5.059   9.065  0.2864  0.0768 -0.0447
34823SOL    HW1 6911   9.848   5.086   8.976  1.3962 -0.8428 -0.0791
34823SOL    HW2 6912   9.746   5.107   9.086  0.2649  0.6582 -1.3605
34824SOL     OW 6913   6.063   4.416   1.404 -0.1428  0.9720 -0.1975
34824SOL    HW1 6914   6.128   4.382   1.466  0.0395 -1.6559 -1.6700
34824SOL    HW2 6915   6.083   4.509   1.396  1.8440  0.7287  1.2386
34825SOL     OW 6916   4.323   0.240   4.778 -0.4906  0.0151  0.3204
34825SOL    HW1 6917   4.275   0.238   4.695  0.0820 -0.9371 -0.0072
34825SOL    HW2 6918   4.415   0.253   4.752 -0.1549 -1.3940  0.7083
34826SOL     OW 6919  10.468   6.635   5.099  0.3144 -0.2896 -0.0425
34826SOL    HW1 6920  10.403   6.686   5.052  2.6562  1.1441 -1.9117
34826SOL    HW2 6921  10.442   6.642   5.191 -2.3924 -0.2196 -0.7457
34827SOL     OW 6922   7.467   7.847   6.890  0.2383 -0.0127  0.5828
34827SOL    HW1 6923   7.405   7.873   6.822 -0.6475 -0.7578  1.0785
34827SOL    HW2 6924   7.530   7.791   6.844 -0.1474 -0.2213  0.3013
34828SOL     OW 6925   8.220   8.345   8.800 -0.1079 -0.4733 -0.5700
34828SOL    HW1 6926   8.257   8.283   8.737 -0.0040 -0.2581 -0.7232
34828SOL    HW2 6927   8.158   8.397   8.748  1.7048  1.3289 -1.1061
34829SOL     OW 6928   6.579   1.106   1.262  0.1922  0.1688  0.1367
34829SOL    HW1 6929   6.592   1.179   1.202 -1.1764  0.8804  0.6638
34829SOL    HW2 6930   6.490   1.076   1.245  1.1348 -2.3066 -1.0199
34830SOL     OW 6931   3.272   8.042   1.710  0.3690  0.4225 -0.3837
34830SOL    HW1 6932   3.274   8.120   1.765 -2.0665 -0.0333  0.4424
34830SOL    HW2 6933   3.198   7.991   1.742  2.1173 -2.4766 -0.6311
34831SOL     OW 6934   1.291   1.557   1.375  0.6562 -0.3132 -0.1107
34831SOL    HW1 6935   1.235   1.552   1.297 -1.7054 -0.7374  1.4952
34831SOL    HW2 6936   1.313   1.466   1.394 -0.7127 -0.4455  0.9758
34832SOL     OW 6937   3.790   0.538   9.841 -0.7716  0.1106 -0.1573
34832SOL    HW1 6938   3.696   0.537   9.855 -0.6483  1.3131  0.8663
34832SOL    HW2 6939   3.816   0.629   9.858  0.8394 -0.6104  1.4298
34833SOL     OW 6940   0.170   2.008  10.453 -0.3496  0.3962  0.0750
34833SOL    HW1 6941   0.107   2.078  10.442 -2.4393 -1.2764  0.6992
34833SOL    HW2 6942   0.154   1.948  10.380  2.2553  1.0940 -1.1818
34834SOL     OW 6943   0.683   2.490  10.478 -0.4685  0.1598 -0.6101
34834SOL    HW1 6944   0.605   2.484  10.422 -0.4760  1.4410 -0.7743
34834SOL    HW2 6945   0.648   2.513  10.565 -0.2547  1.1438 -0.7780
34835SOL     OW 6946   4.049   5.624   1.358 -0.1769  0.4506  0.0528
34835SOL    HW1 6947   3.959   5.591   1.345  0.3526 -0.4602 -1.7035
34835SOL    HW2 6948   4.061   5.625   1.453 -1.6616 -0.5307  0.2896
34836SOL     OW 6949   5.686   7.290   1.711 -0.1056  0.6664 -0.1886
34836SOL    HW1 6950   5.661   7.200   1.689 -0.8094  0.6763  0.5188
34836SOL    HW2 6951   5.774   7.282   1.748 -0.0388  0.3120 -0.4144
34837SOL     OW 6952   0.047   1.515   5.860 -0.4671  0.0077 -0.5184
34837SOL    HW1 6953  -0.042   1.515   5.825 -0.0896 -0.7820 -1.5406
34837SOL    HW2 6954   0.056   1.430   5.904 -0.0143 -0.1959 -0.9914
34838SOL     OW 6955   7.771   8.235   8.534 -0.0501  0.1369  0.1374
34838SOL    HW1 6956   7.787   8.231   8.439  0.6182 -1.1807  0.2766
34838SOL    HW2 6957   7.683   8.270   8.542 -0.8383 -1.4299 -1.0690
34839SOL     OW 6958   6.068   6.365   0.096 -0.5368  0.7748  0.0895
34839SOL    HW1 6959   5.974   6.362   0.108 -0.6568 -0.2763 -0.9771
34839SOL    HW2 6960   6.104   6.348   0.183 -1.3048  1.6682  0.6009
34840SOL     OW 6961   3.199   5.425   1.080 -0.3541  0.4868  0.7880
34840SOL    HW1 6962   3.125   5.366   1.096  1.1424 -2.0627 -0.7869
34840SOL    HW2 6963   3.253   5.418   1.158 -0.2331 -0.2198  0.6500
34841SOL     OW 6964   4.738   0.948   0.804  0.6091 -0.1385 -0.1349
34841SOL    HW1 6965   4.783   0.868   0.775 -0.5528 -1.1231  0.6906
34841SOL    HW2 6966   4.724   0.935   0.897  1.4167  1.5788  0.2655
34842SOL     OW 6967   0.012   3.635   9.173 -0.6405  0.2629 -0.4477
34842SOL    HW1 6968   0.034   3.709   9.230 -0.0979 -2.0258  2.5994
34842SOL    HW2 6969  -0.080   3.649   9.150 -0.4085  2.1151 -0.3718
34843SOL     OW 6970   8.503   3.603   6.371  0.1654 -0.3397 -0.2742
34843SOL    HW1 6971   8.517   3.690   6.408 -1.0948 -0.5559  0.7804
34843SOL    HW2 6972   8.420   3.611   6.322 -0.1397 -1.0252  0.1154
34844SOL     OW 6973   4.897   2.743   4.074 -0.0630 -0.1475 -1.3194
34844SOL    HW1 6974   4.866   2.658   4.107  0.9785 -0.3504 -0.8183
34844SOL    HW2 6975   4.823   2.778   4.025 -0.7489 -1.0364 -0.9515
34845SOL     OW 6976   9.487   5.552   8.462 -0.5248 -0.5870 -0.1419
34845SOL    HW1 6977   9.565   5.546   8.517 -0.7036 -1.9144 -0.0037
34845SOL    HW2 6978   9.513   5.610   8.390  0.4037 -0.5713  0.1951
34846SOL     OW 6979   6.185   7.960   0.454  0.1864 -0.1313 -0.2522
34846SOL    HW1 6980   6.224   7.886   0.499  0.2661 -0.3085 -0.6064
34846SOL    HW2 6981   6.132   8.004   0.521 -0.8792 -1.2362 -0.3412
34847SOL     OW 6982   3.318   9.668   5.300 -0.1372 -0.1026 -0.0127
34847SOL    HW1 6983   3.279   9.653   5.214 -0.0632  0.9725 -0.2488
34847SOL    HW2 6984   3.263   9.617   5.360  0.6198 -1.9601 -0.8351
34848SOL     OW 6985  10.129   6.360   5.647  0.1349  0.1792  0.1786
34848SOL    HW1 6986  10.157   6.433   5.591  1.0540  1.1968  1.8681
34848SOL    HW2 6987  10.146   6.282   5.594 -2.8393  1.1314 -2.5335
34849SOL     OW 6988   5.108   9.261   8.855  0.0471 -0.1537 -0.0855
34849SOL    HW1 6989   5.157   9.311   8.790  2.0102 -1.0990  0.5818
34849SOL    HW2 6990   5.096   9.322   8.928  1.2344 -0.2162  0.1811
34850SOL     OW 6991   5.258   8.732   7.833 -0.0916 -0.2949  0.5732
34850SOL    HW1 6992   5.252   8.819   7.794 -0.1181  0.4843  2.2155
34850SOL    HW2 6993   5.182   8.727   7.891  2.1069  0.3320  3.7601
34851SOL     OW 6994   4.860   6.405   0.502 -0.2704 -0.1911 -0.2815
34851SOL    HW1 6995   4.788   6.461   0.473 -1.1603  1.3373  4.1080
34851SOL    HW2 6996   4.822   6.317   0.506 -0.6001 -0.1452 -1.6953
34852SOL     OW 6997   8.194   0.887   6.145 -0.1037 -0.2042 -0.0987
34852SOL    HW1 6998   8.164   0.844   6.225 -2.4305 -1.4747 -1.5493
34852SOL    HW2 6999   8.227   0.815   6.090 -0.8285  0.2944 -1.2156
34853SOL     OW 7000   6.965   4.323   2.544 -0.6341 -0.4527  0.4460
34853SOL    HW1 7001   7.025   4.391   2.574  0.1055 -1.0777  0.4367
34853SOL    HW2 7002   6.905   4.309   2.617 -0.0292 -0.6333  0.9172
34854SOL     OW 7003   3.226   7.374   6.858 -0.6864 -0.0298  0.2194
34854SOL    HW1 7004   3.210   7.336   6.945 -0.9809 -0.4179  0.0013
34854SOL    HW2 7005   3.321   7.372   6.848 -0.7098 -1.0013  0.0936
34855SOL     OW 7006   1.377   4.874   8.808  0.3066 -0.2489  0.1120
34855SOL    HW1 7007   1.406   4.939   8.744  1.2947  0.4617  1.2386
34855SOL    HW2 7008   1.351   4.799   8.755 -0.3866  0.8627 -1.2026
34856SOL     OW 7009   4.675   2.508   8.567 -0.1122  0.2220  0.2551
34856SOL    HW1 7010   4.615   2.459   8.624  0.8107 -1.4955 -0.2017
34856SOL    HW2 7011   4.626   2.521   8.486 -0.0421 -0.8135  0.0330
34857SOL     OW 7012   0.359   2.231   8.659 -0.2223  0.1735 -0.3167
34857SOL    HW1 7013   0.443   2.208   8.619 -1.4252 -0.5597 -2.6366
34857SOL    HW2 7014   0.343   2.161   8.722  0.0462 -0.7908 -1.2770
34858SOL     OW 7015   2.570   3.497   1.901 -0.0948 -0.7630  0.0887
34858SOL    HW1 7016   2.594   3.414   1.860  1.1276  0.0550 -0.9212
34858SOL    HW2 7017   2.538   3.551   1.829  0.1906  0.0281  0.5423
34859SOL     OW 7018   2.552   2.147   5.694  0.1529 -0.7499  0.5421
34859SOL    HW1 7019   2.499   2.214   5.650 -0.1618 -1.6461 -0.4960
34859SOL    HW2 7020   2.585   2.190   5.772  1.9209  1.3812 -1.2673
34860SOL     OW 7021   6.173   6.129   1.426  0.1556 -0.3870 -0.0742
34860SOL    HW1 7022   6.247   6.123   1.486 -0.5195  0.3878  0.8846
34860SOL    HW2 7023   6.144   6.039   1.415 -0.1423 -0.4961  1.3593
34861SOL     OW 7024   8.748   1.697   0.639  0.5645 -0.2650 -0.1135
34861SOL    HW1 7025   8.753   1.636   0.712 -0.6036  0.2740  0.4479
34861SOL    HW2 7026   8.827   1.751   0.647  0.4479 -0.2177  0.7477
34862SOL     OW 7027   1.733   1.882   5.735 -0.2275  0.2353  0.6786
34862SOL    HW1 7028   1.824   1.911   5.728 -0.3415  0.8777  1.7379
34862SOL    HW2 7029   1.684   1.943   5.680  0.0227 -0.4530 -0.3561
34863SOL     OW 7030   6.080   7.182   8.423 -0.7292  0.5249  0.6115
34863SOL    HW1 7031   6.175   7.173   8.414 -0.6313  2.3607 -0.9144
34863SOL    HW2 7032   6.068   7.249   8.490 -1.0598 -1.1860  2.3423
34864SOL     OW 7033   8.401   6.774   1.962 -0.0865  0.3756 -0.2908
34864SOL    HW1 7034   8.356   6.847   2.003  0.5822  0.4772  0.2851
34864SOL    HW2 7035   8.420   6.804   1.873 -2.2800 -0.1503 -1.0031
34865SOL     OW 7036   4.512   0.473   8.064 -0.2620 -0.3692 -0.0804
34865SOL    HW1 7037   4.551   0.495   8.148 -1.7043  0.8121  0.3145
34865SOL    HW2 7038   4.446   0.407   8.084 -0.4232 -0.2892 -0.3407
34866SOL     OW 7039   9.494   4.093   9.837 -0.1812 -0.6479 -0.6813
34866SOL    HW1 7040   9.581   4.059   9.861  0.7106  0.9868 -1.4144
34866SOL    HW2 7041   9.442   4.085   9.916  1.0421 -0.4502  0.1711
34867SOL     OW 7042   2.843   8.482  10.120  0.4749 -0.6851 -0.1290
34867SOL    HW1 7043   2.861   8.425  10.045  1.0412 -0.1981 -0.3682
34867SOL    HW2 7044   2.768   8.441  10.164  0.4260 -1.2200 -0.7027
34868SOL     OW 7045   7.236   3.856   9.847 -0.7193  0.1030  0.0873
34868SOL    HW1 7046   7.273   3.800   9.779  0.6731  1.0542  0.0129
34868SOL    HW2 7047   7.273   3.824   9.928 -1.8899 -0.6334  0.3559
34869SOL     OW 7048   3.460   5.643   7.949 -0.0647  0.4229  0.4926
34869SOL    HW1 7049   3.372   5.606   7.942 -0.0929 -0.0828  2.6165
34869SOL    HW2 7050   3.496   5.637   7.861 -1.4672 -1.1674 -0.0238
34870SOL     OW 7051   5.641   6.066   2.739  0.0369  0.2637 -0.0561
34870SOL    HW1 7052   5.661   5.973   2.738 -0.4689  0.1041  1.4590
34870SOL    HW2 7053   5.566   6.073   2.799 -0.9108  1.4604 -1.3237
34871SOL     OW 7054   3.235   4.793  10.273 -0.4957  0.0688 -0.0078
34871SOL    HW1 7055   3.210   4.861  10.335 -1.8534  1.0156 -1.5115
34871SOL    HW2 7056   3.311   4.828  10.227 -0.9432  0.3992 -0.4999
34872SOL     OW 7057   9.121   5.804   8.009 -0.3635  0.1040 -0.8882
34872SOL    HW1 7058   9.057   5.855   7.960 -0.7846  0.4570 -0.0018
34872SOL    HW2 7059   9.099   5.713   7.991 -0.5694  0.2295 -1.2784
34873SOL     OW 7060   4.516   3.252  10.085  0.0583  0.2001 -0.4135
34873SOL    HW1 7061   4.432   3.214  10.059 -0.0533 -0.3611  0.7108
34873SOL    HW2 7062   4.578   3.179  10.080  0.1496  0.2234  0.2868
34874SOL     OW 7063   0.042   3.770   6.606 -0.2554 -0.0339 -0.3251
34874SOL    HW1 7064   0.098   3.774   6.528  0.0674  1.7456 -0.0591
34874SOL    HW2 7065   0.009   3.860   6.615  1.0491  0.2507  2.5379
34875SOL     OW 7066   3.089   1.590   9.364  0.2165  0.3831 -0.0093
34875SOL    HW1 7067   3.135   1.644   9.429  0.7431  1.4111 -1.1933
34875SOL    HW2 7068   3.087   1.503   9.402 -1.6483  1.3885  2.5221
34876SOL     OW 7069   7.172   5.990   8.068  0.0694  0.3948 -0.2242
34876SOL    HW1 7070   7.265   5.966   8.073 -0.1697 -0.4437  0.2645
34876SOL    HW2 7071   7.161   6.023   7.979  1.3999  2.9228  0.4655
34877SOL     OW 7072   9.538   7.806   7.440  0.5722  0.0046 -0.0877
34877SOL    HW1 7073   9.464   7.751   7.466  2.1001 -2.2522 -0.3029
34877SOL    HW2 7074   9.534   7.881   7.500  0.1815 -1.8052  2.2815
34878SOL     OW 7075   3.893   7.535   6.237 -0.1959  0.4207  0.1282
34878SOL    HW1 7076   3.852   7.499   6.159 -0.4425  0.9375  0.0103
34878SOL    HW2 7077   3.985   7.510   6.231 -0.6010 -1.3525  0.7371
34879SOL     OW 7078   2.148   6.288   7.615  0.2079 -0.0240 -0.2684
34879SOL    HW1 7079   2.071   6.260   7.664  0.3609 -0.0597 -0.0466
34879SOL    HW2 7080   2.152   6.230   7.539  0.3048 -0.3518 -0.0137
34880SOL     OW 7081   2.786   9.128   6.142 -0.0931 -0.0780  0.1692
34880SOL    HW1 7082   2.842   9.079   6.081  0.3864 -0.0362  0.5716
34880SOL    HW2 7083   2.802   9.087   6.227  0.8081  1.1640  0.6351
34881SOL     OW 7084   7.277   5.726   7.420  0.3257 -0.0483 -0.0883
34881SOL    HW1 7085   7.310   5.742   7.332 -0.4711 -0.3895 -0.4646
34881SOL    HW2 7086   7.335   5.777   7.478  1.3005 -0.4111 -0.7334
34882SOL     OW 7087   7.006   4.786   8.387  0.1445  0.0177 -0.4808
34882SOL    HW1 7088   7.080   4.789   8.326  1.8209 -0.2317  1.4305
34882SOL    HW2 7089   7.040   4.740   8.464 -1.8597  0.3681  0.6966
34883SOL     OW 7090   3.786   4.083   2.778  0.0997  0.5755  0.7351
34883SOL    HW1 7091   3.804   4.007   2.833 -1.0868  1.2196  2.0820
34883SOL    HW2 7092   3.868   4.099   2.731 -0.1685 -2.7641 -1.2498
34884SOL     OW 7093   0.173   3.263   6.895 -0.2688 -0.0930 -0.2491
34884SOL    HW1 7094   0.188   3.332   6.959 -1.0880 -0.6663  0.5963
34884SOL    HW2 7095   0.180   3.182   6.945  0.0698 -0.5986 -1.0949
34885SOL     OW 7096   2.271   0.016   5.140 -0.2431 -0.3096 -0.3866
34885SOL    HW1 7097   2.282  -0.074   5.112 -2.3893 -0.2358 -1.7179
34885SOL    HW2 7098   2.229   0.010   5.225  0.5081 -0.5518 -0.0278
34886SOL     OW 7099   7.755   8.054   3.486 -0.0194 -0.0317  0.1953
34886SOL    HW1 7100   7.836   8.095   3.518 -1.1239  0.8006  2.1119
34886SOL    HW2 7101   7.714   8.121   3.431 -0.0995  0.0918  0.4054
34887SOL     OW 7102   5.730   9.473   0.354 -0.3635  0.1364 -0.5924
34887SOL    HW1 7103   5.657   9.445   0.410 -1.9603  1.7592 -1.7594
34887SOL    HW2 7104   5.711   9.435   0.268  0.8442 -0.4156 -0.6415
34888SOL     OW 7105   6.531   9.642   2.710  0.0861 -0.0473 -0.0272
34888SOL    HW1 7106   6.535   9.604   2.797  1.1348 -1.1669 -0.5394
34888SOL    HW2 7107   6.613   9.616   2.668 -1.0356 -0.8657 -1.8713
34889SOL     OW 7108   4.688   9.482   1.524 -0.1387  0.8220  0.7498
34889SOL    HW1 7109   4.693   9.434   1.607  1.0866  0.4828  0.4996
34889SOL    HW2 7110   4.691   9.574   1.550  1.8664  0.7313  1.0609
34890SOL     OW 7111   0.680   1.118  10.476  0.2163 -0.8293 -0.4095
34890SOL    HW1 7112   0.758   1.138  10.528  1.1618 -0.8448 -1.7708
34890SOL    HW2 7113   0.606   1.135  10.535  1.1676  1.3573  0.2386
34891SOL     OW 7114   3.895   3.105   3.040  0.8487 -0.8609 -0.1369
34891SOL    HW1 7115   3.843   3.047   2.985  1.7149 -1.1295 -0.7045
34891SOL    HW2 7116   3.968   3.050   3.070  0.5426 -0.6427  1.0619
34892SOL     OW 7117   2.553   2.126   1.877  0.2713  0.0994 -0.4774
34892SOL    HW1 7118   2.598   2.199   1.920  0.2803  1.0087 -1.9427
34892SOL    HW2 7119   2.622   2.078   1.832  0.1399 -0.1998 -0.3583
34893SOL     OW 7120   1.502   6.222   4.007 -0.2191  0.3762  0.3525
34893SOL    HW1 7121   1.568   6.170   3.962 -0.0933  0.3703  0.5458
34893SOL    HW2 7122   1.436   6.158   4.036 -2.1793  0.6595 -2.9175
34894SOL     OW 7123   1.700   2.473   0.109  0.0437  0.1634 -0.4066
34894SOL    HW1 7124   1.696   2.548   0.169 -2.7004  0.1728 -0.4628
34894SOL    HW2 7125   1.776   2.490   0.054  0.4957  2.0211  0.7068
34895SOL     OW 7126   3.378   1.642   0.764  0.1842 -0.2128  0.1386
34895SOL    HW1 7127   3.355   1.619   0.854 -2.1015 -0.0797 -0.3430
34895SOL    HW2 7128   3.397   1.735   0.766  0.2689 -0.2372  0.4951
34896SOL     OW 7129   6.270   1.242   3.490  0.2704 -0.2814 -0.0884
34896SOL    HW1 7130   6.278   1.217   3.582 -1.9430 -0.2068  0.1665
34896SOL    HW2 7131   6.197   1.303   3.488 -0.1123 -0.7478 -1.9925
34897SOL     OW 7132   9.423   5.987   3.836 -0.3119  0.0034  0.0897
34897SOL    HW1 7133   9.410   5.947   3.750  0.5492  1.8663 -0.9904
34897SOL    HW2 7134   9.482   5.927   3.881 -0.1887 -0.6648 -0.9148
34898SOL     OW 7135   7.101   5.478   5.848  0.5831  0.0563  0.2723
34898SOL    HW1 7136   7.148   5.397   5.869 -0.3201  0.0112  2.4005
34898SOL    HW2 7137   7.136   5.542   5.909  1.9967  1.6262 -2.0224
34899SOL     OW 7138  10.179   1.576   8.920 -0.2743 -0.0015 -0.4963
34899SOL    HW1 7139  10.222   1.571   9.005  0.4119  0.0100 -0.8329
34899SOL    HW2 7140  10.089   1.549   8.936  0.1855 -1.3207 -0.0021
34900SOL     OW 7141   8.538  10.002   1.191  0.1401  0.2789 -0.1753
34900SOL    HW1 7142   8.596  10.024   1.117  0.5169 -1.1359 -0.3452
34900SOL    HW2 7143   8.539  10.079   1.247 -0.3585  1.4935 -1.7719
34901SOL     OW 7144   7.671   0.868  10.315  0.2038 -0.3337  0.4246
34901SOL    HW1 7145   7.664   0.962  10.326 -1.4145 -0.5950  2.1872
34901SOL    HW2 7146   7.690   0.856  10.222 -0.8446  1.6930 -0.1154
34902SOL     OW 7147   7.855   0.981   2.121 -0.1589 -0.1937 -0.2143
34902SOL    HW1 7148   7.788   0.923   2.157  0.9408 -1.7345 -0.5841
34902SOL    HW2 7149   7.865   1.049   2.188 -0.2794 -1.3669  1.0491
34903SOL     OW 7150   4.959   4.868   2.402 -0.9865 -0.1274  0.0259
34903SOL    HW1 7151   5.037   4.845   2.452 -1.3752  1.8359  1.6418
34903SOL    HW2 7152   4.969   4.820   2.319  1.2043 -1.0277  0.7363
34904SOL     OW 7153   1.442   9.126   7.566 -0.6170  0.7443 -0.2596
34904SOL    HW1 7154   1.468   9.090   7.482  1.2484 -1.3273  1.0962
34904SOL    HW2 7155   1.364   9.076   7.590  0.2770 -0.4126  0.3070
34905SOL     OW 7156   7.387   7.929   8.517  0.6911  0.5501 -0.0039
34905SOL    HW1 7157   7.483   7.921   8.519  1.0743  3.8608  1.0781
34905SOL    HW2 7158   7.369   7.971   8.433  0.1344 -0.1109 -0.2257
34906SOL     OW 7159   8.263   1.693   1.127  0.2992  0.2101  0.6846
34906SOL    HW1 7160   8.178   1.733   1.110  0.2336  0.1000  0.7509
34906SOL    HW2 7161   8.311   1.757   1.179 -0.2767 -0.3315  1.9083
34907SOL     OW 7162   0.886   0.940   8.384  0.0801  0.0556  0.4747
34907SOL    HW1 7163   0.807   0.953   8.331  0.5518 -1.7898 -0.7956
34907SOL    HW2 7164   0.855   0.946   8.474 -0.9636  2.1426  0.0433
34908SOL     OW 7165   3.770   9.905   9.418  0.1447 -0.5612 -0.8747
34908SOL    HW1 7166   3.694   9.879   9.471  1.3741  0.2032  1.3703
34908SOL    HW2 7167   3.733   9.921   9.331 -2.3530  0.1604  0.2124
34909SOL     OW 7168   9.812   5.251   5.605  0.0569 -0.1306 -0.0799
34909SOL    HW1 7169   9.801   5.273   5.512 -0.1970  1.2481  0.2563
34909SOL    HW2 7170   9.876   5.180   5.605 -0.5213 -0.6976 -1.3544
34910SOL     OW 7171   5.894   4.723   5.213  0.3935  0.4487  0.0661
34910SOL    HW1 7172   5.862   4.747   5.300  1.4196  0.1738  0.5477
34910SOL    HW2 7173   5.924   4.632   5.223  0.6182  0.4489 -0.5399
34911SOL     OW 7174   9.969   7.000   7.751  0.0926 -0.4469 -0.0671
34911SOL    HW1 7175   9.906   6.993   7.823  0.3483  0.7584  0.2910
34911SOL    HW2 7176   9.916   7.012   7.673 -0.1332  1.3769  0.3319
34912SOL     OW 7177   8.995   3.016   9.388 -0.3602  0.8711 -0.1813
34912SOL    HW1 7178   8.936   2.986   9.319 -0.3022 -3.3016  1.3180
34912SOL    HW2 7179   9.083   3.006   9.352 -0.3818  2.5452 -0.7811
34913SOL     OW 7180   3.805   6.362   7.546  0.2240  0.2075 -0.1758
34913SOL    HW1 7181   3.751   6.319   7.480 -0.9375  0.5833  0.4952
34913SOL    HW2 7182   3.871   6.297   7.570 -1.3019 -1.1047  0.6057
34914SOL     OW 7183   2.519   2.057   4.225 -0.1723  0.1032 -0.6176
34914SOL    HW1 7184   2.438   2.054   4.276  0.0059  0.8068 -0.2713
34914SOL    HW2 7185   2.585   2.091   4.286  0.6427 -1.4664 -0.5811
34915SOL     OW 7186  10.337   0.382   8.525  0.5079 -0.0368  0.6278
34915SOL    HW1 7187  10.341   0.351   8.615 -0.4715 -1.5366  0.1870
34915SOL    HW2 7188  10.245   0.402   8.509  0.5216 -0.6046 -0.2783
34916SOL     OW 7189   8.636   0.226   2.363  0.1082  0.0715  0.0240
34916SOL    HW1 7190   8.655   0.162   2.431 -2.0957 -1.9686 -1.1336
34916SOL    HW2 7191   8.540   0.232   2.362  0.1262  0.9273 -2.0789
34917SOL     OW 7192   6.986   1.372   9.473  0.1731 -0.5294 -0.5203
34917SOL    HW1 7193   6.962   1.339   9.559 -0.6940 -0.6305 -0.7939
34917SOL    HW2 7194   6.970   1.298   9.414 -1.3382  0.1956 -1.0713
34918SOL     OW 7195   7.013   3.822   7.574  0.3978  0.0928  0.1498
34918SOL    HW1 7196   6.925   3.785   7.577  1.4473 -2.6735  0.6351
34918SOL    HW2 7197   7.027   3.859   7.661 -0.5942  1.4738 -0.2489
34919SOL     OW 7198   8.561   4.344   7.825 -0.0421 -0.3376 -0.0867
34919SOL    HW1 7199   8.561   4.342   7.920 -2.7124 -2.0085 -0.0316
34919SOL    HW2 7200   8.590   4.257   7.798 -1.0197 -0.4802 -0.7419
34920SOL     OW 7201   8.397  10.268   9.392  0.5458 -0.4861  0.1238
34920SOL    HW1 7202   8.468  10.330   9.380  0.4400 -0.5453 -0.8635
34920SOL    HW2 7203   8.404  10.208   9.318 -0.3619 -0.6491  0.1526
34921SOL     OW 7204  10.068   1.413   2.318 -0.3003 -0.1232  0.0729
34921SOL    HW1 7205  10.120   1.347   2.364  1.7072 -0.1649 -2.0296
34921SOL    HW2 7206  10.071   1.385   2.226 -1.5795  1.5234 -0.5138
34922SOL     OW 7207   4.002  10.336   0.628  0.1465 -0.0275  0.1666
34922SOL    HW1 7208   3.938  10.341   0.556  1.6577  1.3846 -1.1691
34922SOL    HW2 7209   4.018  10.242   0.638 -0.9242 -0.3212 -0.5644
34923SOL     OW 7210   3.308   4.527   7.274 -0.4978  0.3436 -0.3714
34923SOL    HW1 7211   3.353   4.470   7.213 -0.6610 -0.6332  0.3952
34923SOL    HW2 7212   3.222   4.487   7.285 -1.3089  1.7603 -1.2285
34924SOL     OW 7213   6.883   7.215   9.451 -0.3005  0.4993 -0.0703
34924SOL    HW1 7214   6.872   7.230   9.545 -1.8779  2.0389 -0.4649
34924SOL    HW2 7215   6.856   7.296   9.409 -1.0943 -0.6527 -1.9464
34925SOL     OW 7216   8.686   4.601   1.603 -0.3756 -0.6841  0.4103
34925SOL    HW1 7217   8.771   4.560   1.595  2.3138  4.3872 -1.8219
34925SOL    HW2 7218   8.684   4.636   1.692  1.6847  2.0468 -0.4737
34926SOL     OW 7219   5.743  10.125   5.474  0.5962  0.2390 -0.4713
34926SOL    HW1 7220   5.660  10.171   5.463  0.3930  0.3388  1.1841
34926SOL    HW2 7221   5.809  10.193   5.473  0.4754  0.3692  0.0234
34927SOL     OW 7222   7.663   7.722   9.981 -0.1649 -0.5070 -0.4812
34927SOL    HW1 7223   7.609   7.735   9.903 -0.7981  0.0556  0.0482
34927SOL    HW2 7224   7.607   7.674  10.042  0.3422 -0.9809 -0.3780
34928SOL     OW 7225   5.213  10.010   0.683  0.4622  0.1608 -0.2501
34928SOL    HW1 7226   5.199  10.023   0.777  1.8994  0.5837 -0.0569
34928SOL    HW2 7227   5.229  10.098   0.649 -1.8670  0.2495 -1.2693
34929SOL     OW 7228   8.313   7.282   5.581  1.1485  0.0355  0.3387
34929SOL    HW1 7229   8.318   7.336   5.502  0.9699 -0.0104  0.2965
34929SOL    HW2 7230   8.353   7.199   5.555  0.2249 -0.3149  0.0144
34930SOL     OW 7231   7.507   0.623   4.040 -0.2544  0.4775 -0.5193
34930SOL    HW1 7232   7.435   0.662   3.989  0.2994  1.0245 -0.8985
34930SOL    HW2 7233   7.554   0.569   3.976  0.2727  0.9327 -0.5117
34931SOL     OW 7234   6.096   9.477   9.391 -0.0011 -0.0035 -0.3194
34931SOL    HW1 7235   6.168   9.437   9.441  1.2917 -0.3824 -2.3771
34931SOL    HW2 7236   6.105   9.570   9.409  1.8984  0.1077 -1.5617
34932SOL     OW 7237   9.019   6.562   6.953 -0.4275 -0.3726  0.2648
34932SOL    HW1 7238   9.097   6.515   6.921  0.2495  0.2931  0.8881
34932SOL    HW2 7239   9.054   6.644   6.987 -1.1296 -0.9334  2.4765
34933SOL     OW 7240   0.168  10.284   0.960  0.4389 -0.3978  0.0617
34933SOL    HW1 7241   0.193  10.376   0.946  1.6500 -1.0505 -2.7139
34933SOL    HW2 7242   0.084  10.276   0.914  1.2262 -1.0695 -1.2984
34934SOL     OW 7243   6.863   6.570   9.402 -0.0438  0.0025 -0.3359
34934SOL    HW1 7244   6.941   6.551   9.454 -0.6634 -0.3625  0.4732
34934SOL    HW2 7245   6.863   6.502   9.334 -0.0219 -0.4118  0.0717
34935SOL     OW 7246   1.043   7.634   6.628 -0.3289  0.6351  0.5266
34935SOL    HW1 7247   1.109   7.667   6.568  1.1824  0.3013  1.9357
34935SOL    HW2 7248   1.036   7.541   6.608  0.8851  0.3209  1.4664
34936SOL     OW 7249  10.251   5.383   1.844  0.7212 -0.3961 -0.2479
34936SOL    HW1 7250  10.242   5.457   1.904  1.2995 -0.3943 -0.1540
34936SOL    HW2 7251  10.326   5.334   1.878  0.4623 -0.9137 -0.4243
34937SOL     OW 7252   8.467   3.346   4.429 -0.4030 -0.0503 -0.1216
34937SOL    HW1 7253   8.539   3.310   4.378 -1.9723 -0.8685 -1.8699
34937SOL    HW2 7254   8.463   3.290   4.507 -0.6841 -1.5951 -1.1981
34938SOL     OW 7255   0.199   5.906   5.669  0.4964  0.0207 -0.1603
34938SOL    HW1 7256   0.126   5.964   5.646  0.9909  0.5838 -0.3183
34938SOL    HW2 7257   0.268   5.928   5.607  0.7773 -0.5765 -0.0693
34939SOL     OW 7258   0.332   6.079   3.716 -0.0357 -0.0994  0.0168
34939SOL    HW1 7259   0.321   6.044   3.805  0.3754  1.6008  0.7827
34939SOL    HW2 7260   0.273   6.154   3.712  0.4345  0.2341 -0.9291
34940SOL     OW 7261   2.029   6.891   4.993  0.1277 -0.3798 -0.1664
34940SOL    HW1 7262   2.065   6.837   4.924 -1.0240  1.2918 -2.1917
34940SOL    HW2 7263   1.934   6.892   4.977  0.0051  1.4216  0.3398
34941SOL     OW 7264   8.953   7.937   0.734 -0.0355  0.9101 -0.2342
34941SOL    HW1 7265   9.040   7.968   0.712  0.5765  1.0742  2.1064
34941SOL    HW2 7266   8.961   7.907   0.825 -2.6638  1.9837  0.4408
34942SOL     OW 7267  10.253  10.290   3.480  0.8922  0.5220  0.3099
34942SOL    HW1 7268  10.237  10.229   3.408  2.2026 -0.2256  0.6301
34942SOL    HW2 7269  10.250  10.235   3.558 -1.4376  1.4633  0.9735
34943SOL     OW 7270   6.201   0.015   9.014  0.3462  0.2204 -0.3899
34943SOL    HW1 7271   6.187  -0.019   8.926  1.6258  0.2408 -0.6269
34943SOL    HW2 7272   6.223   0.108   9.000 -0.9179  0.5993  0.0731
34944SOL     OW 7273   5.881   1.023  10.350  0.6237 -0.0427 -0.2335
34944SOL    HW1 7274   5.796   1.064  10.369  0.6217  0.0259 -0.3945
34944SOL    HW2 7275   5.870   0.933  10.380  0.3844 -0.1225 -0.5497
34945SOL     OW 7276   3.432   0.614   9.499 -0.4650  0.4144 -0.5879
34945SOL    HW1 7277   3.497   0.544   9.510  0.3186  1.2422  0.2691
34945SOL    HW2 7278   3.384   0.616   9.582 -0.8222  0.5589 -0.7977
34946SOL     OW 7279   8.554   2.506  10.484 -0.1517 -0.5779  0.1599
34946SOL    HW1 7280   8.513   2.449  10.549 -1.4605  1.4686  1.2323
34946SOL    HW2 7281   8.482   2.558  10.449  1.0349  0.7698 -0.4017
34947SOL     OW 7282   7.546   5.507   4.386 -0.2098  0.1464  0.3131
34947SOL    HW1 7283   7.586   5.473   4.306  0.6755  1.9283 -0.0612
34947SOL    HW2 7284   7.486   5.575   4.355  0.1155  0.8344  1.1562
34948SOL     OW 7285   6.230   5.233   1.632  0.2350  0.2429 -0.1883
34948SOL    HW1 7286   6.225   5.302   1.565  1.1832 -0.1882 -0.7218
34948SOL    HW2 7287   6.324   5.223   1.648  0.0069  0.8632  1.7781
34949SOL     OW 7288   7.209   6.174   5.783  0.5805 -0.3262  0.4046
34949SOL    HW1 7289   7.194   6.238   5.852 -2.1644  1.2267 -1.4255
34949SOL    HW2 7290   7.143   6.106   5.799  0.7970 -0.6146  0.0842
34950SOL     OW 7291   3.401   8.934   6.121 -0.4879 -1.2225  0.2078
34950SOL    HW1 7292   3.464   8.865   6.142  1.2568  0.2445 -0.0206
34950SOL    HW2 7293   3.439   9.013   6.158  0.2794  0.6420 -4.0072
34951SOL     OW 7294   2.082   3.959   9.682 -0.2626  0.1553  0.0807
34951SOL    HW1 7295   2.105   4.049   9.658 -1.9526  0.7164  0.4240
34951SOL    HW2 7296   2.106   3.907   9.605 -0.7743  1.1404 -0.7694
34952SOL     OW 7297   3.626   0.873   3.644 -0.4900 -0.0386 -0.6131
34952SOL    HW1 7298   3.640   0.965   3.664 -2.5173  0.1780  0.0264
34952SOL    HW2 7299   3.699   0.850   3.586  3.1968  0.4830  3.2923
34953SOL     OW 7300   6.915   0.702   1.235  0.2732 -0.0367 -0.3333
34953SOL    HW1 7301   6.851   0.766   1.268  0.3005 -0.2401  0.1211
34953SOL    HW2 7302   6.861   0.632   1.199  0.1229  1.8712 -4.3386
34954SOL     OW 7303   5.446   5.763   5.082  0.3077  0.2134 -0.8460
34954SOL    HW1 7304   5.504   5.792   5.011  1.0201  1.5415  0.2418
34954SOL    HW2 7305   5.425   5.842   5.130 -2.2574 -0.2607 -1.0351
34955SOL     OW 7306   6.009  10.197   0.886 -0.5898 -0.3094 -0.5794
34955SOL    HW1 7307   6.076  10.214   0.953 -1.3391  1.0810 -0.1586
34955SOL    HW2 7308   6.000  10.279   0.839 -1.9389 -0.5009 -0.7005
34956SOL     OW 7309   8.678   0.773   3.510 -0.0924  0.6173 -0.1649
34956SOL    HW1 7310   8.753   0.801   3.457  0.6622 -0.3792  0.3365
34956SOL    HW2 7311   8.718   0.727   3.584 -1.1882  0.5916  0.4200
34957SOL     OW 7312   0.061   7.785   1.514 -0.3164 -0.0199  0.3670
34957SOL    HW1 7313   0.110   7.786   1.596 -1.2456  0.8082  0.9296
34957SOL    HW2 7314   0.037   7.877   1.500  0.2775 -0.0689 -1.1118
34958SOL     OW 7315  10.312   0.634   3.160 -0.6578 -0.8628  0.5059
34958SOL    HW1 7316  10.398   0.593   3.171  0.2425  1.2420  1.9855
34958SOL    HW2 7317  10.252   0.577   3.207 -0.2039 -2.5901 -0.8925
34959SOL     OW 7318   9.955   3.566   1.755 -0.3895 -0.0732 -0.1108
34959SOL    HW1 7319   9.874   3.607   1.784 -0.7552 -1.2790  0.6274
34959SOL    HW2 7320   9.944   3.473   1.774  1.7186 -0.1039  1.4053
34960SOL     OW 7321   7.336   0.551   0.076  0.2396 -0.2162 -0.4016
34960SOL    HW1 7322   7.410   0.603   0.045 -1.5433  2.8280 -0.0188
34960SOL    HW2 7323   7.300   0.602   0.149 -0.6018 -3.0178  1.2963
34961SOL     OW 7324   0.010   4.640   1.573  0.3076  0.2317 -0.2011
34961SOL    HW1 7325   0.013   4.558   1.623 -0.5566 -0.1695 -0.7935
34961SOL    HW2 7326   0.029   4.614   1.483  2.0467  0.9779 -0.0904
34962SOL     OW 7327   7.712   0.956   3.477  0.0394 -0.2674 -0.4207
34962SOL    HW1 7328   7.757   1.035   3.450  0.5882 -0.3341  0.2537
34962SOL    HW2 7329   7.619   0.976   3.468  0.1689  0.5557  0.0089
34963SOL     OW 7330   4.287   4.739   9.568  0.1623 -0.2265  0.2786
34963SOL    HW1 7331   4.372   4.715   9.530  0.2501  0.0465  0.2995
34963SOL    HW2 7332   4.237   4.772   9.493 -0.0086 -0.6053  0.2234
34964SOL     OW 7333   9.126   4.757   6.334 -0.0086  0.0556  0.1815
34964SOL    HW1 7334   9.160   4.669   6.351 -0.2101 -0.2068 -0.7550
34964SOL    HW2 7335   9.066   4.774   6.407  0.2083 -0.4847  0.4901
34965SOL     OW 7336   9.526   3.981   6.828 -0.3949 -0.5354 -0.5319
34965SOL    HW1 7337   9.447   4.035   6.818 -0.8301 -0.6421  1.7376
34965SOL    HW2 7338   9.492   3.893   6.845  0.0192 -0.2127  2.6240
34966SOL     OW 7339   4.320   5.124   7.498  0.7669 -0.4698 -0.5405
34966SOL    HW1 7340   4.285   5.149   7.583  0.5096  0.2234 -0.8431
34966SOL    HW2 7341   4.368   5.201   7.468  0.1264 -0.3854 -1.4045
34967SOL     OW 7342   4.309   0.377   8.868  0.0268 -0.3626 -0.1939
34967SOL    HW1 7343   4.301   0.395   8.775  0.0765  0.7191 -0.0008
34967SOL    HW2 7344   4.402   0.356   8.880  0.2817  0.7365 -0.1905
34968SOL     OW 7345   8.175   0.969   3.237  0.1082 -0.0843 -0.3246
34968SOL    HW1 7346   8.258   1.016   3.245  0.5922 -0.6392 -1.6571
34968SOL    HW2 7347   8.172   0.912   3.313  0.4879  0.6266  0.2363
34969SOL     OW 7348   9.709   0.116   3.037 -0.1166  0.1414 -0.5027
34969SOL    HW1 7349   9.737   0.110   2.946  1.1071 -0.0629 -0.1403
34969SOL    HW2 7350   9.657   0.196   3.041  0.4505  0.5599 -1.2241
34970SOL     OW 7351   8.690   2.243   2.793  0.1598  0.3728  1.1773
34970SOL    HW1 7352   8.736   2.323   2.766  1.0167 -0.2039  0.9068
34970SOL    HW2 7353   8.702   2.240   2.888  0.8700  0.1133  1.0833
34971SOL     OW 7354  10.067   5.305   3.524  0.5330  0.1799  0.4663
34971SOL    HW1 7355  10.046   5.395   3.501  1.7967  0.0885 -1.2242
34971SOL    HW2 7356  10.162   5.302   3.527  0.5486 -1.2868 -0.3986
34972SOL     OW 7357   4.126   9.160   5.510  0.5251  0.1789  0.3092
34972SOL    HW1 7358   4.034   9.132   5.503 -0.0510  1.2382  2.5494
34972SOL    HW2 7359   4.147   9.193   5.423 -1.0882 -0.4490 -0.3746
34973SOL     OW 7360   9.588   4.512   3.573  0.3133  0.2142  0.3128
34973SOL    HW1 7361   9.529   4.582   3.547 -0.3299 -0.8575 -1.3058
34973SOL    HW2 7362   9.663   4.519   3.513 -0.2180 -1.0176 -0.5657
34974SOL     OW 7363   5.565   9.244   8.929  0.0077 -1.0038 -0.2864
34974SOL    HW1 7364   5.505   9.318   8.936  1.8642  0.4574  0.9652
34974SOL    HW2 7365   5.571   9.208   9.017 -0.2263 -2.1717 -0.7153
34975SOL     OW 7366   6.304   5.936   0.597 -0.2457 -0.3519  0.3343
34975SOL    HW1 7367   6.276   6.012   0.647 -1.4436 -1.4237  1.3586
34975SOL    HW2 7368   6.399   5.932   0.609  0.0286  1.6526 -0.7537
34976SOL     OW 7369   7.844   6.825   3.286 -0.3153  0.4401  0.0824
34976SOL    HW1 7370   7.787   6.749   3.272  0.1614 -0.0858  0.9199
34976SOL    HW2 7371   7.790   6.900   3.262 -1.4493 -0.0328  1.0593
34977SOL     OW 7372   7.538   6.062   3.406  0.1318 -0.3001  0.1332
34977SOL    HW1 7373   7.538   6.018   3.491  0.3250  1.1356  0.9071
34977SOL    HW2 7374   7.613   6.120   3.409  2.4944 -2.8591 -2.5127
34978SOL     OW 7375   6.551   6.582   8.104 -0.3782 -0.0906 -0.0658
34978SOL    HW1 7376   6.578   6.594   8.013  0.2350  0.9642  0.2478
34978SOL    HW2 7377   6.632   6.582   8.154 -0.7957  0.7980  0.6381
34979SOL     OW 7378  10.276   7.803   4.589  0.6360  0.1898 -0.6302
34979SOL    HW1 7379  10.257   7.808   4.496 -0.2655 -0.0611 -0.4697
34979SOL    HW2 7380  10.343   7.735   4.597  1.3195  0.7849 -1.1684
34980SOL     OW 7381   4.581   5.730   8.842 -0.0644 -0.3599 -0.5451
34980SOL    HW1 7382   4.586   5.671   8.917  0.2487 -0.1009 -0.3592
34980SOL    HW2 7383   4.566   5.816   8.880 -2.1760 -0.5186 -0.8888
34981SOL     OW 7384   8.070   1.718   8.433 -0.3190 -0.8676 -0.4300
34981SOL    HW1 7385   8.050   1.708   8.526 -2.7138 -0.0050 -0.7906
34981SOL    HW2 7386   8.148   1.664   8.419  0.0227 -1.1076  2.0325
34982SOL     OW 7387   1.372   0.060   9.179  0.4434 -0.3115 -0.3122
34982SOL    HW1 7388   1.447   0.089   9.128  0.0731 -0.1716 -0.7878
34982SOL    HW2 7389   1.400   0.066   9.270  1.3743 -1.2972 -0.5267
34983SOL     OW 7390   9.245   9.243   5.571  0.2561  0.1001  0.0371
34983SOL    HW1 7391   9.254   9.332   5.538  0.0949  0.0386 -0.1658
34983SOL    HW2 7392   9.151   9.229   5.579  0.1637 -0.8647 -2.1347
34984SOL     OW 7393   4.163   1.948   8.759 -0.2438 -0.0126  0.5044
34984SOL    HW1 7394   4.234   2.010   8.740  1.3968 -0.7045  3.6156
34984SOL    HW2 7395   4.083   1.999   8.749  0.8216  1.4772 -0.8473
34985SOL     OW 7396   0.992   7.231   7.361 -0.0422  0.1716  0.2143
34985SOL    HW1 7397   0.975   7.323   7.379  1.0161 -0.0023  2.5046
34985SOL    HW2 7398   0.961   7.185   7.440 -1.2960 -1.5528 -1.1917
34986SOL     OW 7399   8.761   7.025   6.311  0.0969 -0.1873 -0.1916
34986SOL    HW1 7400   8.794   6.941   6.279  0.1774 -0.0807 -0.3872
34986SOL    HW2 7401   8.797   7.033   6.399 -1.2573 -1.1345  0.4849
34987SOL     OW 7402   9.439   5.277   4.235  0.1682 -0.0316  0.6134
34987SOL    HW1 7403   9.453   5.182   4.236  2.3090  0.2374  0.6543
34987SOL    HW2 7404   9.441   5.300   4.142 -2.7004 -0.2613  0.4090
34988SOL     OW 7405   4.755   6.687   5.793  0.1818  0.5104 -0.1102
34988SOL    HW1 7406   4.759   6.686   5.697  1.4810  0.8647 -0.0809
34988SOL    HW2 7407   4.845   6.673   5.821 -0.5932 -2.9727  1.1580
34989SOL     OW 7408   8.735   2.286  10.395 -0.2936 -0.6039 -0.3081
34989SOL    HW1 7409   8.708   2.272  10.304 -0.4946  0.4264 -0.4270
34989SOL    HW2 7410   8.683   2.361  10.424  0.0273 -0.6973  0.5482
34990SOL     OW 7411   0.991   5.654   5.368  0.0920  0.2582 -0.0223
34990SOL    HW1 7412   0.913   5.695   5.331 -1.4968 -0.9430  1.7859
34990SOL    HW2 7413   0.966   5.630   5.458  2.0641 -1.4540  0.1649
34991SOL     OW 7414   7.076   0.113   0.545  0.2018  0.4159  0.1959
34991SOL    HW1 7415   7.000   0.099   0.489  0.8138  0.9152 -0.7727
34991SOL    HW2 7416   7.137   0.164   0.492  0.6584  1.2096  1.4323
34992SOL     OW 7417   0.187   2.050   3.925  0.6705  0.2929  0.3507
34992SOL    HW1 7418   0.216   2.032   4.015 -0.9241  2.6108  1.4495
34992SOL    HW2 7419   0.204   2.143   3.913 -2.4677  0.8970 -0.3462
34993SOL     OW 7420   3.090   5.379   8.128 -0.6012 -0.1399 -0.0768
34993SOL    HW1 7421   3.151   5.446   8.099 -0.9400  1.6998  3.0446
34993SOL    HW2 7422   3.141   5.298   8.129  1.4240  1.0869  1.1779
34994SOL     OW 7423   7.299   3.051   2.885  0.1979 -0.4292 -0.1458
34994SOL    HW1 7424   7.254   3.038   2.969 -0.2619  3.1953  0.3380
34994SOL    HW2 7425   7.256   2.991   2.825  0.4164 -3.0320  2.1027
34995SOL     OW 7426   9.841   4.672   5.304 -0.2424  0.0392 -0.1440
34995SOL    HW1 7427   9.837   4.638   5.215  0.3908 -1.2045  0.2741
34995SOL    HW2 7428   9.816   4.764   5.296 -1.8912 -0.4700 -1.3541
34996SOL     OW 7429  10.339   4.021   7.285  0.3068  0.1780 -0.3561
34996SOL    HW1 7430  10.328   3.980   7.200 -1.3693 -1.7094  0.6896
34996SOL    HW2 7431  10.399   3.963   7.333 -0.4683  0.0219  0.4548
34997SOL     OW 7432  10.244   0.716   0.945 -0.1937 -1.0568 -0.0893
34997SOL    HW1 7433  10.219   0.797   0.989 -0.6945 -0.2739 -1.7343
34997SOL    HW2 7434  10.336   0.729   0.921  0.7906 -2.3808  2.5592
34998SOL     OW 7435   9.287  10.400   9.949  0.2651  0.4646 -0.1607
34998SOL    HW1 7436   9.309  10.343   9.876 -0.8578 -0.8481  0.4870
34998SOL    HW2 7437   9.360  10.390  10.011 -0.0360 -0.4950  0.0577
34999SOL     OW 7438   5.089   9.244   7.968 -0.3949 -0.4068  0.2461
34999SOL    HW1 7439   5.176   9.244   8.008  0.1011  0.4076 -0.7793
34999SOL    HW2 7440   5.039   9.308   8.018  0.8590  2.2344 -1.6262
35000SOL     OW 7441   9.756   9.463   5.166  0.2601  0.1225  0.0425
35000SOL    HW1 7442   9.797   9.549   5.173 -1.8143  1.1028  1.0407
35000SOL    HW2 7443   9.724   9.445   5.255 -0.9781 -0.8211 -0.5711
35001SOL     OW 7444   8.740   4.475   6.991 -0.0103  0.4698 -0.1785
35001SOL    HW1 7445   8.832   4.468   6.966  0.3339  0.0646  1.0979
35001SOL    HW2 7446   8.717   4.387   7.023 -0.7133  0.6753 -0.0994
35002SOL     OW 7447  10.407   9.991   7.547  0.0608  0.3108  0.0382
35002SOL    HW1 7448  10.378   9.903   7.521  1.9911 -0.2358 -0.4413
35002SOL    HW2 7449  10.446  10.027   7.468  4.0267 -0.4999  1.3914
35003SOL     OW 7450   3.525   2.846   9.295 -0.6485 -0.2894  0.4523
35003SOL    HW1 7451   3.563   2.818   9.378 -0.5095  0.7583  0.7488
35003SOL    HW2 7452   3.461   2.777   9.274 -0.1282 -0.9638  1.0163
35004SOL     OW 7453   1.561   3.196  10.047 -0.2192  0.2266 -0.0545
35004SOL    HW1 7454   1.483   3.146  10.022  0.9487 -0.7359 -2.0420
35004SOL    HW2 7455   1.600   3.223   9.964  3.9096 -3.0489  0.4686
35005SOL     OW 7456   1.414   6.518   5.812  0.5843  0.2362  0.5402
35005SOL    HW1 7457   1.353   6.588   5.834  1.0883  0.1085  2.4876
35005SOL    HW2 7458   1.399   6.451   5.878 -1.2383 -2.4608 -2.3126
35006SOL     OW 7459   7.669   9.629   8.610 -0.1364  0.1200 -0.6648
35006SOL    HW1 7460   7.660   9.540   8.644  0.3208  0.4008  0.2227
35006SOL    HW2 7461   7.754   9.659   8.642 -1.6028  2.0222  1.8808
35007SOL     OW 7462   9.068   4.715   3.216 -0.1577  0.1031 -0.4449
35007SOL    HW1 7463   9.135   4.784   3.223  1.1112 -0.9012 -2.0719
35007SOL    HW2 7464   8.995   4.756   3.171 -0.3736  1.0001  0.6660
35008SOL     OW 7465   4.830   6.034   6.390 -0.1629 -0.2038 -0.5928
35008SOL    HW1 7466   4.833   6.128   6.372  0.5583 -0.1126 -0.0026
35008SOL    HW2 7467   4.821   6.028   6.485 -0.5446 -0.7362 -0.6555
35009SOL     OW 7468   1.306   2.612   9.024 -0.8296  0.2405  0.0702
35009SOL    HW1 7469   1.260   2.528   9.016 -0.4171  0.0914 -0.9399
35009SOL    HW2 7470   1.284   2.658   8.943 -1.0224  1.1013  0.6048
35010SOL     OW 7471   0.951   6.639   9.757 -0.7283 -0.0068  0.0951
35010SOL    HW1 7472   0.885   6.576   9.731  0.0437 -0.3640 -1.1075
35010SOL    HW2 7473   0.920   6.675   9.840 -2.6280  0.1502 -0.6366
35011SOL     OW 7474   1.334   4.561  10.369  0.2763  0.5692 -0.1384
35011SOL    HW1 7475   1.334   4.569  10.274 -4.5609  1.8988 -0.2917
35011SOL    HW2 7476   1.353   4.649  10.401 -0.1670  0.6093  0.0281
35012SOL     OW 7477   8.434   1.572   2.172 -1.0936 -0.1961 -0.6739
35012SOL    HW1 7478   8.468   1.653   2.134 -1.9338  1.4870  1.9258
35012SOL    HW2 7479   8.510   1.514   2.176 -0.5139  0.3197 -2.7380
35013SOL     OW 7480   6.845   4.843  10.038 -0.2361 -0.1036  0.4463
35013SOL    HW1 7481   6.866   4.900   9.964  1.2121  2.2268  2.4849
35013SOL    HW2 7482   6.766   4.882  10.077 -0.0050 -0.2709  1.0995
35014SOL     OW 7483   4.612   0.351   3.055  0.6408 -0.2727 -0.3270
35014SOL    HW1 7484   4.554   0.301   2.997  1.4111 -0.9012 -0.5939
35014SOL    HW2 7485   4.693   0.300   3.056  1.3466  0.8161 -0.3323
35015SOL     OW 7486   1.259   0.800   4.175  0.4481 -0.8325  0.5430
35015SOL    HW1 7487   1.226   0.874   4.226 -1.0012 -0.1439 -1.2764
35015SOL    HW2 7488   1.302   0.840   4.099  1.5325 -1.8405  0.5911
35016SOL     OW 7489   0.095   5.340   9.872  0.0773  0.0749  0.9992
35016SOL    HW1 7490   0.184   5.363   9.846  0.0882 -1.6261 -0.6779
35016SOL    HW2 7491   0.045   5.421   9.862  1.0390  0.5643 -0.0464
35017SOL     OW 7492   5.513   1.019   4.521 -0.1002 -0.6239 -0.1238
35017SOL    HW1 7493   5.586   1.079   4.537 -0.2848 -0.1926 -0.8722
35017SOL    HW2 7494   5.548   0.932   4.542  0.6936 -0.4444 -0.6687
35018SOL     OW 7495   8.881   3.669   9.857  0.4522  0.5435 -0.7507
35018SOL    HW1 7496   8.827   3.705   9.787 -1.7275 -0.2322  0.4279
35018SOL    HW2 7497   8.842   3.704   9.937  1.9041  0.1738  0.1479
35019SOL     OW 7498   8.838   3.243   6.315  0.2576 -0.1472 -0.2070
35019SOL    HW1 7499   8.842   3.337   6.294 -0.8839 -0.2711 -1.0962
35019SOL    HW2 7500   8.799   3.240   6.402 -1.8617  0.1677 -1.0790
35020SOL     OW 7501   7.236  10.193   8.119  0.6256  0.3516  0.8587
35020SOL    HW1 7502   7.273  10.271   8.160 -0.0909  0.5259  1.1889
35020SOL    HW2 7503   7.153  10.178   8.165 -0.3225  0.6876 -0.6526
35021SOL     OW 7504   4.396   3.904   9.536 -0.3253 -0.8626  0.2033
35021SOL    HW1 7505   4.304   3.922   9.557  0.2546  3.2718 -0.0263
35021SOL    HW2 7506   4.439   3.901   9.621 -0.0529  2.2679  0.3027
35022SOL     OW 7507   8.749   7.921   9.398 -0.3454  0.4170  0.1619
35022SOL    HW1 7508   8.781   7.895   9.485  0.6650  0.5241 -0.1717
35022SOL    HW2 7509   8.688   7.992   9.416  1.3184  1.7678  0.6672
35023SOL     OW 7510   2.044   4.783   9.626  0.0398  0.5883 -0.1053
35023SOL    HW1 7511   2.085   4.864   9.596  0.0875  0.0581 -1.5434
35023SOL    HW2 7512   1.950   4.797   9.612  0.0059  0.5514  0.0748
35024SOL     OW 7513   2.514   0.223   4.715  0.5690 -0.4258  0.3398
35024SOL    HW1 7514   2.580   0.213   4.783 -0.3487 -0.4174  1.2726
35024SOL    HW2 7515   2.432   0.234   4.764  0.0209  0.6282 -0.7561
35025SOL     OW 7516   6.098   3.187   7.508 -0.1510 -0.4276  0.2259
35025SOL    HW1 7517   6.122   3.147   7.425 -0.3997 -1.4786  0.6516
35025SOL    HW2 7518   6.177   3.233   7.536 -0.4499  1.0550 -1.2050
35026SOL     OW 7519   5.010   8.790   3.726  0.4351  0.1942  0.2660
35026SOL    HW1 7520   5.093   8.811   3.683  0.2586 -0.0332 -0.1975
35026SOL    HW2 7521   5.022   8.817   3.817  0.7378  0.9021  0.0227
35027SOL     OW 7522   6.260   6.573   1.207 -0.0332  0.0176  0.1839
35027SOL    HW1 7523   6.209   6.600   1.284 -1.4534 -0.3188 -0.6070
35027SOL    HW2 7524   6.230   6.484   1.189 -2.2175  1.1868 -2.6940
35028SOL     OW 7525   2.225   2.760   9.736  0.2461  0.5881  0.2144
35028SOL    HW1 7526   2.167   2.723   9.669 -0.6882  0.1676  1.2219
35028SOL    HW2 7527   2.298   2.698   9.740 -0.6849 -0.4931  0.9839
35029SOL     OW 7528   0.421   1.456   3.831 -0.3004 -0.6800 -0.0042
35029SOL    HW1 7529   0.516   1.450   3.845 -0.5224 -2.7782  1.1388
35029SOL    HW2 7530   0.388   1.370   3.860 -2.6614  0.3408  0.5384
35030SOL     OW 7531   0.721  10.263   1.480 -0.4744 -0.3286 -0.0343
35030SOL    HW1 7532   0.796  10.203   1.476 -0.9816 -0.9472 -0.6748
35030SOL    HW2 7533   0.659  10.228   1.415 -1.4592 -0.0228  0.7078
35031SOL     OW 7534   3.673   5.442   8.149 -0.1659 -0.0944  0.0176
35031SOL    HW1 7535   3.595   5.447   8.204 -0.4164 -0.1652 -0.3250
35031SOL    HW2 7536   3.744   5.475   8.204 -0.3077 -0.7062  0.5789
35032SOL     OW 7537   8.016   8.271  10.357 -0.0003 -0.8735 -0.1645
35032SOL    HW1 7538   8.056   8.297  10.274 -0.9083 -0.7668 -0.5876
35032SOL    HW2 7539   7.933   8.319  10.359  0.3100 -0.3606  1.1250
35033SOL     OW 7540   6.116  10.391   4.717  0.1364  0.0098 -0.3898
35033SOL    HW1 7541   6.169  10.365   4.792  0.5187 -0.0120 -0.6672
35033SOL    HW2 7542   6.121  10.487   4.717  1.7860 -0.0426 -1.5603
35034SOL     OW 7543   3.322   0.836   4.623 -0.9246  0.0387  0.6327
35034SOL    HW1 7544   3.294   0.750   4.591  0.3395  0.0282 -0.5284
35034SOL    HW2 7545   3.333   0.824   4.718  0.5395 -1.4826  0.3151
35035SOL     OW 7546   5.492   6.253   6.449 -0.6071  0.0064 -0.3862
35035SOL    HW1 7547   5.523   6.297   6.528  0.5627  0.1297 -0.9015
35035SOL    HW2 7548   5.471   6.324   6.389  2.1074 -0.0684 -1.5367
35036SOL     OW 7549   1.923   1.677   0.412  0.1855 -0.6548  0.0923
35036SOL    HW1 7550   1.882   1.762   0.431  0.6204 -0.5570  0.6033
35036SOL    HW2 7551   1.922   1.631   0.496  0.9297 -0.7305  0.0606
35037SOL     OW 7552   2.450   4.278   7.083  0.4112  0.1774 -0.3992
35037SOL    HW1 7553   2.471   4.190   7.113  0.6016 -0.2229 -1.6557
35037SOL    HW2 7554   2.418   4.266   6.993  2.8020  1.5965 -1.5296
35038SOL     OW 7555   0.695   2.171   3.131  0.1395  0.5569 -0.1122
35038SOL    HW1 7556   0.720   2.194   3.220  1.5423 -1.4699  0.0817
35038SOL    HW2 7557   0.642   2.245   3.101 -1.0891  0.9353  2.6677
35039SOL     OW 7558   2.406   1.828   2.468 -0.1356  0.2913  0.3561
35039SOL    HW1 7559   2.355   1.887   2.523 -1.2927  2.0052 -2.3522
35039SOL    HW2 7560   2.416   1.875   2.385  0.1164 -2.7660 -1.4911
35040SOL     OW 7561  10.398   0.649   4.737  0.0002  0.3330  0.1180
35040SOL    HW1 7562  10.465   0.698   4.690 -0.6506  1.3490  0.2072
35040SOL    HW2 7563  10.323   0.645   4.677 -0.9268  1.8582  1.0887
35041SOL     OW 7564   4.800  10.454   3.988  0.0367 -0.2114  0.2264
35041SOL    HW1 7565   4.751  10.527   4.025  1.1139  1.2719 -1.1607
35041SOL    HW2 7566   4.844  10.414   4.063 -0.0715  0.9528  0.9214
35042SOL     OW 7567   8.444   5.948   9.710  0.2290 -0.2770 -0.1313
35042SOL    HW1 7568   8.536   5.942   9.684  0.6518 -0.6744  1.3813
35042SOL    HW2 7569   8.441   6.023   9.770 -0.7610  0.7347 -1.3807
35043SOL     OW 7570   9.526   0.240   2.712 -0.2644  0.4074 -0.0376
35043SOL    HW1 7571   9.595   0.183   2.747 -0.8686 -0.5269 -0.3113
35043SOL    HW2 7572   9.573   0.304   2.658  0.6347  1.5560  2.0044
35044SOL     OW 7573   7.568   2.067   3.230 -0.3435 -0.1161 -0.1009
35044SOL    HW1 7574   7.481   2.057   3.191 -1.2741 -0.3709  1.9345
35044SOL    HW2 7575   7.597   1.977   3.249 -0.1656  0.0330  0.3450
35045SOL     OW 7576   1.277   2.765   7.078  0.1676 -0.2432  0.2364
35045SOL    HW1 7577   1.197   2.721   7.108  0.4567 -0.7473  0.2837
35045SOL    HW2 7578   1.273   2.761   6.983 -0.6006  1.0840  0.1939
35046SOL     OW 7579  10.490   4.104   2.823 -0.1840 -0.6664 -0.5959
35046SOL    HW1 7580  10.537   4.152   2.891  0.8803 -0.3001 -1.5535
35046SOL    HW2 7581  10.487   4.014   2.855 -0.3428 -0.3658  0.2580
35047SOL     OW 7582   6.712   3.286   5.207 -0.4437  0.0583  0.1524
35047SOL    HW1 7583   6.723   3.356   5.272 -0.4799  0.2138 -0.0084
35047SOL    HW2 7584   6.619   3.264   5.212 -1.0855  1.9887 -1.7875
35048SOL     OW 7585   7.031   1.525   8.908  0.6983 -0.1000  0.1187
35048SOL    HW1 7586   6.974   1.556   8.838  0.1253  1.2316  1.1107
35048SOL    HW2 7587   7.012   1.584   8.981  5.5297  2.5411 -0.3684
35049SOL     OW 7588   1.310   6.998   5.679 -0.1517 -0.1709 -0.6116
35049SOL    HW1 7589   1.318   7.037   5.767 -2.5302 -0.7403 -0.0840
35049SOL    HW2 7590   1.217   6.976   5.671  0.4555 -2.4064 -2.3245
35050SOL     OW 7591   8.703   6.734   8.762  0.2624  0.2075  0.2377
35050SOL    HW1 7592   8.643   6.736   8.837 -1.9560 -1.4488 -1.3513
35050SOL    HW2 7593   8.722   6.826   8.745  1.0117  0.6457  2.9008
35051SOL     OW 7594   0.880   0.626   9.304  0.0200  0.0876 -0.2113
35051SOL    HW1 7595   0.890   0.619   9.209  1.8671 -0.3894 -0.0233
35051SOL    HW2 7596   0.813   0.693   9.316 -0.0250  0.3838 -1.8453
35052SOL     OW 7597   7.796   3.952   6.411 -0.0710  0.2942  0.0334
35052SOL    HW1 7598   7.850   4.020   6.371 -0.0536  0.8703  1.0179
35052SOL    HW2 7599   7.858   3.881   6.429 -0.4966 -1.1977 -3.4338
35053SOL     OW 7600   6.001   4.344   2.141  0.2187 -0.6704 -0.3979
35053SOL    HW1 7601   6.090   4.362   2.110  0.2121  0.1033  0.0033
35053SOL    HW2 7602   5.946   4.402   2.089 -0.0817 -1.3302 -0.8192
35054SOL     OW 7603   6.476   4.570   6.350 -0.2373 -0.1329  0.1933
35054SOL    HW1 7604   6.536   4.636   6.313  1.6389 -1.1110  1.3815
35054SOL    HW2 7605   6.447   4.519   6.274  0.7367  0.1216 -0.3633
35055SOL     OW 7606   3.930   1.777   5.694 -0.2758  0.2535 -0.2949
35055SOL    HW1 7607   4.014   1.822   5.682  0.1538 -0.5655 -0.4610
35055SOL    HW2 7608   3.955   1.688   5.720 -1.0948  0.0179 -0.3073
35056SOL     OW 7609   2.964   8.663   6.526  0.0296 -0.5468  0.5684
35056SOL    HW1 7610   2.870   8.652   6.539  0.2805 -2.0576  1.2759
35056SOL    HW2 7611   2.989   8.590   6.469  0.4244  1.1201 -1.5238
35057SOL     OW 7612   9.597   3.800   4.617 -0.0932 -0.6289 -1.1391
35057SOL    HW1 7613   9.569   3.723   4.567 -1.8539 -0.4276 -0.5266
35057SOL    HW2 7614   9.685   3.817   4.586  0.1381 -2.5531 -1.7088
35058SOL     OW 7615   3.849   4.645   3.677 -0.0472  0.0222  0.0260
35058SOL    HW1 7616   3.874   4.578   3.740 -2.5960 -0.5494  0.5262
35058SOL    HW2 7617   3.801   4.710   3.728  0.1357  0.9228 -0.8987
35059SOL     OW 7618   2.169   9.011   1.139  0.2261  0.5533  0.6219
35059SOL    HW1 7619   2.187   9.057   1.057  3.0817  2.4293  2.1128
35059SOL    HW2 7620   2.097   8.953   1.119 -0.6531  2.5178 -2.6163
35060SOL     OW 7621   7.378   0.941   7.289 -0.1680 -0.1234 -0.2734
35060SOL    HW1 7622   7.365   1.032   7.314  1.6094  0.3319 -0.8880
35060SOL    HW2 7623   7.380   0.893   7.372  1.3993  0.7652  0.2351
35061SOL     OW 7624   5.932   1.044   0.214 -0.5687 -0.5249 -0.3886
35061SOL    HW1 7625   5.975   1.020   0.296 -0.1566  3.4208  0.7366
35061SOL    HW2 7626   5.989   1.009   0.146  0.6179 -1.4634  1.0245
35062SOL     OW 7627   1.364   4.182   1.897 -0.2332 -0.3583  0.1153
35062SOL    HW1 7628   1.460   4.186   1.900 -0.1131 -1.0203 -1.6988
35062SOL    HW2 7629   1.337   4.269   1.868  0.0546 -1.0133 -2.3502
35063SOL     OW 7630   3.973   3.107   3.600 -0.6576  0.5590  0.4233
35063SOL    HW1 7631   4.025   3.031   3.625  0.4444  1.4394  0.9114
35063SOL    HW2 7632   3.984   3.169   3.673 -2.0388  0.9527  0.3330
35064SOL     OW 7633   8.198   6.732   9.981  0.5401  0.0271  0.3544
35064SOL    HW1 7634   8.238   6.659  10.030  0.9301 -0.9703 -1.3397
35064SOL    HW2 7635   8.235   6.810  10.021  1.4388 -0.7637  1.1480
35065SOL     OW 7636   6.454   2.357   5.052 -0.6582  0.1287  0.0436
35065SOL    HW1 7637   6.460   2.452   5.054  0.5210  0.0575  0.4052
35065SOL    HW2 7638   6.536   2.328   5.014 -0.7918 -0.7642  0.4103
35066SOL     OW 7639   9.959   4.990   1.074 -0.7566  0.3346  0.4074
35066SOL    HW1 7640   9.967   4.971   0.981 -0.4256 -1.9516  0.8430
35066SOL    HW2 7641  10.042   4.961   1.112 -1.1608  0.5603  1.5031
35067SOL     OW 7642   2.709   0.532   0.294 -0.4795  0.1326 -0.3089
35067SOL    HW1 7643   2.629   0.479   0.281  0.3340 -0.8346 -1.6641
35067SOL    HW2 7644   2.780   0.468   0.291  0.5505  1.2650 -2.0410
35068SOL     OW 7645   0.893   0.389   2.806  0.0583  0.0092  0.6434
35068SOL    HW1 7646   0.829   0.320   2.790 -0.9960  0.5706  2.1319
35068SOL    HW2 7647   0.943   0.358   2.882  0.3513  0.3661  0.5999
35069SOL     OW 7648   7.206   7.251   6.361  0.3185 -0.7411 -0.0526
35069SOL    HW1 7649   7.228   7.271   6.452  1.1640 -0.7696 -0.2402
35069SOL    HW2 7650   7.290   7.231   6.320 -0.1244 -1.3561 -0.6899
35070SOL     OW 7651   1.477   8.882   7.840 -0.6697  0.0572  0.1394
35070SOL    HW1 7652   1.460   8.799   7.884 -0.2759 -0.1272 -0.0588
35070SOL    HW2 7653   1.401   8.936   7.862 -1.0671 -0.4485  0.0286
35071SOL     OW 7654   4.457   7.443   4.093 -0.3148  0.5293 -1.0390
35071SOL    HW1 7655   4.437   7.352   4.070 -1.4786  0.8091 -1.2055
35071SOL    HW2 7656   4.443   7.448   4.187  1.4456  0.1393 -0.7137
35072SOL     OW 7657   5.307   5.506   2.073  0.2986  0.4627 -0.0434
35072SOL    HW1 7658   5.274   5.553   2.150  0.5668  2.0707 -0.8615
35072SOL    HW2 7659   5.382   5.457   2.106 -1.4989 -1.5119  1.3756
35073SOL     OW 7660   6.332   8.789   2.649 -0.6185  0.0413  0.2223
35073SOL    HW1 7661   6.407   8.831   2.608  0.2171 -1.9165 -0.3647
35073SOL    HW2 7662   6.367   8.745   2.726 -0.4267 -3.4500 -1.6678
35074SOL     OW 7663   7.399   8.182   1.302  0.2023 -0.1384  0.6659
35074SOL    HW1 7664   7.331   8.132   1.348 -1.1331  0.3123 -0.7087
35074SOL    HW2 7665   7.433   8.122   1.236  1.4903 -0.5049  1.6391
35075SOL     OW 7666  10.039   4.913   8.007  0.2739 -0.3360 -0.2218
35075SOL    HW1 7667  10.062   4.875   7.922 -0.9600 -1.3695 -0.1281
35075SOL    HW2 7668   9.999   4.840   8.055 -0.2911  0.5834  0.7351
35076SOL     OW 7669  10.019   3.501   8.054 -0.4004 -0.0512  0.2744
35076SOL    HW1 7670  10.055   3.547   8.130  1.2779  0.9367 -1.0576
35076SOL    HW2 7671  10.021   3.566   7.984  1.5245 -1.9476 -1.5568
35077SOL     OW 7672   0.569   5.416   6.069  0.5989  0.4311  0.9080
35077SOL    HW1 7673   0.629   5.346   6.092  0.6664  0.2204  0.1108
35077SOL    HW2 7674   0.546   5.457   6.153  4.3508  2.6118  1.0858
35078SOL     OW 7675   0.146   4.229   4.869 -0.1792  0.0447  0.6475
35078SOL    HW1 7676   0.106   4.142   4.862 -1.6266  0.6987  0.3121
35078SOL    HW2 7677   0.097   4.272   4.939 -1.0941  1.3802 -0.7425
35079SOL     OW 7678   2.718   7.919   2.220  0.4520 -0.0275 -0.5067
35079SOL    HW1 7679   2.708   7.930   2.125 -1.3357  0.1827 -0.3160
35079SOL    HW2 7680   2.691   8.002   2.257 -0.6967 -0.7251  0.2703
35080SOL     OW 7681   2.236   8.308   3.351  0.2788 -0.3083 -0.5503
35080SOL    HW1 7682   2.171   8.373   3.322  1.9554  1.5425 -0.3932
35080SOL    HW2 7683   2.276   8.348   3.428  2.1711 -0.9878 -1.1254
35081SOL     OW 7684   5.093   1.650   7.093 -0.4425 -0.1770  0.0728
35081SOL    HW1 7685   5.095   1.670   7.000  1.0679 -0.8128 -0.0706
35081SOL    HW2 7686   5.041   1.571   7.100 -0.3757 -0.2527 -0.2713
35082SOL     OW 7687   2.908   6.110   9.017  0.4044 -0.3260  0.5158
35082SOL    HW1 7688   2.837   6.132   9.078 -0.7197 -1.2738 -0.4108
35082SOL    HW2 7689   2.979   6.078   9.073 -0.2760 -0.3351  1.3904
35083SOL     OW 7690   0.651   3.324   0.383 -0.0567  0.1559 -0.1636
35083SOL    HW1 7691   0.667   3.243   0.334 -0.4201  0.0276 -0.0684
35083SOL    HW2 7692   0.556   3.326   0.396  0.0335  0.2287  0.4781
35084SOL     OW 7693   9.352   6.263   9.053  0.3768 -0.2308  0.0805
35084SOL    HW1 7694   9.299   6.342   9.050 -0.5920 -0.9073 -1.3667
35084SOL    HW2 7695   9.291   6.192   9.073  0.9390 -0.8573 -0.3508
35085SOL     OW 7696   3.151   5.915   8.794 -0.3572 -0.1173 -0.4082
35085SOL    HW1 7697   3.215   5.914   8.865 -0.9699  0.7360  0.1755
35085SOL    HW2 7698   3.176   5.842   8.738 -0.7794 -1.7974  1.4934
35086SOL     OW 7699   3.974   0.020   7.980 -0.1487 -0.1017 -0.7228
35086SOL    HW1 7700   4.013  -0.063   8.005 -0.7046  0.0213  0.6286
35086SOL    HW2 7701   4.049   0.076   7.958  0.2344 -0.8909 -1.5004
35087SOL     OW 7702  10.453   5.998   4.329  0.1257 -0.1154  0.0407
35087SOL    HW1 7703  10.462   6.059   4.402  0.6763 -0.3144  0.1443
35087SOL    HW2 7704  10.407   6.048   4.261 -1.5755 -0.3199  0.9801
35088SOL     OW 7705   2.321   7.163   1.737  0.0554 -0.2430 -0.3155
35088SOL    HW1 7706   2.400   7.148   1.790 -0.0498  0.8239  0.1697
35088SOL    HW2 7707   2.248   7.143   1.796 -0.0819  1.6293  0.2357
35089SOL     OW 7708   8.448   6.634   8.287  0.6215 -0.1482  0.0497
35089SOL    HW1 7709   8.364   6.597   8.312 -0.4682  2.8967  1.3466
35089SOL    HW2 7710   8.447   6.634   8.191 -0.6578 -0.6228  0.0465
35090SOL     OW 7711   1.793   8.103   3.118  0.5041 -0.0402 -0.7698
35090SOL    HW1 7712   1.773   8.012   3.137 -1.1400  0.7286  1.7678
35090SOL    HW2 7713   1.873   8.121   3.168  0.3929  0.0857 -0.6347
35091SOL     OW 7714  10.449   8.364   9.438 -0.6107 -0.5246  0.0011
35091SOL    HW1 7715  10.353   8.361   9.440 -0.6885  0.5756 -1.0429
35091SOL    HW2 7716  10.472   8.445   9.482 -0.3730  1.0624 -2.8339
35092SOL     OW 7717   0.882   6.201   4.164 -0.4302 -0.2152  0.3294
35092SOL    HW1 7718   0.941   6.127   4.152  0.1200  0.2304  0.2465
35092SOL    HW2 7719   0.910   6.265   4.099 -0.8250  0.1154  0.4806
35093SOL     OW 7720   2.864   0.456   9.287  0.2462 -0.7547 -0.8074
35093SOL    HW1 7721   2.774   0.486   9.276 -0.4265 -2.4323 -0.1621
35093SOL    HW2 7722   2.894   0.434   9.199 -0.0997 -0.5453 -0.9749
35094SOL     OW 7723   0.265   0.971   0.741 -0.3132 -0.0841  0.0941
35094SOL    HW1 7724   0.271   1.063   0.768 -0.8225 -0.5933  2.1507
35094SOL    HW2 7725   0.284   0.922   0.821 -3.6660 -1.7508  0.0645
35095SOL     OW 7726   5.395   6.812   1.206 -0.2715  0.8839  0.5135
35095SOL    HW1 7727   5.397   6.792   1.299  0.6417  1.6992  0.6830
35095SOL    HW2 7728   5.462   6.879   1.194 -1.9309  2.4662 -0.3476
35096SOL     OW 7729   4.352   8.758   8.403 -0.9449  0.0250  0.6243
35096SOL    HW1 7730   4.413   8.823   8.439 -1.8396  1.9338 -1.1192
35096SOL    HW2 7731   4.394   8.729   8.322 -1.4966 -0.0527  0.3655
35097SOL     OW 7732   2.808   3.573   6.404  0.6064  0.2827 -0.2270
35097SOL    HW1 7733   2.902   3.581   6.394  0.7027 -1.2553 -0.7661
35097SOL    HW2 7734   2.774   3.574   6.315  0.4078 -1.9876 -0.2343
35098SOL     OW 7735   5.720   8.789   4.958 -0.3036  0.4680 -0.5996
35098SOL    HW1 7736   5.688   8.700   4.977 -0.3208  1.0764  2.8386
35098SOL    HW2 7737   5.813   8.787   4.984 -0.6060  1.7128  0.6969
35099SOL     OW 7738   9.016   1.871   9.281 -1.2711 -0.5014  0.2275
35099SOL    HW1 7739   8.967   1.937   9.330  2.2547 -0.5676  4.3605
35099SOL    HW2 7740   8.998   1.789   9.326 -0.7280 -1.2758 -0.9111
35100SOL     OW 7741   9.849   1.738   0.348 -0.0555 -0.6535  0.4227
35100SOL    HW1 7742   9.874   1.696   0.266  0.2353 -0.9774  0.6723
35100SOL    HW2 7743   9.758   1.712   0.362 -1.1521  1.8809 -1.3441
35101SOL     OW 7744   2.503   5.235   1.417 -0.8160 -0.6585 -0.1370
35101SOL    HW1 7745   2.437   5.287   1.463  0.1498 -0.0992  0.6247
35101SOL    HW2 7746   2.479   5.244   1.324 -1.6325 -0.2152  0.1075
35102SOL     OW 7747   4.929  10.372   0.932  0.0280 -0.2382  0.0978
35102SOL    HW1 7748   4.847  10.322   0.935  0.7482 -1.4126  1.7865
35102SOL    HW2 7749   4.926  10.419   0.848 -1.8181 -1.1743 -0.4062
35103SOL     OW 7750   9.408   7.188   6.099  0.0904  0.1331 -0.4183
35103SOL    HW1 7751   9.489   7.234   6.077 -0.1831  1.2285  0.6900
35103SOL    HW2 7752   9.416   7.169   6.193 -1.3828  1.3419  0.0143
35104SOL     OW 7753   5.832   0.009   3.103  0.3450  0.7927 -0.1436
35104SOL    HW1 7754   5.776  -0.069   3.104  0.4700  0.7010  0.4797
35104SOL    HW2 7755   5.771   0.081   3.121  0.6490  0.4967  2.6319
35105SOL     OW 7756   9.296   9.755   1.766  0.0627  0.3526 -0.0997
35105SOL    HW1 7757   9.228   9.729   1.829  0.1136  0.5905  0.0572
35105SOL    HW2 7758   9.358   9.683   1.767 -1.8072 -1.4728 -2.7025
35106SOL     OW 7759   8.970   6.547   3.251 -0.8461 -0.2941  0.6284
35106SOL    HW1 7760   8.990   6.628   3.204 -0.5946  0.4196  1.9074
35106SOL    HW2 7761   9.038   6.486   3.223  0.1098  0.5348  1.0635
35107SOL     OW 7762   8.673   2.878   4.453 -0.3296 -0.5541  0.0652
35107SOL    HW1 7763   8.738   2.948   4.459  0.0573 -0.9717  0.9332
35107SOL    HW2 7764   8.662   2.864   4.359 -0.7756  0.9909 -0.1430
35108SOL     OW 7765   1.650   3.011   3.953 -0.2039  0.1885  0.4836
35108SOL    HW1 7766   1.689   3.092   3.921 -0.4368  0.1503  0.0989
35108SOL    HW2 7767   1.625   2.963   3.874 -1.0471  0.2245  0.7184
35109SOL     OW 7768   5.209  10.303   7.787 -0.3137  0.0189 -0.1284
35109SOL    HW1 7769   5.114  10.308   7.799 -0.2889 -0.2938  0.2092
35109SOL    HW2 7770   5.230  10.379   7.733 -0.4222  1.5900  1.8913
35110SOL     OW 7771   8.938   1.251   3.349  0.6911 -0.5559  0.0048
35110SOL    HW1 7772   8.972   1.313   3.413  1.1624 -0.4408 -0.3452
35110SOL    HW2 7773   8.845   1.241   3.371  0.6092  0.2745  0.0658
35111SOL     OW 7774   1.136   9.233   3.967  0.6658  0.3971  0.1717
35111SOL    HW1 7775   1.164   9.142   3.978  0.1400  0.2480  0.2972
35111SOL    HW2 7776   1.168   9.277   4.046  0.8253  0.2982  0.1633
35112SOL     OW 7777   4.782   1.827   8.945  0.0393 -0.1310  0.3256
35112SOL    HW1 7778   4.845   1.832   8.873 -1.2601  0.8116 -0.8082
35112SOL    HW2 7779   4.778   1.916   8.980  1.4260 -0.7779  2.3167
35113SOL     OW 7780   6.306  10.071   5.824 -0.4218  0.0124  0.3325
35113SOL    HW1 7781   6.397  10.087   5.802 -0.8825 -0.5339 -2.3834
35113SOL    HW2 7782   6.307   9.989   5.873  0.6829  1.0977  2.2079
35114SOL     OW 7783  10.027   4.819   7.759  0.5550  0.1220 -0.0012
35114SOL    HW1 7784  10.079   4.773   7.694 -0.5960 -0.1358 -0.7710
35114SOL    HW2 7785   9.941   4.831   7.717  0.3240  1.4977  0.8058
35115SOL     OW 7786   1.607   8.067   9.471 -0.7641 -0.0756 -0.2054
35115SOL    HW1 7787   1.662   8.047   9.395  0.4659 -0.1383  0.6726
35115SOL    HW2 7788   1.524   8.022   9.453 -0.8558  0.6894 -1.9332
35116SOL     OW 7789   4.363   0.131   9.376  0.0444  0.6316 -0.3700
35116SOL    HW1 7790   4.351   0.036   9.373  0.3778  0.6128 -1.2000
35116SOL    HW2 7791   4.404   0.147   9.461  1.1950 -0.1103 -0.7644
35117SOL     OW 7792   0.266   4.304   9.626  0.0575 -0.1761  0.2601
35117SOL    HW1 7793   0.264   4.234   9.560 -2.0590  0.5108 -0.4667
35117SOL    HW2 7794   0.318   4.373   9.586  0.1261 -0.3898 -0.0263
35118SOL     OW 7795   6.270   4.941   9.029 -0.0222 -0.1336  0.3744
35118SOL    HW1 7796   6.322   4.866   9.000  1.0094  0.6575  0.1009
35118SOL    HW2 7797   6.226   4.912   9.109  1.0087 -0.7614  0.7222
35119SOL     OW 7798   9.349   8.279   2.304 -0.1228 -0.0030  0.1518
35119SOL    HW1 7799   9.278   8.330   2.344 -1.6834 -1.5029 -0.6107
35119SOL    HW2 7800   9.428   8.329   2.325 -0.6002 -0.9076  5.6901
35120SOL     OW 7801   3.863   5.390   9.760  0.2702  0.2228  0.3073
35120SOL    HW1 7802   3.911   5.425   9.685  1.4334  1.3876  1.5365
35120SOL    HW2 7803   3.918   5.320   9.794 -1.4582 -2.1276 -1.3716
35121SOL     OW 7804   4.391   9.065   9.166  0.0769 -0.2338 -0.4538
35121SOL    HW1 7805   4.408   9.035   9.077  1.2433 -0.9194 -0.0283
35121SOL    HW2 7806   4.416   8.991   9.222  1.5850  0.9466  0.5485
35122SOL     OW 7807   7.628   9.093   1.400 -0.2339  0.0725 -0.3591
35122SOL    HW1 7808   7.541   9.119   1.432  0.2695  0.5428  0.6862
35122SOL    HW2 7809   7.675   9.066   1.479  0.3324 -0.9194 -1.0152
35123SOL     OW 7810  10.237   5.987   6.916  0.7244  0.3683 -0.3863
35123SOL    HW1 7811  10.259   5.922   6.983 -0.2994  2.5015  2.1881
35123SOL    HW2 7812  10.322   6.018   6.884  1.2246 -1.0307 -0.4628
35124SOL     OW 7813   5.660   3.615   5.673 -0.1376 -0.1815  0.1394
35124SOL    HW1 7814   5.599   3.611   5.599 -0.2889 -1.5720  0.3231
35124SOL    HW2 7815   5.605   3.638   5.748  0.2600  2.9872 -0.3892
35125SOL     OW 7816   4.510   5.323   6.767  0.2660  0.4514 -0.2004
35125SOL    HW1 7817   4.593   5.363   6.741  0.2336  1.0262  0.5284
35125SOL    HW2 7818   4.528   5.287   6.855  0.0131 -0.2819 -0.4407
35126SOL     OW 7819   1.935   8.825   2.238  0.6200 -0.7707  0.1730
35126SOL    HW1 7820   2.004   8.807   2.303  1.5686 -0.2485 -0.6613
35126SOL    HW2 7821   1.910   8.739   2.206 -0.4559 -1.1124  1.7885
35127SOL     OW 7822   2.238   0.656   3.700 -0.7307  0.3156  0.3171
35127SOL    HW1 7823   2.156   0.644   3.653  0.3211  0.0143 -1.5513
35127SOL    HW2 7824   2.284   0.572   3.688  0.2830  0.8491  0.3895
35128SOL     OW 7825   9.271   4.859   2.464 -0.4333  0.4922  0.0090
35128SOL    HW1 7826   9.185   4.828   2.436 -0.6401  2.4068 -1.6865
35128SOL    HW2 7827   9.280   4.946   2.425  1.9806  0.6619  0.7388
35129SOL     OW 7828   4.287   2.925   7.425  0.6117  0.0195  0.1392
35129SOL    HW1 7829   4.246   2.850   7.468  1.9351 -1.2577 -0.7166
35129SOL    HW2 7830   4.306   2.986   7.497 -0.9149 -0.2219  0.7867
35130SOL     OW 7831   5.480   0.723   2.412  0.1832 -0.2599  0.1572
35130SOL    HW1 7832   5.475   0.798   2.471  1.0976 -0.5888  0.6644
35130SOL    HW2 7833   5.554   0.742   2.355 -0.2673 -0.2700 -0.4466
35131SOL     OW 7834   4.482   2.424   4.663  0.1102  0.3602 -0.3055
35131SOL    HW1 7835   4.436   2.340   4.656  1.7091 -0.9296  2.7488
35131SOL    HW2 7836   4.445   2.465   4.741  2.8047  0.0568  1.2393
35132SOL     OW 7837   4.335   2.964   6.178  0.9392  0.0035 -0.4214
35132SOL    HW1 7838   4.263   2.982   6.118 -0.2279 -2.1856  0.2212
35132SOL    HW2 7839   4.295   2.969   6.265  1.9836  0.4753  0.0540
35133SOL     OW 7840   0.168   9.429  10.271  0.6386 -0.4306  0.2590
35133SOL    HW1 7841   0.098   9.398  10.213 -0.9183  0.3370  1.6500
35133SOL    HW2 7842   0.166   9.369  10.345  0.0590  0.7939  1.2627
35134SOL     OW 7843   5.011   3.154   1.787 -0.1196 -0.3046 -0.2371
35134SOL    HW1 7844   4.973   3.191   1.708  2.2276  0.3417 -1.1541
35134SOL    HW2 7845   4.970   3.202   1.858 -1.6020 -0.2574 -1.0865
35135SOL     OW 7846   4.097   7.988   9.773 -0.0602  0.5496 -0.2023
35135SOL    HW1 7847   4.141   8.009   9.690 -0.5713 -0.2173 -0.6834
35135SOL    HW2 7848   4.004   8.002   9.754 -0.2245 -0.1085  0.0912
35136SOL     OW 7849   2.388   2.051   8.158 -0.0890  0.1763 -0.1397
35136SOL    HW1 7850   2.417   2.086   8.073 -0.2630  1.7259  0.4062
35136SOL    HW2 7851   2.467   2.053   8.212 -0.3570  0.8923  0.2447
35137SOL     OW 7852   9.586   8.634   6.071  0.1687 -0.4237  0.4844
35137SOL    HW1 7853   9.573   8.729   6.070 -0.4207 -0.4765  1.7580
35137SOL    HW2 7854   9.680   8.623   6.088  0.4099 -0.0860 -0.5226
35138SOL     OW 7855   4.584   0.957   8.994 -0.1308  0.2806  0.1893
35138SOL    HW1 7856   4.587   0.908   8.912  1.9449 -0.0590  0.4051
35138SOL    HW2 7857   4.635   0.904   9.055 -0.9935  0.9051  1.5106
35139SOL     OW 7858   8.388   8.036   1.108  0.0968 -0.1297  0.0383
35139SOL    HW1 7859   8.382   8.093   1.184 -1.4802 -0.2469  0.0332
35139SOL    HW2 7860   8.468   7.986   1.122  0.3638  0.5560  1.1117
35140SOL     OW 7861   5.069   0.507   7.407  0.2473 -0.3281 -0.4208
35140SOL    HW1 7862   5.060   0.589   7.455  2.2885  1.5016 -2.8855
35140SOL    HW2 7863   4.986   0.499   7.359  0.2856  0.7006 -0.6903
35141SOL     OW 7864   0.690   3.148   9.154 -0.4674 -0.8852  0.6396
35141SOL    HW1 7865   0.632   3.149   9.078 -0.2401 -2.3895  0.4099
35141SOL    HW2 7866   0.639   3.186   9.225 -0.9967 -0.2811 -0.0589
35142SOL     OW 7867   9.899   4.322   8.625  0.0147 -0.6730 -0.3394
35142SOL    HW1 7868   9.907   4.416   8.615 -0.5777 -0.8127 -2.9255
35142SOL    HW2 7869   9.987   4.292   8.646 -0.1971  0.5768  2.9161
35143SOL     OW 7870   3.541   3.071   3.381  0.3195  0.4177  0.3720
35143SOL    HW1 7871   3.486   3.052   3.304  1.7442 -1.2764 -0.2893
35143SOL    HW2 7872   3.602   3.138   3.350  0.8055 -0.1672  0.0300
35144SOL     OW 7873   3.332   6.561   8.999 -0.3942  0.3756 -0.4796
35144SOL    HW1 7874   3.323   6.466   9.002 -0.5294  0.3102 -2.1298
35144SOL    HW2 7875   3.257   6.591   8.947  0.1909  1.2999 -0.8165
35145SOL     OW 7876   1.923   4.974   3.409  0.5497 -0.6272  0.4752
35145SOL    HW1 7877   1.963   4.935   3.487  0.8758 -2.6405 -0.6356
35145SOL    HW2 7878   1.867   4.906   3.374  1.9263 -0.5564 -2.1526
35146SOL     OW 7879   7.402   2.457   7.792 -0.1165 -0.0696  0.0117
35146SOL    HW1 7880   7.356   2.517   7.851  1.3881  0.4247  0.7278
35146SOL    HW2 7881   7.486   2.500   7.774  0.7009 -1.6170 -0.0464
35147SOL     OW 7882   5.135   7.761   6.645  0.3898  0.0213 -0.0095
35147SOL    HW1 7883   5.220   7.802   6.657  0.7240 -0.1315 -1.5542
35147SOL    HW2 7884   5.078   7.802   6.709  1.8186 -0.5041  1.6760
35148SOL     OW 7885   8.917   3.379   7.488  0.4702  0.3055 -0.5214
35148SOL    HW1 7886   8.919   3.367   7.583  1.8804  0.1613 -0.5524
35148SOL    HW2 7887   8.927   3.473   7.475  1.3184  0.2178 -0.5414
35149SOL     OW 7888   4.481   8.319   9.152 -0.0957  0.2410  0.2559
35149SOL    HW1 7889   4.389   8.341   9.166 -0.2579 -0.2829  0.0322
35149SOL    HW2 7890   4.511   8.287   9.238 -0.1678  0.2496  0.2849
35150SOL     OW 7891   7.311   6.819   0.125 -0.3753  0.0456 -0.3129
35150SOL    HW1 7892   7.221   6.787   0.112 -0.0482 -1.6862  1.2365
35150SOL    HW2 7893   7.358   6.789   0.047 -0.1689 -3.1788  0.9104
35151SOL     OW 7894   9.072   0.518   5.164 -0.4120 -0.1725 -0.5201
35151SOL    HW1 7895   8.986   0.482   5.146  0.4361 -1.8130 -1.5767
35151SOL    HW2 7896   9.061   0.569   5.244 -2.2199 -0.8354 -0.3053
35152SOL     OW 7897  10.057   3.693   3.702 -0.4289  0.5343  0.1687
35152SOL    HW1 7898  10.005   3.671   3.624  0.7738  0.4949 -0.6387
35152SOL    HW2 7899  10.043   3.787   3.714 -1.4395  0.3526  0.5362
35153SOL     OW 7900   4.777   4.324   6.325  0.7237 -0.7894 -0.4756
35153SOL    HW1 7901   4.699   4.337   6.270  0.5193 -1.4622 -0.3578
35153SOL    HW2 7902   4.767   4.387   6.396 -0.1419 -1.4312 -0.0109
35154SOL     OW 7903   3.910   1.462   1.631  0.1168  0.0077 -0.1809
35154SOL    HW1 7904   3.951   1.526   1.689 -2.7467  1.9251 -0.0663
35154SOL    HW2 7905   3.883   1.391   1.689 -0.1213  0.5508  0.3917
35155SOL     OW 7906   2.157   4.927   8.401 -0.0040  0.1490  0.1002
35155SOL    HW1 7907   2.224   4.883   8.455 -0.0870 -0.5610 -0.3578
35155SOL    HW2 7908   2.181   5.019   8.405  1.5194 -0.1742 -0.7410
35156SOL     OW 7909   5.544   6.782  10.485  0.5534  0.7510 -0.1696
35156SOL    HW1 7910   5.572   6.705  10.437 -0.0544  1.4816 -1.7918
35156SOL    HW2 7911   5.592   6.854  10.445 -0.6082  1.4961 -0.2654
35157SOL     OW 7912   5.926   3.360   8.496  0.1365  0.2598 -0.0812
35157SOL    HW1 7913   5.873   3.372   8.417  1.0877  0.4998 -0.7014
35157SOL    HW2 7914   5.862   3.347   8.566 -0.7307  0.2796 -0.8484
35158SOL     OW 7915   2.109   4.755   5.566 -0.2857  0.6435  0.9229
35158SOL    HW1 7916   2.030   4.702   5.560  1.1066 -1.6620  1.3946
35158SOL    HW2 7917   2.094   4.829   5.507 -1.9955 -0.7693 -0.5255
35159SOL     OW 7918   4.060   3.590   3.047  0.0139  0.3280  0.6487
35159SOL    HW1 7919   3.995   3.618   3.111  0.7096  2.6244  0.4604
35159SOL    HW2 7920   4.097   3.672   3.014  3.0811 -0.8357  0.8509
35160SOL     OW 7921   0.561   1.388   2.385  0.2790  0.1125  0.1473
35160SOL    HW1 7922   0.636   1.440   2.414  0.3121 -0.3398  0.8863
35160SOL    HW2 7923   0.488   1.420   2.438 -0.2393  1.0678 -1.0795
35161SOL     OW 7924   5.972   3.771   9.246  0.5093 -0.1082 -0.0474
35161SOL    HW1 7925   5.903   3.837   9.250 -0.9826 -1.6607  1.3283
35161SOL    HW2 7926   5.947   3.714   9.173  0.4737 -0.5367  0.2975
35162SOL     OW 7927   2.422   1.019   8.957  0.1164 -0.1076  0.3238
35162SOL    HW1 7928   2.395   1.092   8.902  0.1506  0.0772  0.5503
35162SOL    HW2 7929   2.340   0.977   8.983  0.1059 -0.2474  0.0572
35163SOL     OW 7930   1.465   0.687   2.728  0.2904  0.2316  0.3963
35163SOL    HW1 7931   1.414   0.666   2.650 -1.0752  1.0350  1.0384
35163SOL    HW2 7932   1.503   0.603   2.755  1.6606  0.0984 -1.6709
35164SOL     OW 7933   1.806   2.463   1.390  0.4790  0.6098  0.3606
35164SOL    HW1 7934   1.815   2.421   1.475  0.7805  1.6084  0.8443
35164SOL    HW2 7935   1.896   2.476   1.359  0.3827  0.5875  0.0638
35165SOL     OW 7936   6.684   3.036  10.127  0.2728 -0.2168 -0.0385
35165SOL    HW1 7937   6.728   3.042  10.212  1.6663  2.3240 -0.8401
35165SOL    HW2 7938   6.666   3.126  10.103 -2.2768 -0.9819 -1.4212
35166SOL     OW 7939   8.085   4.067   1.054  0.2076 -0.3793  0.4914
35166SOL    HW1 7940   8.129   4.008   0.993 -0.1730 -0.9851  0.8010
35166SOL    HW2 7941   8.113   4.036   1.141  1.5279  1.0679  0.6288
35167SOL     OW 7942   8.414   4.573   9.439 -0.1058 -0.1739  0.6406
35167SOL    HW1 7943   8.329   4.606   9.409  0.5707  0.6138 -0.5118
35167SOL    HW2 7944   8.476   4.604   9.373  0.9066 -1.8521  0.7593
35168SOL     OW 7945   1.459   1.738   6.919  0.5311  0.3288 -0.0708
35168SOL    HW1 7946   1.396   1.668   6.906  0.8265 -0.1916  1.1707
35168SOL    HW2 7947   1.496   1.721   7.005  3.8541 -0.5696 -1.5131
35169SOL     OW 7948   5.410   4.790   7.976  0.0388 -0.3671  0.5171
35169SOL    HW1 7949   5.363   4.846   7.915  1.3088 -0.6734 -0.8131
35169SOL    HW2 7950   5.372   4.703   7.964 -0.5699 -0.1850  1.1031
35170SOL     OW 7951   1.209   1.214   6.074  0.5101 -0.0807 -0.2821
35170SOL    HW1 7952   1.228   1.186   5.985  2.0496  2.1050 -0.7167
35170SOL    HW2 7953   1.249   1.300   6.081 -4.2784  2.3917  0.7555
35171SOL     OW 7954   4.321   0.514   6.218  0.2664 -0.4520  0.0282
35171SOL    HW1 7955   4.348   0.422   6.220  2.3414  0.1098  0.8956
35171SOL    HW2 7956   4.307   0.532   6.125  1.3108 -1.2719 -0.3208
35172SOL     OW 7957   5.131   3.661   7.617  0.5990  0.3210  0.1902
35172SOL    HW1 7958   5.094   3.730   7.671 -0.6642  0.2921 -0.5995
35172SOL    HW2 7959   5.097   3.579   7.654 -2.3831  0.3774 -2.0079
35173SOL     OW 7960   5.379  10.110   9.654 -0.0732  0.3536  0.7711
35173SOL    HW1 7961   5.362  10.034   9.709 -1.3691 -0.0893 -0.1650
35173SOL    HW2 7962   5.470  10.101   9.627  0.4058  0.2840  2.3644
35174SOL     OW 7963   1.112   3.213   7.684 -0.4566 -0.4305 -0.0657
35174SOL    HW1 7964   1.090   3.133   7.732 -1.2703  0.0979  0.4598
35174SOL    HW2 7965   1.053   3.213   7.609 -1.0108  0.0719  0.3635
35175SOL     OW 7966  10.385   0.566   5.569 -0.3174 -0.1589 -0.3655
35175SOL    HW1 7967  10.480   0.559   5.572 -0.2474  0.5645 -0.7002
35175SOL    HW2 7968  10.364   0.636   5.631 -0.7719 -1.3406  0.8880
35176SOL     OW 7969   8.132   6.641   5.508 -0.5915  0.0510 -0.2172
35176SOL    HW1 7970   8.094   6.553   5.513 -0.5714  0.1099  2.2699
35176SOL    HW2 7971   8.221   6.627   5.477 -0.1387 -1.0233  1.4197
35177SOL     OW 7972   3.700   2.998   4.996  0.1833  0.0463  0.2103
35177SOL    HW1 7973   3.621   3.032   4.954  0.2618  0.9350  0.7589
35177SOL    HW2 7974   3.763   2.989   4.925 -0.2175 -0.0965 -0.1336
35178SOL     OW 7975   0.068   9.266   3.119 -0.1908 -0.4528 -0.8339
35178SOL    HW1 7976   0.050   9.198   3.054 -1.8296 -0.6276 -0.2602
35178SOL    HW2 7977   0.018   9.240   3.196  0.3434  0.6350 -0.0858
35179SOL     OW 7978   5.551   8.832   5.263  0.6680 -0.1278 -0.3186
35179SOL    HW1 7979   5.584   8.745   5.283 -0.0011 -0.2043  0.5146
35179SOL    HW2 7980   5.476   8.818   5.205 -1.8279 -0.4522  2.6934
35180SOL     OW 7981   5.782   1.666   7.697  0.4133  0.1667 -0.2662
35180SOL    HW1 7982   5.733   1.705   7.770  0.0008  1.2974 -1.1208
35180SOL    HW2 7983   5.759   1.574   7.700  0.9959  0.0320  1.4867
35181SOL     OW 7984   7.628   4.871  10.258 -0.4951  0.1669  0.0896
35181SOL    HW1 7985   7.544   4.858  10.300 -1.3196  0.9886 -1.2253
35181SOL    HW2 7986   7.645   4.965  10.267  1.2398 -0.2768  2.0321
35182SOL     OW 7987   4.349   2.882   2.993  0.0671 -0.0594 -0.5396
35182SOL    HW1 7988   4.390   2.844   2.916  0.8049 -1.1333  0.3453
35182SOL    HW2 7989   4.397   2.963   3.010  1.4843 -1.0005  0.1345
35183SOL     OW 7990   3.017   6.832   7.418  0.2719  0.6400 -0.2283
35183SOL    HW1 7991   3.110   6.855   7.426  0.0694  1.2354  0.5650
35183SOL    HW2 7992   3.017   6.737   7.412  0.9310  0.6206 -0.0732
35184SOL     OW 7993   6.388   3.976   9.401 -0.4764  0.0886 -0.2918
35184SOL    HW1 7994   6.473   3.933   9.403 -1.1823 -1.4748 -1.3596
35184SOL    HW2 7995   6.342   3.943   9.478 -0.4617  0.1933 -0.2374
35185SOL     OW 7996   2.605   9.864   5.973  0.7824 -0.6023 -0.4052
35185SOL    HW1 7997   2.636   9.814   6.048  0.7871 -0.9342 -0.6225
35185SOL    HW2 7998   2.641   9.951   5.985  1.7393 -0.9538 -0.6024
35186SOL     OW 7999   3.538   5.975   3.223  0.4325 -0.3241  0.0013
35186SOL    HW1 8000   3.491   5.949   3.302 -1.1968  0.2568 -0.7250
35186SOL    HW2 8001   3.557   5.893   3.178 -0.0930 -0.5660  0.2124
35187SOL     OW 8002   7.846   6.146   7.702 -0.0804 -0.3172  0.5342
35187SOL    HW1 8003   7.778   6.181   7.646  1.3756  0.5505 -0.7646
35187SOL    HW2 8004   7.864   6.215   7.766  0.0271 -0.2829  0.4680
35188SOL     OW 8005  10.409   6.873   9.263 -0.0980  0.1839 -0.2365
35188SOL    HW1 8006  10.470   6.940   9.291  0.6261  0.4552 -2.2792
35188SOL    HW2 8007  10.335   6.880   9.323  1.3576  0.6006  1.5831
35189SOL     OW 8008   1.510   1.608   5.612 -0.0208 -0.5861  0.3224
35189SOL    HW1 8009   1.479   1.691   5.650  1.7356  0.6262 -0.7216
35189SOL    HW2 8010   1.598   1.596   5.650  1.0308 -0.2883 -1.8665
35190SOL     OW 8011   7.361   2.228   6.557  0.3698 -1.1647 -0.1889
35190SOL    HW1 8012   7.455   2.220   6.540  0.4187 -0.3944 -0.3353
35190SOL    HW2 8013   7.330   2.293   6.494  0.4154  1.2148  2.0567
35191SOL     OW 8014   2.596   4.136   4.600 -0.5097 -0.0972 -0.2537
35191SOL    HW1 8015   2.613   4.127   4.507  0.5963 -1.5054  0.0368
35191SOL    HW2 8016   2.624   4.052   4.637 -1.4756  0.2126  1.2666
35192SOL     OW 8017   6.644   8.913   0.910  0.1264 -0.0524 -0.3562
35192SOL    HW1 8018   6.634   8.995   0.959  0.4082 -0.5987  0.6507
35192SOL    HW2 8019   6.714   8.866   0.956 -1.1991 -1.6141  0.1818
35193SOL     OW 8020   0.063   5.009   3.617 -0.3707 -0.2925 -0.0731
35193SOL    HW1 8021   0.031   4.986   3.529  0.4886 -1.4761 -0.1002
35193SOL    HW2 8022  -0.016   5.007   3.671 -0.6959 -1.0238 -0.5435
35194SOL     OW 8023   9.040   1.550   5.220 -0.4930 -0.8720 -0.2280
35194SOL    HW1 8024   9.062   1.470   5.269 -1.8068 -1.6782 -0.8965
35194SOL    HW2 8025   9.063   1.529   5.130  1.1822  0.3284 -0.1320
35195SOL     OW 8026   6.686   0.330   8.726 -0.5984 -0.4033  0.3154
35195SOL    HW1 8027   6.710   0.265   8.792  0.7343  0.2380  0.4938
35195SOL    HW2 8028   6.668   0.410   8.776  0.7939  0.1941 -0.0754
35196SOL     OW 8029   3.379   7.914   2.052  0.1899  0.1148 -0.0158
35196SOL    HW1 8030   3.453   7.971   2.032  1.3264 -1.2854  0.0431
35196SOL    HW2 8031   3.373   7.855   1.977  0.6403 -1.2752  0.9937
35197SOL     OW 8032   3.278   6.427   9.704  0.5747 -0.1502 -0.4831
35197SOL    HW1 8033   3.232   6.374   9.770 -0.8416  0.8552 -0.6090
35197SOL    HW2 8034   3.361   6.449   9.744 -1.0791  2.2704  1.9570
35198SOL     OW 8035   7.885   9.237   7.455  0.0896  0.3603  0.2250
35198SOL    HW1 8036   7.968   9.190   7.452  0.0717  0.1044  2.4157
35198SOL    HW2 8037   7.899   9.307   7.519 -0.5612  2.0553 -1.3748
35199SOL     OW 8038   0.870   1.482   4.283 -0.1227 -0.2749 -0.1112
35199SOL    HW1 8039   0.827   1.407   4.242  0.4181 -0.5063 -0.2730
35199SOL    HW2 8040   0.845   1.557   4.228 -0.2750 -0.4118 -0.2302
35200SOL     OW 8041  10.069   0.189   7.717 -0.0420  0.0454 -0.7943
35200SOL    HW1 8042  10.155   0.157   7.747  0.7371 -0.0877 -2.9712
35200SOL    HW2 8043  10.026   0.221   7.796  2.0237  0.1210  0.3667
35201SOL     OW 8044   5.835   7.772   9.531 -0.4468  0.1734  0.1141
35201SOL    HW1 8045   5.804   7.697   9.582 -0.5503  0.1507  0.0197
35201SOL    HW2 8046   5.792   7.762   9.446 -1.4259  1.0034  0.4968
35202SOL     OW 8047   5.208   4.158   1.585 -0.0775  0.7488  0.0981
35202SOL    HW1 8048   5.146   4.201   1.644  0.5334 -1.0686  2.1976
35202SOL    HW2 8049   5.156   4.093   1.538 -0.7973  2.9148 -2.3589
35203SOL     OW 8050   8.825   3.056   7.270 -0.4876  0.2493  0.1333
35203SOL    HW1 8051   8.849   3.035   7.180 -2.0128 -1.9036  0.1433
35203SOL    HW2 8052   8.908   3.063   7.317  0.2826 -0.0822 -1.1394
35204SOL     OW 8053   8.142   8.714   1.499  0.0125 -0.7500  0.0138
35204SOL    HW1 8054   8.187   8.685   1.420  1.7901  0.4084  0.5296
35204SOL    HW2 8055   8.202   8.693   1.570 -1.5783 -1.8273  1.0955
35205SOL     OW 8056   0.997   5.686   3.710  0.2063 -0.1666  0.4214
35205SOL    HW1 8057   0.920   5.643   3.672 -0.9354  1.2870  1.0243
35205SOL    HW2 8058   1.059   5.693   3.637 -0.7467 -0.1660 -0.4096
35206SOL     OW 8059   0.343   7.685   0.634  0.3087 -0.6191  0.0443
35206SOL    HW1 8060   0.258   7.641   0.633 -0.0201 -0.0569  1.0952
35206SOL    HW2 8061   0.405   7.619   0.602 -0.5235 -1.0224 -0.7609
35207SOL     OW 8062   1.086   9.821  10.416  0.2075 -0.5875  0.0637
35207SOL    HW1 8063   1.159   9.881  10.430  2.0376 -2.2130 -1.7712
35207SOL    HW2 8064   1.010   9.877  10.408  1.5451  1.3395  0.1487
35208SOL     OW 8065   2.971   0.677   7.149  0.1747  0.5910 -0.2082
35208SOL    HW1 8066   2.935   0.756   7.110  0.1626  1.9601  2.3837
35208SOL    HW2 8067   3.054   0.704   7.188  1.0203 -1.0895 -0.7668
35209SOL     OW 8068   9.289   3.206   7.209  0.3971 -0.3692 -0.1776
35209SOL    HW1 8069   9.199   3.223   7.237  0.3635  1.5855 -1.2471
35209SOL    HW2 8070   9.292   3.112   7.193 -1.5054 -0.4524 -0.2724
35210SOL     OW 8071   3.530   2.641   9.797 -0.1635  0.3753  0.6462
35210SOL    HW1 8072   3.470   2.706   9.762 -1.0145  0.1440  1.6186
35210SOL    HW2 8073   3.542   2.666   9.889  2.3295  1.2153  0.1710
35211SOL     OW 8074   3.510   0.355   7.397  0.1360  0.4430 -0.9018
35211SOL    HW1 8075   3.577   0.336   7.462 -0.1916  1.4082 -0.2597
35211SOL    HW2 8076   3.458   0.426   7.436 -0.7908  0.2240 -1.7074
35212SOL     OW 8077   7.731   8.738   4.997  0.1729 -0.0887 -0.1169
35212SOL    HW1 8078   7.802   8.755   5.058 -0.3525 -0.4450  0.6073
35212SOL    HW2 8079   7.678   8.817   4.998 -0.5588 -0.5671  0.9040
35213SOL     OW 8080   1.477   0.619   0.859  0.6050  0.0784  0.2733
35213SOL    HW1 8081   1.561   0.664   0.861  0.1405  0.9820  0.1016
35213SOL    HW2 8082   1.494   0.538   0.812  1.0286  1.0141 -1.2397
35214SOL     OW 8083   7.688   3.938   2.797  0.1898 -0.1960  0.3608
35214SOL    HW1 8084   7.639   4.000   2.851 -0.8941  0.7617 -1.5777
35214SOL    HW2 8085   7.631   3.923   2.721  2.1554 -0.4399 -1.1532
35215SOL     OW 8086   0.025   9.532   3.108  0.1021  0.1096  0.4816
35215SOL    HW1 8087   0.014   9.437   3.112  0.8822  0.0444  2.1068
35215SOL    HW2 8088   0.062   9.555   3.193 -0.1132  1.8867  0.1335
35216SOL     OW 8089   0.486   2.357   3.366  0.0689  0.2347  0.3040
35216SOL    HW1 8090   0.448   2.367   3.279 -1.0256 -1.9393  0.4707
35216SOL    HW2 8091   0.439   2.283   3.405  1.7365  0.0275  2.0864
35217SOL     OW 8092   0.070   1.614   7.166  0.2614  0.0306 -0.1324
35217SOL    HW1 8093  -0.022   1.587   7.172  0.5551 -0.8235  0.8344
35217SOL    HW2 8094   0.077   1.654   7.079 -0.7095 -1.0959 -0.7689
35218SOL     OW 8095   3.308   8.288   8.290  0.2750  0.2454 -0.6210
35218SOL    HW1 8096   3.219   8.256   8.307  1.0721 -1.3095  0.9942
35218SOL    HW2 8097   3.311   8.300   8.195 -1.0697 -1.5776 -0.9732
35219SOL     OW 8098   7.475   9.739   6.967  0.2202  0.3204  0.7195
35219SOL    HW1 8099   7.508   9.708   6.882 -0.0001 -1.2757  1.1753
35219SOL    HW2 8100   7.522   9.820   6.983  0.4836  0.4973 -0.7949
35220SOL     OW 8101  10.144   1.427  10.438 -0.2289 -0.3903 -0.1870
35220SOL    HW1 8102  10.113   1.343  10.471 -1.9624 -0.6162 -2.1631
35220SOL    HW2 8103  10.064   1.477  10.422  0.6527  0.6893 -1.3893
35221SOL     OW 8104   9.698   4.315   4.441 -0.8829  0.6029 -0.4842
35221SOL    HW1 8105   9.641   4.241   4.457 -0.3053  0.2330 -0.1054
35221SOL    HW2 8106   9.640   4.384   4.408 -1.8980  0.8913  1.7022
35222SOL     OW 8107   3.731  10.301   8.424 -0.4077 -0.2827  0.2385
35222SOL    HW1 8108   3.820  10.270   8.440 -1.4007 -2.5087  2.0515
35222SOL    HW2 8109   3.721  10.300   8.329  1.6245  0.5188 -0.0243
35223SOL     OW 8110   9.789   5.381   6.635 -0.6333 -0.7018  0.0406
35223SOL    HW1 8111   9.864   5.326   6.656  0.0440 -0.0333 -0.5430
35223SOL    HW2 8112   9.778   5.371   6.540 -1.4240 -0.9729  0.1603
35224SOL     OW 8113   3.593   0.047   6.896 -0.1283  0.1273 -0.2050
35224SOL    HW1 8114   3.504   0.049   6.859  0.7338 -0.1563 -2.4312
35224SOL    HW2 8115   3.647   0.092   6.832  1.6164 -1.1057  0.3187
35225SOL     OW 8116   9.894   4.237   8.285  0.4393 -0.2461  0.4993
35225SOL    HW1 8117   9.878   4.330   8.300  3.1124  0.2984  0.4990
35225SOL    HW2 8118   9.876   4.195   8.369  0.6809  0.5145  0.9430
35226SOL     OW 8119   7.655   4.036   4.893  0.2426  0.5301 -0.1875
35226SOL    HW1 8120   7.725   4.053   4.829 -0.3935  1.2687 -0.7040
35226SOL    HW2 8121   7.610   3.959   4.860  0.0319  0.8003 -0.5401
35227SOL     OW 8122   1.593   8.856   2.104 -0.2756  0.2846  0.2126
35227SOL    HW1 8123   1.540   8.866   2.025  0.6547  1.0043 -0.3416
35227SOL    HW2 8124   1.680   8.887   2.079  0.1073  0.2775  1.4515
35228SOL     OW 8125   0.214   3.218   0.955 -0.2363  0.5017 -0.0189
35228SOL    HW1 8126   0.216   3.296   1.009 -0.2163  0.0628  0.6232
35228SOL    HW2 8127   0.124   3.185   0.963  0.2964 -0.7226  1.4555
35229SOL     OW 8128   9.824   1.222   8.460  0.6145  0.5141 -0.4613
35229SOL    HW1 8129   9.866   1.205   8.544  1.6395 -0.2503 -1.1120
35229SOL    HW2 8130   9.800   1.315   8.463 -3.0171 -0.2917  2.2594
35230SOL     OW 8131   3.830   4.158   7.313  0.7531 -0.0992 -0.1005
35230SOL    HW1 8132   3.895   4.097   7.348  2.0179 -0.6833 -3.1774
35230SOL    HW2 8133   3.752   4.104   7.297  0.7707 -0.2016  0.1658
35231SOL     OW 8134   8.582   9.449   4.314 -0.1554 -0.3149  0.6434
35231SOL    HW1 8135   8.642   9.445   4.239  0.8565 -0.3174  1.4203
35231SOL    HW2 8136   8.497   9.468   4.276  0.2964 -0.5499 -0.5273
35232SOL     OW 8137  10.032   2.670   5.330 -0.2838 -0.3053  0.5269
35232SOL    HW1 8138  10.042   2.676   5.235 -0.6531 -0.1144  0.4993
35232SOL    HW2 8139   9.941   2.694   5.346 -0.2741 -0.5237  0.9123
35233SOL     OW 8140   1.264   3.549   5.789 -0.2590  0.4530 -0.2243
35233SOL    HW1 8141   1.224   3.561   5.876 -0.1317 -1.7910  0.2017
35233SOL    HW2 8142   1.196   3.576   5.728 -0.4631  1.7728  0.5336
35234SOL     OW 8143   0.434   4.261   7.866  0.7188  0.4413 -0.1723
35234SOL    HW1 8144   0.361   4.200   7.866  0.1887  1.0269 -1.2993
35234SOL    HW2 8145   0.469   4.256   7.777 -0.2999  2.8289 -0.7975
35235SOL     OW 8146   1.774   7.708   4.408 -0.1950 -0.4427 -0.0122
35235SOL    HW1 8147   1.782   7.798   4.376  0.5420 -0.5087 -0.0426
35235SOL    HW2 8148   1.843   7.660   4.362  1.3420 -0.4091  2.0946
35236SOL     OW 8149   0.016   5.619   8.577  0.4950 -0.3815  0.7463
35236SOL    HW1 8150   0.089   5.560   8.559  1.1749  0.7087 -0.2002
35236SOL    HW2 8151  -0.054   5.588   8.520  0.7135 -0.5189  0.5466
35237SOL     OW 8152   8.168   1.368   6.077 -0.6189  0.0510 -0.3294
35237SOL    HW1 8153   8.151   1.461   6.065  1.2190  0.4615 -0.0856
35237SOL    HW2 8154   8.114   1.325   6.011 -2.2341  1.1975  0.1894
35238SOL     OW 8155   6.861   4.396   8.094  0.1972  0.4633 -0.0649
35238SOL    HW1 8156   6.784   4.352   8.058 -1.0057  0.4842  2.2657
35238SOL    HW2 8157   6.936   4.349   8.057 -0.9580 -0.2503 -1.5651
35239SOL     OW 8158  10.097   8.956   1.870 -0.2085  0.6027 -0.6416
35239SOL    HW1 8159  10.053   9.002   1.798 -1.0459  1.3589  0.3172
35239SOL    HW2 8160  10.031   8.952   1.939  0.7399  0.3655  0.2708
35240SOL     OW 8161   4.335  10.169   0.720  0.1377  0.0989  0.5013
35240SOL    HW1 8162   4.247  10.133   0.708  0.2419 -0.3724  1.0808
35240SOL    HW2 8163   4.394  10.095   0.706  0.4356  0.3724  0.2924
35241SOL     OW 8164   7.749   5.695   0.015 -0.7397  0.0199 -0.3023
35241SOL    HW1 8165   7.794   5.612   0.024  0.3231  0.7290  1.5813
35241SOL    HW2 8166   7.817   5.757  -0.011 -1.4816  0.3663 -1.4986
35242SOL     OW 8167   0.825   1.320  10.329  0.1899  0.1846  0.2147
35242SOL    HW1 8168   0.775   1.246  10.364  1.0670 -0.7540 -0.4340
35242SOL    HW2 8169   0.768   1.396  10.340 -0.8295 -0.6288  0.6793
35243SOL     OW 8170   0.071   5.708  10.252 -0.5280 -0.3813  0.1181
35243SOL    HW1 8171   0.116   5.686  10.170 -1.5283 -0.2460 -0.4825
35243SOL    HW2 8172   0.106   5.795  10.276 -0.4976 -0.2619 -0.3539
35244SOL     OW 8173   3.749   6.572   4.242 -0.6005 -0.2837  0.8733
35244SOL    HW1 8174   3.839   6.596   4.222 -1.0042  0.6088 -0.0095
35244SOL    HW2 8175   3.717   6.644   4.297 -1.5623  0.8502 -1.0647
35245SOL     OW 8176   0.525  10.480   1.683  0.2508  0.5882  0.3583
35245SOL    HW1 8177   0.605  10.532   1.678  0.6440 -0.0905 -0.8679
35245SOL    HW2 8178   0.552  10.397   1.721 -0.3540  1.2075  2.2129
35246SOL     OW 8179   9.587   2.300   8.292  0.2999 -0.2957 -0.1984
35246SOL    HW1 8180   9.628   2.278   8.375 -0.9378  0.8638  0.7726
35246SOL    HW2 8181   9.517   2.235   8.282 -0.2605  0.2302  0.2402
35247SOL     OW 8182   0.128   0.077   3.986  0.1978 -0.3004  0.3539
35247SOL    HW1 8183   0.129   0.166   3.951  1.3131 -0.5648 -0.3111
35247SOL    HW2 8184   0.115   0.089   4.080 -1.3404  0.4775  0.0856
35248SOL     OW 8185   8.861   8.261   2.364  0.1457  0.6301 -0.6073
35248SOL    HW1 8186   8.936   8.315   2.387  0.9488 -1.2655  1.4983
35248SOL    HW2 8187   8.785   8.316   2.384  0.9496  1.3066  0.7212
35249SOL     OW 8188   8.179   8.909   2.046  0.4451  0.3392  0.5474
35249SOL    HW1 8189   8.152   8.960   1.969 -0.1029 -1.6448 -0.6312
35249SOL    HW2 8190   8.102   8.910   2.103  0.3982  0.7122  0.4829
35250SOL     OW 8191   5.197   2.827   4.965  0.0689  0.4725 -0.0723
35250SOL    HW1 8192   5.220   2.735   4.960 -1.3560 -0.0318  1.5139
35250SOL    HW2 8193   5.134   2.840   4.894 -0.8572 -0.1715  0.6116
35251SOL     OW 8194   5.323   4.702   0.766  0.8146 -0.6333  0.2259
35251SOL    HW1 8195   5.292   4.779   0.813  2.0910 -0.3604  0.6476
35251SOL    HW2 8196   5.261   4.633   0.790  0.1641  0.0464  0.5341
35252SOL     OW 8197   8.755   2.680   9.090 -0.2041 -0.3074  0.4001
35252SOL    HW1 8198   8.806   2.630   9.026 -0.3931 -0.5827  0.4592
35252SOL    HW2 8199   8.677   2.707   9.042  0.0843  0.2795  0.2562
35253SOL     OW 8200   0.835   2.974   5.483  0.4537 -0.0254 -0.9515
35253SOL    HW1 8201   0.782   3.051   5.464 -2.6289 -1.7062  0.0773
35253SOL    HW2 8202   0.857   2.938   5.398  0.3199  0.9598 -1.4187
35254SOL     OW 8203  10.335   2.323   7.313  0.1006 -0.6005  0.3730
35254SOL    HW1 8204  10.329   2.380   7.390  0.0843  0.0578 -0.1062
35254SOL    HW2 8205  10.298   2.375   7.242  1.5276 -0.6061 -0.4102
35255SOL     OW 8206   0.633   7.787   2.603 -0.1279 -0.2434  0.1345
35255SOL    HW1 8207   0.720   7.826   2.595  0.0929 -0.9998 -1.5536
35255SOL    HW2 8208   0.633   7.748   2.691  1.3440 -0.4638  0.0663
35256SOL     OW 8209   3.976   6.890   3.582  0.2719 -0.1573  0.7561
35256SOL    HW1 8210   3.925   6.884   3.663  0.5650 -1.0530  0.8824
35256SOL    HW2 8211   4.064   6.864   3.608  0.6354  0.6929  0.3887
35257SOL     OW 8212   1.453   7.705   1.499 -0.1370 -0.0850  0.3467
35257SOL    HW1 8213   1.472   7.675   1.588  1.1899 -1.1428 -0.2513
35257SOL    HW2 8214   1.445   7.625   1.447 -0.2228  0.5176 -0.6165
35258SOL     OW 8215   5.724   5.010   0.541 -0.2656 -0.5353 -0.0682
35258SOL    HW1 8216   5.766   4.953   0.606 -0.9803 -0.3029  0.6166
35258SOL    HW2 8217   5.797   5.051   0.494  0.3163  0.4721  1.6077
35259SOL     OW 8218   6.101   3.904   7.449 -0.0822 -0.4322  0.4846
35259SOL    HW1 8219   6.052   3.985   7.436  1.1145  0.4095  0.9406
35259SOL    HW2 8220   6.036   3.834   7.444 -0.9795  0.4713 -1.0287
35260SOL     OW 8221   1.841   6.038   7.519 -0.3891  0.1220 -0.6705
35260SOL    HW1 8222   1.926   5.997   7.533 -0.4453  0.2977  0.2287
35260SOL    HW2 8223   1.791   5.972   7.469 -0.3619 -0.7819  0.4523
35261SOL     OW 8224   3.031   5.235   2.650  0.2607  0.2952  0.4480
35261SOL    HW1 8225   3.075   5.288   2.716  0.7210 -0.1663  0.5208
35261SOL    HW2 8226   3.079   5.152   2.651 -2.0850 -1.1555  2.2399
35262SOL     OW 8227   7.983   3.735  10.134 -0.1379 -0.1999 -0.2840
35262SOL    HW1 8228   8.066   3.748  10.087 -0.2529  3.0008  0.2139
35262SOL    HW2 8229   8.009   3.714  10.223  0.1023 -0.2465 -0.3636
35263SOL     OW 8230   5.970   6.970   8.317 -0.0037 -0.4441  0.0131
35263SOL    HW1 8231   6.013   7.049   8.350 -1.0687  0.2217 -0.1462
35263SOL    HW2 8232   6.008   6.899   8.369  3.0098 -0.2470 -1.7089
35264SOL     OW 8233   1.448   0.628   9.911  0.2313  0.1209  0.0040
35264SOL    HW1 8234   1.435   0.715   9.872  0.5780 -0.1104 -0.6344
35264SOL    HW2 8235   1.373   0.577   9.882  0.8772 -0.2774 -1.0286
35265SOL     OW 8236   3.810   7.600   2.671  0.7046 -0.3822  0.0305
35265SOL    HW1 8237   3.771   7.537   2.610  0.8127 -1.1597  0.7443
35265SOL    HW2 8238   3.759   7.591   2.751  0.1613  1.0870 -0.1265
35266SOL     OW 8239   8.760   4.285   5.417 -0.8429  0.8215 -0.0123
35266SOL    HW1 8240   8.750   4.373   5.382 -0.0940  0.3446 -1.5033
35266SOL    HW2 8241   8.816   4.240   5.354 -0.2428 -0.3868  1.3111
35267SOL     OW 8242   2.638   1.422   5.738  0.6179  0.0256 -0.2301
35267SOL    HW1 8243   2.687   1.485   5.685 -0.3864  0.6848 -0.4026
35267SOL    HW2 8244   2.617   1.351   5.678  1.5920 -0.3992 -0.0822
35268SOL     OW 8245   7.359   4.510   4.155 -0.0347  0.0246  0.2216
35268SOL    HW1 8246   7.290   4.556   4.203 -0.2158 -0.6355  0.6073
35268SOL    HW2 8247   7.428   4.575   4.143 -0.4782  0.5226  0.3597
35269SOL     OW 8248   3.987   1.893   3.120 -0.1240 -0.2303  0.0977
35269SOL    HW1 8249   3.941   1.844   3.188 -1.0244 -0.3051 -0.5408
35269SOL    HW2 8250   3.991   1.983   3.154 -1.0886 -0.1425  0.0043
35270SOL     OW 8251   1.764   1.887   1.806  0.6548 -0.2519 -0.8454
35270SOL    HW1 8252   1.781   1.888   1.900 -0.2635  1.6458 -0.6465
35270SOL    HW2 8253   1.845   1.855   1.767  1.7871  0.8975  0.4800
35271SOL     OW 8254   5.093   3.666   9.420 -0.4858 -0.4210 -0.1292
35271SOL    HW1 8255   5.180   3.651   9.382 -1.2070 -1.7222 -1.3534
35271SOL    HW2 8256   5.093   3.614   9.500 -0.3315 -0.8661 -0.4163
35272SOL     OW 8257   6.563   5.670   2.852 -0.1170 -0.2709 -0.2605
35272SOL    HW1 8258   6.595   5.640   2.937 -0.5517  1.3042  0.4984
35272SOL    HW2 8259   6.542   5.762   2.865 -0.2172  0.0073 -2.0849
35273SOL     OW 8260   1.579   7.128   0.716  0.0684 -0.0663  0.4616
35273SOL    HW1 8261   1.619   7.043   0.731  0.8404  0.0402 -0.8643
35273SOL    HW2 8262   1.514   7.113   0.647  1.0401  0.6041 -0.6480
35274SOL     OW 8263   0.963   1.436   5.937 -0.4104  0.2808  0.4665
35274SOL    HW1 8264   0.972   1.463   6.028 -0.1853 -1.7056  1.0858
35274SOL    HW2 8265   1.018   1.498   5.888 -2.0449  2.5844  1.3774
35275SOL     OW 8266   5.934   2.947   1.017  0.1147  0.0257  0.0877
35275SOL    HW1 8267   5.970   2.897   1.091 -1.4620  2.1865  2.4679
35275SOL    HW2 8268   5.859   2.896   0.988  0.4606 -0.6059  0.2776
35276SOL     OW 8269   4.679   4.634   5.905 -0.1885 -0.0916  0.5670
35276SOL    HW1 8270   4.621   4.647   5.979 -0.1653  0.5460  0.4768
35276SOL    HW2 8271   4.756   4.590   5.942  0.3732  1.3356  1.1781
35277SOL     OW 8272   9.755   0.612   5.100  0.1282 -0.2582  0.4814
35277SOL    HW1 8273   9.848   0.625   5.078  0.0818 -0.0935  0.3766
35277SOL    HW2 8274   9.756   0.570   5.186  0.3071 -0.6076  0.3083
35278SOL     OW 8275   6.026   3.781   5.995  0.7399  0.1821 -0.1821
35278SOL    HW1 8276   6.063   3.722   6.061  0.1487  0.8095  0.7154
35278SOL    HW2 8277   6.028   3.729   5.914  1.7926 -0.4732  0.2380
35279SOL     OW 8278   9.502   2.333   1.973  1.1436  0.4070 -0.0510
35279SOL    HW1 8279   9.541   2.307   2.056 -1.1993 -0.4007  0.8663
35279SOL    HW2 8280   9.524   2.426   1.965  2.9956  0.0645  0.4917
35280SOL     OW 8281   4.563   5.457   0.753 -0.2478  0.5131  0.6178
35280SOL    HW1 8282   4.485   5.512   0.752 -0.1345  0.6818 -0.5964
35280SOL    HW2 8283   4.530   5.368   0.747 -0.3555  0.5643  0.4669
35281SOL     OW 8284   0.396   3.445   2.514  0.6146  0.0718  0.6183
35281SOL    HW1 8285   0.449   3.505   2.463  0.2565 -0.6135 -0.5899
35281SOL    HW2 8286   0.324   3.420   2.456  0.0848 -0.5750  1.5195
35282SOL     OW 8287   2.136   9.075   0.881 -0.6320 -0.5913 -0.0985
35282SOL    HW1 8288   2.069   9.057   0.815  0.9707 -2.1404 -1.3902
35282SOL    HW2 8289   2.206   9.012   0.863  0.9514  0.5796  1.5387
35283SOL     OW 8290   3.778   0.220   8.773 -0.6938 -0.0477 -0.4526
35283SOL    HW1 8291   3.724   0.141   8.771  1.7750 -1.9382  1.1538
35283SOL    HW2 8292   3.788   0.240   8.866  0.0290  1.2438 -0.7825
35284SOL     OW 8293   2.182   0.838   6.921 -0.3605  0.3271  0.1770
35284SOL    HW1 8294   2.204   0.778   6.850 -1.0915 -0.4137  0.5635
35284SOL    HW2 8295   2.096   0.874   6.897 -0.1580  0.8411  0.2005
35285SOL     OW 8296   5.437   6.786   7.305  0.1990  0.8593 -0.1427
35285SOL    HW1 8297   5.511   6.803   7.248  0.7591 -0.2745  0.2227
35285SOL    HW2 8298   5.442   6.693   7.325 -1.2931  0.7632 -0.0615
35286SOL     OW 8299   5.617   1.299   0.245 -0.2954  0.1997 -0.8047
35286SOL    HW1 8300   5.575   1.233   0.301 -2.0925  1.2714 -0.8024
35286SOL    HW2 8301   5.570   1.380   0.265  1.0374  1.2291 -1.7041
35287SOL     OW 8302   3.762   1.126   3.429 -0.3585 -0.2188 -0.1151
35287SOL    HW1 8303   3.687   1.157   3.480 -0.7421  1.6714 -1.7620
35287SOL    HW2 8304   3.728   1.051   3.381 -0.5294 -0.7861  0.8492
35288SOL     OW 8305   5.299   6.197   3.562 -0.0456  0.0634  0.5062
35288SOL    HW1 8306   5.221   6.229   3.608 -0.6477 -0.1761 -0.3134
35288SOL    HW2 8307   5.317   6.264   3.495  0.4198  0.0896  0.6553
35289SOL     OW 8308   4.056   8.552   2.585 -0.6104  0.5839  0.0657
35289SOL    HW1 8309   4.013   8.473   2.620 -1.1203  1.0843  0.5972
35289SOL    HW2 8310   4.123   8.573   2.650  0.3884 -0.1345 -0.7122
35290SOL     OW 8311   8.404   8.731   3.129 -0.5679 -0.1535  0.3509
35290SOL    HW1 8312   8.495   8.705   3.141 -0.3073  1.0523  1.2107
35290SOL    HW2 8313   8.398   8.818   3.169 -2.1014 -0.2103  0.3263
35291SOL     OW 8314   5.623   9.759   3.153 -0.1358  0.1290 -0.1123
35291SOL    HW1 8315   5.588   9.728   3.069 -0.8063  1.5816 -0.4048
35291SOL    HW2 8316   5.712   9.787   3.132 -1.1122  2.8518 -0.9822
35292SOL     OW 8317   1.318   1.229   3.319 -0.3784  0.2466 -0.3900
35292SOL    HW1 8318   1.327   1.288   3.244 -0.7532  0.9545  0.1095
35292SOL    HW2 8319   1.355   1.278   3.393  1.3594 -1.0197 -0.3607
35293SOL     OW 8320   7.122  10.218   9.350 -0.2409  0.0679  0.2283
35293SOL    HW1 8321   7.118  10.287   9.284  1.4997 -0.9249 -0.9872
35293SOL    HW2 8322   7.119  10.264   9.434  0.8059  1.6269 -0.5580
35294SOL     OW 8323   3.444   2.477   2.640 -0.6235  0.9965 -0.4792
35294SOL    HW1 8324   3.394   2.451   2.564 -1.1010  1.4012 -0.3080
35294SOL    HW2 8325   3.458   2.571   2.629  1.3844  0.6632 -1.2738
35295SOL     OW 8326   2.208   7.595   1.159 -0.0111  0.7026 -0.0681
35295SOL    HW1 8327   2.168   7.546   1.231  1.2591 -1.8547 -0.9970
35295SOL    HW2 8328   2.255   7.530   1.108  3.7255  3.1580 -0.1776
35296SOL     OW 8329   4.667   9.746   1.649  0.4185  0.3636 -0.6475
35296SOL    HW1 8330   4.639   9.767   1.738  1.3982 -1.3086  0.0988
35296SOL    HW2 8331   4.758   9.777   1.645  0.1516  1.0999 -1.3334
35297SOL     OW 8332   7.478   8.135   4.632 -0.1482 -0.1783 -0.4573
35297SOL    HW1 8333   7.386   8.110   4.639 -0.4964  1.1321  0.0742
35297SOL    HW2 8334   7.527   8.058   4.660 -1.1581 -0.1764  1.5102
35298SOL     OW 8335   6.491   6.547   2.293 -0.4848  0.4419 -0.3183
35298SOL    HW1 8336   6.517   6.579   2.207  0.8122 -1.1856 -0.5715
35298SOL    HW2 8337   6.550   6.592   2.354  2.4714 -2.4270 -0.8053
35299SOL     OW 8338   3.847   8.495   1.332 -0.1472  0.0499 -0.6682
35299SOL    HW1 8339   3.904   8.547   1.389 -0.3026 -0.1671 -0.3141
35299SOL    HW2 8340   3.907   8.453   1.270  0.0394  0.1328 -0.5453
35300SOL     OW 8341   7.495   5.982   9.288 -0.2073 -0.0055  0.0963
35300SOL    HW1 8342   7.402   5.968   9.269 -0.0426 -0.4835 -0.4068
35300SOL    HW2 8343   7.511   5.931   9.367 -0.2679 -0.3266 -0.0955
35301SOL     OW 8344   5.097   4.252   7.478  0.4266 -0.5419  0.3242
35301SOL    HW1 8345   5.102   4.277   7.570  1.4166 -1.3741  0.5181
35301SOL    HW2 8346   5.160   4.311   7.434  0.8150 -0.9223  0.3672
35302SOL     OW 8347   9.036   8.849   2.243 -0.8226 -0.0653 -0.0597
35302SOL    HW1 8348   9.113   8.796   2.225 -1.9822 -2.4484  1.5673
35302SOL    HW2 8349   9.024   8.901   2.163  1.1395 -1.2784 -1.2275
35303SOL     OW 8350   2.857   4.187   2.873  0.0650 -0.2327  0.3888
35303SOL    HW1 8351   2.863   4.095   2.900  1.4751 -0.1898  0.2578
35303SOL    HW2 8352   2.838   4.184   2.779  0.8727 -0.4026  0.2251
35304SOL     OW 8353   0.580   9.347   7.334  0.0860 -0.2612 -0.5284
35304SOL    HW1 8354   0.588   9.414   7.265  0.0561 -1.0488 -1.3109
35304SOL    HW2 8355   0.491   9.357   7.366  0.8198  1.7279  1.1226
35305SOL     OW 8356   0.593   6.068   2.992 -0.2067  0.3713 -0.2478
35305SOL    HW1 8357   0.689   6.066   2.987 -0.2133  1.6584 -1.4222
35305SOL    HW2 8358   0.566   6.105   2.908 -1.7969 -0.9036 -0.3332
35306SOL     OW 8359   1.113   2.993   1.285 -0.3963 -0.3849 -0.6417
35306SOL    HW1 8360   1.188   3.048   1.260 -0.8409  0.4418 -0.1905
35306SOL    HW2 8361   1.138   2.905   1.257  0.9954 -0.2277  0.0366
35307SOL     OW 8362   3.313   3.361   2.501  0.2071 -0.0044 -0.0640
35307SOL    HW1 8363   3.400   3.321   2.495  0.1271 -0.2155  0.1440
35307SOL    HW2 8364   3.254   3.297   2.461 -0.3363 -1.4749  2.8114
35308SOL     OW 8365   7.730  10.471   0.225  0.5636  0.0064  0.4125
35308SOL    HW1 8366   7.684  10.464   0.142  0.2729  0.0451  0.5687
35308SOL    HW2 8367   7.802  10.408   0.219  2.2060  1.8831 -0.9374
35309SOL     OW 8368   0.962   9.343   5.252  0.6698 -0.0934  0.0429
35309SOL    HW1 8369   0.982   9.437   5.256 -0.3303  0.1878 -0.9638
35309SOL    HW2 8370   1.036   9.301   5.294  1.6791  1.0815 -0.5012
35310SOL     OW 8371   2.745   4.280   8.405  0.3677  0.8563  0.7771
35310SOL    HW1 8372   2.764   4.271   8.312  3.6347 -0.3247  1.4154
35310SOL    HW2 8373   2.729   4.374   8.418 -0.5437  0.9763 -0.9849
35311SOL     OW 8374   7.000   0.796   3.296  0.4085 -0.1071 -0.3432
35311SOL    HW1 8375   6.938   0.786   3.224 -1.0738 -1.1439  1.0068
35311SOL    HW2 8376   6.997   0.712   3.342  2.1041  0.1658  0.3262
35312SOL     OW 8377   1.605   7.198   3.303 -0.2648  0.3587  0.4770
35312SOL    HW1 8378   1.656   7.258   3.249 -0.2465  0.0832  0.1848
35312SOL    HW2 8379   1.578   7.250   3.378  0.4743  0.4969  0.6487
35313SOL     OW 8380   2.806   6.453   4.031  0.0047 -0.1842 -0.0183
35313SOL    HW1 8381   2.740   6.470   3.965  1.1984 -1.7093 -1.7205
35313SOL    HW2 8382   2.766   6.479   4.114 -1.6799  1.4361 -1.2799
35314SOL     OW 8383   0.190   0.067   9.903  0.2123 -0.6072  0.4754
35314SOL    HW1 8384   0.140   0.040   9.826 -1.8612  0.2124  1.4643
35314SOL    HW2 8385   0.136   0.134   9.944  1.7854 -0.2587  2.0703
35315SOL     OW 8386   0.372   7.708   0.300 -0.0163 -0.4687  0.0475
35315SOL    HW1 8387   0.314   7.716   0.376 -2.9624 -1.7244 -1.8532
35315SOL    HW2 8388   0.388   7.799   0.273 -0.4843 -0.0668  1.0750
35316SOL     OW 8389   4.375   4.506   3.223  0.5011  0.2261 -0.0090
35316SOL    HW1 8390   4.380   4.521   3.128  0.2718  0.3907  0.0034
35316SOL    HW2 8391   4.413   4.419   3.236  0.5861  0.2278 -0.2449
35317SOL     OW 8392   5.244   2.925   9.345  0.4726  0.0598  0.3580
35317SOL    HW1 8393   5.213   2.861   9.409 -0.4557  0.0998 -0.0348
35317SOL    HW2 8394   5.211   2.893   9.261  1.5020  0.1161 -0.0812
35318SOL     OW 8395   5.424   3.503   3.721  0.3701  0.0781 -0.0572
35318SOL    HW1 8396   5.445   3.411   3.709  1.2967  0.0780  1.3368
35318SOL    HW2 8397   5.503   3.541   3.758 -1.0834  0.7033  2.6462
35319SOL     OW 8398   2.732   6.448   6.931 -0.5147 -0.7155 -0.3281
35319SOL    HW1 8399   2.776   6.364   6.937 -0.7564 -0.8363 -0.2430
35319SOL    HW2 8400   2.643   6.427   6.902 -1.0737 -0.6409  1.2528
35320SOL     OW 8401   5.550   3.076   0.070 -0.4680 -0.2957 -0.1196
35320SOL    HW1 8402   5.567   3.156   0.021 -0.3228 -0.9916 -1.2287
35320SOL    HW2 8403   5.503   3.106   0.148 -1.1095  0.7946 -0.8902
35321SOL     OW 8404   0.742   9.945   2.430 -0.0597  0.1435 -0.4552
35321SOL    HW1 8405   0.680  10.008   2.395 -0.8469 -0.2083  0.2789
35321SOL    HW2 8406   0.697   9.861   2.425  0.8808 -0.3357 -1.1764
35322SOL     OW 8407   5.463   7.481   4.447 -0.0779  0.1354  0.1645
35322SOL    HW1 8408   5.469   7.481   4.543 -2.5388 -1.0148  0.3921
35322SOL    HW2 8409   5.470   7.573   4.423  0.3433  0.4725  1.4697
35323SOL     OW 8410   7.751   0.329   6.680  0.8931 -0.2622  0.1526
35323SOL    HW1 8411   7.734   0.277   6.759  1.2320 -0.4423  0.1112
35323SOL    HW2 8412   7.737   0.420   6.707  1.5276 -0.2803  0.5714
35324SOL     OW 8413   9.301   9.479   9.732 -0.2901 -0.2820 -0.5805
35324SOL    HW1 8414   9.340   9.528   9.804 -0.2091 -0.1171 -0.7373
35324SOL    HW2 8415   9.220   9.526   9.712  0.0890  0.1367 -1.1332
35325SOL     OW 8416  10.231   8.429   8.086 -0.1557 -0.4057 -0.4598
35325SOL    HW1 8417  10.138   8.415   8.068 -0.3084 -0.2886  0.2356
35325SOL    HW2 8418  10.265   8.471   8.007 -1.0244  0.9732 -0.1176
35326SOL     OW 8419   8.880   9.267   1.106  0.3187  0.6438  0.0511
35326SOL    HW1 8420   8.941   9.327   1.148  2.1515 -0.7618 -0.4514
35326SOL    HW2 8421   8.800   9.274   1.157  0.6551  3.0016  0.3829
35327SOL     OW 8422   0.561   0.197   0.427 -0.4620  0.3969 -0.1235
35327SOL    HW1 8423   0.558   0.181   0.521  1.6896  1.8066  0.2561
35327SOL    HW2 8424   0.470   0.207   0.401 -1.1373 -0.6850  1.6677
35328SOL     OW 8425   3.683   3.154   2.737 -0.6827 -0.4335  0.4803
35328SOL    HW1 8426   3.690   3.073   2.686  0.0136 -1.0068  1.4625
35328SOL    HW2 8427   3.647   3.126   2.821  0.3537  0.1424  1.1314
35329SOL     OW 8428   0.453   3.922   9.437  0.3471 -0.0636 -0.1980
35329SOL    HW1 8429   0.487   3.914   9.526 -1.5341  0.7081  0.6442
35329SOL    HW2 8430   0.405   3.840   9.423  0.2413  0.0222 -0.3263
35330SOL     OW 8431   5.923   8.402   3.796  0.2057 -0.2387  0.3837
35330SOL    HW1 8432   5.839   8.447   3.791  0.0315 -0.6485 -0.5986
35330SOL    HW2 8433   5.951   8.393   3.705  1.1846 -0.3510  0.6873
35331SOL     OW 8434   7.864   8.525   1.614 -0.1912 -0.3924  0.0949
35331SOL    HW1 8435   7.821   8.506   1.531 -0.7861  0.7685  0.1171
35331SOL    HW2 8436   7.884   8.619   1.610  2.9569 -0.9694 -0.1732
35332SOL     OW 8437   7.026   7.189   7.561 -0.2982  0.3001 -0.2623
35332SOL    HW1 8438   6.955   7.125   7.573 -2.0967  1.7495 -2.3669
35332SOL    HW2 8439   7.069   7.192   7.646 -1.7191 -1.8404  0.6468
35333SOL     OW 8440   4.517   9.971   0.733 -0.4571  0.9679 -0.0462
35333SOL    HW1 8441   4.507   9.905   0.665  0.5279  0.5500  0.1952
35333SOL    HW2 8442   4.575   9.930   0.798 -1.2825  1.3911  0.9973
35334SOL     OW 8443   7.248   9.698   5.963  0.1889  0.2349 -0.0337
35334SOL    HW1 8444   7.243   9.785   6.005  1.4918 -0.0007  0.6761
35334SOL    HW2 8445   7.239   9.716   5.870 -0.3230  1.0583  0.1650
35335SOL     OW 8446   4.489   1.417   6.315  0.5905 -0.2511 -0.1531
35335SOL    HW1 8447   4.406   1.404   6.360 -0.9876  1.1433 -2.4528
35335SOL    HW2 8448   4.553   1.428   6.385 -1.1018 -1.4891  1.6995
35336SOL     OW 8449   3.025   7.379   0.057  0.3539 -0.1734  0.5039
35336SOL    HW1 8450   2.984   7.353  -0.026  0.8179  0.9089 -0.0933
35336SOL    HW2 8451   3.002   7.472   0.067  1.2001 -0.0109  1.0401
35337SOL     OW 8452   5.552   6.194   8.688 -0.2487 -0.4886 -0.1762
35337SOL    HW1 8453   5.509   6.195   8.773  0.9470 -0.0450  0.4417
35337SOL    HW2 8454   5.631   6.141   8.702 -0.4104 -1.0376 -1.2079
35338SOL     OW 8455   7.520   3.609   7.753  0.0490 -0.4104 -0.1800
35338SOL    HW1 8456   7.483   3.522   7.769 -0.0256 -0.6187 -1.3601
35338SOL    HW2 8457   7.463   3.669   7.800 -0.6541 -0.9000 -0.3970
35339SOL     OW 8458   0.263   4.130   9.431 -0.2272 -0.1223 -0.1162
35339SOL    HW1 8459   0.314   4.051   9.447  0.8171  0.4902 -0.2859
35339SOL    HW2 8460   0.218   4.114   9.349  0.1807 -0.4504 -0.2773
35340SOL     OW 8461   7.221   1.036   8.250 -0.8345 -1.0280 -0.0924
35340SOL    HW1 8462   7.298   0.988   8.218 -0.2240  0.6430 -1.2965
35340SOL    HW2 8463   7.247   1.128   8.246 -0.8868 -0.5253  4.8567
35341SOL     OW 8464   1.578   3.826   0.627 -0.3224  0.2819  0.0306
35341SOL    HW1 8465   1.518   3.887   0.670 -0.1705 -0.2632  1.0261
35341SOL    HW2 8466   1.638   3.799   0.695 -0.8907 -1.6325 -0.1870
35342SOL     OW 8467   8.288   0.558   9.072  0.9747 -0.5439  0.0272
35342SOL    HW1 8468   8.379   0.589   9.070  1.1131 -0.7738 -3.4808
35342SOL    HW2 8469   8.275   0.516   8.987 -2.5036 -0.3768  0.3359
35343SOL     OW 8470   9.357   1.614   2.709  0.7770 -0.3123 -0.0500
35343SOL    HW1 8471   9.341   1.599   2.616 -0.8849  0.8347 -0.0008
35343SOL    HW2 8472   9.334   1.531   2.751 -1.4104  0.0484 -0.4145
35344SOL     OW 8473   5.214   5.620   4.209  0.1742  0.2563 -0.1929
35344SOL    HW1 8474   5.137   5.564   4.209 -1.7270  2.6892 -1.6101
35344SOL    HW2 8475   5.223   5.650   4.300 -1.2941  0.8544 -0.2229
35345SOL     OW 8476   2.711   3.859   8.604 -0.0327  0.5042 -0.0573
35345SOL    HW1 8477   2.670   3.773   8.595  2.0317 -0.4722 -0.7906
35345SOL    HW2 8478   2.701   3.899   8.518  0.5917  0.2383 -0.2553
35346SOL     OW 8479   2.508   0.584   3.420 -0.1635 -0.2401 -0.7508
35346SOL    HW1 8480   2.509   0.680   3.414  1.3145 -0.3115 -2.8156
35346SOL    HW2 8481   2.541   0.566   3.508  0.4206  1.1502 -0.6441
35347SOL     OW 8482   3.588   3.876   5.252  0.5160 -0.2006  0.3141
35347SOL    HW1 8483   3.633   3.802   5.210 -0.0005  0.2233 -1.0418
35347SOL    HW2 8484   3.660   3.931   5.284  0.9125 -0.9600  0.7766
35348SOL     OW 8485   3.598   4.664   0.089  0.3567  0.2265 -0.2478
35348SOL    HW1 8486   3.657   4.723   0.042  1.1416 -0.8323 -0.6068
35348SOL    HW2 8487   3.605   4.581   0.044 -0.7982 -0.1446  0.2136
35349SOL     OW 8488   7.807   8.541   4.253  0.1747  0.2263 -0.5823
35349SOL    HW1 8489   7.899   8.566   4.266  0.1044  1.5388 -2.1623
35349SOL    HW2 8490   7.810   8.476   4.182 -0.1439  0.7934 -1.1288
35350SOL     OW 8491   4.160   4.259   9.225 -0.0906 -0.1730  0.5906
35350SOL    HW1 8492   4.116   4.174   9.215  0.1443 -0.2794  0.4645
35350SOL    HW2 8493   4.248   4.237   9.255  0.3824 -0.0515 -0.6466
35351SOL     OW 8494   0.598   4.998   3.911  0.2329  0.4994  0.4335
35351SOL    HW1 8495   0.600   4.904   3.930 -2.7472  0.0120 -1.0715
35351SOL    HW2 8496   0.609   5.004   3.816 -2.3718  1.3412  0.0933
35352SOL     OW 8497  10.421   4.233   1.980  0.0678 -0.3576 -0.3667
35352SOL    HW1 8498  10.493   4.251   2.040 -0.2881 -0.6155  0.1467
35352SOL    HW2 8499  10.415   4.312   1.925 -0.0260  0.1547  0.3692
35353SOL     OW 8500   7.182   8.596   2.318  0.3937  0.8787  0.1810
35353SOL    HW1 8501   7.090   8.594   2.343  0.5069  1.5068  0.6794
35353SOL    HW2 8502   7.230   8.590   2.401  0.7841  1.7190  0.0343
35354SOL     OW 8503   9.575   7.409   1.292  0.1069  0.2135 -0.4083
35354SOL    HW1 8504   9.598   7.391   1.201 -2.6365 -1.6116 -0.8700
35354SOL    HW2 8505   9.481   7.393   1.296 -0.1159  1.5996  2.4768
35355SOL     OW 8506   1.496   2.873   7.642 -0.8076 -0.2322  0.1357
35355SOL    HW1 8507   1.476   2.965   7.661  2.1115  0.4770  0.2486
35355SOL    HW2 8508   1.496   2.831   7.728 -0.9292 -0.0664  0.2179
35356SOL     OW 8509   2.252   4.375   2.879  0.3127 -0.4816  0.5172
35356SOL    HW1 8510   2.178   4.436   2.874  0.6549 -0.1105 -0.1895
35356SOL    HW2 8511   2.328   4.428   2.855  0.4617 -1.4353 -1.2556
35357SOL     OW 8512   5.362   9.089   2.801 -0.0170 -0.0351  0.2381
35357SOL    HW1 8513   5.430   9.134   2.851 -0.2648  0.9281 -0.2640
35357SOL    HW2 8514   5.296   9.065   2.866 -0.2061  0.9535  0.4222
35358SOL     OW 8515   3.191   6.446   0.766 -0.0647  0.3693  0.3310
35358SOL    HW1 8516   3.161   6.410   0.850  1.8030  0.3511  1.0416
35358SOL    HW2 8517   3.262   6.388   0.739  1.4929  2.1464  0.3633
35359SOL     OW 8518   7.510   4.033   5.653  0.1319 -0.0526 -0.3431
35359SOL    HW1 8519   7.481   4.093   5.584 -0.0068  0.4462  0.1382
35359SOL    HW2 8520   7.467   4.066   5.732 -1.3037 -1.7907 -0.3366
35360SOL     OW 8521   5.523  10.331   2.149 -0.1358 -0.0954 -0.5218
35360SOL    HW1 8522   5.514  10.310   2.056 -0.0738 -2.1138 -0.1208
35360SOL    HW2 8523   5.615  10.357   2.158 -0.6206  2.1589 -1.3313
35361SOL     OW 8524   5.785   7.989   2.636 -0.6404  0.1470  0.1458
35361SOL    HW1 8525   5.699   8.028   2.648 -1.5756 -1.3843 -1.1460
35361SOL    HW2 8526   5.808   8.008   2.545 -0.7499 -1.4979 -0.2620
35362SOL     OW 8527   7.079   3.774   7.310 -0.2701  0.1263  0.7497
35362SOL    HW1 8528   7.065   3.786   7.404  1.1111 -2.8211  1.4561
35362SOL    HW2 8529   6.994   3.748   7.275 -1.0092  2.1077  0.9156
35363SOL     OW 8530  10.309   2.541   3.474  0.2798  0.4635 -0.1604
35363SOL    HW1 8531  10.365   2.554   3.397  0.7910  0.4411  0.1999
35363SOL    HW2 8532  10.300   2.628   3.512 -2.0256  0.9351 -1.6096
35364SOL     OW 8533   5.155   8.753  10.162  0.0020 -0.0180  0.2091
35364SOL    HW1 8534   5.170   8.838  10.204 -0.8029 -0.2749  1.0585
35364SOL    HW2 8535   5.081   8.716  10.210  1.0674 -1.6991  0.6288
35365SOL     OW 8536   3.681   4.710   9.966 -0.5163 -0.1573 -0.1247
35365SOL    HW1 8537   3.613   4.702   9.899  0.4818 -0.2912 -1.1581
35365SOL    HW2 8538   3.639   4.757  10.038 -1.5677  0.1477 -0.9149
35366SOL     OW 8539   8.267   6.825   9.720  0.1230 -0.5711  0.9782
35366SOL    HW1 8540   8.264   6.774   9.801  2.1867 -1.5534  0.4981
35366SOL    HW2 8541   8.361   6.838   9.703 -0.2941  1.6328 -0.0353
35367SOL     OW 8542   0.296   0.078   0.398  0.3592 -0.7210  0.2424
35367SOL    HW1 8543   0.229   0.098   0.333  2.1405  0.3344 -1.3663
35367SOL    HW2 8544   0.275   0.134   0.472 -0.6056 -0.5121 -0.1695
35368SOL     OW 8545   1.385   3.197   2.954  0.2752  0.1150  0.1277
35368SOL    HW1 8546   1.339   3.213   3.037  1.2604  0.8683  0.5566
35368SOL    HW2 8547   1.321   3.151   2.899 -0.4932 -0.1386  1.1986
35369SOL     OW 8548   0.295   8.713   1.383 -0.4286  0.0913  0.2187
35369SOL    HW1 8549   0.241   8.759   1.447 -1.5336 -0.0662 -0.5930
35369SOL    HW2 8550   0.305   8.774   1.310 -2.1412 -0.9900 -0.9969
35370SOL     OW 8551   8.088  10.355   4.126  0.2574 -0.5516 -0.0885
35370SOL    HW1 8552   8.046  10.442   4.119  1.6380  0.2204  0.8476
35370SOL    HW2 8553   8.158  10.358   4.061  0.0400 -1.1427 -0.3528
35371SOL     OW 8554   2.796   9.909   0.760 -0.3726 -0.0327  0.2702
35371SOL    HW1 8555   2.809   9.928   0.667  2.3421  0.4244  0.6539
35371SOL    HW2 8556   2.867   9.849   0.783  0.2611  1.3954  2.4382
35372SOL     OW 8557   4.025   6.548   3.912 -0.2463  0.0202  0.4716
35372SOL    HW1 8558   3.979   6.498   3.845 -1.5471  1.9554 -0.1577
35372SOL    HW2 8559   3.996   6.510   3.995 -2.3090  0.5406  0.0550
35373SOL     OW 8560   9.794   9.841   5.121  0.2366  0.0587  0.2438
35373SOL    HW1 8561   9.863   9.847   5.056 -0.6377 -0.0693 -0.7149
35373SOL    HW2 8562   9.724   9.792   5.079 -0.8125  0.9571  0.8607
35374SOL     OW 8563  10.251   4.662   3.744 -0.6106 -0.1616 -0.3790
35374SOL    HW1 8564  10.247   4.642   3.651 -0.9772 -0.3508 -0.3234
35374SOL    HW2 8565  10.251   4.758   3.748  0.9504 -0.1357 -0.6332
35375SOL     OW 8566   0.398   2.040   3.409 -0.0976  0.3006 -0.1989
35375SOL    HW1 8567   0.342   1.990   3.350  0.3919  0.1478 -0.5455
35375SOL    HW2 8568   0.458   1.975   3.446 -1.9292 -0.0521  2.3575
35376SOL     OW 8569   8.066   8.260   0.515 -0.2062 -0.1707  0.5050
35376SOL    HW1 8570   8.002   8.328   0.494 -0.1512 -0.1805  0.3032
35376SOL    HW2 8571   8.144   8.308   0.544 -0.2337 -0.1535  0.5519
35377SOL     OW 8572   8.389   6.328   5.379 -0.2874 -0.1800  0.1971
35377SOL    HW1 8573   8.365   6.414   5.413  2.8923  0.7479  0.4091
35377SOL    HW2 8574   8.416   6.278   5.456 -0.1859 -0.6640 -0.1481
35378SOL     OW 8575   4.479   8.069   5.850 -0.8617 -0.4837 -0.1206
35378SOL    HW1 8576   4.499   8.141   5.789 -1.2327  0.3831  0.7503
35378SOL    HW2 8577   4.394   8.036   5.821 -0.7055 -0.5625 -0.5048
35379SOL     OW 8578   6.700   4.346   9.288 -0.3701  0.1907 -0.5629
35379SOL    HW1 8579   6.744   4.264   9.308  1.2182  0.7281 -1.6960
35379SOL    HW2 8580   6.610   4.320   9.267 -1.0583 -0.8039  2.9863
35380SOL     OW 8581   1.619   8.430   7.900 -0.3162  0.7287  0.5914
35380SOL    HW1 8582   1.714   8.441   7.911  0.0332  0.1245 -1.3099
35380SOL    HW2 8583   1.600   8.469   7.815 -1.7755  0.7432  0.8927
35381SOL     OW 8584   1.919   7.188   0.306  0.0115 -0.3817  0.4572
35381SOL    HW1 8585   1.992   7.129   0.325 -0.3543 -0.9009  0.2533
35381SOL    HW2 8586   1.841   7.141   0.336 -0.3453 -0.2639 -0.2609
35382SOL     OW 8587   8.708   7.466   0.924 -0.3930 -0.3011  0.7036
35382SOL    HW1 8588   8.646   7.471   0.997  0.4434 -1.1755  1.5090
35382SOL    HW2 8589   8.662   7.506   0.850 -1.2946  0.5207  1.6804
35383SOL     OW 8590   7.265   5.618   1.412 -0.5466 -0.1213  0.3219
35383SOL    HW1 8591   7.272   5.654   1.500 -1.7579 -0.0914  0.4101
35383SOL    HW2 8592   7.217   5.537   1.422 -0.6674 -0.1329 -0.3090
35384SOL     OW 8593   9.935   0.865   1.738  0.1924 -0.1600 -0.0966
35384SOL    HW1 8594   9.979   0.926   1.679 -1.3450 -0.9034 -2.1233
35384SOL    HW2 8595   9.981   0.782   1.726 -0.1647 -0.3301 -0.2890
35385SOL     OW 8596   5.651   5.058   6.655  0.0610 -0.0608  0.3765
35385SOL    HW1 8597   5.625   4.992   6.591  1.0086  0.4193 -0.5302
35385SOL    HW2 8598   5.702   5.011   6.720  0.8809 -0.1947 -0.3580
35386SOL     OW 8599   8.713   2.081   5.050 -0.2499  0.2500 -0.0866
35386SOL    HW1 8600   8.687   2.092   4.959 -0.6117 -1.0972 -0.1574
35386SOL    HW2 8601   8.664   2.149   5.097 -0.7414  0.3735 -0.7681
35387SOL     OW 8602   1.127   5.439   9.827  0.0654 -0.3482  0.1616
35387SOL    HW1 8603   1.117   5.430   9.922 -1.1348  0.1553  0.0991
35387SOL    HW2 8604   1.039   5.425   9.793  0.4810 -0.4767 -0.8786
35388SOL     OW 8605   7.366   8.135   2.969 -0.1162 -0.1661 -0.2804
35388SOL    HW1 8606   7.322   8.100   2.892 -2.0043 -1.7651  1.3922
35388SOL    HW2 8607   7.434   8.071   2.990  2.1233  1.5192 -1.9542
35389SOL     OW 8608   8.820   6.550   8.476 -0.2950 -0.3675  0.2453
35389SOL    HW1 8609   8.732   6.564   8.511 -0.5458 -1.3396  0.0452
35389SOL    HW2 8610   8.872   6.522   8.551 -0.9861 -3.0864 -0.1798
35390SOL     OW 8611   1.148   8.460   0.205 -0.0288  0.3174 -0.5947
35390SOL    HW1 8612   1.074   8.425   0.254 -0.2374  1.7365  0.1497
35390SOL    HW2 8613   1.112   8.484   0.120 -0.0308 -0.5831 -0.8604
35391SOL     OW 8614   3.580   7.735   5.160  0.4789 -0.5365 -0.1612
35391SOL    HW1 8615   3.531   7.756   5.240 -0.0816 -0.7868 -0.4369
35391SOL    HW2 8616   3.518   7.750   5.089  1.2635  0.6247 -0.6390
35392SOL     OW 8617   6.085   0.513   0.608  1.0235  0.2786  0.5336
35392SOL    HW1 8618   6.098   0.495   0.701 -0.5010  1.0802  0.9263
35392SOL    HW2 8619   6.065   0.606   0.604 -1.4404 -0.2143 -0.2802
35393SOL     OW 8620   3.842   2.507   9.116 -0.2279 -0.6083  0.0181
35393SOL    HW1 8621   3.772   2.449   9.148  0.2108 -1.3037 -0.2577
35393SOL    HW2 8622   3.879   2.545   9.195 -2.5740  1.8128  0.1082
35394SOL     OW 8623   9.078   8.329   9.830  0.3853 -0.4213  0.2306
35394SOL    HW1 8624   9.151   8.283   9.872  1.1503  0.1688 -0.4088
35394SOL    HW2 8625   9.053   8.272   9.757 -1.2934 -1.7051  1.7133
35395SOL     OW 8626   8.843   6.431   4.949  0.5847 -0.3633 -0.1211
35395SOL    HW1 8627   8.874   6.370   5.015  0.2607  0.5511  0.9095
35395SOL    HW2 8628   8.914   6.435   4.884  0.6631 -1.7000 -0.1427
35396SOL     OW 8629   1.734   2.315   5.177  0.2238  0.4395  0.3936
35396SOL    HW1 8630   1.659   2.265   5.148 -0.7926  1.8736  0.4471
35396SOL    HW2 8631   1.806   2.287   5.120 -1.0252  1.0777 -1.5939
35397SOL     OW 8632   6.138   1.701   3.038  0.4242 -0.6716 -0.1659
35397SOL    HW1 8633   6.187   1.650   3.102  2.2711  0.6790 -0.4190
35397SOL    HW2 8634   6.160   1.663   2.954  1.0015 -0.1163 -0.2737
35398SOL     OW 8635   9.897   4.292   5.685  0.0497  0.0780 -0.6699
35398SOL    HW1 8636   9.922   4.286   5.593  0.3798  1.5761 -0.7059
35398SOL    HW2 8637   9.859   4.379   5.694  0.7909  0.2915  0.7776
35399SOL     OW 8638   8.954   1.416   5.604 -0.9249 -0.4324  0.3072
35399SOL    HW1 8639   8.863   1.403   5.575 -0.8981  2.1964 -1.2548
35399SOL    HW2 8640   9.002   1.345   5.563 -1.7870  0.1146 -1.8096
35400SOL     OW 8641   4.857   8.005   4.892  0.6945  0.7805  0.5502
35400SOL    HW1 8642   4.761   8.007   4.885  0.5714 -0.9629  1.3329
35400SOL    HW2 8643   4.887   8.001   4.801 -0.1214 -1.5838  0.3072
35401SOL     OW 8644   7.192   0.333   6.918  0.3603  0.2062 -0.5869
35401SOL    HW1 8645   7.178   0.426   6.904 -2.6686 -0.0394  0.0316
35401SOL    HW2 8646   7.127   0.308   6.984  0.9905 -2.3435 -0.7947
35402SOL     OW 8647   2.435   1.057  10.234  0.4321  0.2514 -0.4252
35402SOL    HW1 8648   2.398   1.117  10.170 -0.1203  0.4333  0.0543
35402SOL    HW2 8649   2.525   1.041  10.204  0.1688  0.3068 -1.2544
35403SOL     OW 8650   7.419   2.192   5.188  0.6482 -0.6120 -0.3145
35403SOL    HW1 8651   7.329   2.179   5.218  0.0918  0.8182 -1.2723
35403SOL    HW2 8652   7.466   2.221   5.266 -0.4686  1.7472 -0.4304
35404SOL     OW 8653   7.510   3.401   5.824 -0.1343 -0.4194 -0.0209
35404SOL    HW1 8654   7.488   3.326   5.768 -0.2526 -0.7563  0.4679
35404SOL    HW2 8655   7.557   3.362   5.898  0.0797  0.0309  0.0850
35405SOL     OW 8656   0.465   0.144   6.341 -0.0179  0.3103  0.4035
35405SOL    HW1 8657   0.522   0.073   6.312 -0.4115  0.2729 -0.3043
35405SOL    HW2 8658   0.416   0.169   6.263 -0.2443  1.0253  0.7653
35406SOL     OW 8659   8.458   7.725   1.361 -0.3047  0.1048 -0.3058
35406SOL    HW1 8660   8.476   7.817   1.345  0.9143  0.1124  0.9908
35406SOL    HW2 8661   8.365   7.722   1.384 -0.1840  1.1036  0.3375
35407SOL     OW 8662   2.652   4.123   8.763 -0.4489 -0.3991 -0.1979
35407SOL    HW1 8663   2.623   4.075   8.841 -0.0615  1.5989  1.2724
35407SOL    HW2 8664   2.747   4.120   8.768 -0.4223  0.3624 -0.1587
35408SOL     OW 8665   6.412   9.591   8.728 -0.0415 -0.5324  0.3223
35408SOL    HW1 8666   6.329   9.567   8.769  0.7930 -0.1634  2.3827
35408SOL    HW2 8667   6.477   9.578   8.798  1.5300 -0.1572 -1.0182
35409SOL     OW 8668   3.532   2.708   7.462 -0.8366 -0.3494  0.0156
35409SOL    HW1 8669   3.485   2.627   7.483 -0.1309 -1.0528 -1.0371
35409SOL    HW2 8670   3.624   2.683   7.465 -0.6409  0.1977 -1.1369
35410SOL     OW 8671   2.991   5.775   9.834  0.1382 -0.1449  0.0161
35410SOL    HW1 8672   3.077   5.808   9.808  0.5944  0.0114  1.6289
35410SOL    HW2 8673   2.995   5.682   9.813 -0.3743  0.3427 -2.5562
35411SOL     OW 8674   1.647   6.505   5.974 -0.2672 -0.1033  0.5303
35411SOL    HW1 8675   1.618   6.586   5.933 -0.9275 -0.1738  0.8474
35411SOL    HW2 8676   1.567   6.453   5.984  0.2377 -1.0718 -0.2681
35412SOL     OW 8677   3.168   3.208   3.847 -0.6464  0.1185  0.0202
35412SOL    HW1 8678   3.107   3.282   3.850 -0.0146  0.6452  0.1186
35412SOL    HW2 8679   3.225   3.221   3.923  1.6069  1.4082 -1.7736
35413SOL     OW 8680   1.467   0.120   1.775  0.4726 -0.1715  0.1188
35413SOL    HW1 8681   1.530   0.110   1.846 -0.3288  1.3461  1.1194
35413SOL    HW2 8682   1.509   0.181   1.714  0.4101  0.0066  0.2519
35414SOL     OW 8683   1.046   8.358   8.750  0.8047  0.1327 -0.2362
35414SOL    HW1 8684   0.966   8.310   8.773  2.8947 -3.2148  0.9091
35414SOL    HW2 8685   1.018   8.425   8.688 -2.8320 -0.8865  0.0858
35415SOL     OW 8686   8.696   1.843   7.705 -0.2208 -0.2393  0.2186
35415SOL    HW1 8687   8.761   1.773   7.701  1.6561  1.3996  0.6712
35415SOL    HW2 8688   8.733   1.914   7.653 -1.6515  0.7595  0.4978
35416SOL     OW 8689   0.874   8.528   2.680 -0.4013 -0.1704  0.1083
35416SOL    HW1 8690   0.962   8.497   2.700 -0.3106  2.4968  5.8404
35416SOL    HW2 8691   0.886   8.598   2.617  1.2936 -0.8728 -0.4072
35417SOL     OW 8692   8.867   5.050  10.315  0.1996 -0.1846 -0.2966
35417SOL    HW1 8693   8.913   4.996  10.251 -0.7430 -1.7855  0.2986
35417SOL    HW2 8694   8.901   5.138  10.302  1.5265 -0.8474 -1.5826
35418SOL     OW 8695   0.551   2.066   0.664 -0.0137 -0.2575 -0.3509
35418SOL    HW1 8696   0.616   1.997   0.648  0.7474  0.1748  0.7704
35418SOL    HW2 8697   0.482   2.049   0.600 -1.0983 -3.5850  1.4305
35419SOL     OW 8698   2.183   0.349   0.499 -0.0184 -0.1597 -0.1914
35419SOL    HW1 8699   2.139   0.311   0.575  0.2213  0.2602  0.1638
35419SOL    HW2 8700   2.130   0.323   0.425 -1.7349  1.5414  0.3507
35420SOL     OW 8701   9.319   1.469   6.095  0.2385  0.2898 -0.1349
35420SOL    HW1 8702   9.288   1.549   6.053  1.2704 -0.6353 -2.8896
35420SOL    HW2 8703   9.407   1.492   6.127 -0.1398  0.7094  0.6251
35421SOL     OW 8704   2.216   7.662   1.771  0.0491  0.2391  0.4038
35421SOL    HW1 8705   2.191   7.754   1.781 -0.7872  0.0635 -0.0655
35421SOL    HW2 8706   2.303   7.657   1.810  0.5492  1.4598 -0.4888
35422SOL     OW 8707   6.845   7.741   3.637 -0.3052 -0.2315 -0.2719
35422SOL    HW1 8708   6.932   7.749   3.675 -1.2166  1.3046  1.7042
35422SOL    HW2 8709   6.841   7.809   3.570  0.1354 -0.5688 -0.6437
35423SOL     OW 8710   4.860   9.035   3.408 -0.2334 -0.0053 -0.1246
35423SOL    HW1 8711   4.873   9.005   3.318 -0.2284  2.0923 -0.8871
35423SOL    HW2 8712   4.858   8.955   3.460  0.9617 -1.2161 -1.8244
35424SOL     OW 8713   9.785   8.881   6.408 -0.2554 -0.2935  0.0489
35424SOL    HW1 8714   9.740   8.942   6.350  1.5863  0.9200 -0.1848
35424SOL    HW2 8715   9.810   8.934   6.484 -0.2425 -1.2099  0.7020
35425SOL     OW 8716   6.661   1.318   2.444  0.3090  0.5769 -0.3375
35425SOL    HW1 8717   6.723   1.249   2.422  2.4579  2.5777 -0.9610
35425SOL    HW2 8718   6.582   1.296   2.396  0.9033 -1.4453 -0.4733
35426SOL     OW 8719   9.997   9.523   2.011 -0.0768  0.9458 -0.0187
35426SOL    HW1 8720   9.971   9.570   2.091  0.5433 -1.0721  1.4409
35426SOL    HW2 8721  10.092   9.519   2.015 -0.1190 -0.7197  0.1213
35427SOL     OW 8722   5.328   6.407   8.638  0.2111  0.5311 -0.0183
35427SOL    HW1 8723   5.394   6.338   8.641 -1.4395 -1.1160  0.2075
35427SOL    HW2 8724   5.291   6.409   8.726  0.2272  1.7187 -0.0296
35428SOL     OW 8725   7.504   1.506   4.436 -0.2328  0.2638  0.4677
35428SOL    HW1 8726   7.424   1.517   4.487 -0.1630  0.2321  0.5868
35428SOL    HW2 8727   7.572   1.549   4.488 -0.2909  0.8728  0.0416
35429SOL     OW 8728  10.210   3.646  10.336  0.4720 -0.5671 -0.5959
35429SOL    HW1 8729  10.198   3.561  10.294 -2.2806 -1.8559  2.3652
35429SOL    HW2 8730  10.281   3.632  10.398  0.6649 -0.3937 -0.7751
35430SOL     OW 8731   9.598   1.808   8.133  0.6103  0.0282  0.1351
35430SOL    HW1 8732   9.687   1.834   8.108  0.8208  0.2763  1.0803
35430SOL    HW2 8733   9.591   1.717   8.106  0.8152  0.2825 -0.8064
35431SOL     OW 8734   5.873   6.783   3.665 -1.0131  0.3187  0.2295
35431SOL    HW1 8735   5.873   6.870   3.626 -2.7678  0.3896  0.3447
35431SOL    HW2 8736   5.826   6.794   3.748  0.8842 -0.2507  1.4517
35432SOL     OW 8737   4.898   7.354   3.598  0.2537  0.2754  0.4369
35432SOL    HW1 8738   4.949   7.310   3.667  1.2116 -0.0867 -0.4681
35432SOL    HW2 8739   4.841   7.415   3.645  1.4278  0.5880  1.5072
35433SOL     OW 8740   6.974   3.627   9.411 -0.0961  0.4035 -0.7794
35433SOL    HW1 8741   6.879   3.621   9.426  0.2818  0.0682  2.2882
35433SOL    HW2 8742   7.001   3.537   9.393  0.0841 -0.3698  2.6750
35434SOL     OW 8743   9.151   0.297   9.787 -0.2724 -0.2732  0.3577
35434SOL    HW1 8744   9.199   0.326   9.710 -0.0448 -0.5430  0.3964
35434SOL    HW2 8745   9.182   0.354   9.857 -0.9813  0.4306  0.1188
35435SOL     OW 8746   7.920   0.528   8.847  0.2536  0.1216 -0.0319
35435SOL    HW1 8747   7.921   0.432   8.856  3.7703 -0.0490 -0.8044
35435SOL    HW2 8748   7.827   0.549   8.836 -0.6615 -3.2052 -0.0223
35436SOL     OW 8749   7.463   3.036  10.235 -0.2182  0.0660 -0.0648
35436SOL    HW1 8750   7.425   3.062  10.319  1.6303 -0.3235  0.9522
35436SOL    HW2 8751   7.469   3.117  10.185 -1.4926  0.2737  0.0750
35437SOL     OW 8752   5.395   6.256   6.092  0.1801  0.1688  0.6101
35437SOL    HW1 8753   5.464   6.321   6.105  1.0476 -0.6633  0.3231
35437SOL    HW2 8754   5.442   6.173   6.085 -0.9932 -0.9374  3.7848
35438SOL     OW 8755   2.996   7.965   4.449 -0.6354  0.3388  0.3940
35438SOL    HW1 8756   2.945   8.045   4.437 -1.3206 -0.1511 -0.0766
35438SOL    HW2 8757   3.002   7.954   4.544 -1.2513  0.5161  0.4599
35439SOL     OW 8758   8.866   1.288   0.530  0.2937 -0.3489 -0.2690
35439SOL    HW1 8759   8.953   1.326   0.535  0.1826  0.1213 -1.6326
35439SOL    HW2 8760   8.831   1.317   0.446 -0.8149 -1.3039 -0.1692
35440SOL     OW 8761   1.519   4.177   1.172 -0.4091 -0.3231  0.0935
35440SOL    HW1 8762   1.459   4.250   1.187  0.7378  0.8439 -0.7467
35440SOL    HW2 8763   1.598   4.218   1.136  1.2979 -1.6616  2.0724
35441SOL     OW 8764   0.145   2.956   1.569  0.6423 -0.0974  0.0274
35441SOL    HW1 8765   0.226   3.002   1.589  0.5100 -0.5998  2.0064
35441SOL    HW2 8766   0.095   3.016   1.513  2.3409  0.2169 -1.2236
35442SOL     OW 8767   5.417   9.326  10.241 -0.0092  0.1424  0.0208
35442SOL    HW1 8768   5.400   9.276  10.161 -1.2270  0.1462  0.2481
35442SOL    HW2 8769   5.452   9.262  10.303 -1.5044 -0.4706  0.2911
35443SOL     OW 8770   7.697   5.445   4.159  0.4639 -0.1567  0.1145
35443SOL    HW1 8771   7.788   5.417   4.151 -0.2138 -2.3375 -0.6086
35443SOL    HW2 8772   7.667   5.454   4.069  0.0580  0.9473  0.3485
35444SOL     OW 8773   8.462   3.558   6.054 -0.3444 -0.6346  1.1287
35444SOL    HW1 8774   8.391   3.578   6.115  0.0506 -1.6802  1.9774
35444SOL    HW2 8775   8.483   3.466   6.073  1.4768 -0.2339  1.1619
35445SOL     OW 8776   8.905   8.059   1.856 -0.2413 -0.1020 -0.5608
35445SOL    HW1 8777   8.987   8.099   1.827  1.0670 -0.4232  2.3763
35445SOL    HW2 8778   8.878   8.110   1.932 -0.5321 -2.4183  0.9967
35446SOL     OW 8779   0.328   9.909   3.121  0.2323 -0.5603  0.3148
35446SOL    HW1 8780   0.244   9.948   3.146  0.7814 -0.1615  1.6504
35446SOL    HW2 8781   0.391   9.979   3.137  0.8369 -0.9042 -0.5410
35447SOL     OW 8782   7.059   9.763   4.760  0.2081 -0.0116 -0.2616
35447SOL    HW1 8783   6.997   9.809   4.703 -1.5441 -1.3653  0.4302
35447SOL    HW2 8784   7.058   9.813   4.842 -0.6892 -0.5116  0.0468
35448SOL     OW 8785   6.925   9.403  10.153  0.7194  0.5480  0.2240
35448SOL    HW1 8786   6.916   9.402  10.058  0.1737  0.5739  0.2711
35448SOL    HW2 8787   6.845   9.444  10.184 -0.0565 -1.3122  0.7946
35449SOL     OW 8788   4.574   6.895   3.881 -0.0288  0.6477  0.3994
35449SOL    HW1 8789   4.662   6.929   3.897 -0.3842  0.7854  2.2888
35449SOL    HW2 8790   4.551   6.848   3.961 -1.1815 -0.4891 -0.5575
35450SOL     OW 8791   8.320   1.044   4.390 -0.1636 -0.2812 -0.2961
35450SOL    HW1 8792   8.295   1.083   4.473  0.5881 -1.4387  0.5037
35450SOL    HW2 8793   8.415   1.046   4.390 -0.1574 -0.2219 -1.1717
35451SOL     OW 8794   7.780   2.397   1.393 -0.6105 -0.4470 -0.4223
35451SOL    HW1 8795   7.801   2.406   1.301  0.8304 -1.1930 -0.1829
35451SOL    HW2 8796   7.697   2.444   1.403 -0.3460  0.3908 -1.9080
35452SOL     OW 8797   2.369   9.059   7.252  0.0208  0.5178 -0.2432
35452SOL    HW1 8798   2.428   9.135   7.255  0.2101  0.3563  1.1470
35452SOL    HW2 8799   2.424   8.986   7.224  0.2058  0.6067 -0.1148
35453SOL     OW 8800   3.866   9.765   2.200  0.1852 -0.5044  0.4650
35453SOL    HW1 8801   3.951   9.769   2.245 -0.1773  0.2453  1.1150
35453SOL    HW2 8802   3.822   9.846   2.226 -0.7328 -0.8862  0.1379
35454SOL     OW 8803   6.776   2.083   5.329 -0.4881  0.5384 -0.0216
35454SOL    HW1 8804   6.861   2.127   5.327  0.0314 -0.2269  2.5613
35454SOL    HW2 8805   6.788   2.005   5.275  0.5898  0.2429  0.6253
35455SOL     OW 8806   1.778  10.405   0.264  0.6332  0.3871 -0.1657
35455SOL    HW1 8807   1.756  10.318   0.230  0.5472  0.2276  0.3016
35455SOL    HW2 8808   1.862  10.426   0.223  0.9003 -0.1303  0.1080
35456SOL     OW 8809   6.074   4.075   9.512 -0.1295  0.0994  0.3232
35456SOL    HW1 8810   6.164   4.069   9.543  0.0040  1.2167  0.2058
35456SOL    HW2 8811   6.026   4.009   9.563  0.5405  0.2594  1.1848
35457SOL     OW 8812   8.107  10.428   9.913  0.3165 -0.0078  0.1188
35457SOL    HW1 8813   8.108  10.332   9.918  2.6047 -0.0386  0.1294
35457SOL    HW2 8814   8.098  10.456  10.003 -0.4998 -0.1828  0.1044
35458SOL     OW 8815   7.926   5.231   3.082  0.2770  0.5059  0.1936
35458SOL    HW1 8816   7.994   5.180   3.039  0.5600  0.6263  0.4959
35458SOL    HW2 8817   7.849   5.220   3.026  1.0394  1.9142 -1.2041
35459SOL     OW 8818   4.468   8.457   8.915  0.5500  0.4715 -0.1895
35459SOL    HW1 8819   4.458   8.435   9.008 -0.4697 -0.5145 -0.5235
35459SOL    HW2 8820   4.510   8.380   8.877  1.1041  0.9366 -0.5361
35460SOL     OW 8821   2.208   8.630   0.796 -0.4413 -0.0949  0.4486
35460SOL    HW1 8822   2.156   8.553   0.820  0.6104 -0.6217  1.0885
35460SOL    HW2 8823   2.152   8.704   0.817 -1.4156 -0.6771 -0.0340
35461SOL     OW 8824   2.610   6.285   9.810  0.2422  0.1335  0.2085
35461SOL    HW1 8825   2.576   6.365   9.850 -0.0423  0.1122  0.0058
35461SOL    HW2 8826   2.697   6.309   9.779 -0.7624  1.0761 -2.0867
35462SOL     OW 8827   5.151   5.620   7.215  0.3319  0.0399  0.7899
35462SOL    HW1 8828   5.217   5.556   7.241 -1.1300 -1.7003  0.4423
35462SOL    HW2 8829   5.070   5.589   7.255 -0.9178  0.2519 -1.3680
35463SOL     OW 8830   3.253   0.493   0.612  0.2019  0.2505  0.4698
35463SOL    HW1 8831   3.249   0.496   0.516 -0.1809 -0.0425  0.4740
35463SOL    HW2 8832   3.345   0.474   0.631  0.3783  0.8001  0.1743
35464SOL     OW 8833   5.270   3.061   1.075 -0.5910 -0.0791  0.1862
35464SOL    HW1 8834   5.302   3.144   1.111 -3.1674  1.6759 -1.2649
35464SOL    HW2 8835   5.340   2.998   1.095  1.4739  2.3861  1.3672
35465SOL     OW 8836   2.883   8.907   7.033 -0.2499  0.5002 -0.0923
35465SOL    HW1 8837   2.852   8.870   6.951 -1.0943  2.1168 -0.5576
35465SOL    HW2 8838   2.804   8.920   7.085 -0.1180  2.2749 -0.2564
35466SOL     OW 8839  10.038   8.035   8.778  0.2439 -0.4021  0.3354
35466SOL    HW1 8840   9.960   8.051   8.726 -0.0929 -0.2728  0.8683
35466SOL    HW2 8841  10.110   8.033   8.715  0.0579  1.3204  0.0214
35467SOL     OW 8842   1.203   9.043   6.437 -0.3465  1.2028  0.4467
35467SOL    HW1 8843   1.141   9.082   6.498 -1.2592  0.5161 -0.0012
35467SOL    HW2 8844   1.148   8.990   6.379  0.9164 -2.0213  1.9685
35468SOL     OW 8845   4.202   1.408  10.010  0.5988  0.4884  0.1145
35468SOL    HW1 8846   4.202   1.360   9.927  2.6285  0.2229  0.2158
35468SOL    HW2 8847   4.151   1.353  10.070  1.6450 -0.8295 -0.1728
35469SOL     OW 8848   2.529   6.173   0.940  0.2010  0.4852 -0.4859
35469SOL    HW1 8849   2.575   6.095   0.970  1.0519  2.2512  3.3301
35469SOL    HW2 8850   2.597   6.229   0.903 -0.3047 -0.2066 -2.5950
35470SOL     OW 8851   2.744   5.806   1.554  0.2086 -0.1812  0.0486
35470SOL    HW1 8852   2.816   5.841   1.607  0.8237  0.1216 -0.9382
35470SOL    HW2 8853   2.755   5.711   1.559  0.1376 -0.1644  0.6109
35471SOL     OW 8854   4.572   0.684   1.159  0.2131  0.0746 -0.2867
35471SOL    HW1 8855   4.660   0.648   1.151  0.1185 -0.5484  1.1299
35471SOL    HW2 8856   4.514   0.608   1.147 -0.0140 -0.1446  1.8667
35472SOL     OW 8857   6.364   2.965   7.262  0.7205  0.4608  0.3318
35472SOL    HW1 8858   6.340   2.906   7.333  1.5465  0.9285  1.0135
35472SOL    HW2 8859   6.416   3.034   7.304 -0.5741  1.9324 -0.3613
35473SOL     OW 8860   0.889   5.883   7.123 -0.1950  0.6891  0.7142
35473SOL    HW1 8861   0.942   5.959   7.147 -1.2409  1.3011  1.1786
35473SOL    HW2 8862   0.817   5.919   7.072 -1.1586  0.1392  1.6358
35474SOL     OW 8863   5.120   2.674   9.439 -0.4555 -0.1874 -0.2302
35474SOL    HW1 8864   5.111   2.664   9.533 -1.8303 -0.6742 -0.3932
35474SOL    HW2 8865   5.094   2.589   9.403 -0.1049  0.0432 -1.0532
35475SOL     OW 8866   8.020   0.039   9.424  0.4846 -0.2913  0.3304
35475SOL    HW1 8867   8.040   0.018   9.515 -4.0623 -0.5926  1.4860
35475SOL    HW2 8868   7.978   0.125   9.427  0.1775 -0.3256 -1.4898
35476SOL     OW 8869   0.964   8.557  10.477  0.5053 -0.3073  0.2201
35476SOL    HW1 8870   0.975   8.651  10.491  1.4537 -0.2458 -0.8270
35476SOL    HW2 8871   0.883   8.550  10.427  1.2885  0.0966 -1.1296
35477SOL     OW 8872   0.462   5.171   5.276  0.2184  0.3270  0.1263
35477SOL    HW1 8873   0.534   5.232   5.263 -0.0268  0.5522 -0.1970
35477SOL    HW2 8874   0.440   5.140   5.189  0.3966 -0.2932  0.2982
35478SOL     OW 8875  10.112   3.117   9.180  0.2462 -0.3991 -0.3746
35478SOL    HW1 8876  10.100   3.072   9.264  1.3249  1.8519  1.0942
35478SOL    HW2 8877  10.030   3.163   9.165 -0.4837 -1.9274 -1.3651
35479SOL     OW 8878   6.139   0.066   3.126 -0.0430 -0.3554 -0.2418
35479SOL    HW1 8879   6.088  -0.008   3.091 -1.2790 -1.4521  3.3683
35479SOL    HW2 8880   6.082   0.142   3.113  1.0335  0.0258 -3.5507
35480SOL     OW 8881   5.557   2.717   8.857  0.4566 -0.4455  0.0622
35480SOL    HW1 8882   5.491   2.676   8.802  0.7462  1.5667 -1.9269
35480SOL    HW2 8883   5.568   2.657   8.930 -1.2771 -2.3598 -1.1492
35481SOL     OW 8884   6.831   1.664   6.889  0.2589 -0.6977  0.0824
35481SOL    HW1 8885   6.815   1.758   6.895 -0.4158 -0.7051 -1.2392
35481SOL    HW2 8886   6.913   1.657   6.841 -0.3034 -0.7874 -0.8867
35482SOL     OW 8887  10.023   9.809   8.946  0.4727  0.6521  0.4083
35482SOL    HW1 8888   9.935   9.800   8.984  0.2357  1.2509  0.0193
35482SOL    HW2 8889  10.049   9.719   8.925 -0.8393  0.6044 -1.2138
35483SOL     OW 8890   8.560   0.041   9.557  0.3393  0.4014  0.1082
35483SOL    HW1 8891   8.522  -0.026   9.614  1.0117  0.3060  0.4558
35483SOL    HW2 8892   8.613   0.095   9.615  0.7553  0.5130 -0.3645
35484SOL     OW 8893   3.239   9.394   1.317 -0.3209 -0.2728 -0.4191
35484SOL    HW1 8894   3.285   9.427   1.240 -1.8140 -0.7192 -1.5608
35484SOL    HW2 8895   3.196   9.314   1.287 -1.7289  0.0530  0.5939
35485SOL     OW 8896   3.700   1.085   7.105  0.2862  0.2319 -0.1979
35485SOL    HW1 8897   3.643   1.008   7.102  2.5032 -1.6284  1.6836
35485SOL    HW2 8898   3.749   1.083   7.023 -0.4403  0.2952 -0.6378
35486SOL     OW 8899   5.074   8.321   7.558  0.1352  0.0773 -0.7801
35486SOL    HW1 8900   4.999   8.377   7.542  0.2765  0.4074 -0.3341
35486SOL    HW2 8901   5.142   8.381   7.589  0.4114 -0.2867 -0.6723
35487SOL     OW 8902   1.227   4.308   8.512 -0.3258 -0.2707 -0.1834
35487SOL    HW1 8903   1.256   4.375   8.450  0.2718  0.4127  0.8120
35487SOL    HW2 8904   1.159   4.351   8.563 -1.2062 -1.0093 -0.7118
35488SOL     OW 8905   2.894   8.184   6.144 -0.4149  0.0425  0.2088
35488SOL    HW1 8906   2.930   8.170   6.232  2.0378 -1.9451 -0.9583
35488SOL    HW2 8907   2.814   8.131   6.143 -1.0016  0.8443  1.4827
35489SOL     OW 8908   7.176   8.075   3.931  0.4646 -0.0249 -0.0938
35489SOL    HW1 8909   7.215   8.139   3.872  0.5567  0.0652  0.0619
35489SOL    HW2 8910   7.115   8.126   3.985 -0.0294 -0.2035 -0.4808
35490SOL     OW 8911   3.803   7.503   6.545 -0.2862  0.0204  0.1589
35490SOL    HW1 8912   3.778   7.557   6.619 -0.9304 -1.0303  0.7246
35490SOL    HW2 8913   3.862   7.559   6.493  0.6114  0.5843  1.7249
35491SOL     OW 8914   3.987   3.977   5.057 -0.2173  0.6711  0.0767
35491SOL    HW1 8915   4.020   3.888   5.068  1.4625  1.4888  2.2917
35491SOL    HW2 8916   3.905   3.967   5.008 -0.8056 -2.2123  1.4742
35492SOL     OW 8917   3.244   6.159   5.890  0.0000 -0.2347  0.2721
35492SOL    HW1 8918   3.160   6.123   5.918  0.3671 -1.2117  0.1694
35492SOL    HW2 8919   3.248   6.245   5.931 -0.1541 -0.9964  1.9887
35493SOL     OW 8920  10.450   6.777   6.076 -0.4034  0.7012  0.4179
35493SOL    HW1 8921  10.465   6.862   6.034  1.8244  0.3332  0.3527
35493SOL    HW2 8922  10.536   6.750   6.106 -1.2668 -1.0371  1.4450
35494SOL     OW 8923   8.791   8.519   3.653 -0.2682 -0.0958  0.4260
35494SOL    HW1 8924   8.834   8.445   3.611 -4.0255 -1.7224 -0.9314
35494SOL    HW2 8925   8.751   8.568   3.581  0.7185  2.3992  1.4473
35495SOL     OW 8926   6.923   4.794   7.880 -0.2404  0.6787  0.4545
35495SOL    HW1 8927   6.936   4.875   7.830 -0.8615  0.4989 -0.0123
35495SOL    HW2 8928   6.828   4.779   7.877  0.0966 -1.6476 -1.9879
35496SOL     OW 8929   0.577   7.707   4.246 -0.0231 -0.4850 -0.0455
35496SOL    HW1 8930   0.554   7.634   4.303 -1.0962  0.8872  1.3851
35496SOL    HW2 8931   0.517   7.777   4.273  1.1397  0.9971 -1.1810
35497SOL     OW 8932   0.365   7.390   2.811 -0.5957  0.5154 -0.0279
35497SOL    HW1 8933   0.321   7.306   2.806  2.3221 -1.1296 -0.7361
35497SOL    HW2 8934   0.375   7.417   2.719 -1.2743  1.5431  0.1808
35498SOL     OW 8935   1.689   0.336   8.836 -0.3069  0.4880 -0.1029
35498SOL    HW1 8936   1.619   0.399   8.816 -0.0769  1.6134  2.2497
35498SOL    HW2 8937   1.766   0.391   8.852  0.7375 -0.6409 -1.1528
35499SOL     OW 8938   4.145   0.679   0.953  0.3631  0.1082  0.0150
35499SOL    HW1 8939   4.184   0.693   0.867 -0.3723 -0.1880 -0.3748
35499SOL    HW2 8940   4.056   0.648   0.935  0.5009 -0.8350  0.8793
35500SOL     OW 8941   6.675   9.653   0.935 -0.3068 -0.2131 -0.1776
35500SOL    HW1 8942   6.584   9.664   0.910 -0.5899 -1.0266  0.4355
35500SOL    HW2 8943   6.671   9.618   1.024  0.5935 -0.7349 -0.3329
35501SOL     OW 8944   3.973   2.855   8.977  0.4026 -0.0970  0.0226
35501SOL    HW1 8945   3.885   2.891   8.976  0.4936  0.1220 -0.1546
35501SOL    HW2 8946   3.963   2.767   8.940  0.1853 -0.2475  0.4425
35502SOL     OW 8947   0.466   4.849   3.410 -0.3649  0.6541  0.4197
35502SOL    HW1 8948   0.427   4.924   3.364  0.4495  1.4224  0.9561
35502SOL    HW2 8949   0.459   4.777   3.348 -2.3328  0.8304  0.3569
35503SOL     OW 8950   5.101   6.216   6.585  0.2334  0.2384 -0.1421
35503SOL    HW1 8951   5.154   6.287   6.549  1.4198 -1.4562 -2.0233
35503SOL    HW2 8952   5.135   6.203   6.673  1.3380  0.7717 -0.4644
35504SOL     OW 8953   7.241   4.357   7.416 -0.2736  0.0474  0.3051
35504SOL    HW1 8954   7.240   4.359   7.320 -4.1988  0.6468  0.1995
35504SOL    HW2 8955   7.232   4.448   7.442 -0.9305 -0.2492  1.1655
35505SOL     OW 8956   8.899   4.651   1.973 -0.3596 -0.3012 -0.4019
35505SOL    HW1 8957   8.962   4.650   2.046 -0.1745  0.5024 -0.5488
35505SOL    HW2 8958   8.954   4.644   1.894 -0.5723 -1.4121 -0.4774
35506SOL     OW 8959   3.970   4.521   5.279 -0.1595 -0.2852  0.2365
35506SOL    HW1 8960   4.015   4.438   5.294  0.7643  0.0096 -0.8103
35506SOL    HW2 8961   3.909   4.504   5.207 -0.1545 -0.1149  0.1911
35507SOL     OW 8962   9.830   1.681   4.994 -0.5485  0.1696 -0.1541
35507SOL    HW1 8963   9.839   1.595   4.952  0.5138 -0.2142  0.8108
35507SOL    HW2 8964   9.785   1.735   4.929  0.1682 -0.6745 -1.3869
35508SOL     OW 8965   6.241   0.379   7.394 -0.2658  0.2992  0.0937
35508SOL    HW1 8966   6.276   0.366   7.306  0.9924 -1.4506  0.7808
35508SOL    HW2 8967   6.150   0.348   7.389 -0.2237  0.2873 -0.5980
35509SOL     OW 8968   8.484   8.660   4.062 -0.6414 -0.1147  0.7574
35509SOL    HW1 8969   8.484   8.607   4.142 -2.5702 -2.3100 -0.5609
35509SOL    HW2 8970   8.393   8.690   4.054 -0.8406 -1.1019 -1.2681
35510SOL     OW 8971   2.059   6.377   2.319  0.0156  0.0572 -0.2143
35510SOL    HW1 8972   2.071   6.349   2.228  0.0885 -0.4797 -0.0377
35510SOL    HW2 8973   2.062   6.297   2.370 -2.0073  0.1425  0.0881
35511SOL     OW 8974   7.875   5.526   7.682 -0.0322 -0.0669 -0.1256
35511SOL    HW1 8975   7.832   5.475   7.751  0.8835 -1.5655 -0.6130
35511SOL    HW2 8976   7.968   5.517   7.700  0.3274 -1.8290 -2.3910
35512SOL     OW 8977   0.832   5.349   6.450  0.5302 -0.4283  0.1884
35512SOL    HW1 8978   0.914   5.343   6.401  0.5847 -1.4539  0.3927
35512SOL    HW2 8979   0.854   5.316   6.537  0.1556  0.3103  0.5706
35513SOL     OW 8980   1.363   7.783   6.968  0.1064  0.2113  0.2104
35513SOL    HW1 8981   1.324   7.820   7.047  1.0492  0.0617  0.7650
35513SOL    HW2 8982   1.290   7.744   6.920 -0.3615 -0.3578  1.3711
35514SOL     OW 8983   5.290   5.783   7.004  0.2880  0.6042  0.1405
35514SOL    HW1 8984   5.268   5.713   7.065 -1.6749  0.9801 -0.0605
35514SOL    HW2 8985   5.326   5.739   6.928 -0.1750 -0.1266  0.3362
35515SOL     OW 8986   4.425   6.882   8.049  0.3949 -0.1273  0.9732
35515SOL    HW1 8987   4.479   6.858   8.123  0.0915  0.9891  1.5767
35515SOL    HW2 8988   4.335   6.880   8.083  0.0772 -1.3586  0.1471
35516SOL     OW 8989   0.400   6.791   5.740 -0.0615  0.8856 -0.1850
35516SOL    HW1 8990   0.473   6.852   5.732  0.0923  0.6421 -0.7206
35516SOL    HW2 8991   0.410   6.753   5.827  0.7777  0.4641 -0.4494
35517SOL     OW 8992   6.698   4.881   8.657  0.3203  0.3788  0.1931
35517SOL    HW1 8993   6.649   4.958   8.686  2.0332  1.2164  0.9601
35517SOL    HW2 8994   6.778   4.916   8.618  1.7145 -1.0287  1.6493
35518SOL     OW 8995   8.811   8.021   4.093 -0.1748 -0.0963  0.1706
35518SOL    HW1 8996   8.830   7.932   4.063 -0.0120  0.6156 -1.9620
35518SOL    HW2 8997   8.889   8.047   4.142  1.4644  0.1940 -2.4067
35519SOL     OW 8998   7.851   0.961   5.227  0.5111 -0.5577 -0.4281
35519SOL    HW1 8999   7.763   0.933   5.253 -0.2334  1.8282 -0.1999
35519SOL    HW2 9000   7.845   0.975   5.132  0.0928  1.3109 -0.1602
35520SOL     OW 9001   7.197   0.377   9.947 -0.0855  0.1895  0.9066
35520SOL    HW1 9002   7.226   0.468   9.950 -0.1316  0.2501 -0.2251
35520SOL    HW2 9003   7.141   0.367  10.025  0.5895  0.8809  1.4906
35521SOL     OW 9004   6.567   3.300   0.790  0.4918  0.0266 -0.4464
35521SOL    HW1 9005   6.638   3.286   0.728  1.6958 -2.0998  1.2525
35521SOL    HW2 9006   6.601   3.267   0.873 -1.5607  1.3898  1.0458
35522SOL     OW 9007   6.996  10.463   8.851  0.1952 -0.0231  0.1210
35522SOL    HW1 9008   6.977  10.422   8.935  1.6756  1.8462  1.4475
35522SOL    HW2 9009   7.063  10.408   8.811 -1.0069 -1.3035 -0.2048
35523SOL     OW 9010   3.741   7.157   7.771 -0.0762 -0.3778  0.0190
35523SOL    HW1 9011   3.732   7.242   7.815 -2.1108 -1.1104  1.1410
35523SOL    HW2 9012   3.835   7.142   7.768  0.4897  2.6283 -1.6792
35524SOL     OW 9013   4.481   7.657   2.855 -0.1057 -0.5382 -0.0343
35524SOL    HW1 9014   4.501   7.645   2.763  0.2685 -0.5859  0.0520
35524SOL    HW2 9015   4.527   7.737   2.880 -2.6584  1.2243 -0.6203
35525SOL     OW 9016   8.389   4.673   0.544 -0.3308  0.1273  0.5139
35525SOL    HW1 9017   8.404   4.692   0.636 -0.6555 -0.7696  0.7662
35525SOL    HW2 9018   8.296   4.649   0.539 -0.8829  2.2263 -0.4178
35526SOL     OW 9019   6.192   8.915   6.246 -0.3659  0.6400 -0.2353
35526SOL    HW1 9020   6.216   8.879   6.331 -1.1561  2.4612  0.8277
35526SOL    HW2 9021   6.170   8.838   6.193 -0.4816 -0.5185  1.4050
35527SOL     OW 9022   5.826   7.018   7.920 -0.1596  0.2365  0.4280
35527SOL    HW1 9023   5.791   7.068   7.994  0.9533  2.3476 -0.3747
35527SOL    HW2 9024   5.915   6.995   7.945 -0.7140 -1.5709  0.8518
35528SOL     OW 9025  10.046   7.523   6.507 -0.1435 -0.1035  0.1462
35528SOL    HW1 9026  10.058   7.451   6.570  0.1053 -0.8221 -0.6996
35528SOL    HW2 9027  10.112   7.588   6.533  1.3574 -1.2672 -0.5567
35529SOL     OW 9028   0.829   4.623   7.947  0.7932 -0.2102 -0.1529
35529SOL    HW1 9029   0.858   4.537   7.917  1.4350 -0.0520  0.0037
35529SOL    HW2 9030   0.751   4.641   7.895  1.0372 -0.5928 -0.6620
35530SOL     OW 9031  10.325   4.286   5.448  0.1555  0.2110  0.4457
35530SOL    HW1 9032  10.319   4.206   5.394  0.3916  0.1962  0.4393
35530SOL    HW2 9033  10.286   4.354   5.393  2.8639  0.7931 -0.9433
35531SOL     OW 9034   9.548   7.916   3.979  0.0767  0.0818 -0.0275
35531SOL    HW1 9035   9.453   7.910   3.977  0.1305 -0.7335 -1.3735
35531SOL    HW2 9036   9.569   7.991   3.922  0.3107 -1.3246 -1.8663
35532SOL     OW 9037   1.434   5.498   5.241  0.1688 -0.3295  0.1288
35532SOL    HW1 9038   1.503   5.467   5.300 -0.8515 -1.7390  0.6390
35532SOL    HW2 9039   1.353   5.489   5.291 -0.5862 -0.3612 -1.0405
35533SOL     OW 9040   9.796   5.992   5.012 -0.5073 -0.1949  0.2209
35533SOL    HW1 9041   9.825   6.082   5.002  0.0238 -0.1985  1.5515
35533SOL    HW2 9042   9.821   5.968   5.101 -0.7650 -1.6097 -0.0582
35534SOL     OW 9043   9.838   7.120   0.488  0.7254  0.0409 -0.0244
35534SOL    HW1 9044   9.793   7.037   0.505  1.2980 -0.5399 -1.2461
35534SOL    HW2 9045   9.788   7.184   0.539 -0.3853 -0.8708  0.0914
35535SOL     OW 9046   5.888   7.778   6.459 -0.3307 -0.5745 -0.0884
35535SOL    HW1 9047   5.889   7.828   6.541 -1.5449  0.0542 -0.4216
35535SOL    HW2 9048   5.931   7.834   6.395 -1.2021 -0.1528 -0.3329
35536SOL     OW 9049   5.613   5.647   9.969  0.0378  0.1553 -0.2969
35536SOL    HW1 9050   5.639   5.659  10.060 -1.4756 -0.7485  0.2795
35536SOL    HW2 9051   5.659   5.567   9.941 -1.5958 -1.1210  0.5453
35537SOL     OW 9052   2.517   4.529   0.861 -0.0990 -0.3611 -0.3151
35537SOL    HW1 9053   2.563   4.542   0.778  0.5027  1.5367  0.2692
35537SOL    HW2 9054   2.581   4.553   0.928 -0.8461 -1.0482  0.6836
35538SOL     OW 9055   9.521   7.579   6.102  0.0693 -0.0292 -0.4039
35538SOL    HW1 9056   9.486   7.552   6.017 -0.8849 -0.9795  0.2695
35538SOL    HW2 9057   9.463   7.649   6.132  1.3834  1.5079 -1.2465
35539SOL     OW 9058   8.618   7.520   1.655 -0.6954  0.1384 -0.1346
35539SOL    HW1 9059   8.554   7.455   1.625  0.4304 -1.2144  0.2891
35539SOL    HW2 9060   8.700   7.471   1.663  0.5024  1.9053 -1.0119
35540SOL     OW 9061   3.256  10.029   5.217  0.0374  0.0613  0.2802
35540SOL    HW1 9062   3.264  10.123   5.201 -2.5299  0.1000 -1.2764
35540SOL    HW2 9063   3.214   9.995   5.138 -3.6446 -1.5538  2.6711
35541SOL     OW 9064   8.623   9.923   9.120  0.1539  0.0018  0.3436
35541SOL    HW1 9065   8.599   9.963   9.037  0.4148 -1.0662 -0.2518
35541SOL    HW2 9066   8.694   9.978   9.153  2.3642 -1.4063 -1.7408
35542SOL     OW 9067   7.500  10.050   2.945 -0.4855  0.0325 -1.3548
35542SOL    HW1 9068   7.489  10.136   2.984 -0.8414 -1.2914  1.7904
35542SOL    HW2 9069   7.558  10.003   3.005 -0.7121 -2.1089 -2.6655
35543SOL     OW 9070   7.037   1.164   1.031  0.5244 -0.2102  0.0658
35543SOL    HW1 9071   7.019   1.175   1.124  0.7354  0.8159  0.0057
35543SOL    HW2 9072   7.058   1.072   1.020 -1.3127 -0.7452  0.7186
35544SOL     OW 9073   9.974   2.020   8.986  0.1513 -0.1379 -0.5318
35544SOL    HW1 9074  10.026   2.073   9.046  0.4044  1.4083 -2.0345
35544SOL    HW2 9075  10.036   1.955   8.952  0.3707 -0.1028 -0.2023
35545SOL     OW 9076   0.397   8.168   5.147 -0.1981 -0.5582  0.1129
35545SOL    HW1 9077   0.421   8.199   5.060  0.3823  1.4066  0.9050
35545SOL    HW2 9078   0.376   8.248   5.195 -0.1368 -1.5618  1.8876
35546SOL     OW 9079   0.133   2.077   0.565 -0.2672 -0.1932 -0.2522
35546SOL    HW1 9080   0.216   2.030   0.562  0.9759  1.8660  0.1929
35546SOL    HW2 9081   0.099   2.071   0.476  0.4676 -0.8565 -0.5022
35547SOL     OW 9082   9.042   0.991   9.638  0.0266 -0.3900 -0.5308
35547SOL    HW1 9083   9.079   1.079   9.624  0.3040 -0.3051  0.6542
35547SOL    HW2 9084   8.952   1.007   9.665  0.1234 -0.4649 -0.1658
35548SOL     OW 9085   8.466   5.642   4.175  0.7074 -0.7534  0.1315
35548SOL    HW1 9086   8.404   5.650   4.247  1.4290  1.2613  0.6082
35548SOL    HW2 9087   8.548   5.617   4.218  0.6831 -1.5261 -0.2593
35549SOL     OW 9088   3.634   2.149   5.250  0.8515  0.3077 -0.1623
35549SOL    HW1 9089   3.657   2.237   5.280  1.6754  0.0866 -0.1187
35549SOL    HW2 9090   3.619   2.160   5.156  0.4638  0.5865 -0.0697
35550SOL     OW 9091   0.641   9.048   9.672 -0.5967  0.0090 -0.3471
35550SOL    HW1 9092   0.603   9.131   9.698 -1.8435 -0.4775 -0.5320
35550SOL    HW2 9093   0.658   9.002   9.754 -0.6331  0.1348 -0.2696
35551SOL     OW 9094   3.630   6.715   5.791 -0.0415  0.2073 -0.6687
35551SOL    HW1 9095   3.575   6.661   5.734  0.3098 -2.2177  1.1151
35551SOL    HW2 9096   3.710   6.730   5.740  0.3566 -2.0754 -0.8191
35552SOL     OW 9097   0.672   7.938   1.757 -0.1746  0.1587 -0.4661
35552SOL    HW1 9098   0.586   7.904   1.731 -0.3031 -1.2991  1.6219
35552SOL    HW2 9099   0.664   8.033   1.747 -1.7085 -0.0092 -1.1792
35553SOL     OW 9100   0.851   8.517   1.695  0.3246 -0.4929  0.4186
35553SOL    HW1 9101   0.898   8.435   1.680 -1.4596 -1.7699  1.4778
35553SOL    HW2 9102   0.784   8.495   1.759  1.0054  2.2638  2.2602
35554SOL     OW 9103   3.760   4.078   6.913 -0.0666  0.3806  0.3527
35554SOL    HW1 9104   3.698   4.007   6.897 -0.4749  0.9677 -0.7727
35554SOL    HW2 9105   3.846   4.037   6.904 -0.2977  0.0584 -0.4883
35555SOL     OW 9106   3.588   8.710   6.643  0.1814 -0.0418 -0.0319
35555SOL    HW1 9107   3.519   8.776   6.633 -0.2136 -0.5904 -1.1336
35555SOL    HW2 9108   3.667   8.760   6.664 -0.4826  0.6222  0.9866
35556SOL     OW 9109   2.206   2.598   1.911  0.4668  0.9434  0.1359
35556SOL    HW1 9110   2.239   2.620   1.998  3.2366  0.3175 -0.6623
35556SOL    HW2 9111   2.149   2.522   1.926  2.8057 -0.7249  1.2359
35557SOL     OW 9112   3.588   1.269   4.263 -0.0073  0.2299  0.2275
35557SOL    HW1 9113   3.522   1.201   4.248  1.4909 -1.3811  0.5726
35557SOL    HW2 9114   3.564   1.339   4.203 -2.0661 -0.2606  0.4035
35558SOL     OW 9115   3.962   8.840   1.639  0.0117 -0.0384 -0.4943
35558SOL    HW1 9116   4.022   8.867   1.569  0.9526 -0.5462  0.0831
35558SOL    HW2 9117   3.939   8.749   1.617 -0.4945  0.1328 -0.6765
35559SOL     OW 9118   6.087  10.025   4.925  0.1143  0.0606  0.4948
35559SOL    HW1 9119   6.014   9.986   4.876  0.3283  0.4871 -0.1884
35559SOL    HW2 9120   6.088   9.979   5.008 -1.2826  0.4322  0.7328
35560SOL     OW 9121   9.132   6.689   7.899  0.2685 -0.5168  0.2788
35560SOL    HW1 9122   9.078   6.707   7.822  0.1712  1.8490  0.8139
35560SOL    HW2 9123   9.100   6.751   7.966  1.4015 -1.4040  1.7041
35561SOL     OW 9124   3.612   7.007   5.751  0.0368  0.1568 -0.2211
35561SOL    HW1 9125   3.618   6.929   5.806 -2.1649 -0.7869 -1.1993
35561SOL    HW2 9126   3.580   7.075   5.810  0.2166 -0.1529  0.2405
35562SOL     OW 9127   1.720   0.454   5.726  0.4284 -0.3745 -0.4165
35562SOL    HW1 9128   1.702   0.390   5.795  1.2671  1.0725  1.2316
35562SOL    HW2 9129   1.756   0.530   5.773 -0.0292  1.1033 -2.3352
35563SOL     OW 9130   0.157   8.781   0.850 -0.1904 -0.4778 -0.2511
35563SOL    HW1 9131   0.062   8.789   0.852 -0.5004 -3.2113 -0.6678
35563SOL    HW2 9132   0.174   8.691   0.879  2.2447 -0.1893 -0.5853
35564SOL     OW 9133  10.199   6.860   7.823  0.3872  0.3194 -0.6497
35564SOL    HW1 9134  10.260   6.930   7.847 -0.2289  0.2225  1.3507
35564SOL    HW2 9135  10.120   6.907   7.795  0.5186  0.4184 -0.8661
35565SOL     OW 9136   0.399   2.522   1.053 -0.3077  0.0611 -0.3459
35565SOL    HW1 9137   0.452   2.548   1.128 -3.4811  0.5368  1.9310
35565SOL    HW2 9138   0.407   2.427   1.049 -1.0047 -0.0849  1.3535
35566SOL     OW 9139   3.516   7.718   7.565  0.1067 -0.1214  0.3056
35566SOL    HW1 9140   3.577   7.664   7.615  0.1434  0.4348  0.8741
35566SOL    HW2 9141   3.462   7.655   7.517 -0.2511 -0.6833  1.4234
35567SOL     OW 9142   0.648   6.340   1.914 -0.1432  0.1686 -0.1670
35567SOL    HW1 9143   0.646   6.391   1.995 -0.7695 -1.3706  0.8278
35567SOL    HW2 9144   0.598   6.393   1.851  0.3359  1.3700  0.4265
35568SOL     OW 9145   2.831   3.670   0.075  0.3490 -0.1545 -0.0790
35568SOL    HW1 9146   2.782   3.633   0.148 -0.4458  1.4168  0.2092
35568SOL    HW2 9147   2.770   3.730   0.033  0.7332 -1.1343 -2.1656
35569SOL     OW 9148   1.098   1.034   2.642  0.0172 -0.0479 -0.1883
35569SOL    HW1 9149   1.138   1.059   2.558 -0.7743  2.9269  0.1785
35569SOL    HW2 9150   1.172   1.029   2.703  0.2586  2.0852 -0.2188
35570SOL     OW 9151   4.658   6.946   5.791 -0.1580  0.0616  0.5218
35570SOL    HW1 9152   4.673   6.856   5.762 -0.2520 -0.2098  1.2899
35570SOL    HW2 9153   4.643   6.939   5.885 -3.0131  0.5306  0.1991
35571SOL     OW 9154  10.446   2.084   0.748  0.3073  0.2401 -0.5055
35571SOL    HW1 9155  10.512   2.080   0.679  1.8162 -1.4935  0.9221
35571SOL    HW2 9156  10.365   2.106   0.703  1.6090  1.2914 -2.5022
35572SOL     OW 9157   1.789   0.679   6.629 -0.1907 -0.3460 -0.3707
35572SOL    HW1 9158   1.732   0.625   6.684 -0.2223 -0.3991 -0.4564
35572SOL    HW2 9159   1.770   0.769   6.656  1.5643 -0.4562  1.4966
35573SOL     OW 9160   3.020   1.366   7.129  0.2150 -0.1501 -0.1735
35573SOL    HW1 9161   3.060   1.429   7.069  0.8720  0.5861  1.0049
35573SOL    HW2 9162   3.042   1.398   7.216 -1.5425 -0.6571  0.5030
35574SOL     OW 9163   7.085   4.283   2.008 -0.2709 -0.3174  0.0633
35574SOL    HW1 9164   6.998   4.258   2.037 -1.1396  1.0255 -1.2475
35574SOL    HW2 9165   7.102   4.367   2.052  0.1927 -0.3679 -0.0125
35575SOL     OW 9166   4.418   8.984   0.019  0.0391  0.0468  0.0210
35575SOL    HW1 9167   4.428   9.014  -0.072  0.4891  0.8502  0.3272
35575SOL    HW2 9168   4.452   9.056   0.072 -2.0384  0.4348  0.9236
35576SOL     OW 9169   0.130   0.508   4.000  0.0407  0.1141  0.5531
35576SOL    HW1 9170   0.039   0.507   4.029 -1.3109 -1.5481 -3.1654
35576SOL    HW2 9171   0.147   0.599   3.977 -1.0324  0.2840  0.3709
35577SOL     OW 9172   9.936   7.640   5.184 -0.0088 -0.4789 -0.0349
35577SOL    HW1 9173   9.917   7.708   5.119 -0.4803 -1.0221 -0.4749
35577SOL    HW2 9174  10.007   7.677   5.237  0.2007  0.0854 -0.6901
35578SOL     OW 9175   0.509   2.124   5.804 -0.4331 -0.5007 -0.2625
35578SOL    HW1 9176   0.588   2.091   5.847 -1.1570 -0.6318  1.0195
35578SOL    HW2 9177   0.443   2.128   5.874 -1.1907  0.8837 -1.0056
35579SOL     OW 9178   9.782  10.240   4.774  0.4567  0.1622 -0.0406
35579SOL    HW1 9179   9.861  10.281   4.808  1.2587 -1.1052 -0.2930
35579SOL    HW2 9180   9.809  10.204   4.689 -0.8706  1.2247 -0.9535
35580SOL     OW 9181   1.138   8.066   3.978 -0.5752 -0.2297 -0.3508
35580SOL    HW1 9182   1.166   8.009   4.050 -0.4030  0.2142 -0.0686
35580SOL    HW2 9183   1.215   8.072   3.921 -0.1456  0.8393  0.3289
35581SOL     OW 9184   8.803   9.934   3.519 -0.4851  0.4339 -0.0006
35581SOL    HW1 9185   8.800   9.993   3.594 -0.9175  1.4814 -0.8196
35581SOL    HW2 9186   8.850   9.857   3.551 -0.1804  1.0880  1.1771
35582SOL     OW 9187   8.739   6.715   7.998 -0.2488 -0.3118 -0.1449
35582SOL    HW1 9188   8.758   6.652   7.928 -2.8288 -2.3709  0.8447
35582SOL    HW2 9189   8.776   6.676   8.076  1.0225  1.1068  0.0205
35583SOL     OW 9190   8.038   8.561   5.863  0.0493 -0.1329 -0.4330
35583SOL    HW1 9191   8.059   8.470   5.882  0.1635  0.2632  1.4570
35583SOL    HW2 9192   8.022   8.601   5.948 -0.8739  1.4174 -1.2783
35584SOL     OW 9193   9.380   5.942   8.554  0.1987  0.4555  0.6931
35584SOL    HW1 9194   9.330   6.022   8.573 -0.6068 -0.4046  2.3856
35584SOL    HW2 9195   9.428   5.963   8.474  0.7956  2.9970  1.6181
35585SOL     OW 9196   3.081   9.858   0.054 -0.4970  0.0666  0.3092
35585SOL    HW1 9197   3.152   9.921   0.041  0.7704 -1.1802  0.8346
35585SOL    HW2 9198   3.117   9.794   0.116 -2.2212 -0.4197  0.8655
35586SOL     OW 9199   6.001   8.002   4.568  0.5891 -0.2145 -0.2166
35586SOL    HW1 9200   6.037   8.040   4.488  0.5171  0.9685  0.3020
35586SOL    HW2 9201   5.994   8.075   4.629 -2.0972 -0.4878 -0.0686
35587SOL     OW 9202   0.380   6.859   3.616 -0.7084 -0.3347  0.1452
35587SOL    HW1 9203   0.375   6.917   3.692  0.3101  1.3084 -0.9962
35587SOL    HW2 9204   0.446   6.898   3.559 -1.6933 -1.3210 -1.7828
35588SOL     OW 9205   4.698  10.325  10.481  0.4634 -0.0566  0.4441
35588SOL    HW1 9206   4.637  10.269  10.530  0.4741  0.1855  0.7351
35588SOL    HW2 9207   4.765  10.264  10.450 -0.5236 -0.5244 -0.8595
35589SOL     OW 9208   3.984   5.335   1.802  0.7183  0.1671 -0.1338
35589SOL    HW1 9209   3.992   5.420   1.847  3.2757 -0.3287  0.5224
35589SOL    HW2 9210   4.019   5.272   1.865 -0.5878 -1.3321 -0.8407
35590SOL     OW 9211   7.711  10.156   1.504 -0.4501 -0.3191  0.2742
35590SOL    HW1 9212   7.623  10.176   1.538 -0.3223 -0.8215  0.9263
35590SOL    HW2 9213   7.766  10.152   1.582  0.1795  0.1011 -0.1429
35591SOL     OW 9214   1.593   2.164   7.036  0.3264 -0.3239 -0.3631
35591SOL    HW1 9215   1.584   2.255   7.010  0.3087 -0.0990  0.4208
35591SOL    HW2 9216   1.522   2.119   6.989  0.9040 -0.1100 -1.4901
35592SOL     OW 9217   5.445   0.376   7.004 -0.0401  0.9606 -0.4732
35592SOL    HW1 9218   5.408   0.317   6.938 -2.4634  2.4924 -0.6361
35592SOL    HW2 9219   5.433   0.329   7.087  0.2158  0.2844 -0.8092
35593SOL     OW 9220   3.844   5.419   8.708  0.4115 -0.0629  0.5040
35593SOL    HW1 9221   3.750   5.424   8.694  0.4943 -0.1994 -0.1570
35593SOL    HW2 9222   3.860   5.328   8.733  0.4172 -0.1486  0.1931
35594SOL     OW 9223   0.686   0.872   8.962  0.5405  0.2170  0.2692
35594SOL    HW1 9224   0.633   0.895   8.886  1.7242 -0.0256 -0.6731
35594SOL    HW2 9225   0.623   0.860   9.033 -0.4155  2.7444 -0.0620
35595SOL     OW 9226   7.716   9.872   5.233 -0.7599 -0.1047  0.0951
35595SOL    HW1 9227   7.729   9.777   5.237 -1.0459 -0.0978  2.0292
35595SOL    HW2 9228   7.743   9.903   5.319  1.2081  1.8444 -1.1480
35596SOL     OW 9229   9.825   5.621   0.208  0.3560 -0.2842  0.1920
35596SOL    HW1 9230   9.859   5.532   0.209 -0.2688 -0.5629  2.6284
35596SOL    HW2 9231   9.776   5.627   0.126  1.9205 -1.5250 -0.9132
35597SOL     OW 9232   9.296   9.750   5.173 -0.5887 -0.1717 -0.6500
35597SOL    HW1 9233   9.277   9.780   5.262 -0.0774  1.5859 -1.0828
35597SOL    HW2 9234   9.342   9.824   5.133 -2.3848 -0.1833 -2.9466
35598SOL     OW 9235   0.491   3.780   5.611 -0.2628  0.3102 -0.8308
35598SOL    HW1 9236   0.439   3.700   5.619  0.0578  0.2271  0.5866
35598SOL    HW2 9237   0.581   3.750   5.599 -0.0269  0.4271  0.4844
35599SOL     OW 9238   9.538   5.375   4.552 -0.5821 -0.3909  0.0562
35599SOL    HW1 9239   9.624   5.344   4.526 -0.1804 -0.1270  1.0107
35599SOL    HW2 9240   9.494   5.298   4.588 -0.6608 -0.4801 -0.2356
35600SOL     OW 9241   2.839   0.221  10.159  0.0615  0.0351  0.7569
35600SOL    HW1 9242   2.894   0.295  10.186 -0.4646  0.4736  0.6595
35600SOL    HW2 9243   2.866   0.149  10.215  0.8703  0.1860  0.5756
35601SOL     OW 9244   5.144   7.278   8.560  0.2226 -0.3635  0.1322
35601SOL    HW1 9245   5.234   7.295   8.535 -0.2113 -0.4396 -1.6231
35601SOL    HW2 9246   5.121   7.351   8.617  0.2779  1.7745 -2.3948
35602SOL     OW 9247   8.900   6.635  10.340 -0.8910  0.9027 -0.2291
35602SOL    HW1 9248   8.973   6.634  10.402  1.7778 -0.2287 -3.1611
35602SOL    HW2 9249   8.841   6.566  10.371  1.6107 -1.3705 -0.2356
35603SOL     OW 9250   4.337   6.934   9.858 -0.1674 -0.1863  0.1557
35603SOL    HW1 9251   4.254   6.935   9.906 -0.7176 -0.1237 -0.7580
35603SOL    HW2 9252   4.324   6.999   9.788  0.1493 -1.1371 -0.8118
35604SOL     OW 9253   5.109   9.122   3.862 -0.5109  0.1937  0.7314
35604SOL    HW1 9254   5.071   9.060   3.925  1.2607 -0.9275  0.7596
35604SOL    HW2 9255   5.181   9.073   3.821  0.9551  2.2205  0.7536
35605SOL     OW 9256   1.707   9.918   2.194 -0.1065  0.1332  0.0686
35605SOL    HW1 9257   1.802   9.931   2.195 -0.0859  0.0661 -0.5558
35605SOL    HW2 9258   1.680   9.931   2.285  0.6206 -0.8070  0.4287
35606SOL     OW 9259   2.298  10.211  10.469  0.4013  0.5769 -0.0076
35606SOL    HW1 9260   2.238  10.136  10.472  1.2888 -0.1156  1.4448
35606SOL    HW2 9261   2.351  10.196  10.391  1.6886 -1.2570  1.1424
35607SOL     OW 9262   2.144   0.355   5.127 -0.3250  0.0588 -0.0744
35607SOL    HW1 9263   2.098   0.371   5.209 -0.4667  0.6555 -0.2637
35607SOL    HW2 9264   2.206   0.428   5.119 -1.6902  1.1309 -1.4603
35608SOL     OW 9265   8.010   0.009   8.606 -0.0783 -0.1690  0.4603
35608SOL    HW1 9266   7.927   0.025   8.560 -0.4145 -0.8980  0.8049
35608SOL    HW2 9267   7.996   0.044   8.694 -0.1808 -0.7069  0.6594
35609SOL     OW 9268   5.379   0.254   3.890  0.7329  0.3635  0.0743
35609SOL    HW1 9269   5.346   0.230   3.977 -0.3280 -0.7894 -0.6220
35609SOL    HW2 9270   5.472   0.270   3.904  0.8796 -1.2315  1.1633
35610SOL     OW 9271   6.966   3.524   3.518 -0.4276 -0.6029 -0.7307
35610SOL    HW1 9272   6.895   3.464   3.542 -0.3521 -0.9467 -1.3541
35610SOL    HW2 9273   7.045   3.480   3.548 -0.5212  0.3245  1.0852
35611SOL     OW 9274   6.188   0.908   2.547 -0.2449  0.0461 -0.3297
35611SOL    HW1 9275   6.148   0.990   2.519 -0.4722 -0.2700 -0.9386
35611SOL    HW2 9276   6.204   0.860   2.466 -0.3715 -0.6299  0.0382
35612SOL     OW 9277   8.309   8.100   8.702  0.3250  0.0580  0.1069
35612SOL    HW1 9278   8.296   8.108   8.797  0.9093 -0.7945  0.2690
35612SOL    HW2 9279   8.233   8.052   8.671  0.1280  0.3456  0.1447
35613SOL     OW 9280   8.190  10.325   6.426 -0.1202 -0.0110 -0.3704
35613SOL    HW1 9281   8.155  10.260   6.488  0.0085 -2.3894 -2.6340
35613SOL    HW2 9282   8.258  10.278   6.379  1.9157  2.6603 -0.3049
35614SOL     OW 9283   7.197   4.115   3.195 -0.2766 -0.3074  0.2018
35614SOL    HW1 9284   7.135   4.173   3.241 -1.2000 -3.4766  3.4554
35614SOL    HW2 9285   7.282   4.133   3.237  0.1088  0.7798 -0.9904
35615SOL     OW 9286   9.159   3.713   0.785  0.0371  0.4226  0.2207
35615SOL    HW1 9287   9.150   3.743   0.876 -4.0862  0.4274  0.0068
35615SOL    HW2 9288   9.140   3.790   0.732 -1.4934 -0.4218 -0.5148
35616SOL     OW 9289   9.666   6.557   5.366 -0.2571 -0.2890  0.1340
35616SOL    HW1 9290   9.627   6.607   5.438  0.1769 -2.9896  2.4374
35616SOL    HW2 9291   9.616   6.476   5.363  0.5062 -0.7459 -1.8727
35617SOL     OW 9292   0.550   8.864   7.150 -0.1411 -0.1594  0.0598
35617SOL    HW1 9293   0.500   8.911   7.085 -0.1060  1.1611  0.9496
35617SOL    HW2 9294   0.532   8.910   7.232  1.1456 -0.7314  0.6905
35618SOL     OW 9295   9.699   2.162   7.303 -0.1067  0.1024 -0.5964
35618SOL    HW1 9296   9.770   2.226   7.315  0.1194 -0.1617 -0.4999
35618SOL    HW2 9297   9.738   2.079   7.331 -0.4952 -0.0229 -0.4320
35619SOL     OW 9298   0.756   2.307   6.005  0.1715 -0.7085 -0.1523
35619SOL    HW1 9299   0.798   2.368   6.066  0.2955 -1.3069  0.3731
35619SOL    HW2 9300   0.825   2.282   5.944  0.3094 -0.8795  0.0731
35620SOL     OW 9301   6.611   8.836   4.757 -0.6499 -0.5078  0.8672
35620SOL    HW1 9302   6.529   8.803   4.793 -1.1266 -2.6251 -1.7827
35620SOL    HW2 9303   6.667   8.758   4.749  1.2168  0.6908  1.5361
35621SOL     OW 9304   2.683   6.739   3.044  0.5249 -0.4485 -0.6027
35621SOL    HW1 9305   2.711   6.702   3.127  1.3157  0.1784 -0.5769
35621SOL    HW2 9306   2.621   6.675   3.009 -0.4102 -0.3656  0.8132
35622SOL     OW 9307   7.337   3.527   9.754  0.1594 -0.4407  0.5917
35622SOL    HW1 9308   7.343   3.520   9.659  0.4490  1.4184  0.4339
35622SOL    HW2 9309   7.427   3.543   9.783 -0.2332  1.3579  0.9178
35623SOL     OW 9310   5.785   2.693   8.416  0.1745  0.1158  0.0296
35623SOL    HW1 9311   5.856   2.757   8.411  0.9798 -0.7747 -0.2508
35623SOL    HW2 9312   5.755   2.683   8.326 -0.6530  0.8408  0.2079
35624SOL     OW 9313   5.026   4.337  10.460  0.3683  0.2633  0.0936
35624SOL    HW1 9314   4.965   4.403  10.492 -0.1959 -1.1327  2.1012
35624SOL    HW2 9315   5.111   4.366  10.493  0.3357  0.6558 -0.1573
35625SOL     OW 9316   4.006   1.831   1.268 -0.6696  0.0339  0.0030
35625SOL    HW1 9317   3.968   1.843   1.181  0.0577 -0.4118 -0.3826
35625SOL    HW2 9318   3.955   1.759   1.307 -2.2730  1.4793  0.7162
35626SOL     OW 9319   4.342   8.888   4.948 -0.4951 -0.5587 -0.4748
35626SOL    HW1 9320   4.382   8.819   4.894  0.7080  0.1955 -0.5895
35626SOL    HW2 9321   4.281   8.931   4.889 -1.9271 -2.0539 -0.1539
35627SOL     OW 9322   9.694   2.911   3.076  0.7363 -0.4787  0.5581
35627SOL    HW1 9323   9.659   2.975   3.138 -0.6351 -1.2335  0.6013
35627SOL    HW2 9324   9.678   2.951   2.990  1.7450  0.1258  0.6322
35628SOL     OW 9325   7.241   7.381   4.351  0.1461 -0.1070  0.8263
35628SOL    HW1 9326   7.150   7.354   4.355  0.5678 -1.6859  0.3313
35628SOL    HW2 9327   7.259   7.394   4.258  0.7490 -1.0591  0.7934
35629SOL     OW 9328   9.559   5.000   4.101 -0.0851  0.6117 -0.2804
35629SOL    HW1 9329   9.553   4.934   4.032  0.6872 -1.0797  1.1711
35629SOL    HW2 9330   9.495   4.972   4.166 -0.4710  1.9018 -0.0954
35630SOL     OW 9331   3.278   0.500   1.295 -0.0401  0.3110  0.3777
35630SOL    HW1 9332   3.279   0.591   1.265 -0.3344  1.0599  2.5043
35630SOL    HW2 9333   3.223   0.454   1.231 -1.9205  2.1424  0.5614
35631SOL     OW 9334   5.252   6.993   7.049  0.3925 -0.3432 -0.1908
35631SOL    HW1 9335   5.184   6.999   7.115  1.8997 -0.4755  1.4576
35631SOL    HW2 9336   5.205   6.984   6.966 -1.5592 -0.3986  0.8703
35632SOL     OW 9337   0.271   8.514   9.415 -0.1647 -0.3942  0.2982
35632SOL    HW1 9338   0.197   8.574   9.410 -0.0985 -0.4092 -1.0418
35632SOL    HW2 9339   0.232   8.429   9.436 -0.4478 -0.2691  0.2817
35633SOL     OW 9340   9.294   0.231   0.782  1.0496 -0.7115  0.6639
35633SOL    HW1 9341   9.274   0.322   0.805 -1.9038 -0.3583 -2.4736
35633SOL    HW2 9342   9.277   0.182   0.863 -1.7528  1.0870  1.3110
35634SOL     OW 9343   2.694   4.713   2.704 -0.2711 -0.0968 -0.3649
35634SOL    HW1 9344   2.613   4.760   2.687 -0.1320  0.6202  0.9053
35634SOL    HW2 9345   2.717   4.733   2.794  1.2513 -0.3944 -0.6433
35635SOL     OW 9346   9.770   2.630   0.018 -0.2934  1.0963  0.4137
35635SOL    HW1 9347   9.675   2.620   0.028 -0.3878  1.2284 -0.3338
35635SOL    HW2 9348   9.782   2.719  -0.016  0.0156  0.6936 -0.5745
35636SOL     OW 9349   6.546   5.739   0.858  0.1537 -0.0583 -0.5925
35636SOL    HW1 9350   6.461   5.702   0.880  0.3265 -0.6457 -0.8891
35636SOL    HW2 9351   6.533   5.834   0.862 -0.2278 -0.1381  0.4330
35637SOL     OW 9352   7.774   8.722   2.008  0.3507  0.1666 -0.0754
35637SOL    HW1 9353   7.765   8.640   1.961  0.9867  0.6955 -1.1764
35637SOL    HW2 9354   7.686   8.759   2.010  0.3950  0.4435 -1.5066
35638SOL     OW 9355   1.388   6.435  10.295  0.7294  0.2696  0.3188
35638SOL    HW1 9356   1.440   6.357  10.277  0.7746  0.0705  1.2729
35638SOL    HW2 9357   1.338   6.449  10.215  1.3485 -0.2409 -0.1699
35639SOL     OW 9358   8.155   7.905   1.096 -0.1836  0.1066 -0.0950
35639SOL    HW1 9359   8.229   7.957   1.064 -0.8909  0.7829 -0.6752
35639SOL    HW2 9360   8.101   7.968   1.145 -0.5014 -0.3252  0.1195
35640SOL     OW 9361   0.767   1.161   2.285  0.1893  0.1097  0.0081
35640SOL    HW1 9362   0.840   1.219   2.263  0.1915  1.0281  2.1564
35640SOL    HW2 9363   0.806   1.074   2.291  0.9149  0.4348  0.1574
35641SOL     OW 9364   5.546   0.380   6.316  0.0994 -0.1502 -0.1714
35641SOL    HW1 9365   5.487   0.425   6.376 -0.9837 -0.4096 -1.0090
35641SOL    HW2 9366   5.628   0.373   6.364  0.0029  1.8109  0.3518
35642SOL     OW 9367   6.729   1.654   7.355  0.3445 -0.0235 -0.3290
35642SOL    HW1 9368   6.729   1.621   7.265  1.8406 -1.1187  0.0391
35642SOL    HW2 9369   6.704   1.746   7.347 -0.4640 -0.3456 -1.7575
35643SOL     OW 9370   1.523   4.821   9.301  0.2097  0.1721  0.5348
35643SOL    HW1 9371   1.504   4.779   9.217 -0.0674  0.3871  0.4931
35643SOL    HW2 9372   1.618   4.837   9.298  0.0266  1.1912 -0.1989
35644SOL     OW 9373   3.319   2.968   7.665 -0.2192 -0.0418  0.0857
35644SOL    HW1 9374   3.310   3.010   7.751 -0.7352  0.2432 -0.0981
35644SOL    HW2 9375   3.365   3.033   7.611 -0.0004 -0.1723  0.1161
35645SOL     OW 9376   8.597   7.441   7.718 -0.3101  0.2368  0.6560
35645SOL    HW1 9377   8.587   7.371   7.654 -0.8022  1.1107 -0.2420
35645SOL    HW2 9378   8.507   7.460   7.747 -0.3429  1.4695 -0.1837
35646SOL     OW 9379  10.186   7.323   9.003 -0.0851  0.3420 -0.0709
35646SOL    HW1 9380  10.118   7.255   9.002 -0.2431  0.4609  1.2690
35646SOL    HW2 9381  10.215   7.328   8.912 -0.9497 -0.6366 -0.4279
35647SOL     OW 9382   2.020   2.188   8.149  0.9496  0.3039  0.1960
35647SOL    HW1 9383   1.993   2.118   8.089 -0.0029  0.2249  0.6978
35647SOL    HW2 9384   1.949   2.252   8.143  1.6472  1.0744  0.0060
35648SOL     OW 9385   2.857   1.553   0.383  0.4123  0.3823  0.1245
35648SOL    HW1 9386   2.848   1.573   0.476 -0.5901  0.0746  0.1056
35648SOL    HW2 9387   2.890   1.463   0.380  0.7150  0.4895  0.1776
35649SOL     OW 9388   9.764   9.839   9.686  0.1956 -0.3344 -0.0214
35649SOL    HW1 9389   9.672   9.854   9.704 -0.4508 -3.8588  0.4367
35649SOL    HW2 9390   9.767   9.817   9.593  0.9119  1.4606 -0.4629
35650SOL     OW 9391   9.631  10.376   5.523 -0.6819 -0.6110 -0.2866
35650SOL    HW1 9392   9.682  10.392   5.444  0.1358  1.5553  0.6061
35650SOL    HW2 9393   9.626  10.280   5.530  0.0491 -0.8437 -2.3988
35651SOL     OW 9394   1.060   2.846   4.515 -0.8607  0.5237  0.0895
35651SOL    HW1 9395   0.968   2.823   4.522 -0.7034  0.2932  1.8459
35651SOL    HW2 9396   1.105   2.761   4.505 -0.7351  0.5317  0.5924
35652SOL     OW 9397   1.227  10.406   1.692  0.6999  0.4788  0.3759
35652SOL    HW1 9398   1.292  10.469   1.722  0.3962  1.9175 -1.7869
35652SOL    HW2 9399   1.278  10.338   1.649  1.0341 -0.8982  2.7761
35653SOL     OW 9400   1.715   4.143  10.218 -0.3835 -0.0412 -0.3104
35653SOL    HW1 9401   1.639   4.187  10.179 -1.1224  0.4410  1.5435
35653SOL    HW2 9402   1.691   4.050  10.219 -0.8898  0.0863  0.0813
35654SOL     OW 9403   6.446   5.042   7.147  0.2841  0.2217 -0.5184
35654SOL    HW1 9404   6.355   5.015   7.143  0.8448 -2.3589  1.4884
35654SOL    HW2 9405   6.450   5.102   7.222  0.3837 -0.4968  0.0624
35655SOL     OW 9406   2.243   0.670   2.907  0.7109  0.1211 -0.3946
35655SOL    HW1 9407   2.225   0.587   2.950 -1.6436  0.7026 -0.1045
35655SOL    HW2 9408   2.189   0.668   2.828  0.3152  1.5111 -0.1800
35656SOL     OW 9409   0.790   9.642   3.187  0.0139  0.7388  0.3460
35656SOL    HW1 9410   0.788   9.647   3.282 -0.5714 -0.4645  0.4060
35656SOL    HW2 9411   0.843   9.565   3.167 -0.3092  0.6700 -0.2885
35657SOL     OW 9412   3.808  10.051   3.470  0.1606  0.3316  0.7856
35657SOL    HW1 9413   3.896  10.026   3.498  1.5350  2.7644 -0.9478
35657SOL    HW2 9414   3.820  10.135   3.425 -2.4607 -0.9772 -2.8282
35658SOL     OW 9415   0.992   8.558   2.045 -0.0673  0.4181 -0.4982
35658SOL    HW1 9416   1.069   8.614   2.039 -0.5912  1.0362 -1.6903
35658SOL    HW2 9417   0.918   8.618   2.044 -0.6065 -0.2218 -0.3229
35659SOL     OW 9418   2.134   6.708   3.363  0.1773  0.5110 -0.1044
35659SOL    HW1 9419   2.075   6.710   3.288  1.2389  0.9107 -0.9702
35659SOL    HW2 9420   2.222   6.716   3.324  0.7176  1.5160  1.2322
35660SOL     OW 9421   8.939   9.492   8.935 -0.1499 -0.1366  0.1012
35660SOL    HW1 9422   8.927   9.463   8.844 -0.7244 -0.2014  0.1949
35660SOL    HW2 9423   8.961   9.411   8.982  0.1977 -0.0947  0.0168
35661SOL     OW 9424   1.365   2.360   1.350  0.1408  0.1518  0.0351
35661SOL    HW1 9425   1.313   2.322   1.279 -1.0658  0.0625  0.9479
35661SOL    HW2 9426   1.429   2.291   1.371  0.3255  0.0699 -0.7660
35662SOL     OW 9427   0.519   0.331   0.774  0.0131  0.3722  0.1564
35662SOL    HW1 9428   0.605   0.289   0.774 -1.0635 -2.0338  1.6100
35662SOL    HW2 9429   0.481   0.308   0.859 -2.6073  0.1580 -0.9885
35663SOL     OW 9430   6.434   4.373   1.635  0.0142 -0.1384  0.4583
35663SOL    HW1 9431   6.417   4.394   1.727  1.4497  1.1609  0.4625
35663SOL    HW2 9432   6.517   4.416   1.615  1.0756 -2.5473 -0.7466
35664SOL     OW 9433   1.748   0.223   9.210 -0.2632 -0.2526 -0.2789
35664SOL    HW1 9434   1.682   0.260   9.270 -0.4309 -1.3735  0.2567
35664SOL    HW2 9435   1.797   0.299   9.179 -0.8731  0.4630  0.4472
35665SOL     OW 9436   2.410   7.047   6.179 -0.5839  0.5981 -0.3341
35665SOL    HW1 9437   2.366   7.128   6.206 -1.8042 -0.1812  0.0689
35665SOL    HW2 9438   2.435   7.063   6.088 -0.2129  1.6717 -0.0585
35666SOL     OW 9439   3.017   2.646   4.058 -0.1340  0.0473  0.3691
35666SOL    HW1 9440   3.007   2.552   4.042 -2.3455  0.3863 -0.5289
35666SOL    HW2 9441   3.112   2.661   4.053  0.1396 -1.8209 -1.4428
35667SOL     OW 9442   4.177   8.430   2.372  0.6202  0.0128  0.2049
35667SOL    HW1 9443   4.119   8.457   2.443  0.1750 -0.0846 -0.1177
35667SOL    HW2 9444   4.264   8.454   2.402  0.4372 -0.0329  0.7879
35668SOL     OW 9445   8.279   5.877   0.657 -0.7516  0.4954  0.1892
35668SOL    HW1 9446   8.276   5.818   0.582 -0.5132  1.8599 -0.9371
35668SOL    HW2 9447   8.364   5.920   0.649 -0.6535  0.5394  1.3528
35669SOL     OW 9448  10.215   9.244   2.555 -0.3293 -0.3281 -0.3750
35669SOL    HW1 9449  10.266   9.167   2.530 -0.5460 -0.8551  0.7529
35669SOL    HW2 9450  10.217   9.245   2.651  1.4114  2.2355 -0.3319
35670SOL     OW 9451   5.836   2.637   3.532  0.5088 -0.3055 -0.3646
35670SOL    HW1 9452   5.881   2.711   3.572 -3.8712  1.6922  1.5175
35670SOL    HW2 9453   5.807   2.669   3.447 -1.6170  0.4077  0.5572
35671SOL     OW 9454   0.465   2.967   3.689 -0.3253 -0.0118  0.0697
35671SOL    HW1 9455   0.557   2.951   3.712 -0.0437 -0.5700 -1.3268
35671SOL    HW2 9456   0.444   3.049   3.733  0.6790 -0.1512  0.8591
35672SOL     OW 9457   8.685   6.045  10.437 -0.5815 -0.2480  0.1564
35672SOL    HW1 9458   8.777   6.026  10.415 -0.7962  0.3084 -1.3427
35672SOL    HW2 9459   8.690   6.094  10.519  0.2841 -2.3987  1.4731
35673SOL     OW 9460   4.045   8.103   0.577 -0.8254  0.0733  0.4725
35673SOL    HW1 9461   4.110   8.076   0.642 -0.0628  0.9480  0.0937
35673SOL    HW2 9462   3.975   8.143   0.629 -0.4725  0.2767  0.7948
35674SOL     OW 9463   6.852  10.175   8.431 -0.1111  0.5531 -0.2944
35674SOL    HW1 9464   6.907  10.252   8.448  0.7589 -0.3312  1.1129
35674SOL    HW2 9465   6.910  10.114   8.384 -0.3593  0.2169 -0.1703
35675SOL     OW 9466   8.755   9.830   5.973  0.3951 -1.2244 -0.4345
35675SOL    HW1 9467   8.687   9.770   6.005  0.3792 -0.8387  0.2817
35675SOL    HW2 9468   8.707   9.894   5.920  0.1914 -0.9452  0.0814
35676SOL     OW 9469   8.195   6.525   1.760 -0.2567  0.3275 -0.0339
35676SOL    HW1 9470   8.288   6.506   1.747 -0.5283  0.4814 -2.9565
35676SOL    HW2 9471   8.150   6.471   1.694 -2.0318  1.8377 -0.1387
35677SOL     OW 9472   2.834   8.661   3.960 -0.9274 -0.1365 -0.4816
35677SOL    HW1 9473   2.866   8.594   3.900 -0.5052  0.0896 -0.5119
35677SOL    HW2 9474   2.862   8.632   4.047  1.4934  1.2319 -0.7146
35678SOL     OW 9475   8.570   9.565   7.782 -0.1229  0.9393 -0.0308
35678SOL    HW1 9476   8.596   9.620   7.709 -0.1253  1.6506  0.4892
35678SOL    HW2 9477   8.632   9.492   7.782 -1.0259  0.1187 -1.6395
35679SOL     OW 9478   1.597   5.275   3.860 -0.2932  0.6571 -0.3558
35679SOL    HW1 9479   1.612   5.252   3.952  2.9985 -1.8103 -1.3262
35679SOL    HW2 9480   1.641   5.359   3.849  0.7742  0.1703  0.0192
35680SOL     OW 9481   0.217   0.918   2.089 -0.1809 -0.0102  0.1593
35680SOL    HW1 9482   0.245   0.873   2.169  1.0333  0.8838  0.2545
35680SOL    HW2 9483   0.141   0.970   2.117  0.3685  0.4650  0.8060
35681SOL     OW 9484   6.368   0.372   8.683 -0.1561 -0.0704  0.6742
35681SOL    HW1 9485   6.422   0.319   8.625 -0.9703  0.0649 -0.2219
35681SOL    HW2 9486   6.417   0.453   8.695 -0.1991  0.0910 -0.2087
35682SOL     OW 9487   7.454   4.077   0.059  0.4271 -0.3416 -0.1316
35682SOL    HW1 9488   7.406   4.157   0.036  0.8388  0.5496  1.9016
35682SOL    HW2 9489   7.386   4.017   0.090  0.3275 -0.0601  0.2022
35683SOL     OW 9490  10.328   6.404   7.429  0.2113  0.2155 -0.3354
35683SOL    HW1 9491  10.311   6.467   7.500  0.2728 -2.6204  2.4337
35683SOL    HW2 9492  10.241   6.378   7.399 -0.4405 -3.7635  3.9115
35684SOL     OW 9493   6.329   2.323   2.228  0.2502  0.0694  0.2228
35684SOL    HW1 9494   6.421   2.334   2.202  0.2576 -0.3168  0.0851
35684SOL    HW2 9495   6.314   2.394   2.290  0.0572  1.3977 -1.2789
35685SOL     OW 9496   3.884   6.954   0.691 -0.3828 -0.1549  0.1564
35685SOL    HW1 9497   3.976   6.977   0.697 -0.6630  0.7312  1.5570
35685SOL    HW2 9498   3.847   7.016   0.627  0.3044 -1.7373 -1.8923
35686SOL     OW 9499   6.133   6.571   0.668  0.1546 -0.0601 -0.1865
35686SOL    HW1 9500   6.083   6.652   0.676  0.1955 -0.1767  1.5466
35686SOL    HW2 9501   6.219   6.598   0.637  0.0190  0.5017 -0.0715
35687SOL     OW 9502   0.381   7.767   3.674 -0.5599 -0.2246  0.0772
35687SOL    HW1 9503   0.443   7.760   3.746 -1.1383  0.3892  0.6415
35687SOL    HW2 9504   0.326   7.843   3.696 -1.5955 -0.8303 -0.3413
35688SOL     OW 9505   0.060   8.779   7.011 -0.0081  0.6346 -0.3772
35688SOL    HW1 9506  -0.013   8.841   7.018 -1.0618 -0.7503  1.7706
35688SOL    HW2 9507   0.135   8.828   7.046 -0.4602  1.2513 -0.2441
35689SOL     OW 9508   2.285   9.937   6.071  0.3514 -0.4017 -0.4316
35689SOL    HW1 9509   2.361   9.911   6.021  0.9529  3.7465 -2.1077
35689SOL    HW2 9510   2.217   9.955   6.006 -0.0522  1.5908  0.4362
35690SOL     OW 9511   9.394  10.341   1.663  0.2111 -0.3573  0.5297
35690SOL    HW1 9512   9.467  10.401   1.649 -0.9886  1.1961  0.6199
35690SOL    HW2 9513   9.376  10.347   1.756 -0.6797  0.0705  0.3356
35691SOL     OW 9514   5.074   1.461   1.766  0.1072  0.3950 -0.0392
35691SOL    HW1 9515   5.097   1.441   1.675 -0.3496  2.4329 -0.6468
35691SOL    HW2 9516   5.038   1.378   1.800  2.9963 -1.2903 -0.7351
35692SOL     OW 9517   6.481   0.967   3.699 -0.2854  0.3761 -0.4650
35692SOL    HW1 9518   6.452   1.037   3.757 -0.2287  0.4302 -0.5017
35692SOL    HW2 9519   6.512   1.012   3.621 -0.4028  0.3009 -0.5558
35693SOL     OW 9520   3.895   0.812   5.026 -0.0325  0.2674 -0.1436
35693SOL    HW1 9521   3.874   0.834   5.116 -0.2293  0.3536 -0.2086
35693SOL    HW2 9522   3.894   0.717   5.022  0.8697  0.2349  0.1518
35694SOL     OW 9523   0.316   9.871   8.308  0.2948  0.5501 -0.3156
35694SOL    HW1 9524   0.396   9.920   8.295 -0.1692  0.9260 -1.9969
35694SOL    HW2 9525   0.317   9.846   8.401  1.4969  2.0022  0.0861
35695SOL     OW 9526   7.843   0.821   4.246 -0.0876  0.5922 -0.4992
35695SOL    HW1 9527   7.856   0.858   4.158  0.3838  0.8582 -0.3194
35695SOL    HW2 9528   7.847   0.896   4.305  1.7080  0.1737 -0.0490
35696SOL     OW 9529   0.496   3.718   4.754  0.1281  0.7037  0.0865
35696SOL    HW1 9530   0.520   3.693   4.843  1.6672 -0.1550 -0.5194
35696SOL    HW2 9531   0.436   3.650   4.725 -0.3788  0.9871  0.4585
35697SOL     OW 9532   2.463   1.502   5.960 -0.1056  0.1095  0.0240
35697SOL    HW1 9533   2.523   1.530   5.892  0.7064  0.2933  0.7952
35697SOL    HW2 9534   2.390   1.462   5.913  0.4407  0.2210 -0.9427
35698SOL     OW 9535   8.698   9.357   6.405  0.1695  0.4939 -0.2840
35698SOL    HW1 9536   8.711   9.301   6.482  2.8945 -0.0014 -0.9923
35698SOL    HW2 9537   8.603   9.364   6.397 -0.2302 -0.3687  2.4339
35699SOL     OW 9538   3.618   6.152   4.608 -0.0204  0.3766 -0.1089
35699SOL    HW1 9539   3.705   6.115   4.623  0.0251  0.5852  0.1493
35699SOL    HW2 9540   3.584   6.103   4.533  0.4570  0.5261 -0.4300
35700SOL     OW 9541   7.640  10.220   6.236 -0.3049 -0.4448  0.3428
35700SOL    HW1 9542   7.691  10.299   6.256  0.9405 -0.7369 -1.4832
35700SOL    HW2 9543   7.552  10.241   6.267  0.3096  1.1156  1.1668
35701SOL     OW 9544   5.561   8.335   3.074  0.4906  0.0646 -0.1195
35701SOL    HW1 9545   5.592   8.424   3.058  1.2957 -0.2780 -0.4914
35701SOL    HW2 9546   5.517   8.310   2.993  1.1744 -0.2506 -0.3989
35702SOL     OW 9547   0.781   5.270   5.090  0.2214 -0.1134  0.4046
35702SOL    HW1 9548   0.789   5.283   5.184  0.8575 -1.4087  0.5506
35702SOL    HW2 9549   0.859   5.312   5.053  1.6304 -2.2670  0.7630
35703SOL     OW 9550   5.223   7.372   9.556  0.4016 -0.0426 -0.0824
35703SOL    HW1 9551   5.190   7.282   9.558  0.8773 -0.2266 -0.4265
35703SOL    HW2 9552   5.257   7.386   9.644 -1.0126  0.3190  0.4463
35704SOL     OW 9553   1.845  10.476   3.019 -0.6973 -0.2865 -0.6792
35704SOL    HW1 9554   1.827  10.386   2.991 -0.8187 -0.0075 -1.5421
35704SOL    HW2 9555   1.758  10.514   3.034 -0.6590 -0.2291 -0.6034
35705SOL     OW 9556   6.937   2.892   4.567  0.3898  0.1991 -0.1399
35705SOL    HW1 9557   6.894   2.955   4.509 -0.2764  1.1412  1.3203
35705SOL    HW2 9558   6.870   2.826   4.586  0.9358 -0.7126 -1.2656
35706SOL     OW 9559   5.559   7.498   9.108 -0.0986 -0.1150 -0.2566
35706SOL    HW1 9560   5.621   7.427   9.092 -0.4275 -0.7803  1.2799
35706SOL    HW2 9561   5.476   7.453   9.126 -0.7282  0.7250 -0.9407
35707SOL     OW 9562   5.717   7.818   7.497 -0.0431 -0.3057 -0.0832
35707SOL    HW1 9563   5.653   7.797   7.565  0.5614 -0.4724  0.4519
35707SOL    HW2 9564   5.710   7.913   7.486  1.3518  0.0809  1.8159
35708SOL     OW 9565  10.272   6.277   0.214  0.1137 -0.4803 -0.1469
35708SOL    HW1 9566  10.203   6.241   0.158  0.9624 -0.9308 -0.9284
35708SOL    HW2 9567  10.316   6.200   0.250 -0.6925 -0.2021  1.5288
35709SOL     OW 9568   1.819   4.387   2.804 -0.1828  0.2471 -0.4343
35709SOL    HW1 9569   1.754   4.421   2.743 -0.8833 -1.1443 -0.5172
35709SOL    HW2 9570   1.767   4.344   2.872  0.6325  0.2430  0.1992
35710SOL     OW 9571   3.427   2.049   4.335  0.6457  0.3016  0.3170
35710SOL    HW1 9572   3.462   2.076   4.250 -2.5830  0.5373 -1.1078
35710SOL    HW2 9573   3.332   2.042   4.321  0.0964 -0.9119  3.5976
35711SOL     OW 9574   0.036   3.717   1.317  0.0351 -0.2553  0.3862
35711SOL    HW1 9575   0.046   3.778   1.244 -0.3904 -2.1990 -1.3937
35711SOL    HW2 9576  -0.008   3.768   1.386  0.7861  1.7340 -0.5355
35712SOL     OW 9577  10.396   5.304   0.781  0.0698 -0.5033  0.1415
35712SOL    HW1 9578  10.378   5.212   0.797 -0.1876 -0.6795 -1.0153
35712SOL    HW2 9579  10.348   5.351   0.850 -1.1709 -1.1749 -0.2342
35713SOL     OW 9580  10.270   3.323   9.011 -0.1595 -0.1562 -0.5566
35713SOL    HW1 9581  10.239   3.264   9.079 -1.7126 -1.1749 -2.0704
35713SOL    HW2 9582  10.191   3.354   8.967  0.7752 -0.5508 -2.6890
35714SOL     OW 9583   1.632   5.589   9.763  0.1686 -0.5503  0.3853
35714SOL    HW1 9584   1.661   5.499   9.772 -1.8735 -1.3923 -0.7447
35714SOL    HW2 9585   1.605   5.615   9.852 -0.4585 -1.5246  0.4934
35715SOL     OW 9586   5.559   9.061   0.230 -0.3310  0.3958  0.5275
35715SOL    HW1 9587   5.470   9.083   0.257  0.0497  0.0226  2.1914
35715SOL    HW2 9588   5.555   8.967   0.212 -0.1494  0.2404  1.2446
35716SOL     OW 9589   1.206   4.092   7.122 -0.6999  0.0826  0.2837
35716SOL    HW1 9590   1.224   4.021   7.061 -1.9852 -0.8497  0.9478
35716SOL    HW2 9591   1.123   4.130   7.092 -1.6752 -0.7957  1.7688
35717SOL     OW 9592   8.540   6.587   2.606 -0.0886  0.0408 -0.6747
35717SOL    HW1 9593   8.578   6.508   2.646  1.7864  0.0686 -2.2122
35717SOL    HW2 9594   8.493   6.555   2.529 -1.4172  0.2209  0.0442
35718SOL     OW 9595   0.946   5.124   5.375 -0.3976 -0.2858  0.4454
35718SOL    HW1 9596   0.890   5.198   5.351 -0.2188  0.2250  1.5230
35718SOL    HW2 9597   0.887   5.063   5.420 -0.4001 -0.4759  0.1867
35719SOL     OW 9598   5.303   3.433   6.300 -0.0626 -0.8191  0.0021
35719SOL    HW1 9599   5.294   3.390   6.215  1.7046  2.4382 -2.0426
35719SOL    HW2 9600   5.391   3.412   6.329  0.7822  1.1261 -0.9686
35720SOL     OW 9601   7.913   6.141   2.298  0.4475  0.8338  0.1974
35720SOL    HW1 9602   7.930   6.164   2.207 -0.5758 -0.0761 -0.2424
35720SOL    HW2 9603   7.843   6.202   2.325 -0.3376  0.0955 -0.1220
35721SOL     OW 9604   5.026   3.531   5.670  0.0018 -0.4460  0.1334
35721SOL    HW1 9605   4.933   3.539   5.692  0.1168  1.2692  0.1414
35721SOL    HW2 9606   5.045   3.438   5.680 -2.0924 -1.1229 -1.4480
35722SOL     OW 9607  10.055   9.713   4.281 -0.4208  0.2707  0.0712
35722SOL    HW1 9608  10.042   9.807   4.289  0.2389  0.4926 -1.1498
35722SOL    HW2 9609   9.980   9.683   4.230 -1.0723 -0.0260  1.1634
35723SOL     OW 9610   8.825   5.958   0.908 -0.2321 -0.3740  0.0762
35723SOL    HW1 9611   8.895   5.913   0.860  1.1588 -0.2361  1.8439
35723SOL    HW2 9612   8.752   5.896   0.907  0.9149 -1.8068  0.6241
35724SOL     OW 9613   8.980   9.419   8.439  0.2496 -0.0116 -0.4975
35724SOL    HW1 9614   8.943   9.404   8.352  1.3508  1.2892 -1.2489
35724SOL    HW2 9615   9.074   9.431   8.423  0.4549  0.3607  0.8601
35725SOL     OW 9616   9.120   1.568   0.089 -0.1023 -0.6286  0.2152
35725SOL    HW1 9617   9.154   1.513   0.159 -0.1061  1.9752  2.4138
35725SOL    HW2 9618   9.131   1.515   0.010  0.3056 -3.5358  2.0661
35726SOL     OW 9619   8.710   4.526   7.702  0.1993  0.1274 -0.0566
35726SOL    HW1 9620   8.650   4.459   7.736  0.3104  0.3028  0.4947
35726SOL    HW2 9621   8.797   4.488   7.712  0.2742  0.4038  0.3939
35727SOL     OW 9622   8.772   2.902   1.208  0.5166  0.3436  0.0648
35727SOL    HW1 9623   8.687   2.882   1.247  1.6624 -1.2397  2.0044
35727SOL    HW2 9624   8.807   2.816   1.182  1.7245  0.8971 -0.2189
35728SOL     OW 9625   8.792   5.848   5.470 -0.5713 -0.1566  0.3945
35728SOL    HW1 9626   8.867   5.882   5.422 -0.2976  0.0072  0.9269
35728SOL    HW2 9627   8.734   5.813   5.403  0.8784 -2.0977  0.0742
35729SOL     OW 9628   7.322   8.309   1.019  0.0410 -0.1002 -0.0767
35729SOL    HW1 9629   7.359   8.291   1.105 -2.0869  0.6682  1.0788
35729SOL    HW2 9630   7.228   8.315   1.034 -0.2770  1.4795 -2.2000
35730SOL     OW 9631   7.793   2.106   3.027 -0.1326  0.6183  0.0063
35730SOL    HW1 9632   7.711   2.115   3.077 -0.1275  0.2127  0.0930
35730SOL    HW2 9633   7.821   2.196   3.011 -1.4739  0.8040 -1.4857
35731SOL     OW 9634   4.629   4.802   4.347 -0.0645 -0.2781 -0.2159
35731SOL    HW1 9635   4.602   4.892   4.365 -1.0121 -0.6336  0.1962
35731SOL    HW2 9636   4.721   4.809   4.321 -0.0218  0.7649  0.1886
35732SOL     OW 9637   8.709   1.792   2.338 -0.0215  0.4853  0.1071
35732SOL    HW1 9638   8.799   1.823   2.325 -0.0542  0.0545 -1.2981
35732SOL    HW2 9639   8.719   1.699   2.357 -0.1598  0.4906  0.2063
35733SOL     OW 9640   8.566   6.806   1.718 -0.4786  0.0916  0.2105
35733SOL    HW1 9641   8.632   6.860   1.762 -1.4147  0.2139  1.5174
35733SOL    HW2 9642   8.498   6.869   1.691  0.0121  0.0076 -1.3669
35734SOL     OW 9643   9.960   2.455   7.624 -0.4916  0.0591 -0.1069
35734SOL    HW1 9644   9.948   2.542   7.661  1.9939  1.0512 -1.4422
35734SOL    HW2 9645   9.950   2.467   7.530  0.2165 -1.0319 -0.3391
35735SOL     OW 9646   9.860   5.723   1.919 -0.2245 -0.2843  0.0565
35735SOL    HW1 9647   9.859   5.817   1.936  1.2326 -0.2125 -0.1105
35735SOL    HW2 9648   9.837   5.715   1.826  1.6583  0.0928 -0.4781
35736SOL     OW 9649   4.579   3.176   4.365  0.0128  0.0813  0.1792
35736SOL    HW1 9650   4.578   3.233   4.443 -2.2249 -0.2230  0.4319
35736SOL    HW2 9651   4.610   3.091   4.398 -0.1406  0.1735  0.5702
35737SOL     OW 9652   2.305   3.329   7.175  0.0148  0.3313  0.6753
35737SOL    HW1 9653   2.287   3.235   7.172  1.5578  0.0248 -0.9517
35737SOL    HW2 9654   2.247   3.367   7.109 -0.0953  0.4171  0.8216
35738SOL     OW 9655   9.977   9.340   3.138 -0.5894  0.3827  0.3100
35738SOL    HW1 9656  10.021   9.331   3.223 -0.6671  2.2856  0.5828
35738SOL    HW2 9657  10.032   9.401   3.089 -0.7242 -0.4429 -0.9159
35739SOL     OW 9658   0.431   3.305   6.400  0.2484 -0.3434  0.0549
35739SOL    HW1 9659   0.495   3.341   6.462  0.5989 -2.5013  1.0480
35739SOL    HW2 9660   0.346   3.326   6.439  0.3129  2.0651 -0.9934
35740SOL     OW 9661   7.510   8.276   0.247  0.0012  0.0948 -0.0943
35740SOL    HW1 9662   7.446   8.255   0.315  0.6641  2.8298  1.5201
35740SOL    HW2 9663   7.582   8.319   0.293  0.5853  1.8843 -2.4835
35741SOL     OW 9664   2.292   3.347   9.150 -0.2296  0.3371 -0.2799
35741SOL    HW1 9665   2.339   3.422   9.113  1.0377 -1.1460 -1.7897
35741SOL    HW2 9666   2.208   3.346   9.104 -0.5716  1.2276  0.2852
35742SOL     OW 9667   3.357   2.708   5.993 -0.0998  0.5579 -0.0973
35742SOL    HW1 9668   3.384   2.746   5.909  0.4131 -0.1749 -0.2742
35742SOL    HW2 9669   3.263   2.727   5.999 -0.3234 -0.0887 -1.2325
35743SOL     OW 9670   2.345   9.275   5.261  0.6177  1.3844  0.0065
35743SOL    HW1 9671   2.289   9.224   5.202  1.0336  1.0171 -0.0766
35743SOL    HW2 9672   2.293   9.287   5.340  0.2947  1.3416 -0.1966
35744SOL     OW 9673   0.513   8.457   2.701  0.2552  0.0283 -0.1003
35744SOL    HW1 9674   0.608   8.465   2.701  0.3307 -0.7167 -0.7907
35744SOL    HW2 9675   0.484   8.520   2.635  0.1724  1.0943  0.9286
35745SOL     OW 9676   5.609   9.623   4.453  0.3682 -0.1211 -0.1962
35745SOL    HW1 9677   5.634   9.629   4.545  1.9320 -0.9568 -0.5263
35745SOL    HW2 9678   5.582   9.712   4.430 -0.5686 -0.0097  1.1809
35746SOL     OW 9679   4.286   0.360   1.612 -0.2356  0.6476  0.5736
35746SOL    HW1 9680   4.207   0.374   1.560 -0.9386 -0.1199  1.3903
35746SOL    HW2 9681   4.256   0.309   1.687  1.2787 -0.8734  0.2100
35747SOL     OW 9682   8.173   1.654   6.023 -0.0175 -0.1940  0.4844
35747SOL    HW1 9683   8.198   1.745   6.006  1.3203 -0.9973 -2.4122
35747SOL    HW2 9684   8.079   1.651   6.000 -0.1099  0.4834  0.7513
35748SOL     OW 9685   7.789   9.116   0.634 -0.0073  0.1173  0.2427
35748SOL    HW1 9686   7.749   9.049   0.690 -3.1239  1.2330 -0.3935
35748SOL    HW2 9687   7.801   9.072   0.550 -1.9115  0.2214 -0.1376
35749SOL     OW 9688   6.144  10.396   7.449  0.2534 -0.0538 -0.3521
35749SOL    HW1 9689   6.235  10.369   7.462  0.2554 -0.3209 -0.8850
35749SOL    HW2 9690   6.096  10.355   7.521  0.4241 -0.6031 -0.5463
35750SOL     OW 9691   3.060   5.325   1.606 -0.3630 -0.4969  0.3558
35750SOL    HW1 9692   3.030   5.250   1.555  0.0500 -0.3625 -0.0880
35750SOL    HW2 9693   3.151   5.338   1.579 -0.5519  0.4218  0.1144
35751SOL     OW 9694   5.195   4.322   3.031  0.1090 -1.0151  0.4346
35751SOL    HW1 9695   5.283   4.306   2.996 -0.7289 -1.4372 -1.6505
35751SOL    HW2 9696   5.148   4.365   2.959 -1.1238  0.1289  1.8435
35752SOL     OW 9697   3.238   1.136   3.625 -0.4568 -0.7352  1.1321
35752SOL    HW1 9698   3.236   1.040   3.623 -0.9890 -0.7410  1.6490
35752SOL    HW2 9699   3.177   1.163   3.556  0.3658 -0.7540  0.3799
35753SOL     OW 9700   2.895   4.500   1.208  0.6496  0.7153 -0.2738
35753SOL    HW1 9701   2.960   4.538   1.266  1.9969  1.9198 -2.4242
35753SOL    HW2 9702   2.916   4.406   1.205 -1.5813 -0.1263  3.6788
35754SOL     OW 9703  10.281   4.976   2.098  0.1261 -0.5840  0.1616
35754SOL    HW1 9704  10.291   4.911   2.167  1.9327  0.0170  0.5231
35754SOL    HW2 9705  10.314   4.934   2.019 -1.2385 -1.0057 -0.2221
35755SOL     OW 9706   7.433   9.876   3.349 -0.3474  0.1311  0.2203
35755SOL    HW1 9707   7.420   9.909   3.438 -1.2513  1.4010 -0.3576
35755SOL    HW2 9708   7.396   9.788   3.351  1.4045 -0.6509  1.5891
35756SOL     OW 9709   2.753   1.010   0.061  0.0800  0.0688 -0.5399
35756SOL    HW1 9710   2.681   1.066   0.088  0.9774  0.5711  0.9002
35756SOL    HW2 9711   2.721   0.921   0.074 -0.4780  0.2713 -0.4918
35757SOL     OW 9712   5.349   4.115   0.318 -0.1680 -0.1961  0.4627
35757SOL    HW1 9713   5.401   4.052   0.368 -1.1887 -1.1456  0.3747
35757SOL    HW2 9714   5.258   4.089   0.335 -0.5654  0.2393 -0.9004
35758SOL     OW 9715   5.767   9.288  10.205  0.1088  0.1644  0.3367
35758SOL    HW1 9716   5.686   9.284  10.257 -0.7784 -2.0309 -1.1001
35758SOL    HW2 9717   5.744   9.344  10.131 -0.4844 -1.2864 -0.6142
35759SOL     OW 9718   0.421   4.463   6.697  0.2739 -0.5869  0.4097
35759SOL    HW1 9719   0.380   4.539   6.657  0.6565  0.0602  1.2056
35759SOL    HW2 9720   0.508   4.494   6.723  0.5598 -1.3919  0.4566
35760SOL     OW 9721   6.414   0.441   6.748 -0.0658 -0.3753 -0.5426
35760SOL    HW1 9722   6.396   0.364   6.801  2.7806 -0.4634  0.4950
35760SOL    HW2 9723   6.400   0.515   6.808 -1.9452 -0.1093 -1.2769
35761SOL     OW 9724   6.410   0.160   9.946  0.2152  0.1072 -0.1172
35761SOL    HW1 9725   6.351   0.122  10.011 -1.6702  0.5564 -1.4556
35761SOL    HW2 9726   6.456   0.229   9.992 -0.5421 -0.0552  0.9283
35762SOL     OW 9727   3.666   1.156   5.334  0.2511 -0.6994  0.3672
35762SOL    HW1 9728   3.724   1.108   5.393  0.8056  0.8284  1.1085
35762SOL    HW2 9729   3.579   1.146   5.371  0.4116 -0.8458  0.7045
35763SOL     OW 9730   4.847   2.184   1.915 -0.4218  0.6989  0.0773
35763SOL    HW1 9731   4.761   2.178   1.874 -1.4973 -1.2350  2.3654
35763SOL    HW2 9732   4.894   2.106   1.884 -1.0156 -0.4280  1.8539
35764SOL     OW 9733   5.557  10.077   1.178  0.0015  0.1042  0.2269
35764SOL    HW1 9734   5.601  10.067   1.093 -2.5376  0.5136 -1.2251
35764SOL    HW2 9735   5.563   9.990   1.219 -0.4527 -0.6629 -1.2757
35765SOL     OW 9736   6.210   7.719   7.048  0.5728 -0.6247 -0.7884
35765SOL    HW1 9737   6.284   7.761   7.004  2.1904 -1.6481  0.7936
35765SOL    HW2 9738   6.198   7.637   7.001  2.6304 -1.9553  0.7901
35766SOL     OW 9739   7.654   1.366   5.566 -0.1339  0.6952 -0.1548
35766SOL    HW1 9740   7.697   1.370   5.481  0.9052 -0.8478  0.2638
35766SOL    HW2 9741   7.635   1.457   5.587  1.2075  1.2638 -1.2336
35767SOL     OW 9742   4.198   3.823   2.942 -0.1196 -0.4932 -0.1982
35767SOL    HW1 9743   4.162   3.906   2.910  0.2772 -0.0804  0.3906
35767SOL    HW2 9744   4.228   3.843   3.031  1.4562 -0.8442 -0.6246
35768SOL     OW 9745   5.885   3.750   9.516  0.1747  0.6752 -0.1957
35768SOL    HW1 9746   5.911   3.751   9.424  2.0193  1.5646  0.3003
35768SOL    HW2 9747   5.789   3.740   9.513  0.3131 -0.7520 -2.1570
35769SOL     OW 9748   2.912   8.959   6.629  0.3146  0.0108 -0.2895
35769SOL    HW1 9749   2.963   8.880   6.649  1.6221  1.3697  2.3162
35769SOL    HW2 9750   2.827   8.944   6.671 -0.1041 -0.6839 -1.3395
35770SOL     OW 9751   7.808   7.784   4.521 -0.6209 -0.3397  0.2233
35770SOL    HW1 9752   7.762   7.711   4.563  0.5079 -1.2160 -0.0004
35770SOL    HW2 9753   7.774   7.862   4.565 -0.5720 -1.1190  1.7286
35771SOL     OW 9754   8.522   7.801   5.743 -0.1725  0.4752 -0.2146
35771SOL    HW1 9755   8.581   7.735   5.780 -3.0433 -0.6167  2.9543
35771SOL    HW2 9756   8.477   7.755   5.671  0.4328  0.2265 -0.4396
35772SOL     OW 9757   0.045   3.215   4.252  0.2333 -0.7026 -0.2919
35772SOL    HW1 9758   0.041   3.298   4.204 -0.9783 -0.4488  0.2262
35772SOL    HW2 9759   0.033   3.239   4.343 -1.3314 -1.5321 -0.2346
35773SOL     OW 9760   5.932   8.627   3.185 -0.5915 -0.0838  0.3134
35773SOL    HW1 9761   6.004   8.565   3.183 -1.7114 -1.4296  0.3233
35773SOL    HW2 9762   5.972   8.709   3.214  0.7960 -0.9714  1.0140
35774SOL     OW 9763   5.137   3.130   4.522 -0.0669  0.0457  0.0426
35774SOL    HW1 9764   5.192   3.133   4.444  1.0080  0.9384  0.7996
35774SOL    HW2 9765   5.052   3.098   4.490  1.1124 -2.2910 -0.9944
35775SOL     OW 9766   3.167   5.787   1.307 -0.3163  0.2972 -0.1116
35775SOL    HW1 9767   3.149   5.695   1.327  0.7036  0.0183 -0.4211
35775SOL    HW2 9768   3.111   5.836   1.367  0.1362 -0.5243  1.0097
35776SOL     OW 9769   2.692   3.689   7.992 -0.4561 -0.4645 -0.3131
35776SOL    HW1 9770   2.724   3.721   7.907  0.0182  0.8183  0.3287
35776SOL    HW2 9771   2.628   3.622   7.969 -0.2911 -0.1865 -1.6915
35777SOL     OW 9772   2.026   5.832   9.351  0.0891  0.2440  0.0063
35777SOL    HW1 9773   2.032   5.840   9.447  1.1960  1.0057 -0.1095
35777SOL    HW2 9774   2.080   5.756   9.330 -2.2271 -1.5590  0.1797
35778SOL     OW 9775   2.941   4.116   8.985 -0.4567 -0.1338 -0.7213
35778SOL    HW1 9776   2.948   4.063   8.905  0.2325  0.6467 -1.2012
35778SOL    HW2 9777   2.888   4.064   9.044 -0.1467 -1.1732 -1.3335
35779SOL     OW 9778   4.436   5.858   6.786 -0.1395  0.0164  0.0561
35779SOL    HW1 9779   4.456   5.875   6.694 -1.4820  1.0463 -0.0714
35779SOL    HW2 9780   4.341   5.852   6.790 -0.0601 -0.9925  1.2357
35780SOL     OW 9781   9.114   2.026   7.993  0.0268 -0.2423  0.0645
35780SOL    HW1 9782   9.197   2.070   8.013 -1.2992  3.0074 -0.9339
35780SOL    HW2 9783   9.064   2.031   8.074 -0.2075  0.3711 -0.1102
35781SOL     OW 9784   0.872  10.244   8.074 -0.4717  0.5197  0.4592
35781SOL    HW1 9785   0.822  10.166   8.048  1.0586 -0.6259  0.8399
35781SOL    HW2 9786   0.929  10.261   7.999  1.2911 -0.5469  1.5025
35782SOL     OW 9787   0.470   7.165   7.097  0.2939  0.1857 -0.5958
35782SOL    HW1 9788   0.496   7.230   7.162 -1.4885  1.2401 -0.8858
35782SOL    HW2 9789   0.455   7.086   7.147 -2.1050  1.2621  0.5094
35783SOL     OW 9790   9.109   6.020   5.848 -0.1607  0.4275  0.2202
35783SOL    HW1 9791   9.082   6.056   5.932 -0.1679 -1.8068  1.2335
35783SOL    HW2 9792   9.196   6.056   5.833  0.5896 -0.4661  2.0772
35784SOL     OW 9793   6.843   5.364   6.752  0.2011 -0.1028  0.2514
35784SOL    HW1 9794   6.910   5.322   6.807 -0.4540 -1.4523  0.0514
35784SOL    HW2 9795   6.888   5.379   6.669  0.7434  0.5434  0.6491
35785SOL     OW 9796   0.425   4.549   9.071  0.3580  0.1162 -0.4314
35785SOL    HW1 9797   0.494   4.608   9.043  0.7861  1.2618  2.6335
35785SOL    HW2 9798   0.351   4.606   9.091 -0.0227 -0.6138  0.3111
35786SOL     OW 9799   6.557   4.689   9.780 -0.3426 -0.0008  0.2282
35786SOL    HW1 9800   6.517   4.663   9.697 -1.6907 -0.1900  0.9075
35786SOL    HW2 9801   6.609   4.766   9.759 -1.1818  0.3313 -0.6773
35787SOL     OW 9802   5.784   2.943   3.608 -0.2087 -0.5132  0.4811
35787SOL    HW1 9803   5.717   2.996   3.564  0.7271 -0.2628 -0.7029
35787SOL    HW2 9804   5.736   2.894   3.674 -1.4778  0.0576  0.0191
35788SOL     OW 9805   8.607   2.351   6.344  0.0719  0.0266 -0.2154
35788SOL    HW1 9806   8.624   2.326   6.434 -0.1419 -1.6794 -0.6219
35788SOL    HW2 9807   8.569   2.273   6.303 -0.5619  1.0029 -1.5811
35789SOL     OW 9808   0.697   9.675   5.083 -0.6269  0.2859 -0.0440
35789SOL    HW1 9809   0.715   9.697   5.174 -0.9743 -1.0167  0.3688
35789SOL    HW2 9810   0.722   9.582   5.076  0.0764  0.5507 -1.4670
35790SOL     OW 9811   3.092   3.867   0.796  0.8746 -0.5962 -0.6622
35790SOL    HW1 9812   3.159   3.800   0.785  0.7107 -0.7018 -1.0516
35790SOL    HW2 9813   3.064   3.887   0.707 -1.0493 -2.0131 -0.4580
35791SOL     OW 9814   9.952   3.691   0.601 -0.2922  0.4180 -0.6514
35791SOL    HW1 9815   9.932   3.726   0.514  1.3402 -1.1608 -1.7391
35791SOL    HW2 9816   9.878   3.634   0.622  0.1256 -0.6266 -1.8783
35792SOL     OW 9817   7.681   4.920   5.389  0.6259  0.0424  0.2070
35792SOL    HW1 9818   7.633   4.944   5.469  0.3616 -2.1393  0.7646
35792SOL    HW2 9819   7.613   4.892   5.328  0.9186  0.6948 -0.4408
35793SOL     OW 9820   0.601   8.626   6.274 -0.3144  0.1554  0.1988
35793SOL    HW1 9821   0.659   8.563   6.232 -0.3759 -1.3435  2.2276
35793SOL    HW2 9822   0.553   8.666   6.202 -0.0581 -1.8765 -1.1880
35794SOL     OW 9823   2.309   1.596   0.889  0.3920 -0.0962  0.4222
35794SOL    HW1 9824   2.401   1.582   0.914  0.9799  1.2476 -0.8530
35794SOL    HW2 9825   2.304   1.563   0.799 -0.5727 -0.7809  0.7136
35795SOL     OW 9826   1.031   7.221   1.172 -0.1083 -0.2413 -0.1770
35795SOL    HW1 9827   0.965   7.258   1.114  0.0965 -1.2211 -1.0539
35795SOL    HW2 9828   1.012   7.127   1.173  1.0044 -0.4711 -0.0914
35796SOL     OW 9829   4.609   4.076   1.731 -0.2331  0.1575 -0.1375
35796SOL    HW1 9830   4.594   3.988   1.697 -2.5574  0.8983 -1.2479
35796SOL    HW2 9831   4.575   4.073   1.821 -3.6098  0.7142 -1.2769
35797SOL     OW 9832   1.216   7.735   9.895 -0.2168 -0.0692 -0.4985
35797SOL    HW1 9833   1.191   7.732   9.988  4.2654 -0.9138  0.9433
35797SOL    HW2 9834   1.202   7.826   9.870  0.6765  0.8156  1.8527
35798SOL     OW 9835   3.235   3.419   9.701  0.0349  0.0040  0.3231
35798SOL    HW1 9836   3.214   3.438   9.792  0.6875  0.9036  0.2959
35798SOL    HW2 9837   3.181   3.479   9.650 -0.2820 -0.4529  0.1111
35799SOL     OW 9838   9.999   4.837   3.222  0.5705 -0.2892 -0.2811
35799SOL    HW1 9839  10.050   4.840   3.303  1.2047 -1.4204 -0.6160
35799SOL    HW2 9840  10.050   4.888   3.159  2.1069 -2.5620 -1.0148
35800SOL     OW 9841  10.210   5.594  10.086  0.0570  0.2299 -0.5320
35800SOL    HW1 9842  10.188   5.517  10.034 -2.5150  1.1198 -0.8895
35800SOL    HW2 9843  10.276   5.563  10.148 -0.0622 -1.9575 -1.4217
35801SOL     OW 9844   0.940   5.911  10.017  0.4792 -0.0960 -0.0657
35801SOL    HW1 9845   0.970   5.891   9.929 -1.1302 -1.3505 -0.3834
35801SOL    HW2 9846   0.920   5.825  10.055 -2.5085  0.5743  0.1188
35802SOL     OW 9847   4.689   2.580   4.608 -0.1373 -0.3255  0.3074
35802SOL    HW1 9848   4.749   2.581   4.683 -0.0948  0.9000  0.2702
35802SOL    HW2 9849   4.623   2.514   4.631  1.0053 -1.4391  0.5060
35803SOL     OW 9850   1.166   4.919   2.537  0.0135  0.6975 -0.1732
35803SOL    HW1 9851   1.261   4.918   2.528 -0.0652  0.2947 -1.0690
35803SOL    HW2 9852   1.135   4.977   2.467 -0.3410  1.8526  0.8966
35804SOL     OW 9853   4.450   0.274   7.111 -0.2713 -0.2724  0.2181
35804SOL    HW1 9854   4.507   0.212   7.065 -1.5849 -0.3585 -1.3647
35804SOL    HW2 9855   4.406   0.323   7.041  1.1958  2.9772  1.3722
35805SOL     OW 9856   7.866   8.461   0.034 -0.6115  0.1413  0.1418
35805SOL    HW1 9857   7.777   8.493   0.021 -0.5318  0.4306  0.3032
35805SOL    HW2 9858   7.858   8.397   0.104 -0.4905  1.1072  1.0547
35806SOL     OW 9859   7.166   9.153   5.024 -0.3926  0.2146 -0.3778
35806SOL    HW1 9860   7.202   9.210   5.092  0.7249 -0.1848 -0.6158
35806SOL    HW2 9861   7.232   9.155   4.954 -0.2224 -1.5352 -0.3010
35807SOL     OW 9862   0.154   9.495   4.333  0.1069 -0.5788  0.2457
35807SOL    HW1 9863   0.203   9.443   4.269 -0.7079 -1.7304  0.5227
35807SOL    HW2 9864   0.065   9.461   4.328 -0.7363  1.5010 -0.3006
35808SOL     OW 9865   2.462   0.735   0.442 -0.5408 -0.1538  0.2980
35808SOL    HW1 9866   2.382   0.746   0.390  0.5376  0.9500 -1.2067
35808SOL    HW2 9867   2.470   0.641   0.454 -0.4388 -0.5292 -2.2431
35809SOL     OW 9868   2.137   5.387   4.302 -0.0071 -0.3288 -0.3996
35809SOL    HW1 9869   2.226   5.414   4.276  0.0330  1.0263  1.0525
35809SOL    HW2 9870   2.082   5.414   4.228  0.2497  2.5211  0.3454
35810SOL     OW 9871   0.393   3.792   3.761  0.5163 -0.3231  0.3682
35810SOL    HW1 9872   0.479   3.751   3.748  0.3467 -1.2340  1.8842
35810SOL    HW2 9873   0.346   3.773   3.680  1.5296 -0.3510 -0.2350
35811SOL     OW 9874   2.078   7.556  10.412 -0.4573  0.0944 -0.0373
35811SOL    HW1 9875   2.083   7.465  10.385 -1.1745 -0.0112  0.1563
35811SOL    HW2 9876   2.020   7.597  10.348  0.0729  0.4755 -0.2777
35812SOL     OW 9877   1.195   2.124   6.025 -0.1357  0.2442  0.2430
35812SOL    HW1 9878   1.281   2.083   6.033 -0.0413  0.1190 -1.0862
35812SOL    HW2 9879   1.197   2.166   5.939 -0.8546  1.5831  0.8651
35813SOL     OW 9880   4.241   8.561   2.132 -0.1113 -0.2443 -0.0984
35813SOL    HW1 9881   4.161   8.602   2.098  0.6294  1.1413 -0.2300
35813SOL    HW2 9882   4.212   8.515   2.210 -1.0749  0.1030 -0.2311
35814SOL     OW 9883   0.526   9.208   3.060  0.6470 -0.3646 -0.7744
35814SOL    HW1 9884   0.575   9.126   3.050  2.1166 -0.2629  3.5469
35814SOL    HW2 9885   0.592   9.277   3.054  0.3056  0.1029  0.5020
35815SOL     OW 9886   0.379   6.099   6.956  0.3202 -0.0157  0.0371
35815SOL    HW1 9887   0.384   6.156   7.033 -0.8266  0.8452 -0.4867
35815SOL    HW2 9888   0.455   6.122   6.903  0.6654 -0.0262  0.5274
35816SOL     OW 9889   7.337   3.904   1.758  0.3935 -0.4432  0.1697
35816SOL    HW1 9890   7.313   3.868   1.844 -0.0793 -2.1719 -0.6277
35816SOL    HW2 9891   7.278   3.979   1.746 -0.7408 -1.2257  0.6448
35817SOL     OW 9892   5.444   3.098   9.994  0.8381  0.3188 -0.0452
35817SOL    HW1 9893   5.487   3.163   9.938  1.4925  1.1406  1.3412
35817SOL    HW2 9894   5.360   3.139  10.017  0.8629  0.2875  0.1039
35818SOL     OW 9895   5.696   5.064   1.573  0.1863 -0.4956 -0.0295
35818SOL    HW1 9896   5.707   4.972   1.595  0.6425 -0.5531 -0.4818
35818SOL    HW2 9897   5.784   5.101   1.581 -0.2644  0.2942  1.8558
35819SOL     OW 9898   9.907   2.323   7.311 -0.2984  0.4049  0.0479
35819SOL    HW1 9899   9.897   2.396   7.249 -0.1275 -0.2138 -0.7341
35819SOL    HW2 9900   9.999   2.297   7.302 -0.1459  0.6146  0.9309
35820SOL     OW 9901   2.634   0.603   5.678  0.1704  0.5164 -0.0585
35820SOL    HW1 9902   2.582   0.639   5.749  0.6506  0.2889  0.4107
35820SOL    HW2 9903   2.636   0.509   5.695  0.3201  0.4664 -0.3495
35821SOL     OW 9904   9.166   1.156   0.725 -0.6915  0.3133  0.2561
35821SOL    HW1 9905   9.078   1.182   0.754 -0.1296  0.0636  2.3530
35821SOL    HW2 9906   9.184   1.075   0.773  1.2297  1.1263  0.9950
35822SOL     OW 9907   2.475  10.352   7.161  0.2357  0.1128 -0.2799
35822SOL    HW1 9908   2.388  10.323   7.133  0.4743  1.1692 -2.3875
35822SOL    HW2 9909   2.535  10.286   7.124  0.3831 -0.1632  0.4486
35823SOL     OW 9910   1.335   2.495   5.049 -0.0981 -0.3336  0.5007
35823SOL    HW1 9911   1.304   2.481   4.960 -0.7598 -0.0653  0.6862
35823SOL    HW2 9912   1.362   2.587   5.051  0.7812 -0.5784  0.3244
35824SOL     OW 9913   9.442   4.977   2.692 -0.1641 -0.7961  0.5352
35824SOL    HW1 9914   9.464   4.909   2.628 -0.8135 -1.0101  0.5350
35824SOL    HW2 9915   9.346   4.979   2.693 -0.1954 -1.3660  2.1003
35825SOL     OW 9916   7.423   2.085   4.178  0.2431  0.3140 -0.0339
35825SOL    HW1 9917   7.402   2.125   4.093 -3.0404 -2.7017 -0.9077
35825SOL    HW2 9918   7.355   2.116   4.237 -2.1454 -3.1436 -0.6294
35826SOL     OW 9919   0.720   5.702   9.169  0.4482 -0.1696  0.1620
35826SOL    HW1 9920   0.725   5.609   9.190 -0.8220 -0.2052  0.3892
35826SOL    HW2 9921   0.657   5.737   9.232 -0.0971  0.5751 -0.7610
35827SOL     OW 9922   2.162   5.585   5.143 -0.6648  0.3151 -0.8576
35827SOL    HW1 9923   2.093   5.551   5.200 -0.4020  0.0572 -0.6901
35827SOL    HW2 9924   2.205   5.653   5.195 -0.2618 -0.0944 -0.6486
35828SOL     OW 9925   4.984   9.080   9.042  0.5713 -1.0225  0.0829
35828SOL    HW1 9926   4.999   9.171   9.014 -0.9567 -0.4932  0.8561
35828SOL    HW2 9927   4.973   9.032   8.960 -0.7223 -0.0825 -0.3335
35829SOL     OW 9928   6.902   1.839   8.833 -0.0718  0.2876  0.3160
35829SOL    HW1 9929   6.965   1.886   8.888  0.9725 -0.0798 -0.5349
35829SOL    HW2 9930   6.955   1.790   8.771 -1.2058  0.0917 -0.5466
35830SOL     OW 9931   6.764   1.837   5.175  0.3602  0.3007 -0.3895
35830SOL    HW1 9932   6.668   1.836   5.178  0.3582 -1.1439 -0.4414
35830SOL    HW2 9933   6.790   1.748   5.198  1.7250  0.8249  0.2075
35831SOL     OW 9934  10.119   3.550   6.090  0.4237  0.4956  0.4868
35831SOL    HW1 9935  10.123   3.624   6.151  0.1185  1.7385 -0.9342
35831SOL    HW2 9936  10.043   3.568   6.035 -0.4813 -1.6022  0.9646
35832SOL     OW 9937   1.698   9.456   6.695  0.2068  0.0903 -1.1731
35832SOL    HW1 9938   1.662   9.436   6.608  0.6215  0.7058 -1.4961
35832SOL    HW2 9939   1.704   9.372   6.739 -1.6753 -0.0312 -1.0858
35833SOL     OW 9940   8.969   6.929  10.489 -0.3163 -0.2162 -0.4877
35833SOL    HW1 9941   8.973   6.866  10.417 -0.4146 -0.9888  0.1636
35833SOL    HW2 9942   9.054   6.922  10.532  0.1441  1.0269 -1.1619
35834SOL     OW 9943   2.054   2.883   7.363 -0.0359  0.1174 -0.1226
35834SOL    HW1 9944   2.076   2.792   7.382 -2.1743 -0.0112  2.3421
35834SOL    HW2 9945   1.961   2.882   7.343 -0.4705  1.8603  1.4700
35835SOL     OW 9946   0.909   3.269   9.510 -0.2976  0.0174  0.1888
35835SOL    HW1 9947   1.002   3.264   9.490 -0.6914 -0.0123 -1.8765
35835SOL    HW2 9948   0.883   3.358   9.484 -1.2547 -0.6918 -1.4384
35836SOL     OW 9949   6.419   5.581   0.407 -0.3902  0.3402  0.1150
35836SOL    HW1 9950   6.338   5.608   0.450 -0.4072 -0.6004  0.6736
35836SOL    HW2 9951   6.483   5.573   0.477  0.0680  0.6019 -0.2648
35837SOL     OW 9952   9.999   1.690   2.716 -0.6926 -0.0689  0.5264
35837SOL    HW1 9953  10.031   1.668   2.629  1.2121 -1.3365  1.4764
35837SOL    HW2 9954   9.904   1.698   2.706 -0.7008 -1.8407 -1.3368
35838SOL     OW 9955   8.121   7.551   4.698  0.2566 -0.1846  0.4157
35838SOL    HW1 9956   8.152   7.609   4.767 -1.4396  0.3821  0.7388
35838SOL    HW2 9957   8.100   7.469   4.743  1.9363 -0.8472  0.0746
35839SOL     OW 9958   5.274   8.991   8.448  0.0613 -0.1710  0.1425
35839SOL    HW1 9959   5.324   9.070   8.429  0.5776 -0.7726 -1.1147
35839SOL    HW2 9960   5.210   9.018   8.514 -0.8617  1.6999 -1.4454
35840SOL     OW 9961   2.962   4.674  10.490 -0.1471 -1.2113 -0.5296
35840SOL    HW1 9962   2.883   4.660  10.542  0.2072 -1.4713 -0.0509
35840SOL    HW2 9963   3.031   4.629  10.539  0.2554 -1.1762 -1.0557
35841SOL     OW 9964   7.034   2.900  10.331  0.7776 -0.3355 -0.1627
35841SOL    HW1 9965   7.087   2.974  10.359 -1.6197  1.5058 -0.2170
35841SOL    HW2 9966   7.057   2.886  10.239 -0.4557  2.0119 -0.8945
35842SOL     OW 9967   0.909   4.283   2.647  0.5573 -0.2740  0.0621
35842SOL    HW1 9968   0.965   4.350   2.607 -0.0540 -0.3893 -1.0115
35842SOL    HW2 9969   0.926   4.204   2.596 -0.6269 -0.2907 -0.3310
35843SOL     OW 9970  10.376   7.773   7.301  0.3475 -0.5871 -0.4654
35843SOL    HW1 9971  10.283   7.771   7.326  0.4361 -0.4496 -0.1054
35843SOL    HW2 9972  10.400   7.681   7.290 -0.1981 -0.5702 -2.0107
35844SOL     OW 9973   1.231   9.655   9.361  0.2868  0.5122  0.5820
35844SOL    HW1 9974   1.245   9.606   9.442  0.7267  2.1925  1.5675
35844SOL    HW2 9975   1.320   9.679   9.333  0.2833 -1.4197 -1.3361
35845SOL     OW 9976   4.785   1.706   6.785 -0.2385 -0.1564 -0.2294
35845SOL    HW1 9977   4.740   1.624   6.763  0.3640 -0.0786 -1.9026
35845SOL    HW2 9978   4.878   1.686   6.772  0.0168  0.4275  0.6445
35846SOL     OW 9979   8.894   0.311   0.324  0.2403  0.1765 -0.2367
35846SOL    HW1 9980   8.919   0.237   0.268  0.2822  0.1291 -0.1551
35846SOL    HW2 9981   8.850   0.372   0.265  1.6209  0.8225 -0.6428
35847SOL     OW 9982   1.398   6.259   2.129  0.2346 -0.0367  0.1211
35847SOL    HW1 9983   1.418   6.169   2.156  3.3504  0.9512  1.5419
35847SOL    HW2 9984   1.478   6.288   2.084 -0.8083  1.9585 -0.5452
35848SOL     OW 9985   7.248   6.485   5.533 -0.5589  0.6694 -0.6213
35848SOL    HW1 9986   7.207   6.567   5.561  2.3616  2.0797 -0.0459
35848SOL    HW2 9987   7.315   6.468   5.599  1.9774  0.3441 -3.0761
35849SOL     OW 9988   2.891   9.916  10.048 -0.1077  0.2603 -0.3482
35849SOL    HW1 9989   2.951   9.847  10.021  0.4818  0.5812  0.1416
35849SOL    HW2 9990   2.903   9.924  10.142 -1.3542 -0.0783 -0.1338
35850SOL     OW 9991   1.757   8.158   2.835 -0.0192 -0.4981 -0.0650
35850SOL    HW1 9992   1.835   8.212   2.841 -0.0827 -0.4822  0.7341
35850SOL    HW2 9993   1.740   8.130   2.925 -1.4623  0.2674 -0.0734
35851SOL     OW 9994   3.226   8.091   3.472 -0.2799 -0.1424  0.5149
35851SOL    HW1 9995   3.249   8.056   3.386  1.1911  1.2923  0.2634
35851SOL    HW2 9996   3.131   8.086   3.476 -0.6697  2.3458 -2.3920
35852SOL     OW 9997   5.432   7.367   2.422 -0.0279  0.4634  0.4115
35852SOL    HW1 9998   5.462   7.436   2.481  1.1836  0.3236 -0.0140
35852SOL    HW2 9999   5.494   7.369   2.349 -0.4657 -0.5236 -0.0064
35853SOL     OW10000   3.601   1.817  10.317 -0.0905 -0.9471 -0.1527
35853SOL    HW110001   3.577   1.781  10.402 -3.0449  1.1015  0.0278
35853SOL    HW210002   3.518   1.824  10.269  0.5977  2.7789 -1.1820
35854SOL     OW10003   7.686   7.922   1.534 -0.4569 -0.0498  0.2696
35854SOL    HW110004   7.688   7.827   1.546  0.9876 -0.0163  0.5266
35854SOL    HW210005   7.687   7.957   1.623  1.3590  0.1851  0.1945
35855SOL     OW10006   6.939   6.040   2.252 -0.1104  0.0503 -0.0441
35855SOL    HW110007   6.979   5.956   2.275  1.4278  0.4943 -0.9605
35855SOL    HW210008   6.859   6.044   2.305 -0.8452 -2.5013 -0.8172
35856SOL     OW10009   4.712   5.912   7.191 -0.1086 -0.1558 -0.2315
35856SOL    HW110010   4.715   5.996   7.145  1.2444  1.2510  2.1938
35856SOL    HW210011   4.799   5.875   7.178 -0.2526 -0.5250 -0.1476
35857SOL     OW10012   7.549   3.576   5.461 -0.0020  0.2208 -0.3539
35857SOL    HW110013   7.571   3.631   5.536  0.1597 -1.2136  0.6870
35857SOL    HW210014   7.530   3.638   5.391  0.2460  1.5943  0.7487
35858SOL     OW10015   7.619   4.835   8.149  0.2089 -0.0123 -0.3411
35858SOL    HW110016   7.683   4.905   8.159  1.6248 -1.0794 -1.5379
35858SOL    HW210017   7.647   4.788   8.070 -2.4099 -0.1523 -1.2793
35859SOL     OW10018   8.993   1.028   5.075  0.0861  0.2465  0.3771
35859SOL    HW110019   8.985   0.941   5.035 -0.9597 -0.1158  1.3412
35859SOL    HW210020   8.921   1.078   5.037  1.4926  1.1744 -1.2478
35860SOL     OW10021   5.579   3.754   9.173  0.3271 -0.1852 -0.1079
35860SOL    HW110022   5.511   3.812   9.139 -0.3836 -1.6014 -1.2296
35860SOL    HW210023   5.652   3.812   9.193 -0.2037  1.0545 -1.5726
35861SOL     OW10024  10.348   2.444   8.449  0.1800  0.1438  0.3504
35861SOL    HW110025  10.279   2.487   8.500  1.5057  1.6984  0.9398
35861SOL    HW210026  10.379   2.373   8.504 -0.9285 -0.5768  0.0734
35862SOL     OW10027   4.345   8.746   4.620  0.1766  0.1124  0.1768
35862SOL    HW110028   4.288   8.804   4.571 -2.5034 -0.6286  2.1749
35862SOL    HW210029   4.298   8.662   4.623  2.1698 -1.0678  0.5118
35863SOL     OW10030   0.633   1.529   6.240 -0.4470  0.3542  0.2190
35863SOL    HW110031   0.728   1.539   6.236 -0.2273 -1.2858  0.3923
35863SOL    HW210032   0.606   1.517   6.149 -0.7999  2.8113 -0.0687
35864SOL     OW10033   1.485   2.069   4.682 -0.0613 -0.2972  0.3273
35864SOL    HW110034   1.415   2.110   4.631  1.1140  1.4525  0.0401
35864SOL    HW210035   1.508   1.991   4.632 -1.6879 -0.8309  0.3569
35865SOL     OW10036   8.955   8.256   6.296  0.3967  0.3957  0.5214
35865SOL    HW110037   8.905   8.184   6.255  1.1688 -0.9986  1.9120
35865SOL    HW210038   8.889   8.312   6.335 -0.1982 -0.0483  0.1659
35866SOL     OW10039   6.669   7.478   4.736 -0.0667  0.2425  0.9062
35866SOL    HW110040   6.675   7.553   4.796 -1.7235  0.1062  1.2837
35866SOL    HW210041   6.607   7.419   4.779 -1.0370 -0.0182 -0.7859
35867SOL     OW10042   8.192   8.216   8.378  0.1173  0.3830  0.2713
35867SOL    HW110043   8.116   8.171   8.343  0.1575  1.8245 -1.8856
35867SOL    HW210044   8.172   8.230   8.470 -0.2603 -3.1066  0.8477
35868SOL     OW10045   2.105   8.265   1.807 -0.2360  0.2192 -0.7066
35868SOL    HW110046   2.073   8.231   1.891 -2.1508 -0.4483 -1.6334
35868SOL    HW210047   2.132   8.188   1.758 -0.0973  0.4996 -1.0815
35869SOL     OW10048   4.068   5.644  10.297  0.4061  0.5977 -0.2046
35869SOL    HW110049   4.053   5.726  10.251  0.0730  0.3590 -0.5335
35869SOL    HW210050   4.163   5.637  10.304  0.4306  1.0567 -0.0881
35870SOL     OW10051   2.807   4.077   3.182 -0.4088  0.1605 -0.2428
35870SOL    HW110052   2.838   4.019   3.113  1.7255 -1.0349  1.5803
35870SOL    HW210053   2.868   4.151   3.181  0.2019 -0.3021  0.8862
35871SOL     OW10054   7.160   6.687   6.548 -0.5567  0.0713  0.1111
35871SOL    HW110055   7.184   6.669   6.639 -0.0725 -1.3615 -0.2732
35871SOL    HW210056   7.065   6.682   6.547 -0.5756  0.2341  0.5519
35872SOL     OW10057  10.265   0.872   5.458 -0.4506 -0.5239 -0.3468
35872SOL    HW110058  10.220   0.805   5.406  0.1783 -0.9975 -0.2956
35872SOL    HW210059  10.253   0.845   5.549 -0.0537 -0.6586 -0.3344
35873SOL     OW10060   9.566   1.623   7.852  0.5220  0.0904  0.3348
35873SOL    HW110061   9.557   1.574   7.933 -0.9647  0.2178  0.2831
35873SOL    HW210062   9.519   1.705   7.868 -1.8747 -0.8134 -1.3540
35874SOL     OW10063   8.327   2.042   5.206  0.4180  0.3252 -0.2264
35874SOL    HW110064   8.344   2.062   5.114 -1.7934  0.0924 -0.7539
35874SOL    HW210065   8.284   1.957   5.205  0.4669  0.2633  1.0329
35875SOL     OW10066   2.859   1.206   6.272  0.3444 -0.2694 -0.0411
35875SOL    HW110067   2.891   1.281   6.223  0.3951 -0.3837 -0.1858
35875SOL    HW210068   2.800   1.242   6.337  2.0005  0.1338  1.3170
35876SOL     OW10069   4.291  10.424   2.736  0.1647  0.8359 -0.1327
35876SOL    HW110070   4.196  10.437   2.734  0.0203 -0.0817 -0.0724
35876SOL    HW210071   4.309  10.369   2.660  0.2688 -1.0905  1.1923
35877SOL     OW10072   7.371   9.971   3.583 -0.1211 -0.3089  0.2964
35877SOL    HW110073   7.300  10.035   3.589  0.3511  0.2991 -0.4768
35877SOL    HW210074   7.447  10.015   3.621  0.1428 -0.5014 -0.0048
35878SOL     OW10075   9.013   0.681   4.320 -0.6431 -0.2500 -0.2257
35878SOL    HW110076   9.084   0.745   4.314 -0.2197 -0.7179 -0.2928
35878SOL    HW210077   9.053   0.605   4.362 -0.6941 -1.0796 -1.6086
35879SOL     OW10078   4.120   4.094  10.250 -0.1563  0.5467 -0.6181
35879SOL    HW110079   4.111   4.164  10.315 -0.9438  1.5062 -1.7038
35879SOL    HW210080   4.194   4.041  10.281 -0.1759  1.2773  0.7578
35880SOL     OW10081   5.666   9.977   0.079 -0.4963 -0.4354 -0.1470
35880SOL    HW110082   5.730   9.916   0.116 -0.1613 -0.6783 -1.0991
35880SOL    HW210083   5.630  10.023   0.155 -1.6437 -2.6440  0.7539
35881SOL     OW10084   2.998   4.384   8.860 -0.4949  0.1829  0.0247
35881SOL    HW110085   2.967   4.308   8.909  1.5856 -0.3151  0.6652
35881SOL    HW210086   2.965   4.459   8.910  0.0469 -0.3295  1.1984
35882SOL     OW10087   1.156  10.330   8.004 -0.4074 -0.0142 -0.0372
35882SOL    HW110088   1.111  10.405   8.045  0.1338  0.7520 -0.8208
35882SOL    HW210089   1.236  10.319   8.057 -0.6675 -0.2813  0.3050
35883SOL     OW10090   9.703   1.780   0.784  0.3743 -0.4173  0.6001
35883SOL    HW110091   9.780   1.831   0.757  0.1837 -0.5044 -0.1248
35883SOL    HW210092   9.700   1.792   0.879  1.9536 -1.3515  0.8096
35884SOL     OW10093  10.172   0.507   3.580 -0.1496  0.4831  0.1535
35884SOL    HW110094  10.224   0.439   3.622 -0.3779 -0.1144 -0.5052
35884SOL    HW210095  10.219   0.528   3.499  0.2528  1.5779  0.6460
35885SOL     OW10096   0.907   2.293   9.233  0.5907 -0.8814  0.0954
35885SOL    HW110097   0.859   2.278   9.151  0.2217 -1.0761  0.3474
35885SOL    HW210098   0.839   2.297   9.300  0.9742 -1.7748  0.5454
35886SOL     OW10099   9.310   4.373   8.566  0.2674  0.1965  0.2313
35886SOL    HW110100   9.399   4.343   8.548 -0.4022 -0.8525 -1.6576
35886SOL    HW210101   9.284   4.419   8.486 -1.3698 -0.7840  0.1564
35887SOL     OW10102   9.357   8.316   2.943  0.3237 -0.0285  0.2086
35887SOL    HW110103   9.311   8.393   2.910 -1.3239 -1.4734 -1.0646
35887SOL    HW210104   9.288   8.257   2.971  1.5542 -1.0177  1.2706
35888SOL     OW10105   2.877   6.741   9.381 -0.2430 -0.6561  0.4869
35888SOL    HW110106   2.866   6.675   9.312 -0.4580  0.0091 -0.1342
35888SOL    HW210107   2.895   6.822   9.333  1.7830 -0.5826  1.2972
35889SOL     OW10108  10.014   6.858   2.984  0.3736  0.1573 -0.5036
35889SOL    HW110109   9.930   6.817   3.001 -1.2727  3.5463  0.4919
35889SOL    HW210110  10.079   6.791   3.004 -2.0087 -1.8059  1.1773
35890SOL     OW10111   4.043   3.699   9.748  1.0629  0.8046  0.5712
35890SOL    HW110112   4.124   3.651   9.728 -0.9087 -3.0141  0.9291
35890SOL    HW210113   4.032   3.689   9.842 -0.4783  0.0287  0.3391
35891SOL     OW10114   7.630   5.350   5.950 -0.1136 -0.3165 -0.1880
35891SOL    HW110115   7.659   5.441   5.958  2.0794 -0.9145 -0.6237
35891SOL    HW210116   7.591   5.330   6.035  2.1396  0.1878  1.0513
35892SOL     OW10117   2.952   9.192   2.610  0.4365  0.1518  0.2256
35892SOL    HW110118   2.879   9.157   2.559  0.5997 -0.5965  0.4866
35892SOL    HW210119   2.984   9.266   2.559 -1.9234  1.9582  1.1641
35893SOL     OW10120   4.672   2.826   6.672  0.0829  0.5940  0.6738
35893SOL    HW110121   4.627   2.886   6.613  0.9465 -0.3573 -1.0200
35893SOL    HW210122   4.637   2.739   6.650 -0.0481  0.2712  2.0291
35894SOL     OW10123   1.978   1.701   0.114  0.1088  0.2726 -0.0712
35894SOL    HW110124   1.883   1.712   0.107  0.1397  0.4702 -0.1976
35894SOL    HW210125   1.994   1.687   0.207 -0.1436 -0.7393 -0.1731
35895SOL     OW10126   4.176   9.885   0.941 -0.2185  0.3562  0.4721
35895SOL    HW110127   4.183   9.791   0.924 -0.8319  0.6502 -1.7587
35895SOL    HW210128   4.261   9.920   0.916 -0.9813  0.7335 -1.8686
35896SOL     OW10129   1.417   1.118   3.878  0.2790 -0.0314  0.1866
35896SOL    HW110130   1.505   1.156   3.872 -0.0408  0.4614 -3.4748
35896SOL    HW210131   1.359   1.188   3.849 -1.1209 -1.0500  0.4232
35897SOL     OW10132   9.751   0.704   9.327  0.1271  0.1413 -0.1230
35897SOL    HW110133   9.688   0.667   9.267  0.4408 -0.8557  0.1471
35897SOL    HW210134   9.714   0.688   9.414  0.8338 -0.6348  0.0451
35898SOL     OW10135   3.847   2.308   5.651 -0.4874 -0.8192  0.6699
35898SOL    HW110136   3.899   2.356   5.716  1.1523 -1.4411 -0.1427
35898SOL    HW210137   3.890   2.223   5.643 -1.7152 -1.4212  0.0394
35899SOL     OW10138   3.888   6.536   0.275 -0.0149 -0.2604  0.4369
35899SOL    HW110139   3.874   6.521   0.369 -2.1128 -0.0388  0.2159
35899SOL    HW210140   3.852   6.623   0.259  1.9504  0.4750 -0.2910
35900SOL     OW10141   4.388   1.744   9.208 -0.2843 -0.0279 -0.2185
35900SOL    HW110142   4.424   1.729   9.121  0.1907 -0.0741 -0.0181
35900SOL    HW210143   4.446   1.810   9.247 -1.7662  1.6416 -0.7241
35901SOL     OW10144   1.430   4.684   4.751  0.3152  0.2049 -0.3093
35901SOL    HW110145   1.453   4.648   4.837 -0.9264  1.3597  0.5565
35901SOL    HW210146   1.514   4.704   4.710  1.0382 -2.8524 -0.5305
35902SOL     OW10147   9.335   6.511   1.748  0.7792  0.3638  0.3632
35902SOL    HW110148   9.408   6.477   1.697 -0.9435 -2.1637 -0.5719
35902SOL    HW210149   9.276   6.551   1.683 -0.1703 -0.4967  0.6781
35903SOL     OW10150   4.148   1.577   6.965 -0.5788  0.5293 -0.1558
35903SOL    HW110151   4.086   1.506   6.944 -0.7000  0.7344 -0.4968
35903SOL    HW210152   4.129   1.645   6.900  1.1058 -0.0617 -1.3353
35904SOL     OW10153   5.633   1.994   7.144 -0.1534 -1.0859  0.0746
35904SOL    HW110154   5.598   2.082   7.132  2.3897  0.3936  2.4309
35904SOL    HW210155   5.557   1.942   7.172 -1.4191  0.7254  0.1592
35905SOL     OW10156   5.774   1.255   0.576 -0.0295  0.2116  0.0124
35905SOL    HW110157   5.813   1.337   0.545 -0.0689 -0.3734 -1.6647
35905SOL    HW210158   5.680   1.273   0.577 -0.1479 -0.1731 -1.5914
35906SOL     OW10159   1.377   0.382   1.941  0.0658 -0.1200  0.1099
35906SOL    HW110160   1.409   0.444   1.875 -1.8275  0.5051 -0.2895
35906SOL    HW210161   1.370   0.299   1.894  0.2369 -0.0553 -0.0321
35907SOL     OW10162   2.751   3.832   1.611 -0.1714 -0.0617 -0.0992
35907SOL    HW110163   2.714   3.903   1.665 -1.9633  0.1392 -1.4959
35907SOL    HW210164   2.703   3.754   1.638  1.0660 -0.5854  0.6882
35908SOL     OW10165   5.138   0.751   6.288 -0.1846 -0.0917  0.0553
35908SOL    HW110166   5.197   0.713   6.353 -0.0468  0.8990  0.5135
35908SOL    HW210167   5.190   0.814   6.241 -0.7539  0.4817  0.1769
35909SOL     OW10168   7.257   5.431   8.086 -0.6750  0.1388  0.5584
35909SOL    HW110169   7.236   5.356   8.030 -1.2561  0.5204  0.2640
35909SOL    HW210170   7.332   5.401   8.139 -0.3573 -0.3535 -0.1547
35910SOL     OW10171   0.166   1.583   5.616  0.2347 -0.4829  0.0151
35910SOL    HW110172   0.102   1.553   5.552 -0.1248  0.7056 -0.2030
35910SOL    HW210173   0.124   1.566   5.701  0.0599 -0.6382 -0.1013
35911SOL     OW10174   3.807   6.346   0.775  0.5241  0.5380 -0.1877
35911SOL    HW110175   3.787   6.405   0.847 -0.0370 -1.1116  1.0816
35911SOL    HW210176   3.895   6.314   0.794 -0.6723 -2.1172  1.4888
35912SOL     OW10177   8.098   2.442   6.589 -0.3259 -0.4615  0.8718
35912SOL    HW110178   8.114   2.353   6.558  0.2550 -0.1051  0.1089
35912SOL    HW210179   8.183   2.485   6.583 -0.4432 -0.0592  1.9487
35913SOL     OW10180   9.293  10.428   2.404 -0.3222 -0.6112 -0.2757
35913SOL    HW110181   9.245  10.376   2.468  0.6901 -0.7118  0.4240
35913SOL    HW210182   9.366  10.371   2.378  0.8466  0.4594  0.5579
35914SOL     OW10183   4.164   0.856   6.801 -0.1551 -0.2258 -0.6465
35914SOL    HW110184   4.136   0.777   6.754 -0.0180 -1.1781  0.7868
35914SOL    HW210185   4.121   0.849   6.886  0.0375  1.1583 -0.4130
35915SOL     OW10186   0.473   0.196   1.031 -0.3899  0.2948  0.0709
35915SOL    HW110187   0.562   0.207   1.063  0.2090 -0.3439 -1.3104
35915SOL    HW210188   0.420   0.189   1.111  1.0398 -1.3386  0.9411
35916SOL     OW10189   8.456   0.248   6.588  0.3793  0.0448 -0.1098
35916SOL    HW110190   8.401   0.173   6.610 -0.7268  0.7179 -0.4909
35916SOL    HW210191   8.436   0.313   6.655  1.1336  0.1063  0.0646
35917SOL     OW10192   0.016   6.452   7.818 -0.5384  0.0474 -0.2477
35917SOL    HW110193  -0.033   6.415   7.892 -0.7935 -0.8542 -0.8584
35917SOL    HW210194   0.073   6.518   7.858 -1.5661  0.4503  0.5977
35918SOL     OW10195   1.223   9.337   8.429 -0.4553  0.7434 -0.8505
35918SOL    HW110196   1.204   9.400   8.498 -0.0638  1.7830 -1.6676
35918SOL    HW210197   1.306   9.296   8.456 -1.9873 -1.3653  1.0017
35919SOL     OW10198   3.818   6.501   1.001  0.1653 -0.0759  0.2518
35919SOL    HW110199   3.894   6.461   1.044  0.2087 -1.0202 -0.6508
35919SOL    HW210200   3.826   6.594   1.020  1.1755 -0.2440  0.7469
35920SOL     OW10201   5.929   9.747   5.018  0.2267  0.7622  0.9017
35920SOL    HW110202   5.837   9.773   5.023 -0.4769 -0.9274 -1.6057
35920SOL    HW210203   5.928   9.652   5.033  1.2207  0.3378 -1.3710
35921SOL     OW10204   7.942   0.746   7.546 -0.4717 -0.4073 -0.1420
35921SOL    HW110205   7.997   0.806   7.496 -1.1506  1.5459  1.3016
35921SOL    HW210206   7.972   0.755   7.636 -0.7382 -2.1299  0.1521
35922SOL     OW10207   9.119   2.647  10.229 -0.5528 -0.1704  0.0021
35922SOL    HW110208   9.160   2.562  10.242 -0.0679 -0.0568 -0.7716
35922SOL    HW210209   9.026   2.631  10.248 -0.5198 -0.9426 -0.4270
35923SOL     OW10210   9.252   2.404   7.022  0.0851  0.1296 -0.3560
35923SOL    HW110211   9.299   2.342   6.966 -0.3977  0.5589 -1.2504
35923SOL    HW210212   9.165   2.366   7.032  1.2322 -2.1257  3.5718
35924SOL     OW10213  10.017   6.328   1.280  0.0889  0.0124 -0.1937
35924SOL    HW110214  10.012   6.331   1.375 -0.2546 -1.2549 -0.1465
35924SOL    HW210215  10.110   6.339   1.260 -0.0005  1.6520  0.1939
35925SOL     OW10216   7.645   9.203   0.009 -0.0706 -0.3792  0.3063
35925SOL    HW110217   7.723   9.181   0.060  1.3015  2.2703 -0.4610
35925SOL    HW210218   7.582   9.232   0.074  0.3697 -0.4565  0.7794
35926SOL     OW10219   4.469   0.369   3.553 -0.4800  0.3848 -0.5996
35926SOL    HW110220   4.510   0.377   3.639 -0.5381  0.7869 -0.6066
35926SOL    HW210221   4.426   0.284   3.554  2.2121 -1.1021 -1.3896
35927SOL     OW10222   5.459  10.123   2.628 -0.2369 -0.0013 -0.3803
35927SOL    HW110223   5.366  10.135   2.610  0.3798  2.2338 -2.6188
35927SOL    HW210224   5.492  10.211   2.646  1.4567 -0.7717  0.5813
35928SOL     OW10225   5.675  10.332   1.289  0.1055  0.6253  0.0410
35928SOL    HW110226   5.591  10.336   1.336 -0.5773  0.1805 -1.1072
35928SOL    HW210227   5.662  10.265   1.222  0.9234  1.4935 -1.0242
35929SOL     OW10228   9.472   6.967   0.211  0.7453 -0.7043 -0.2437
35929SOL    HW110229   9.553   6.923   0.235  0.7820 -1.0848 -1.0223
35929SOL    HW210230   9.436   6.998   0.293  0.6919 -2.2429  0.3529
35930SOL     OW10231   5.484   5.547   7.723  0.1664  0.1843  0.2192
35930SOL    HW110232   5.530   5.595   7.792 -1.5298 -0.2705  1.7150
35930SOL    HW210233   5.406   5.512   7.765 -0.6705 -0.5499 -1.8235
35931SOL     OW10234   1.571   1.232   5.507 -0.4230  0.0279 -0.3034
35931SOL    HW110235   1.522   1.246   5.426  2.1543  2.1577 -1.6683
35931SOL    HW210236   1.515   1.269   5.575 -3.2228 -2.9330 -0.7551
35932SOL     OW10237   2.131   0.763   8.259 -0.3415  0.7975 -0.6935
35932SOL    HW110238   2.096   0.795   8.176  0.6441  0.5056 -1.2308
35932SOL    HW210239   2.137   0.668   8.248  2.3866  0.9671 -1.3668
35933SOL     OW10240   8.695   6.647   5.039  0.5436  0.3470  0.3253
35933SOL    HW110241   8.729   6.717   4.983 -0.8768  1.0348  0.2853
35933SOL    HW210242   8.754   6.574   5.024  1.1722  1.0578 -0.7993
35934SOL     OW10243   7.706   3.365   0.982 -0.3338  0.0565 -0.5471
35934SOL    HW110244   7.627   3.418   0.994 -0.2512  0.5071 -1.8217
35934SOL    HW210245   7.778   3.428   0.985 -0.2096 -0.0007 -1.7273
35935SOL     OW10246   7.786   8.269   4.578 -0.1898  0.2747  0.8279
35935SOL    HW110247   7.846   8.317   4.636 -0.1360  1.3095 -0.0562
35935SOL    HW210248   7.773   8.185   4.621  1.7135  0.1178  1.1484
35936SOL     OW10249   2.267   3.612   0.535 -0.1304  0.1270 -0.4913
35936SOL    HW110250   2.220   3.544   0.583  1.3364  0.5837  1.6881
35936SOL    HW210251   2.199   3.677   0.514 -0.7855  0.0781  1.2835
35937SOL     OW10252   6.633   7.125   5.411  0.5967  0.5200  0.3860
35937SOL    HW110253   6.725   7.140   5.390  0.4091  0.2110 -0.7573
35937SOL    HW210254   6.630   7.117   5.506  2.0326 -1.1621  0.3436
35938SOL     OW10255   4.754  10.155   0.952  0.3734 -0.1396 -0.1230
35938SOL    HW110256   4.685  10.215   0.980 -0.0004  0.0691 -1.4290
35938SOL    HW210257   4.800  10.132   1.033 -2.6902 -2.1998  1.1879
35939SOL     OW10258   6.822  10.289   1.326 -0.3733 -0.4560  0.2031
35939SOL    HW110259   6.742  10.342   1.317 -1.7221 -2.0729  1.9161
35939SOL    HW210260   6.863  10.320   1.406  0.4315 -0.0616 -0.3427
35940SOL     OW10261   2.918   3.412   6.948  0.2438 -0.5382  0.1774
35940SOL    HW110262   2.988   3.473   6.974 -1.6061  1.3083  1.1067
35940SOL    HW210263   2.890   3.371   7.030 -0.6540 -0.2381  0.0308
35941SOL     OW10264   6.199   7.690   9.557  0.0438  0.3967  0.1934
35941SOL    HW110265   6.136   7.643   9.612 -1.8222  2.4026 -0.1098
35941SOL    HW210266   6.248   7.744   9.619 -0.7237  1.1867  0.1350
35942SOL     OW10267   1.448   1.905   2.483 -0.5161 -0.5117 -0.1705
35942SOL    HW110268   1.429   1.994   2.453 -1.2338 -0.4365  0.4719
35942SOL    HW210269   1.529   1.913   2.533 -0.5180 -0.2436 -0.2086
35943SOL     OW10270   9.989   8.462   6.691 -0.1132 -0.2045 -0.3600
35943SOL    HW110271   9.944   8.407   6.627 -0.3754  0.3442 -0.6531
35943SOL    HW210272  10.063   8.409   6.720 -1.6819 -1.6963  1.1654
35944SOL     OW10273   2.835   0.115   7.258  0.3229  0.3283  0.3735
35944SOL    HW110274   2.913   0.066   7.230 -0.6461 -2.1959  1.7925
35944SOL    HW210275   2.870   0.192   7.302  2.0056 -0.2116  0.0651
35945SOL     OW10276   2.792   6.480   5.028 -0.1733 -0.2451 -0.2433
35945SOL    HW110277   2.713   6.471   5.081  0.7127 -2.9017  0.8032
35945SOL    HW210278   2.857   6.514   5.089  0.0621 -0.3161 -0.4525
35946SOL     OW10279   3.814   2.317   9.876 -0.0964 -0.3675  0.2327
35946SOL    HW110280   3.720   2.330   9.871 -0.1078 -0.0565  1.0751
35946SOL    HW210281   3.829   2.234   9.831 -1.0112 -1.3514  1.6340
35947SOL     OW10282   0.623   1.514  10.365 -0.1110 -0.0965 -0.0674
35947SOL    HW110283   0.564   1.558  10.427  0.1994 -0.3941  0.4427
35947SOL    HW210284   0.610   1.561  10.282 -0.6156  0.2292  0.1922
35948SOL     OW10285   3.783   9.747   5.654 -0.1645 -0.1314 -0.1855
35948SOL    HW110286   3.741   9.687   5.592 -2.0193 -1.6032  2.3273
35948SOL    HW210287   3.719   9.818   5.666  0.1329  0.0860  0.1467
35949SOL     OW10288   6.523   6.733   5.476 -0.0705  0.0022 -0.2049
35949SOL    HW110289   6.616   6.745   5.493  0.4189 -0.0489 -2.4287
35949SOL    HW210290   6.517   6.732   5.380 -2.6047  1.9313 -0.1731
35950SOL     OW10291   0.150   5.034   3.188  0.3864  0.6441  0.2491
35950SOL    HW110292   0.057   5.021   3.207  0.1464  0.4710 -0.9837
35950SOL    HW210293   0.150   5.093   3.112  1.3063  1.2913  0.7357
35951SOL     OW10294   5.849  10.386   2.576 -0.0711 -0.2734  0.4014
35951SOL    HW110295   5.857  10.444   2.652 -1.0871  0.4093  0.0086
35951SOL    HW210296   5.923  10.326   2.584  1.8450  1.9213  0.0810
35952SOL     OW10297   2.349   8.817   2.394  0.2440  0.0198 -0.0274
35952SOL    HW110298   2.357   8.858   2.308  1.1491 -0.7509 -0.3228
35952SOL    HW210299   2.418   8.857   2.447 -2.9321  3.8128  1.8065
35953SOL     OW10300   9.698   6.805   1.949  0.2629  0.4349  0.3372
35953SOL    HW110301   9.653   6.816   1.865 -3.2875 -2.4840  1.5987
35953SOL    HW210302   9.791   6.800   1.926 -0.3930  1.4883 -3.1332
35954SOL     OW10303   2.932   5.699   2.928  0.0347 -0.2588 -0.0958
35954SOL    HW110304   2.907   5.651   3.007 -0.7546 -1.1830 -0.8726
35954SOL    HW210305   2.978   5.635   2.874  1.0682  0.5172 -0.1575
35955SOL     OW10306   6.642   3.844   9.429 -0.4536  0.4773 -0.0415
35955SOL    HW110307   6.610   3.823   9.516  0.7793  0.6816  0.4912
35955SOL    HW210308   6.676   3.761   9.395 -0.6042  0.4728 -0.1837
35956SOL     OW10309   7.567   8.896   3.531  0.5476 -0.0099  0.0068
35956SOL    HW110310   7.631   8.960   3.500  1.8414 -0.8128  0.9233
35956SOL    HW210311   7.551   8.839   3.455  1.8687 -0.5380  0.1025
35957SOL     OW10312   0.344   8.648   2.836  0.4616  0.0553  0.5585
35957SOL    HW110313   0.400   8.571   2.829 -0.1422 -0.2424 -2.2765
35957SOL    HW210314   0.264   8.617   2.878 -0.0689 -1.1199 -1.1990
35958SOL     OW10315   9.318   4.491   6.663  0.0284  0.4493 -0.1234
35958SOL    HW110316   9.355   4.409   6.694  0.3029  0.3038 -0.8208
35958SOL    HW210317   9.301   4.542   6.743  0.7629  0.1073  0.2583
35959SOL     OW10318   6.884   5.310   1.550 -0.2823  0.2794 -0.1006
35959SOL    HW110319   6.851   5.271   1.631  1.4437  0.9643  0.9962
35959SOL    HW210320   6.835   5.266   1.480 -3.0166  0.8632  1.3432
35960SOL     OW10321   9.999   4.652   9.864  0.0605  0.2803 -0.4241
35960SOL    HW110322  10.026   4.571   9.906  2.2407  1.7728  1.2799
35960SOL    HW210323  10.078   4.684   9.820 -0.6591  1.6059 -0.8067
35961SOL     OW10324  10.228   2.641   4.157 -0.0830  0.2535  0.5564
35961SOL    HW110325  10.204   2.715   4.101 -0.9605  0.0478  0.6394
35961SOL    HW210326  10.174   2.652   4.236  0.0093 -0.2982  0.7009
35962SOL     OW10327   4.373   9.283   3.117 -0.0472 -0.3517 -0.4041
35962SOL    HW110328   4.455   9.234   3.117 -0.7068 -1.4998 -0.5196
35962SOL    HW210329   4.336   9.268   3.030 -1.1551 -1.2426  0.1824
35963SOL     OW10330   9.325  10.475   9.627  0.1079  0.1972  0.4956
35963SOL    HW110331   9.259  10.464   9.558  1.0649  1.2249 -0.6351
35963SOL    HW210332   9.351  10.567   9.620 -0.3493  0.5697  2.8004
35964SOL     OW10333   2.046   7.870   5.635 -0.0959 -0.2316  0.5373
35964SOL    HW110334   2.105   7.908   5.700  0.4833  0.4477 -0.3578
35964SOL    HW210335   2.069   7.777   5.634  2.0287  0.2269 -0.8005
35965SOL     OW10336   2.043   0.408   6.236  0.1029  0.0842 -0.0163
35965SOL    HW110337   1.951   0.379   6.236 -0.4724  1.7637  0.7215
35965SOL    HW210338   2.065   0.415   6.329  1.3282 -1.2649 -0.1847
35966SOL     OW10339   0.666   9.898   9.385 -0.1891 -0.1368 -0.4233
35966SOL    HW110340   0.740   9.955   9.405  0.3361 -0.0867 -2.3344
35966SOL    HW210341   0.677   9.822   9.443  0.1803  0.7970  0.7576
35967SOL     OW10342   2.740   1.422   5.429  0.3299  0.5283 -0.1773
35967SOL    HW110343   2.692   1.343   5.406  0.3484  0.8454 -1.3590
35967SOL    HW210344   2.672   1.485   5.454  0.3141  0.1572  0.7374
35968SOL     OW10345   5.482   1.905   1.236  0.1747 -0.2299 -0.1285
35968SOL    HW110346   5.570   1.916   1.270  0.0191 -0.9231  0.5302
35968SOL    HW210347   5.427   1.958   1.294  0.2580  0.9979 -1.1290
35969SOL     OW10348   1.457   6.364   7.690  0.2726 -0.1623  0.4837
35969SOL    HW110349   1.519   6.291   7.682 -0.4469 -0.7128 -0.1306
35969SOL    HW210350   1.427   6.381   7.601  0.1717  0.6736  0.6634
35970SOL     OW10351   7.893   6.444   2.238 -0.1022 -0.2640 -0.1305
35970SOL    HW110352   7.820   6.426   2.178  0.2832 -1.1829 -0.3466
35970SOL    HW210353   7.965   6.471   2.182  0.0022 -0.2766 -0.0023
35971SOL     OW10354   5.954   3.597   7.622  0.4037  0.2287  0.2176
35971SOL    HW110355   5.923   3.630   7.538  0.9298 -0.5540 -0.2918
35971SOL    HW210356   5.926   3.505   7.624 -1.9825  0.8740  2.0619
35972SOL     OW10357   4.491   8.467   4.047 -0.2669  0.2081 -0.0448
35972SOL    HW110358   4.530   8.527   4.110 -2.1311  1.2565  0.2118
35972SOL    HW210359   4.430   8.414   4.099  1.0010 -1.6256 -0.3519
35973SOL     OW10360   7.119   4.475   5.378  0.0165 -0.4068  0.3330
35973SOL    HW110361   7.209   4.505   5.365 -0.1254 -0.7061 -1.6402
35973SOL    HW210362   7.088   4.523   5.454  1.6598  0.1218  0.7054
35974SOL     OW10363   8.457   5.611   0.212 -0.3951 -0.0355  0.9833
35974SOL    HW110364   8.380   5.666   0.193  0.1790 -0.0305 -1.7767
35974SOL    HW210365   8.524   5.673   0.242 -0.1595  0.6894 -0.8556
35975SOL     OW10366   5.892   1.257   4.738  0.5368 -0.0817 -0.5519
35975SOL    HW110367   5.971   1.311   4.738  0.7605 -0.4014 -0.1401
35975SOL    HW210368   5.909   1.190   4.804  0.3386 -0.7603 -1.1775
35976SOL     OW10369   3.139   1.434   5.527 -0.6075 -0.1109 -0.1891
35976SOL    HW110370   3.058   1.439   5.578  0.3194 -0.8708  1.4293
35976SOL    HW210371   3.180   1.519   5.539 -1.5607  0.6114 -1.7694
35977SOL     OW10372   3.801   0.076   4.546 -0.1624  0.2025  0.2815
35977SOL    HW110373   3.864   0.005   4.553  2.6378  2.6453  1.7409
35977SOL    HW210374   3.718   0.032   4.528  1.4323 -3.3654  0.8122
35978SOL     OW10375   7.845   5.548   8.966 -0.3430  0.2318 -0.3821
35978SOL    HW110376   7.850   5.479   8.900  1.1836  3.0494 -3.4573
35978SOL    HW210377   7.757   5.584   8.957 -0.2562  0.3836 -0.6195
35979SOL     OW10378  10.306   1.243   3.553 -0.6191  0.1736  0.0258
35979SOL    HW110379  10.394   1.282   3.545 -0.3839 -0.0218  1.4195
35979SOL    HW210380  10.247   1.315   3.530 -0.1007  0.3638 -0.7466
35980SOL     OW10381   5.159   6.474   0.273  0.3496 -0.7003  0.5132
35980SOL    HW110382   5.238   6.526   0.257 -0.2073  0.1122  0.3347
35980SOL    HW210383   5.127   6.505   0.357  0.2163 -1.0299  0.5832
35981SOL     OW10384   3.261   8.158   6.116  0.1354  0.4731  0.3003
35981SOL    HW110385   3.344   8.112   6.100  0.9567  2.0349 -0.0527
35981SOL    HW210386   3.282   8.223   6.182 -0.4780  1.7560 -0.7287
35982SOL     OW10387   3.534   7.223   0.946  0.0675 -0.1188  0.1859
35982SOL    HW110388   3.502   7.133   0.938 -0.6146  0.0736  0.6864
35982SOL    HW210389   3.587   7.224   1.025 -1.0520  0.2238  0.9639
35983SOL     OW10390   8.899   8.397   1.895 -0.0044  0.2379  0.1489
35983SOL    HW110391   8.814   8.365   1.864  0.7573 -1.3506 -0.4352
35983SOL    HW210392   8.935   8.444   1.820  0.5132 -0.9303 -0.3615
35984SOL     OW10393   3.641   7.789   2.318 -0.1060  0.4759  0.0068
35984SOL    HW110394   3.736   7.782   2.329 -0.0793 -1.8185 -1.0738
35984SOL    HW210395   3.628   7.870   2.269  1.3110  0.6750 -0.0822
35985SOL     OW10396   9.679   1.117   3.128 -0.0308 -0.1723 -0.1443
35985SOL    HW110397   9.665   1.160   3.044  0.8867 -1.3832 -0.9477
35985SOL    HW210398   9.756   1.061   3.114 -0.3131 -0.9577  1.2814
35986SOL     OW10399   3.936   6.130   2.048  0.8479  0.7863 -0.2881
35986SOL    HW110400   3.897   6.212   2.017 -0.5191  1.0402  1.8653
35986SOL    HW210401   4.025   6.153   2.074 -0.1835  2.1767  2.3055
35987SOL     OW10402   8.539   1.155   7.381 -0.5173  0.3024 -0.1691
35987SOL    HW110403   8.554   1.240   7.341 -0.7669  1.1206  1.4004
35987SOL    HW210404   8.585   1.093   7.324 -0.4572  1.4475 -1.4161
35988SOL     OW10405   0.823   9.064   3.244  0.0047  0.0485  0.6457
35988SOL    HW110406   0.746   9.048   3.189  1.1664 -1.3616 -0.6443
35988SOL    HW210407   0.810   9.006   3.319  0.4633 -1.3070 -0.2815
35989SOL     OW10408   3.806  10.250   6.301 -0.0467 -0.4034  0.5536
35989SOL    HW110409   3.722  10.212   6.275  0.3437 -0.2662 -1.0280
35989SOL    HW210410   3.859  10.175   6.328 -0.0655 -0.7361 -0.2842
35990SOL     OW10411   8.820   1.982   9.448  0.1356 -0.5047 -0.2509
35990SOL    HW110412   8.774   1.903   9.419  1.0089 -0.2472 -2.5743
35990SOL    HW210413   8.758   2.025   9.507 -0.6891 -2.4754  0.4259
35991SOL     OW10414   7.364   1.408   7.832  0.0046  0.4880  0.0973
35991SOL    HW110415   7.424   1.334   7.821 -0.4570  0.0076  0.7472
35991SOL    HW210416   7.404   1.479   7.782 -0.7612 -0.8634 -2.6575
35992SOL     OW10417   1.436   1.528   7.707 -0.1167 -0.4617  0.2925
35992SOL    HW110418   1.504   1.461   7.699  0.4755  0.2180 -0.5433
35992SOL    HW210419   1.375   1.492   7.771  0.4962 -1.5388  0.3029
35993SOL     OW10420   8.228   1.444   5.210 -0.1093 -0.4879  0.0634
35993SOL    HW110421   8.189   1.361   5.235  0.6996 -0.4924  1.4031
35993SOL    HW210422   8.293   1.462   5.278  0.1426  0.9507 -0.5119
35994SOL     OW10423   3.877   2.753   6.886  0.8475  0.0659 -0.5171
35994SOL    HW110424   3.852   2.843   6.862 -0.5205  0.0011  0.5562
35994SOL    HW210425   3.815   2.728   6.954  1.5438 -1.5227 -0.4226
35995SOL     OW10426   2.132   9.267   6.194  1.1568 -0.1911 -0.3729
35995SOL    HW110427   2.148   9.204   6.124  0.6452 -0.2575 -0.4363
35995SOL    HW210428   2.217   9.310   6.208  1.6386 -1.2428  0.0266
35996SOL     OW10429   9.411   6.385   7.740  0.2662  0.0581  0.0663
35996SOL    HW110430   9.408   6.293   7.716  0.4022  0.2204 -0.5835
35996SOL    HW210431   9.331   6.400   7.789  0.3473 -0.4564  0.3638
35997SOL     OW10432   8.213   3.182   4.535  0.1708 -0.0194 -0.2132
35997SOL    HW110433   8.122   3.154   4.545  0.4993 -0.8727  0.5420
35997SOL    HW210434   8.216   3.224   4.450 -0.8741 -0.2413 -0.3714
35998SOL     OW10435   9.446   4.899   2.952 -0.3742  0.1952 -0.5082
35998SOL    HW110436   9.429   4.805   2.946  1.7617 -0.3199  0.6672
35998SOL    HW210437   9.456   4.927   2.861  1.3261 -1.2236 -0.7982
35999SOL     OW10438   5.580   6.914   9.873  0.0329 -0.4666 -0.3727
35999SOL    HW110439   5.623   6.931   9.957 -0.5054 -2.2968  0.3266
35999SOL    HW210440   5.514   6.847   9.893  0.7093 -1.8709 -2.4743
36000SOL     OW10441   6.016   3.545   1.030  0.1009 -0.2002 -0.0417
36000SOL    HW110442   5.935   3.498   1.048 -0.4896  0.7126 -0.2761
36000SOL    HW210443   6.027   3.602   1.106  1.1984 -1.1927  0.5912
36001SOL     OW10444   3.942   8.007   4.833  0.1009 -0.2010  0.0210
36001SOL    HW110445   3.887   7.968   4.765  1.5582  1.6403 -2.3254
36001SOL    HW210446   3.888   8.076   4.871 -0.1347 -0.1371 -0.4254
36002SOL     OW10447   4.506   4.210   2.455  0.0389  0.5253  0.1699
36002SOL    HW110448   4.464   4.244   2.376  1.5558  1.1258 -0.4128
36002SOL    HW210449   4.460   4.253   2.527 -0.4417  1.0428 -0.4327
36003SOL     OW10450  10.322   0.422   2.125 -0.0850  0.4073 -0.9758
36003SOL    HW110451  10.336   0.482   2.052 -0.2945 -0.0692 -1.4200
36003SOL    HW210452  10.274   0.348   2.086  1.0199 -0.5030 -0.6741
36004SOL     OW10453   9.050   5.072   6.429  0.3267 -0.2503  0.3500
36004SOL    HW110454   8.993   5.082   6.353  0.6996 -0.4930  0.0341
36004SOL    HW210455   9.112   5.003   6.404  2.3989  1.7069 -0.3335
36005SOL     OW10456   4.624   2.468   7.782 -0.1863  0.2701  0.6107
36005SOL    HW110457   4.575   2.485   7.701 -0.9792  0.1034  1.0356
36005SOL    HW210458   4.711   2.442   7.752 -0.3386  0.6161 -0.1741
36006SOL     OW10459   0.133   0.546   4.924  0.0308 -0.3686 -0.4288
36006SOL    HW110460   0.213   0.495   4.911 -0.3057 -0.7024 -1.2522
36006SOL    HW210461   0.139   0.578   5.014  2.0145  1.2193 -1.0408
36007SOL     OW10462   5.934   9.497   2.234 -0.5766  0.0537  0.2977
36007SOL    HW110463   5.932   9.471   2.326  2.1963 -1.0776  0.1316
36007SOL    HW210464   5.980   9.426   2.190  1.0255  2.0055 -1.3955
36008SOL     OW10465   8.991   2.387   9.059  0.4412 -0.0488  0.0969
36008SOL    HW110466   8.984   2.448   9.132 -2.3727  0.3462 -0.4225
36008SOL    HW210467   8.959   2.304   9.094  1.8858 -0.6481  0.0836
36009SOL     OW10468   5.114   7.468   8.334  0.1780 -0.2345  0.6727
36009SOL    HW110469   5.032   7.460   8.285  0.8910 -0.0941 -0.5654
36009SOL    HW210470   5.086   7.473   8.426 -1.0485 -3.2367  0.5764
36010SOL     OW10471   1.120   0.735   1.054  0.0355 -0.8485  0.1124
36010SOL    HW110472   1.126   0.773   0.966 -0.4164 -0.8608  0.0729
36010SOL    HW210473   1.108   0.641   1.038 -3.1721 -0.5574  0.0606
36011SOL     OW10474   5.142   7.336   3.231 -0.2633  0.2495  0.9113
36011SOL    HW110475   5.173   7.245   3.238 -0.7503 -0.0186 -0.2716
36011SOL    HW210476   5.048   7.330   3.245 -0.8008  0.1126 -2.2162
36012SOL     OW10477   1.513  10.481   8.475 -0.0976 -0.0366  0.3695
36012SOL    HW110478   1.513  10.427   8.554  2.1356 -2.5475 -1.1660
36012SOL    HW210479   1.602  10.518   8.472  0.2285 -0.8516 -1.4292
36013SOL     OW10480   0.596   7.235   8.737 -0.0369  0.0636 -0.1030
36013SOL    HW110481   0.527   7.271   8.682 -0.2186 -1.8922 -1.2152
36013SOL    HW210482   0.677   7.252   8.688 -0.2410 -2.0917 -1.2774
36014SOL     OW10483   4.037   6.932   4.721  0.2351  0.0797  0.5801
36014SOL    HW110484   4.058   6.959   4.632 -1.1145  0.0444  0.2229
36014SOL    HW210485   4.012   6.840   4.713 -0.9130  0.3529  0.7988
36015SOL     OW10486  10.397   9.590   3.881  0.1284  0.1883  0.0909
36015SOL    HW110487  10.440   9.593   3.966 -0.9159  1.7041  0.6013
36015SOL    HW210488  10.335   9.518   3.887  0.1832  0.1819  0.5588
36016SOL     OW10489   6.794   6.784   8.246  0.1163 -0.1258  0.0174
36016SOL    HW110490   6.809   6.708   8.190 -2.2323 -0.8428  0.2249
36016SOL    HW210491   6.768   6.746   8.331  0.7062  0.9220  0.6809
36017SOL     OW10492   3.127   8.492   5.388 -0.1968  0.0822 -0.4233
36017SOL    HW110493   3.196   8.557   5.389  0.6482 -0.7888  0.1876
36017SOL    HW210494   3.078   8.509   5.307  0.7608  0.6828 -0.8910
36018SOL     OW10495   9.863  10.197   6.494 -0.6921  0.4992 -0.1984
36018SOL    HW110496   9.933  10.135   6.473 -0.9574  0.8158 -2.2012
36018SOL    HW210497   9.907  10.270   6.537  0.1623  0.5383 -1.1222
36019SOL     OW10498   3.543   9.691   3.252  0.1465  0.2169  0.2764
36019SOL    HW110499   3.605   9.635   3.207 -1.0121 -1.5299  0.7238
36019SOL    HW210500   3.457   9.660   3.222 -0.5466  1.6423  0.7002
36020SOL     OW10501   2.131   8.888   4.734 -0.3128  0.1058  0.4402
36020SOL    HW110502   2.208   8.943   4.720 -0.2402 -0.3090 -1.0341
36020SOL    HW210503   2.073   8.910   4.661  0.2516 -2.6174 -0.9761
36021SOL     OW10504   2.757   5.312   6.062 -0.0982 -0.6918  0.1030
36021SOL    HW110505   2.664   5.306   6.085 -0.5277  2.4236 -0.4768
36021SOL    HW210506   2.762   5.281   5.972 -0.8059  0.2833 -0.2807
36022SOL     OW10507   9.117   6.424   2.884  0.2967 -0.4100 -0.0208
36022SOL    HW110508   9.071   6.500   2.847 -1.2386 -1.0554  0.4510
36022SOL    HW210509   9.177   6.461   2.948  0.4095  0.4720 -0.6121
36023SOL     OW10510   2.628   9.605   6.847  0.5630  0.5710  0.0950
36023SOL    HW110511   2.595   9.521   6.815  0.3477 -0.0884  1.9511
36023SOL    HW210512   2.706   9.583   6.898  1.3885  1.6803 -0.6382
36024SOL     OW10513   0.371   1.235  10.421  0.4685  0.7134 -0.4688
36024SOL    HW110514   0.302   1.171  10.403  0.0469  0.6020  1.3444
36024SOL    HW210515   0.348   1.272  10.507  1.9393  1.6527 -0.4381
36025SOL     OW10516   8.359   8.218   4.460  0.0480 -0.0107  0.6157
36025SOL    HW110517   8.367   8.165   4.539  1.5347 -0.9882 -0.1479
36025SOL    HW210518   8.366   8.154   4.388  0.2063  1.0262 -0.3089
36026SOL     OW10519   8.475   6.044   8.203 -0.3581  0.1651  0.1909
36026SOL    HW110520   8.550   6.102   8.190 -1.5115  1.8339  0.6060
36026SOL    HW210521   8.399   6.097   8.178 -1.5628 -0.7782  1.6567
36027SOL     OW10522   2.840   7.516   5.676 -0.5199  0.2609 -0.2681
36027SOL    HW110523   2.856   7.608   5.694 -1.2422  0.4548 -0.5681
36027SOL    HW210524   2.745   7.510   5.663 -0.7375 -0.8416  1.5301
36028SOL     OW10525   2.115   7.580   5.658 -0.1880 -0.9767 -0.0579
36028SOL    HW110526   2.042   7.544   5.607  0.7779 -1.8964 -0.8210
36028SOL    HW210527   2.193   7.554   5.610  0.6681 -0.2219  0.8884
36029SOL     OW10528   4.959   5.478   4.224 -0.3204 -0.6696 -0.2273
36029SOL    HW110529   4.917   5.408   4.174  0.7649 -0.7613 -1.0551
36029SOL    HW210530   4.911   5.480   4.307 -1.7387 -0.9694 -0.9929
36030SOL     OW10531   4.798   8.913   0.902  0.0614 -0.0337 -0.3972
36030SOL    HW110532   4.891   8.924   0.924 -0.1412  1.8909 -0.3575
36030SOL    HW210533   4.781   8.820   0.918  1.6147 -0.1334  1.0269
36031SOL     OW10534   0.266   8.989   0.178  0.5568 -0.3553 -0.2743
36031SOL    HW110535   0.220   8.908   0.200 -2.4757  0.9307 -1.3008
36031SOL    HW210536   0.291   8.978   0.087  2.3502 -0.9901  0.2396
36032SOL     OW10537  10.486   3.023   0.065 -0.1484  0.0025 -0.1723
36032SOL    HW110538  10.580   3.010   0.074 -0.2803  0.0798  1.7553
36032SOL    HW210539  10.477   3.094   0.000  1.1376  0.3414  0.0038
36033SOL     OW10540   7.908   3.723   0.766 -0.3533 -0.1887  0.6292
36033SOL    HW110541   7.854   3.773   0.704 -0.9658  1.4316  2.3750
36033SOL    HW210542   7.998   3.751   0.748 -0.4271 -0.3791 -0.0669
36034SOL     OW10543   7.766   9.619   2.157  0.2623 -0.0387  0.2239
36034SOL    HW110544   7.842   9.656   2.201  0.7170 -1.4536  0.6868
36034SOL    HW210545   7.715   9.579   2.227 -1.0357  1.0391 -0.0586
36035SOL     OW10546   2.904   7.120   2.432  0.4933 -0.0444  0.7139
36035SOL    HW110547   2.948   7.039   2.459  1.4040 -0.1354 -0.9103
36035SOL    HW210548   2.975   7.183   2.421 -0.0537  0.5291  0.4038
36036SOL     OW10549   6.019   2.222   2.827 -0.5538  0.3943 -0.1062
36036SOL    HW110550   6.031   2.295   2.887  1.6231 -0.5282  0.6797
36036SOL    HW210551   5.946   2.173   2.863 -0.9415  1.2530  0.2964
36037SOL     OW10552   8.486   7.032   0.098 -0.2731 -0.3881 -0.1582
36037SOL    HW110553   8.580   7.044   0.085 -0.5737  2.9113 -0.0933
36037SOL    HW210554   8.479   6.962   0.162  2.1658 -0.2001  0.4014
36038SOL     OW10555   5.991   8.153   7.253 -0.0344 -0.2377  0.2994
36038SOL    HW110556   6.042   8.089   7.304 -0.3818 -1.1318 -0.4452
36038SOL    HW210557   5.908   8.108   7.236 -2.3515  2.1462  3.8611
36039SOL     OW10558   8.075   4.573   7.182 -0.3494  0.5386  0.1779
36039SOL    HW110559   8.003   4.616   7.136 -0.7405 -0.1583  0.1312
36039SOL    HW210560   8.117   4.643   7.232 -2.4133  0.5880  1.9596
36040SOL     OW10561   2.083   8.853   0.597 -0.1744 -0.3000  0.1883
36040SOL    HW110562   2.025   8.888   0.665  0.3857 -0.5581  0.8121
36040SOL    HW210563   2.029   8.851   0.518 -0.8537 -0.0496  0.6373
36041SOL     OW10564   0.013   3.971   8.321 -0.2372 -0.1823 -0.6906
36041SOL    HW110565  -0.020   3.883   8.335 -1.2182  0.1480 -0.9035
36041SOL    HW210566   0.073   3.986   8.395 -0.8104 -0.6689 -0.1164
36042SOL     OW10567   6.867  10.042   4.657 -0.3261 -0.1315  0.0974
36042SOL    HW110568   6.906  10.098   4.724  1.1979 -0.5927 -0.3644
36042SOL    HW210569   6.793  10.092   4.624  1.2678  1.8482 -0.6453
36043SOL     OW10570   5.066   0.620   4.575  0.0885  0.4120  0.2788
36043SOL    HW110571   5.102   0.690   4.628 -2.0538  2.2178 -0.4881
36043SOL    HW210572   5.142   0.579   4.533  1.4342  1.9512  1.1077
36044SOL     OW10573   0.374   0.354   9.073  0.1573  0.5959  0.1910
36044SOL    HW110574   0.290   0.360   9.118  0.6151 -0.6889  1.2882
36044SOL    HW210575   0.357   0.300   8.996 -0.3728  1.7987 -0.5582
36045SOL     OW10576   0.131   3.645   8.931  0.0216  0.5978 -0.0174
36045SOL    HW110577   0.186   3.722   8.910  0.3687  0.2223 -0.5099
36045SOL    HW210578   0.091   3.667   9.015  0.0179  1.3771 -0.2142
36046SOL     OW10579   6.281   8.306   6.850 -0.4877 -0.3033  0.3571
36046SOL    HW110580   6.373   8.322   6.829 -0.3673 -0.1562  0.9654
36046SOL    HW210581   6.278   8.311   6.946 -1.2910  0.6039  0.3015
36047SOL     OW10582   6.181   8.157   9.665  0.1283  0.0482  0.2080
36047SOL    HW110583   6.188   8.251   9.648 -1.2573  0.0844 -0.3485
36047SOL    HW210584   6.233   8.116   9.596 -0.2832  0.3845 -0.3119
36048SOL     OW10585   8.316   8.155   5.587  0.2548  0.6977  0.2414
36048SOL    HW110586   8.354   8.215   5.524  1.3492  0.0988  0.3116
36048SOL    HW210587   8.287   8.210   5.659  2.3291  1.0565  0.8516
36049SOL     OW10588   8.586   8.986   7.098  0.1473 -0.6083 -0.6831
36049SOL    HW110589   8.572   8.917   7.162 -0.8996 -0.6607 -0.9504
36049SOL    HW210590   8.499   9.021   7.081  0.5712  0.2802 -1.1052
36050SOL     OW10591   2.745   1.923   2.771  0.1504  0.3263 -0.2383
36050SOL    HW110592   2.735   1.937   2.676 -1.1086 -0.6363 -0.2669
36050SOL    HW210593   2.764   2.011   2.805 -3.9797  1.6919 -0.8409
36051SOL     OW10594   6.753   3.243   3.219  0.3447 -0.3755 -0.4128
36051SOL    HW110595   6.846   3.265   3.220  0.2666  0.0966  1.7882
36051SOL    HW210596   6.709   3.322   3.248 -0.3086 -1.8205  3.0720
36052SOL     OW10597   6.736   8.863   7.582  0.2139 -0.0813 -0.1391
36052SOL    HW110598   6.796   8.923   7.537 -0.3282 -1.2875 -2.6500
36052SOL    HW210599   6.694   8.917   7.649 -0.9731  2.7121 -2.8734
36053SOL     OW10600   1.499   3.556   9.743  0.1855  0.0759 -0.1522
36053SOL    HW110601   1.502   3.650   9.762  0.7932  0.5649 -2.3601
36053SOL    HW210602   1.413   3.543   9.703  0.0260 -0.3606  0.3212
36054SOL     OW10603   8.626   7.596   6.471  0.2552  0.4770 -0.5286
36054SOL    HW110604   8.569   7.618   6.545  0.4631  0.2910 -0.3083
36054SOL    HW210605   8.614   7.668   6.409  1.0126  1.2827  0.2228
36055SOL     OW10606   6.595   5.627   3.142  0.2409  0.2160  0.0162
36055SOL    HW110607   6.609   5.703   3.198 -1.8901  0.6264  0.0466
36055SOL    HW210608   6.683   5.591   3.130  1.0462  1.4722  1.6669
36056SOL     OW10609   5.443   0.747   0.507  0.4632  0.2533 -0.3168
36056SOL    HW110610   5.425   0.682   0.575 -1.3157 -1.9796 -2.7027
36056SOL    HW210611   5.462   0.695   0.429 -0.6026  2.6121 -2.2838
36057SOL     OW10612   7.823   8.326   4.083 -0.3873  0.0366  0.2144
36057SOL    HW110613   7.848   8.234   4.077 -1.2612 -0.3666  2.0427
36057SOL    HW210614   7.731   8.328   4.056  0.5171  1.0249 -3.4126
36058SOL     OW10615   7.394   1.768   5.984 -0.2770 -0.4457  1.0004
36058SOL    HW110616   7.300   1.769   5.998 -0.4434 -0.9030 -0.0447
36058SOL    HW210617   7.423   1.684   6.020 -0.7150 -1.6513 -1.3007
36059SOL     OW10618   0.430   5.460   8.115 -0.1743 -0.4921  0.0726
36059SOL    HW110619   0.395   5.459   8.026  0.2687  0.1286 -0.1194
36059SOL    HW210620   0.457   5.369   8.132  0.8952 -0.3862 -0.9130
36060SOL     OW10621   9.579   6.318   8.011 -0.0855  0.0650 -0.3460
36060SOL    HW110622   9.584   6.229   7.977  0.6931  0.3233 -0.9364
36060SOL    HW210623   9.531   6.367   7.944 -2.2879 -0.2968  0.8632
36061SOL     OW10624   8.188  10.463   2.759 -0.7033 -0.0290  0.2415
36061SOL    HW110625   8.144  10.527   2.703  0.7375  0.0088 -0.9214
36061SOL    HW210626   8.120  10.400   2.781 -1.2779 -0.2595 -1.8995
36062SOL     OW10627   4.488   8.739   9.605 -0.3122  0.5123  0.1055
36062SOL    HW110628   4.489   8.834   9.610 -0.2075  0.5872 -1.0722
36062SOL    HW210629   4.552   8.718   9.537  0.8604 -0.4935  1.4544
36063SOL     OW10630   6.271   2.408   9.637  0.4202  0.4134  0.1287
36063SOL    HW110631   6.219   2.362   9.703 -0.9363  0.1211 -1.0957
36063SOL    HW210632   6.362   2.393   9.663 -0.0606  0.8245  2.2581
36064SOL     OW10633   7.334   6.171   7.601 -0.1886 -0.6249  0.9724
36064SOL    HW110634   7.357   6.078   7.600  0.2700 -0.5227 -0.6787
36064SOL    HW210635   7.417   6.216   7.589 -0.5702 -0.0560  0.4264
36065SOL     OW10636   1.519   8.029  10.298 -0.0737  0.2477  0.0080
36065SOL    HW110637   1.546   8.092  10.365 -0.8013  1.1449 -0.5137
36065SOL    HW210638   1.548   7.944  10.331  0.2845  0.7717  1.0772
36066SOL     OW10639   6.014   9.612   3.267  0.6691  0.3088  0.1078
36066SOL    HW110640   6.081   9.599   3.200  1.1620  1.9228  0.2536
36066SOL    HW210641   5.946   9.663   3.222 -0.8200 -1.8275 -0.2280
36067SOL     OW10642   7.701   8.645   1.226 -0.5406 -0.0616  0.1477
36067SOL    HW110643   7.615   8.682   1.245  0.3999  2.8768 -0.7149
36067SOL    HW210644   7.760   8.689   1.288  0.2897 -2.7446  1.4072
36068SOL     OW10645   4.566   3.436  10.292  0.1789 -0.1175 -0.2614
36068SOL    HW110646   4.524   3.365  10.243  0.3953 -0.0681 -0.5258
36068SOL    HW210647   4.636   3.393  10.341  1.0325  0.0573 -1.2826
36069SOL     OW10648   8.985   1.308   9.628  0.1676 -0.0684  0.2454
36069SOL    HW110649   8.909   1.365   9.630  0.1306 -0.0639 -0.9231
36069SOL    HW210650   8.983   1.262   9.712 -1.6284 -0.7222 -0.1195
36070SOL     OW10651   4.462   5.172   1.381  0.1723 -0.3323  0.0777
36070SOL    HW110652   4.515   5.112   1.434 -0.8514 -1.7946 -0.4988
36070SOL    HW210653   4.512   5.182   1.299  1.2292  1.0958  0.8327
36071SOL     OW10654   2.893   4.439   4.664 -0.8035  0.1568 -0.2973
36071SOL    HW110655   2.850   4.472   4.585 -3.6524 -0.0858  0.9903
36071SOL    HW210656   2.821   4.404   4.717  1.3323 -2.5046  1.1045
36072SOL     OW10657   3.550   0.139   5.533  0.0884  0.3348 -0.0595
36072SOL    HW110658   3.468   0.188   5.541 -0.1661 -0.2793  1.3794
36072SOL    HW210659   3.610   0.184   5.592  0.0173 -0.7057  0.8368
36073SOL     OW10660   4.593   8.427  10.087 -0.3749 -0.9022 -0.3134
36073SOL    HW110661   4.562   8.464  10.170  0.2260 -0.3709 -0.3192
36073SOL    HW210662   4.513   8.413  10.037 -0.6140  1.2205 -0.6431
36074SOL     OW10663   3.085   4.677   4.116 -0.5807 -0.7478 -0.1484
36074SOL    HW110664   3.090   4.750   4.054  0.6634 -0.0659  0.7244
36074SOL    HW210665   3.006   4.629   4.090 -2.0704  1.5273 -0.0567
36075SOL     OW10666   0.266   5.431   5.603 -0.3150  0.0999  0.2978
36075SOL    HW110667   0.234   5.427   5.513  1.2468  0.2171 -0.3050
36075SOL    HW210668   0.284   5.524   5.618  1.5198 -0.1408 -0.1023
36076SOL     OW10669   0.965   5.466   4.985  0.5729  0.2239  0.0529
36076SOL    HW110670   1.003   5.551   4.962  0.0590 -0.3708 -3.6257
36076SOL    HW210671   1.037   5.404   4.975  0.4713 -0.0278  0.8015
36077SOL     OW10672   0.852   1.736   7.355  0.2027  0.0651 -0.7582
36077SOL    HW110673   0.774   1.691   7.387 -0.9092  2.1209 -0.4218
36077SOL    HW210674   0.869   1.695   7.270 -0.4953 -1.2335 -0.3052
36078SOL     OW10675   8.185   3.466   0.268 -0.3974  0.1891  0.0935
36078SOL    HW110676   8.114   3.406   0.288 -0.0201 -0.1090  0.5547
36078SOL    HW210677   8.224   3.432   0.188 -0.0817 -0.2800  0.4423
36079SOL     OW10678   8.355   8.291   9.563  0.3843 -0.1976 -0.3506
36079SOL    HW110679   8.359   8.386   9.552 -0.8870 -0.2283 -1.2392
36079SOL    HW210680   8.332   8.278   9.655 -2.3015  0.4707 -0.8488
36080SOL     OW10681   2.688  10.411   3.376  0.5976  0.1465 -0.2329
36080SOL    HW110682   2.710  10.372   3.291 -0.7087 -0.2531 -0.4151
36080SOL    HW210683   2.600  10.378   3.395 -0.8947  3.4459 -0.6775
36081SOL     OW10684   8.459   3.054   9.826  0.0509  0.4902 -0.2883
36081SOL    HW110685   8.385   3.109   9.854 -0.2313 -0.5765  1.1699
36081SOL    HW210686   8.451   2.974   9.878  0.8076 -0.7044 -1.9018
36082SOL     OW10687   6.399   0.643   6.938 -0.0588  0.2930 -0.1193
36082SOL    HW110688   6.471   0.705   6.948 -0.0050 -0.1409  5.7815
36082SOL    HW210689   6.320   0.697   6.939  0.0330  0.4547 -0.7692
36083SOL     OW10690   6.540   8.861   5.084  0.3024  0.3025  0.3509
36083SOL    HW110691   6.494   8.832   5.005 -1.9898  0.4722  1.5324
36083SOL    HW210692   6.512   8.951   5.097  0.4503  0.1999  1.4762
36084SOL     OW10693   3.101   8.748   2.273 -0.2249 -0.1598 -0.5770
36084SOL    HW110694   3.106   8.661   2.234  1.3367 -0.3828  0.0293
36084SOL    HW210695   3.010   8.757   2.302 -0.4787 -1.4665 -0.9078
36085SOL     OW10696   5.512   7.072   1.237  0.1934  0.5306 -0.0581
36085SOL    HW110697   5.607   7.081   1.236  0.0753  2.1363 -1.0265
36085SOL    HW210698   5.483   7.124   1.312  0.0474  0.6186 -0.1732
36086SOL     OW10699   4.272   5.853   9.330  0.2074 -0.2966  0.2679
36086SOL    HW110700   4.352   5.894   9.298 -0.8302  1.2156 -0.4850
36086SOL    HW210701   4.244   5.907   9.403  0.3169 -1.3331  1.1058
36087SOL     OW10702   8.340   1.072   7.594 -0.0658  0.2282 -0.2263
36087SOL    HW110703   8.425   1.077   7.550  0.4901 -0.2853  0.7615
36087SOL    HW210704   8.352   1.118   7.676 -1.0722  1.0980 -0.5428
36088SOL     OW10705   4.520   3.702   1.335 -0.6393  0.0694 -0.2252
36088SOL    HW110706   4.499   3.612   1.311 -0.9832 -0.5659  2.1674
36088SOL    HW210707   4.435   3.746   1.341 -0.4930  0.4802 -1.0811
36089SOL     OW10708   1.347   4.842   2.322 -0.5262  0.0163 -0.4490
36089SOL    HW110709   1.421   4.788   2.294 -0.3361 -0.9637  1.6965
36089SOL    HW210710   1.289   4.845   2.246  1.5410  0.5745 -2.1063
36090SOL     OW10711   8.562   6.702   8.968 -0.6537 -0.4000 -0.3952
36090SOL    HW110712   8.567   6.608   8.984 -1.8061 -0.4035  0.0299
36090SOL    HW210713   8.469   6.722   8.971 -0.5853  0.4409 -2.4293
36091SOL     OW10714   7.746   1.743   7.834 -0.2861  0.1892  0.3428
36091SOL    HW110715   7.820   1.683   7.824 -2.7620 -3.0279 -0.3153
36091SOL    HW210716   7.760   1.784   7.920  3.1111  1.1704 -0.5419
36092SOL     OW10717   7.941   7.801   2.525 -0.2447  0.1639  0.4739
36092SOL    HW110718   7.850   7.774   2.514 -0.2456 -0.1061  1.1306
36092SOL    HW210719   7.992   7.735   2.477 -0.4693  1.1950 -1.2740
36093SOL     OW10720   9.080   9.772   0.755 -0.8156  0.4153  0.5648
36093SOL    HW110721   8.994   9.795   0.720 -1.0032 -0.5455  0.3763
36093SOL    HW210722   9.068   9.771   0.850 -0.9737  0.4278  0.5452
36094SOL     OW10723   8.082   3.323   5.461 -0.6483 -0.4428  0.0821
36094SOL    HW110724   8.006   3.366   5.422 -0.1050  1.5089  1.0546
36094SOL    HW210725   8.156   3.355   5.410  0.0218  1.8142  2.3231
36095SOL     OW10726   4.854   5.204  10.106  0.0210 -0.2641  0.4677
36095SOL    HW110727   4.876   5.294  10.129  2.1034 -1.3174  3.2391
36095SOL    HW210728   4.935   5.167  10.071 -1.3081 -0.6672 -2.4929
36096SOL     OW10729   9.673   8.501   3.618  0.0757 -0.1497 -0.6762
36096SOL    HW110730   9.655   8.595   3.616 -0.9380 -0.1510  2.6039
36096SOL    HW210731   9.591   8.461   3.587 -0.1155  0.0451 -0.4339
36097SOL     OW10732  10.367   8.803   5.552  0.4689 -0.5108  0.1344
36097SOL    HW110733  10.397   8.768   5.636 -0.7727  0.8889  1.2230
36097SOL    HW210734  10.282   8.842   5.572  0.4372  0.4383 -1.6513
36098SOL     OW10735   4.014   6.609   4.674  0.6732  0.1235 -0.0177
36098SOL    HW110736   3.986   6.549   4.605  1.6372 -1.4821  0.9160
36098SOL    HW210737   3.983   6.569   4.755  0.0971  1.6551  0.5501
36099SOL     OW10738   4.421   5.455   4.469  0.4036 -0.2822  0.1709
36099SOL    HW110739   4.424   5.514   4.544  1.4666 -1.1638  0.8569
36099SOL    HW210740   4.447   5.370   4.505 -0.9496 -1.1388 -0.8243
36100SOL     OW10741   0.214   1.697   8.086 -0.2463  0.2645  0.1352
36100SOL    HW110742   0.286   1.739   8.039 -0.6797 -0.3883 -1.1576
36100SOL    HW210743   0.256   1.643   8.152  0.3429  2.3007  1.5189
36101SOL     OW10744   0.051   9.651   4.110 -0.0078  0.1981 -0.3370
36101SOL    HW110745   0.057   9.713   4.183 -0.9134  0.9601 -0.8802
36101SOL    HW210746   0.142   9.624   4.094  0.4172  1.4014 -0.0897
36102SOL     OW10747   5.323   4.104   4.637 -0.1050  1.0153 -0.2977
36102SOL    HW110748   5.248   4.076   4.585  0.5173 -0.2350 -0.5748
36102SOL    HW210749   5.376   4.156   4.577 -0.1780  0.9099 -0.4534
36103SOL     OW10750   5.965   2.107   4.477 -0.2911  0.4304 -0.2113
36103SOL    HW110751   6.000   2.123   4.565  0.9083  2.9010 -1.0282
36103SOL    HW210752   5.881   2.063   4.491  0.0829  0.3777  2.1417
36104SOL     OW10753   7.842   2.688   9.383  0.1451 -0.0417  0.9507
36104SOL    HW110754   7.905   2.616   9.373  1.4426  0.9650  1.6847
36104SOL    HW210755   7.882   2.747   9.447 -1.6368  0.5497  1.5794
36105SOL     OW10756   3.973   7.552   3.684 -0.1081  0.5053 -0.0530
36105SOL    HW110757   3.878   7.555   3.696 -0.2385 -1.3100 -0.3435
36105SOL    HW210758   4.001   7.474   3.732  1.1666  0.6569 -0.4962
36106SOL     OW10759   7.441  10.470   0.225 -0.1049  0.0831  0.1664
36106SOL    HW110760   7.386  10.399   0.190  0.1349  0.6098 -1.3864
36106SOL    HW210761   7.416  10.547   0.174 -1.3800  1.5309  2.7690
36107SOL     OW10762   4.736   1.534   5.637 -0.5536  0.3608 -0.1857
36107SOL    HW110763   4.706   1.556   5.549 -1.0221 -0.6617 -0.2875
36107SOL    HW210764   4.826   1.504   5.626 -0.9031 -0.6032 -0.4328
36108SOL     OW10765   3.660   9.855   5.948 -0.2111 -0.3104  0.0463
36108SOL    HW110766   3.611   9.783   5.989 -2.0519  0.8441  0.0113
36108SOL    HW210767   3.624   9.862   5.860 -1.2590  1.6492  0.5673
36109SOL     OW10768  10.201   8.544  10.021  0.4647  0.0428 -0.1832
36109SOL    HW110769  10.234   8.588  10.100 -0.3509  0.8574 -0.2733
36109SOL    HW210770  10.207   8.611   9.952  2.3075 -1.0171 -1.1334
36110SOL     OW10771   8.324   6.026   9.049 -0.0104 -0.0624  0.2952
36110SOL    HW110772   8.250   6.080   9.075 -0.4363  0.5074 -1.9191
36110SOL    HW210773   8.335   6.043   8.955  1.6811 -1.6305  0.1472
36111SOL     OW10774   5.960   7.587   3.303 -0.0729  0.9080 -0.2082
36111SOL    HW110775   5.961   7.623   3.215 -0.2286 -0.9031 -0.9946
36111SOL    HW210776   5.867   7.581   3.325 -0.0811  0.3650 -0.3700
36112SOL     OW10777   7.848   4.886   4.486 -0.1605 -1.0699  0.1844
36112SOL    HW110778   7.904   4.860   4.412  1.3509 -0.3007  1.0106
36112SOL    HW210779   7.772   4.926   4.445  1.4112  0.9165 -1.0011
36113SOL     OW10780   7.497   9.921   8.849  0.8067  0.1836  0.9790
36113SOL    HW110781   7.589   9.924   8.876  1.0593 -1.5888  0.4668
36113SOL    HW210782   7.480   9.828   8.836 -0.4689  0.6393 -0.9569
36114SOL     OW10783   6.969   6.462   7.560 -0.1889 -0.2666 -0.4829
36114SOL    HW110784   6.928   6.512   7.489  0.7028  0.5360 -0.4529
36114SOL    HW210785   7.041   6.517   7.589  0.9738 -1.6818 -0.5801
36115SOL     OW10786   2.602   3.424   7.889  0.0158  0.2247  0.1385
36115SOL    HW110787   2.663   3.355   7.862 -1.7803 -0.8913 -1.3256
36115SOL    HW210788   2.581   3.471   7.808  0.6320  2.0856  0.9912
36116SOL     OW10789   3.936   5.683   8.841  0.3819  0.1503 -0.4709
36116SOL    HW110790   4.031   5.696   8.844  0.3048  0.7220 -0.4560
36116SOL    HW210791   3.924   5.616   8.774  0.5876  2.2718 -2.7852
36117SOL     OW10792   1.612   3.801   2.086 -0.0972  0.6129  0.1397
36117SOL    HW110793   1.684   3.808   2.024  1.3648 -1.0590  1.5453
36117SOL    HW210794   1.587   3.709   2.083 -0.4646  0.6521  1.5387
36118SOL     OW10795   9.329   1.034   3.444  0.1685 -0.2568 -0.0475
36118SOL    HW110796   9.314   1.125   3.421 -0.5878 -0.5621 -0.8368
36118SOL    HW210797   9.424   1.022   3.437  0.3039  0.5310  0.3420
36119SOL     OW10798   3.983   0.729   1.903  0.0832  0.0402  0.2522
36119SOL    HW110799   3.958   0.670   1.833 -0.0908  0.4846 -0.0633
36119SOL    HW210800   4.076   0.711   1.918  0.9233  1.9144 -2.0624
36120SOL     OW10801   4.352   7.070   6.798 -0.2092  0.7448 -0.0483
36120SOL    HW110802   4.380   7.152   6.758  0.4548 -0.1465 -1.4925
36120SOL    HW210803   4.418   7.052   6.865  1.2902 -0.0132 -1.6627
36121SOL     OW10804   6.141   4.173   0.841 -0.2160  0.1202 -0.0156
36121SOL    HW110805   6.202   4.120   0.789  1.5452  0.2516  1.7724
36121SOL    HW210806   6.083   4.213   0.777  0.9041 -0.8737 -1.7327
36122SOL     OW10807  10.370   5.775   6.603  0.5784  0.1196 -0.0303
36122SOL    HW110808  10.366   5.785   6.698  1.5354  0.1855  0.0130
36122SOL    HW210809  10.327   5.853   6.568 -0.0041 -0.0279  0.3454
36123SOL     OW10810   4.657   3.342   7.153  0.3767  0.0083  0.0892
36123SOL    HW110811   4.735   3.327   7.099  1.0372  0.6215  0.8515
36123SOL    HW210812   4.651   3.437   7.161 -0.8452  0.0003 -0.5113
36124SOL     OW10813   4.302   3.300   1.522  0.3188  0.0590  0.0148
36124SOL    HW110814   4.258   3.285   1.606 -0.5235 -1.4461 -0.6516
36124SOL    HW210815   4.355   3.221   1.509  0.4251  0.2689 -0.8620
36125SOL     OW10816   6.767   6.692   8.495 -0.0867  0.2384 -0.2426
36125SOL    HW110817   6.708   6.621   8.518  0.5678 -0.3128 -0.2297
36125SOL    HW210818   6.849   6.672   8.541  0.1890  0.8602 -0.4421
36126SOL     OW10819   4.175   4.179   2.395 -0.3257  0.0435 -0.2867
36126SOL    HW110820   4.244   4.212   2.337 -1.1145  1.6464 -0.3873
36126SOL    HW210821   4.110   4.250   2.396 -0.9132 -0.4790  1.5607
36127SOL     OW10822   1.060   0.169   1.525  0.7128  0.0828  0.3752
36127SOL    HW110823   1.127   0.215   1.575 -1.0984  0.6531  2.4485
36127SOL    HW210824   1.052   0.084   1.567 -0.5594  0.4134  0.8479
36128SOL     OW10825   8.303   4.591   7.478 -0.3114  0.1881  0.0446
36128SOL    HW110826   8.220   4.630   7.451 -0.2313 -0.8588 -1.9405
36128SOL    HW210827   8.330   4.641   7.555 -2.2985  1.1672  0.1513
36129SOL     OW10828  10.084   5.503   2.796  0.2550  0.2869 -0.5628
36129SOL    HW110829  10.026   5.509   2.872 -1.5242 -0.5442 -1.7803
36129SOL    HW210830  10.091   5.593   2.765 -0.4474  0.3975 -0.4279
36130SOL     OW10831   3.342   2.239   9.562  0.4283  0.4295  0.0803
36130SOL    HW110832   3.405   2.177   9.524  0.2061  0.1375  0.1830
36130SOL    HW210833   3.290   2.269   9.488  0.7761  0.7832 -0.0290
36131SOL     OW10834   7.754   3.271   2.582  0.4699 -0.6364 -0.0452
36131SOL    HW110835   7.691   3.335   2.549  0.0005 -0.0723  1.8381
36131SOL    HW210836   7.835   3.319   2.591  0.0822 -0.2328  1.5017
36132SOL     OW10837   3.993   5.320   3.164  0.1354 -0.2746 -0.3132
36132SOL    HW110838   3.955   5.306   3.077 -1.4829  0.3912  0.2446
36132SOL    HW210839   3.947   5.258   3.220  0.7320 -0.2772  0.1712
36133SOL     OW10840   9.725  10.309   1.167  0.8557 -0.2249  0.2443
36133SOL    HW110841   9.754  10.350   1.085 -0.2988 -0.1459 -0.1435
36133SOL    HW210842   9.708  10.217   1.143 -3.3288  0.5958 -0.6830
36134SOL     OW10843   6.264   8.355   1.288 -0.1939 -0.4467 -0.8099
36134SOL    HW110844   6.256   8.403   1.206 -0.2162 -0.1092 -0.6101
36134SOL    HW210845   6.237   8.266   1.266  0.4522 -0.5266 -1.3313
36135SOL     OW10846   6.906   7.167   0.527 -0.3374  0.2313  0.7198
36135SOL    HW110847   6.923   7.119   0.609  0.7488 -0.4815  0.1134
36135SOL    HW210848   6.937   7.108   0.458 -0.3106  1.2193 -0.1456
36136SOL     OW10849   1.366   3.904   8.648 -0.3775  0.2484  0.1435
36136SOL    HW110850   1.443   3.860   8.612 -0.6997 -2.2701  2.2470
36136SOL    HW210851   1.401   3.960   8.718 -0.4188 -0.9567  1.1532
36137SOL     OW10852   9.134   2.113   7.183 -0.2375  0.2896 -0.5058
36137SOL    HW110853   9.222   2.125   7.217  0.7800  0.0534 -2.8793
36137SOL    HW210854   9.095   2.047   7.241  0.7094  1.1754  1.2241
36138SOL     OW10855   5.225   5.626   5.030 -0.4252 -0.3590  0.2476
36138SOL    HW110856   5.165   5.654   5.099  0.9529 -0.9433  1.7630
36138SOL    HW210857   5.304   5.679   5.044 -0.4627  0.2462 -1.5589
36139SOL     OW10858  10.477   9.150   1.084  0.8053 -0.2004 -0.0626
36139SOL    HW110859  10.454   9.242   1.095 -0.6361 -0.3779 -1.2518
36139SOL    HW210860  10.450   9.109   1.167 -2.6086 -0.2219 -1.0287
36140SOL     OW10861   5.384   5.308   0.435  0.2610  0.2017  0.1248
36140SOL    HW110862   5.303   5.297   0.385 -0.2961 -2.5676  1.4267
36140SOL    HW210863   5.452   5.267   0.380 -0.1291 -1.6920  0.9599
36141SOL     OW10864   9.628   1.795   4.781  0.0026 -0.1987  0.3886
36141SOL    HW110865   9.551   1.851   4.790 -0.2873 -0.6797  0.9914
36141SOL    HW210866   9.603   1.732   4.712 -0.0841 -0.2565  0.4723
36142SOL     OW10867   9.224   3.212   9.526 -0.3220 -0.1810 -0.4344
36142SOL    HW110868   9.252   3.234   9.615  1.0342  2.6518 -1.4335
36142SOL    HW210869   9.161   3.280   9.503  1.6761  1.0996 -2.6280
36143SOL     OW10870   6.985   0.215   7.067  0.4368  0.5516 -0.2140
36143SOL    HW110871   6.929   0.290   7.047 -0.3825 -0.4575 -1.8677
36143SOL    HW210872   6.938   0.166   7.134  0.0503  0.5100 -0.5141
36144SOL     OW10873   4.670   1.736   7.910  0.1455 -0.3051  0.4096
36144SOL    HW110874   4.617   1.731   7.830  2.2804 -2.0744 -1.0111
36144SOL    HW210875   4.675   1.829   7.930 -2.1756  0.0388 -0.2504
36145SOL     OW10876   7.527   4.848   9.146 -0.1119 -0.0415  0.4199
36145SOL    HW110877   7.556   4.817   9.232 -0.4525  0.2567  0.6420
36145SOL    HW210878   7.465   4.782   9.116 -0.4329  0.1473  0.6604
36146SOL     OW10879   1.560   1.629   9.810  0.1146 -0.2778 -0.1205
36146SOL    HW110880   1.533   1.608   9.900 -2.3497 -1.0707 -0.9419
36146SOL    HW210881   1.551   1.546   9.763 -1.2590  0.6675 -1.6219
36147SOL     OW10882   9.022  10.028   7.190 -0.1276 -0.3068  0.0622
36147SOL    HW110883   9.097  10.078   7.223  1.8701 -0.6131 -3.4898
36147SOL    HW210884   8.988  10.082   7.118 -1.8248 -1.2911  0.0783
36148SOL     OW10885   0.219   8.937   7.145  0.0299  0.6733  0.6476
36148SOL    HW110886   0.221   8.934   7.240 -0.3531 -0.8305  0.6351
36148SOL    HW210887   0.252   9.024   7.123  1.1588  0.6559  2.1142
36149SOL     OW10888   0.027   5.750   5.433 -0.4046  0.2676 -0.8388
36149SOL    HW110889   0.045   5.835   5.474 -0.9740  1.2039 -2.4091
36149SOL    HW210890  -0.064   5.731   5.457 -0.2634  0.0785 -0.4508
36150SOL     OW10891   1.218   3.888   0.723  0.5014 -0.6607 -0.8176
36150SOL    HW110892   1.297   3.934   0.751 -0.7819 -0.0800  2.2197
36150SOL    HW210893   1.153   3.957   0.708 -0.4196 -1.2692  0.2434
36151SOL     OW10894   7.530   8.215  10.472  0.5162  0.2470 -0.5970
36151SOL    HW110895   7.533   8.250  10.561  0.3687 -1.6366  0.1824
36151SOL    HW210896   7.546   8.121  10.482  0.7785  0.0370 -2.5927
36152SOL     OW10897   7.238   3.625  10.414  0.2712 -0.0026 -0.4131
36152SOL    HW110898   7.199   3.557  10.360  0.6714  0.0188 -0.7368
36152SOL    HW210899   7.331   3.623  10.392  0.4623 -0.0717  0.3629
36153SOL     OW10900   8.341   5.997   8.770 -1.0306  0.3044  0.3953
36153SOL    HW110901   8.316   6.045   8.691  0.2930 -1.4872 -1.2121
36153SOL    HW210902   8.269   5.935   8.784  0.1265 -1.6360 -1.4695
36154SOL     OW10903   6.626   4.244   4.415  0.1896 -0.0024 -0.2066
36154SOL    HW110904   6.718   4.269   4.420  0.3105 -0.4658 -0.0447
36154SOL    HW210905   6.615   4.212   4.326  0.2872 -0.3395 -0.0969
36155SOL     OW10906   7.135   6.713   7.583 -0.5782 -0.7626  0.2487
36155SOL    HW110907   7.218   6.665   7.582  0.3047  0.6890  0.2685
36155SOL    HW210908   7.155   6.794   7.630 -2.9277 -1.8841  3.5784
36156SOL     OW10909   0.643   3.230  10.161  0.5107  0.4973 -0.3290
36156SOL    HW110910   0.737   3.228  10.145  0.6053 -1.0829  0.2096
36156SOL    HW210911   0.605   3.185  10.086  0.3538 -0.3638  0.2442
36157SOL     OW10912   6.981   0.417   5.915 -0.6360 -0.4910  0.4244
36157SOL    HW110913   7.029   0.339   5.944  1.5269  0.9773  1.0915
36157SOL    HW210914   6.999   0.482   5.984 -0.4868  1.2445 -1.1895
36158SOL     OW10915   1.139   3.521   3.821  0.3135 -0.3738  0.4888
36158SOL    HW110916   1.161   3.428   3.816  1.6009 -0.2321  2.5155
36158SOL    HW210917   1.182   3.560   3.745 -0.0111 -1.3694 -0.2344
36159SOL     OW10918   6.285   1.769   3.691 -0.4319  0.2166  0.6690
36159SOL    HW110919   6.291   1.812   3.776 -0.1399  1.1633  0.1862
36159SOL    HW210920   6.330   1.686   3.702 -1.1166 -0.0316  1.6633
36160SOL     OW10921   9.534   6.001  10.466 -0.4656  0.3623  0.2881
36160SOL    HW110922   9.525   6.094  10.444  0.8466  0.4613  0.0790
36160SOL    HW210923   9.523   5.998  10.561  1.6730  1.0878  0.6147
36161SOL     OW10924   4.938   5.761   3.717  0.2133  0.1074 -0.4369
36161SOL    HW110925   4.940   5.707   3.796  1.4665  0.3981 -0.2498
36161SOL    HW210926   4.995   5.715   3.656 -0.1363  0.2898 -0.9014
36162SOL     OW10927   9.981   8.448   1.854  0.1612  0.3691 -0.3536
36162SOL    HW110928   9.941   8.450   1.767  0.1961 -3.7416 -0.6534
36162SOL    HW210929  10.076   8.446   1.836  0.1482 -1.3241 -0.3087
36163SOL     OW10930   7.299   1.831   4.620  0.5282  0.0870  0.1332
36163SOL    HW110931   7.309   1.738   4.639  0.5795 -0.2878 -1.5711
36163SOL    HW210932   7.388   1.862   4.602  0.2230 -0.2313 -2.1454
36164SOL     OW10933  10.312   6.505   1.684 -0.0116  0.3699  0.0012
36164SOL    HW110934  10.357   6.567   1.742  0.2845 -0.0227  0.1980
36164SOL    HW210935  10.225   6.542   1.673  0.4887  1.3555 -0.7303
36165SOL     OW10936   1.161   8.797   9.546  0.1614 -0.1269 -0.4038
36165SOL    HW110937   1.100   8.793   9.620  1.7686 -0.0588  0.9940
36165SOL    HW210938   1.189   8.706   9.533 -1.2075 -0.3671 -1.9386
36166SOL     OW10939   9.518   1.697   2.179 -0.1469  0.5316  0.4197
36166SOL    HW110940   9.531   1.792   2.172 -0.3620  0.5393  0.1295
36166SOL    HW210941   9.591   1.667   2.234  0.3266  0.7679 -0.0709
36167SOL     OW10942  10.200   1.685   4.196  0.0710 -0.0566  0.0892
36167SOL    HW110943  10.152   1.604   4.181 -2.9641  1.5526  0.3138
36167SOL    HW210944  10.211   1.724   4.110  0.5475 -0.1510  0.1003
36168SOL     OW10945   7.814   9.729   1.529  0.5083  0.3924  0.7912
36168SOL    HW110946   7.761   9.718   1.608  0.3749  2.2949  1.0040
36168SOL    HW210947   7.807   9.644   1.485 -0.0152 -0.4831  2.4337
36169SOL     OW10948   1.901   2.988   5.930 -0.6209 -0.5452 -0.2967
36169SOL    HW110949   1.943   2.931   5.996  1.0049  2.1217  1.1600
36169SOL    HW210950   1.955   2.977   5.852  1.8487  1.3288  0.9704
36170SOL     OW10951   3.390   5.244   3.407 -0.1041 -0.2743 -0.8493
36170SOL    HW110952   3.310   5.224   3.456 -0.6310  0.5968 -1.3245
36170SOL    HW210953   3.461   5.215   3.465 -0.7446 -0.4906 -0.1504
36171SOL     OW10954   1.575   3.988   6.757 -0.1817 -0.2209  0.1507
36171SOL    HW110955   1.556   3.974   6.665 -0.6437  1.6128 -0.0743
36171SOL    HW210956   1.631   4.065   6.758 -1.1398  0.5047  1.4486
36172SOL     OW10957  10.476   3.365   7.381 -0.0439  0.1189  0.1557
36172SOL    HW110958  10.524   3.362   7.464 -0.0945  1.1187  0.2382
36172SOL    HW210959  10.418   3.441   7.390  0.8805  1.0335 -1.2811
36173SOL     OW10960   5.700   5.275   6.342 -0.6650  0.4609 -0.1761
36173SOL    HW110961   5.696   5.326   6.261  0.6430  1.2332  0.2192
36173SOL    HW210962   5.719   5.186   6.314 -0.1697  0.7317 -0.7182
36174SOL     OW10963   2.558   3.885   1.033 -0.0810  0.7156  0.2987
36174SOL    HW110964   2.639   3.925   1.001  0.2728  0.9127  1.4040
36174SOL    HW210965   2.577   3.861   1.123 -0.8492 -0.4295  0.1709
36175SOL     OW10966   0.677   6.897   2.866  0.0645 -0.3772 -0.8957
36175SOL    HW110967   0.626   6.844   2.926 -0.3080  1.8667  0.9321
36175SOL    HW210968   0.748   6.933   2.920 -0.1831  1.5899 -1.7779
36176SOL     OW10969   6.315   4.515   1.235 -0.0262  0.1222  0.1662
36176SOL    HW110970   6.288   4.423   1.245 -1.0017  0.4769  0.9627
36176SOL    HW210971   6.290   4.556   1.317  0.6861  1.0514 -0.0666
36177SOL     OW10972   5.074   6.900   4.269 -0.5802 -0.7960  0.2073
36177SOL    HW110973   5.017   6.971   4.241 -0.1784 -0.1888  0.8958
36177SOL    HW210974   5.077   6.841   4.194 -0.0622  0.4524 -0.7965
36178SOL     OW10975   2.345   4.229   2.251 -0.1833 -0.2244  0.4576
36178SOL    HW110976   2.279   4.206   2.316 -0.6243  1.7218  0.7506
36178SOL    HW210977   2.429   4.219   2.296 -0.4937  1.2478  1.3892
36179SOL     OW10978   7.930   0.968   6.650  0.0362 -0.1592 -0.6866
36179SOL    HW110979   7.960   0.896   6.705  0.8382  0.1386 -0.7186
36179SOL    HW210980   7.847   0.937   6.613 -0.6251 -0.2851  0.8387
36180SOL     OW10981   9.409   9.538   0.012 -0.1847  0.3246  0.9075
36180SOL    HW110982   9.336   9.584  -0.029  0.8444 -0.1854 -1.7796
36180SOL    HW210983   9.487   9.576  -0.030  0.7699 -2.9189 -0.5915
36181SOL     OW10984   7.014   5.314   4.615 -0.2893  0.2100  0.2992
36181SOL    HW110985   6.955   5.364   4.671 -0.1007 -0.1333  0.8141
36181SOL    HW210986   7.071   5.379   4.575 -1.3890  0.6095 -0.6718
36182SOL     OW10987   5.829   4.451   1.830 -0.0695  0.5836 -0.5203
36182SOL    HW110988   5.878   4.369   1.836  0.9313  1.1745 -0.4540
36182SOL    HW210989   5.747   4.426   1.788 -1.1578 -1.0162  2.3329
36183SOL     OW10990   7.842   2.997   4.049  0.6355 -0.3293  0.2580
36183SOL    HW110991   7.872   3.041   4.129  2.1756  0.6892 -0.8341
36183SOL    HW210992   7.917   2.944   4.022  0.0690 -0.7769 -0.4491
36184SOL     OW10993   6.862   5.814   4.849  0.6494  0.3180 -0.2014
36184SOL    HW110994   6.932   5.877   4.830 -0.3904  1.7877  0.6425
36184SOL    HW210995   6.788   5.868   4.876  0.5942 -1.3271  3.5304
36185SOL     OW10996   6.836   7.941   3.872  0.3395  0.1923 -0.3116
36185SOL    HW110997   6.849   8.033   3.893  3.3594  0.0708 -1.2264
36185SOL    HW210998   6.854   7.895   3.954 -0.3856  0.3481 -0.0568
36186SOL     OW10999   9.819   2.698   7.807 -0.2593  0.3358 -0.0397
36186SOL    HW111000   9.884   2.672   7.872  0.8460  0.0890 -1.2053
36186SOL    HW211001   9.734   2.676   7.847  0.4470 -1.1429  0.7070
36187SOL     OW11002   0.171   6.911   5.421 -0.1391  0.1956 -0.0982
36187SOL    HW111003   0.218   6.887   5.341 -0.2553 -2.1159  0.4737
36187SOL    HW211004   0.085   6.941   5.391  0.1025  0.1221 -0.8741
36188SOL     OW11005   9.186   0.154  10.342  0.0396 -0.5217  0.2762
36188SOL    HW111006   9.219   0.064  10.338  1.4047 -0.0165 -1.2438
36188SOL    HW211007   9.108   0.149  10.396 -0.4327 -2.7821 -0.5121
36189SOL     OW11008   1.839   0.979   9.813 -0.3895 -0.4227 -0.5710
36189SOL    HW111009   1.932   0.990   9.829 -0.6181  1.0207 -0.0993
36189SOL    HW211010   1.798   0.988   9.899 -1.2040  2.1847 -1.1495
36190SOL     OW11011   5.977   2.241  10.350  0.1330  0.4401  0.1665
36190SOL    HW111012   5.984   2.171  10.415  0.7839 -1.1313 -1.5071
36190SOL    HW211013   5.920   2.306  10.392  0.5249 -0.4738  2.2839
36191SOL     OW11014   2.175   9.601   7.125 -0.4098 -0.1306  0.7017
36191SOL    HW111015   2.156   9.545   7.200 -2.0532 -0.4332  0.1146
36191SOL    HW211016   2.205   9.541   7.057 -0.5662 -0.0844  0.5909
36192SOL     OW11017   3.239   2.682   2.146 -0.2411  0.1151  0.1346
36192SOL    HW111018   3.278   2.741   2.081  0.7955 -0.7280 -0.0459
36192SOL    HW211019   3.187   2.739   2.202 -0.1941  1.0311 -0.7182
36193SOL     OW11020   2.253   9.178   2.113 -0.3029  0.3250 -0.4058
36193SOL    HW111021   2.271   9.270   2.129 -5.0926  1.5435 -0.3950
36193SOL    HW211022   2.263   9.168   2.018 -1.9645  1.5977 -0.7674
36194SOL     OW11023   1.718   3.489   3.273 -0.1406  0.3058 -0.0142
36194SOL    HW111024   1.654   3.558   3.290  0.6585  0.9281  0.5915
36194SOL    HW211025   1.798   3.520   3.316  0.5154 -0.5349 -0.5936
36195SOL     OW11026   9.806   0.749   0.071 -0.2201 -0.1004 -0.3176
36195SOL    HW111027   9.777   0.772  -0.017  0.9927  0.5145 -0.5775
36195SOL    HW211028   9.765   0.815   0.128 -1.8165 -1.0841 -0.2602
36196SOL     OW11029  10.377   0.557   2.371 -0.0310  0.1890 -0.3684
36196SOL    HW111030  10.379   0.538   2.278  0.5242  0.6338 -0.4499
36196SOL    HW211031  10.313   0.627   2.381 -0.0656  0.1636 -0.4193
36197SOL     OW11032  10.181   3.773   4.562  0.0988 -0.0510  0.0366
36197SOL    HW111033  10.187   3.860   4.602 -0.3221 -0.2688  0.5926
36197SOL    HW211034  10.121   3.785   4.488  1.5193  0.5324 -1.0707
36198SOL     OW11035   1.828   3.368   2.844  0.3128 -0.0286 -0.3672
36198SOL    HW111036   1.885   3.372   2.920  0.8484  2.0674 -0.8106
36198SOL    HW211037   1.766   3.298   2.863 -0.8602  1.7193  2.9204
36199SOL     OW11038   5.735   4.801   1.674 -0.1324  0.2242  0.2671
36199SOL    HW111039   5.663   4.763   1.725  1.7915 -1.8915  1.6181
36199SOL    HW211040   5.770   4.728   1.624  1.3117  1.0983 -0.0525
36200SOL     OW11041   2.970   2.172   9.206  0.0676  0.5146 -0.4130
36200SOL    HW111042   2.922   2.192   9.126  0.6018  0.2675 -0.8052
36200SOL    HW211043   2.912   2.113   9.255  0.3747 -0.6214 -1.3544
36201SOL     OW11044   6.933   3.654   0.996 -1.2958 -0.5504 -0.3809
36201SOL    HW111045   6.852   3.663   0.946 -1.7812  0.7152  0.5784
36201SOL    HW211046   6.994   3.611   0.936 -2.3753 -0.6316 -1.4495
36202SOL     OW11047   3.261   5.617  10.156 -0.3106  0.4861 -0.6690
36202SOL    HW111048   3.291   5.551  10.094  0.7138  0.0034  0.2934
36202SOL    HW211049   3.167   5.604  10.161 -0.1486 -0.8336 -0.6136
36203SOL     OW11050   3.461   4.921   8.618  0.4540  0.1368 -0.3277
36203SOL    HW111051   3.473   5.010   8.652  0.9081  0.8184 -2.1793
36203SOL    HW211052   3.547   4.880   8.630  0.3315  0.0310  0.2395
36204SOL     OW11053   4.870   7.750   0.841 -0.3255 -0.4194 -0.1305
36204SOL    HW111054   4.832   7.690   0.776 -1.9907 -0.6422  1.0044
36204SOL    HW211055   4.806   7.753   0.912  1.2158  0.2179  1.2960
36205SOL     OW11056   0.195   4.729   9.364  0.3738 -0.1581 -0.2547
36205SOL    HW111057   0.191   4.757   9.273 -1.1193 -1.3556 -0.6074
36205SOL    HW211058   0.108   4.693   9.381  0.3342  0.8430  1.9207
36206SOL     OW11059   1.887   5.039   0.366  0.7707 -0.1932  0.3679
36206SOL    HW111060   1.885   4.969   0.432  1.0503 -0.6559 -0.1053
36206SOL    HW211061   1.916   5.117   0.414  0.5640 -0.4241  0.8768
36207SOL     OW11062   4.934   4.956   6.488 -0.1980  0.2432 -0.0917
36207SOL    HW111063   4.865   4.910   6.535 -1.8353  3.3934  0.8379
36207SOL    HW211064   5.015   4.923   6.526 -1.2197 -1.9741  0.3228
36208SOL     OW11065   7.782   0.966   0.494 -0.4206  0.2225 -0.6131
36208SOL    HW111066   7.848   0.902   0.521 -0.6902 -0.0147 -0.5213
36208SOL    HW211067   7.832   1.031   0.444  0.1346  0.8362  0.7074
36209SOL     OW11068   3.890   4.905   9.286  0.2315 -0.0826  0.2676
36209SOL    HW111069   3.843   4.982   9.254 -1.8566 -1.0690  0.8226
36209SOL    HW211070   3.916   4.927   9.375 -0.2533  0.0318  0.3818
36210SOL     OW11071   9.134   5.334   2.319 -0.3813 -0.1382 -0.2281
36210SOL    HW111072   9.188   5.409   2.344 -0.4239  0.4132 -1.6816
36210SOL    HW211073   9.070   5.371   2.257  0.3131 -1.5493 -1.8769
36211SOL     OW11074   2.276   2.534   9.090  0.0522  0.5080  0.2058
36211SOL    HW111075   2.253   2.532   8.997 -0.6764  0.4413  0.3782
36211SOL    HW211076   2.362   2.575   9.093  1.9143 -2.9657 -0.8180
36212SOL     OW11077   1.527   9.104   4.160 -0.4527  0.2000  0.3539
36212SOL    HW111078   1.534   9.146   4.245 -0.2217  0.6000  0.1404
36212SOL    HW211079   1.515   9.176   4.098 -0.5885 -0.0839  0.0432
36213SOL     OW11080   6.922   2.710   0.911  0.0803 -0.8021  0.1126
36213SOL    HW111081   6.876   2.657   0.976 -0.9522 -0.3019 -0.1781
36213SOL    HW211082   6.852   2.759   0.867  0.8935 -0.1066 -0.4351
36214SOL     OW11083   5.810   6.879   7.691  0.1464  0.4008 -0.1930
36214SOL    HW111084   5.783   6.946   7.754 -2.1392 -0.8101  0.2263
36214SOL    HW211085   5.897   6.906   7.663  0.6158  1.8255  2.3180
36215SOL     OW11086   9.647   3.265   4.653  0.4406 -0.2614  0.1727
36215SOL    HW111087   9.619   3.354   4.632 -1.2014 -1.2520 -2.2164
36215SOL    HW211088   9.579   3.232   4.712  2.1554  0.6508  2.8695
36216SOL     OW11089   2.435   1.105   6.124  0.3208  0.2705 -0.6651
36216SOL    HW111090   2.355   1.157   6.129  0.4020  0.3489 -0.1065
36216SOL    HW211091   2.441   1.079   6.032  0.3788  1.3989 -0.9995
36217SOL     OW11092   8.760   1.392   6.276  0.1011  0.1522 -0.0013
36217SOL    HW111093   8.701   1.333   6.323 -0.7224  0.3784 -0.7093
36217SOL    HW211094   8.829   1.412   6.338  0.2871 -1.3924  0.3247
36218SOL     OW11095   8.670   1.891   4.615  0.1563 -0.1426 -0.4240
36218SOL    HW111096   8.642   1.810   4.572 -1.2173  0.2683 -0.3428
36218SOL    HW211097   8.719   1.938   4.547  1.7487 -1.4133 -0.2026
36219SOL     OW11098   4.745   9.556   5.366  0.0973  0.3623  0.4247
36219SOL    HW111099   4.723   9.646   5.345  0.3486  0.4075  0.3546
36219SOL    HW211100   4.732   9.550   5.461  0.9199  0.7136  0.5713
36220SOL     OW11101   4.153   8.915   1.441  0.2287  0.1560 -0.5650
36220SOL    HW111102   4.155   8.829   1.399 -1.6382  0.8899 -2.3047
36220SOL    HW211103   4.151   8.977   1.368 -1.1305  1.5827  0.6208
36221SOL     OW11104   7.353   8.323   4.474 -0.6024  0.3188 -0.6355
36221SOL    HW111105   7.432   8.275   4.496  0.8702  2.5265 -0.8093
36221SOL    HW211106   7.296   8.258   4.432  0.8924 -1.4262 -0.0755
36222SOL     OW11107   1.656   0.729   7.734  0.2694 -0.4209  0.1575
36222SOL    HW111108   1.711   0.805   7.754  0.0701  0.3425 -1.9197
36222SOL    HW211109   1.568   0.756   7.761  0.3726 -0.3396  0.4173
36223SOL     OW11110  10.490  10.359   9.215  0.1847  0.3688 -0.1291
36223SOL    HW111111  10.528  10.320   9.136 -1.6574  1.3563 -1.5899
36223SOL    HW211112  10.504  10.453   9.205  0.1365  0.4943  0.8564
36224SOL     OW11113   7.542   2.462   8.518 -0.3244  0.4519 -0.0139
36224SOL    HW111114   7.608   2.456   8.449 -0.7151  2.5667 -0.6161
36224SOL    HW211115   7.475   2.399   8.492  0.4326 -0.1682 -0.5243
36225SOL     OW11116   5.950   7.735   5.987 -0.5249  0.5964 -0.0428
36225SOL    HW111117   5.972   7.716   6.078 -2.1016  0.2320  0.2775
36225SOL    HW211118   5.903   7.657   5.957 -2.5978  1.8575 -0.2533
36226SOL     OW11119   2.414   7.341   9.957 -0.2204  0.7343  0.5492
36226SOL    HW111120   2.410   7.436   9.955 -0.0413  0.7541  1.0324
36226SOL    HW211121   2.331   7.313   9.995 -0.1333  0.7143  0.7270
36227SOL     OW11122   2.000   4.308   5.093 -0.1607 -0.0891 -0.2569
36227SOL    HW111123   2.019   4.399   5.115  0.4311 -0.0719 -0.8192
36227SOL    HW211124   1.956   4.274   5.171 -1.0204  0.8598 -0.2961
36228SOL     OW11125   6.656   2.993   5.649  0.2337  0.4698  0.3314
36228SOL    HW111126   6.716   2.974   5.577 -0.3599  0.1566 -0.0831
36228SOL    HW211127   6.693   2.945   5.723  1.5652  1.8114  0.5922
36229SOL     OW11128   2.820   3.743   4.849  0.0609  0.7322  0.6853
36229SOL    HW111129   2.873   3.758   4.927  1.2839  1.8207 -0.2901
36229SOL    HW211130   2.738   3.708   4.881  0.9684  0.0375  2.3623
36230SOL     OW11131   3.531   4.328  10.195 -0.4734 -0.1725  0.2673
36230SOL    HW111132   3.591   4.338  10.121 -1.3154 -1.2255 -0.5931
36230SOL    HW211133   3.481   4.409  10.198 -0.3245 -0.0648 -0.2162
36231SOL     OW11134   9.727   8.964   8.267  0.2096  0.4167 -0.3970
36231SOL    HW111135   9.790   9.020   8.313 -0.6724  0.6178  0.6212
36231SOL    HW211136   9.712   9.009   8.183  0.2815  1.1706 -0.0164
36232SOL     OW11137   9.523   2.936   0.956 -0.0750 -0.5107 -0.0531
36232SOL    HW111138   9.548   2.969   1.043  0.7806  1.2993 -0.9341
36232SOL    HW211139   9.436   2.899   0.969 -1.1116  2.0886  1.0848
36233SOL     OW11140   0.567   2.878   4.410 -0.1650  0.3047 -0.0687
36233SOL    HW111141   0.490   2.918   4.448 -0.4173 -0.8384  0.6704
36233SOL    HW211142   0.534   2.828   4.335 -0.0475  0.3524 -0.1532
36234SOL     OW11143  10.409   9.741   3.328 -0.3080  0.3272  0.3074
36234SOL    HW111144  10.332   9.702   3.368  0.6929 -1.9465  0.1692
36234SOL    HW211145  10.482   9.686   3.357  1.0920  1.5938 -0.6535
36235SOL     OW11146   5.037   1.155   1.821 -0.3782 -0.2505 -0.5887
36235SOL    HW111147   4.956   1.187   1.861 -0.1368 -1.0754  0.6486
36235SOL    HW211148   5.102   1.160   1.892  0.5356 -0.0367 -1.4230
36236SOL     OW11149   9.506   0.096  10.429 -0.0610  0.1540 -0.5586
36236SOL    HW111150   9.597   0.123  10.437 -0.1274  0.2639 -0.1596
36236SOL    HW211151   9.470   0.105  10.517  0.0713 -1.8154 -0.2551
36237SOL     OW11152   3.212   2.082   6.041 -0.3865 -0.9132  0.0363
36237SOL    HW111153   3.283   2.084   6.105  0.5081 -0.4254 -0.9409
36237SOL    HW211154   3.168   1.999   6.057  0.0468 -0.9588  1.0434
36238SOL     OW11155   7.413   5.952  10.109  0.4652  0.7045 -0.3680
36238SOL    HW111156   7.454   5.928  10.026 -0.4120  2.4604 -1.3836
36238SOL    HW211157   7.335   5.898  10.114  1.3059 -0.5101  0.1063
36239SOL     OW11158   9.642   3.581  10.254  0.5490  0.0070 -0.0752
36239SOL    HW111159   9.597   3.642  10.312  1.5996  0.7046  0.0449
36239SOL    HW211160   9.733   3.612  10.253  0.7093 -0.4198 -1.5186
36240SOL     OW11161   9.249   9.971   4.868 -0.3770 -0.4647  0.5403
36240SOL    HW111162   9.162  10.010   4.875 -1.1972 -2.2225  0.7364
36240SOL    HW211163   9.294   9.998   4.948  0.4254  2.9312 -0.8510
36241SOL     OW11164   3.201   5.707   2.773 -0.0691  0.3684  0.1432
36241SOL    HW111165   3.129   5.690   2.712  0.5936  0.9389 -0.8407
36241SOL    HW211166   3.194   5.801   2.791  1.0444  0.6600 -0.8169
36242SOL     OW11167   8.810   3.118   4.462 -0.0091  0.7995  0.1081
36242SOL    HW111168   8.840   3.091   4.549  0.1436  0.0646 -0.1658
36242SOL    HW211169   8.887   3.160   4.423 -0.8322  3.6643  1.3193
36243SOL     OW11170   8.754   4.062   1.109 -0.5815 -0.3059 -0.0679
36243SOL    HW111171   8.787   4.152   1.113  2.6914 -1.4125  3.0452
36243SOL    HW211172   8.663   4.069   1.139 -0.6460  2.0081 -0.6071
36244SOL     OW11173  10.407   9.572   7.856  0.0641  0.0330 -0.1884
36244SOL    HW111174  10.397   9.597   7.948  0.5439 -1.1447  0.2027
36244SOL    HW211175  10.485   9.517   7.855  0.1329  0.1282 -1.3326
36245SOL     OW11176   5.445   3.025   7.272 -0.3533  0.4014 -0.2754
36245SOL    HW111177   5.402   2.968   7.208 -2.1264  0.4587  0.7974
36245SOL    HW211178   5.533   2.988   7.282 -0.7760 -0.9139 -1.1288
36246SOL     OW11179   1.216   7.477   5.680  0.1371  0.4347 -0.5871
36246SOL    HW111180   1.266   7.497   5.758 -0.0347  2.0905 -0.8651
36246SOL    HW211181   1.185   7.562   5.649 -2.2610 -0.4518 -0.8182
36247SOL     OW11182   1.830   7.416   0.423 -0.1654 -0.3901  0.4163
36247SOL    HW111183   1.827   7.473   0.346  0.6345 -0.5505  0.2588
36247SOL    HW211184   1.870   7.335   0.392  1.6263  0.0902  1.3146
36248SOL     OW11185  10.094   9.541   9.997 -0.0583  0.1197 -0.7653
36248SOL    HW111186  10.119   9.617   9.944 -0.1254 -0.6198 -1.8875
36248SOL    HW211187  10.012   9.511   9.957  0.4726 -1.1224 -0.9433
36249SOL     OW11188  10.429  10.234  10.342 -0.5752  0.1878  0.2300
36249SOL    HW111189  10.435  10.141  10.321  2.4499 -0.5061  3.1972
36249SOL    HW211190  10.476  10.278  10.271 -0.7066 -0.6938 -0.4195
36250SOL     OW11191   5.146   3.785   9.709 -0.0516  0.4675 -0.3676
36250SOL    HW111192   5.241   3.790   9.697  0.0057  0.6144  0.1365
36250SOL    HW211193   5.134   3.723   9.780 -0.2394  1.7266  0.7428
36251SOL     OW11194   3.635   6.494   6.245  0.1761 -0.1918  0.4017
36251SOL    HW111195   3.571   6.557   6.212 -1.6448 -1.7106  0.8393
36251SOL    HW211196   3.720   6.528   6.215 -0.8852  1.4351 -0.9687
36252SOL     OW11197   6.361   1.384   1.971  0.9575  0.0290 -0.0408
36252SOL    HW111198   6.367   1.450   2.041 -3.2452  0.3229  0.3246
36252SOL    HW211199   6.347   1.436   1.892 -1.3033 -0.2503  0.0942
36253SOL     OW11200   6.675   4.276   6.676  0.7474 -0.6496 -0.0806
36253SOL    HW111201   6.687   4.244   6.766  0.8041 -0.1217  0.0999
36253SOL    HW211202   6.672   4.196   6.623 -0.7662 -1.0342  0.5473
36254SOL     OW11203   6.866   8.783   2.921 -0.3960  0.5968 -0.3106
36254SOL    HW111204   6.913   8.704   2.949  0.8204  1.1857 -0.6339
36254SOL    HW211205   6.906   8.854   2.971 -1.4966  1.0244 -0.0098
36255SOL     OW11206   2.425   1.773   9.944 -0.2352 -0.5115 -0.2608
36255SOL    HW111207   2.417   1.685   9.980  1.5570 -0.7632 -0.4112
36255SOL    HW211208   2.509   1.774   9.899 -1.0634  0.7017 -1.9260
36256SOL     OW11209   9.008   7.432   8.946  0.2464  0.6547  0.0216
36256SOL    HW111210   8.918   7.412   8.968 -0.2435  1.6179 -1.0163
36256SOL    HW211211   9.014   7.419   8.851  1.4570 -0.3051  0.2012
36257SOL     OW11212   2.894   3.350   7.212  0.0924 -0.2675  0.3430
36257SOL    HW111213   2.963   3.366   7.277 -0.2157  1.2777  0.3062
36257SOL    HW211214   2.813   3.351   7.263  0.0167 -1.3056  0.2619
36258SOL     OW11215   9.726   3.403   6.731 -0.6284  1.5416  0.0940
36258SOL    HW111216   9.684   3.488   6.738 -0.7815  1.3570  2.0828
36258SOL    HW211217   9.654   3.340   6.741 -0.0715  1.2263  2.8852
36259SOL     OW11218   2.121   6.778   1.134 -0.1432 -0.6442 -0.1174
36259SOL    HW111219   2.190   6.834   1.169  0.1212 -1.0722  0.0573
36259SOL    HW211220   2.055   6.839   1.102 -0.0937 -0.2292  0.5385
36260SOL     OW11221   0.537   7.230   4.833 -0.3271 -0.2900 -0.1550
36260SOL    HW111222   0.621   7.196   4.802  0.2932  1.2296 -0.2426
36260SOL    HW211223   0.481   7.153   4.840  1.1830 -1.3932  0.2914
36261SOL     OW11224   0.509   5.400   4.929 -0.0084  0.3504 -0.0203
36261SOL    HW111225   0.525   5.336   4.860  0.1786  1.7219 -1.3027
36261SOL    HW211226   0.430   5.370   4.972  0.3467 -1.0016 -0.2588
36262SOL     OW11227   4.686   7.368   7.371 -0.6041  0.1664  0.2410
36262SOL    HW111228   4.633   7.387   7.293  1.3374  1.3736 -0.8724
36262SOL    HW211229   4.776   7.366   7.338  0.0222 -3.4540  1.7382
36263SOL     OW11230   5.426   7.760   5.025  0.3441 -0.0710  0.1992
36263SOL    HW111231   5.455   7.781   5.114 -0.4253 -0.1046  0.4683
36263SOL    HW211232   5.452   7.837   4.974 -1.8127  1.3314  1.0397
36264SOL     OW11233   6.202   7.626   2.468  0.5992 -0.3827  0.5573
36264SOL    HW111234   6.139   7.698   2.480  0.6985 -0.3045  0.6089
36264SOL    HW211235   6.162   7.553   2.515  0.6905 -0.2484  0.8475
36265SOL     OW11236   2.189   7.390   1.627  0.2875 -0.3068  0.0449
36265SOL    HW111237   2.213   7.434   1.546  0.6818 -0.9390 -0.1866
36265SOL    HW211238   2.246   7.314   1.631  1.0848  0.3098  1.4773
36266SOL     OW11239   0.925   6.015   6.466  0.4315 -0.1390  0.0575
36266SOL    HW111240   0.973   5.988   6.544  0.6108  0.1071  0.0318
36266SOL    HW211241   0.873   6.090   6.495 -2.1397 -2.0788  0.8630
36267SOL     OW11242   5.805   9.072   1.687  0.2822 -0.5380 -0.0973
36267SOL    HW111243   5.802   9.167   1.684 -1.0953 -0.6044 -1.6607
36267SOL    HW211244   5.844   9.052   1.773  0.9077  1.4029  0.1121
36268SOL     OW11245   0.568   5.630   1.351  0.4541 -0.5276 -0.0263
36268SOL    HW111246   0.542   5.621   1.259 -0.7122 -2.1650  0.4094
36268SOL    HW211247   0.656   5.592   1.354  0.7067  0.0007 -0.5481
36269SOL     OW11248   6.976   8.897   3.612  0.2390 -1.0043  0.5710
36269SOL    HW111249   6.964   8.971   3.672 -1.9141 -1.0262  0.2400
36269SOL    HW211250   7.040   8.929   3.548 -0.3828  0.4681  0.6319
36270SOL     OW11251   5.105   7.472   7.891  0.7554 -0.1408 -0.1044
36270SOL    HW111252   5.046   7.429   7.828  1.5887 -1.4071 -0.0580
36270SOL    HW211253   5.184   7.418   7.891  1.0648  0.2590  1.4932
36271SOL     OW11254   8.615   3.175   9.004 -0.2586  0.1173  0.3601
36271SOL    HW111255   8.569   3.135   9.078 -2.7222  3.9792  1.1979
36271SOL    HW211256   8.554   3.164   8.931 -0.5267  1.3953  0.3794
36272SOL     OW11257   8.235   3.620   3.638 -0.1960 -0.7661  0.0653
36272SOL    HW111258   8.321   3.634   3.599  0.1110  2.7825  1.6577
36272SOL    HW211259   8.173   3.643   3.568  0.2388  0.2362  0.0012
36273SOL     OW11260   1.422   4.493   7.828 -0.0916  0.0810 -0.6805
36273SOL    HW111261   1.380   4.557   7.769 -1.7274  0.2964  0.6607
36273SOL    HW211262   1.385   4.409   7.802  0.0312  0.0281 -0.6855
36274SOL     OW11263   9.020  10.202   0.547  0.1879 -0.4304 -0.3801
36274SOL    HW111264   9.108  10.169   0.528  0.9337  0.9506  0.5234
36274SOL    HW211265   8.961  10.135   0.511  1.5978 -2.0976  0.2862
36275SOL     OW11266   6.265   8.483   9.732  0.2442 -0.1893  0.3899
36275SOL    HW111267   6.293   8.573   9.748  1.0642 -0.4516  0.4835
36275SOL    HW211268   6.280   8.438   9.816  0.8225 -0.6549  0.0399
36276SOL     OW11269   4.549   6.239   5.974 -0.6138 -0.3767  0.3590
36276SOL    HW111270   4.644   6.243   5.960 -0.5723 -1.8153  0.1035
36276SOL    HW211271   4.529   6.145   5.974 -1.8518 -0.1457  1.6539
36277SOL     OW11272   5.980   7.700   9.155  0.0219 -0.5616  0.6476
36277SOL    HW111273   5.985   7.683   9.061 -0.0004 -0.0770  0.5566
36277SOL    HW211274   5.893   7.669   9.180 -0.2441 -0.0557  0.3706
36278SOL     OW11275   2.171   7.022   0.537  0.0529 -0.0182 -0.1476
36278SOL    HW111276   2.101   6.958   0.551  0.7724 -0.6274  0.7814
36278SOL    HW211277   2.226   7.015   0.615  0.0543  1.8805  0.0894
36279SOL     OW11278   2.274   6.922   1.981 -0.6275  0.2697 -1.0209
36279SOL    HW111279   2.324   6.881   1.911 -1.0131 -0.5688 -0.8210
36279SOL    HW211280   2.273   6.857   2.051  1.2077  1.7511  0.4559
36280SOL     OW11281   5.625   3.990   0.985  0.0719  0.2234 -0.2973
36280SOL    HW111282   5.560   3.978   0.915 -0.2244 -0.7884  0.1385
36280SOL    HW211283   5.690   4.049   0.947 -0.3476  0.0895 -1.2519
36281SOL     OW11284   7.046   0.171   4.723  0.0810  0.4662  0.3324
36281SOL    HW111285   7.042   0.094   4.666 -3.1839 -0.7190  1.9241
36281SOL    HW211286   7.007   0.242   4.670  0.1641  0.2332 -0.0468
36282SOL     OW11287   6.237   7.414   6.261 -0.1705 -0.0892 -0.3493
36282SOL    HW111288   6.174   7.483   6.279  0.1236  0.6907 -2.0747
36282SOL    HW211289   6.319   7.460   6.242  1.0532 -1.0876  2.0879
36283SOL     OW11290   3.280   4.205   8.093  0.2669 -0.0376 -0.5219
36283SOL    HW111291   3.252   4.289   8.128 -0.2432  0.5779 -2.3167
36283SOL    HW211292   3.240   4.140   8.151  0.0331  0.9347  0.4236
36284SOL     OW11293   4.188   4.231   1.155 -0.0604  0.5443  0.5453
36284SOL    HW111294   4.235   4.267   1.231  0.0336 -1.5038  1.5074
36284SOL    HW211295   4.096   4.237   1.179 -0.1907  2.1121 -0.2320
36285SOL     OW11296   1.888   5.711   6.892 -0.4552  0.4557  0.4771
36285SOL    HW111297   1.925   5.644   6.949 -0.9704 -1.2181 -1.0455
36285SOL    HW211298   1.936   5.700   6.809 -2.0193  0.4890 -0.4721
36286SOL     OW11299  10.452   4.355   3.313 -0.0516 -0.8484 -0.4765
36286SOL    HW111300  10.544   4.364   3.289 -0.6748  2.6655 -2.1429
36286SOL    HW211301  10.438   4.422   3.380 -1.1445 -2.3218  0.8356
36287SOL     OW11302   2.890   0.946   5.337 -0.2285 -0.4293 -0.0986
36287SOL    HW111303   2.937   1.007   5.280  0.9523 -0.6469  0.6194
36287SOL    HW211304   2.945   0.867   5.339 -0.3066 -0.4719  1.2378
36288SOL     OW11305   2.430   9.041   3.594  0.2729 -0.5882 -0.2466
36288SOL    HW111306   2.385   9.044   3.510 -1.8733 -0.7633  0.8253
36288SOL    HW211307   2.521   9.063   3.574 -0.4435  0.6432 -2.4195
36289SOL     OW11308   2.954   8.074   5.522 -0.0651  0.4668  0.4574
36289SOL    HW111309   2.946   7.978   5.519  0.7339  0.4160 -1.2182
36289SOL    HW211310   2.864   8.105   5.526 -0.3823 -0.3467 -0.0194
36290SOL     OW11311   4.117   4.867   1.226 -0.4301  0.5240  0.3828
36290SOL    HW111312   4.090   4.935   1.288 -0.2131  0.8833  0.0898
36290SOL    HW211313   4.179   4.813   1.275 -2.1193 -0.6888  1.2654
36291SOL     OW11314   4.050   3.285   3.344 -0.5944  0.3961 -0.3798
36291SOL    HW111315   4.053   3.344   3.420 -2.8029  0.4795 -0.2751
36291SOL    HW211316   4.063   3.198   3.381 -1.1996  0.4821  0.0567
36292SOL     OW11317   7.629  10.374   1.076  0.0909 -0.0655 -0.7509
36292SOL    HW111318   7.599  10.463   1.058  1.3312  0.4910 -0.2121
36292SOL    HW211319   7.663  10.343   0.992 -0.4463 -0.0679 -0.9660
36293SOL     OW11320   8.909   8.308   8.822  0.2076  0.6680 -0.2076
36293SOL    HW111321   8.829   8.341   8.782  0.2138 -1.0771 -1.8329
36293SOL    HW211322   8.973   8.305   8.750  0.8998 -0.5143  0.4156
36294SOL     OW11323   7.838   7.765   1.972 -0.0793  0.0646 -0.0697
36294SOL    HW111324   7.810   7.774   1.881 -1.6663 -0.2112  0.3605
36294SOL    HW211325   7.867   7.674   1.979  1.3228  0.4532 -0.6134
36295SOL     OW11326  10.193   2.086   4.871  0.2709  0.1350  0.1896
36295SOL    HW111327  10.228   2.051   4.953 -1.0048 -1.0945  0.2460
36295SOL    HW211328  10.225   2.025   4.804  0.9755  0.9107 -0.2051
36296SOL     OW11329   8.177   3.899   4.436  0.1810  0.2732 -0.7987
36296SOL    HW111330   8.269   3.882   4.456 -0.5655 -2.9467  0.6536
36296SOL    HW211331   8.164   3.860   4.350 -0.0252 -0.1594 -0.5726
36297SOL     OW11332   7.899   2.789   3.685  0.1307 -0.2553  0.1359
36297SOL    HW111333   7.988   2.754   3.681  0.2111 -0.0343 -0.0339
36297SOL    HW211334   7.845   2.715   3.714  0.2756 -0.5556 -0.3502
36298SOL     OW11335   8.223   7.489   8.436 -0.4591  0.1120 -0.3448
36298SOL    HW111336   8.256   7.400   8.442 -0.4679  0.1813  1.2256
36298SOL    HW211337   8.169   7.490   8.357 -0.1697 -1.1653 -0.5703
36299SOL     OW11338   0.235   3.659   7.779  0.4143  0.3963  0.4212
36299SOL    HW111339   0.182   3.631   7.704  1.9411 -1.0773 -0.1511
36299SOL    HW211340   0.187   3.735   7.814 -1.3021  0.0060 -0.9121
36300SOL     OW11341   2.983   8.104   1.931  0.0048  0.0247 -0.0172
36300SOL    HW111342   2.926   8.177   1.954 -1.1450 -0.2815 -1.7465
36300SOL    HW211343   3.043   8.096   2.006 -2.3664  0.1604  2.0206
36301SOL     OW11344   4.149   6.874   0.757  0.2764 -0.1581 -0.3950
36301SOL    HW111345   4.152   6.829   0.673  2.2604 -0.8620 -0.0127
36301SOL    HW211346   4.081   6.828   0.806  0.2122 -0.7971 -1.0658
36302SOL     OW11347   6.162   0.119   2.106 -0.6539  0.5412  0.5137
36302SOL    HW111348   6.180   0.185   2.173 -0.4513  0.1352  0.8694
36302SOL    HW211349   6.215   0.043   2.133  0.9717  1.0129 -1.1673
36303SOL     OW11350   3.020   8.231   8.355 -0.2846 -0.5389 -0.4454
36303SOL    HW111351   2.969   8.229   8.274 -0.3892 -1.7214 -0.3679
36303SOL    HW211352   2.957   8.257   8.423 -0.6444 -1.3593 -0.4547
36304SOL     OW11353   1.124   5.727   7.349 -0.0341 -0.1221  0.8895
36304SOL    HW111354   1.093   5.760   7.433 -1.0361  0.4291  0.3257
36304SOL    HW211355   1.145   5.806   7.299 -2.5580 -0.2349 -0.5146
36305SOL     OW11356   6.184   1.736   2.391  0.2245  0.7003 -0.3042
36305SOL    HW111357   6.114   1.781   2.438 -0.4484  1.1431 -1.6788
36305SOL    HW211358   6.263   1.757   2.439 -0.3418  1.7952  0.1701
36306SOL     OW11359   4.718   8.617   9.410  0.3618 -0.1572  0.1067
36306SOL    HW111360   4.756   8.700   9.437  3.3974 -1.5562  0.6453
36306SOL    HW211361   4.768   8.551   9.459  1.2858 -2.5001 -3.6163
36307SOL     OW11362   9.656   7.638   3.892 -1.0773 -0.0666 -0.0161
36307SOL    HW111363   9.737   7.587   3.888 -2.0786 -1.8153  0.8468
36307SOL    HW211364   9.684   7.725   3.922  0.4650 -0.6501  0.3388
36308SOL     OW11365   1.539   0.377   9.778 -0.0658  0.0147 -0.0824
36308SOL    HW111366   1.481   0.433   9.726  1.2850  1.1733 -0.4166
36308SOL    HW211367   1.620   0.374   9.728  0.6912 -0.2502  1.1283
36309SOL     OW11368   3.150   7.079   7.779 -0.0118  0.5125  0.0918
36309SOL    HW111369   3.178   6.988   7.789 -0.6377  0.4448  1.5574
36309SOL    HW211370   3.055   7.076   7.794  0.2145  1.6169  2.0945
36310SOL     OW11371   8.582   0.222   7.161 -0.1878 -0.3057 -0.2473
36310SOL    HW111372   8.534   0.141   7.141 -1.3506  0.7026 -1.8564
36310SOL    HW211373   8.518   0.277   7.206 -0.8677  1.2809 -2.9261
36311SOL     OW11374   2.392   5.336   7.655  0.6314  0.0098 -0.1255
36311SOL    HW111375   2.345   5.414   7.686  0.6321  0.6151 -1.5818
36311SOL    HW211376   2.323   5.270   7.645  0.9390 -1.1088  3.6151
36312SOL     OW11377   4.738   0.322   7.126  0.3521 -0.0062 -0.4854
36312SOL    HW111378   4.660   0.332   7.071 -0.0979  0.0191  0.1432
36312SOL    HW211379   4.737   0.230   7.153  1.5218 -0.4691 -1.8981
36313SOL     OW11380   4.538   1.025   3.144  0.2539  0.3057  0.3276
36313SOL    HW111381   4.521   0.986   3.230 -0.6844  1.5508  0.7421
36313SOL    HW211382   4.497   1.112   3.149 -0.4057  0.1499 -1.6065
36314SOL     OW11383   6.855   2.606   1.173 -0.5922 -0.2408 -0.0720
36314SOL    HW111384   6.778   2.550   1.164 -0.6081 -0.2263 -0.0239
36314SOL    HW211385   6.820   2.694   1.183 -0.5423 -0.0523 -1.4178
36315SOL     OW11386   2.823   4.671   8.198 -0.0896  0.7280  0.3499
36315SOL    HW111387   2.793   4.722   8.123  0.9091  0.6515 -0.1053
36315SOL    HW211388   2.918   4.677   8.196  0.0665 -1.1867  0.2722
36316SOL     OW11389   9.590   5.030  10.396 -0.0112  0.0879 -0.3672
36316SOL    HW111390   9.591   4.951  10.342  2.4314 -0.3941  0.2591
36316SOL    HW211391   9.652   5.090  10.353  0.2465  0.5721  0.6246
36317SOL     OW11392   3.720   1.833   0.280  0.1518 -0.0801  0.4810
36317SOL    HW111393   3.796   1.802   0.231 -0.0041  0.0004  0.1887
36317SOL    HW211394   3.729   1.928   0.280 -0.2908 -0.0392 -0.1006
36318SOL     OW11395   1.005   4.073   2.932  0.1804 -0.1071 -0.4229
36318SOL    HW111396   1.091   4.107   2.908  0.0240  0.3910 -0.2957
36318SOL    HW211397   0.950   4.151   2.941 -0.2180 -0.4032 -0.2473
36319SOL     OW11398   0.306   1.663   4.689  0.6261 -0.1186 -0.1919
36319SOL    HW111399   0.361   1.674   4.612 -0.2820 -2.0720 -1.1802
36319SOL    HW211400   0.221   1.701   4.665 -0.1724 -2.2001 -0.8291
36320SOL     OW11401   9.052   0.828   1.269  0.3086  0.1530  0.2737
36320SOL    HW111402   9.027   0.860   1.356 -2.8821  0.4614 -0.6241
36320SOL    HW211403   9.057   0.733   1.280 -1.9495  0.0039  0.4697
36321SOL     OW11404   8.606   2.534   2.061 -0.1495 -0.0719  0.1636
36321SOL    HW111405   8.525   2.484   2.064  0.0769 -0.5282 -0.9660
36321SOL    HW211406   8.649   2.506   1.980  1.4957 -0.3891  1.1071
36322SOL     OW11407   7.556   8.338   4.067 -0.0640 -0.4782 -0.1196
36322SOL    HW111408   7.502   8.341   3.988 -0.6076 -0.4557  0.2419
36322SOL    HW211409   7.529   8.257   4.110 -2.4693  1.2015  1.8697
36323SOL     OW11410   6.034   1.574   6.357  0.3465  0.2443 -0.0097
36323SOL    HW111411   5.970   1.639   6.329  0.4337  0.7198  0.8403
36323SOL    HW211412   6.115   1.598   6.312  0.6467  1.3671  1.0532
36324SOL     OW11413   6.942   7.490   7.854 -0.1354 -0.2896 -0.3642
36324SOL    HW111414   6.972   7.568   7.807  3.0045 -0.6145  0.8551
36324SOL    HW211415   6.911   7.523   7.938  1.7211 -0.2848  0.3805
36325SOL     OW11416   9.008  10.187   1.214 -0.7770 -0.2273  0.0065
36325SOL    HW111417   9.020  10.172   1.120 -0.9284 -0.0854 -0.0341
36325SOL    HW211418   8.920  10.223   1.222 -0.7376 -0.1732  0.1958
36326SOL     OW11419   0.854   7.865   7.831  0.2048 -0.0997  0.0908
36326SOL    HW111420   0.787   7.904   7.775  0.7616 -0.5399 -0.9013
36326SOL    HW211421   0.878   7.935   7.892  0.8889  0.9912 -1.3882
36327SOL     OW11422   3.280   3.857   8.751  0.5453  0.2570  0.1293
36327SOL    HW111423   3.224   3.809   8.689 -0.9618  2.6859 -0.5563
36327SOL    HW211424   3.368   3.846   8.717  0.0398 -0.5258 -1.0009
36328SOL     OW11425  10.381   0.604   6.348  0.5354 -0.1667  0.0162
36328SOL    HW111426  10.395   0.696   6.369 -1.3289  0.0283  0.5986
36328SOL    HW211427  10.428   0.556   6.416  0.4249  0.3821  0.4825
36329SOL     OW11428   6.237   9.488   1.427 -0.0119  0.5064 -0.3790
36329SOL    HW111429   6.263   9.578   1.405  0.6903 -0.2789 -3.2476
36329SOL    HW211430   6.169   9.466   1.363  0.9412 -1.4793 -0.8128
36330SOL     OW11431   8.066   0.788   9.712  0.1929  0.0033  0.0893
36330SOL    HW111432   8.146   0.804   9.762 -1.1866  2.9657  1.5763
36330SOL    HW211433   8.005   0.751   9.775 -0.3156 -0.1065 -0.4593
36331SOL     OW11434   2.023   6.036   3.552  0.2831 -0.2152  0.0599
36331SOL    HW111435   2.063   5.960   3.594 -0.3929 -0.5940  0.0276
36331SOL    HW211436   1.952   6.000   3.499  0.5032  0.3555 -0.6358
36332SOL     OW11437   0.018   1.805   0.474 -0.2569  0.7732  0.2723
36332SOL    HW111438  -0.069   1.844   0.474 -0.4774  0.3426 -1.0026
36332SOL    HW211439   0.005   1.718   0.435  0.9044  1.1194 -0.9534
36333SOL     OW11440   8.443   2.198   5.610  0.3910  0.5345 -0.1733
36333SOL    HW111441   8.534   2.184   5.584  0.3674  0.3416 -0.1538
36333SOL    HW211442   8.392   2.171   5.534  0.4473  4.6196 -1.8915
36334SOL     OW11443   2.590   8.222   1.729 -0.1011 -0.1510  0.2389
36334SOL    HW111444   2.538   8.190   1.655  2.1849  0.2598 -1.6859
36334SOL    HW211445   2.679   8.190   1.711  0.6834  0.6450  2.4217
36335SOL     OW11446   1.818   6.521   2.334  0.2458 -0.0909 -0.2363
36335SOL    HW111447   1.899   6.471   2.330  0.7793  0.6888  0.4064
36335SOL    HW211448   1.846   6.613   2.333 -0.4488  0.2299  2.0695
36336SOL     OW11449   0.966   1.494   5.603 -0.5421  0.7419  0.5846
36336SOL    HW111450   0.898   1.496   5.671 -1.5644  0.1326 -0.3795
36336SOL    HW211451   0.920   1.518   5.522 -0.2596 -2.1463 -0.5762
36337SOL     OW11452  10.472   2.571   5.386 -0.4637 -0.3226 -0.0645
36337SOL    HW111453  10.500   2.654   5.348  2.8500 -0.5427  1.6052
36337SOL    HW211454  10.533   2.555   5.458 -0.0494 -4.8538 -1.1183
36338SOL     OW11455   0.336   3.245   8.072 -0.5507 -0.2728 -0.3416
36338SOL    HW111456   0.275   3.190   8.024 -0.3948 -0.5015 -0.2834
36338SOL    HW211457   0.330   3.331   8.031 -1.3038 -0.1551  0.0126
36339SOL     OW11458   2.814   9.555   7.031  0.5352 -0.8046  0.4276
36339SOL    HW111459   2.896   9.553   7.080  0.1296  0.3383  1.2085
36339SOL    HW211460   2.765   9.479   7.063  1.5672 -1.9604 -0.6197
36340SOL     OW11461   3.589   4.833   2.000  0.1601  0.1216  0.4630
36340SOL    HW111462   3.637   4.752   1.983  0.3659  0.6426 -1.7366
36340SOL    HW211463   3.506   4.804   2.038 -0.6256 -1.3458 -2.0936
36341SOL     OW11464   6.759   8.218   7.893 -0.0787  0.2704  0.4121
36341SOL    HW111465   6.798   8.190   7.976 -1.1518  1.3981  1.3355
36341SOL    HW211466   6.665   8.219   7.910 -0.2687  1.3154 -0.5728
36342SOL     OW11467   4.011   4.295   3.756  0.2003  0.9541 -0.5141
36342SOL    HW111468   4.091   4.341   3.731  0.0287  2.2995  1.2332
36342SOL    HW211469   3.951   4.364   3.783 -0.2243 -0.2209  1.8071
36343SOL     OW11470   0.862   9.972   9.575 -0.3410  0.8426 -0.1802
36343SOL    HW111471   0.829   9.910   9.641  0.1360 -1.4556 -1.9443
36343SOL    HW211472   0.934   9.925   9.532  0.6178  2.9930 -1.0750
36344SOL     OW11473   3.389   0.181   1.297 -0.0725 -0.0904 -0.1559
36344SOL    HW111474   3.464   0.208   1.246 -0.3978 -1.5107 -1.4673
36344SOL    HW211475   3.315   0.226   1.258 -0.2145 -0.5805 -0.4697
36345SOL     OW11476   1.844   9.385  10.288 -0.6217 -0.2489  0.0236
36345SOL    HW111477   1.765   9.335  10.266 -1.0429 -0.7790  2.4720
36345SOL    HW211478   1.916   9.337  10.248 -1.4533  0.0111 -1.9029
36346SOL     OW11479   1.929   3.205   5.142  0.0846  0.4940  0.0476
36346SOL    HW111480   1.906   3.114   5.125 -1.0887  0.3990  1.8733
36346SOL    HW211481   1.893   3.253   5.067  1.9568 -0.6285 -1.6603
36347SOL     OW11482   8.649   8.873   3.994  0.0011 -0.7921  0.1762
36347SOL    HW111483   8.605   8.802   4.041 -2.3497 -0.5536 -1.4989
36347SOL    HW211484   8.650   8.946   4.056 -0.8070 -1.2092  0.6991
36348SOL     OW11485   5.135   9.663   9.404  0.3520 -0.0605  1.2972
36348SOL    HW111486   5.145   9.729   9.473 -1.0330 -0.1933  1.6699
36348SOL    HW211487   5.169   9.705   9.325  1.5351  0.2677  1.9670
36349SOL     OW11488   9.311   3.291   9.188 -0.0549 -0.3999 -0.2680
36349SOL    HW111489   9.388   3.348   9.185 -0.7544  0.6359  0.4977
36349SOL    HW211490   9.281   3.297   9.278 -1.6603  0.0983 -0.8032
36350SOL     OW11491   0.533   6.073   4.618 -0.0080 -0.1889  0.0907
36350SOL    HW111492   0.574   5.986   4.613 -1.4372 -1.0068  1.6503
36350SOL    HW211493   0.561   6.117   4.537 -0.3290 -2.5686 -1.4188
36351SOL     OW11494   3.769   0.222   1.236 -0.0854  0.9688 -0.0661
36351SOL    HW111495   3.690   0.241   1.185  1.0324  1.6866 -1.6140
36351SOL    HW211496   3.784   0.302   1.286 -0.2831  0.8638  0.1635
36352SOL     OW11497   0.656   0.773   3.363  0.1465  0.1193 -0.8966
36352SOL    HW111498   0.748   0.754   3.383 -0.1366  1.1056  1.7535
36352SOL    HW211499   0.659   0.847   3.302  1.1392  0.7224 -0.1411
36353SOL     OW11500   2.801   3.845   7.825  0.0239  0.2502 -0.5249
36353SOL    HW111501   2.729   3.907   7.809 -0.1778  0.2888  0.4729
36353SOL    HW211502   2.879   3.892   7.795 -0.5007 -0.4892 -3.4247
36354SOL     OW11503   4.308   2.334   5.411  0.2687  0.8070 -0.0323
36354SOL    HW111504   4.382   2.384   5.377  1.2255  0.3184  1.2519
36354SOL    HW211505   4.337   2.243   5.410 -1.0069  0.3885 -1.2148
36355SOL     OW11506  10.264   8.565   1.365 -0.3012 -0.3191  0.2960
36355SOL    HW111507  10.311   8.506   1.307  0.9631  0.3278  0.6317
36355SOL    HW211508  10.178   8.575   1.325  0.1740 -0.7456 -0.8562
36356SOL     OW11509   8.730   4.068   2.100  0.2247  0.2544  0.6466
36356SOL    HW111510   8.698   4.024   2.022  0.3295  0.6470  0.3789
36356SOL    HW211511   8.824   4.076   2.087  0.2014  0.6007  0.6654
36357SOL     OW11512   5.400   4.144   4.910 -0.0499 -0.3289 -0.3829
36357SOL    HW111513   5.385   4.239   4.904  0.0546 -0.3038 -0.2469
36357SOL    HW211514   5.389   4.113   4.820  3.1230  0.2810 -1.1048
36358SOL     OW11515   9.826   2.952   6.611 -0.2521  0.0749  0.2520
36358SOL    HW111516   9.869   2.881   6.563  0.1557  1.4594 -1.5406
36358SOL    HW211517   9.845   2.933   6.703  0.5534 -1.6612 -0.2158
36359SOL     OW11518   3.746   4.064   0.965 -0.2765  0.0535  0.1444
36359SOL    HW111519   3.749   3.989   1.025  1.1595 -0.1567 -0.1436
36359SOL    HW211520   3.710   4.135   1.017  1.6650  0.0895  1.5429
36360SOL     OW11521   9.268  10.253   5.169 -0.0383  0.0114 -0.0412
36360SOL    HW111522   9.327  10.208   5.228  0.0353  1.0878  0.7321
36360SOL    HW211523   9.307  10.339   5.157 -0.2644 -0.0466 -1.3455
36361SOL     OW11524   5.775   2.752   1.929  0.7617 -0.0362  0.0424
36361SOL    HW111525   5.739   2.711   2.007  1.0659 -2.4807 -1.0197
36361SOL    HW211526   5.762   2.688   1.860  1.5008  1.6016 -1.7021
36362SOL     OW11527   9.433   6.104   2.945 -0.3589  0.0329  0.1822
36362SOL    HW111528   9.398   6.185   2.909 -0.5424  0.5530  1.4541
36362SOL    HW211529   9.355   6.051   2.964 -0.2916 -0.0691  0.1765
36363SOL     OW11530   3.550   4.871   3.282  0.0820 -0.0631 -0.1435
36363SOL    HW111531   3.572   4.960   3.309  0.3236 -0.0234 -0.4688
36363SOL    HW211532   3.600   4.815   3.341  0.3674  0.0229 -0.3013
36364SOL     OW11533   9.334   2.888   8.405 -0.1872  0.0338 -0.0187
36364SOL    HW111534   9.361   2.943   8.479  1.2200 -1.0538  0.3053
36364SOL    HW211535   9.307   2.950   8.338 -0.7655  1.0673  1.1147
36365SOL     OW11536   6.311   0.721   0.762  0.1840 -0.0259 -1.0377
36365SOL    HW111537   6.243   0.685   0.817  0.1414  0.8071 -0.5258
36365SOL    HW211538   6.264   0.760   0.688  0.2222 -0.8725 -1.5200
36366SOL     OW11539   8.161   8.806   5.174  0.2092  0.1350 -0.4075
36366SOL    HW111540   8.110   8.751   5.115  0.5972 -1.8498  0.9824
36366SOL    HW211541   8.243   8.758   5.188 -0.0034  0.3073  1.9597
36367SOL     OW11542   4.838   6.576  10.405 -0.0384 -0.2762 -0.5960
36367SOL    HW111543   4.799   6.490  10.389 -0.0393 -0.9234  2.2292
36367SOL    HW211544   4.906   6.559  10.470  1.8360  1.5102 -1.9528
36368SOL     OW11545   5.201   5.288   9.957 -0.4377  0.4490  0.1596
36368SOL    HW111546   5.163   5.224  10.017 -1.9774  0.5490 -0.6351
36368SOL    HW211547   5.244   5.236   9.890 -1.9141  0.1734 -0.6291
36369SOL     OW11548   6.092   6.917   0.427  0.6271  0.5517  0.2779
36369SOL    HW111549   6.033   6.877   0.491  1.6407 -0.2451  0.7436
36369SOL    HW211550   6.123   6.997   0.470  2.6493 -0.8341  1.5847
36370SOL     OW11551   7.744   1.574   3.323  0.5760  0.0182 -0.2780
36370SOL    HW111552   7.725   1.495   3.374  0.9954 -1.2837 -2.0172
36370SOL    HW211553   7.840   1.580   3.323  0.5708  0.1334 -0.7175
36371SOL     OW11554   7.033   7.084   7.246  0.1623 -0.1461  0.3016
36371SOL    HW111555   7.053   7.069   7.154  0.4049  0.2500  0.2840
36371SOL    HW211556   6.945   7.121   7.246 -0.4324 -1.5444  0.3489
36372SOL     OW11557   3.276   9.897   1.341  0.4334  0.3804 -0.4454
36372SOL    HW111558   3.371   9.882   1.342  0.2843 -0.6212 -0.3629
36372SOL    HW211559   3.239   9.814   1.313 -0.3832  1.0891 -1.5710
36373SOL     OW11560   1.185   1.943   6.694  0.5448  0.2896 -0.1521
36373SOL    HW111561   1.172   1.864   6.641 -0.4347  1.3862 -1.6624
36373SOL    HW211562   1.110   1.999   6.671  1.7594  2.0881  0.0455
36374SOL     OW11563   6.556   8.469   0.694 -0.4329 -0.1188 -0.4168
36374SOL    HW111564   6.623   8.473   0.625  0.0899  0.1487  0.0898
36374SOL    HW211565   6.584   8.397   0.750 -0.9334 -0.4243 -0.5598
36375SOL     OW11566   0.366   6.351   1.463 -0.0062 -0.3340  0.3751
36375SOL    HW111567   0.435   6.309   1.413  0.1443 -0.9832  1.0971
36375SOL    HW211568   0.290   6.353   1.404  0.9818  1.6489 -0.9152
36376SOL     OW11569   8.333   2.237   0.781  0.4857 -0.4322 -0.3983
36376SOL    HW111570   8.414   2.215   0.734  1.0507 -0.3839  0.5389
36376SOL    HW211571   8.338   2.188   0.863  0.2814  0.7132  0.3261
36377SOL     OW11572   0.430   2.733   7.102 -0.4970 -0.1623 -0.0363
36377SOL    HW111573   0.478   2.651   7.087 -0.1202  0.2415 -1.2011
36377SOL    HW211574   0.487   2.800   7.063 -0.8532  0.6387  0.8085
36378SOL     OW11575   0.376   5.782   3.352  0.2963  0.0225  0.0805
36378SOL    HW111576   0.387   5.839   3.276  0.0163  0.3860  0.3098
36378SOL    HW211577   0.422   5.828   3.422  0.8999 -0.5055  0.0388
36379SOL     OW11578   4.823   7.653   4.720  0.2004 -0.5626 -0.2363
36379SOL    HW111579   4.782   7.739   4.732 -0.4628 -0.7385 -1.1386
36379SOL    HW211580   4.822   7.614   4.807 -2.4816 -0.9503 -0.3563
36380SOL     OW11581   5.060   1.825   9.858 -0.1175  0.4693  0.0240
36380SOL    HW111582   5.069   1.898   9.920  2.2799  0.1071  0.2039
36380SOL    HW211583   4.989   1.772   9.894  0.2656  1.0129  1.6794
36381SOL     OW11584   4.589   5.520   1.035 -0.1875 -0.7047 -0.4164
36381SOL    HW111585   4.684   5.519   1.024 -0.1091 -2.3201  0.0466
36381SOL    HW211586   4.555   5.509   0.946 -0.1594  4.0997 -1.2574
36382SOL     OW11587   3.722   0.839   9.004 -0.4917 -0.5180 -0.0945
36382SOL    HW111588   3.644   0.881   8.968  0.2030 -0.8938 -2.1928
36382SOL    HW211589   3.732   0.759   8.952  1.0866 -0.6621  0.3805
36383SOL     OW11590  10.332   5.596   5.203  0.1947  0.1848  0.4084
36383SOL    HW111591  10.264   5.571   5.266 -0.5189 -0.7154 -0.6735
36383SOL    HW211592  10.285   5.611   5.121  1.4241 -2.3335 -0.8905
36384SOL     OW11593   0.070   9.832   0.110 -0.0578 -0.7327 -0.3019
36384SOL    HW111594  -0.020   9.863   0.099  0.8143  2.3913  0.2091
36384SOL    HW211595   0.087   9.779   0.032 -2.3133 -1.3944 -0.4028
36385SOL     OW11596   1.632   1.085   6.357  0.4857 -0.6240 -0.3653
36385SOL    HW111597   1.700   1.025   6.326 -0.6079 -1.3837 -1.3834
36385SOL    HW211598   1.616   1.144   6.284 -1.8471 -2.1881 -1.2288
36386SOL     OW11599  10.421   8.110   9.149 -0.1721  0.2496 -0.5916
36386SOL    HW111600  10.333   8.114   9.185  0.2462 -0.7312  0.6320
36386SOL    HW211601  10.478   8.116   9.226  0.8028 -0.0118 -1.2752
36387SOL     OW11602   3.450   1.066   9.209 -0.0341 -0.3160  0.4871
36387SOL    HW111603   3.441   1.049   9.303  0.3870 -0.9366  0.4187
36387SOL    HW211604   3.386   1.135   9.191  1.7679  1.8409  1.7663
36388SOL     OW11605   5.715   9.577   4.717  0.1312  0.0983  0.1250
36388SOL    HW111606   5.734   9.668   4.740 -1.5660  0.7844 -1.0038
36388SOL    HW211607   5.801   9.537   4.707  0.9258  1.7089  0.1199
36389SOL     OW11608   4.883   0.338   3.912  0.0282  0.1040 -0.3630
36389SOL    HW111609   4.910   0.344   4.004 -1.9020  0.8827  0.2197
36389SOL    HW211610   4.944   0.275   3.873  1.4798  0.4595  1.2043
36390SOL     OW11611   7.126   1.308   7.795  0.4530  0.8249  0.5991
36390SOL    HW111612   7.213   1.329   7.828  0.8454  1.3820 -0.7309
36390SOL    HW211613   7.141   1.271   7.709 -0.5309 -0.8349  1.0973
36391SOL     OW11614   2.900   4.548   9.795 -0.2926  0.4007  0.1898
36391SOL    HW111615   2.838   4.574   9.727 -0.1064 -1.3245 -0.6795
36391SOL    HW211616   2.986   4.573   9.759  0.0772 -2.7985 -1.4775
36392SOL     OW11617   8.074   5.049   5.956  0.3580 -0.2722 -0.4738
36392SOL    HW111618   8.017   5.116   5.992  0.3582 -0.9186  0.7622
36392SOL    HW211619   8.044   5.037   5.866  0.5214  1.5480 -0.7991
36393SOL     OW11620   2.051   5.728   1.865  0.1451  0.0557 -0.5478
36393SOL    HW111621   1.967   5.723   1.910 -1.6596 -2.1037 -3.7642
36393SOL    HW211622   2.039   5.797   1.799  1.3724  0.5833 -0.2499
36394SOL     OW11623   7.120   2.463   3.467 -0.6668  0.2287 -0.4023
36394SOL    HW111624   7.170   2.544   3.459 -0.4129  0.2508  1.0833
36394SOL    HW211625   7.031   2.491   3.487 -0.4664  0.1501  0.6429
36395SOL     OW11626   9.168   2.679   5.264 -0.3609 -0.4048 -0.5037
36395SOL    HW111627   9.100   2.647   5.204 -0.2218 -2.0062  0.1513
36395SOL    HW211628   9.160   2.774   5.260 -0.4107 -0.4525 -2.9915
36396SOL     OW11629   1.506  10.223   7.720  0.2795 -0.1665 -0.2317
36396SOL    HW111630   1.562  10.189   7.790  1.5672 -1.3149 -1.7432
36396SOL    HW211631   1.431  10.164   7.719  1.4836 -1.7840 -1.4269
36397SOL     OW11632   8.281   1.563   6.907  0.4100 -0.0985 -0.1676
36397SOL    HW111633   8.290   1.507   6.830 -0.8396 -0.0291 -0.3887
36397SOL    HW211634   8.263   1.650   6.872 -0.2093 -0.0747  0.1933
36398SOL     OW11635   6.574   0.306   1.149  0.0793  0.5435 -0.0751
36398SOL    HW111636   6.489   0.344   1.128 -0.9965 -1.3593  0.5116
36398SOL    HW211637   6.589   0.241   1.080 -1.3900 -2.6142  2.2974
36399SOL     OW11638   3.991   6.248   3.682 -0.4244 -0.0782  0.1689
36399SOL    HW111639   3.920   6.288   3.632 -0.5001  1.8945  1.7459
36399SOL    HW211640   4.070   6.294   3.653 -0.3081  0.2401  0.9566
36400SOL     OW11641   6.037   2.340   3.608  0.3058  0.1964  0.0742
36400SOL    HW111642   5.993   2.419   3.642  1.9644  1.5261 -0.7225
36400SOL    HW211643   5.974   2.304   3.546  0.1802  1.9114 -0.8698
36401SOL     OW11644   0.095   2.580   2.325  0.2046  0.0667  0.6385
36401SOL    HW111645   0.118   2.490   2.303  2.0203  0.4258  0.8954
36401SOL    HW211646   0.079   2.578   2.419 -0.9947 -0.1955  0.4497
36402SOL     OW11647   7.902   6.703   5.983  0.0550  0.3119  0.0778
36402SOL    HW111648   7.914   6.620   5.936  1.2519 -1.1535  2.6974
36402SOL    HW211649   7.965   6.763   5.944  1.3252 -0.9799  0.0473
36403SOL     OW11650   5.012   4.181   2.818 -0.6016 -0.3308 -0.0192
36403SOL    HW111651   4.980   4.271   2.822 -1.2222 -0.5050 -0.8860
36403SOL    HW211652   5.096   4.183   2.865 -0.7662  0.6219  0.2512
36404SOL     OW11653   7.750   6.451   9.599  0.5126 -0.1623  0.3269
36404SOL    HW111654   7.751   6.448   9.695  2.1331  1.5270  0.4221
36404SOL    HW211655   7.817   6.516   9.577  0.4448 -0.8103 -1.9760
36405SOL     OW11656   0.086   3.329   0.401  0.5704 -0.3063 -0.9248
36405SOL    HW111657   0.070   3.274   0.478 -0.8586  0.0571 -0.9255
36405SOL    HW211658   0.079   3.419   0.435  1.2648 -0.1337 -1.2320
36406SOL     OW11659   0.205   1.206   7.443 -0.3541  0.4393  0.1413
36406SOL    HW111660   0.206   1.129   7.386 -0.3491  1.4955 -1.3498
36406SOL    HW211661   0.263   1.183   7.515  1.8168  0.0168 -1.6299
36407SOL     OW11662   7.475   0.755   0.877 -0.0905  0.1635  0.4080
36407SOL    HW111663   7.531   0.831   0.860  0.8637 -0.7505 -0.6367
36407SOL    HW211664   7.410   0.757   0.806 -1.4124  1.1939  1.5878
36408SOL     OW11665   4.002   5.765   5.440  0.1977  0.1287  0.2401
36408SOL    HW111666   3.977   5.724   5.524  0.2025  0.6245  0.4844
36408SOL    HW211667   4.093   5.790   5.452  0.1422  0.3690  0.1515
36409SOL     OW11668   2.723   3.261   3.068  0.0694 -0.0511 -0.5718
36409SOL    HW111669   2.817   3.246   3.061  0.7217  2.4823  1.3898
36409SOL    HW211670   2.703   3.321   2.996  0.3362  0.7814  0.0343
36410SOL     OW11671   8.098   1.917   9.377 -0.0133  0.2141  0.3691
36410SOL    HW111672   8.005   1.920   9.356 -0.0472 -0.1905  0.4609
36410SOL    HW211673   8.127   1.830   9.349 -0.0158 -0.2735  1.8219
36411SOL     OW11674   7.730   3.372   8.932  0.1536  0.1220 -0.0469
36411SOL    HW111675   7.766   3.398   9.016 -0.9882  2.1566 -0.1362
36411SOL    HW211676   7.797   3.396   8.868  0.8907 -1.1500  0.2048
36412SOL     OW11677   2.305   0.220   9.892  0.0228 -0.2035 -0.2257
36412SOL    HW111678   2.324   0.127   9.875 -0.0837  0.2800 -3.6308
36412SOL    HW211679   2.386   0.265   9.869 -0.8526  0.7534 -1.5646
36413SOL     OW11680   2.088   9.890   5.382  0.7811  0.0249  0.6521
36413SOL    HW111681   2.183   9.896   5.378  1.0054 -2.0121  1.5946
36413SOL    HW211682   2.071   9.826   5.451 -1.2754  0.0774  0.2538
36414SOL     OW11683  10.250   7.857   3.672  0.3023  0.1771 -0.3485
36414SOL    HW111684  10.317   7.889   3.611  0.2655 -0.3619 -0.6831
36414SOL    HW211685  10.220   7.935   3.717  1.2359  0.4146 -0.1115
36415SOL     OW11686   8.062   8.512   3.140 -0.0159 -0.4979 -0.3111
36415SOL    HW111687   8.056   8.550   3.052  3.0828  0.7531 -0.1281
36415SOL    HW211688   8.023   8.579   3.197 -0.1478 -0.3773 -0.5399
36416SOL     OW11689   6.322   9.987   6.486 -0.3205  0.2702  0.0210
36416SOL    HW111690   6.311  10.044   6.410 -2.7376 -1.9092 -1.4319
36416SOL    HW211691   6.265  10.024   6.553 -1.5396 -0.1093 -0.7658
36417SOL     OW11692   2.710   8.756   5.497  0.5133 -0.6396  0.0237
36417SOL    HW111693   2.651   8.680   5.499 -1.3766  0.6302 -2.2930
36417SOL    HW211694   2.683   8.809   5.572 -2.1807  0.4247 -1.5572
36418SOL     OW11695   6.392   3.730   4.402  0.2903  0.2883 -0.4657
36418SOL    HW111696   6.364   3.647   4.440  1.5998  0.9067  2.0357
36418SOL    HW211697   6.409   3.710   4.310  1.0001 -2.3310  0.1660
36419SOL     OW11698   4.496   7.055   0.940 -0.0016 -0.3271 -0.2188
36419SOL    HW111699   4.548   7.045   1.020  0.4798 -1.6648 -0.6644
36419SOL    HW211700   4.537   7.127   0.893 -0.6144  0.8318  0.9586
36420SOL     OW11701   7.220   3.958   4.603 -0.0659 -0.3549  0.1620
36420SOL    HW111702   7.163   4.025   4.566 -0.7167 -1.0480 -0.1037
36420SOL    HW211703   7.175   3.928   4.682  1.2076  0.9590  1.4476
36421SOL     OW11704   3.455   2.231   8.565 -0.0588  0.0867  0.0417
36421SOL    HW111705   3.411   2.243   8.650 -0.0293 -1.2432  0.2569
36421SOL    HW211706   3.384   2.234   8.501 -0.2736 -0.3986  0.2512
36422SOL     OW11707   9.109   8.352   8.592 -0.1655  0.5771 -0.2492
36422SOL    HW111708   9.086   8.389   8.507 -1.4634  0.0658 -0.1487
36422SOL    HW211709   9.203   8.333   8.586 -0.1723  0.8575 -1.4459
36423SOL     OW11710  10.435   2.305   2.123 -0.3197 -0.6894  0.3020
36423SOL    HW111711  10.503   2.244   2.154  0.2412 -0.8317 -1.1191
36423SOL    HW211712  10.468   2.336   2.039 -2.4513 -1.5071 -0.9283
36424SOL     OW11713   4.943   1.581   5.046  0.3221  0.0369 -0.7445
36424SOL    HW111714   4.856   1.544   5.036  0.6926 -0.7898 -0.9610
36424SOL    HW211715   4.983   1.573   4.960  0.6326  0.3730 -0.6357
36425SOL     OW11716   8.171   7.513   1.425  0.0528 -0.0092  0.2125
36425SOL    HW111717   8.174   7.605   1.399 -1.1641  0.1721  0.6606
36425SOL    HW211718   8.104   7.474   1.369  0.8143 -0.7326 -0.2394
36426SOL     OW11719   7.852   5.495  10.265 -0.3085  0.3330 -0.2777
36426SOL    HW111720   7.864   5.563  10.198  3.3983  0.5496  0.3546
36426SOL    HW211721   7.882   5.415  10.222 -0.0136  0.0655  0.4122
36427SOL     OW11722   4.845   4.899   8.682 -0.0680 -0.5457  0.1539
36427SOL    HW111723   4.866   4.846   8.759 -1.4990 -0.1057  0.8644
36427SOL    HW211724   4.759   4.869   8.654 -0.6903  1.0639  0.2659
36428SOL     OW11725   4.216  10.283   6.880 -0.6082 -0.3506 -0.4413
36428SOL    HW111726   4.193  10.208   6.826 -1.3890 -0.1844 -0.3569
36428SOL    HW211727   4.133  10.328   6.895 -0.0909  0.8407 -0.9573
36429SOL     OW11728   8.141   4.009   4.703  0.6464  0.0120  0.5690
36429SOL    HW111729   8.115   3.934   4.756  1.1774 -0.2855  0.4176
36429SOL    HW211730   8.142   3.976   4.613 -2.3052  1.0296  0.0396
36430SOL     OW11731   8.292   1.130   7.959  0.2439  0.0116  0.5179
36430SOL    HW111732   8.377   1.151   7.919  1.0596 -1.6219  1.2981
36430SOL    HW211733   8.312   1.063   8.023 -1.5760  0.0473  1.1742
36431SOL     OW11734  10.264   2.524   2.884 -0.7207 -0.0948 -0.0238
36431SOL    HW111735  10.263   2.515   2.789  0.7364 -0.2832 -0.0389
36431SOL    HW211736  10.297   2.440   2.915  1.4073  0.8636  0.4812
36432SOL     OW11737   1.107   2.882   2.964  0.4396 -0.0833  0.0029
36432SOL    HW111738   1.034   2.873   2.902  0.5883 -0.5504 -0.1025
36432SOL    HW211739   1.073   2.845   3.046  0.0750  0.9617  0.3477
36433SOL     OW11740   3.269   4.439   3.903 -0.1566 -0.0541 -0.0379
36433SOL    HW111741   3.323   4.434   3.982  0.9816 -1.3947 -0.8678
36433SOL    HW211742   3.180   4.423   3.935  0.4378 -1.8635  0.8329
36434SOL     OW11743   7.822   6.895   7.517  0.4200  0.1306 -0.1736
36434SOL    HW111744   7.893   6.867   7.459  1.5456  1.9685  0.2227
36434SOL    HW211745   7.742   6.865   7.473  1.2947  0.3811 -2.0507
36435SOL     OW11746   0.520   8.042   6.524 -0.3924 -0.7046  0.2362
36435SOL    HW111747   0.476   8.124   6.545 -2.3044 -2.1411  2.2265
36435SOL    HW211748   0.470   8.006   6.450  0.3993 -0.1764 -0.5861
36436SOL     OW11749   5.723   2.937   5.973  0.3517 -0.1699 -0.2127
36436SOL    HW111750   5.680   2.964   6.055  0.5066 -0.5486 -0.0066
36436SOL    HW211751   5.650   2.922   5.912  0.0841 -1.9805  0.4758
36437SOL     OW11752   1.524   1.418  10.234 -0.5897 -0.2946 -0.1973
36437SOL    HW111753   1.526   1.354  10.163  0.6737 -1.5274  0.8903
36437SOL    HW211754   1.602   1.472  10.221  0.0383 -0.9825  0.6388
36438SOL     OW11755   3.762   3.241   3.284  0.7182 -0.0017  0.1524
36438SOL    HW111756   3.774   3.203   3.197  1.2497  1.0861 -0.2763
36438SOL    HW211757   3.851   3.248   3.319  0.5698  0.1858  0.4978
36439SOL     OW11758   4.385   4.769   2.902  0.4098  0.2037  0.7507
36439SOL    HW111759   4.325   4.803   2.836 -0.3067 -1.9601  0.1929
36439SOL    HW211760   4.374   4.674   2.898  2.7450 -0.1925  1.7235
36440SOL     OW11761   9.675   4.217   5.871  0.1720  0.0410  0.0551
36440SOL    HW111762   9.770   4.208   5.868  0.1085 -0.3822 -2.5856
36440SOL    HW211763   9.653   4.269   5.793 -1.9521 -2.3564 -1.0721
36441SOL     OW11764   1.665   2.148   0.531 -0.4355 -0.1970  0.2756
36441SOL    HW111765   1.627   2.217   0.477 -1.3455 -0.9618 -0.1053
36441SOL    HW211766   1.757   2.143   0.504 -0.8483 -0.5142 -1.1835
36442SOL     OW11767   7.751   9.106   9.883 -0.1588  0.7205  0.0331
36442SOL    HW111768   7.767   9.125   9.976  1.2172  1.8474 -0.4032
36442SOL    HW211769   7.657   9.120   9.872 -0.4115  0.2232  1.3196
36443SOL     OW11770   4.659   9.407   1.793 -0.5445  0.0633 -0.3549
36443SOL    HW111771   4.672   9.312   1.792 -1.3742 -0.0605 -1.8152
36443SOL    HW211772   4.565   9.419   1.775 -0.1933  1.1697 -1.6588
36444SOL     OW11773   8.782   5.104   0.685  0.1079  0.1882 -0.1983
36444SOL    HW111774   8.722   5.100   0.760  1.6401 -0.3999  1.0527
36444SOL    HW211775   8.843   5.174   0.707  1.6276 -1.1325 -0.0452
36445SOL     OW11776   2.568   0.976   3.255 -0.1247  0.1590  0.5478
36445SOL    HW111777   2.606   0.900   3.212 -1.2515 -0.5132  0.6898
36445SOL    HW211778   2.476   0.977   3.226  0.0546  1.9373 -0.0905
36446SOL     OW11779   2.622  10.035   0.201 -0.7384  0.0415  0.7148
36446SOL    HW111780   2.580   9.953   0.175  0.1712 -0.2660  0.1837
36446SOL    HW211781   2.549  10.092   0.225 -1.4794 -0.4664 -0.2227
36447SOL     OW11782   6.247   7.717  10.367  0.5111 -0.1262 -0.5703
36447SOL    HW111783   6.304   7.646  10.336  0.9884 -0.1576  0.3313
36447SOL    HW211784   6.293   7.753  10.443  0.1659  1.0047 -0.8686
36448SOL     OW11785   6.364   9.111   9.566  0.4808 -0.3814 -0.3359
36448SOL    HW111786   6.357   9.041   9.502  0.2233  0.1587 -0.9056
36448SOL    HW211787   6.388   9.066   9.648 -1.3533 -1.3405 -0.2682
36449SOL     OW11788   7.988   0.190   5.641 -0.0935  0.7116 -0.2327
36449SOL    HW111789   7.972   0.256   5.708 -1.2216  0.1241  0.1151
36449SOL    HW211790   7.987   0.238   5.558 -0.8283  1.1560  0.0224
36450SOL     OW11791   4.448   5.205   9.964 -0.2566 -0.1988  0.6419
36450SOL    HW111792   4.451   5.160  10.049  0.6880  1.5881  1.6178
36450SOL    HW211793   4.475   5.139   9.901 -1.0316 -1.5927  1.7162
36451SOL     OW11794   8.746  10.328   0.276 -0.0052  0.1366  0.3812
36451SOL    HW111795   8.717  10.299   0.363  0.0961  1.5349  0.9052
36451SOL    HW211796   8.801  10.256   0.245 -0.7066 -0.7528  1.1067
36452SOL     OW11797   7.714   5.292   9.332 -0.2930 -0.0928  0.0868
36452SOL    HW111798   7.621   5.313   9.323 -0.2923  0.3298  0.9705
36452SOL    HW211799   7.721   5.252   9.418  0.3699  0.0360  0.0972
36453SOL     OW11800   5.924   6.189   0.377  0.0541 -0.3153  0.0914
36453SOL    HW111801   5.896   6.275   0.346 -0.2855 -0.2872  0.4761
36453SOL    HW211802   6.019   6.196   0.385 -0.0652  0.3749  1.1443
36454SOL     OW11803   4.969   1.276   6.121 -0.4863 -0.0476 -0.4544
36454SOL    HW111804   5.026   1.258   6.045 -1.1915 -0.5343 -0.8760
36454SOL    HW211805   4.897   1.215   6.111  0.1983 -1.2317  1.4870
36455SOL     OW11806   4.405   2.275   9.053  0.3994  0.0916 -0.0228
36455SOL    HW111807   4.334   2.276   9.117  0.9647 -1.2086  0.6556
36455SOL    HW211808   4.364   2.251   8.970  0.0371 -0.6100  0.3559
36456SOL     OW11809   6.669   0.470   8.959 -0.2469 -0.0847 -0.1032
36456SOL    HW111810   6.680   0.558   8.993 -1.8633  0.1607 -0.1337
36456SOL    HW211811   6.687   0.413   9.033 -2.7008  0.4160  0.9773
36457SOL     OW11812   8.279   9.840   0.811  0.1639  0.0450  0.4213
36457SOL    HW111813   8.374   9.854   0.814  0.0034  1.1732  0.5870
36457SOL    HW211814   8.261   9.816   0.721  0.7391 -1.2404  0.6332
36458SOL     OW11815   4.855   3.252   1.984  0.8140  0.0478  0.2148
36458SOL    HW111816   4.865   3.208   2.068 -1.3609  1.9837  1.6146
36458SOL    HW211817   4.857   3.345   2.006 -0.9329  0.5969 -1.6725
36459SOL     OW11818   3.855   1.211   9.553  0.0626  0.3561 -0.8133
36459SOL    HW111819   3.930   1.160   9.582  0.0101  1.3997  1.2917
36459SOL    HW211820   3.866   1.217   9.458  2.1849 -0.2059 -0.6533
36460SOL     OW11821   6.567   5.714   9.099  0.7597  0.3624 -0.2479
36460SOL    HW111822   6.495   5.777   9.108  0.0238 -0.3344 -1.0653
36460SOL    HW211823   6.607   5.711   9.185 -0.5096  0.4109  0.3709
36461SOL     OW11824   9.061   5.826   5.336 -0.5660 -0.2954 -0.0840
36461SOL    HW111825   9.073   5.772   5.258 -0.1311  1.4255 -1.2603
36461SOL    HW211826   9.095   5.772   5.408 -0.5852 -1.7506 -1.1224
36462SOL     OW11827   1.461  10.158   0.198  0.2326  0.1771 -0.4306
36462SOL    HW111828   1.513  10.199   0.129  0.7332  1.6149  0.7491
36462SOL    HW211829   1.526  10.128   0.262 -0.2756 -0.2375 -0.1029
36463SOL     OW11830   8.509   6.430   7.918  0.0488  0.5152  0.0281
36463SOL    HW111831   8.593   6.409   7.958  1.3863  3.0118 -1.2154
36463SOL    HW211832   8.469   6.345   7.900  1.3499 -0.7413  2.4474
36464SOL     OW11833   1.502   0.421   0.224 -0.5676 -0.5764  0.2286
36464SOL    HW111834   1.499   0.422   0.319  1.7297 -1.0468  0.3469
36464SOL    HW211835   1.462   0.504   0.198 -0.0155  0.1594  1.6528
36465SOL     OW11836   4.623   8.638   9.838 -0.0795  0.1472 -0.4469
36465SOL    HW111837   4.615   8.647   9.743  1.3055 -1.1048 -0.7056
36465SOL    HW211838   4.544   8.680   9.873 -1.5519 -1.0593 -2.2189
36466SOL     OW11839   9.451   8.839   6.813 -0.0016 -0.2765 -0.4300
36466SOL    HW111840   9.473   8.910   6.874  0.0977 -0.3095 -0.4278
36466SOL    HW211841   9.428   8.765   6.870 -0.6095 -0.0930 -0.4307
36467SOL     OW11842   4.481   7.974   9.186 -0.5305  0.0687  0.0213
36467SOL    HW111843   4.392   8.007   9.198 -0.8963 -0.6405 -0.6228
36467SOL    HW211844   4.498   7.923   9.264 -1.0839 -0.6243 -0.2986
36468SOL     OW11845   9.845   7.447   9.582  0.2558 -0.2460 -0.0981
36468SOL    HW111846   9.752   7.428   9.600 -0.0805  1.3665  0.0327
36468SOL    HW211847   9.850   7.542   9.583  2.1101 -0.3194  0.8050
36469SOL     OW11848   6.608   8.726  10.456 -0.0585  0.4175 -0.0143
36469SOL    HW111849   6.570   8.712  10.543  2.1182  1.0256  1.1129
36469SOL    HW211850   6.695   8.762  10.473 -0.0914  1.9017 -2.5027
36470SOL     OW11851   7.720   0.060   0.808  0.0355  0.9029 -0.3251
36470SOL    HW111852   7.710   0.116   0.731  0.0821 -0.0241 -1.0289
36470SOL    HW211853   7.750  -0.024   0.773 -2.0636 -0.2508  0.4332
36471SOL     OW11854   0.966   0.622  10.214 -0.1567 -0.6595 -0.2912
36471SOL    HW111855   0.876   0.635  10.243 -0.3375 -1.3642 -0.5134
36471SOL    HW211856   1.018   0.681  10.269 -0.6324 -1.0430  0.5923
36472SOL     OW11857   0.609   5.289   7.931 -0.4967  0.2510  0.3535
36472SOL    HW111858   0.698   5.260   7.950 -0.2910  1.1216  0.7580
36472SOL    HW211859   0.557   5.261   8.007 -0.7315 -0.9173 -0.2172
36473SOL     OW11860   9.187   8.792   7.852  0.0560  0.0850 -0.4905
36473SOL    HW111861   9.170   8.867   7.796  1.4979  0.4102 -0.5162
36473SOL    HW211862   9.100   8.757   7.872 -0.6723  1.9241 -0.2376
36474SOL     OW11863   3.212   0.948   3.956  0.4879 -0.1843  0.5821
36474SOL    HW111864   3.229   0.901   4.038  1.0730 -0.2391  0.4322
36474SOL    HW211865   3.207   0.880   3.890 -2.1086 -0.3553  0.8581
36475SOL     OW11866   1.883   5.412   9.790 -0.2562  0.2070  0.9926
36475SOL    HW111867   1.844   5.366   9.716  1.9476  1.8586 -1.3871
36475SOL    HW211868   1.929   5.345   9.839 -0.6822 -0.7524  0.1143
36476SOL     OW11869   5.965  10.320   5.337  0.3160  0.5022  0.4542
36476SOL    HW111870   5.982  10.404   5.381  0.2210  0.8439 -0.1526
36476SOL    HW211871   6.051  10.292   5.305  0.6426 -0.4574  2.0722
36477SOL     OW11872  10.061   5.495   3.251 -0.3136  0.7490 -0.1401
36477SOL    HW111873  10.101   5.580   3.234  0.3744  0.3794 -0.4164
36477SOL    HW211874  10.103   5.465   3.331 -1.2405  1.0759  0.4853
36478SOL     OW11875   2.730   2.288   5.083  0.1528  0.3229  0.2500
36478SOL    HW111876   2.640   2.281   5.116  0.4551 -3.7870  0.7501
36478SOL    HW211877   2.782   2.309   5.161  0.0781 -2.6790  1.2704
36479SOL     OW11878   6.371   8.199   7.547 -0.7768 -0.2789  0.4931
36479SOL    HW111879   6.333   8.286   7.551 -0.9329 -0.2815 -0.5372
36479SOL    HW211880   6.296   8.140   7.548 -0.7820 -0.3208 -0.4971
36480SOL     OW11881   8.467   0.649   9.847  0.2269 -0.2813  0.4519
36480SOL    HW111882   8.427   0.562   9.838  0.9701 -0.8538  2.2747
36480SOL    HW211883   8.519   0.643   9.927  0.4883  1.7807  0.4772
36481SOL     OW11884   3.197   8.428   5.037  0.2305 -0.2273  0.0509
36481SOL    HW111885   3.218   8.467   4.952  0.2426 -0.8681 -0.2417
36481SOL    HW211886   3.223   8.495   5.100  0.8950 -0.0327 -0.4140
36482SOL     OW11887   9.928   1.885   9.639  0.0775 -0.1592  0.1554
36482SOL    HW111888   9.995   1.905   9.705  0.1838  0.5231 -0.1473
36482SOL    HW211889   9.851   1.934   9.667 -0.3444 -1.0183  0.5540
36483SOL     OW11890   7.206   9.476   3.937  0.3802 -0.0113  0.6029
36483SOL    HW111891   7.188   9.548   3.998 -2.2029 -0.0663  0.0225
36483SOL    HW211892   7.143   9.409   3.960  0.2063 -0.5514 -1.3050
36484SOL     OW11893   1.277   3.390   5.486  0.2195 -0.3758  0.2783
36484SOL    HW111894   1.213   3.334   5.530  0.5787 -0.8184  0.2509
36484SOL    HW211895   1.225   3.449   5.432 -0.2170  0.0460  1.1471
36485SOL     OW11896   8.715   3.998   6.915 -0.4588  0.6123 -0.3536
36485SOL    HW111897   8.793   4.011   6.860 -0.8926  2.8305 -0.5447
36485SOL    HW211898   8.735   4.047   6.995 -1.2465  0.3270  0.0183
36486SOL     OW11899   1.389   4.633   5.898 -0.0407 -0.4861  0.7248
36486SOL    HW111900   1.297   4.631   5.873  0.1652 -1.4027 -0.0072
36486SOL    HW211901   1.391   4.689   5.975 -0.8079  1.9182 -0.8606
36487SOL     OW11902   7.107   4.076   8.538  0.0601  0.1997  0.0582
36487SOL    HW111903   7.069   3.990   8.555 -0.4009  0.4081  0.0792
36487SOL    HW211904   7.179   4.058   8.476 -1.2417  0.0251 -1.4717
36488SOL     OW11905   5.709   6.108   4.682  0.4295 -0.3136 -0.5952
36488SOL    HW111906   5.796   6.147   4.681  1.5544 -2.5720  0.6480
36488SOL    HW211907   5.700   6.068   4.596  0.6399 -0.1195 -0.7086
36489SOL     OW11908   7.007   4.155   5.786  0.3454  0.2527  0.1973
36489SOL    HW111909   6.990   4.062   5.771 -3.2617  0.8401 -0.2441
36489SOL    HW211910   7.084   4.156   5.843  0.2788 -3.0035  0.5530
36490SOL     OW11911   6.032   0.984   8.324  0.6424 -0.5896 -0.0953
36490SOL    HW111912   6.092   0.976   8.250  0.1141  0.2549 -0.6202
36490SOL    HW211913   6.065   1.058   8.374  1.3546 -1.5219  0.8745
36491SOL     OW11914   3.584   9.231   5.703  0.3587 -0.4776 -0.6149
36491SOL    HW111915   3.551   9.319   5.725 -0.1783 -1.0060  0.8420
36491SOL    HW211916   3.563   9.220   5.611  0.6012  0.9947 -0.8776
36492SOL     OW11917   2.324   4.838   2.901  0.2404 -0.2409 -0.3902
36492SOL    HW111918   2.357   4.811   2.987 -2.4135 -1.6990  0.2786
36492SOL    HW211919   2.368   4.780   2.839 -0.0719 -1.2902  0.3402
36493SOL     OW11920   5.683   9.395   1.935 -0.5932 -0.0082 -0.5009
36493SOL    HW111921   5.688   9.300   1.921  1.3384 -0.1242  0.6232
36493SOL    HW211922   5.753   9.431   1.881 -0.2126  0.5869  0.3672
36494SOL     OW11923  10.287   0.454   5.356  0.1365 -0.0293  0.0765
36494SOL    HW111924  10.368   0.440   5.307  0.6701  2.1898  0.2428
36494SOL    HW211925  10.313   0.505   5.432 -1.2426 -0.3286  0.7885
36495SOL     OW11926   2.483   5.924   1.208  0.1688 -0.4768 -0.3846
36495SOL    HW111927   2.462   5.859   1.275 -0.5033 -0.6572 -0.7567
36495SOL    HW211928   2.398   5.962   1.184  0.5189  0.3162 -0.3951
36496SOL     OW11929   2.467   6.385   2.434 -0.1638  0.1719 -0.7327
36496SOL    HW111930   2.495   6.339   2.513 -0.8286  0.3493 -0.3865
36496SOL    HW211931   2.380   6.418   2.455  0.3799  1.8019 -0.8858
36497SOL     OW11932  10.469   5.782   8.320 -0.3617  0.1449 -0.2109
36497SOL    HW111933  10.542   5.793   8.381  0.2465  2.9853 -1.2881
36497SOL    HW211934  10.502   5.721   8.254  0.5878  0.4087  0.0024
36498SOL     OW11935   8.055   3.427   3.300 -0.1615 -0.4669 -0.0232
36498SOL    HW111936   8.100   3.454   3.380  0.6564 -1.2202 -0.2115
36498SOL    HW211937   8.021   3.340   3.320 -0.2641 -0.5053 -0.3676
36499SOL     OW11938   4.252   0.392   5.951 -0.3058 -0.3013 -0.0769
36499SOL    HW111939   4.253   0.397   5.856  1.2079  1.6579 -0.0237
36499SOL    HW211940   4.159   0.396   5.974 -0.6884 -0.7193 -1.4490
36500SOL     OW11941   5.212   8.259   8.969  0.6296  0.2060  0.1694
36500SOL    HW111942   5.150   8.320   9.009  0.9753 -0.3743  1.6308
36500SOL    HW211943   5.224   8.293   8.880 -0.1669  1.5204  0.5324
36501SOL     OW11944   5.464   5.543   4.091  0.1593 -0.3810  0.1303
36501SOL    HW111945   5.503   5.479   4.152  0.3390  2.1441  2.9441
36501SOL    HW211946   5.381   5.567   4.132  0.3194  1.4828 -0.5518
36502SOL     OW11947   9.274   0.734   4.634 -0.0324  0.8423 -0.5559
36502SOL    HW111948   9.351   0.686   4.663  0.6447  1.3538 -1.4762
36502SOL    HW211949   9.285   0.744   4.540 -1.6322  0.2177 -0.8367
36503SOL     OW11950   1.805   2.925   0.932  0.0843 -0.7112 -0.2295
36503SOL    HW111951   1.863   2.849   0.933  2.9674  1.3267 -0.7034
36503SOL    HW211952   1.781   2.935   0.840  1.2819  0.0403 -0.4701
36504SOL     OW11953   2.579   3.361   7.065 -0.3878 -0.4305  0.3732
36504SOL    HW111954   2.486   3.383   7.061 -0.4587 -0.7473  0.2028
36504SOL    HW211955   2.596   3.341   7.157 -0.1581  0.9955  0.6595
36505SOL     OW11956   5.318   2.649   1.071 -0.3673  0.2894 -0.3483
36505SOL    HW111957   5.264   2.623   0.996  0.2495 -1.4827 -0.2363
36505SOL    HW211958   5.353   2.735   1.047 -0.8864  0.1489 -1.7062
36506SOL     OW11959   0.063   0.447   8.803 -0.0193  0.1499 -0.3385
36506SOL    HW111960   0.068   0.543   8.806  0.8208  0.0945  0.4983
36506SOL    HW211961  -0.008   0.425   8.864 -0.8559  0.2703 -1.2471
36507SOL     OW11962   6.498   4.799   1.874 -0.0729 -0.3744  0.4649
36507SOL    HW111963   6.583   4.787   1.832 -0.8459 -1.1388 -0.9511
36507SOL    HW211964   6.451   4.717   1.856 -1.1218  0.0514  1.1966
36508SOL     OW11965   1.700   4.771  10.404 -0.2645 -0.8953 -0.1137
36508SOL    HW111966   1.742   4.793  10.487 -0.5311 -2.5802  0.5139
36508SOL    HW211967   1.760   4.708  10.364  0.2856  0.5413 -1.6333
36509SOL     OW11968   4.954   1.711   6.289  0.1581 -0.1642  0.9663
36509SOL    HW111969   4.998   1.758   6.359  0.5075 -0.4144  0.9150
36509SOL    HW211970   5.005   1.631   6.277 -0.4177 -0.5552  1.0430
36510SOL     OW11971   4.500   0.624   4.112  0.0239 -0.4460 -0.1743
36510SOL    HW111972   4.465   0.629   4.201  1.0383 -0.3380  0.2308
36510SOL    HW211973   4.447   0.686   4.062 -0.7695 -0.7472  0.2707
36511SOL     OW11974   3.385   1.364   6.879 -0.1999  0.1967 -0.4721
36511SOL    HW111975   3.356   1.452   6.903  2.5733  0.7596  1.3451
36511SOL    HW211976   3.352   1.308   6.950 -0.2939  0.1155 -0.5799
36512SOL     OW11977   7.034   8.572   0.630 -0.5720 -0.8721 -0.0076
36512SOL    HW111978   6.953   8.623   0.638  0.9221  1.8215 -0.7504
36512SOL    HW211979   7.025   8.525   0.547 -1.4711 -0.7639  0.0231
36513SOL     OW11980   7.313   3.628   7.145 -0.3216  0.1561 -0.5363
36513SOL    HW111981   7.253   3.641   7.219 -1.8425 -1.8396 -1.3287
36513SOL    HW211982   7.267   3.665   7.070 -0.4267 -1.0413 -1.0837
36514SOL     OW11983   7.791   5.438   2.332 -0.7100 -0.4058  0.2764
36514SOL    HW111984   7.751   5.525   2.332 -1.6141 -0.8061 -0.8239
36514SOL    HW211985   7.730   5.383   2.284 -0.6159 -1.8843  1.7673
36515SOL     OW11986   5.356   9.308   6.903 -0.2820  0.1574  0.1621
36515SOL    HW111987   5.338   9.222   6.941  0.3231  0.3689  0.9721
36515SOL    HW211988   5.430   9.341   6.954 -0.4995  1.1521 -0.1409
36516SOL     OW11989   6.714   3.642   6.353  0.1664 -0.2108  0.0708
36516SOL    HW111990   6.635   3.611   6.399  0.8431 -2.5007 -0.1556
36516SOL    HW211991   6.784   3.585   6.385  1.3603  0.5119 -1.1474
36517SOL     OW11992   3.930   1.318   0.321  0.1222  0.6765  0.3621
36517SOL    HW111993   3.880   1.354   0.394  0.3593 -0.1781  0.9595
36517SOL    HW211994   4.007   1.374   0.314  1.0132 -0.2778  1.9571
36518SOL     OW11995   2.452   5.726   7.054 -0.3106  0.1038 -0.1601
36518SOL    HW111996   2.494   5.729   7.139 -0.7032 -0.3680  0.0589
36518SOL    HW211997   2.391   5.800   7.053 -0.6326 -0.1536  0.1496
36519SOL     OW11998   1.337   1.031   2.779  0.2973 -0.4841  0.2112
36519SOL    HW111999   1.402   1.005   2.844 -0.4757 -1.6896  0.5326
36519SOL    HW212000   1.387   1.047   2.699  1.1393  0.0269  0.8301
36520SOL     OW12001   1.361   9.471   8.172 -0.0771 -0.6463  0.6926
36520SOL    HW112002   1.386   9.563   8.178 -2.6605  0.4661 -2.7847
36520SOL    HW212003   1.427   9.432   8.114 -1.0812  0.0313 -0.9686
36521SOL     OW12004   3.829   2.073   1.865 -0.2762 -0.4232 -0.0046
36521SOL    HW112005   3.923   2.057   1.872 -0.4549 -1.2587  0.6768
36521SOL    HW212006   3.816   2.099   1.774  1.0461  2.9803  0.6549
36522SOL     OW12007   3.142   6.178   6.293 -0.0227  0.6430 -0.1363
36522SOL    HW112008   3.208   6.131   6.344 -1.3876 -0.0861  1.0637
36522SOL    HW212009   3.077   6.111   6.272 -0.0774  1.1958 -1.8722
36523SOL     OW12010   9.976   4.416   2.801  0.7990 -0.0589  0.1060
36523SOL    HW112011  10.067   4.398   2.823  1.3112  1.4226 -0.6656
36523SOL    HW212012   9.926   4.370   2.868  2.0463 -1.9837 -0.2274
36524SOL     OW12013   3.179   7.205   1.016  0.4128  0.4350  0.1879
36524SOL    HW112014   3.091   7.171   1.035  0.8370 -0.9121 -0.1151
36524SOL    HW212015   3.237   7.149   1.068  1.1316  0.9132 -0.1016
36525SOL     OW12016   1.224   6.035  10.048  0.3251 -0.7064 -0.2086
36525SOL    HW112017   1.242   5.946  10.018 -1.8622 -1.5528  0.7997
36525SOL    HW212018   1.142   6.028  10.097  1.9384  1.1775  3.1033
36526SOL     OW12019   5.923   2.167   2.557 -0.2455 -0.6360  0.2558
36526SOL    HW112020   5.898   2.200   2.643  0.0653  1.2129 -0.3244
36526SOL    HW212021   5.853   2.196   2.499 -0.2162 -1.4625 -0.2172
36527SOL     OW12022   4.812   3.068   7.069 -0.0874  0.4037 -0.1056
36527SOL    HW112023   4.766   2.991   7.035  0.3426  0.4538 -0.8207
36527SOL    HW212024   4.815   3.129   6.995  0.4607  0.7013  0.1558
36528SOL     OW12025   8.539   5.143   5.746 -0.0515  0.4840  0.5988
36528SOL    HW112026   8.467   5.188   5.701  0.5145  1.3561  0.5461
36528SOL    HW212027   8.521   5.157   5.839 -0.7120 -0.5233  0.6392
36529SOL     OW12028   1.541   6.938   6.826  0.2429 -0.1415  0.1986
36529SOL    HW112029   1.520   6.971   6.913  0.3004 -0.2172  0.2416
36529SOL    HW212030   1.549   7.016   6.772 -1.7747 -0.1632 -0.1971
36530SOL     OW12031   3.749   0.407   3.769  0.1279  0.3839  0.1145
36530SOL    HW112032   3.683   0.386   3.703 -0.6698  1.4685  0.5386
36530SOL    HW212033   3.786   0.491   3.739  0.3282  0.4761  0.6123
36531SOL     OW12034   2.383   0.910   3.960 -0.1991 -0.1446 -0.0254
36531SOL    HW112035   2.327   0.837   3.983  1.1926 -0.9714  0.8916
36531SOL    HW212036   2.388   0.908   3.865 -0.1580 -1.2554 -0.0045
36532SOL     OW12037   5.696   2.496   8.200  0.1422 -0.2539 -0.3885
36532SOL    HW112038   5.748   2.446   8.136  0.0093  0.2790 -0.9187
36532SOL    HW212039   5.608   2.498   8.163 -0.6305 -2.2768  1.1316
36533SOL     OW12040   1.851   4.080   2.476 -0.0491 -0.4041  0.1466
36533SOL    HW112041   1.768   4.121   2.453  0.7695  0.1459 -2.0747
36533SOL    HW212042   1.913   4.153   2.479  0.6691 -1.0034  0.0830
36534SOL     OW12043   7.552   4.658   5.579  0.2123  0.2875 -0.1292
36534SOL    HW112044   7.561   4.563   5.588  0.6838  0.1853 -1.4326
36534SOL    HW212045   7.458   4.673   5.577  0.1361 -0.2269 -0.5253
36535SOL     OW12046   8.283   4.869   6.040  0.4658  0.8947 -0.3078
36535SOL    HW112047   8.305   4.889   5.949 -0.6292  0.7148 -0.6262
36535SOL    HW212048   8.195   4.905   6.052 -1.2743 -2.7903 -0.6440
36536SOL     OW12049   6.392   2.784  10.257 -0.2644 -0.1231  0.3396
36536SOL    HW112050   6.421   2.828  10.337  0.5251  0.9848 -0.5326
36536SOL    HW212051   6.459   2.717  10.241  0.0835  0.2817  0.0960
36537SOL     OW12052   1.333   5.566   8.652  0.0170  0.0721 -0.5737
36537SOL    HW112053   1.327   5.483   8.604 -1.4321  0.2062 -0.6891
36537SOL    HW212054   1.278   5.627   8.601 -0.4733  0.5817  0.5231
36538SOL     OW12055   8.506   8.701   2.366  0.0195  0.8246 -0.1653
36538SOL    HW112056   8.460   8.707   2.282 -1.1676 -2.4870  0.1004
36538SOL    HW212057   8.438   8.681   2.430  1.4762 -3.1713  0.4300
36539SOL     OW12058   3.962  10.233  10.200  0.3771  0.4344 -0.3614
36539SOL    HW112059   3.910  10.153  10.188  1.8539 -0.5640 -0.4487
36539SOL    HW212060   3.969  10.243  10.295  2.1659 -0.9444 -0.3023
36540SOL     OW12061   0.723   3.104   4.871 -0.2458  0.0152 -0.6245
36540SOL    HW112062   0.721   3.008   4.871 -3.1464 -0.0159 -0.5145
36540SOL    HW212063   0.757   3.127   4.958  1.3450 -0.8629 -0.9806
36541SOL     OW12064   9.622   6.182   4.307  0.1966  0.4533  0.4375
36541SOL    HW112065   9.537   6.195   4.349  0.7788  1.7830  1.2860
36541SOL    HW212066   9.655   6.101   4.345 -0.3823  0.3038  0.6372
36542SOL     OW12067   5.987   8.763   5.857  0.0836  0.4473 -0.1330
36542SOL    HW112068   5.909   8.795   5.811 -0.4146  1.4410  1.3288
36542SOL    HW212069   6.057   8.770   5.792 -0.2989  3.1962 -0.3757
36543SOL     OW12070   4.298   6.890   3.967  0.4211  0.0199  0.3754
36543SOL    HW112071   4.361   6.844   4.023  0.1321 -2.7077 -1.3526
36543SOL    HW212072   4.215   6.845   3.982  0.0108  0.2095 -1.1243
36544SOL     OW12073   8.425   3.849   4.061 -0.3954 -0.2546  0.2295
36544SOL    HW112074   8.337   3.868   4.094 -0.0339  0.3432  0.8833
36544SOL    HW212075   8.475   3.929   4.079  0.3769 -0.7193  0.1928
36545SOL     OW12076   1.355   1.384   3.564  0.5866 -0.1361  0.1607
36545SOL    HW112077   1.268   1.421   3.573  0.5434  0.2290 -1.4784
36545SOL    HW212078   1.382   1.364   3.654 -1.0111  0.1025  0.7200
36546SOL     OW12079   5.052   2.967   0.238 -0.1724 -0.3203  0.3175
36546SOL    HW112080   5.054   2.973   0.334 -0.0788  0.3129  0.2784
36546SOL    HW212081   5.029   2.876   0.221 -3.0076  0.1910  0.9619
36547SOL     OW12082   3.433   8.913   2.834  0.1301  0.1271 -0.9780
36547SOL    HW112083   3.511   8.951   2.874  0.0436 -2.3241  1.8368
36547SOL    HW212084   3.360   8.960   2.875  0.0884 -0.2080 -0.6631
36548SOL     OW12085   3.850   8.719   9.531  0.4114 -0.6133  0.0538
36548SOL    HW112086   3.809   8.681   9.454 -0.9351 -1.3919  1.1162
36548SOL    HW212087   3.917   8.778   9.496  0.1113 -1.2576 -1.6830
36549SOL     OW12088   8.752   6.971   4.083 -0.3990  0.4086 -0.4285
36549SOL    HW112089   8.745   7.021   4.164  0.4361  1.1261 -0.7836
36549SOL    HW212090   8.843   6.984   4.054 -1.3085  2.2975 -2.7971
36550SOL     OW12091   4.767   3.093   8.308  0.1438  0.0445  0.3310
36550SOL    HW112092   4.847   3.130   8.346  1.5920  1.6640 -3.7661
36550SOL    HW212093   4.796   3.013   8.264 -1.0446 -0.6611  0.7638
36551SOL     OW12094   4.706   1.098   5.814 -0.5475 -0.0420 -0.5967
36551SOL    HW112095   4.619   1.070   5.844 -0.6751  0.3700 -0.5775
36551SOL    HW212096   4.767   1.047   5.867 -0.7788 -0.3183 -0.5951
36552SOL     OW12097   0.689   5.522   3.773 -0.1850 -0.0903  0.4678
36552SOL    HW112098   0.645   5.544   3.691 -1.7157 -1.4685  0.8566
36552SOL    HW212099   0.693   5.604   3.822  2.2629  1.1307 -1.5855
36553SOL     OW12100   7.612   7.848   0.340  0.2477  0.0013 -0.0027
36553SOL    HW112101   7.620   7.943   0.351  0.1931 -0.0413  0.4154
36553SOL    HW212102   7.628   7.834   0.246  0.0135  0.4479 -0.1143
36554SOL     OW12103   9.605   6.568   9.415  0.6867  0.4425  0.2061
36554SOL    HW112104   9.634   6.487   9.372 -0.4189 -0.3406  0.8958
36554SOL    HW212105   9.564   6.618   9.345  0.6847  0.0647 -0.0672
36555SOL     OW12106   9.287   9.510   5.507  0.0593 -0.0177  0.3405
36555SOL    HW112107   9.234   9.589   5.512  0.8801  0.5630  0.0497
36555SOL    HW212108   9.347   9.516   5.581  0.1900 -0.3198  0.2619
36556SOL     OW12109   8.078   6.293   4.864 -0.5228 -0.4271  0.0844
36556SOL    HW112110   8.161   6.320   4.904 -1.0415 -0.1986  1.0287
36556SOL    HW212111   8.053   6.368   4.809 -0.8867  0.1731  1.0374
36557SOL     OW12112   0.960   5.064   2.368 -0.1866 -0.9432  0.2377
36557SOL    HW112113   0.897   4.994   2.387 -1.0098 -0.0948  0.6976
36557SOL    HW212114   0.934   5.097   2.282  1.4357 -2.4940 -0.9303
36558SOL     OW12115   2.237   2.002   2.651 -0.3928  0.0477 -0.4091
36558SOL    HW112116   2.271   2.091   2.659  0.0487 -0.1997  0.5904
36558SOL    HW212117   2.238   1.968   2.740 -1.5914 -0.5886 -0.6256
36559SOL     OW12118   4.857   3.430   9.013 -0.6148 -0.1458 -0.2143
36559SOL    HW112119   4.884   3.502   9.070 -0.0761  0.4677 -1.2129
36559SOL    HW212120   4.793   3.381   9.064  2.7052 -1.9965  2.5358
36560SOL     OW12121   4.435   3.488   0.479  0.0311 -0.1946  0.8760
36560SOL    HW112122   4.516   3.524   0.514 -0.2913  0.5822  0.8426
36560SOL    HW212123   4.386   3.460   0.556 -1.0656  2.3274  1.1761
36561SOL     OW12124   7.420   4.843   8.807  0.1785 -0.6377  0.4493
36561SOL    HW112125   7.510   4.872   8.790  0.8652 -2.3515  0.8882
36561SOL    HW212126   7.404   4.774   8.743 -0.7674 -0.4520  0.4779
36562SOL     OW12127   8.586   8.538   6.886 -0.1271 -0.0443 -0.1716
36562SOL    HW112128   8.535   8.576   6.957 -0.7556 -1.5128  0.2005
36562SOL    HW212129   8.676   8.535   6.919 -0.1978  0.4155  0.0693
36563SOL     OW12130   3.603   2.643  10.444  0.3889  0.6281 -0.4162
36563SOL    HW112131   3.595   2.619  10.352  0.5516  0.5784 -0.4177
36563SOL    HW212132   3.549   2.579  10.490  2.7522 -1.3338 -0.1804
36564SOL     OW12133   8.061   0.121   3.903  0.1955 -0.3901 -0.1718
36564SOL    HW112134   8.155   0.107   3.899  0.6638  2.1851  0.2150
36564SOL    HW212135   8.042   0.132   3.996 -0.6894 -1.8066 -0.1525
36565SOL     OW12136   1.799   2.039   6.034  0.4795 -0.4591 -0.0981
36565SOL    HW112137   1.789   1.959   6.085 -0.7883 -0.5550 -0.4619
36565SOL    HW212138   1.873   2.021   5.975  0.9969 -0.8937  0.6706
36566SOL     OW12139   9.886   9.242   9.312  0.3835  0.8742  0.4443
36566SOL    HW112140   9.816   9.253   9.377 -0.8589  1.2543 -0.9125
36566SOL    HW212141   9.936   9.324   9.317 -1.2480  1.9968 -0.8186
36567SOL     OW12142   6.733   2.916   4.146  0.4524  0.0474 -0.2189
36567SOL    HW112143   6.760   2.967   4.070  0.9520  0.6450  0.3434
36567SOL    HW212144   6.807   2.858   4.164  0.3621 -0.0467 -0.1476
36568SOL     OW12145   6.757   7.193   1.767  0.1674  0.0668 -0.1001
36568SOL    HW112146   6.848   7.166   1.760  0.8967  2.4378 -0.4813
36568SOL    HW212147   6.729   7.209   1.677 -0.8391 -1.1767 -0.0431
36569SOL     OW12148   0.392   6.602  10.456  0.1768  0.1675  0.4185
36569SOL    HW112149   0.478   6.625  10.492  0.5583 -1.7685  0.8487
36569SOL    HW212150   0.404   6.605  10.361  0.5600  0.4478  0.4731
36570SOL     OW12151   4.554   0.836   8.744 -0.0150  0.9569 -0.1296
36570SOL    HW112152   4.527   0.744   8.744 -1.4996  1.3650  0.3682
36570SOL    HW212153   4.515   0.873   8.665  1.7068  0.8897 -1.0652
36571SOL     OW12154   3.597   2.563  10.202  0.3914 -0.5269 -0.5960
36571SOL    HW112155   3.612   2.478  10.161 -0.2204 -0.8397 -0.1941
36571SOL    HW212156   3.543   2.610  10.139 -0.7131 -1.0794 -0.0942
36572SOL     OW12157   7.238  10.219   8.518  0.3742  0.2459  0.4079
36572SOL    HW112158   7.224  10.129   8.488 -0.1474  0.3445  0.3462
36572SOL    HW212159   7.309  10.252   8.464  1.0647 -0.3626  0.9119
36573SOL     OW12160   9.420   2.704   2.702 -0.6609 -0.7907 -0.8342
36573SOL    HW112161   9.375   2.769   2.648 -2.7400 -0.6054  1.0007
36573SOL    HW212162   9.357   2.633   2.712  0.0964 -1.3262  0.3839
36574SOL     OW12163   7.622   1.720   2.468  0.3431 -0.8623 -0.2416
36574SOL    HW112164   7.688   1.742   2.402  1.3911 -2.0264  0.3609
36574SOL    HW212165   7.630   1.788   2.534 -0.6170  0.2330 -1.2137
36575SOL     OW12166   3.566   6.746   3.566 -0.0621 -0.3839  0.7325
36575SOL    HW112167   3.658   6.731   3.589  0.1828 -0.6074 -0.3285
36575SOL    HW212168   3.525   6.660   3.575  1.1247 -1.8299 -4.3558
36576SOL     OW12169   2.428   7.695   4.820 -0.6312  0.7685  0.0038
36576SOL    HW112170   2.337   7.716   4.798 -0.5770  0.8155 -0.1770
36576SOL    HW212171   2.448   7.617   4.768 -0.4117  1.0488 -0.3342
36577SOL     OW12172   7.674   7.083   1.830  0.1122 -0.0010 -0.4504
36577SOL    HW112173   7.752   7.109   1.880 -0.3468 -1.1380  0.9413
36577SOL    HW212174   7.689   6.991   1.808  0.7896  0.7340 -3.4789
36578SOL     OW12175   8.317   2.355   7.504 -0.5895 -0.5647  0.0963
36578SOL    HW112176   8.294   2.273   7.548 -2.7796 -1.3900 -2.3112
36578SOL    HW212177   8.358   2.328   7.422  1.0103  0.8591  0.3582
36579SOL     OW12178   3.561   8.322   5.083 -0.2071  0.5155  0.4576
36579SOL    HW112179   3.560   8.281   5.169 -1.5950  0.6880  0.5315
36579SOL    HW212180   3.532   8.254   5.022  0.0135  0.6235  0.2260
36580SOL     OW12181   2.185   0.591   7.773  0.2530  0.4063 -0.3337
36580SOL    HW112182   2.227   0.554   7.851  0.2657 -1.8119 -1.3202
36580SOL    HW212183   2.131   0.662   7.807  1.3221  0.4202  1.5190
36581SOL     OW12184   1.486   5.152   9.673 -0.4388 -0.0617  0.3807
36581SOL    HW112185   1.527   5.067   9.655 -0.5572 -0.0372 -0.0023
36581SOL    HW212186   1.407   5.131   9.723 -0.4045 -0.1660  0.3914
36582SOL     OW12187   7.438   6.461   9.179  0.3543  0.1687 -0.5485
36582SOL    HW112188   7.513   6.406   9.155 -1.3402 -3.3077  1.3413
36582SOL    HW212189   7.437   6.460   9.275 -3.3349 -2.0103 -0.4250
36583SOL     OW12190   8.813   4.765   7.608  0.1329  0.0180 -0.6239
36583SOL    HW112191   8.895   4.717   7.620 -0.6367 -0.9736  0.9655
36583SOL    HW212192   8.745   4.704   7.635 -1.3021  0.2917 -3.3146
36584SOL     OW12193   7.421   9.431   7.409 -0.2517  0.2498  0.4211
36584SOL    HW112194   7.461   9.373   7.474 -0.9878  0.3534  0.9739
36584SOL    HW212195   7.331   9.442   7.438 -1.0641 -0.9547 -1.4570
36585SOL     OW12196   4.889   0.139   2.071 -0.7330  0.0371  0.3722
36585SOL    HW112197   4.799   0.173   2.075 -0.5091  0.6980  0.0720
36585SOL    HW212198   4.943   0.211   2.104 -0.4613 -1.0856  2.5170
36586SOL     OW12199   7.234   7.401   8.056  0.2788  0.0434  0.4662
36586SOL    HW112200   7.151   7.422   8.097  0.1504  0.0187  0.2232
36586SOL    HW212201   7.210   7.359   7.973  0.5138  1.2859 -0.2594
36587SOL     OW12202   9.798   1.950   3.373  0.1730 -0.2096  0.8392
36587SOL    HW112203   9.861   1.985   3.309  0.9576 -0.9947  1.1653
36587SOL    HW212204   9.713   1.974   3.337  0.5232 -1.8995 -1.3049
36588SOL     OW12205   6.202   7.227   6.780  0.1270  0.1863  0.1603
36588SOL    HW112206   6.275   7.260   6.728 -0.2233  3.1956  1.3341
36588SOL    HW212207   6.125   7.246   6.727  0.0628 -1.8695 -0.5498
36589SOL     OW12208   2.315   6.600  10.020  0.2746  0.4868  0.6784
36589SOL    HW112209   2.282   6.683   9.984  0.6101 -0.2785 -1.5401
36589SOL    HW212210   2.408   6.598   9.996 -0.0745 -1.2022 -0.6904
36590SOL     OW12211   4.751   4.140   5.329  0.1182  0.0866  0.3269
36590SOL    HW112212   4.755   4.198   5.405  2.1765  1.4564 -0.7375
36590SOL    HW212213   4.730   4.197   5.256  1.0490 -0.6957 -0.5766
36591SOL     OW12214   9.706   0.891   4.237  0.1937  0.7140 -0.4871
36591SOL    HW112215   9.733   0.806   4.203 -0.0406  0.6555 -0.5296
36591SOL    HW212216   9.619   0.905   4.200 -1.0638 -0.3740  1.8684
36592SOL     OW12217   0.406   3.914   2.955 -0.5120 -0.5633 -0.4600
36592SOL    HW112218   0.368   3.956   3.033 -2.2414 -1.7082 -0.6361
36592SOL    HW212219   0.369   3.963   2.881 -0.6815 -0.9076 -0.6048
36593SOL     OW12220   6.285   6.932   6.657 -0.0555  0.1766  0.1311
36593SOL    HW112221   6.361   6.990   6.654  0.3879 -0.2884  1.5383
36593SOL    HW212222   6.322   6.844   6.650 -0.5557 -0.0156 -0.1248
36594SOL     OW12223   1.927  10.219   1.472 -0.0704  0.0205 -0.2436
36594SOL    HW112224   1.998  10.188   1.417  0.1269  0.6029 -0.3226
36594SOL    HW212225   1.964  10.294   1.519  0.4238 -1.6437  2.2182
36595SOL     OW12226   0.086   3.071   8.607 -0.2951  0.3298 -0.1751
36595SOL    HW112227   0.078   3.145   8.547 -2.0601  1.0114  0.8361
36595SOL    HW212228   0.011   3.015   8.587 -0.1950 -0.0760  0.5504
36596SOL     OW12229   5.928   6.680   7.906 -0.0904  0.4766  0.1932
36596SOL    HW112230   5.956   6.755   7.960 -0.3366 -0.0020  1.0065
36596SOL    HW212231   5.853   6.713   7.857  0.7360  1.2169 -0.6167
36597SOL     OW12232   5.306   4.616   8.375 -0.2650  0.3384 -0.6234
36597SOL    HW112233   5.296   4.539   8.431 -0.5900  0.6720 -0.2193
36597SOL    HW212234   5.400   4.635   8.376 -0.2643  0.3206 -0.2190
36598SOL     OW12235   6.800   0.854   7.632  0.1673  0.1698  0.2178
36598SOL    HW112236   6.745   0.920   7.590  0.7294  0.2836 -0.3561
36598SOL    HW212237   6.811   0.787   7.564  0.4876  0.0038  0.4353
36599SOL     OW12238   6.500   3.315   3.561  0.5885  0.1434  0.4601
36599SOL    HW112239   6.528   3.405   3.577 -0.0540  0.4859 -0.2486
36599SOL    HW212240   6.452   3.319   3.478  1.8274 -1.1175 -0.3815
36600SOL     OW12241   4.877  10.119   7.790  0.0243 -0.2458 -0.4578
36600SOL    HW112242   4.855  10.158   7.706  0.7805  0.5030 -0.3226
36600SOL    HW212243   4.916  10.034   7.768  1.9842  0.7310 -1.0115
36601SOL     OW12244   8.881   9.751   8.001 -0.1664  0.3387 -0.6916
36601SOL    HW112245   8.943   9.690   8.041  0.7601  1.2139 -0.7508
36601SOL    HW212246   8.926   9.784   7.923 -1.3428 -0.1845 -1.6228
36602SOL     OW12247   2.025   0.140   5.019  0.0451 -0.0125 -0.0497
36602SOL    HW112248   2.089   0.069   5.026 -1.2992 -1.1272  2.1327
36602SOL    HW212249   2.070   0.218   5.051  0.6662 -0.5358  0.3739
36603SOL     OW12250   1.868   6.456   3.125  0.8299  0.0248 -0.1630
36603SOL    HW112251   1.932   6.392   3.155 -0.2517 -0.8613  0.3349
36603SOL    HW212252   1.863   6.443   3.030 -1.7205 -2.9905  0.2235
36604SOL     OW12253   6.285  10.421   8.386  0.3028 -0.0486 -0.3912
36604SOL    HW112254   6.254  10.407   8.476 -0.0659 -3.0502 -0.8676
36604SOL    HW212255   6.207  10.446   8.337  0.2983  0.5567 -0.0838
36605SOL     OW12256   5.246   0.152   9.429  0.2153 -0.6514  0.2216
36605SOL    HW112257   5.338   0.127   9.430  0.2116 -0.6582  0.9627
36605SOL    HW212258   5.214   0.120   9.345  1.1513  0.3433 -0.5348
36606SOL     OW12259   9.392   0.822   2.684  0.2349 -0.2676 -0.3713
36606SOL    HW112260   9.349   0.768   2.750 -1.2175 -1.0414 -1.9002
36606SOL    HW212261   9.433   0.892   2.735 -2.3376  0.2062  1.2609
36607SOL     OW12262   4.601   3.093   0.022 -1.0128  0.0544  0.0049
36607SOL    HW112263   4.508   3.091  -0.003 -0.7399  0.1092 -1.0830
36607SOL    HW212264   4.635   3.008  -0.006 -0.8146 -0.1241  0.7617
36608SOL     OW12265   2.160   8.465   5.566  0.0112  0.6290 -0.2011
36608SOL    HW112266   2.169   8.538   5.505  0.3035  2.0536  1.4750
36608SOL    HW212267   2.164   8.505   5.652 -1.4434 -1.1988  0.7835
36609SOL     OW12268   9.147   7.948   8.127 -0.4851 -0.1921 -0.0099
36609SOL    HW112269   9.199   7.906   8.058 -0.8508  0.2994 -0.5954
36609SOL    HW212270   9.061   7.960   8.088 -0.5418  0.5918  0.3494
36610SOL     OW12271   2.487   9.030   6.044 -0.0213  0.4237  0.9080
36610SOL    HW112272   2.574   9.067   6.026 -0.6896  1.0308 -1.3646
36610SOL    HW212273   2.480   9.030   6.139  1.7758  2.0142  1.0872
36611SOL     OW12274   5.955  10.254   1.311 -0.0380 -0.2522 -0.1501
36611SOL    HW112275   6.030  10.268   1.369  0.6538 -0.5523 -0.9632
36611SOL    HW212276   5.881  10.245   1.371  0.1470  2.3854  0.6103
36612SOL     OW12277   2.926  10.059   2.955 -0.8001  0.6680  0.1817
36612SOL    HW112278   2.865  10.036   2.884 -1.5387  0.6908  0.7999
36612SOL    HW212279   3.012  10.053   2.914 -1.2410  1.1948 -0.8665
36613SOL     OW12280   0.870   5.695   8.703  0.0526 -0.6621 -0.1363
36613SOL    HW112281   0.947   5.678   8.757 -0.4442 -0.4214  0.6719
36613SOL    HW212282   0.893   5.662   8.616  2.0822  1.7820 -0.6482
36614SOL     OW12283   2.052   1.678   2.046 -0.9000  0.5881 -0.1321
36614SOL    HW112284   2.052   1.738   1.971  1.0320  1.7564  0.7412
36614SOL    HW212285   2.065   1.591   2.007 -0.1021  1.1489 -1.1735
36615SOL     OW12286   4.806   0.668   0.801  0.5036  0.0530 -0.0005
36615SOL    HW112287   4.826   0.618   0.722  1.0801  0.8353 -0.3665
36615SOL    HW212288   4.727   0.627   0.836  0.2422 -0.3110 -0.9766
36616SOL     OW12289   4.821   2.532   5.922 -0.0730  0.2915  0.3176
36616SOL    HW112290   4.775   2.548   6.005  0.0455  1.8166  0.1143
36616SOL    HW212291   4.897   2.480   5.947 -0.2283  0.4360  1.1194
36617SOL     OW12292   7.104   8.832   6.852 -0.1875  0.1509  0.4049
36617SOL    HW112293   7.011   8.825   6.829 -0.0817 -0.4034  0.1414
36617SOL    HW212294   7.106   8.823   6.948 -0.2946 -1.0542  0.3062
36618SOL     OW12295   5.080   2.070   5.191  0.0155  0.7080  0.0492
36618SOL    HW112296   5.068   1.988   5.143  1.8736  1.4171 -1.7679
36618SOL    HW212297   5.025   2.133   5.143  1.2010  1.2293 -0.6561
36619SOL     OW12298  10.381   1.547   2.124 -0.7488 -0.9328 -0.5243
36619SOL    HW112299  10.370   1.600   2.203  0.7465 -2.2781  0.6510
36619SOL    HW212300  10.344   1.462   2.147  1.2031 -1.8622 -0.6320
36620SOL     OW12301   9.207   4.744   8.231  0.4846  0.4820  0.2235
36620SOL    HW112302   9.118   4.766   8.260 -0.0349  0.6906 -1.4461
36620SOL    HW212303   9.255   4.826   8.236 -0.1329  0.9714 -1.2998
36621SOL     OW12304  10.314   1.669   1.004 -0.1430  0.1215 -0.1669
36621SOL    HW112305  10.234   1.712   1.034 -0.2176  1.0697 -1.6133
36621SOL    HW212306  10.354   1.732   0.944  1.8919 -0.1780  0.7870
36622SOL     OW12307   1.350   7.024   5.154 -0.4913 -0.1424 -0.1720
36622SOL    HW112308   1.260   7.025   5.184 -0.4343  1.7591  0.0991
36622SOL    HW212309   1.377   7.116   5.158  1.9458 -0.8253  1.2467
36623SOL     OW12310   9.490   0.619   9.950  0.1420 -0.2442 -0.2988
36623SOL    HW112311   9.563   0.670   9.984 -0.4726 -0.0691  0.7827
36623SOL    HW212312   9.528   0.534   9.928  0.2696 -0.9455  2.3886
36624SOL     OW12313  10.315   5.186   5.750 -0.1126  0.0245  0.6443
36624SOL    HW112314  10.410   5.181   5.740 -0.1630 -0.0357  0.1236
36624SOL    HW212315  10.301   5.203   5.843  0.4316  0.7290  0.6067
36625SOL     OW12316   7.073   1.505   0.893 -0.2038 -0.3795 -0.5976
36625SOL    HW112317   6.992   1.459   0.871 -1.1903  1.0875 -0.1787
36625SOL    HW212318   7.067   1.520   0.988  1.5811 -2.0890 -0.1438
36626SOL     OW12319   3.938   0.256   3.894  0.5698  0.0037 -0.4486
36626SOL    HW112320   3.972   0.298   3.974 -0.6428 -1.1281  0.7100
36626SOL    HW212321   3.856   0.302   3.877 -0.4956 -1.4659  0.5176
36627SOL     OW12322   0.747   8.339   2.008 -0.5349  0.4305 -0.1872
36627SOL    HW112323   0.703   8.348   1.923 -0.0450  1.4997 -0.3497
36627SOL    HW212324   0.798   8.420   2.017 -0.2241  0.1295  0.9253
36628SOL     OW12325   1.032   4.885   8.717 -0.3274 -0.8856  0.2587
36628SOL    HW112326   1.007   4.847   8.633 -0.1306 -0.2917 -0.0744
36628SOL    HW212327   1.127   4.892   8.713 -0.2721 -1.3179  0.7344
36629SOL     OW12328   1.328   5.578   7.634 -0.2777  0.4132 -0.3326
36629SOL    HW112329   1.243   5.576   7.677 -0.0747 -1.2941  0.0560
36629SOL    HW212330   1.335   5.493   7.590  1.4103  0.3197  0.0416
36630SOL     OW12331   6.906   8.982   2.586  0.0502  0.5878 -0.5723
36630SOL    HW112332   6.953   8.900   2.603 -0.7171  0.4579  1.1726
36630SOL    HW212333   6.969   9.037   2.540  0.9663 -0.5637 -0.7448
36631SOL     OW12334   2.349   1.514   0.625  0.0718  0.3799 -0.9548
36631SOL    HW112335   2.423   1.489   0.571 -0.6846  1.6668 -2.6695
36631SOL    HW212336   2.279   1.534   0.563 -0.7267  2.2585  0.4426
36632SOL     OW12337   7.621   4.366  10.317  0.0561 -0.4881 -0.1153
36632SOL    HW112338   7.640   4.294  10.257  0.0131  0.8066 -1.7868
36632SOL    HW212339   7.525   4.368  10.323  0.0875 -1.6063  1.3382
36633SOL     OW12340   8.190   4.080   0.148 -0.0798 -0.2074  0.2205
36633SOL    HW112341   8.131   4.029   0.204 -0.6544  0.9990  0.7448
36633SOL    HW212342   8.245   4.129   0.209 -0.1932  0.5394 -0.2599
36634SOL     OW12343   0.372   4.548  10.365  0.2861 -0.3532  0.7688
36634SOL    HW112344   0.277   4.537  10.369  0.4509 -1.5148  1.5745
36634SOL    HW212345   0.385   4.615  10.297 -1.0612 -0.7031  0.1447
36635SOL     OW12346   0.383   8.534   0.951  0.3786 -0.2103  0.5190
36635SOL    HW112347   0.345   8.448   0.968 -0.3733 -0.1017 -0.4747
36635SOL    HW212348   0.415   8.564   1.036  0.0637 -1.1931  0.9946
36636SOL     OW12349   2.089   3.278   1.492  0.1524  0.0857 -0.7208
36636SOL    HW112350   2.095   3.341   1.420 -0.7735  1.7402  0.5606
36636SOL    HW212351   2.092   3.332   1.571  0.2846 -1.5898  0.4720
36637SOL     OW12352   8.131   6.191   8.005 -0.1160  0.0114  0.4061
36637SOL    HW112353   8.082   6.190   8.086 -1.3336 -0.4866 -0.3161
36637SOL    HW212354   8.067   6.215   7.937  1.3647  2.9502 -0.1349
36638SOL     OW12355   0.115   3.004   6.186  0.8358 -0.1389  0.1939
36638SOL    HW112356   0.086   2.936   6.125 -2.5305  0.4950  0.8559
36638SOL    HW212357   0.062   3.081   6.163  1.6560  1.0305  1.9827
36639SOL     OW12358   1.717   0.881   4.754  0.1642  0.1404 -0.4970
36639SOL    HW112359   1.757   0.949   4.699 -0.8634  0.9238 -0.3233
36639SOL    HW212360   1.786   0.856   4.815  0.2975  1.7861  0.0950
36640SOL     OW12361   7.355   0.564   9.256 -0.2651 -0.6124 -0.3635
36640SOL    HW112362   7.414   0.637   9.238  1.1658 -1.6131  0.0709
36640SOL    HW212363   7.277   0.605   9.293  0.4181  0.7097 -0.3221
36641SOL     OW12364   8.176  10.165   1.474  0.0162  0.2615  0.5735
36641SOL    HW112365   8.209  10.189   1.561  0.3203 -0.1914  0.5871
36641SOL    HW212366   8.165  10.070   1.479 -1.3571  0.3934  0.5945
36642SOL     OW12367   0.280   9.562   5.762  0.0198  0.0679  0.0322
36642SOL    HW112368   0.207   9.560   5.700  0.2567  1.1571 -0.2884
36642SOL    HW212369   0.315   9.650   5.756 -0.2270  0.3522  2.0330
36643SOL     OW12370   0.839  10.008   8.506  0.9147  0.3699 -0.0485
36643SOL    HW112371   0.875  10.042   8.587  0.9253  0.2593 -0.0061
36643SOL    HW212372   0.853   9.913   8.512  1.0503  0.3773 -0.2450
36644SOL     OW12373   0.450   4.293  10.335  0.0923 -0.3253  0.4137
36644SOL    HW112374   0.435   4.388  10.338  1.3571 -0.1148  0.3348
36644SOL    HW212375   0.513   4.276  10.404  0.7590 -0.9418 -0.3300
36645SOL     OW12376   0.024   6.090   0.035 -0.4741 -0.2132  0.1780
36645SOL    HW112377  -0.017   6.081   0.121  0.5745  0.7664  0.8091
36645SOL    HW212378   0.092   6.157   0.047  0.6414 -1.0612 -1.0622
36646SOL     OW12379   6.990   3.440   0.074 -1.4929 -0.1817  0.2098
36646SOL    HW112380   6.986   3.357   0.120  1.1377 -0.3565  0.2685
36646SOL    HW212381   7.060   3.489   0.118 -2.3274  1.7043 -0.4262
36647SOL     OW12382  10.164   5.623   5.716  0.3907  0.0892  0.6067
36647SOL    HW112383  10.161   5.587   5.805  1.4308 -2.5892 -0.3497
36647SOL    HW212384  10.172   5.547   5.660 -0.2265  1.7197 -1.8384
36648SOL     OW12385   9.554   9.331   9.792  0.3070  0.4182  0.1598
36648SOL    HW112386   9.556   9.426   9.778 -0.1730  0.2446 -1.2257
36648SOL    HW212387   9.545   9.322   9.887  2.0772  1.7213  0.5151
36649SOL     OW12388   8.503   9.151   2.491  0.1076 -0.5284  0.3801
36649SOL    HW112389   8.533   9.104   2.569  0.9155  0.1634  0.4999
36649SOL    HW212390   8.571   9.216   2.475 -0.1800 -0.4921 -0.7568
36650SOL     OW12391   3.037   7.092   9.748  0.3235 -0.0787  0.1542
36650SOL    HW112392   3.122   7.104   9.705  0.6011  1.0984  0.9586
36650SOL    HW212393   3.033   7.163   9.812 -1.4731  0.1521 -0.1606
36651SOL     OW12394   6.672   4.896   9.652 -0.2729  0.0952 -0.0951
36651SOL    HW112395   6.714   4.981   9.666  0.9258 -0.4349 -0.3974
36651SOL    HW212396   6.598   4.916   9.594 -0.9173  1.1557  1.0472
36652SOL     OW12397   0.788   3.949   2.785  0.0720 -0.3300  0.4467
36652SOL    HW112398   0.765   3.993   2.703 -1.7831  0.0556  1.1373
36652SOL    HW212399   0.863   3.998   2.818 -0.4159  0.7745 -0.0398
36653SOL     OW12400   6.437   7.872   1.114  0.2198  0.1334 -1.0106
36653SOL    HW112401   6.456   7.942   1.177 -2.0936  0.9718 -1.1510
36653SOL    HW212402   6.515   7.816   1.116  1.4195  1.7461  0.4013
36654SOL     OW12403   2.572   1.340   1.461  0.3704 -0.5231 -0.1263
36654SOL    HW112404   2.491   1.390   1.452  0.1844 -1.0741 -1.9348
36654SOL    HW212405   2.552   1.254   1.423  1.0691 -1.5516  1.7133
36655SOL     OW12406   6.511   5.777   4.318 -0.5373 -0.2076  0.9075
36655SOL    HW112407   6.568   5.833   4.370  0.4678 -1.4313  1.1515
36655SOL    HW212408   6.436   5.760   4.375 -0.9488  1.0102  0.7618
36656SOL     OW12409   4.380   8.520   3.327  0.6618 -0.2843 -0.5805
36656SOL    HW112410   4.410   8.506   3.237  2.8454  2.1568 -0.3641
36656SOL    HW212411   4.344   8.608   3.327 -0.0059 -0.5304  0.8055
36657SOL     OW12412   3.109   5.759   3.959 -0.6246  0.1639  0.6636
36657SOL    HW112413   3.095   5.706   3.881 -0.2692 -0.6213  1.1186
36657SOL    HW212414   3.026   5.753   4.007 -1.1808  1.4367 -0.0992
36658SOL     OW12415   7.867   6.220   1.795  0.6459  0.1597 -0.2584
36658SOL    HW112416   7.910   6.291   1.746 -1.1680  1.1451 -0.5047
36658SOL    HW212417   7.904   6.140   1.759  2.2092  0.9524 -0.4934
36659SOL     OW12418   7.209   2.461   8.730 -0.4638  0.0423  0.2114
36659SOL    HW112419   7.137   2.439   8.669 -0.3212  0.4154 -0.0933
36659SOL    HW212420   7.275   2.503   8.675 -0.9856  1.8323  0.8788
36660SOL     OW12421   1.356   1.876   5.534 -0.3488 -0.8196 -0.1634
36660SOL    HW112422   1.350   1.828   5.452 -0.8385 -0.5224 -0.3071
36660SOL    HW212423   1.269   1.871   5.572 -0.4293  0.0061 -0.2180
36661SOL     OW12424   4.150   2.649   3.053 -0.1323 -0.0548  0.4081
36661SOL    HW112425   4.148   2.726   2.996 -3.0260 -0.0021  0.3979
36661SOL    HW212426   4.169   2.683   3.140 -0.6583  0.5928  0.2753
36662SOL     OW12427  10.343   8.396   4.161  0.1399 -0.1971  0.5594
36662SOL    HW112428  10.355   8.485   4.129 -0.9465  0.0977  0.9020
36662SOL    HW212429  10.362   8.402   4.255 -2.4009  0.2997  1.1319
36663SOL     OW12430   6.728   4.510   7.451 -0.0665 -0.5062 -0.4458
36663SOL    HW112431   6.796   4.459   7.408  0.3685 -0.2165 -0.1016
36663SOL    HW212432   6.697   4.452   7.521 -0.9725 -1.0918 -1.2978
36664SOL     OW12433   7.829   3.803   3.380  0.6299  0.3779  0.2620
36664SOL    HW112434   7.763   3.743   3.347  1.5089 -0.7082  0.4228
36664SOL    HW212435   7.784   3.853   3.448 -0.0948 -0.1529  0.1850
36665SOL     OW12436   9.964   6.425   2.790  0.0725  0.3194  0.1060
36665SOL    HW112437   9.957   6.521   2.788 -1.9048  0.2169 -2.0191
36665SOL    HW212438   9.913   6.400   2.868 -0.8876  0.9496 -0.2905
36666SOL     OW12439   0.411  10.220   2.264 -0.5574  0.1702  0.3282
36666SOL    HW112440   0.493  10.250   2.226 -0.0679  0.4481  1.5548
36666SOL    HW212441   0.347  10.285   2.237  0.0161  1.0113  0.9526
36667SOL     OW12442   7.144   5.696   8.815  0.4005 -0.2311 -0.7109
36667SOL    HW112443   7.081   5.637   8.774  0.6573 -1.1140  0.1225
36667SOL    HW212444   7.108   5.783   8.800 -0.3061 -0.6321 -1.4380
36668SOL     OW12445   0.842  10.005   1.692  0.0622 -0.0668 -0.4265
36668SOL    HW112446   0.906   9.934   1.698  2.1413  1.8327  2.2043
36668SOL    HW212447   0.894  10.085   1.697 -2.3301  1.6679 -1.4636
36669SOL     OW12448   2.863   9.411   7.311 -0.0663 -0.1225  0.1764
36669SOL    HW112449   2.811   9.379   7.237 -1.8266  2.3313  0.2017
36669SOL    HW212450   2.817   9.379   7.388 -1.1338  1.3456  0.1897
36670SOL     OW12451   5.467   0.046   7.423 -0.0868 -0.5524  0.6553
36670SOL    HW112452   5.479   0.121   7.365  0.5603 -0.9217  0.2977
36670SOL    HW212453   5.390   0.000   7.388  0.9825 -1.4348 -0.6745
36671SOL     OW12454   7.050   1.406   4.311 -0.3476 -0.1645 -0.0423
36671SOL    HW112455   7.069   1.413   4.405  2.7288 -0.1634 -0.5594
36671SOL    HW212456   7.091   1.483   4.273 -1.2005 -0.3893 -1.4675
36672SOL     OW12457   2.968   9.432   3.406 -0.4262  0.8853  0.2443
36672SOL    HW112458   2.914   9.356   3.384 -1.2981  1.2911  0.9230
36672SOL    HW212459   2.958   9.443   3.500  1.0151  0.8632  0.4243
36673SOL     OW12460   8.323   5.788   6.547 -0.1779  0.5994  0.0916
36673SOL    HW112461   8.277   5.729   6.607  1.0833 -1.0720 -0.5038
36673SOL    HW212462   8.257   5.811   6.482 -1.4050  1.9659  1.7118
36674SOL     OW12463   6.504   9.464   0.244 -0.4665  0.0719  0.3851
36674SOL    HW112464   6.584   9.483   0.294 -0.5105  0.7883  0.1939
36674SOL    HW212465   6.443   9.429   0.309 -1.0581  2.4041  1.2125
36675SOL     OW12466   4.298   5.788   8.297  0.0054  0.1421 -0.4265
36675SOL    HW112467   4.203   5.791   8.286 -0.0930 -1.4951 -0.2921
36675SOL    HW212468   4.330   5.750   8.215  0.8054  2.7610 -1.4367
36676SOL     OW12469   8.343   2.855   7.687 -0.2415  0.0704 -0.8296
36676SOL    HW112470   8.298   2.787   7.636 -0.8825 -0.5627  0.5369
36676SOL    HW212471   8.410   2.807   7.736  0.2294  0.6394 -0.9139
36677SOL     OW12472   6.942   4.632   5.805 -0.3539  0.3619 -0.0351
36677SOL    HW112473   7.014   4.680   5.847 -0.2923  0.6183 -0.4289
36677SOL    HW212474   6.974   4.615   5.716 -0.3616 -0.4405  0.1061
36678SOL     OW12475   2.258   9.415   1.704 -0.5048 -0.3128 -0.0980
36678SOL    HW112476   2.288   9.485   1.646  1.7223 -1.8218 -0.8976
36678SOL    HW212477   2.306   9.428   1.785 -0.2046 -0.8092 -0.1922
36679SOL     OW12478   9.890   3.843   0.916 -0.1360  0.3370 -0.5302
36679SOL    HW112479   9.963   3.788   0.947 -0.1800 -0.3767 -1.6196
36679SOL    HW212480   9.925   3.886   0.838 -0.0557  2.0281  0.3892
36680SOL     OW12481   3.353   4.028   2.241  0.1384  0.6637  0.4597
36680SOL    HW112482   3.344   4.061   2.152 -1.3986  0.1726  0.4084
36680SOL    HW212483   3.310   3.942   2.239  2.3191 -0.5486  1.0594
36681SOL     OW12484   0.310   0.183   7.045 -0.1066 -0.1236  0.3645
36681SOL    HW112485   0.307   0.206   6.953  0.0032  1.1325  0.6523
36681SOL    HW212486   0.236   0.122   7.058 -1.5067  1.4024 -0.1128
36682SOL     OW12487   7.360   3.112   1.996  0.5605  0.2330  0.2601
36682SOL    HW112488   7.401   3.195   2.019 -1.2538  1.9295 -2.1425
36682SOL    HW212489   7.344   3.119   1.902 -0.5479 -2.4604  0.1720
36683SOL     OW12490  10.092   0.511   2.898  0.3530 -0.2802 -0.5119
36683SOL    HW112491  10.187   0.524   2.902  0.6455 -2.4048  0.9162
36683SOL    HW212492  10.077   0.429   2.944 -2.4012  0.9861  1.1246
36684SOL     OW12493   0.013   1.119   7.665 -0.7647 -0.0533  0.2247
36684SOL    HW112494   0.028   1.204   7.622  0.2849 -1.2607 -1.9347
36684SOL    HW212495   0.078   1.061   7.626 -3.1215 -2.5161 -0.3169
36685SOL     OW12496   9.642   7.285   9.849 -0.1928 -0.8711 -0.0082
36685SOL    HW112497   9.556   7.273   9.888 -0.3253  1.1357  0.4275
36685SOL    HW212498   9.639   7.373   9.811  1.2362 -1.2766 -1.1537
36686SOL     OW12499   1.848   1.485   1.710 -0.4364 -0.1687  0.1714
36686SOL    HW112500   1.895   1.464   1.630  0.7847 -0.1979  0.8770
36686SOL    HW212501   1.758   1.459   1.692  0.4259 -3.5200  0.0372
36687SOL     OW12502   5.150   7.544   6.278  0.5580 -0.9078  0.2699
36687SOL    HW112503   5.146   7.540   6.374  0.6811 -0.0387  0.3203
36687SOL    HW212504   5.086   7.611   6.254  0.8009 -0.8500 -0.2322
36688SOL     OW12505   7.045   8.715   5.438 -0.1176 -0.5655 -0.1979
36688SOL    HW112506   6.967   8.770   5.448 -1.0315 -1.7738 -0.5299
36688SOL    HW212507   7.101   8.764   5.378 -1.3566 -0.4441 -1.2971
36689SOL     OW12508   9.872   8.378   8.860  0.2040 -0.2295 -0.3610
36689SOL    HW112509   9.961   8.357   8.833 -0.3972 -1.1638 -1.6719
36689SOL    HW212510   9.849   8.310   8.923  0.0540 -0.5930 -0.8049
36690SOL     OW12511   9.963   3.797   6.481  0.6099 -0.0461 -0.0687
36690SOL    HW112512  10.005   3.785   6.396  0.0387  2.6427 -0.8300
36690SOL    HW212513  10.025   3.850   6.531  0.0546  0.1540  0.4217
36691SOL     OW12514   3.247   6.653   6.477  0.2808 -0.7390  0.4962
36691SOL    HW112515   3.256   6.747   6.463  1.0119 -1.0374 -1.2991
36691SOL    HW212516   3.162   6.643   6.519 -0.1268  0.6689  0.0565
36692SOL     OW12517   6.239   4.519   7.526  0.0994  0.0227  0.3120
36692SOL    HW112518   6.153   4.493   7.495  0.0316 -1.2263  1.4322
36692SOL    HW212519   6.296   4.445   7.504  0.8162  0.6728 -0.0850
36693SOL     OW12520   9.790   9.800   2.546  0.1734 -0.2074 -0.1500
36693SOL    HW112521   9.709   9.751   2.537  0.7258 -1.2231  0.2718
36693SOL    HW212522   9.770   9.867   2.612 -0.5973  0.2019 -0.7778
36694SOL     OW12523   3.549   4.061   8.022  0.1280  0.1539  0.1356
36694SOL    HW112524   3.518   4.056   8.113  1.7459 -1.2596  0.6544
36694SOL    HW212525   3.547   4.155   8.001 -1.1902  0.4145  1.2695
36695SOL     OW12526   9.274   7.463   3.652 -0.5513  0.3097  0.0630
36695SOL    HW112527   9.264   7.375   3.616  0.4188  0.5918 -0.9577
36695SOL    HW212528   9.341   7.453   3.720 -2.0975 -0.1474  1.5735
36696SOL     OW12529   6.216   3.335   7.036  0.2978 -0.0772  0.0704
36696SOL    HW112530   6.269   3.332   6.956  0.0623 -1.0951 -0.0675
36696SOL    HW212531   6.255   3.405   7.088  1.7692 -0.7520 -0.0564
36697SOL     OW12532   0.724   5.495   3.082 -0.0009 -0.0747  0.0816
36697SOL    HW112533   0.766   5.434   3.142  1.0608 -1.8064 -2.2315
36697SOL    HW212534   0.650   5.530   3.131  2.4300  0.9775  3.3915
36698SOL     OW12535   5.078   4.863   3.902 -0.0867  0.3135 -0.2587
36698SOL    HW112536   5.060   4.776   3.937  1.8844 -0.9380 -2.0952
36698SOL    HW212537   5.109   4.914   3.977 -1.0361 -0.5985  0.7897
36699SOL     OW12538   0.050   8.605  10.104  0.1083 -0.0016 -0.1761
36699SOL    HW112539   0.081   8.656  10.029 -1.2496  0.1559 -0.6609
36699SOL    HW212540  -0.044   8.621  10.107 -0.1735 -1.5739  0.3657
36700SOL     OW12541   9.534   1.482   1.999 -0.1534 -0.2385 -0.5740
36700SOL    HW112542   9.605   1.513   1.943  0.3487 -1.0288 -0.4037
36700SOL    HW212543   9.509   1.558   2.051  1.1187 -0.1298 -0.0774
36701SOL     OW12544   1.889   6.471   7.740 -0.1411 -0.4650  0.1729
36701SOL    HW112545   1.915   6.396   7.795 -1.4419 -0.1876  1.2266
36701SOL    HW212546   1.953   6.539   7.761  0.6919 -1.0712 -0.3393
36702SOL     OW12547   4.102   3.891   1.561 -0.0728 -0.1079  0.3951
36702SOL    HW112548   4.136   3.898   1.651 -0.4549 -1.3694  0.6493
36702SOL    HW212549   4.167   3.937   1.508 -1.1943  3.1334  1.5817
36703SOL     OW12550   5.471   6.418   9.032  0.2343  0.0128  0.2043
36703SOL    HW112551   5.482   6.432   9.126  0.9838  0.9623 -0.0112
36703SOL    HW212552   5.560   6.409   8.998 -0.0399 -0.5610 -0.3861
36704SOL     OW12553   2.314   7.051   4.125  0.4496  0.6598  0.0984
36704SOL    HW112554   2.393   7.105   4.136  1.4359 -0.5376 -0.9167
36704SOL    HW212555   2.346   6.963   4.111 -1.1136  0.0248  0.2685
36705SOL     OW12556   2.566   6.002   7.499  0.4230  0.1793 -0.7302
36705SOL    HW112557   2.567   5.932   7.434  0.3596 -0.0191 -0.5183
36705SOL    HW212558   2.643   6.054   7.479  1.4932 -0.9785  0.2267
36706SOL     OW12559   6.850   4.524   3.404 -0.0812 -0.0756 -0.7228
36706SOL    HW112560   6.886   4.556   3.321 -2.2455 -0.2726 -1.8183
36706SOL    HW212561   6.755   4.525   3.390 -0.5158  0.0005  1.8167
36707SOL     OW12562   6.359   6.556   9.063 -0.1306 -0.0757  0.1028
36707SOL    HW112563   6.346   6.484   9.125 -1.4451 -0.0703 -0.1565
36707SOL    HW212564   6.449   6.585   9.080  0.9732 -2.6784 -0.7522
36708SOL     OW12565   2.792   6.825   1.954  0.1898 -0.6363 -0.1484
36708SOL    HW112566   2.815   6.732   1.956  0.4306 -0.6328  3.3236
36708SOL    HW212567   2.838   6.863   2.029 -3.1536  1.4028  1.0938
36709SOL     OW12568   0.842  10.131   9.281  0.3054  0.2301  0.1963
36709SOL    HW112569   0.880  10.196   9.222 -0.3488  0.7789  0.3634
36709SOL    HW212570   0.761  10.172   9.313 -1.4931 -1.6005 -1.6639
36710SOL     OW12571   1.710   1.870   0.416  0.0295  0.3717  0.3347
36710SOL    HW112572   1.691   1.942   0.477 -1.4335 -0.1879  0.5718
36710SOL    HW212573   1.736   1.914   0.335 -0.3030  1.1574  0.6394
36711SOL     OW12574   1.256   4.609   7.633  0.3526  0.8213  0.2991
36711SOL    HW112575   1.263   4.598   7.538  1.2000 -0.2855  0.4733
36711SOL    HW212576   1.168   4.577   7.654  0.3551  0.5823 -0.0435
36712SOL     OW12577   9.700   1.781   3.036  0.1944 -0.1136 -0.6761
36712SOL    HW112578   9.794   1.784   3.056  0.0651 -0.2856 -0.0246
36712SOL    HW212579   9.693   1.824   2.951  1.1207 -1.8534 -1.6766
36713SOL     OW12580   9.282   0.707   0.638  0.1719  0.0075  0.1838
36713SOL    HW112581   9.263   0.631   0.694  1.4205 -1.0860 -0.8327
36713SOL    HW212582   9.362   0.684   0.592 -1.1778  0.5324 -2.6509
36714SOL     OW12583   1.933   4.862   7.572  0.1007 -0.7573  0.7168
36714SOL    HW112584   1.921   4.952   7.603 -0.1277 -1.1123  1.6984
36714SOL    HW212585   1.844   4.827   7.566 -0.0511 -0.1548 -2.1804
36715SOL     OW12586   8.460   9.246   0.090 -0.2421 -0.1663  0.4798
36715SOL    HW112587   8.429   9.174   0.034 -0.7927 -0.7435  1.5016
36715SOL    HW212588   8.515   9.203   0.156 -1.2016  0.2288  1.5662
36716SOL     OW12589   8.149   1.616   9.997 -0.3384 -0.0514  0.3052
36716SOL    HW112590   8.178   1.693   9.948 -2.3660  1.0257  0.6859
36716SOL    HW212591   8.057   1.606   9.974 -1.2053  0.0833  3.2831
36717SOL     OW12592   3.201   9.487   9.503  0.5231 -0.3150  0.2805
36717SOL    HW112593   3.198   9.398   9.466  0.6607 -0.1621 -0.1073
36717SOL    HW212594   3.204   9.473   9.598  0.4152 -0.7218  0.2287
36718SOL     OW12595   7.418   0.788   9.569  0.1841 -0.0537  0.3181
36718SOL    HW112596   7.508   0.779   9.538 -0.0772 -1.5030 -0.0784
36718SOL    HW212597   7.389   0.698   9.584 -0.7862  0.4634  1.6449
36719SOL     OW12598   0.961   8.291   7.998  0.1114  0.1019 -0.8477
36719SOL    HW112599   0.901   8.327   8.064 -0.3269 -3.3431  0.8759
36719SOL    HW212600   1.033   8.354   7.995 -0.8838  1.4890  1.3689
36720SOL     OW12601   0.777   7.542   0.080 -0.0015 -0.0369  0.5828
36720SOL    HW112602   0.700   7.505   0.039 -0.1727  0.4711  0.4378
36720SOL    HW212603   0.744   7.588   0.157  0.1270  0.3627  0.4031
36721SOL     OW12604  10.226   6.232   8.153  0.2744 -0.3033  0.2977
36721SOL    HW112605  10.319   6.250   8.140  0.1272 -0.3363 -0.9537
36721SOL    HW212606  10.185   6.318   8.161  0.3471 -0.2732  0.3422
36722SOL     OW12607   5.262   4.968   0.915 -0.0784 -1.0997 -0.3483
36722SOL    HW112608   5.336   5.022   0.887 -0.6293  0.5569  1.2072
36722SOL    HW212609   5.291   4.929   0.997 -1.5884  1.3496  1.5047
36723SOL     OW12610   8.226   3.614   6.537 -0.4111  0.3160 -0.4575
36723SOL    HW112611   8.257   3.554   6.469  0.9897  1.0809 -0.5455
36723SOL    HW212612   8.241   3.701   6.500  0.2539  0.7512  0.7587
36724SOL     OW12613   0.133   6.121   2.844 -0.3005 -0.2805  0.3957
36724SOL    HW112614   0.163   6.053   2.905 -1.3751  1.4852  3.0795
36724SOL    HW212615   0.119   6.198   2.899 -0.0931  1.8797 -2.3434
36725SOL     OW12616   3.873   1.246   8.931  0.2732  0.0723  0.0572
36725SOL    HW112617   3.859   1.340   8.941 -1.0222 -0.2021  1.2917
36725SOL    HW212618   3.817   1.207   8.999  2.7216 -1.4819  1.3101
36726SOL     OW12619   7.960   3.816   5.794  0.0662  0.2611  0.3399
36726SOL    HW112620   7.927   3.803   5.705  0.4416 -0.7383  0.3406
36726SOL    HW212621   8.036   3.873   5.783  0.2474 -0.0453 -0.0018
36727SOL     OW12622   5.881   8.535   4.161 -0.4398  0.2660  0.3436
36727SOL    HW112623   5.797   8.558   4.121 -1.0551 -0.2644  1.2890
36727SOL    HW212624   5.945   8.592   4.117 -1.3070  0.7800 -0.2878
36728SOL     OW12625   0.273   4.909   9.555  0.3910 -0.0332  0.1784
36728SOL    HW112626   0.318   4.967   9.493 -0.7560  0.4918 -0.2045
36728SOL    HW212627   0.236   4.839   9.500 -0.4254  0.2997  0.2885
36729SOL     OW12628   6.647   7.374   9.922  0.5511  0.7085 -0.0512
36729SOL    HW112629   6.703   7.396   9.997  0.4020  1.3036 -0.1142
36729SOL    HW212630   6.560   7.361   9.960  1.1037 -2.5540  0.4200
36730SOL     OW12631   4.491   7.049   6.308 -0.0662 -0.7791  0.0509
36730SOL    HW112632   4.492   6.965   6.353  0.6874  0.2522  2.1205
36730SOL    HW212633   4.581   7.063   6.280 -0.3874 -1.0785 -1.2150
36731SOL     OW12634   3.768   9.870   3.260 -0.4313 -0.0444  0.1348
36731SOL    HW112635   3.687   9.825   3.286 -0.0992 -0.5620  0.2868
36731SOL    HW212636   3.780   9.936   3.328  0.1466 -1.0479  1.0437
36732SOL     OW12637   0.521   4.454   1.252 -0.0708 -0.0562 -0.0666
36732SOL    HW112638   0.504   4.527   1.193  1.9276  0.9103  0.4758
36732SOL    HW212639   0.592   4.485   1.309 -0.0838 -1.9404  1.0537
36733SOL     OW12640   8.862   5.261   8.330  0.1662  0.3262  0.0340
36733SOL    HW112641   8.820   5.333   8.283  0.7246  1.4222  1.1639
36733SOL    HW212642   8.955   5.270   8.309  0.4265  0.8363  1.3151
36734SOL     OW12643   5.711   4.540   9.747  0.0540  0.5570  0.4345
36734SOL    HW112644   5.689   4.519   9.656 -0.1689 -0.9034  0.8009
36734SOL    HW212645   5.696   4.458   9.794 -0.5746  1.5057  1.9331
36735SOL     OW12646  10.137   6.014   1.366 -0.0503  0.6263  0.2661
36735SOL    HW112647  10.089   5.934   1.388  0.1667  0.5143  0.3341
36735SOL    HW212648  10.137   6.065   1.447 -1.3802  1.3228 -0.1282
36736SOL     OW12649   2.920   8.986   3.475  0.9419 -0.4313  0.7741
36736SOL    HW112650   2.966   9.028   3.403 -0.6061 -1.7163 -1.0507
36736SOL    HW212651   2.988   8.936   3.521  1.7596 -0.5020 -0.4791
36737SOL     OW12652   9.177   7.744   9.629 -0.5928 -0.5249  0.0775
36737SOL    HW112653   9.186   7.732   9.535  2.2058  0.5472  0.1465
36737SOL    HW212654   9.174   7.654   9.664  2.5897 -1.0801 -0.7716
36738SOL     OW12655   8.732   8.553   1.313  0.4663 -0.2539 -0.2726
36738SOL    HW112656   8.795   8.515   1.252  1.6878  0.3226  0.5844
36738SOL    HW212657   8.704   8.634   1.272 -0.6011 -1.0513 -1.1722
36739SOL     OW12658   1.093   6.636   1.603 -0.1353 -0.1081  0.1764
36739SOL    HW112659   0.998   6.626   1.616 -0.0281 -2.0148 -0.1725
36739SOL    HW212660   1.129   6.550   1.624  1.5103  0.5314  0.0964
36740SOL     OW12661   4.411   1.192   9.175  0.5174 -0.1765  0.1773
36740SOL    HW112662   4.453   1.277   9.182  0.3350 -0.0465 -0.2681
36740SOL    HW212663   4.482   1.129   9.186  0.3036 -0.0556  3.2828
36741SOL     OW12664   5.494   9.559   7.657 -0.6879 -0.4219  0.5829
36741SOL    HW112665   5.506   9.583   7.749 -1.3880 -0.4029  0.6762
36741SOL    HW212666   5.580   9.571   7.617 -1.0902  2.9209  0.4529
36742SOL     OW12667   0.932   4.842   1.557 -0.7362 -0.3006 -0.5091
36742SOL    HW112668   0.888   4.926   1.544  0.2024  0.6324  1.8851
36742SOL    HW212669   1.020   4.865   1.588 -0.3679 -2.1740 -0.0416
36743SOL     OW12670   1.522   3.099   0.391 -1.1978  0.0757 -0.3134
36743SOL    HW112671   1.469   3.168   0.351 -1.4753  0.7147  1.1140
36743SOL    HW212672   1.612   3.130   0.382 -1.4287  1.7682  2.2687
36744SOL     OW12673   4.099   8.841   2.217  0.0342 -0.1987  0.1489
36744SOL    HW112674   4.157   8.826   2.292  1.5032  0.5250 -0.8148
36744SOL    HW212675   4.152   8.890   2.154 -1.2249 -0.6236 -1.3030
36745SOL     OW12676   7.508   9.723   9.962  0.0800  0.0270  0.1068
36745SOL    HW112677   7.580   9.780   9.987  1.3530 -1.3352 -0.3261
36745SOL    HW212678   7.460   9.708  10.044  1.6394 -0.8723  0.8982
36746SOL     OW12679   5.686   1.284   2.851  0.2484 -0.1597  0.3757
36746SOL    HW112680   5.636   1.300   2.930 -0.6647  1.1192 -0.4301
36746SOL    HW212681   5.634   1.322   2.781  0.7900 -1.7014 -0.9306
36747SOL     OW12682   8.575   7.341   9.773 -0.0515  0.2258  0.3883
36747SOL    HW112683   8.538   7.263   9.732 -1.8020  1.4423 -0.4894
36747SOL    HW212684   8.528   7.349   9.856  0.3630  0.1550  0.6282
36748SOL     OW12685   0.807   6.939   1.879 -0.0223  0.2296 -0.6152
36748SOL    HW112686   0.795   6.937   1.784 -0.0489  0.1182 -0.6099
36748SOL    HW212687   0.888   6.891   1.894  0.5868  1.2250 -0.6744
36749SOL     OW12688   3.518   9.369   6.128  0.0136 -0.3874 -0.6313
36749SOL    HW112689   3.531   9.304   6.197 -0.9902  0.7339  0.6527
36749SOL    HW212690   3.605   9.384   6.092  0.7943  0.0420  1.3553
36750SOL     OW12691   4.332   3.663   2.569 -0.2437  0.2873 -0.6243
36750SOL    HW112692   4.377   3.739   2.532 -0.6424  1.3469  0.9431
36750SOL    HW212693   4.402   3.599   2.585  0.2450  0.7182 -1.0005
36751SOL     OW12694   7.222   7.816   3.875 -0.0148 -0.2432  0.3237
36751SOL    HW112695   7.211   7.907   3.901  0.7560 -0.3245  0.9635
36751SOL    HW212696   7.164   7.767   3.933  0.2161 -0.2438  0.5505
36752SOL     OW12697   9.431   2.260  10.175 -0.9633 -0.6691  0.3779
36752SOL    HW112698   9.442   2.338  10.121 -0.3352 -0.8568  0.2390
36752SOL    HW212699   9.408   2.190  10.114 -0.6281 -0.7977  0.4010
36753SOL     OW12700   5.114   1.842   6.450 -0.1108  0.2870  0.3061
36753SOL    HW112701   5.117   1.937   6.433 -0.5820  0.0189 -1.5764
36753SOL    HW212702   5.109   1.835   6.545  0.3362  2.1421  0.5155
36754SOL     OW12703  10.205   8.692   9.333 -0.2356  0.1637  0.1130
36754SOL    HW112704  10.196   8.597   9.334 -0.0097  0.1480  1.1800
36754SOL    HW212705  10.115   8.724   9.330 -0.4386 -0.0790  2.1278
36755SOL     OW12706   3.585   7.856   0.789  0.8119 -0.8956 -0.0930
36755SOL    HW112707   3.662   7.912   0.799  0.6161 -0.3948 -1.2483
36755SOL    HW212708   3.620   7.772   0.759  1.1502 -1.5970  2.0640
36756SOL     OW12709   8.963   5.492   2.166 -0.0817  0.0742 -0.7127
36756SOL    HW112710   8.992   5.582   2.151  0.8941 -0.1085 -0.0346
36756SOL    HW212711   8.872   5.500   2.194  0.6502  1.0855  1.6906
36757SOL     OW12712   8.265   9.936   1.736 -0.0496 -0.4445 -0.5445
36757SOL    HW112713   8.336   9.892   1.782  0.0773 -0.0685 -0.3686
36757SOL    HW212714   8.206   9.965   1.806 -0.9245 -1.6544 -0.7398
36758SOL     OW12715   9.928   0.409   7.256  0.2729 -0.1572 -0.6500
36758SOL    HW112716   9.985   0.364   7.319 -0.0761  0.5550  0.1956
36758SOL    HW212717   9.909   0.344   7.190  1.7479 -0.5403 -0.7316
36759SOL     OW12718   7.142   1.706   2.962  0.3187  0.2089  0.1349
36759SOL    HW112719   7.084   1.713   2.886  0.0135  2.8493  0.4967
36759SOL    HW212720   7.106   1.769   3.024  3.9356  2.5806  0.1173
36760SOL     OW12721   6.691   3.914   1.739  0.0999 -0.2189 -0.5962
36760SOL    HW112722   6.634   3.874   1.673 -0.3283  0.8013 -0.8779
36760SOL    HW212723   6.670   4.008   1.733 -0.3145 -0.1588  1.3311
36761SOL     OW12724   7.147   5.405   0.724  0.0896  0.4447  0.1136
36761SOL    HW112725   7.176   5.453   0.801 -0.2132  0.5197  0.1831
36761SOL    HW212726   7.125   5.318   0.756 -1.3667  0.8860  0.3715
36762SOL     OW12727   9.630   4.898   9.363  0.0152  0.3422 -0.0514
36762SOL    HW112728   9.656   4.941   9.282  0.4115  1.3779  0.6045
36762SOL    HW212729   9.650   4.961   9.432  0.5919 -0.8900  0.9588
36763SOL     OW12730  10.126   4.696   6.623 -0.3494  0.0798  0.4774
36763SOL    HW112731  10.080   4.615   6.598  0.1595  0.0481 -0.4036
36763SOL    HW212732  10.059   4.749   6.665 -1.0873 -0.1689 -0.3408
36764SOL     OW12733   8.454   7.727   6.075  0.5363  0.2703  0.4382
36764SOL    HW112734   8.367   7.687   6.064  0.5836 -0.0162  1.0977
36764SOL    HW212735   8.504   7.694   6.001 -0.0199  0.7275 -0.1574
36765SOL     OW12736   1.829   9.499   7.753 -0.1135  0.6576  0.4836
36765SOL    HW112737   1.852   9.572   7.811  0.4223 -0.4892  1.7612
36765SOL    HW212738   1.740   9.518   7.725  0.1961  2.0586  0.3602
36766SOL     OW12739   4.095  10.016   3.539 -0.0091  0.0135 -0.0254
36766SOL    HW112740   4.166   9.992   3.480  1.1804  0.4903  1.1463
36766SOL    HW212741   4.110  10.109   3.556  0.6985 -0.4674  2.2868
36767SOL     OW12742   7.742   5.802   4.658  0.2294  0.0965  0.4841
36767SOL    HW112743   7.752   5.862   4.732  0.9315 -0.5851  0.9550
36767SOL    HW212744   7.761   5.716   4.694  0.4229 -0.2701 -0.4602
36768SOL     OW12745   9.708   6.938   9.126  0.0976  0.1397  0.2297
36768SOL    HW112746   9.758   7.016   9.101 -2.0293  1.4128 -0.2563
36768SOL    HW212747   9.711   6.882   9.049  2.6471 -0.8921  0.9828
36769SOL     OW12748   5.075  10.435   8.631 -0.0873 -0.1474 -0.3003
36769SOL    HW112749   5.161  10.417   8.669 -0.5557 -0.9094  0.4487
36769SOL    HW212750   5.035  10.498   8.691 -0.1502  0.0264 -0.5213
36770SOL     OW12751   0.771   4.296   4.685  0.3160  0.1838  0.0242
36770SOL    HW112752   0.714   4.359   4.642 -0.1381 -0.1334  0.1538
36770SOL    HW212753   0.778   4.327   4.775 -0.8914 -0.6106  0.4022
36771SOL     OW12754   8.678   4.373   9.457 -0.1921 -0.0988  0.1765
36771SOL    HW112755   8.711   4.284   9.446  0.1533 -0.0301  0.6451
36771SOL    HW212756   8.634   4.371   9.542 -1.1950 -0.1256 -0.3288
36772SOL     OW12757   3.598   9.227   2.594 -0.2226  0.0534 -0.2519
36772SOL    HW112758   3.590   9.166   2.521  2.0674 -0.3965 -0.2062
36772SOL    HW212759   3.513   9.270   2.599 -0.9250 -0.9844 -2.2095
36773SOL     OW12760   5.947   3.502   4.264 -0.1893  0.7425 -0.1161
36773SOL    HW112761   6.020   3.459   4.220 -0.3188  0.0490  0.3324
36773SOL    HW212762   5.983   3.584   4.297  0.1994  0.7338 -0.5172
36774SOL     OW12763  10.427   9.676   1.438  0.7131 -0.2476  0.1538
36774SOL    HW112764  10.442   9.737   1.511  0.0064  0.3507 -0.1943
36774SOL    HW212765  10.353   9.713   1.391 -0.1496 -1.7283  0.3058
36775SOL     OW12766   2.375   6.440   7.004 -0.2805  0.3056  0.4990
36775SOL    HW112767   2.435   6.427   6.930 -0.6472 -2.0907  0.5429
36775SOL    HW212768   2.296   6.477   6.965 -0.2947 -0.4907 -0.2570
36776SOL     OW12769   8.104   4.837   8.096 -0.7658  0.0503 -0.5466
36776SOL    HW112770   8.197   4.827   8.117 -1.0029  3.2612  3.1617
36776SOL    HW212771   8.100   4.833   8.001  3.5150  1.6638 -0.9998
36777SOL     OW12772   3.173   9.722   1.738  0.2897  0.4634  0.2158
36777SOL    HW112773   3.186   9.786   1.808 -1.4695  1.1377 -0.0356
36777SOL    HW212774   3.101   9.757   1.686  0.5426 -0.7921 -1.0422
36778SOL     OW12775   0.062   7.348   3.816  0.2983 -0.0586 -0.0508
36778SOL    HW112776   0.070   7.439   3.844 -0.6169 -0.1206  0.4320
36778SOL    HW212777   0.106   7.345   3.731 -1.4603  1.3041 -1.0624
36779SOL     OW12778   8.348   3.597   4.674 -0.5568  0.0371  0.3616
36779SOL    HW112779   8.361   3.625   4.583 -1.9235 -0.3510  0.0153
36779SOL    HW212780   8.276   3.534   4.669 -0.4839 -0.1825  1.6966
36780SOL     OW12781   4.797   6.328   4.834  0.1000 -0.8884  0.0850
36780SOL    HW112782   4.705   6.304   4.848  0.2901 -0.3970  2.6724
36780SOL    HW212783   4.845   6.268   4.891  1.2250  0.0722  0.1627
36781SOL     OW12784   6.021   6.229   0.924 -0.4614 -0.1427  0.0214
36781SOL    HW112785   6.045   6.213   0.833 -0.4744 -0.2009  0.0277
36781SOL    HW212786   6.083   6.295   0.955  0.9719 -1.7073  0.6237
36782SOL     OW12787   8.478   4.145   7.468 -0.0573 -0.0388 -0.0718
36782SOL    HW112788   8.549   4.086   7.443 -0.8868 -0.2402 -2.1832
36782SOL    HW212789   8.415   4.089   7.513  0.3108 -0.2140  0.2349
36783SOL     OW12790   5.755  10.077   3.464  0.0311  0.1565 -0.4884
36783SOL    HW112791   5.745  10.161   3.509 -0.2085  0.4186 -1.0136
36783SOL    HW212792   5.831  10.037   3.504 -1.7873 -0.9175  2.1489
36784SOL     OW12793   8.951   5.740   0.363  0.3794 -0.0307  0.4641
36784SOL    HW112794   8.935   5.672   0.297 -1.0050  0.2759  0.4527
36784SOL    HW212795   9.040   5.723   0.394  0.1251 -1.7544  0.3526
36785SOL     OW12796  10.218   4.694   9.742  0.0019 -0.4056  0.3383
36785SOL    HW112797  10.304   4.736   9.739 -1.0795  1.8588 -1.3563
36785SOL    HW212798  10.231   4.610   9.698  0.8353  1.0757 -2.4931
36786SOL     OW12799   0.258   0.722   6.282 -0.7446  0.5723  0.4479
36786SOL    HW112800   0.220   0.768   6.357 -0.8264  0.9217  0.1932
36786SOL    HW212801   0.280   0.792   6.220 -3.2461  0.0997 -1.0671
36787SOL     OW12802   3.017   0.242   7.643  0.2361 -0.0928 -0.0303
36787SOL    HW112803   3.108   0.212   7.642  0.3977  0.2940 -2.6861
36787SOL    HW212804   2.978   0.201   7.566 -1.0327  2.0991 -0.6107
36788SOL     OW12805   3.051   9.774   2.887  0.2378  0.2373  0.1272
36788SOL    HW112806   3.011   9.724   2.817 -1.7495  1.0036  0.6511
36788SOL    HW212807   3.084   9.853   2.844 -0.0921  0.2532 -0.0994
36789SOL     OW12808   2.698   6.249   6.193 -0.7778  0.2113 -0.4853
36789SOL    HW112809   2.699   6.315   6.124  0.2483 -0.5777 -1.2421
36789SOL    HW212810   2.668   6.169   6.151  0.0938 -0.3394 -0.0833
36790SOL     OW12811   6.300   7.981   4.124 -0.3197 -0.1533 -0.3791
36790SOL    HW112812   6.334   8.069   4.140 -0.2625  0.0363 -1.4824
36790SOL    HW212813   6.373   7.934   4.087 -0.2008 -0.8340  0.6764
36791SOL     OW12814   3.255   9.047   1.425 -0.4456 -0.2408 -0.0057
36791SOL    HW112815   3.335   9.003   1.397  0.4505  0.2291  1.6600
36791SOL    HW212816   3.224   9.094   1.347  0.0305 -1.6352 -1.0813
36792SOL     OW12817   6.171   3.347   0.930 -0.1293  0.0464 -1.2933
36792SOL    HW112818   6.125   3.417   0.977 -1.9142 -0.8215 -1.6735
36792SOL    HW212819   6.235   3.314   0.993 -0.7993  0.5322 -0.3387
36793SOL     OW12820   1.004   8.492  10.183 -0.5314 -0.2030  0.1238
36793SOL    HW112821   1.002   8.508  10.277 -0.1837 -0.0206  0.1028
36793SOL    HW212822   0.996   8.579  10.144 -0.3786 -0.2479 -0.0104
36794SOL     OW12823   0.069   6.376   0.093  0.1843  0.1065 -0.5130
36794SOL    HW112824  -0.026   6.366   0.101  0.3601 -0.7716  0.8951
36794SOL    HW212825   0.102   6.352   0.180  1.7031  0.2418 -1.0386
36795SOL     OW12826   6.232   6.101   7.013 -0.2214 -0.3073  0.2316
36795SOL    HW112827   6.268   6.018   6.983  1.1361  0.5805 -0.6644
36795SOL    HW212828   6.291   6.130   7.082 -0.8181 -0.1788  0.6992
36796SOL     OW12829   8.059   8.593   4.377  0.0892 -0.4650 -0.2292
36796SOL    HW112830   8.107   8.672   4.352 -2.7648  1.0891 -1.2467
36796SOL    HW212831   8.072   8.587   4.472  0.8665  0.8465 -0.2162
36797SOL     OW12832   6.945   3.249   4.067  0.4905  0.6651  0.3887
36797SOL    HW112833   6.966   3.230   4.158  1.3223  0.0846  0.0917
36797SOL    HW212834   7.023   3.221   4.018  1.5294  4.1810 -0.1877
36798SOL     OW12835   6.056   3.645   1.309  0.2246 -0.2945 -0.1829
36798SOL    HW112836   6.077   3.727   1.353 -0.2765 -0.7168  0.8757
36798SOL    HW212837   6.133   3.590   1.322  0.3955 -0.1400 -0.5333
36799SOL     OW12838   7.480   8.504  10.040  0.5201  0.2538 -0.2580
36799SOL    HW112839   7.453   8.413  10.058 -0.2270  0.5115 -0.0358
36799SOL    HW212840   7.571   8.496  10.011  1.1369 -0.3774  1.6994
36800SOL     OW12841   6.146   1.362  10.415  0.1144  0.1316 -0.4640
36800SOL    HW112842   6.148   1.322  10.501 -3.3986  1.5499  0.4382
36800SOL    HW212843   6.222   1.420  10.414  2.3489 -2.5909  0.1148
36801SOL     OW12844   4.138   2.386   7.214 -0.2359 -0.3985  0.0468
36801SOL    HW112845   4.192   2.461   7.192 -0.7635  0.0792  0.3760
36801SOL    HW212846   4.124   2.341   7.130  0.3078 -0.2929 -0.1031
36802SOL     OW12847   4.228   9.302   5.734 -0.0765  0.0284 -0.4567
36802SOL    HW112848   4.319   9.288   5.708 -0.1890  0.0046 -0.8546
36802SOL    HW212849   4.177   9.261   5.664 -0.4014 -2.1658  0.9622
36803SOL     OW12850   5.267   3.850   7.248 -0.2039 -0.3855  0.1952
36803SOL    HW112851   5.313   3.780   7.293  1.0119 -0.6723 -1.4016
36803SOL    HW212852   5.260   3.920   7.313  0.8838 -1.0144  1.0261
36804SOL     OW12853   8.979   7.984   2.196 -0.4489  0.0929 -0.3441
36804SOL    HW112854   8.932   8.064   2.171 -0.6201  0.9231  2.2606
36804SOL    HW212855   8.915   7.934   2.247  0.3877 -0.5159  0.1288
36805SOL     OW12856   9.020   4.285   0.556 -0.7045  0.2787  0.0348
36805SOL    HW112857   8.933   4.323   0.571  0.0999  4.5612 -3.8995
36805SOL    HW212858   9.018   4.256   0.465  1.3982 -1.7514  0.5362
36806SOL     OW12859   6.558   7.790   1.464 -0.2304  0.2100 -0.3752
36806SOL    HW112860   6.622   7.821   1.399  0.7348  0.1216  0.5025
36806SOL    HW212861   6.604   7.799   1.548 -1.3572  0.0688  0.2700
36807SOL     OW12862   8.428   0.385   0.724  0.1626 -0.2808 -0.3713
36807SOL    HW112863   8.452   0.460   0.779 -0.1427  0.6376 -1.4452
36807SOL    HW212864   8.421   0.422   0.635  0.2011 -1.6260 -0.9556
36808SOL     OW12865   3.672   8.236   1.658  0.1335  0.2420  0.8304
36808SOL    HW112866   3.658   8.172   1.727  1.4641 -0.9931  0.0071
36808SOL    HW212867   3.734   8.299   1.695 -0.0136  0.2113  1.1274
36809SOL     OW12868   8.344   9.154   7.446  0.1545  0.5384  0.2251
36809SOL    HW112869   8.432   9.174   7.416  0.0191  1.1800  0.2503
36809SOL    HW212870   8.335   9.202   7.529  0.5625 -1.2833  1.3909
36810SOL     OW12871   1.582   9.165   7.785  0.0671  0.0229  0.5258
36810SOL    HW112872   1.596   9.072   7.801  1.8139  0.0365 -0.6949
36810SOL    HW212873   1.515   9.169   7.717  0.1960 -0.3553  0.3771
36811SOL     OW12874   3.061   2.892   7.391  0.2695 -0.3863  0.2475
36811SOL    HW112875   3.034   2.977   7.356 -0.2289 -1.3311 -1.7992
36811SOL    HW212876   3.037   2.895   7.484  0.0948  1.6219  0.1679
36812SOL     OW12877   8.030  10.200   4.757 -0.5343 -0.2548  0.2707
36812SOL    HW112878   7.960  10.244   4.709  0.0422 -0.7432 -1.0770
36812SOL    HW212879   8.004  10.207   4.849 -1.4879  1.0510 -0.0622
36813SOL     OW12880   6.326   4.429   2.790  0.0598 -0.2468  0.4131
36813SOL    HW112881   6.413   4.443   2.754  0.9157 -0.4637  2.2578
36813SOL    HW212882   6.341   4.382   2.872 -1.8894 -1.2988  0.2337
36814SOL     OW12883   4.421   0.905   3.371 -0.0706  0.5341 -0.0171
36814SOL    HW112884   4.332   0.921   3.400 -0.1228  1.4792 -0.6304
36814SOL    HW212885   4.470   0.884   3.450 -0.9721 -0.6992  0.2313
36815SOL     OW12886   6.606   0.876   5.355  0.2766 -0.6227 -0.4588
36815SOL    HW112887   6.626   0.925   5.435  1.5973  0.6205 -1.4910
36815SOL    HW212888   6.518   0.904   5.331 -0.0961 -0.9351  0.4773
36816SOL     OW12889   2.425   7.379   1.496 -0.3270  0.1575  0.4806
36816SOL    HW112890   2.433   7.470   1.467 -0.0943 -0.1444 -0.4088
36816SOL    HW212891   2.493   7.370   1.563  2.3840 -0.4152 -2.1239
36817SOL     OW12892   4.381  10.247   5.528  0.2066  0.8090  0.1287
36817SOL    HW112893   4.361  10.256   5.435  0.3575 -2.2750 -0.3349
36817SOL    HW212894   4.400  10.153   5.539  2.6704  1.4787  2.8037
36818SOL     OW12895   2.227   5.080   1.545 -0.1870  0.2418  0.0008
36818SOL    HW112896   2.252   5.084   1.637 -0.3674  0.7093  0.0304
36818SOL    HW212897   2.302   5.040   1.501 -0.2979 -0.4430  0.4227
36819SOL     OW12898   9.733   2.137   6.344  0.2849 -0.0885  0.1042
36819SOL    HW112899   9.735   2.097   6.257  0.2999  0.0350  0.0474
36819SOL    HW212900   9.655   2.101   6.385 -0.2328  0.5400 -0.2887
36820SOL     OW12901  10.356   4.222   1.602 -0.3202  0.3794 -0.0137
36820SOL    HW112902  10.312   4.304   1.578  1.6106  1.2932 -0.6357
36820SOL    HW212903  10.317   4.198   1.686 -2.3595  0.8108 -0.7628
36821SOL     OW12904   3.097   1.419   4.007 -0.0892 -0.9064 -0.4601
36821SOL    HW112905   3.073   1.352   3.944 -1.5410 -1.1404  0.2908
36821SOL    HW212906   3.119   1.496   3.954 -0.9472 -1.1999 -1.2675
36822SOL     OW12907   8.732   5.022   8.345 -0.0413  0.1329 -0.5552
36822SOL    HW112908   8.655   5.033   8.401  1.4642  0.7715  1.5065
36822SOL    HW212909   8.780   5.104   8.354  2.9986 -1.6802  1.7237
36823SOL     OW12910   0.775   7.259   3.310  0.0501 -0.4524  0.6153
36823SOL    HW112911   0.839   7.310   3.260 -1.2184  0.0167 -0.6065
36823SOL    HW212912   0.755   7.185   3.253 -1.3322  0.0289  0.4299
36824SOL     OW12913   4.321   8.013   7.606  0.1595  0.3564  0.3820
36824SOL    HW112914   4.319   8.070   7.528 -0.2613  1.8490  1.4360
36824SOL    HW212915   4.230   8.013   7.637 -0.2656 -2.4221 -0.5947
36825SOL     OW12916   8.565   3.556   7.873 -0.3513 -0.2293 -0.1502
36825SOL    HW112917   8.571   3.623   7.805 -3.1640  0.5797  0.2350
36825SOL    HW212918   8.547   3.605   7.953 -0.4839 -1.3496  0.5286
36826SOL     OW12919   9.362   0.108   3.335 -0.6677  0.3225 -0.2596
36826SOL    HW112920   9.334   0.139   3.421  1.2007 -1.7534  1.2120
36826SOL    HW212921   9.307   0.032   3.317 -0.0033 -0.2143 -0.0998
36827SOL     OW12922   8.249   4.740   3.238 -0.1256  0.4543 -0.1540
36827SOL    HW112923   8.258   4.696   3.322  1.5936 -2.8394 -1.8512
36827SOL    HW212924   8.159   4.773   3.238 -0.7611 -1.0031  2.2617
36828SOL     OW12925   4.624  10.470   5.088  0.5571  0.0086  0.0718
36828SOL    HW112926   4.556  10.463   5.020 -0.0858  0.1923  0.6849
36828SOL    HW212927   4.662  10.557   5.075  1.9232 -0.7648 -1.4069
36829SOL     OW12928   6.244   9.723   2.338 -0.2101 -0.3105 -0.1882
36829SOL    HW112929   6.227   9.782   2.264  3.8988  0.5540 -0.6683
36829SOL    HW212930   6.199   9.642   2.314 -2.4959  1.2423 -1.5434
36830SOL     OW12931   2.563   6.448   5.226 -0.5011  0.7550 -0.1091
36830SOL    HW112932   2.584   6.380   5.162  1.2131 -0.6067  1.7896
36830SOL    HW212933   2.468   6.442   5.236 -0.7377  0.5726 -1.9951
36831SOL     OW12934   9.172   0.593   2.703 -0.0651  0.0232  0.0601
36831SOL    HW112935   9.163   0.642   2.621  1.4279  1.1609  0.5284
36831SOL    HW212936   9.208   0.508   2.677  0.2539  0.3222 -0.4976
36832SOL     OW12937   0.198   4.768   3.104  0.4140 -0.2824 -0.2031
36832SOL    HW112938   0.169   4.792   3.016  1.0062 -1.2708 -0.6845
36832SOL    HW212939   0.191   4.849   3.155 -1.2455 -0.0084 -0.7968
36833SOL     OW12940   5.736   6.121   0.971 -0.3013  0.5258  0.2934
36833SOL    HW112941   5.820   6.160   0.951 -0.6360  0.8633 -0.5221
36833SOL    HW212942   5.672   6.183   0.936 -0.8358 -1.1304 -1.8585
36834SOL     OW12943   3.952   3.719   8.349  0.0035  0.4426  0.4853
36834SOL    HW112944   3.969   3.747   8.439  0.8478 -1.3084  0.9272
36834SOL    HW212945   3.979   3.793   8.295 -0.2997  1.4335  1.6644
36835SOL     OW12946   5.324   4.188   8.787  0.0439  0.1298 -0.1548
36835SOL    HW112947   5.372   4.135   8.724  0.9979  0.1941  0.4931
36835SOL    HW212948   5.239   4.202   8.746  0.3898 -0.4155 -1.1093
36836SOL     OW12949   4.774   5.082   6.719  0.3064  0.3845  0.6497
36836SOL    HW112950   4.758   5.164   6.765 -0.7025  1.1603 -0.9828
36836SOL    HW212951   4.824   5.108   6.641  0.1989 -0.5697  0.2513
36837SOL     OW12952  10.461   0.021   1.464  0.1446 -0.3433  0.3080
36837SOL    HW112953  10.450   0.108   1.501  1.2396 -0.1808  0.3042
36837SOL    HW212954  10.428  -0.039   1.531 -0.8213  0.0714  0.2170
36838SOL     OW12955   5.889   3.247   3.004 -0.7462 -0.2168  0.0393
36838SOL    HW112956   5.938   3.293   2.936 -0.3481 -1.3457 -0.4674
36838SOL    HW212957   5.950   3.243   3.078 -0.3459 -0.9328 -0.3195
36839SOL     OW12958   2.177   1.814   6.054 -0.1336 -0.8529 -0.0050
36839SOL    HW112959   2.183   1.877   6.126 -1.1425 -0.0675 -0.5775
36839SOL    HW212960   2.128   1.740   6.091 -2.2456  0.3058 -0.3409
36840SOL     OW12961   9.064   4.497   8.716  0.2233 -0.2298  0.4105
36840SOL    HW112962   9.156   4.476   8.702  0.3314 -0.6430  1.5638
36840SOL    HW212963   9.059   4.592   8.709  0.6822 -0.2368  0.0255
36841SOL     OW12964   9.629   2.573   4.513  0.7365  0.4185  0.0085
36841SOL    HW112965   9.622   2.667   4.496 -1.4328  0.5028  0.9861
36841SOL    HW212966   9.660   2.568   4.604 -2.8119  0.3871  1.3827
36842SOL     OW12967   3.024  10.488   1.603  0.3065 -0.2029  0.3564
36842SOL    HW112968   3.000  10.428   1.532 -0.8305 -0.7120  1.1395
36842SOL    HW212969   2.940  10.517   1.639  0.8614  0.7968  0.8759
36843SOL     OW12970   3.090   5.418   9.526 -0.4067  0.0072  0.2834
36843SOL    HW112971   3.042   5.460   9.455 -1.9883  0.6391  1.6471
36843SOL    HW212972   3.169   5.471   9.537 -0.2986  0.0729 -0.7932
36844SOL     OW12973   3.804   1.147   2.979  0.4903  0.0186 -0.2299
36844SOL    HW112974   3.779   1.075   2.922 -1.0783 -0.3051  0.7924
36844SOL    HW212975   3.781   1.226   2.930 -0.9799 -0.2572 -0.0216
36845SOL     OW12976   6.085   5.453   8.841 -0.3236  0.7521 -0.4436
36845SOL    HW112977   5.989   5.452   8.844 -0.3299  0.8902 -0.5972
36845SOL    HW212978   6.111   5.375   8.890 -0.4448  2.2909  2.2806
36846SOL     OW12979   2.491   6.604   1.482  0.2025 -0.1943  0.3796
36846SOL    HW112980   2.527   6.629   1.566 -1.5274  1.8815  0.5827
36846SOL    HW212981   2.553   6.636   1.417  2.8358 -3.9272  0.7230
36847SOL     OW12982   1.535   1.411   1.975  0.5679 -0.2723 -0.0406
36847SOL    HW112983   1.577   1.492   1.946 -0.0466 -0.6199 -2.1314
36847SOL    HW212984   1.449   1.438   2.006 -0.4101 -0.2224 -2.5469
36848SOL     OW12985   0.829   4.933   9.223  0.1686 -0.0964  0.1464
36848SOL    HW112986   0.806   4.862   9.282 -0.1823  0.3048  0.5056
36848SOL    HW212987   0.744   4.969   9.196  0.3377  0.0293 -0.2224
36849SOL     OW12988   3.431   9.537   4.577  0.0217  0.4151  0.2745
36849SOL    HW112989   3.444   9.630   4.556  1.4052 -0.4771 -3.8518
36849SOL    HW212990   3.343   9.518   4.546 -0.1327  0.2768  0.7993
36850SOL     OW12991   7.555   9.148   3.884 -0.0683 -0.1034 -0.3156
36850SOL    HW112992   7.501   9.082   3.841 -0.8820 -0.6345  1.4373
36850SOL    HW212993   7.508   9.170   3.965  0.9512  1.4941 -0.0988
36851SOL     OW12994   3.571   4.382  10.469 -0.3276 -0.0070  0.1700
36851SOL    HW112995   3.564   4.350  10.379  0.6130 -0.8384  0.3807
36851SOL    HW212996   3.483   4.416  10.488 -1.2934 -2.1443 -0.1942
36852SOL     OW12997   9.217   7.420   3.169  0.1774 -0.2192 -0.2893
36852SOL    HW112998   9.141   7.478   3.173 -0.8464 -1.5775  2.6038
36852SOL    HW212999   9.180   7.334   3.151  1.0846 -0.7925  0.4891
36853SOL     OW13000   7.528   2.933   8.478  0.1203  0.1443  0.3354
36853SOL    HW113001   7.438   2.902   8.486 -0.9447  1.9641 -2.7256
36853SOL    HW213002   7.540   2.990   8.554 -1.1284 -0.5326  1.0759
36854SOL     OW13003   6.291   4.540   6.673 -0.1367 -0.1204  0.3924
36854SOL    HW113004   6.333   4.482   6.610  1.7356  1.2585  0.2892
36854SOL    HW213005   6.324   4.510   6.758  0.9058  0.8217  0.3309
36855SOL     OW13006   5.654   7.926   3.144  0.0046 -0.2535 -0.1395
36855SOL    HW113007   5.578   7.894   3.095  0.3298 -1.9730  0.3755
36855SOL    HW213008   5.635   7.901   3.235 -0.0328  1.7667  0.4405
36856SOL     OW13009   1.719   3.773   3.614  0.4820  0.5265 -0.3205
36856SOL    HW113010   1.809   3.804   3.625  0.3612  0.6655  0.2819
36856SOL    HW213011   1.719   3.685   3.652  0.1614  0.8547  0.4573
36857SOL     OW13012   8.388   3.783   7.439  0.4379 -0.4979 -0.0650
36857SOL    HW113013   8.409   3.868   7.477  1.8614 -0.1475 -1.5258
36857SOL    HW213014   8.387   3.722   7.513  0.7356  0.5551  0.8195
36858SOL     OW13015   9.803   3.328   0.826  0.9658  0.1922 -0.1821
36858SOL    HW113016   9.721   3.349   0.781 -0.6853 -1.9303  1.6288
36858SOL    HW213017   9.859   3.293   0.756 -0.0068  0.7441 -1.2860
36859SOL     OW13018   5.240   1.608   0.465 -0.3047  0.4267 -0.0435
36859SOL    HW113019   5.245   1.701   0.489 -2.3627  0.9443 -1.3210
36859SOL    HW213020   5.149   1.584   0.482 -0.3443 -0.7620 -1.7110
36860SOL     OW13021   1.527   7.979   5.791 -0.2400  0.0208 -0.2267
36860SOL    HW113022   1.500   7.890   5.813 -0.5664 -0.1698 -1.3295
36860SOL    HW213023   1.619   7.971   5.769  1.0259  0.7450  3.9697
36861SOL     OW13024   2.429   4.472   8.590  0.0632 -0.4119  0.3701
36861SOL    HW113025   2.412   4.565   8.575  0.2224 -0.4756 -0.2437
36861SOL    HW213026   2.349   4.440   8.633 -1.2218 -0.5744 -1.9481
36862SOL     OW13027   3.688   5.698   6.116 -0.5958  0.7147 -0.2677
36862SOL    HW113028   3.602   5.664   6.140 -0.1416  1.1455  2.3474
36862SOL    HW213029   3.670   5.767   6.052 -2.0481 -0.1181 -0.8004
36863SOL     OW13030   6.248  10.134   3.122  0.4409 -0.1748  0.7447
36863SOL    HW113031   6.199  10.216   3.129  1.4965  0.4683  0.7947
36863SOL    HW213032   6.230  10.102   3.034 -2.7406 -1.7228  1.8083
36864SOL     OW13033   5.550   7.434   2.654  0.4755  0.3399 -0.2358
36864SOL    HW113034   5.484   7.439   2.723  0.1492  0.9733 -0.5894
36864SOL    HW213035   5.612   7.504   2.674 -0.5898  1.7267 -1.5671
36865SOL     OW13036  10.313   4.023   4.384  0.1867  0.1240  0.1283
36865SOL    HW113037  10.325   3.984   4.470  1.9203 -0.6418 -0.4076
36865SOL    HW213038  10.239   3.975   4.346  0.4238 -0.6427  0.6044
36866SOL     OW13039   1.599   4.197   5.339  0.4020  0.1696  0.6627
36866SOL    HW113040   1.571   4.169   5.252  1.0134  0.2225  0.4419
36866SOL    HW213041   1.525   4.176   5.396 -0.2008  0.5850  0.0549
36867SOL     OW13042   2.647   3.119   1.973 -0.3857 -0.4731 -0.1682
36867SOL    HW113043   2.739   3.144   1.987 -0.4874  0.1270 -0.5216
36867SOL    HW213044   2.611   3.109   2.061  0.4118 -2.2600 -0.0035
36868SOL     OW13045   5.183   6.959   3.540  0.2392 -0.0024 -0.3378
36868SOL    HW113046   5.089   6.945   3.550  0.1044  0.1549 -1.2789
36868SOL    HW213047   5.209   7.006   3.619 -0.0500 -1.9140  0.9549
36869SOL     OW13048   4.305   6.786   7.679 -0.0153  0.2929 -0.7335
36869SOL    HW113049   4.302   6.691   7.691 -1.6951  0.2844 -1.0983
36869SOL    HW213050   4.245   6.804   7.607 -1.9588  1.8952  1.1446
36870SOL     OW13051   5.198   7.579   3.111 -0.0583 -0.7084  0.2855
36870SOL    HW113052   5.193   7.486   3.133 -0.7582 -0.6052  0.6125
36870SOL    HW213053   5.157   7.585   3.025  1.7374 -0.9642 -0.6212
36871SOL     OW13054   0.291   1.836   0.500 -0.7223  0.4375  0.5599
36871SOL    HW113055   0.204   1.850   0.462 -1.1160  1.2779  1.7352
36871SOL    HW213056   0.284   1.752   0.546 -0.4045 -0.3075 -0.6749
36872SOL     OW13057  10.246   1.302   1.977  0.1928 -0.5174  0.5367
36872SOL    HW113058  10.172   1.241   1.982  0.0851 -0.4593 -0.2260
36872SOL    HW213059  10.207   1.383   1.944  0.5526 -0.3992  0.4061
36873SOL     OW13060   7.518   5.456   7.740 -0.2445 -0.0337 -0.2084
36873SOL    HW113061   7.482   5.532   7.786  1.0717  0.7474 -0.4176
36873SOL    HW213062   7.589   5.425   7.796  0.6990  0.2925 -1.1938
36874SOL     OW13063   3.366   1.091   4.552  0.1556  0.7709  0.3848
36874SOL    HW113064   3.393   1.120   4.639 -0.3824  0.4415  0.6635
36874SOL    HW213065   3.347   0.998   4.562 -1.5267  1.0788  0.3155
36875SOL     OW13066   4.931   4.146  10.072 -0.1159  0.8175  0.2813
36875SOL    HW113067   4.888   4.061  10.067  1.6457 -0.0387 -1.7478
36875SOL    HW213068   4.899   4.184  10.154 -0.4044 -2.0791  1.6445
36876SOL     OW13069   1.489   0.375   6.093  0.0224  0.1516 -0.2430
36876SOL    HW113070   1.415   0.431   6.069 -1.0529 -1.0832  0.0100
36876SOL    HW213071   1.470   0.291   6.049  1.9124  0.1525 -1.1648
36877SOL     OW13072   9.648   9.306   4.054 -0.1601  0.2856  0.1376
36877SOL    HW113073   9.553   9.314   4.048 -0.5440 -2.7498  0.5134
36877SOL    HW213074   9.681   9.384   4.010 -2.8124  0.8792 -1.0407
36878SOL     OW13075   7.982   8.597  10.331  0.0361 -0.5460  0.4671
36878SOL    HW113076   7.929   8.545  10.391  0.3021  1.2442  2.4062
36878SOL    HW213077   8.064   8.611  10.379  0.2117  1.0432 -0.2452
36879SOL     OW13078   4.309  10.018   4.826  0.1498 -0.2917  0.2057
36879SOL    HW113079   4.232  10.070   4.803  0.2303 -0.5865 -0.7705
36879SOL    HW213080   4.274   9.933   4.852  0.1096 -0.2131  0.4142
36880SOL     OW13081   8.805   4.872   8.598 -0.5857  0.0464 -0.4014
36880SOL    HW113082   8.746   4.918   8.539 -0.9635  1.5130  1.0523
36880SOL    HW213083   8.893   4.899   8.569 -0.7125 -0.1019 -0.9422
36881SOL     OW13084   7.248   7.614   0.590 -0.2272  0.2799 -0.0531
36881SOL    HW113085   7.185   7.546   0.567 -0.2346  0.1780  0.2719
36881SOL    HW213086   7.202   7.671   0.651  1.2433 -2.1764  3.7218
36882SOL     OW13087   2.964   3.101   0.521 -0.2285 -0.5057  0.3589
36882SOL    HW113088   3.045   3.072   0.565  1.0260  1.1541 -0.7264
36882SOL    HW213089   2.930   3.171   0.577 -1.1641 -1.4575  1.0142
36883SOL     OW13090  10.397   7.372   3.019  0.2057  0.0106  0.0883
36883SOL    HW113091  10.350   7.389   3.101 -2.0401  1.0872 -1.3513
36883SOL    HW213092  10.488   7.360   3.047 -0.6207 -0.7119  2.8429
36884SOL     OW13093   4.524   0.414   5.178 -0.5813 -0.0194  0.0462
36884SOL    HW113094   4.545   0.413   5.271 -1.3243  1.0679  0.2479
36884SOL    HW213095   4.581   0.347   5.139  2.0603  1.6725  0.7674
36885SOL     OW13096   4.811   3.914   0.954 -0.4214  0.5600 -0.0980
36885SOL    HW113097   4.891   3.905   0.903  0.4925  0.6027  1.2778
36885SOL    HW213098   4.812   3.840   1.014 -1.9038  0.0286 -0.6798
36886SOL     OW13099   3.126   0.767   5.208  0.0102  0.2620  0.1635
36886SOL    HW113100   3.212   0.802   5.228  0.6360 -0.8724 -0.4285
36886SOL    HW213101   3.088   0.830   5.147  1.9611 -1.0290 -2.5947
36887SOL     OW13102   0.475   7.716   3.412 -0.4443 -0.6792 -0.8361
36887SOL    HW113103   0.457   7.727   3.505  0.2522 -0.7799 -0.6916
36887SOL    HW213104   0.392   7.683   3.376 -0.5935 -1.0337 -0.1859
36888SOL     OW13105   0.209   1.364   7.151 -0.2223  0.4481 -0.2061
36888SOL    HW113106   0.135   1.378   7.092 -1.5798 -0.5872  1.1845
36888SOL    HW213107   0.216   1.445   7.200 -1.0687  0.2133  0.3170
36889SOL     OW13108   7.434   8.458   1.381  0.2021  1.1058 -0.1839
36889SOL    HW113109   7.448   8.438   1.474  1.4036  1.1340 -0.3381
36889SOL    HW213110   7.449   8.375   1.336 -1.9405  0.7022 -0.2567
36890SOL     OW13111   8.803   3.334   6.050 -0.4971 -0.4482 -0.8441
36890SOL    HW113112   8.866   3.313   6.119 -0.5050 -0.8258 -0.9486
36890SOL    HW213113   8.853   3.323   5.968 -0.4067  0.2830 -0.8900
36891SOL     OW13114   2.844   6.042   6.490 -0.1052 -0.0792 -0.2810
36891SOL    HW113115   2.807   5.959   6.521  0.9210 -0.0123  1.2413
36891SOL    HW213116   2.882   6.021   6.405 -1.3050 -0.7582 -0.6726
36892SOL     OW13117   7.475   7.681   4.371 -0.1624 -0.2370 -0.0844
36892SOL    HW113118   7.486   7.614   4.305  0.4037  0.9314 -1.2177
36892SOL    HW213119   7.522   7.647   4.448 -1.7477 -2.0908  0.1483
36893SOL     OW13120   8.097   5.588   9.788 -0.1257 -0.4920  0.1566
36893SOL    HW113121   8.059   5.635   9.714 -0.0027 -2.8947 -1.5391
36893SOL    HW213122   8.190   5.611   9.786 -0.6636  2.3583  1.9568
36894SOL     OW13123   5.049   5.721   0.814 -0.2170 -0.3284 -0.2661
36894SOL    HW113124   5.138   5.740   0.841 -0.5942  2.0054 -0.4100
36894SOL    HW213125   5.057   5.692   0.723  0.3170  1.7794 -0.9541
36895SOL     OW13126   9.272   9.272   5.867  0.5480 -0.1310 -0.1814
36895SOL    HW113127   9.247   9.294   5.777  2.3302  1.7470 -0.3157
36895SOL    HW213128   9.208   9.318   5.921  0.5797  0.3157 -0.5109
36896SOL     OW13129   1.996   2.339   0.739  0.1980 -0.9100  0.7904
36896SOL    HW113130   1.924   2.302   0.790 -0.1687 -0.2159  0.7935
36896SOL    HW213131   2.065   2.355   0.803 -0.0764 -0.5116  0.9942
36897SOL     OW13132   5.917   0.079   2.821 -0.2171 -0.0137 -0.7660
36897SOL    HW113133   5.972   0.153   2.794 -1.2588  0.1605 -2.5767
36897SOL    HW213134   5.847   0.119   2.872 -0.0953  0.0909 -0.6807
36898SOL     OW13135   4.295   9.336   1.568  0.4710  0.0525  0.4039
36898SOL    HW113136   4.325   9.388   1.642 -0.6964  0.8470  0.3423
36898SOL    HW213137   4.256   9.258   1.607 -1.5652  1.1832  0.7628
36899SOL     OW13138   8.854   9.814   2.331  0.2706 -0.1021  0.3463
36899SOL    HW113139   8.823   9.887   2.384  1.1162  2.7133 -2.6603
36899SOL    HW213140   8.780   9.789   2.277  0.5120 -0.1441  0.0287
36900SOL     OW13141   1.345   9.488   7.031 -0.0520  0.3679  0.2945
36900SOL    HW113142   1.293   9.479   6.951  0.3983  1.4723 -0.1367
36900SOL    HW213143   1.321   9.574   7.065 -1.3871 -0.6884  2.2092
36901SOL     OW13144   6.639   9.782   4.550 -0.5975 -0.0239  0.0049
36901SOL    HW113145   6.636   9.792   4.645  1.0802  0.6788  0.0162
36901SOL    HW213146   6.548   9.762   4.525 -1.0889 -0.0924  1.7236
36902SOL     OW13147   2.125   8.077   2.856  0.6899  0.2293 -0.2145
36902SOL    HW113148   2.197   8.022   2.887  0.4387 -0.5519 -0.9867
36902SOL    HW213149   2.153   8.166   2.876  0.5551 -0.2111  2.2170
36903SOL     OW13150   4.912   8.750   1.636 -0.7860 -0.0829 -0.1030
36903SOL    HW113151   4.832   8.710   1.669  0.2612 -1.7507  0.5462
36903SOL    HW213152   4.918   8.834   1.682 -1.7904 -0.2475  0.3532
36904SOL     OW13153   2.323   2.716   9.379  0.7062  0.7478  0.5986
36904SOL    HW113154   2.245   2.771   9.375  1.2007  1.3972 -0.8617
36904SOL    HW213155   2.354   2.712   9.288 -0.0664 -3.0782  0.3281
36905SOL     OW13156   9.890   5.736   5.197  0.2917 -0.0166  0.4182
36905SOL    HW113157   9.972   5.766   5.237  0.2847  3.8931 -1.9760
36905SOL    HW213158   9.821   5.769   5.255  0.3430 -0.4588  0.7372
36906SOL     OW13159   9.262   4.881   2.087  0.3262 -0.0129 -0.8882
36906SOL    HW113160   9.273   4.860   1.994  0.1391 -1.8297 -0.5398
36906SOL    HW213161   9.263   4.796   2.131  0.8420  0.8365  0.8294
36907SOL     OW13162   3.227   0.472   4.843 -0.1889 -0.0375  0.0904
36907SOL    HW113163   3.279   0.505   4.770  0.5380  0.4338  0.7893
36907SOL    HW213164   3.249   0.531   4.916 -0.0832 -1.1166  0.9621
36908SOL     OW13165   8.760   2.429   0.196 -0.0388 -0.2237 -0.2044
36908SOL    HW113166   8.687   2.469   0.241  1.2795  0.7908  1.1183
36908SOL    HW213167   8.723   2.351   0.154 -1.5487 -0.6313  1.7431
36909SOL     OW13168   8.350   9.275   2.016 -0.6472  0.4476  0.0658
36909SOL    HW113169   8.412   9.210   2.051 -1.0981 -0.4500 -0.7542
36909SOL    HW213170   8.377   9.286   1.925  0.5900  2.8516  0.6413
36910SOL     OW13171   0.657   9.327   3.524  0.0206  1.1263 -0.5051
36910SOL    HW113172   0.707   9.250   3.550  0.0633  1.4818  0.4952
36910SOL    HW213173   0.611   9.300   3.445 -2.8868 -1.2129  1.7474
36911SOL     OW13174   8.213  10.327   3.671 -0.8144  0.6385 -0.8517
36911SOL    HW113175   8.120  10.305   3.681 -0.5292 -0.6864 -0.9455
36911SOL    HW213176   8.213  10.410   3.624 -1.9646 -0.3570 -2.7434
36912SOL     OW13177   1.627   9.389   4.711  0.3367  0.0067  0.0444
36912SOL    HW113178   1.610   9.404   4.618  2.1470 -0.4879 -0.3872
36912SOL    HW213179   1.556   9.331   4.739  0.3005 -0.6218 -1.2623
36913SOL     OW13180   4.926   1.679   7.962 -0.3149  0.5411 -0.4071
36913SOL    HW113181   4.908   1.593   8.001  0.6365 -0.3197 -1.8003
36913SOL    HW213182   4.855   1.692   7.900  0.8006 -0.3500 -1.9165
36914SOL     OW13183   5.824   4.429   9.254  0.1276  0.0925 -0.4729
36914SOL    HW113184   5.751   4.404   9.198  0.2377  0.2189 -0.6740
36914SOL    HW213185   5.795   4.510   9.296  0.4713  0.5897 -1.1764
36915SOL     OW13186   1.009   1.285   5.212  0.5939  0.3450 -0.1898
36915SOL    HW113187   0.965   1.359   5.254  1.6472  0.6511  0.4132
36915SOL    HW213188   0.968   1.208   5.252 -0.2914  0.5881 -0.5937
36916SOL     OW13189   4.233  10.378   1.971 -0.0042 -0.6872 -0.4693
36916SOL    HW113190   4.267  10.307   1.918  0.7217  0.0612 -1.0239
36916SOL    HW213191   4.295  10.450   1.959 -1.4002  0.4750 -0.9499
36917SOL     OW13192   3.976  10.144   6.718  0.2691 -0.1316  0.0667
36917SOL    HW113193   3.922  10.082   6.668  0.0190 -0.3897  0.6457
36917SOL    HW213194   3.916  10.217   6.737  0.2102 -0.2733  0.4347
36918SOL     OW13195   1.867   8.165   0.732  0.3179 -0.4868  0.3145
36918SOL    HW113196   1.785   8.183   0.778  0.1827  0.5227 -0.3060
36918SOL    HW213197   1.859   8.073   0.704  0.6236 -1.3163  2.7111
36919SOL     OW13198   0.216   6.242   7.773 -0.1266  0.0702  0.4320
36919SOL    HW113199   0.209   6.199   7.859 -0.8153 -0.4163  0.1489
36919SOL    HW213200   0.206   6.335   7.792  0.7565  0.0555  0.9914
36920SOL     OW13201   7.617   7.162  10.364  0.7186 -0.6316  0.6240
36920SOL    HW113202   7.541   7.125  10.319  0.0742  1.7450 -0.4121
36920SOL    HW213203   7.644   7.236  10.308  0.9049  1.4717  3.2932
36921SOL     OW13204   3.045   3.563  10.456 -0.2537  0.0358  0.3200
36921SOL    HW113205   3.008   3.482  10.421 -3.2614  0.8264  1.3689
36921SOL    HW213206   2.971   3.608  10.497  1.1267  3.6283 -0.6874
36922SOL     OW13207   3.409   5.713   2.106 -0.2651 -0.1317  0.2169
36922SOL    HW113208   3.398   5.683   2.197  0.3919 -0.9689  0.0401
36922SOL    HW213209   3.427   5.633   2.057 -3.7083 -0.1773 -1.2527
36923SOL     OW13210   7.629   7.281   0.129 -0.2766  0.3095 -0.6472
36923SOL    HW113211   7.629   7.223   0.205  1.7780 -0.0487 -0.8550
36923SOL    HW213212   7.624   7.223   0.053 -0.4974  0.5451 -0.8168
36924SOL     OW13213   8.183   9.807   3.695 -0.2120 -0.3256  0.5798
36924SOL    HW113214   8.207   9.728   3.743  2.4583  0.3232  0.4662
36924SOL    HW213215   8.155   9.868   3.763 -0.4318 -0.7447  0.8702
36925SOL     OW13216   3.829  10.038   0.857 -0.3776 -0.5619  0.0101
36925SOL    HW113217   3.816   9.945   0.875 -1.2003 -0.7731 -1.4865
36925SOL    HW213218   3.764  10.082   0.911 -1.5410 -1.0376 -0.9538
36926SOL     OW13219  10.284   5.164   7.299  0.3621  0.0267  0.5534
36926SOL    HW113220  10.274   5.088   7.357 -0.9116  0.9487  1.5933
36926SOL    HW213221  10.375   5.161   7.271  0.5019 -1.5287  1.0769
36927SOL     OW13222   0.115   0.379  10.180 -0.4082  0.6510 -0.6587
36927SOL    HW113223   0.154   0.301  10.221  2.1530  2.2316  0.1268
36927SOL    HW213224   0.064   0.344  10.107 -1.0531 -1.8909  0.8869
36928SOL     OW13225   1.165   8.489   7.925 -0.5606 -0.6893  0.3232
36928SOL    HW113226   1.168   8.574   7.880 -2.0022 -1.5816 -1.5704
36928SOL    HW213227   1.161   8.512   8.018 -1.8697  1.3744 -0.1599
36929SOL     OW13228   2.135   0.620   7.516  0.7369  0.0006 -0.2541
36929SOL    HW113229   2.041   0.639   7.523  0.3559 -1.7663 -0.0991
36929SOL    HW213230   2.165   0.613   7.606  0.5947 -1.2186 -0.2813
36930SOL     OW13231   3.714  10.471   9.226  0.2565 -0.2440 -0.5514
36930SOL    HW113232   3.725  10.550   9.173 -0.9621  0.4740  0.2221
36930SOL    HW213233   3.661  10.412   9.172  0.7774 -0.3594 -0.9453
36931SOL     OW13234   7.654   3.456   5.258 -0.1303  1.0063  0.1071
36931SOL    HW113235   7.636   3.481   5.348  2.2427  0.7462  0.6987
36931SOL    HW213236   7.601   3.516   5.205 -0.6716  1.8970  1.6279
36932SOL     OW13237   7.205   2.942   0.549  0.3774 -0.4626  0.0514
36932SOL    HW113238   7.204   2.847   0.552 -0.7135 -0.4560  0.6373
36932SOL    HW213239   7.278   2.968   0.605 -1.1927 -0.9388  2.4721
36933SOL     OW13240   1.914   1.423   2.194  0.1186 -0.1368  0.3267
36933SOL    HW113241   1.942   1.437   2.104 -2.7399  2.7389 -0.2918
36933SOL    HW213242   1.837   1.367   2.188 -0.0351 -0.0076  0.9813
36934SOL     OW13243   3.094   6.831   6.037  0.0605  0.1298  0.7366
36934SOL    HW113244   3.041   6.752   6.022 -1.1296  1.3261 -2.0202
36934SOL    HW213245   3.058   6.868   6.117 -2.0316 -0.1527  0.0059
36935SOL     OW13246   2.572   8.581   1.462 -0.7468 -0.7673 -0.2390
36935SOL    HW113247   2.598   8.569   1.370  0.0309 -1.9323  0.1146
36935SOL    HW213248   2.644   8.544   1.512 -1.4379 -0.6833  0.8415
36936SOL     OW13249  10.009   7.236   5.482  0.1936  0.0831 -0.5390
36936SOL    HW113250   9.997   7.238   5.577  0.8713  0.9697 -0.4588
36936SOL    HW213251   9.922   7.218   5.447 -0.5738  2.1346  0.1747
36937SOL     OW13252   2.161   0.439   6.476  0.1188  0.1302 -0.6514
36937SOL    HW113253   2.223   0.367   6.464  1.0884  1.0812 -1.6247
36937SOL    HW213254   2.212   0.518   6.454 -1.6213  0.8908 -2.2445
36938SOL     OW13255   4.601   0.377   8.879  0.5062 -0.2583  0.1200
36938SOL    HW113256   4.643   0.311   8.934  0.7587 -0.5345 -0.3952
36938SOL    HW213257   4.671   0.411   8.824  0.1242 -0.4661 -0.5013
36939SOL     OW13258   9.784   2.690   7.507 -0.1519 -1.0309 -0.1126
36939SOL    HW113259   9.705   2.653   7.547 -1.2485  0.4284 -0.8265
36939SOL    HW213260   9.842   2.708   7.580 -0.8926 -1.1918  0.5288
36940SOL     OW13261   6.340   0.651   9.349 -0.0586  0.5945  0.5553
36940SOL    HW113262   6.273   0.584   9.365  0.2466  0.3606  0.8483
36940SOL    HW213263   6.339   0.705   9.427  0.5912  0.1673  0.8642
36941SOL     OW13264   1.070   3.264   4.995 -0.0529 -0.3072 -0.1134
36941SOL    HW113265   1.130   3.203   4.950 -1.0049 -1.1401 -0.2867
36941SOL    HW213266   1.008   3.207   5.040 -2.6851  0.4413 -2.4985
36942SOL     OW13267   1.983   6.618   9.938  0.4358  0.0142  0.0444
36942SOL    HW113268   1.967   6.525   9.921 -0.7271  0.1641  0.2303
36942SOL    HW213269   1.897   6.653   9.960  1.1545  0.7352  1.9035
36943SOL     OW13270   4.229   9.629   7.384  0.3592 -0.0210 -0.5947
36943SOL    HW113271   4.218   9.653   7.292 -0.0662  1.7284 -0.1198
36943SOL    HW213272   4.253   9.536   7.381 -1.9729 -0.6729 -2.3459
36944SOL     OW13273   0.792  10.300   0.223 -0.0862 -0.5075  0.1067
36944SOL    HW113274   0.869  10.348   0.252 -0.1319 -1.1177  1.3030
36944SOL    HW213275   0.723  10.367   0.216  0.3573 -0.0833 -0.2400
36945SOL     OW13276   0.946   5.927   3.780  0.4071  0.2178 -0.1678
36945SOL    HW113277   0.851   5.914   3.782  0.3246  0.4531  3.6814
36945SOL    HW213278   0.982   5.840   3.759 -0.5280  0.4447 -3.3184
36946SOL     OW13279   4.836   7.934   4.161 -0.3760 -0.2170 -0.3158
36946SOL    HW113280   4.777   7.947   4.087  0.0224 -1.3011 -0.8365
36946SOL    HW213281   4.798   7.861   4.210  1.0247 -1.5981 -1.2037
36947SOL     OW13282   5.555   9.383   0.535  0.3253 -0.7396 -0.1701
36947SOL    HW113283   5.504   9.302   0.531 -0.0946 -0.5818  1.2965
36947SOL    HW213284   5.619   9.367   0.605 -2.7613  1.7433  3.5923
36948SOL     OW13285   5.153  10.457   2.610  0.8461  0.3651 -0.3849
36948SOL    HW113286   5.099  10.476   2.534 -0.7017  1.4347  0.9090
36948SOL    HW213287   5.198  10.376   2.588 -0.1623  0.2217 -2.0998
36949SOL     OW13288   4.163   3.235   7.554  0.2971 -0.1640 -0.1511
36949SOL    HW113289   4.206   3.306   7.601  2.5970 -0.5745 -1.4664
36949SOL    HW213290   4.228   3.164   7.553 -1.2284 -1.6123 -0.4705
36950SOL     OW13291   5.648   0.458   7.539  0.3155 -0.3362 -0.4724
36950SOL    HW113292   5.706   0.533   7.550 -1.2637  0.8612  0.2334
36950SOL    HW213293   5.568   0.483   7.587 -0.4159 -2.3014 -0.5672
36951SOL     OW13294   2.398   2.993   1.080 -0.4294  0.4554  0.0736
36951SOL    HW113295   2.401   3.060   1.012  2.0695  1.8158  1.3579
36951SOL    HW213296   2.442   2.918   1.042  1.3925  1.3721  0.2745
36952SOL     OW13297   9.972   0.553   6.308  0.1437  0.1470 -0.1911
36952SOL    HW113298   9.984   0.467   6.268  0.6099  0.3106 -0.4151
36952SOL    HW213299  10.046   0.605   6.275 -0.5829  0.8755 -0.7139
36953SOL     OW13300   4.358   8.442   5.638  0.6759 -0.8773  0.1851
36953SOL    HW113301   4.406   8.507   5.690 -0.0330 -0.4711  0.3447
36953SOL    HW213302   4.282   8.420   5.691  0.9095 -1.8399  0.1240
36954SOL     OW13303   6.542   8.216   7.095  0.4289 -0.2839 -0.4882
36954SOL    HW113304   6.492   8.163   7.157  2.5213 -0.3117  1.2495
36954SOL    HW213305   6.557   8.299   7.140 -0.6580  0.9454 -2.2157
36955SOL     OW13306   4.592   8.631   1.579 -0.0078  0.4656 -0.0399
36955SOL    HW113307   4.607   8.598   1.668  1.0480  4.3715  1.4710
36955SOL    HW213308   4.514   8.685   1.587 -0.8404 -0.3850 -1.9517
36956SOL     OW13309   2.157   3.945   0.752 -0.5826  0.3662 -0.3980
36956SOL    HW113310   2.218   3.969   0.822  1.2147 -1.4275 -1.2418
36956SOL    HW213311   2.073   3.981   0.780  0.4557  1.3128  1.7520
36957SOL     OW13312   2.904   9.260   4.422 -0.3560 -0.3438  0.1023
36957SOL    HW113313   2.861   9.228   4.343  3.0683 -4.6866 -0.3672
36957SOL    HW213314   2.939   9.346   4.397 -2.1645 -0.0885 -1.8740
36958SOL     OW13315   9.076   0.321   7.099 -0.0184  0.2770 -0.2429
36958SOL    HW113316   9.000   0.265   7.088  0.5430 -0.9555  1.5848
36958SOL    HW213317   9.101   0.347   7.010 -1.4175 -0.8563 -0.9987
36959SOL     OW13318   8.320   7.850   0.241 -0.2256  0.3786 -0.1064
36959SOL    HW113319   8.280   7.919   0.293 -2.5675 -0.7691 -0.2432
36959SOL    HW213320   8.328   7.887   0.153 -0.1784  0.9281  0.1283
36960SOL     OW13321   6.349   1.064   6.044  0.0545 -0.2616  0.4665
36960SOL    HW113322   6.260   1.052   6.011 -0.7508  0.0898  2.3473
36960SOL    HW213323   6.392   0.980   6.030 -0.3402 -0.2450 -1.0472
36961SOL     OW13324   6.183   9.975   4.346  0.0635 -0.7715 -0.0399
36961SOL    HW113325   6.218   9.917   4.413  1.2548  0.1944  0.2136
36961SOL    HW213326   6.183  10.062   4.386  1.8403  0.0325 -1.5670
36962SOL     OW13327   5.735   8.339  10.328 -0.3663  0.1490 -0.2112
36962SOL    HW113328   5.730   8.427  10.291  3.5920  1.4633  1.7223
36962SOL    HW213329   5.707   8.350  10.419 -1.2143 -0.9339 -0.3287
36963SOL     OW13330   4.321   2.329   3.697  0.4566 -0.4321  0.6575
36963SOL    HW113331   4.294   2.377   3.776  0.8387  0.3928  0.2969
36963SOL    HW213332   4.317   2.394   3.627 -2.5697 -1.7479 -0.5960
36964SOL     OW13333   4.446   0.376   3.995  0.1284 -0.2678 -0.1756
36964SOL    HW113334   4.491   0.453   4.031 -1.9858  1.0809 -0.2219
36964SOL    HW213335   4.511   0.335   3.938  0.6634  2.8986 -2.1098
36965SOL     OW13336   9.824   1.885   4.413 -0.2000 -0.4604  0.1870
36965SOL    HW113337   9.833   1.968   4.460 -1.7801  0.1122 -0.4597
36965SOL    HW213338   9.895   1.885   4.349  1.4010 -0.8194  1.8806
36966SOL     OW13339   5.472   8.142   7.135  0.3866 -0.2967 -0.1207
36966SOL    HW113340   5.477   8.233   7.106 -1.1053 -0.1951 -0.1392
36966SOL    HW213341   5.412   8.144   7.210  0.4933 -1.2418  0.0058
36967SOL     OW13342   8.924   5.323   8.032 -0.1753 -0.0303 -0.0834
36967SOL    HW113343   8.947   5.248   7.977 -0.6760 -0.6159  0.4931
36967SOL    HW213344   8.830   5.314   8.046  0.0322 -0.2049  1.3158
36968SOL     OW13345   6.362   5.544   6.521 -0.1764  0.4566 -0.0156
36968SOL    HW113346   6.451   5.570   6.543 -0.0514  0.5173 -0.5741
36968SOL    HW213347   6.365   5.448   6.518  0.2265  0.4972 -1.4433
36969SOL     OW13348   8.549   7.546   4.907  0.3750 -0.1453  0.7123
36969SOL    HW113349   8.483   7.616   4.897 -0.9617 -1.4787 -0.3315
36969SOL    HW213350   8.628   7.592   4.934 -0.1977  1.9163 -0.7963
36970SOL     OW13351   6.934   9.304   8.825  0.5208  0.2411 -0.6096
36970SOL    HW113352   6.858   9.287   8.879  1.1465  1.3536  0.6967
36970SOL    HW213353   6.990   9.227   8.836  0.0574 -0.1120 -0.7265
36971SOL     OW13354   4.608   6.504   0.423 -0.4444 -0.0386 -0.4541
36971SOL    HW113355   4.607   6.414   0.455 -0.4981  1.0912  3.2272
36971SOL    HW213356   4.516   6.528   0.416 -0.6029  0.8735  2.8288
36972SOL     OW13357   6.220   1.150   5.593  0.2157  0.3712 -0.2482
36972SOL    HW113358   6.230   1.124   5.501 -1.8716  0.0685 -0.4373
36972SOL    HW213359   6.304   1.128   5.633  0.7604 -0.5963 -1.8237
36973SOL     OW13360   4.699   8.064   8.241 -0.0395 -0.5058  0.0820
36973SOL    HW113361   4.768   8.117   8.202 -0.7538  0.2178 -0.2399
36973SOL    HW213362   4.708   8.077   8.335 -0.9002  1.1363 -0.0257
36974SOL     OW13363   9.035   2.293   6.746 -0.3989  0.3218  0.4829
36974SOL    HW113364   9.130   2.300   6.751 -0.4659  1.0463  0.8261
36974SOL    HW213365   9.018   2.199   6.751  0.2960  0.1887  0.4576
36975SOL     OW13366   0.570   3.569   8.071 -0.1372 -0.6999  0.0317
36975SOL    HW113367   0.600   3.487   8.111 -0.1457 -0.1635  1.1917
36975SOL    HW213368   0.651   3.621   8.059 -0.0308 -1.1635 -1.4321
36976SOL     OW13369   1.538   5.957   9.421 -0.1173 -0.5450  0.5210
36976SOL    HW113370   1.539   5.961   9.516 -1.6336  2.6124  0.5056
36976SOL    HW213371   1.589   6.033   9.393 -0.2364 -1.0541 -1.2155
36977SOL     OW13372   8.314   2.959   7.103  0.1421 -0.0185  0.6945
36977SOL    HW113373   8.311   3.055   7.103  3.2665  0.1818  1.0767
36977SOL    HW213374   8.350   2.936   7.188 -1.0489 -1.6102  0.8036
36978SOL     OW13375   9.096   7.401   8.655 -0.4836  0.0229  0.4405
36978SOL    HW113376   9.177   7.437   8.689  0.4922 -1.4325 -0.2405
36978SOL    HW213377   9.064   7.466   8.593  0.5188  0.3127  0.2145
36979SOL     OW13378  10.064   1.469   3.867  0.4663 -0.1990 -0.2721
36979SOL    HW113379  10.083   1.394   3.811  1.4355  0.2590 -0.5796
36979SOL    HW213380  10.150   1.507   3.887  0.0816  0.1428  0.8368
36980SOL     OW13381   4.126   8.759   5.119  0.2323 -0.0984 -0.2861
36980SOL    HW113382   4.169   8.727   5.199  0.0065 -0.6301 -0.3773
36980SOL    HW213383   4.040   8.788   5.149 -0.1117 -0.9259 -0.4402
36981SOL     OW13384   3.154   3.957   4.488 -0.6429  0.0869 -0.1538
36981SOL    HW113385   3.213   3.998   4.551 -1.6488  0.5650  0.4979
36981SOL    HW213386   3.173   3.863   4.496  0.5506  0.2907 -0.5034
36982SOL     OW13387   9.028   3.498   0.618  0.2935  0.7272 -0.4947
36982SOL    HW113388   9.029   3.534   0.529 -0.9905 -0.1480 -0.8882
36982SOL    HW213389   9.037   3.575   0.674  0.1173  1.3958 -1.3548
36983SOL     OW13390   2.469   3.070   5.961 -0.2384 -0.2155 -0.1396
36983SOL    HW113391   2.539   3.064   6.026  0.4572  0.3934 -0.8100
36983SOL    HW213392   2.393   3.029   6.003  0.2985 -0.1676  0.9065
36984SOL     OW13393   3.756   2.051   1.341 -0.1318  1.2375 -0.0529
36984SOL    HW113394   3.697   1.988   1.300 -1.4641  1.4674  1.4259
36984SOL    HW213395   3.795   2.099   1.268  0.2586 -0.6851 -1.1688
36985SOL     OW13396   2.107  10.240   8.490  0.5561 -0.0570  0.2430
36985SOL    HW113397   2.071  10.289   8.564 -0.0672 -0.5271  0.2581
36985SOL    HW213398   2.116  10.304   8.420 -2.3396 -0.3156 -0.4589
36986SOL     OW13399   7.626   1.650   5.616 -0.2985 -0.5282  0.3178
36986SOL    HW113400   7.652   1.674   5.705 -1.4244  0.7135  0.3557
36986SOL    HW213401   7.647   1.728   5.564 -0.2968 -0.9817 -0.3643
36987SOL     OW13402   1.491  10.337   1.060  0.1526  0.1727 -0.1601
36987SOL    HW113403   1.424  10.376   1.115  0.7448 -0.7635  1.2844
36987SOL    HW213404   1.462  10.247   1.046  0.6533  0.0250 -0.2845
36988SOL     OW13405   3.727   9.046   1.087 -0.1554  0.0572 -0.2107
36988SOL    HW113406   3.759   8.980   1.148  0.3656  1.0047  0.5644
36988SOL    HW213407   3.656   9.091   1.134 -0.4895  0.0742 -0.7171
36989SOL     OW13408   6.056   1.055   3.381 -0.7927  0.2667 -0.1306
36989SOL    HW113409   5.995   1.101   3.439 -0.2350  0.4706  0.3091
36989SOL    HW213410   6.143   1.080   3.413 -0.4345 -2.2357  1.1049
36990SOL     OW13411   0.773   2.820  10.265  0.0446  0.3504 -0.3399
36990SOL    HW113412   0.759   2.729  10.241  0.1321  0.5778 -1.2933
36990SOL    HW213413   0.756   2.869  10.185 -0.4152  1.2100  0.2696
36991SOL     OW13414   7.633   4.287   0.635  0.0572 -0.0771 -0.3038
36991SOL    HW113415   7.597   4.345   0.567 -0.4719 -0.4639 -0.3581
36991SOL    HW213416   7.727   4.292   0.623  0.0071  0.5895 -0.4650
36992SOL     OW13417   4.917   3.342   8.074  0.8277  0.1462  0.2092
36992SOL    HW113418   4.941   3.250   8.058 -0.9865 -0.1678 -1.0421
36992SOL    HW213419   4.958   3.363   8.158  1.7163 -1.6398  0.2829
36993SOL     OW13420   0.699   4.388  10.203  0.7720 -0.1400 -0.5217
36993SOL    HW113421   0.613   4.408  10.166  0.3259 -1.2529 -0.1237
36993SOL    HW213422   0.703   4.292  10.205  0.7293 -0.1754  2.3390
36994SOL     OW13423   7.753   3.330   8.046  0.4037  0.2465 -0.2034
36994SOL    HW113424   7.755   3.425   8.061 -1.2558  0.4526 -1.0372
36994SOL    HW213425   7.794   3.319   7.960  2.3990 -0.0412  0.7386
36995SOL     OW13426  10.352   5.940   4.898 -0.0183 -0.2791  0.5018
36995SOL    HW113427  10.436   5.895   4.886 -1.0078 -2.1588  0.2549
36995SOL    HW213428  10.327   5.968   4.810 -0.4197 -1.2189  0.3021
36996SOL     OW13429   1.976   1.747   8.221  0.0842 -0.1075  0.6201
36996SOL    HW113430   1.926   1.792   8.289 -0.5190 -0.4465  0.4189
36996SOL    HW213431   2.012   1.817   8.167 -1.6448  0.1588 -0.2672
36997SOL     OW13432   5.718   8.695   0.711 -0.0639 -0.4730  0.2747
36997SOL    HW113433   5.648   8.722   0.770  1.2426 -0.7482  2.0485
36997SOL    HW213434   5.734   8.603   0.732  2.2589  0.1266  1.5587
36998SOL     OW13435   2.922   7.486   4.880 -0.2159  0.6670 -0.2265
36998SOL    HW113436   2.991   7.437   4.837  0.6121  0.6330  1.1065
36998SOL    HW213437   2.841   7.448   4.846  0.4060  0.1893 -1.2107
36999SOL     OW13438   6.558   3.885   7.259  0.8142  0.3627 -0.0160
36999SOL    HW113439   6.586   3.954   7.198  1.1613 -0.3851 -0.7433
36999SOL    HW213440   6.471   3.861   7.229  1.0298 -0.0828 -0.2960
37000SOL     OW13441   3.458   7.475   7.433 -0.1197  0.0478 -0.1413
37000SOL    HW113442   3.516   7.455   7.507 -0.1196  0.6134  0.0173
37000SOL    HW213443   3.409   7.394   7.418  0.8803 -0.5135 -0.4378
37001SOL     OW13444   3.817   3.887   9.048 -0.3094  0.1218 -0.0413
37001SOL    HW113445   3.851   3.835   8.975 -0.1268 -0.4133  0.4127
37001SOL    HW213446   3.822   3.828   9.123  0.2460  0.9217  0.5661
37002SOL     OW13447   0.075   6.550   8.353 -0.0417 -0.4888  0.7681
37002SOL    HW113448   0.101   6.467   8.314 -0.2773 -0.6111  0.8667
37002SOL    HW213449   0.153   6.581   8.399 -0.6410 -1.9383  2.9434
37003SOL     OW13450   3.954   9.859   5.954  0.3285 -0.0908  0.5914
37003SOL    HW113451   3.957   9.838   6.047 -0.9550 -3.5640 -0.0302
37003SOL    HW213452   3.861   9.865   5.934  0.5863  2.2715 -0.2513
37004SOL     OW13453   9.801   8.660   2.651  0.1327 -0.0109 -0.7412
37004SOL    HW113454   9.881   8.694   2.610 -0.3059  0.8667 -0.9128
37004SOL    HW213455   9.732   8.677   2.586  0.0266 -2.1957 -1.2782
37005SOL     OW13456   6.470   2.461   6.799  0.2599 -0.3008  0.0975
37005SOL    HW113457   6.419   2.523   6.747  1.5347  0.4196 -0.3555
37005SOL    HW213458   6.527   2.417   6.735  1.6403  0.3876  0.8015
37006SOL     OW13459   9.007   9.004   2.758  0.0833  0.1868 -0.8680
37006SOL    HW113460   8.941   9.071   2.779  0.2798  0.1007  0.0468
37006SOL    HW213461   8.995   8.988   2.664 -1.0971  0.2895 -0.7546
37007SOL     OW13462   5.996   8.461   3.515 -0.3217 -0.2543 -0.0210
37007SOL    HW113463   6.030   8.550   3.525 -1.5072  0.1683  0.5111
37007SOL    HW213464   6.069   8.410   3.481  0.6765  0.7045  0.6284
37008SOL     OW13465   0.929  10.196   1.998 -0.8438  0.4275 -0.3050
37008SOL    HW113466   0.962  10.115   2.037 -1.0422  2.0361  3.7016
37008SOL    HW213467   0.984  10.211   1.922  1.3087 -1.8258  0.6864
37009SOL     OW13468   1.383   8.344   4.636  0.2969  0.2302  0.2689
37009SOL    HW113469   1.470   8.306   4.646  0.4453  0.7069  0.8396
37009SOL    HW213470   1.362   8.333   4.543  0.8753 -0.0791  0.1764
37010SOL     OW13471   5.429   9.748   7.168  0.6625  0.2783  0.0103
37010SOL    HW113472   5.482   9.812   7.216  0.4113  0.0368  0.6197
37010SOL    HW213473   5.380   9.701   7.236  0.7469 -0.4772 -0.4344
37011SOL     OW13474   8.865   3.120   2.780 -0.1761  0.3126 -0.3143
37011SOL    HW113475   8.891   3.147   2.692 -1.0095  0.3110 -0.5718
37011SOL    HW213476   8.893   3.028   2.786 -0.6286  0.1378 -0.7934
37012SOL     OW13477   2.841   9.227   2.210 -0.1880 -0.2296 -0.0711
37012SOL    HW113478   2.897   9.263   2.279 -1.1483 -0.2510  0.7447
37012SOL    HW213479   2.899   9.217   2.135  1.2375 -1.4814  1.1120
37013SOL     OW13480   8.140   3.878   6.205  0.7824 -0.3704  0.0134
37013SOL    HW113481   8.088   3.951   6.239 -0.9888 -0.9373 -1.2914
37013SOL    HW213482   8.204   3.919   6.147  0.9538  0.2651  0.6485
37014SOL     OW13483   9.122   8.116   7.315  0.2013  0.0085  0.6007
37014SOL    HW113484   9.212   8.143   7.334  0.3845 -0.2530  0.1145
37014SOL    HW213485   9.114   8.126   7.220  0.1979 -1.4054  0.4295
37015SOL     OW13486   0.365   7.019   4.833  0.2846  0.1474 -0.0881
37015SOL    HW113487   0.276   7.000   4.861  0.2649  0.0496 -0.2204
37015SOL    HW213488   0.412   6.936   4.842  0.3062  0.1429 -0.2406
37016SOL     OW13489   0.564   0.298   1.407  0.5316  0.0804  0.1343
37016SOL    HW113490   0.533   0.224   1.354  1.5199 -0.4856  0.3145
37016SOL    HW213491   0.629   0.259   1.466 -0.3662  0.7392  1.5975
37017SOL     OW13492   0.163   4.037   4.476  0.7007  0.0647  0.6190
37017SOL    HW113493   0.112   4.115   4.500  0.3429  0.0867 -0.1825
37017SOL    HW213494   0.120   4.004   4.397  1.9551  0.1235 -0.1192
37018SOL     OW13495   8.865   3.719   3.527 -0.0417 -1.0622 -0.0734
37018SOL    HW113496   8.900   3.674   3.604  1.0676 -1.8421 -0.9991
37018SOL    HW213497   8.821   3.650   3.477 -1.5885 -0.3786  0.3025
37019SOL     OW13498   1.202   4.439   5.294  0.3802  0.2503 -0.3405
37019SOL    HW113499   1.192   4.445   5.389 -0.3061 -0.7778 -0.3343
37019SOL    HW213500   1.172   4.351   5.272  0.9352  0.3212 -1.4680
37020SOL     OW13501   2.557   6.254   2.664 -0.7332  0.5550  0.5882
37020SOL    HW113502   2.485   6.252   2.726 -1.8032  2.1760 -0.5211
37020SOL    HW213503   2.635   6.271   2.718 -1.1737 -0.9259  1.7637
37021SOL     OW13504   3.983   9.227   1.689 -0.2055  0.1263 -0.5217
37021SOL    HW113505   3.996   9.278   1.609  0.6956 -1.2287 -1.2747
37021SOL    HW213506   3.909   9.270   1.732 -0.9522  0.6901 -2.2453
37022SOL     OW13507   2.342   2.218   5.938  0.0509  0.0210 -0.2656
37022SOL    HW113508   2.278   2.239   6.006 -2.3056 -0.9819 -2.0363
37022SOL    HW213509   2.383   2.137   5.968  1.6300  1.4042  1.5666
37023SOL     OW13510   7.256   5.614   5.246 -0.0014 -0.3549  0.3139
37023SOL    HW113511   7.183   5.676   5.235  0.2494 -0.3121 -1.3274
37023SOL    HW213512   7.331   5.658   5.208  0.3515 -1.3635 -0.1838
37024SOL     OW13513   2.794   3.404   8.615 -0.3243  0.2944 -0.0340
37024SOL    HW113514   2.749   3.489   8.611 -0.1785  0.5129  1.9548
37024SOL    HW213515   2.884   3.424   8.589 -0.1030  0.9265  1.1678
37025SOL     OW13516   4.129   5.645   3.997 -0.1791 -0.1587  0.3347
37025SOL    HW113517   4.109   5.723   3.946 -3.2489 -0.8681  0.2486
37025SOL    HW213518   4.130   5.574   3.932 -0.0640 -0.5252  0.7358
37026SOL     OW13519   8.215   9.963   5.426 -0.5006  0.2178  0.1292
37026SOL    HW113520   8.280   9.974   5.495 -0.3065  2.1492 -0.2932
37026SOL    HW213521   8.146   9.911   5.467  0.6871 -0.7318  1.0036
37027SOL     OW13522   9.930   8.409   0.800  0.6124 -0.3210  0.4170
37027SOL    HW113523  10.002   8.428   0.739  0.7648  0.2967  0.7829
37027SOL    HW213524   9.869   8.356   0.749  1.1559 -0.5510 -0.0092
37028SOL     OW13525   5.018   5.436   7.773 -0.3540 -0.1840 -0.1195
37028SOL    HW113526   5.105   5.396   7.774 -0.3538 -0.2791 -1.8199
37028SOL    HW213527   4.970   5.389   7.841  0.6031 -0.8495  0.1204
37029SOL     OW13528   8.585   1.617   7.536 -0.0961 -0.4533 -0.0897
37029SOL    HW113529   8.496   1.588   7.558 -0.1118 -0.1043  0.3200
37029SOL    HW213530   8.596   1.698   7.585 -0.3566  0.7035 -1.8540
37030SOL     OW13531   3.236   6.916   8.097  0.0354 -0.0261 -0.0605
37030SOL    HW113532   3.254   7.002   8.059  0.6717 -0.1706 -0.0926
37030SOL    HW213533   3.215   6.861   8.022 -0.2470  0.0666 -0.0514
37031SOL     OW13534   8.711   8.861   5.261 -0.1131 -0.0739 -0.0836
37031SOL    HW113535   8.764   8.789   5.296  0.2487  0.8047  1.2320
37031SOL    HW213536   8.769   8.906   5.200  0.2913  0.2303  0.5224
37032SOL     OW13537   3.746   4.294   6.748  0.4139 -0.2999 -0.0385
37032SOL    HW113538   3.772   4.216   6.797  0.9722 -0.4551 -0.5742
37032SOL    HW213539   3.812   4.303   6.679  0.5703  0.8621  0.2403
37033SOL     OW13540   5.894   4.961   8.410  0.4414 -0.2991  0.6238
37033SOL    HW113541   5.974   5.000   8.376 -0.2687  0.8047  0.1520
37033SOL    HW213542   5.911   4.867   8.412  1.6818 -0.0876  0.3904
37034SOL     OW13543   9.013   6.405   8.238 -0.4189 -0.2943 -0.3838
37034SOL    HW113544   9.057   6.324   8.212  0.4380 -0.1922  0.6941
37034SOL    HW213545   9.069   6.443   8.306  0.3141  2.2866 -2.2517
37035SOL     OW13546   6.369   9.992   7.999  0.1372 -0.2481  0.4099
37035SOL    HW113547   6.411  10.049   8.064  0.6168  0.1396 -0.2268
37035SOL    HW213548   6.422   9.913   7.999  0.2298 -0.1860  0.3798
37036SOL     OW13549   0.640   4.839   5.821  0.2351  0.6571 -0.3438
37036SOL    HW113550   0.614   4.824   5.912  0.9701  1.5751  0.0356
37036SOL    HW213551   0.559   4.828   5.771 -0.0201 -0.6531  0.3109
37037SOL     OW13552  10.060   1.945   7.191 -0.1600 -0.3139 -0.2433
37037SOL    HW113553  10.089   1.855   7.174  0.7345  0.0323 -0.5614
37037SOL    HW213554   9.980   1.954   7.140 -0.1906 -0.8868 -0.3087
37038SOL     OW13555   8.816   6.932   6.947  0.1374  0.2594 -0.2431
37038SOL    HW113556   8.793   6.882   6.869 -1.6941  1.3256 -0.4452
37038SOL    HW213557   8.739   6.926   7.003  0.2798  1.8999  0.1895
37039SOL     OW13558   7.561   5.818   1.727 -0.3996 -0.3311 -0.4484
37039SOL    HW113559   7.545   5.780   1.640  0.5384  0.5498 -1.0382
37039SOL    HW213560   7.643   5.777   1.756 -1.2572 -1.4263  0.5232
37040SOL     OW13561   6.818   1.859   4.739  0.0792  0.3217  0.6423
37040SOL    HW113562   6.873   1.936   4.754 -0.0615  0.2690  1.4770
37040SOL    HW213563   6.879   1.786   4.734  0.1744  0.4204  0.3399
37041SOL     OW13564   4.605   1.828   0.920 -0.2134  0.4751  0.0917
37041SOL    HW113565   4.603   1.924   0.930  1.6496  0.5006  0.5937
37041SOL    HW213566   4.598   1.814   0.825 -1.7533  1.0162  0.0882
37042SOL     OW13567   1.817   6.695   5.205  0.1543 -0.1743 -0.3875
37042SOL    HW113568   1.805   6.601   5.194  0.2619 -0.6087  2.5117
37042SOL    HW213569   1.838   6.707   5.298  0.1302  2.7222 -0.6412
37043SOL     OW13570   8.634   3.900   1.904 -0.2631 -0.3941  0.1030
37043SOL    HW113571   8.563   3.913   1.841  0.3323 -0.3141 -0.5689
37043SOL    HW213572   8.625   3.809   1.932 -0.5583 -0.4192 -0.0677
37044SOL     OW13573   5.841   8.897   9.605  0.5789 -0.4287 -0.4279
37044SOL    HW113574   5.829   8.928   9.695  0.5251 -0.3511 -0.4616
37044SOL    HW213575   5.872   8.807   9.615 -0.9309 -0.9709 -0.3363
37045SOL     OW13576   2.330   4.318   6.642  0.6908 -0.1986 -0.0384
37045SOL    HW113577   2.368   4.239   6.680  1.2400 -0.3909 -0.9725
37045SOL    HW213578   2.340   4.308   6.548 -2.0182 -0.4269 -0.3911
37046SOL     OW13579   6.330   4.044   8.790 -0.0590 -0.0139 -0.5866
37046SOL    HW113580   6.378   4.126   8.778  1.0965 -0.5401  0.2529
37046SOL    HW213581   6.373   4.003   8.865  0.8271 -2.3963 -2.2874
37047SOL     OW13582   7.170   0.895   1.417  0.0180 -0.1212 -0.1480
37047SOL    HW113583   7.138   0.808   1.440 -1.4296  0.7598  1.3878
37047SOL    HW213584   7.092   0.945   1.394  0.8276  0.7647 -1.0935
37048SOL     OW13585   2.356   9.599   5.950  0.6692  0.2601  0.0017
37048SOL    HW113586   2.330   9.678   5.902  0.4206  0.9307  1.2150
37048SOL    HW213587   2.288   9.534   5.928 -0.8787  1.3264  1.3811
37049SOL     OW13588   6.180   3.899   4.148 -0.2882  0.0769 -0.0567
37049SOL    HW113589   6.259   3.944   4.119 -0.2941  1.3636  1.7592
37049SOL    HW213590   6.128   3.967   4.191 -0.6009 -1.4740  2.1981
37050SOL     OW13591   3.735   4.722   5.562  0.0396 -0.4015 -0.7071
37050SOL    HW113592   3.664   4.785   5.563  1.0776  0.9106  2.1729
37050SOL    HW213593   3.805   4.763   5.511 -0.0304 -0.1153 -0.5722
37051SOL     OW13594   4.193   8.926   6.248 -0.2461 -0.4199  0.1201
37051SOL    HW113595   4.126   8.982   6.209 -0.7223 -0.6429  0.6114
37051SOL    HW213596   4.239   8.984   6.310 -0.4110 -0.4372  0.2598
37052SOL     OW13597   6.179   9.494   3.029 -0.3945  0.5158  0.0984
37052SOL    HW113598   6.207   9.526   2.943 -0.9211  1.3906  0.2386
37052SOL    HW213599   6.124   9.418   3.009  1.4097 -0.7686 -0.2078
37053SOL     OW13600   3.135   8.778   4.980 -0.5516 -0.3984 -0.1658
37053SOL    HW113601   3.172   8.743   5.062  0.2918 -0.3023 -0.4873
37053SOL    HW213602   3.074   8.846   5.008 -1.6575 -1.5984  0.4392
37054SOL     OW13603   0.518  10.121   4.850 -0.2009 -0.2887  0.1162
37054SOL    HW113604   0.610  10.097   4.859 -0.1631  0.0891  0.8418
37054SOL    HW213605   0.479  10.102   4.936 -0.9195 -0.9412 -0.3464
37055SOL     OW13606   8.439   7.661   0.405 -0.4799 -0.2166  0.0837
37055SOL    HW113607   8.396   7.722   0.344 -0.7701 -1.0908 -0.6004
37055SOL    HW213608   8.375   7.592   0.419  0.7333 -1.6504 -1.1203
37056SOL     OW13609   5.295   4.734   1.416 -0.2892  0.2758  0.2794
37056SOL    HW113610   5.327   4.645   1.436  0.2076  0.6398  1.1795
37056SOL    HW213611   5.205   4.734   1.448 -1.1078 -0.6030 -1.8255
37057SOL     OW13612   8.483   7.827   2.834 -0.0734 -0.3502  0.3098
37057SOL    HW113613   8.436   7.874   2.765 -1.5538  0.0954  1.5556
37057SOL    HW213614   8.425   7.832   2.910  1.9272  0.0344  1.8938
37058SOL     OW13615   1.955   5.128   7.730  0.4004 -0.5130 -0.3814
37058SOL    HW113616   1.908   5.142   7.647  0.4026  1.6465 -0.0695
37058SOL    HW213617   2.047   5.122   7.704  0.4941  1.0350 -0.4959
37059SOL     OW13618   3.545   6.461   0.471  0.2057 -0.6173 -0.1761
37059SOL    HW113619   3.544   6.504   0.556 -2.8780 -2.1378  0.6720
37059SOL    HW213620   3.563   6.532   0.409  2.1070  0.5900  1.6169
37060SOL     OW13621   7.687   7.216   7.856 -0.5323  0.6315 -0.1356
37060SOL    HW113622   7.622   7.242   7.921 -0.0848 -0.0820  0.6201
37060SOL    HW213623   7.693   7.291   7.797 -1.2286  1.1433  0.4216
37061SOL     OW13624   6.537   9.466   9.810 -0.0593  0.2434 -0.2277
37061SOL    HW113625   6.513   9.464   9.717  1.5737  2.2324 -0.7683
37061SOL    HW213626   6.536   9.558   9.833  0.5012 -0.1449  1.4809
37062SOL     OW13627   1.136   6.042   9.469 -0.2445 -0.8496  0.0549
37062SOL    HW113628   1.065   6.061   9.408  0.3258 -0.6711 -0.5569
37062SOL    HW213629   1.205   6.004   9.415 -0.2950 -2.1047  0.8135
37063SOL     OW13630   5.793   5.812   2.809  0.5134 -0.2150  0.3939
37063SOL    HW113631   5.859   5.754   2.771  0.7734  0.9354 -0.9799
37063SOL    HW213632   5.843   5.875   2.861  0.3971 -0.1422  0.4177
37064SOL     OW13633   4.398   4.207   9.376  0.0987 -0.0335  0.2970
37064SOL    HW113634   4.430   4.297   9.374  0.0432  0.0056  0.9651
37064SOL    HW213635   4.473   4.155   9.404  0.4453 -0.3488 -1.1580
37065SOL     OW13636   1.134   3.272   5.998  0.4223 -0.4725 -0.0052
37065SOL    HW113637   1.164   3.275   6.089  0.0233  0.3954  0.1097
37065SOL    HW213638   1.085   3.353   5.987  0.3483 -0.6417 -0.9588
37066SOL     OW13639   5.189   9.314   6.094  0.6972  0.2993 -0.6376
37066SOL    HW113640   5.199   9.408   6.105 -3.1855  0.5780  3.6152
37066SOL    HW213641   5.246   9.276   6.161  0.6664 -0.2526 -0.9151
37067SOL     OW13642   1.605   5.503   7.345 -0.0730 -0.1609  0.0603
37067SOL    HW113643   1.656   5.481   7.266  0.4413 -0.1984  0.3967
37067SOL    HW213644   1.558   5.583   7.321 -1.0923 -0.9846 -0.7946
37068SOL     OW13645   8.668   0.121   1.371 -0.4538  0.2314  0.3645
37068SOL    HW113646   8.624   0.143   1.289  1.0255  1.0096 -0.2619
37068SOL    HW213647   8.759   0.103   1.346 -0.1852 -0.4657  1.7162
37069SOL     OW13648   4.009   6.448   2.576  0.0179  0.4324  0.6814
37069SOL    HW113649   3.957   6.368   2.571  0.7598 -0.0439 -3.5998
37069SOL    HW213650   4.095   6.419   2.606  0.0083 -0.2707  0.0712
37070SOL     OW13651   8.607   8.666   9.981  0.4234 -0.3896  0.2874
37070SOL    HW113652   8.562   8.604   9.924  0.3076  1.0358 -1.2738
37070SOL    HW213653   8.620   8.619  10.063  0.3406 -2.4425 -0.8120
37071SOL     OW13654   6.730   0.636   6.305 -0.5240  0.1188  0.0519
37071SOL    HW113655   6.678   0.685   6.369  1.6852  1.5696  0.8592
37071SOL    HW213656   6.812   0.617   6.350  1.0143  0.9589 -2.2215
37072SOL     OW13657   3.052   7.573  10.259  0.1178 -0.3807  0.4316
37072SOL    HW113658   3.042   7.616  10.344  1.6592 -0.9456  0.9311
37072SOL    HW213659   2.986   7.503  10.260  0.5018 -0.7442  1.4058
37073SOL     OW13660   7.626   2.740   2.603  0.0661  0.4596  0.5348
37073SOL    HW113661   7.611   2.809   2.668 -0.5926 -0.8482  1.8530
37073SOL    HW213662   7.538   2.712   2.577  0.2298 -1.1288  1.4793
37074SOL     OW13663   5.184   5.349   5.121  0.3040  0.7466  0.2878
37074SOL    HW113664   5.186   5.425   5.062  1.0921 -0.3447 -1.1338
37074SOL    HW213665   5.094   5.317   5.115 -0.1090  1.6722  1.0968
37075SOL     OW13666   7.239   7.205   7.388 -0.5388  0.1308  0.5224
37075SOL    HW113667   7.180   7.187   7.462 -1.0574  1.0228  0.3446
37075SOL    HW213668   7.188   7.183   7.310 -0.3655  0.1844  0.3929
37076SOL     OW13669   0.873   2.178   8.515 -0.0009 -0.1279  0.3533
37076SOL    HW113670   0.898   2.093   8.553 -0.9583  0.0564  1.4613
37076SOL    HW213671   0.931   2.241   8.557 -0.9975  0.0641  1.5018
37077SOL     OW13672   6.714   3.220   9.189  0.3182  0.2467  0.4416
37077SOL    HW113673   6.694   3.194   9.279 -0.3199  0.8992  0.4962
37077SOL    HW213674   6.755   3.142   9.150 -1.5141 -0.8722  0.6094
37078SOL     OW13675   5.836   0.674   2.325  0.3166  0.1012 -0.1934
37078SOL    HW113676   5.813   0.595   2.277  0.1032  0.5535 -0.8378
37078SOL    HW213677   5.868   0.641   2.410  0.7997 -0.6977 -0.6719
37079SOL     OW13678   1.560   4.650   9.812  0.1393  0.3131  0.0218
37079SOL    HW113679   1.512   4.597   9.749  0.4640  1.0110 -0.8356
37079SOL    HW213680   1.648   4.613   9.813 -0.7869 -2.2247  3.0432
37080SOL     OW13681   6.010   4.680   2.274 -0.4358  1.0605 -0.4298
37080SOL    HW113682   6.001   4.623   2.198 -2.1681 -0.8289  1.0730
37080SOL    HW213683   6.094   4.723   2.262  1.5773 -2.6503 -1.1592
37081SOL     OW13684   4.293   1.471   3.829  0.0758  0.0038 -0.4715
37081SOL    HW113685   4.263   1.455   3.918  2.3807  1.3736  0.6419
37081SOL    HW213686   4.270   1.392   3.781 -0.4785 -1.1180  1.5317
37082SOL     OW13687   7.408   8.523   2.161  0.7637 -0.1036  0.9003
37082SOL    HW113688   7.328   8.560   2.199 -0.5638 -0.4405 -1.3884
37082SOL    HW213689   7.418   8.439   2.204 -1.1089 -0.8001  0.0891
37083SOL     OW13690  10.200   2.233   6.213 -0.3638 -0.1652 -0.3396
37083SOL    HW113691  10.142   2.178   6.265 -0.1477  1.6451  1.9713
37083SOL    HW213692  10.240   2.173   6.150 -2.3942 -2.0292  0.0133
37084SOL     OW13693   6.474   6.773   0.425  0.4786 -0.0212 -0.2837
37084SOL    HW113694   6.528   6.789   0.502 -0.6511 -1.6784  0.9431
37084SOL    HW213695   6.522   6.706   0.375 -0.3927 -1.5174  0.8221
37085SOL     OW13696   6.417   9.046   1.099 -0.3027 -0.3095  0.7563
37085SOL    HW113697   6.438   9.137   1.078 -1.2871 -0.0463  0.8378
37085SOL    HW213698   6.393   9.007   1.015  0.9047 -0.7306  0.5912
37086SOL     OW13699   3.869   9.509   0.352 -0.6529 -0.5469 -0.5059
37086SOL    HW113700   3.841   9.418   0.346  1.1527 -1.4130  2.0333
37086SOL    HW213701   3.789   9.558   0.370 -1.7106 -1.5154 -2.2847
37087SOL     OW13702   9.718   3.120   9.614  0.2087  0.2994  0.4670
37087SOL    HW113703   9.631   3.130   9.575  0.0080 -0.0006  0.8335
37087SOL    HW213704   9.735   3.203   9.657 -0.4686 -0.0911  1.5294
37088SOL     OW13705   9.406   2.688  10.228 -0.1712  0.0570  0.0535
37088SOL    HW113706   9.311   2.695  10.237 -0.0718  0.8348  0.5876
37088SOL    HW213707   9.437   2.657  10.313  0.2574  2.1695  0.7363
37089SOL     OW13708   6.652   7.663   3.808  0.2137  0.3712 -0.0222
37089SOL    HW113709   6.722   7.724   3.785 -1.2220  2.0811 -0.0927
37089SOL    HW213710   6.677   7.580   3.768  2.2238  0.9123  0.0425
37090SOL     OW13711   2.474   3.193   5.335  0.2075  0.3961  0.4270
37090SOL    HW113712   2.418   3.246   5.391  0.8318  0.3026  1.1617
37090SOL    HW213713   2.437   3.105   5.341 -0.1160  0.5145  0.1695
37091SOL     OW13714   2.923   5.986   3.689  0.4586  0.3913  0.1691
37091SOL    HW113715   2.854   5.920   3.678 -0.0289  0.8269  0.5772
37091SOL    HW213716   2.876   6.068   3.705  1.0668  0.6069  0.9327
37092SOL     OW13717   8.356   6.183   5.149  0.1758  0.3244 -0.1975
37092SOL    HW113718   8.447   6.164   5.127  0.3762 -0.2165  1.0521
37092SOL    HW213719   8.358   6.215   5.239 -0.8306  0.6766 -0.2811
37093SOL     OW13720   1.882   9.816   3.439  0.3012 -0.0492 -0.0877
37093SOL    HW113721   1.789   9.830   3.456  0.3720  0.1675  0.1286
37093SOL    HW213722   1.920   9.801   3.525  0.1109 -2.3696 -0.3580
37094SOL     OW13723   2.038   2.656  10.255 -0.0219  0.0721 -0.2049
37094SOL    HW113724   2.096   2.714  10.207  1.2984 -1.5141 -0.6469
37094SOL    HW213725   1.995   2.603  10.188  1.1065 -1.4923  0.2199
37095SOL     OW13726   7.149   3.656   7.807 -0.4076  0.6121  0.7052
37095SOL    HW113727   7.104   3.735   7.777  2.6127  1.9966 -0.5305
37095SOL    HW213728   7.214   3.687   7.870  0.5877 -0.9201  0.4887
37096SOL     OW13729   5.113  10.352   7.099  0.5340  0.3300  0.2288
37096SOL    HW113730   5.065  10.309   7.169 -0.0973  3.4873  1.9144
37096SOL    HW213731   5.202  10.362   7.133  1.1077 -0.9364 -0.7984
37097SOL     OW13732   5.318   8.567   3.491  0.4988 -0.1216 -0.2456
37097SOL    HW113733   5.335   8.507   3.419  0.0029 -0.8273  0.2026
37097SOL    HW213734   5.243   8.529   3.537 -0.2759  1.2149 -0.3448
37098SOL     OW13735   9.237   8.450   5.882  0.9875 -0.0995  0.1420
37098SOL    HW113736   9.290   8.444   5.961  0.7147  1.0530  0.4415
37098SOL    HW213737   9.220   8.360   5.856 -1.2593 -0.5980  2.9573
37099SOL     OW13738   5.752   3.888   2.832  0.3214  0.0401  0.3992
37099SOL    HW113739   5.754   3.982   2.851  0.0998  0.1871 -0.2570
37099SOL    HW213740   5.716   3.848   2.911  4.3952 -0.0027  2.4795
37100SOL     OW13741   4.239   8.902   0.673 -0.3699  0.1736  0.1653
37100SOL    HW113742   4.313   8.926   0.729 -0.0788  1.4178 -0.6927
37100SOL    HW213743   4.241   8.806   0.670  0.4017  0.1442  1.2059
37101SOL     OW13744   4.817   7.133   0.214 -0.1270  0.0898 -0.0922
37101SOL    HW113745   4.860   7.213   0.183 -1.2486  0.8896  0.3307
37101SOL    HW213746   4.797   7.084   0.135  0.1837  0.4384 -0.3911
37102SOL     OW13747  10.305   9.822   7.179 -0.6401  0.6385  0.0084
37102SOL    HW113748  10.319   9.893   7.241 -0.1246  0.9377 -0.4452
37102SOL    HW213749  10.381   9.765   7.190 -2.1610 -1.1734  2.0931
37103SOL     OW13750   2.756   4.448   0.447 -0.6041  0.5284  0.2142
37103SOL    HW113751   2.777   4.540   0.432 -1.9072  0.8811  0.4008
37103SOL    HW213752   2.781   4.404   0.366  0.4560  0.9670  0.2939
37104SOL     OW13753   8.317  10.346   2.547 -0.2952 -0.1196 -0.4742
37104SOL    HW113754   8.289  10.412   2.611 -0.0619  0.6517 -1.1488
37104SOL    HW213755   8.403  10.317   2.579 -1.1465 -1.4091  0.7860
37105SOL     OW13756   4.535   7.890   7.093  0.1573  0.3979  0.3451
37105SOL    HW113757   4.469   7.852   7.035  0.9769  1.1344 -1.1396
37105SOL    HW213758   4.493   7.966   7.132 -0.5134 -0.2972  1.0039
37106SOL     OW13759   9.797   9.613   8.409 -0.7407 -0.2016  0.2742
37106SOL    HW113760   9.753   9.651   8.485 -0.8047 -0.2914  0.2827
37106SOL    HW213761   9.727   9.592   8.348 -0.9547 -2.2790  1.1441
37107SOL     OW13762   4.936   5.640   3.959 -0.1486 -0.1746 -0.0855
37107SOL    HW113763   4.900   5.566   3.910  0.5809 -1.3872  1.1727
37107SOL    HW213764   4.889   5.639   4.042  0.4757  0.2465  0.2738
37108SOL     OW13765  10.190   4.571   4.987 -0.3320 -0.2344 -0.0403
37108SOL    HW113766  10.204   4.662   4.963  0.7284 -0.2089  0.6101
37108SOL    HW213767  10.132   4.537   4.919 -0.2142  0.7488 -0.6512
37109SOL     OW13768   0.227   4.434   3.196 -0.3541  0.0390 -0.1236
37109SOL    HW113769   0.312   4.397   3.218 -0.5554 -0.6249 -0.4201
37109SOL    HW213770   0.240   4.529   3.197  1.0188 -0.0601 -2.5900
37110SOL     OW13771   8.306   6.753   8.623 -0.2429 -0.9133 -0.1128
37110SOL    HW113772   8.367   6.806   8.573  0.5423 -0.9593  0.7734
37110SOL    HW213773   8.231   6.811   8.639  1.3898  0.6705  2.4843
37111SOL     OW13774   5.733   1.141   7.946  0.0889 -0.2963 -0.2175
37111SOL    HW113775   5.643   1.116   7.927  0.2153 -0.0859 -1.1410
37111SOL    HW213776   5.750   1.104   8.032 -0.6424 -0.9672 -0.3484
37112SOL     OW13777   0.262   3.980   3.200  0.2273  0.3575  0.2051
37112SOL    HW113778   0.167   3.973   3.212  0.3113 -0.1980  0.5611
37112SOL    HW213779   0.295   4.009   3.285  0.4351  0.0311  0.2359
37113SOL     OW13780   4.245  10.396   1.548  0.1210  0.6955  0.1318
37113SOL    HW113781   4.164  10.398   1.599  0.2241  1.5723  0.2844
37113SOL    HW213782   4.307  10.445   1.601  0.8824 -0.3139  0.2067
37114SOL     OW13783   1.109   1.770   8.969 -0.5538  0.0428 -0.3434
37114SOL    HW113784   1.149   1.699   9.019 -0.2571 -1.5802 -2.7000
37114SOL    HW213785   1.182   1.827   8.945 -0.5016  0.1289  0.0281
37115SOL     OW13786   9.303   1.035   3.092 -0.1291  0.3219 -0.3528
37115SOL    HW113787   9.211   1.011   3.101  0.1958 -1.0384 -0.3435
37115SOL    HW213788   9.319   1.096   3.163 -0.6148 -0.7821  0.7482
37116SOL     OW13789   8.045   8.554   9.194  0.7021  0.1149  0.2866
37116SOL    HW113790   7.954   8.528   9.206  0.9246 -1.1088 -0.4266
37116SOL    HW213791   8.050   8.643   9.227 -0.7990  0.2727  0.1346
37117SOL     OW13792   8.649   4.662   7.949  0.5539  0.0508  0.0435
37117SOL    HW113793   8.654   4.603   8.024 -0.9109 -0.6889 -0.4019
37117SOL    HW213794   8.687   4.612   7.877  0.1386 -0.0076 -0.1370
37118SOL     OW13795   3.361   6.520   1.354  0.1284  0.2123 -0.0501
37118SOL    HW113796   3.440   6.553   1.311  0.0396 -0.5189 -0.8019
37118SOL    HW213797   3.384   6.514   1.447  0.3331  1.8010  0.0273
37119SOL     OW13798   4.914   5.545   5.226  0.1769  0.1111 -0.2781
37119SOL    HW113799   4.917   5.451   5.212  0.9866 -0.1922  1.6422
37119SOL    HW213800   4.926   5.583   5.139 -1.7993 -1.5246 -1.3207
37120SOL     OW13801   5.498   6.830   4.000  0.4284 -0.0479  0.5466
37120SOL    HW113802   5.474   6.909   4.048  0.2908  0.1761  0.1210
37120SOL    HW213803   5.470   6.758   4.056 -0.4388  0.2098  0.4709
37121SOL     OW13804   3.584   2.935   9.663  1.1219 -0.3181  0.1632
37121SOL    HW113805   3.668   2.967   9.699  2.2515 -0.8638 -1.8564
37121SOL    HW213806   3.539   3.014   9.634  0.7576  0.0106  1.5532
37122SOL     OW13807   8.538   5.338   5.490 -0.2628  0.0848 -0.3752
37122SOL    HW113808   8.488   5.258   5.471  1.9492 -1.4425 -0.2695
37122SOL    HW213809   8.477   5.409   5.473 -2.4204 -1.6177 -0.2724
37123SOL     OW13810   8.415   1.360   0.812  0.1809  1.0720 -0.4137
37123SOL    HW113811   8.492   1.354   0.755 -0.1256  0.2095 -0.7479
37123SOL    HW213812   8.414   1.452   0.840  1.2674  1.1263 -0.4865
37124SOL     OW13813   7.242   3.035   8.456 -0.1533  0.0486  0.4910
37124SOL    HW113814   7.262   3.079   8.373  2.6766 -2.7969 -0.5407
37124SOL    HW213815   7.147   3.030   8.458 -0.3447  0.8908 -2.2441
37125SOL     OW13816   9.015   9.949   9.275 -0.2247 -0.0669 -0.0352
37125SOL    HW113817   8.999   9.949   9.369 -0.0071  1.7243  0.0257
37125SOL    HW213818   9.019   9.856   9.252  2.4547 -0.6145  2.1696
37126SOL     OW13819   9.084   0.711   7.591 -0.0148  0.1579 -0.0446
37126SOL    HW113820   9.134   0.645   7.543 -0.7465 -0.2803 -0.2138
37126SOL    HW213821   9.056   0.667   7.671  0.2638  0.5489  0.2744
37127SOL     OW13822   7.773   5.949   8.581 -0.8939 -0.0157  0.0043
37127SOL    HW113823   7.725   5.978   8.503 -0.3235 -1.6911 -1.0162
37127SOL    HW213824   7.856   5.995   8.576 -1.2958  0.7572  0.2653
37128SOL     OW13825   4.757   2.509   2.135  0.1372  0.4690  0.6463
37128SOL    HW113826   4.735   2.529   2.226  0.9284 -0.4157  1.0551
37128SOL    HW213827   4.675   2.477   2.097  0.6360 -3.3104  2.2954
37129SOL     OW13828   5.792   7.773   7.219 -0.0750 -0.0615 -0.3923
37129SOL    HW113829   5.791   7.813   7.306  0.8686 -0.0793 -0.3637
37129SOL    HW213830   5.771   7.844   7.159  1.7651  0.5402 -0.3609
37130SOL     OW13831   7.142   1.478   2.285  0.1505  0.3637 -0.2235
37130SOL    HW113832   7.118   1.451   2.374  0.1915  0.2871 -0.2355
37130SOL    HW213833   7.097   1.562   2.272 -1.5925 -0.6197 -0.9057
37131SOL     OW13834   1.508   2.764   5.538  0.2886  0.0685  0.2538
37131SOL    HW113835   1.463   2.689   5.578  0.4861 -0.4269 -0.4257
37131SOL    HW213836   1.582   2.725   5.492  0.7557  0.7577  0.4164
37132SOL     OW13837   2.414   7.180   0.637 -0.9004 -0.6504  0.5779
37132SOL    HW113838   2.444   7.106   0.691  1.1392 -1.9165 -2.0680
37132SOL    HW213839   2.482   7.246   0.649  0.4581 -1.5636 -1.5231
37133SOL     OW13840   0.597   6.169   5.356 -0.1126 -0.1413  0.0292
37133SOL    HW113841   0.539   6.131   5.290 -0.8090 -1.0004  1.0772
37133SOL    HW213842   0.576   6.120   5.436  2.0811 -0.4857  0.4547
37134SOL     OW13843   0.401  10.143   4.123  0.2433  0.1958  0.0759
37134SOL    HW113844   0.417  10.179   4.210 -1.9852 -0.7469  0.9264
37134SOL    HW213845   0.348  10.210   4.079 -2.0378 -0.9613  0.9015
37135SOL     OW13846   6.678   9.414   6.580  0.0291  0.2002  0.1956
37135SOL    HW113847   6.618   9.347   6.613  0.7723  0.4665  2.2311
37135SOL    HW213848   6.748   9.364   6.537  0.1833 -0.3347  1.0278
37136SOL     OW13849   8.567   8.169   4.099 -0.1631 -0.4448  0.4256
37136SOL    HW113850   8.629   8.105   4.065 -1.0083 -1.0075 -0.1042
37136SOL    HW213851   8.605   8.254   4.077  1.5152 -0.6953  2.0880
37137SOL     OW13852   8.906   1.439   9.143  0.0154  0.1977 -0.1077
37137SOL    HW113853   8.925   1.454   9.050  1.0484  2.0755  0.3734
37137SOL    HW213854   8.855   1.515   9.170  2.1218  1.1182  1.5148
37138SOL     OW13855   9.672  10.268   8.751 -0.2357  0.0366 -0.1612
37138SOL    HW113856   9.697  10.276   8.843 -0.5238  2.0686 -0.2238
37138SOL    HW213857   9.665  10.173   8.737  0.0779 -0.3330  1.8220
37139SOL     OW13858   3.362   0.259   8.416  0.0306 -0.3429 -0.3356
37139SOL    HW113859   3.378   0.341   8.464 -1.3008 -0.7571  0.8875
37139SOL    HW213860   3.413   0.193   8.463  0.9864 -0.2706 -1.2333
37140SOL     OW13861   4.480   2.005   8.815  0.3225 -0.3907  0.1271
37140SOL    HW113862   4.510   1.973   8.901  1.1507  0.4955  0.1919
37140SOL    HW213863   4.486   1.929   8.758 -1.9911 -1.4870  1.2278
37141SOL     OW13864   6.114   6.224   6.254 -0.4068  0.2882 -0.2670
37141SOL    HW113865   6.120   6.250   6.346  1.0712 -0.2360 -0.1849
37141SOL    HW213866   6.195   6.257   6.215 -1.3505  1.1812 -1.5802
37142SOL     OW13867   0.888   0.970   6.096  0.8032 -0.2583 -0.3378
37142SOL    HW113868   0.818   0.914   6.062 -0.5873  1.3806 -0.2974
37142SOL    HW213869   0.911   1.025   6.021 -0.3443  1.4871  0.5263
37143SOL     OW13870   3.613   7.475   1.219  0.3648 -0.3634  0.6884
37143SOL    HW113871   3.599   7.386   1.185 -2.4464  0.9343 -2.1197
37143SOL    HW213872   3.569   7.475   1.304 -0.3932 -1.4580  0.3257
37144SOL     OW13873   7.187   4.425   5.914 -0.5502 -0.6412  0.4989
37144SOL    HW113874   7.236   4.389   5.988 -0.2741  0.7680  1.0383
37144SOL    HW213875   7.098   4.435   5.946 -0.2657  0.6890  0.9207
37145SOL     OW13876   4.806   1.678   3.723 -0.2344 -0.2483 -0.0741
37145SOL    HW113877   4.743   1.639   3.784  0.1488  2.0937  1.9637
37145SOL    HW213878   4.891   1.665   3.764  0.0475  1.2394 -0.1264
37146SOL     OW13879   5.412   9.065   0.916 -0.3212  0.1318 -0.0785
37146SOL    HW113880   5.469   8.989   0.930  0.6008  1.1882  2.6342
37146SOL    HW213881   5.330   9.041   0.959 -0.5126  0.1694 -0.4169
37147SOL     OW13882   9.435   6.205   9.668  0.2666  0.0862  0.0458
37147SOL    HW113883   9.474   6.292   9.668 -0.2128  0.3162 -0.7365
37147SOL    HW213884   9.480   6.158   9.738  0.1721  1.1143  0.8166
37148SOL     OW13885   0.170   5.726   6.006 -0.1865  0.3333 -0.1740
37148SOL    HW113886   0.081   5.716   5.973  0.0669 -1.6748 -0.3558
37148SOL    HW213887   0.174   5.667   6.081  0.8243  0.8518  0.1887
37149SOL     OW13888   6.057  10.287   8.241 -0.5253 -0.4688 -0.0403
37149SOL    HW113889   6.093  10.328   8.162 -0.4286 -0.4846 -0.0040
37149SOL    HW213890   6.117  10.214   8.259 -0.7764 -0.7126 -0.1852
37150SOL     OW13891   0.688   0.458   4.243 -0.3388 -0.7968  0.0978
37150SOL    HW113892   0.751   0.454   4.171 -0.9532  0.8687 -0.5885
37150SOL    HW213893   0.738   0.496   4.315 -0.3285 -0.2414 -0.1935
37151SOL     OW13894   2.589   0.656   1.041 -0.2715  0.0944  0.9763
37151SOL    HW113895   2.606   0.706   1.120 -1.4865 -1.3126  2.1874
37151SOL    HW213896   2.496   0.670   1.023  0.3550  1.8807 -1.3210
37152SOL     OW13897   5.731  10.402   1.718 -0.6437 -0.0596 -0.5664
37152SOL    HW113898   5.810  10.360   1.753 -0.9508  0.4825  0.8597
37152SOL    HW213899   5.716  10.358   1.635  0.3641 -1.1503 -0.2136
37153SOL     OW13900   5.817   4.006   2.582  0.4418 -0.3334 -0.4041
37153SOL    HW113901   5.788   3.966   2.664  0.4658  2.0774  0.8545
37153SOL    HW213902   5.876   3.942   2.543  2.1023 -0.7289  2.5028
37154SOL     OW13903   4.701   2.326   1.651  0.4219  0.6625 -0.1144
37154SOL    HW113904   4.692   2.293   1.562  1.4520  0.7622 -0.2681
37154SOL    HW213905   4.795   2.322   1.669  0.1343 -0.3139  1.3479
37155SOL     OW13906   5.310   6.188   4.817 -0.3375  0.4731 -0.2716
37155SOL    HW113907   5.285   6.175   4.908 -0.0944  1.0817 -0.1101
37155SOL    HW213908   5.242   6.245   4.781  0.5429  1.7795  0.0521
37156SOL     OW13909   5.350   0.665   6.443 -0.3431 -0.1279 -0.3722
37156SOL    HW113910   5.312   0.588   6.485 -2.1554  1.0433  0.2350
37156SOL    HW213911   5.419   0.694   6.502 -2.7131  1.3821  1.8793
37157SOL     OW13912   6.637   0.850   3.227  0.2121  0.1933 -0.0345
37157SOL    HW113913   6.595   0.885   3.149 -0.0266 -0.5844 -0.2598
37157SOL    HW213914   6.624   0.918   3.294 -0.0531  0.6233 -0.5163
37158SOL     OW13915   9.869   2.301   2.139 -0.5027  0.0866  0.0999
37158SOL    HW113916   9.881   2.320   2.046 -0.4822  1.2971  0.3362
37158SOL    HW213917   9.868   2.386   2.181 -1.7389 -0.3762  1.0831
37159SOL     OW13918   0.745   2.172   1.904 -0.2915  0.5683  0.3443
37159SOL    HW113919   0.700   2.252   1.874  0.1646  0.7933  0.2599
37159SOL    HW213920   0.676   2.105   1.902 -0.5488  0.8364 -0.1111
37160SOL     OW13921   2.620  10.285   8.984  0.3800 -0.2308  0.5401
37160SOL    HW113922   2.569  10.231   9.045  0.2174 -0.9708 -0.2233
37160SOL    HW213923   2.708  10.285   9.020  1.1446 -3.5623 -0.9450
37161SOL     OW13924   7.906   5.354   9.726 -0.0521 -0.1314 -1.1843
37161SOL    HW113925   7.827   5.323   9.770  0.3439 -1.5482 -1.3954
37161SOL    HW213926   7.950   5.409   9.790  0.0769 -1.4450 -0.0877
37162SOL     OW13927   7.933   2.575  10.121  0.4876 -0.2540 -0.0073
37162SOL    HW113928   7.963   2.666  10.115  0.0312 -0.1084 -0.1535
37162SOL    HW213929   8.013   2.524  10.136  0.7131  0.1969  0.3409
37163SOL     OW13930   3.977   1.055   6.451  0.0286 -0.4674  0.5431
37163SOL    HW113931   3.922   1.000   6.396  0.4722  0.3298 -0.7337
37163SOL    HW213932   4.059   1.005   6.460  0.2683 -0.2304 -0.2459
37164SOL     OW13933   9.357   4.494   0.085 -0.5276 -0.1511 -0.5802
37164SOL    HW113934   9.329   4.462   0.171  1.3983  0.4956  0.3491
37164SOL    HW213935   9.322   4.583   0.079 -0.0802  0.0580 -0.1442
37165SOL     OW13936   1.983   5.356   5.706  0.4245 -0.0420  0.3376
37165SOL    HW113937   2.060   5.389   5.661 -0.7724  2.5745  0.0157
37165SOL    HW213938   1.982   5.402   5.790 -0.2706 -0.7826  0.7585
37166SOL     OW13939   8.793   0.634   4.867  0.0590 -0.0205 -0.8830
37166SOL    HW113940   8.760   0.712   4.823 -0.0000 -0.3758 -1.4753
37166SOL    HW213941   8.888   0.637   4.856  0.0653  0.0210 -0.8193
37167SOL     OW13942   4.702   3.287   0.959  0.5148 -0.2222 -0.1101
37167SOL    HW113943   4.708   3.192   0.945  2.7735 -0.1997  0.4374
37167SOL    HW213944   4.688   3.323   0.871 -1.3951 -1.0791 -0.2104
37168SOL     OW13945   2.423   0.209   7.360  0.1023 -0.6272 -0.1548
37168SOL    HW113946   2.491   0.263   7.400  1.3424 -1.6201 -0.8797
37168SOL    HW213947   2.461   0.179   7.278 -1.5845 -0.4023 -1.0646
37169SOL     OW13948   5.655   2.022   5.883  0.0883  0.7624 -0.1274
37169SOL    HW113949   5.734   1.968   5.884  0.8702  1.7815 -1.6392
37169SOL    HW213950   5.589   1.966   5.841  0.1443  0.1060  0.6297
37170SOL     OW13951   2.619   0.607   8.370 -0.3782 -0.2386 -0.2044
37170SOL    HW113952   2.559   0.654   8.427  0.0954 -1.1352  1.0805
37170SOL    HW213953   2.563   0.547   8.320 -0.5994 -1.0685  0.9834
37171SOL     OW13954   2.007   4.018   8.385 -0.0335  0.1029  0.0497
37171SOL    HW113955   2.029   3.927   8.361  0.3212  0.1862  0.0494
37171SOL    HW213956   2.092   4.061   8.396 -0.1611  0.0506  1.5432
37172SOL     OW13957   9.083   6.172   8.110 -0.0508  0.3026  0.0802
37172SOL    HW113958   9.023   6.205   8.043 -0.8059  0.0686  0.6234
37172SOL    HW213959   9.044   6.088   8.138  0.2607  0.3867  0.7873
37173SOL     OW13960   9.649   5.715   9.437  0.2058 -0.3504  0.0456
37173SOL    HW113961   9.558   5.684   9.434  0.5485 -1.3880  0.0303
37173SOL    HW213962   9.666   5.745   9.348 -0.4091  0.7382  0.2757
37174SOL     OW13963   3.670   2.322   7.488 -0.3301 -0.1827 -0.1409
37174SOL    HW113964   3.682   2.297   7.396  0.2001  1.3883 -0.5266
37174SOL    HW213965   3.640   2.413   7.485 -0.1841 -0.0606  1.2441
37175SOL     OW13966   9.481   1.370   4.966  0.2804  0.0229 -0.0443
37175SOL    HW113967   9.417   1.320   5.016 -0.8745  0.9182 -0.5686
37175SOL    HW213968   9.541   1.304   4.930 -0.8205 -0.9119 -0.2019
37176SOL     OW13969   2.077   4.256   0.954  0.2975 -0.3282  0.4504
37176SOL    HW113970   2.067   4.183   0.893 -1.1465 -1.3322  1.8058
37176SOL    HW213971   2.144   4.312   0.914 -0.2917 -1.1426 -1.8163
37177SOL     OW13972   4.980   9.275   0.466  0.0187 -0.3773  0.1319
37177SOL    HW113973   4.929   9.194   0.473  0.2522 -0.5813 -0.4487
37177SOL    HW213974   5.051   9.263   0.530 -0.8523  0.0679  1.2050
37178SOL     OW13975   8.352   6.947   0.709  0.0310  0.4790  0.7209
37178SOL    HW113976   8.333   6.920   0.619 -0.3697 -0.0518  0.9624
37178SOL    HW213977   8.358   6.866   0.758  1.7965  0.6902  0.8945
37179SOL     OW13978   4.746   8.339   5.416 -0.6515 -0.4673  0.1674
37179SOL    HW113979   4.741   8.428   5.380 -0.2521 -0.4845  0.0597
37179SOL    HW213980   4.837   8.330   5.442  0.4286 -2.2719 -3.5652
37180SOL     OW13981   5.455   1.314   7.004 -0.3475  0.1860 -0.0541
37180SOL    HW113982   5.538   1.360   6.997 -0.3825  0.2670  0.0641
37180SOL    HW213983   5.477   1.222   6.990 -0.4714  0.3749 -1.7291
37181SOL     OW13984   8.142   2.089   7.354 -0.0630  0.2874 -0.3503
37181SOL    HW113985   8.171   2.169   7.311 -1.8984  0.5927 -1.1195
37181SOL    HW213986   8.132   2.026   7.282 -0.3553 -0.0932  0.0207
37182SOL     OW13987   2.475   4.885   8.788  0.0915  0.7955  0.5259
37182SOL    HW113988   2.515   4.969   8.763 -0.1986  0.6735 -0.3566
37182SOL    HW213989   2.543   4.840   8.838  0.3488  1.4380  0.7667
37183SOL     OW13990   8.252   0.102   3.546 -0.0989 -0.2543  0.3214
37183SOL    HW113991   8.316   0.086   3.476  0.5765  1.0988  0.5949
37183SOL    HW213992   8.201   0.177   3.515 -0.2136 -0.0475  0.9947
37184SOL     OW13993   1.923   7.732   5.243  0.0931 -0.1034  0.3946
37184SOL    HW113994   1.961   7.745   5.156  1.1129 -0.4650  0.7621
37184SOL    HW213995   1.832   7.760   5.234  0.0688 -0.5022 -0.8893
37185SOL     OW13996   9.649   9.385   2.975  0.8032 -0.4773  0.2936
37185SOL    HW113997   9.651   9.436   3.056  1.0146 -0.2268  0.1324
37185SOL    HW213998   9.727   9.413   2.927  0.0340  0.2751 -0.5462
37186SOL     OW13999   4.877   5.664   7.832  0.1014 -0.0299  0.1578
37186SOL    HW114000   4.810   5.664   7.764  0.7570  1.0862 -0.5239
37186SOL    HW214001   4.928   5.585   7.816 -1.2296 -1.0918  0.9089
37187SOL     OW14002   7.625   3.032   8.216 -0.3113 -0.3293  0.5648
37187SOL    HW114003   7.680   3.098   8.258 -0.9922 -0.4887  1.7316
37187SOL    HW214004   7.560   3.009   8.282 -1.2464 -0.7840 -0.4850
37188SOL     OW14005   8.566   3.330   6.396  0.6257 -0.5481  0.5736
37188SOL    HW114006   8.558   3.308   6.489  0.1254 -1.0592  0.4146
37188SOL    HW214007   8.541   3.422   6.391 -1.2259 -1.0074  0.6896
37189SOL     OW14008   1.807   1.878   2.080  0.2614 -0.9247  0.3063
37189SOL    HW114009   1.818   1.945   2.148  0.0958 -0.8496  0.2592
37189SOL    HW214010   1.860   1.805   2.110 -0.8263 -1.3862  1.1725
37190SOL     OW14011   9.886   4.653   9.335  0.5302 -0.3335 -0.9552
37190SOL    HW114012   9.922   4.663   9.423  0.0847  1.7218 -0.9461
37190SOL    HW214013   9.812   4.715   9.332  0.3706 -0.5464 -2.6742
37191SOL     OW14014   5.541   4.203   9.327  0.3130  0.1282  0.2407
37191SOL    HW114015   5.490   4.259   9.387  0.5113  0.8337 -0.2437
37191SOL    HW214016   5.560   4.259   9.252  1.6876 -0.1786  0.3445
37192SOL     OW14017   5.439   2.047   3.930  0.0383  0.0796 -0.2881
37192SOL    HW114018   5.500   2.062   4.002  1.9536  2.4706 -2.2316
37192SOL    HW214019   5.361   2.097   3.954 -0.4039 -1.2681  1.2448
37193SOL     OW14020  10.283   2.582   9.025  0.0280 -0.5339  0.0019
37193SOL    HW114021  10.344   2.511   9.046  0.7119 -0.0016 -0.1580
37193SOL    HW214022  10.268   2.627   9.107  3.7339  2.3659 -0.6825
37194SOL     OW14023   7.020   0.784   2.703 -0.4170 -0.0097  0.2175
37194SOL    HW114024   6.950   0.820   2.758  1.2599  1.4097  1.5600
37194SOL    HW214025   7.061   0.861   2.663  0.6282 -0.7669 -0.2078
37195SOL     OW14026   2.084   8.428   1.259 -0.2914 -0.1428  0.1703
37195SOL    HW114027   2.110   8.461   1.345 -0.3484  0.9416 -0.2221
37195SOL    HW214028   2.013   8.485   1.232 -1.0395 -1.1771 -0.1192
37196SOL     OW14029   2.443   1.406   7.620 -0.4725 -0.0071 -0.1946
37196SOL    HW114030   2.501   1.335   7.593  1.2974  1.3945 -0.2429
37196SOL    HW214031   2.502   1.478   7.643 -2.2083  2.2803 -2.3595
37197SOL     OW14032   5.590   8.155   5.135  0.0627  0.2215  0.0179
37197SOL    HW114033   5.514   8.168   5.078  0.5080 -0.0742 -0.6583
37197SOL    HW214034   5.657   8.120   5.077  0.3238 -0.7068  0.8635
37198SOL     OW14035   6.596   9.346   5.676 -0.1514  0.4694 -0.2492
37198SOL    HW114036   6.516   9.300   5.702  0.5675 -0.7226 -0.0697
37198SOL    HW214037   6.565   9.427   5.634 -1.6608 -1.6392 -3.6630
37199SOL     OW14038   1.679   6.339  10.046 -0.1467 -0.0548 -0.3523
37199SOL    HW114039   1.592   6.305  10.067 -0.2466  0.2886 -0.2146
37199SOL    HW214040   1.700   6.299   9.961 -0.1056 -0.7527 -0.0198
37200SOL     OW14041   8.508   5.041   8.508 -0.4042  0.0250  0.0192
37200SOL    HW114042   8.522   5.085   8.592  0.0196 -1.8110  0.9714
37200SOL    HW214043   8.452   4.966   8.529 -1.7077  0.4780 -1.6638
37201SOL     OW14044   5.723   0.358   2.472  0.1032  0.1184  0.4638
37201SOL    HW114045   5.810   0.380   2.506  0.0141  0.3344  0.5532
37201SOL    HW214046   5.665   0.426   2.508  0.2501  1.2650 -1.3177
37202SOL     OW14047   1.750  10.158   8.286 -0.0750 -0.3939 -0.1437
37202SOL    HW114048   1.795  10.240   8.305 -0.8997  0.2499 -0.8548
37202SOL    HW214049   1.796  10.122   8.210  0.6142 -0.8697  0.4845
37203SOL     OW14050   9.912   8.725   7.387  0.2757  0.0667 -0.2848
37203SOL    HW114051   9.906   8.630   7.399 -0.3104  0.3616  2.3933
37203SOL    HW214052   9.838   8.760   7.437  1.2548  2.0173 -0.1164
37204SOL     OW14053   3.036   1.763   8.632 -0.0277  0.0320 -0.1006
37204SOL    HW114054   2.999   1.736   8.716  1.5078  0.3398  0.7201
37204SOL    HW214055   3.069   1.682   8.593 -1.0223 -0.1573 -0.5664
37205SOL     OW14056   7.018   3.267   0.288 -0.0375  0.1162  0.6237
37205SOL    HW114057   7.050   3.181   0.314 -0.4359  0.0346  0.8590
37205SOL    HW214058   6.941   3.281   0.344  0.1335  0.7009  0.7150
37206SOL     OW14059   0.772   5.446   0.667 -0.1153 -0.7495 -0.4339
37206SOL    HW114060   0.748   5.455   0.575 -1.0166  0.6706 -0.1007
37206SOL    HW214061   0.698   5.484   0.715  0.2755 -1.5941  0.8812
37207SOL     OW14062   7.683   7.700   8.732  0.4575  0.2950 -0.4624
37207SOL    HW114063   7.725   7.683   8.816  0.1195 -0.6947 -0.4862
37207SOL    HW214064   7.666   7.794   8.733  0.8623  0.3691  0.3856
37208SOL     OW14065   8.456   4.950   0.679 -0.6902 -0.0043  0.0255
37208SOL    HW114066   8.396   4.941   0.753 -0.1630 -0.8774  0.3584
37208SOL    HW214067   8.503   5.032   0.696  0.8247 -1.1523  1.7130
37209SOL     OW14068   5.742   7.731   5.530 -0.0637 -0.5656  0.0400
37209SOL    HW114069   5.822   7.769   5.567 -0.0899 -0.7738  0.3131
37209SOL    HW214070   5.766   7.709   5.440 -0.2663  0.7689 -0.3617
37210SOL     OW14071   7.107   6.571   9.518 -0.2764  0.0875  0.0823
37210SOL    HW114072   7.152   6.641   9.471 -2.4452  0.7684 -1.1380
37210SOL    HW214073   7.104   6.601   9.609  0.5163  0.6514 -0.0669
37211SOL     OW14074   5.268   2.686   6.922  0.0242  0.1561  0.1037
37211SOL    HW114075   5.270   2.750   6.993  1.2464 -1.2746  1.4465
37211SOL    HW214076   5.196   2.627   6.945 -0.6031  0.5794 -0.7194
37212SOL     OW14077   3.693   2.733   5.666 -0.0011  0.3760  0.1434
37212SOL    HW114078   3.701   2.781   5.583 -2.5693 -0.3508 -0.5900
37212SOL    HW214079   3.670   2.644   5.640  0.5846 -0.2474  1.6399
37213SOL     OW14080   5.595   3.917   6.925 -0.1117 -0.1226  0.2005
37213SOL    HW114081   5.595   3.949   6.835 -1.0947  2.0582  0.9080
37213SOL    HW214082   5.505   3.926   6.955  0.5430  1.1111  1.9984
37214SOL     OW14083   0.198   9.215   4.686  0.2359 -0.2116 -0.0743
37214SOL    HW114084   0.155   9.133   4.713 -1.6906  0.7527 -0.0307
37214SOL    HW214085   0.228   9.198   4.597 -1.2119 -0.6103 -0.5109
37215SOL     OW14086   4.308   2.472   6.886 -0.1902  0.5151  0.2238
37215SOL    HW114087   4.319   2.502   6.976 -0.7097  0.4515  0.3111
37215SOL    HW214088   4.236   2.525   6.852  1.0831  1.7293 -0.6915
37216SOL     OW14089  10.177   6.827   6.109 -0.1347 -0.3703 -0.0286
37216SOL    HW114090  10.159   6.918   6.135  1.1660 -0.4596  1.3535
37216SOL    HW214091  10.272   6.824   6.096 -0.3367 -1.2082 -1.4953
37217SOL     OW14092   0.182   6.187   6.278 -0.2779 -0.0284 -0.5065
37217SOL    HW114093   0.111   6.202   6.340 -1.7131  1.1284 -2.3080
37217SOL    HW214094   0.259   6.228   6.319 -0.5319 -1.4244  1.5393
37218SOL     OW14095   6.827   8.854   0.002  0.3310 -0.0657  0.1244
37218SOL    HW114096   6.910   8.862   0.050 -0.3577 -0.6466  1.4889
37218SOL    HW214097   6.819   8.936  -0.047  1.6055  0.0787  0.1278
37219SOL     OW14098   3.409   1.765   5.842  0.3611  0.5809  0.0995
37219SOL    HW114099   3.363   1.692   5.883  1.1519 -0.6343 -1.0788
37219SOL    HW214100   3.465   1.800   5.911 -0.9812  0.9522  1.0477
37220SOL     OW14101   9.256   7.753   5.799 -0.3520 -0.0989  0.6298
37220SOL    HW114102   9.170   7.714   5.812  0.1477 -1.4746  0.0064
37220SOL    HW214103   9.285   7.721   5.714  0.8303  0.2313  0.8766
37221SOL     OW14104   7.024   9.448   2.799  0.0057 -0.1615 -0.9193
37221SOL    HW114105   7.025   9.478   2.709 -0.3132 -0.2901 -0.9661
37221SOL    HW214106   7.099   9.389   2.806 -0.8615 -1.3890 -1.5336
37222SOL     OW14107   3.364  10.147   3.015  0.6028 -0.2617  0.0830
37222SOL    HW114108   3.379  10.131   2.921  1.1293 -1.6100  0.3707
37222SOL    HW214109   3.451  10.138   3.054  0.0748 -1.9937  0.9837
37223SOL     OW14110   6.628   8.481   5.603 -0.3393  0.2674  0.2694
37223SOL    HW114111   6.585   8.510   5.523 -0.2377 -0.6779 -0.1360
37223SOL    HW214112   6.666   8.561   5.640  0.8300  0.5121 -1.3523
37224SOL     OW14113   5.725   9.839   0.655  0.1083 -0.0039  0.6159
37224SOL    HW114114   5.795   9.897   0.684 -0.0047  0.6836 -0.4369
37224SOL    HW214115   5.757   9.799   0.575 -0.7745  0.4883 -0.0042
37225SOL     OW14116   5.472   4.249   6.449 -0.4940  0.5745 -0.0632
37225SOL    HW114117   5.390   4.217   6.486  0.5920  0.3464  2.3546
37225SOL    HW214118   5.479   4.206   6.364 -1.7338 -1.3109  0.7157
37226SOL     OW14119   3.137   1.956   2.257  0.4654  0.0296  0.5663
37226SOL    HW114120   3.185   1.873   2.259  1.6163  0.6675  0.3964
37226SOL    HW214121   3.148   1.988   2.168 -0.4622  0.0934  0.4712
37227SOL     OW14122   4.256   6.346   3.573  0.3966  0.2314 -0.1803
37227SOL    HW114123   4.248   6.437   3.545 -1.4255  0.2089  0.1385
37227SOL    HW214124   4.264   6.351   3.668  1.9349  0.1086 -0.2853
37228SOL     OW14125   5.690   9.390   1.403  0.4841  0.6725  0.2532
37228SOL    HW114126   5.692   9.295   1.393  1.7369  0.7643 -0.5598
37228SOL    HW214127   5.630   9.420   1.335 -0.5998  0.4380  1.0603
37229SOL     OW14128   8.423   9.181   8.661 -0.4740  0.1039 -0.0965
37229SOL    HW114129   8.367   9.110   8.630  1.8636 -1.3779 -1.2031
37229SOL    HW214130   8.448   9.156   8.750  0.9771 -0.9241 -0.7653
37230SOL     OW14131   0.661   6.145   4.018 -0.0481 -0.1253  0.1524
37230SOL    HW114132   0.735   6.153   4.078  1.5925 -0.8597 -1.6459
37230SOL    HW214133   0.585   6.171   4.069  1.4881  1.0112  1.9955
37231SOL     OW14134   4.143   1.860   1.510  0.4922 -0.4593  0.0179
37231SOL    HW114135   4.149   1.820   1.423 -1.3263 -2.3596  0.6832
37231SOL    HW214136   4.195   1.802   1.566 -0.6453 -0.8756  0.6651
37232SOL     OW14137   7.301   4.694   9.051 -0.0817 -0.8891 -0.0269
37232SOL    HW114138   7.207   4.699   9.072 -0.2008  1.3529 -0.7960
37232SOL    HW214139   7.303   4.686   8.955  0.5259 -0.8463 -0.0164
37233SOL     OW14140   6.147   6.688   1.799  0.3461 -0.6119  0.4600
37233SOL    HW114141   6.080   6.744   1.761  0.9865  0.9326  1.4765
37233SOL    HW214142   6.138   6.605   1.754 -1.2885  0.0070 -0.4332
37234SOL     OW14143   5.181   9.098   6.543  0.1062  0.0026  0.2729
37234SOL    HW114144   5.202   9.144   6.462  0.0242  0.1956  0.3597
37234SOL    HW214145   5.113   9.151   6.583  0.4770  0.1593  0.6969
37235SOL     OW14146   5.271   7.420   3.469 -0.0435  0.0935 -0.1812
37235SOL    HW114147   5.332   7.348   3.454  0.9467  1.3670 -2.6988
37235SOL    HW214148   5.216   7.421   3.391 -1.3353  0.8737  0.7075
37236SOL     OW14149   1.784   4.726  10.018  0.9029  0.0939  0.5653
37236SOL    HW114150   1.806   4.684   9.934 -2.3938 -0.3382 -0.2088
37236SOL    HW214151   1.765   4.653  10.076 -2.1776  0.3191  0.0010
37237SOL     OW14152   1.913   4.593   1.599  0.6778 -0.1161 -0.4391
37237SOL    HW114153   1.856   4.651   1.548  1.8437  2.0005  0.5251
37237SOL    HW214154   2.001   4.615   1.572  1.1534 -1.7207 -0.2714
37238SOL     OW14155   3.211   3.166   7.051  0.0766 -0.3801  0.0823
37238SOL    HW114156   3.117   3.149   7.059  0.3450 -1.2502  2.1018
37238SOL    HW214157   3.251   3.079   7.054  0.9617 -0.0194 -0.8284
37239SOL     OW14158   4.425   0.523   4.941 -0.2353 -0.3641  0.0094
37239SOL    HW114159   4.410   0.436   4.905  1.7997 -0.1186 -1.6187
37239SOL    HW214160   4.469   0.508   5.024  0.7947 -0.9020 -0.6223
37240SOL     OW14161   4.352   7.484   3.054 -0.0789 -0.0534 -0.2540
37240SOL    HW114162   4.376   7.546   3.123  1.0328 -1.7291  0.9359
37240SOL    HW214163   4.397   7.517   2.976 -0.1674  1.0592  0.1457
37241SOL     OW14164   1.745   0.020   0.002  0.0049 -0.1208 -0.2106
37241SOL    HW114165   1.696   0.069   0.067 -1.3043  1.1516 -2.0354
37241SOL    HW214166   1.709  -0.069   0.006 -1.3134  0.3785 -0.3596
37242SOL     OW14167   0.011   3.275   5.320 -0.1420  0.8065 -0.0550
37242SOL    HW114168   0.063   3.210   5.368 -0.3618  0.1477 -0.6718
37242SOL    HW214169  -0.072   3.230   5.302 -0.2079  1.1695 -0.7011
37243SOL     OW14170   7.453   5.835   5.040  0.2207  0.6221 -0.0794
37243SOL    HW114171   7.384   5.807   4.980  0.3276 -1.1700  0.5627
37243SOL    HW214172   7.513   5.887   4.986 -0.1608 -0.1740 -1.3007
37244SOL     OW14173   5.884   5.976   6.259 -0.1609  0.1741  0.0790
37244SOL    HW114174   5.967   5.968   6.307  0.5131 -0.2664 -1.1028
37244SOL    HW214175   5.844   6.056   6.293  1.5643  1.3322 -0.5018
37245SOL     OW14176   5.035   8.450   8.991 -0.2722 -0.4770  0.7554
37245SOL    HW114177   4.964   8.435   8.928 -0.8835 -0.4322  1.4300
37245SOL    HW214178   4.991   8.473   9.072  0.5348  0.3535  0.9740
37246SOL     OW14179   2.739   7.763   0.972 -0.3887 -0.0940 -0.1122
37246SOL    HW114180   2.777   7.837   0.924 -0.4275 -0.3110 -0.4774
37246SOL    HW214181   2.767   7.686   0.923  0.1428 -0.3593  0.6020
37247SOL     OW14182   4.260   0.107   5.773 -0.2649  0.1742 -0.3837
37247SOL    HW114183   4.224   0.193   5.751  0.0850  0.4931  0.2741
37247SOL    HW214184   4.256   0.103   5.868  1.2006  0.1123 -0.3064
37248SOL     OW14185   2.820   6.044   0.692  0.0614 -0.0307  0.3443
37248SOL    HW114186   2.846   6.091   0.613  3.2905 -0.3892  1.0587
37248SOL    HW214187   2.881   5.970   0.697 -1.9993 -1.7799  1.6219
37249SOL     OW14188   4.309   7.231   4.049 -0.1408 -0.0727  0.2273
37249SOL    HW114189   4.273   7.144   4.033  0.4596 -0.7292  2.1220
37249SOL    HW214190   4.232   7.284   4.071 -0.4996 -0.1188 -0.8566
37250SOL     OW14191   3.333   4.230   6.225 -0.1566  0.6234 -0.5336
37250SOL    HW114192   3.279   4.302   6.258 -0.2104  0.2818  0.1291
37250SOL    HW214193   3.270   4.168   6.189 -0.1781  0.4558 -0.2115
37251SOL     OW14194   7.348   2.822   8.806 -0.0665  0.0203 -0.5749
37251SOL    HW114195   7.311   2.768   8.875 -0.5040 -0.0399 -0.8548
37251SOL    HW214196   7.349   2.765   8.729  0.7436 -0.0252 -0.5351
37252SOL     OW14197   4.937   4.754   5.426  0.3276  0.4444 -0.3385
37252SOL    HW114198   4.944   4.806   5.505  0.3777  0.1629 -0.1562
37252SOL    HW214199   4.916   4.666   5.457  2.6151 -0.2078 -0.4812
37253SOL     OW14200   2.171   9.507   1.987  0.3345 -0.1433  0.1654
37253SOL    HW114201   2.216   9.425   1.970  0.3520 -0.1774  0.3811
37253SOL    HW214202   2.241   9.570   2.003  0.3577  0.1157 -0.8691
37254SOL     OW14203   7.456   3.741   8.475  0.4093  0.4515 -0.0808
37254SOL    HW114204   7.414   3.656   8.460 -0.0237  0.7924 -0.8737
37254SOL    HW214205   7.545   3.719   8.501  0.6367 -0.2352 -1.3641
37255SOL     OW14206   9.486   8.447   9.796  0.1917 -0.1240  0.3777
37255SOL    HW114207   9.494   8.542   9.786  1.0293 -0.1487  0.6626
37255SOL    HW214208   9.427   8.420   9.726  0.8237  0.4762 -0.4081
37256SOL     OW14209   4.621   4.090   7.419 -0.2880  0.4172  0.1577
37256SOL    HW114210   4.590   4.170   7.460  0.7486  1.1215 -0.3841
37256SOL    HW214211   4.716   4.091   7.432  0.0156  0.4038 -1.7308
37257SOL     OW14212   6.828   5.156   2.889 -0.6175 -0.0232  0.1662
37257SOL    HW114213   6.886   5.232   2.889 -1.6973  0.8361  0.1401
37257SOL    HW214214   6.765   5.174   2.819 -0.2201 -1.4893 -0.5955
37258SOL     OW14215   0.820   4.056   1.088  0.7636 -0.2533 -0.1560
37258SOL    HW114216   0.804   3.993   1.158  3.1241 -0.7658 -0.0029
37258SOL    HW214217   0.735   4.065   1.044 -0.7191 -0.1483  2.5206
37259SOL     OW14218   7.252   0.533   5.787 -0.0753  0.3447  0.1297
37259SOL    HW114219   7.193   0.481   5.843 -0.1309  1.5731  1.2668
37259SOL    HW214220   7.247   0.490   5.702 -0.6239 -1.1178  0.8467
37260SOL     OW14221   2.180   3.966   4.789  0.3704  0.4728 -0.2110
37260SOL    HW114222   2.235   3.902   4.744 -0.6916  0.2413 -1.2191
37260SOL    HW214223   2.231   4.047   4.787  1.2822 -0.0764  0.1563
37261SOL     OW14224   0.964   2.242   1.576 -0.4019 -0.8751  0.6685
37261SOL    HW114225   0.950   2.326   1.534  0.2685 -1.9058 -1.8309
37261SOL    HW214226   0.877   2.213   1.603 -0.7114  0.3302  1.0128
37262SOL     OW14227  10.014   9.988   3.812 -0.2583 -0.1651  0.7403
37262SOL    HW114228   9.961   9.940   3.875 -0.4186 -0.2855  0.5125
37262SOL    HW214229  10.027  10.074   3.853 -0.0219 -0.3754  1.1195
37263SOL     OW14230   8.727   0.918   2.477  0.3273 -0.4069  0.2009
37263SOL    HW114231   8.760   0.831   2.455 -0.2049 -0.4412 -0.4775
37263SOL    HW214232   8.768   0.977   2.413  1.0389 -0.0769  0.9312
37264SOL     OW14233   1.760   2.198   6.713 -0.6781  0.1148 -0.2219
37264SOL    HW114234   1.838   2.145   6.732 -0.9834 -0.8991 -1.6381
37264SOL    HW214235   1.688   2.135   6.714 -1.4281  0.9567  0.5225
37265SOL     OW14236   6.943  10.240   1.993  0.6226  0.0274 -0.0518
37265SOL    HW114237   6.995  10.307   2.037 -1.0478  0.9525  0.5641
37265SOL    HW214238   6.887  10.288   1.933 -0.8646 -0.7582  0.6610
37266SOL     OW14239   9.540   5.700   1.816  0.3500  0.3037 -0.0290
37266SOL    HW114240   9.471   5.759   1.846 -1.8122 -1.5541 -1.0265
37266SOL    HW214241   9.531   5.622   1.870 -0.5517 -1.2440 -2.2531
37267SOL     OW14242   0.713   6.523   2.119  0.0663 -0.4382  0.3417
37267SOL    HW114243   0.747   6.586   2.056  0.4410 -0.2862  0.6899
37267SOL    HW214244   0.783   6.513   2.183  0.3250 -1.7825 -0.1148
37268SOL     OW14245   9.674   5.598   4.747  0.4813  0.2415  0.4160
37268SOL    HW114246   9.707   5.621   4.660 -0.2157  1.7139  0.5041
37268SOL    HW214247   9.729   5.646   4.808 -0.8699  1.6006  0.6217
37269SOL     OW14248   5.648   5.567   1.803  0.2705 -0.3516 -0.1832
37269SOL    HW114249   5.559   5.563   1.770  0.0587  0.0031  0.3327
37269SOL    HW214250   5.696   5.621   1.741  0.5290 -1.8478 -1.3430
37270SOL     OW14251   3.161  10.476   8.814 -0.2614 -0.6439  0.1493
37270SOL    HW114252   3.249  10.453   8.843 -0.2104 -0.8130 -0.1339
37270SOL    HW214253   3.171  10.499   8.721 -0.2994  0.6311  0.4437
37271SOL     OW14254   8.542   9.705   9.739  0.1220 -0.1212  0.1091
37271SOL    HW114255   8.455   9.728   9.710 -0.4106 -0.5740  1.2532
37271SOL    HW214256   8.571   9.779   9.791 -1.0570 -1.3202  2.6780
37272SOL     OW14257   5.839   3.470   9.173  0.3021  0.3642  0.5598
37272SOL    HW114258   5.892   3.396   9.204  0.7382  0.7705  0.7912
37272SOL    HW214259   5.885   3.500   9.094 -0.9723 -0.8720 -0.7282
37273SOL     OW14260   3.383   3.952   1.757  0.4706 -0.1223 -0.1024
37273SOL    HW114261   3.294   3.942   1.721  0.3259  0.8810 -0.0481
37273SOL    HW214262   3.429   4.003   1.691  1.4289 -1.7529 -0.7639
37274SOL     OW14263   6.319   7.806   4.647  0.1338 -0.2465  0.0147
37274SOL    HW114264   6.383   7.873   4.621  0.6460 -0.9666 -0.6555
37274SOL    HW214265   6.257   7.852   4.703  1.7260  0.3042  1.4191
37275SOL     OW14266   3.993   4.935  10.281  0.2789 -0.2775  0.1359
37275SOL    HW114267   4.038   4.937  10.365 -1.6424 -2.5489  1.3128
37275SOL    HW214268   4.063   4.923  10.217  1.5197 -2.5307  1.7816
37276SOL     OW14269   6.121   4.001   6.859  0.4733 -0.2948  0.6838
37276SOL    HW114270   6.171   4.021   6.780 -1.1761  0.0911 -0.3113
37276SOL    HW214271   6.071   3.923   6.837 -1.5025  0.9191  0.5697
37277SOL     OW14272   5.459   8.964   8.065 -0.2152  0.0380 -0.2962
37277SOL    HW114273   5.484   8.885   8.111 -1.3104  0.6976  1.5287
37277SOL    HW214274   5.520   8.970   7.991  1.4232 -1.2081  0.9042
37278SOL     OW14275  10.431   7.594   6.163 -0.1589 -0.1019 -0.2901
37278SOL    HW114276  10.340   7.568   6.154 -0.1448  0.4018 -2.4536
37278SOL    HW214277  10.467   7.534   6.228 -2.5180  1.1172  2.3612
37279SOL     OW14278   5.728   1.647   4.162  0.8635 -0.4046  0.2879
37279SOL    HW114279   5.787   1.692   4.102 -1.2151  1.9990 -0.1264
37279SOL    HW214280   5.743   1.689   4.246 -1.5817  1.8058 -0.2398
37280SOL     OW14281   8.165   0.219   5.144  0.1536  0.0558 -0.5754
37280SOL    HW114282   8.101   0.158   5.107 -0.0072 -0.8611  1.1468
37280SOL    HW214283   8.146   0.302   5.100 -2.4682 -0.0890  0.1093
37281SOL     OW14284   5.736   4.425   2.920 -0.0950 -0.3385 -0.1582
37281SOL    HW114285   5.771   4.461   2.839 -1.5543 -0.2584 -0.7915
37281SOL    HW214286   5.737   4.497   2.982  1.3589 -0.4912  0.0271
37282SOL     OW14287   1.982   6.167   2.475  0.2143  0.1521 -0.1313
37282SOL    HW114288   1.940   6.201   2.554 -1.4763  1.9969 -1.7033
37282SOL    HW214289   1.910   6.127   2.426  1.3823 -1.6812 -0.4110
37283SOL     OW14290   5.053   4.450   2.230  0.0078  0.4066  0.1249
37283SOL    HW114291   5.062   4.415   2.319 -0.9229 -2.5719 -0.8400
37283SOL    HW214292   5.136   4.430   2.188  0.0402  0.7962 -0.0004
37284SOL     OW14293   0.276  10.219   7.453  0.3498  0.5312 -0.2383
37284SOL    HW114294   0.292  10.248   7.543 -0.5588  1.1906 -0.2711
37284SOL    HW214295   0.361  10.225   7.410  0.7427  0.4465  0.5073
37285SOL     OW14296   3.756   1.368   2.781 -0.0264  0.0507  0.0233
37285SOL    HW114297   3.705   1.308   2.727  1.0137 -0.9300  0.0949
37285SOL    HW214298   3.691   1.410   2.838 -0.5880 -2.9657  1.8334
37286SOL     OW14299   7.245   5.952   1.379  0.6858  0.6298 -0.2515
37286SOL    HW114300   7.191   5.874   1.371  1.1645  0.2040  0.5519
37286SOL    HW214301   7.199   6.019   1.328 -1.8677  0.9668  2.3173
37287SOL     OW14302   5.907   5.404   1.075 -0.5373 -0.1784 -0.9004
37287SOL    HW114303   5.872   5.328   1.028 -1.9451  0.4035 -0.8670
37287SOL    HW214304   5.875   5.479   1.025 -0.6900  0.4192  0.0693
37288SOL     OW14305   2.801   9.347   5.745 -0.2105  0.3750 -0.1305
37288SOL    HW114306   2.803   9.266   5.694 -0.7805 -0.6547  1.4016
37288SOL    HW214307   2.723   9.393   5.715 -0.6987 -0.3500  0.0199
37289SOL     OW14308   5.202   9.155   5.896  0.2072  0.7833 -0.6559
37289SOL    HW114309   5.243   9.085   5.946  1.9653  0.4990 -2.4188
37289SOL    HW214310   5.191   9.226   5.960 -0.2935 -0.5433  0.7955
37290SOL     OW14311   8.343   7.772   9.914  0.4945  0.1849  0.1413
37290SOL    HW114312   8.415   7.726   9.958  0.2752 -0.2072  0.0916
37290SOL    HW214313   8.266   7.753   9.967  0.4382  0.6824  0.2495
37291SOL     OW14314   2.614   8.368   6.139  0.6059  0.0209 -0.2419
37291SOL    HW114315   2.686   8.314   6.174  1.3705  1.1736  0.0265
37291SOL    HW214316   2.634   8.377   6.046  0.3863 -0.2906 -0.3208
37292SOL     OW14317   3.223   4.134   8.601  0.6680 -0.8093  0.2502
37292SOL    HW114318   3.136   4.126   8.639 -0.1324  1.3278 -0.9558
37292SOL    HW214319   3.281   4.147   8.677 -0.8316  2.9560  0.9945
37293SOL     OW14320   8.995   5.181  10.085 -0.6245  0.3528  0.3506
37293SOL    HW114321   8.966   5.095  10.057  0.8845  0.0099 -0.2547
37293SOL    HW214322   8.973   5.239  10.012  1.5004 -0.1836 -0.7997
37294SOL     OW14323  10.074   4.057   9.546  0.1333 -0.4120 -0.2648
37294SOL    HW114324  10.001   4.118   9.537 -0.3106 -0.9959 -0.6578
37294SOL    HW214325  10.082   4.044   9.640  1.1985  1.3970 -0.0615
37295SOL     OW14326   7.584  10.011   1.879  0.2567 -0.2917  1.1387
37295SOL    HW114327   7.616   9.927   1.846  0.6251  0.7384 -1.2978
37295SOL    HW214328   7.624  10.077   1.822 -1.8885  1.4114  1.4472
37296SOL     OW14329   7.326   3.605   9.457  0.0881  0.1090 -0.1527
37296SOL    HW114330   7.419   3.625   9.444  0.5034 -1.2212  0.6077
37296SOL    HW214331   7.293   3.589   9.369  0.6075  0.4282 -0.4124
37297SOL     OW14332   9.705   0.519   6.335 -0.2113  0.3542 -0.1975
37297SOL    HW114333   9.727   0.459   6.406 -1.2322 -0.7043 -0.7261
37297SOL    HW214334   9.784   0.570   6.320  0.2735  0.0203  1.1399
37298SOL     OW14335   8.388   8.731   6.349  0.6992 -0.2722  0.1042
37298SOL    HW114336   8.354   8.657   6.400 -1.5766 -0.4549 -1.5529
37298SOL    HW214337   8.475   8.747   6.387 -1.1427  0.3490  4.7951
37299SOL     OW14338   9.291   1.910   9.072 -0.7615  0.1933 -0.1366
37299SOL    HW114339   9.366   1.929   9.015 -0.5032 -0.3953  0.0059
37299SOL    HW214340   9.324   1.849   9.137 -1.8696 -1.7403 -1.2956
37300SOL     OW14341   3.114   4.885   9.688  0.1366  0.0768 -0.3900
37300SOL    HW114342   3.168   4.922   9.757 -2.2065  1.3981  0.8825
37300SOL    HW214343   3.152   4.800   9.670  2.4605  0.8500  0.5390
37301SOL     OW14344   7.122   8.181   1.183 -0.0875 -0.1379  0.0987
37301SOL    HW114345   7.119   8.186   1.278  2.0565  2.4665  0.1417
37301SOL    HW214346   7.031   8.168   1.157 -0.5632 -2.7329  2.4625
37302SOL     OW14347   4.801  10.251   7.565 -0.2984  0.0117  0.1255
37302SOL    HW114348   4.718  10.297   7.577  0.8382  1.9293  1.2438
37302SOL    HW214349   4.865  10.321   7.551  1.1822 -1.3915 -0.3747
37303SOL     OW14350   0.221   8.443   2.531 -0.1468 -0.2774  0.2404
37303SOL    HW114351   0.277   8.518   2.510 -0.5297 -0.2650 -0.7537
37303SOL    HW214352   0.209   8.398   2.448  1.3924 -2.3865  1.0655
37304SOL     OW14353   4.385   5.328   7.330 -0.3030  0.2361 -0.2290
37304SOL    HW114354   4.393   5.416   7.293 -1.3809  0.7854  0.7915
37304SOL    HW214355   4.462   5.281   7.297  0.7643  1.8117 -0.0571
37305SOL     OW14356   9.478   6.419   1.345  0.2848  0.0607 -0.5653
37305SOL    HW114357   9.569   6.418   1.317 -0.0970  1.6406 -1.9941
37305SOL    HW214358   9.482   6.402   1.440  1.9264 -1.1879 -0.8227
37306SOL     OW14359   1.543   8.554   0.742 -0.2727  0.4390  0.1575
37306SOL    HW114360   1.608   8.550   0.812 -1.4439 -0.0831  1.2693
37306SOL    HW214361   1.499   8.469   0.745  0.4657 -0.0734 -2.0695
37307SOL     OW14362   3.123   6.505   4.826 -0.0555  0.0394 -0.2341
37307SOL    HW114363   3.122   6.461   4.911 -0.3748  0.3731 -0.0657
37307SOL    HW214364   3.208   6.549   4.822  0.1791 -0.4170 -0.3144
37308SOL     OW14365  10.362   1.392   5.200 -0.4051 -0.5818  1.0237
37308SOL    HW114366  10.397   1.320   5.148  0.0421  0.7184 -0.5278
37308SOL    HW214367  10.267   1.382   5.194 -0.3532 -0.4953  0.0417
37309SOL     OW14368   9.333   3.590   9.325 -0.1424  0.0392  0.2520
37309SOL    HW114369   9.270   3.569   9.393  0.0374 -3.8093 -0.5507
37309SOL    HW214370   9.293   3.663   9.277 -2.2789  0.0316  1.8918
37310SOL     OW14371   5.591   4.747   5.151  0.5180  0.1428 -0.1798
37310SOL    HW114372   5.640   4.727   5.231  2.8980  0.1313 -1.5551
37310SOL    HW214373   5.573   4.662   5.112 -2.1511  0.0189  1.0643
37311SOL     OW14374   9.278   6.760   6.506 -0.2040 -0.2018  0.2132
37311SOL    HW114375   9.188   6.761   6.539 -0.1542 -1.5175  0.4368
37311SOL    HW214376   9.315   6.679   6.541  0.6114 -0.4049 -1.0859
37312SOL     OW14377   4.551   6.278   4.627  0.0777  0.0332  0.2641
37312SOL    HW114378   4.529   6.227   4.705  0.0274  0.2234  0.3754
37312SOL    HW214379   4.643   6.257   4.611 -0.2237 -0.9003 -0.3073
37313NA      NA14380   0.462   7.814   8.807  0.2694  0.1430  0.3558
37314NA      NA14381   3.398   5.328   9.699 -0.4854  0.3957  0.5847
37315NA      NA14382   7.625   1.674   8.442  0.1979 -0.1688  0.1920
37316NA      NA14383   5.924   7.102   2.187  0.1744  0.0156 -0.2112
37317NA      NA14384  10.265   7.682   9.602 -0.7097 -0.4384 -0.6065
37318NA      NA14385   0.162   8.913   8.727  0.1231  0.2844  0.1625
37319NA      NA14386   2.967  10.116   8.901 -0.4179 -0.5923 -0.5271
37320NA      NA14387   8.678   5.660   6.330 -0.2228  0.3652 -0.0071
37321NA      NA14388   8.234   2.835   6.953 -0.4272  0.6121 -0.4188
37322NA      NA14389   1.712   2.963   0.010 -0.1852  0.3082  0.2833
37323NA      NA14390   6.507   5.696   7.800  0.2272 -0.0108 -0.0461
37324NA      NA14391   3.566   3.926   0.020  0.1623 -0.1943  0.2637
37325NA      NA14392   0.010   8.148   9.475  0.0683  0.1859 -0.2162
37326NA      NA14393   3.286   8.129   7.417 -0.2804  0.1866  0.4043
37327NA      NA14394   9.857   0.763   7.910 -0.1278 -0.3280  0.0596
37328NA      NA14395   4.358   7.068   5.559 -0.4356 -0.4104 -0.0778
37329NA      NA14396   3.030   7.470   6.830  1.1269 -0.1259  0.3566
37330NA      NA14397   2.509   6.782   8.535 -0.3157 -0.3469  0.4673
37331NA      NA14398   3.622   7.906   1.465  0.3923 -0.2255 -0.0392
37332NA      NA14399   4.699   7.326   8.596 -0.6716 -0.5689  0.1441
37333NA      NA14400   2.780   6.393   9.178  0.5730  0.0076 -0.5550
37334NA      NA14401   0.099   7.792  10.277 -0.7503 -0.7296 -0.0064
37335NA      NA14402   4.774   7.697   8.933 -0.3411  0.0526 -0.3230
37336NA      NA14403   8.408   4.885   0.454  0.1259  0.2663 -0.0342
37337NA      NA14404   6.545   0.022   9.841  0.5096 -0.7546 -0.0664
37338NA      NA14405   0.645   7.047   8.827  0.0495 -0.1828 -0.7717
37339NA      NA14406   1.779   9.861   7.256  0.1448 -0.2541  0.0026
37340NA      NA14407   5.317   7.524   1.840  0.1922  0.0721  0.1807
37341NA      NA14408   1.896   8.326   8.065  0.1674 -0.2702 -0.4166
37342NA      NA14409   4.653   7.926   9.063  0.2592 -0.0004  0.0124
37343NA      NA14410   1.236   6.946   8.339 -0.0123 -0.5587  0.4597
37344NA      NA14411   0.608   7.966   9.003  0.3105  0.4751 -0.7389
37345NA      NA14412  10.284   1.100   7.684  0.0489  0.2966 -0.0428
37346NA      NA14413   5.262   7.431   4.354 -0.3563  0.0590 -0.0036
37347NA      NA14414   2.676   6.735   8.839 -0.3517 -0.1910 -0.4083
37348NA      NA14415   9.304  10.225   1.517 -0.3134 -0.4256 -0.0569
37349NA      NA14416   2.830   8.436   7.390 -0.4345  0.5764  0.3273
37350NA      NA14417   1.162   7.290   8.278 -0.3420  0.1623 -0.2895
37351NA      NA14418   0.629   7.639   8.973  0.1079  0.1406 -0.5604
37352NA      NA14419   1.694   1.595   9.028  0.0373 -0.1365 -0.3375
37353NA      NA14420   1.255   3.392   1.691 -0.3559  0.2575  0.4676
37354NA      NA14421   1.124   6.895   8.841 -0.2614 -0.4658  0.1476
37355NA      NA14422   1.819   4.347   6.899  0.2160  0.5686 -0.2607
37356NA      NA14423   3.379   9.656   1.723  0.1068  0.5816 -0.6619
37357NA      NA14424   1.430   5.231   9.444 -0.0623  0.6859 -0.1791
37358NA      NA14425   1.874   7.958   7.300  0.1667 -0.0720 -0.1687
37359NA      NA14426   4.225  10.323   8.148  0.0512  0.7290 -0.2644
37360NA      NA14427   2.606   7.404   2.584  0.4173  0.1807  0.2959
37361NA      NA14428   1.503  10.346   7.155  0.2641 -0.2532  0.6207
37362NA      NA14429   6.366   6.408   2.401 -0.2355 -0.5680 -0.0147
37363NA      NA14430  10.182   2.972   0.366  0.4658  0.7478 -0.1754
37364NA      NA14431   0.567   1.251   2.231 -0.0043  0.1233 -0.1905
37365NA      NA14432   2.055   7.228   7.815 -0.0968  0.1152  0.3421
37366NA      NA14433   3.696   8.410   0.246  0.5164 -0.2270 -0.5084
37367NA      NA14434   1.671   0.632   4.410  0.1498  0.3391  0.2090
37368NA      NA14435   4.841   6.462   8.994  0.2649 -0.0395 -0.3366
37369NA      NA14436   5.578   8.599   9.616  0.2380  0.1815 -0.0188
37370NA      NA14437   1.550   8.775   8.618 -0.0491 -0.2996 -0.3697
37371NA      NA14438   3.711   2.240   3.684 -0.4768  0.0337  0.2135
37372NA      NA14439   2.015   6.963   7.658  0.3169  0.0113 -0.6514
37373NA      NA14440   3.527   8.419   8.018 -0.0527 -0.3088 -0.4002
37374NA      NA14441   4.084   3.430   2.891 -0.0071 -0.4354  0.3997
37375NA      NA14442   2.115   8.070   8.019  0.6767  0.3874  0.0158
37376NA      NA14443   1.289   9.401   3.372  0.1343  0.0176  0.2858
37377NA      NA14444   0.001   1.817   8.114 -0.3100  0.4239 -0.3298
37378NA      NA14445   1.382   6.864   8.993  0.6312 -0.0334  0.5090
37379NA      NA14446   2.016   9.820   8.433 -0.6623  0.4573  0.2744
37380NA      NA14447   1.394   6.781   8.151 -0.0849  0.0216  0.0547
37381NA      NA14448   7.588  10.396   0.359  0.3438  0.0619  0.0455
37382NA      NA14449   5.454   5.037   8.347  0.2539 -0.3678  0.6783
37383NA      NA14450   0.394   2.610   8.409 -0.2843 -0.2263 -0.1137
37384NA      NA14451   9.065   0.336   3.926  0.2786  0.2855 -0.1601
37385NA      NA14452   4.165   7.804   8.056 -0.2416  0.1157  0.0661
37386NA      NA14453  10.079   1.339   5.469  0.3407 -0.1008  0.0558
37387NA      NA14454  10.431   0.474   4.853  0.1455  0.1770  0.0438
37388NA      NA14455   8.626   5.244   0.049  0.2794 -0.4789  0.5403
37389NA      NA14456   4.646   6.468   9.235  0.0402 -0.2404  0.0867
37390NA      NA14457  10.082   7.040   2.930 -0.1710  0.1769 -0.4647
37391NA      NA14458   3.805   9.713   8.790  0.2491 -0.2372  0.6146
37392NA      NA14459   2.599   8.791  10.191 -0.0642 -0.5656 -0.4178
37393NA      NA14460   4.971   5.353   5.718 -0.4273 -0.1547  0.0582
37394NA      NA14461   0.530   7.312   8.959  0.0845 -0.0366 -0.5438
37395NA      NA14462   0.235   8.022   9.488 -0.6637 -0.3392 -0.2709
37396NA      NA14463   4.008   8.026   8.251  0.5943  0.5716  0.2869
37397NA      NA14464   4.592   9.346   4.374 -0.3799 -0.2762  0.0186
37398NA      NA14465   2.651   8.662   7.308 -0.5460 -0.1963  0.3455
37399NA      NA14466   3.820   7.545   0.826  0.0278  0.4765 -0.0168
37400NA      NA14467   3.529   6.564   8.125  0.2268  0.0302  0.8187
37401NA      NA14468   2.516   6.095   9.736  0.1350 -0.5120  0.1316
37402NA      NA14469   2.233   6.734   8.466 -0.2304 -0.1402 -0.1480
37403NA      NA14470   4.005   8.419   8.481  0.1097  0.7274 -0.3725
37404NA      NA14471   2.075   9.333   7.930 -0.1085 -0.4004  0.0530
37405NA      NA14472   6.679  10.488   5.873 -0.4491 -0.2095  0.3996
37406NA      NA14473   1.535   6.629   8.364  0.3929 -0.2505 -0.4768
37407NA      NA14474   2.006   6.362   8.172 -0.0759 -0.2513 -0.0131
37408NA      NA14475   4.249   9.330   8.657 -0.0520 -0.4768 -0.3219
37409NA      NA14476   5.644   4.158   2.600  0.3174 -0.2503 -0.2730
37410NA      NA14477  10.465   8.015  10.066 -0.2442  0.2044  0.1151
37411NA      NA14478  10.468   7.996   9.730 -0.2370  0.0079 -0.1256
37412NA      NA14479   4.611   6.809   8.481  0.3198  0.0898  0.1939
37413NA      NA14480   5.627   7.262   7.375  0.3530  0.1227 -0.3116
37414NA      NA14481   1.155   4.171   1.271  0.0028 -0.1073 -0.2799
37415NA      NA14482   3.868   1.256   2.224  0.6719 -0.4304  0.4947
37416NA      NA14483   1.743   8.042  10.161  0.0799 -0.4361 -0.1794
37417NA      NA14484   1.639   9.100   9.659  0.4632  0.3506  0.1298
37418NA      NA14485   4.261   7.935   8.334  0.4728  0.2532 -0.2905
37419NA      NA14486   2.334   6.507   8.371  0.2855 -0.5346 -0.0145
37420NA      NA14487   2.365   8.163   8.169 -0.3826  0.2175 -0.3556
37421NA      NA14488   3.340   1.960   1.535 -0.3550  0.0559  0.2174
37422NA      NA14489  10.140   7.764   1.689 -0.2294 -0.0803  0.1372
37423NA      NA14490   1.913   9.378   7.603 -0.3467 -0.1217 -0.1260
37424NA      NA14491   3.484   8.367   7.711  0.0138  0.5801 -0.1720
37425NA      NA14492   3.680   9.827   5.171  0.4811  0.3340  0.4204
37426NA      NA14493   1.659   8.788   9.641  0.0491 -0.5561  0.5727
37427NA      NA14494   2.158   8.682   4.768  0.5269  0.5733  0.6177
37428NA      NA14495   0.813   6.827   8.955  0.2284  0.3726  0.1430
37429NA      NA14496   8.559   7.739   1.554 -0.2407 -0.0262 -0.4196
37430NA      NA14497   1.123   0.707   5.278 -0.1517 -0.4948  0.2093
37431NA      NA14498   6.805   9.238   4.400 -0.3695 -0.3855  0.1347
37432NA      NA14499   4.402   7.040   8.590 -0.3429 -0.1943 -0.1009
37433NA      NA14500   2.693   6.053   9.277 -0.6158 -0.7126  0.4165
37434NA      NA14501   2.866   8.699  10.120 -0.3077  0.6094  0.4558
37435NA      NA14502   3.044   8.590   7.599  0.2212 -0.6495  0.3250
37436NA      NA14503   3.559   0.658   2.370  0.2418 -0.1845 -0.2389
37437NA      NA14504   2.975   8.952  10.001 -0.4569 -0.0864  0.2643
37438NA      NA14505   1.755   7.341   7.028  0.2033 -0.2238 -0.2570
37439NA      NA14506   2.380   9.979   9.645 -0.2051  0.4824 -0.0415
37440NA      NA14507   4.509   7.157   8.798  0.2767 -0.2367  0.4254
37441NA      NA14508   2.133   6.654   8.223  0.0757  0.3598 -0.3443
37442NA      NA14509   2.337   8.434   7.673 -0.1037  0.5262  0.2716
37443NA      NA14510   9.118   3.530   4.924  0.2701  0.2030 -0.8263
37444NA      NA14511   4.387   6.364   5.887 -0.0746 -0.1093 -0.4930
37445NA      NA14512   4.677   6.697   9.970  0.1142  0.1444  0.7420
37446NA      NA14513   2.729   0.529   9.626 -0.1180  0.3057  0.1586
37447NA      NA14514   7.984   5.982   2.413  0.2683 -0.0131 -0.4187
37448NA      NA14515   8.886   7.363   0.385 -0.4912  0.1682  0.2845
37449NA      NA14516   3.104   8.382   7.379  0.1245  0.2249 -0.1058
37450NA      NA14517   2.866   8.967  10.276  0.5296 -0.0679 -0.2654
37451NA      NA14518   2.387  10.167   9.409  0.0096  0.0337 -0.1217
37452NA      NA14519   4.711   6.070   5.195 -0.7117 -0.0621 -0.0718
37453NA      NA14520   4.382   6.226   9.223  0.5951  0.4642 -0.0322
37454NA      NA14521   6.182   0.436   8.563 -0.0376 -0.1725 -0.0947
37455NA      NA14522  10.212   8.330  10.000 -0.1801  0.6435 -0.4457
37456NA      NA14523   6.699  10.106   2.414  0.3240 -0.1961 -0.5019
37457NA      NA14524   4.215   8.687   8.544  0.0550  0.3888 -0.2952
37458NA      NA14525   3.426   8.577   0.394 -0.1228  0.5692  0.1966
37459NA      NA14526   6.072   0.514   7.699  0.0857 -0.4848 -0.4200
37460NA      NA14527   3.760   3.797   7.773  0.1376  0.1661  0.2033
37461NA      NA14528   0.749   7.092   2.027 -0.2545 -0.2445  0.1042
37462NA      NA14529   3.037   1.373   4.220 -0.0527 -0.0361 -0.3660
37463NA      NA14530   9.286  10.429   6.214 -0.2171 -0.3608  0.2951
37464NA      NA14531   1.816   9.127   8.582  0.0657  0.2764  0.6043
37465NA      NA14532   3.837   8.330   7.560  0.1168  0.1733 -0.1750
37466NA      NA14533   1.524   9.066   8.573  0.4398  0.2792  0.5855
37467NA      NA14534   2.637   8.542   7.613  0.0869 -0.1151  0.6958
37468NA      NA14535   4.228  10.175   7.889  0.1689  0.0846  0.2264
37469NA      NA14536   1.503   9.894   3.629  0.2245 -0.0755 -0.2278
37470NA      NA14537   3.840   6.410   8.064  0.1658 -0.2098 -0.4252
37471NA      NA14538   4.073   9.619   8.589  0.0548  0.4654  0.1488
37472NA      NA14539   3.790   9.536   8.554 -0.2049 -0.2436 -0.2134
37473NA      NA14540   5.062   2.065   5.707 -0.4965  0.1203 -0.3257
37474NA      NA14541   2.047   7.509   1.734  0.2241 -0.5439  0.2430
37475NA      NA14542   1.802   2.306   3.315 -0.0590 -0.4861  0.4254
37476NA      NA14543   2.823   7.410   3.552 -0.4505 -0.4634  0.2059
37477NA      NA14544   0.703   7.990   8.700  0.0129  0.1536 -0.0793
37478NA      NA14545   4.219   8.251   8.367 -0.3559  0.4478 -0.2972
37479NA      NA14546   2.820  10.103   8.643  0.2673 -0.0259  0.0468
37480NA      NA14547   0.732   7.763   9.208 -0.4630 -0.2786  0.1653
37481NA      NA14548   1.660   9.050   6.591  0.1011 -0.1538 -0.0192
37482NA      NA14549   4.217   7.038   8.845  0.1414  0.1393 -0.2842
37483NA      NA14550   3.202   8.330   7.636 -0.1422 -0.1892  0.1457
37484NA      NA14551   6.301   3.518   8.654  0.8964 -0.5803  0.4818
37485NA      NA14552   5.985   2.956   2.664 -0.2885  0.4041  0.2292
37486NA      NA14553   4.728   7.015   8.607  0.6669  0.0359 -0.1186
37487NA      NA14554   0.983   7.138   8.759  0.0425 -0.0008 -0.0992
37488NA      NA14555   0.359   6.648   9.800 -0.1858 -0.3750 -0.5038
37489NA      NA14556   4.933   1.088   9.546 -0.0073 -0.0659 -0.1851
37490NA      NA14557   2.261   8.437   7.967 -0.1441 -0.2651 -0.2965
37491NA      NA14558   2.047   6.936   7.957  0.2712  0.5595  0.3668
37492NA      NA14559   4.338   7.360   6.545  0.3291 -0.0216  0.2756
37493NA      NA14560   0.481   1.109   6.992 -0.0632 -0.2248 -0.0427
37494NA      NA14561   1.110   6.843   8.081 -0.0474  0.5751 -0.4718
37495NA      NA14562   1.385   7.185   8.438 -0.2540 -0.3671  0.3657
37496NA      NA14563   8.023   4.063   8.013  0.5046  0.3182 -0.0305
37497NA      NA14564   9.701   2.519   4.010  0.2012  0.2023  0.2050
37498NA      NA14565   5.090   6.546   6.109  0.3477 -0.0144  0.2254
37499NA      NA14566   4.431   7.814   8.015  0.4600 -0.5895 -0.8306
37500NA      NA14567  10.316   1.913   3.045  0.1260  0.2816  0.1613
37501NA      NA14568   8.917   9.634   6.725  0.0769  0.0941 -0.0184
37502NA      NA14569   3.407   6.482   6.565 -0.4235 -0.2372  0.1877
37503NA      NA14570   9.866   8.182   3.433  0.0334 -0.3935 -0.1839
37504NA      NA14571   0.499   7.960   9.370 -0.1339  0.1109  0.5538
37505NA      NA14572   4.115   1.747   0.668 -0.4832 -0.3729 -0.2538
37506NA      NA14573   4.603   7.466   8.861  0.1582 -0.2159 -0.1627
37507NA      NA14574   6.662  10.199   8.286  0.7634  0.1198  0.0859
37508NA      NA14575   6.702  10.266   1.084 -0.4131 -0.1896 -0.1609
37509NA      NA14576   5.422   1.265   9.212 -0.0208 -0.4155  0.2812
37510NA      NA14577   1.178   9.385   8.233 -0.1480 -0.3688  0.0555
37511NA      NA14578   5.568   5.092   1.416  0.1862  0.2933  0.6081
37512NA      NA14579   3.373   8.268   0.273 -0.0839 -0.0205  0.0283
37513NA      NA14580   1.659   1.006   1.495  0.0892 -0.2456  0.3865
37514NA      NA14581   9.354   9.092   8.459  0.2328  0.5492 -0.3275
37515CL      CL14582   3.298   3.395   2.990 -0.2199  0.3111 -0.3294
37516CL      CL14583   1.386  10.275   2.907  0.0939 -0.0467  0.3590
37517CL      CL14584   7.592   1.931   8.876 -0.2802  0.4810 -0.0096
37518CL      CL14585   1.581   8.607   5.191 -0.0115  0.0146 -0.2376
37519CL      CL14586  10.039   0.141   9.222  0.3011  0.0613  0.5907
37520CL      CL14587   1.518   7.274   6.597 -0.2052  0.0720  0.3331
37521CL      CL14588  10.052   7.251   6.975 -0.2647 -0.6538 -0.0077
37522CL      CL14589   6.626   7.483   8.135 -0.2060  0.1222  0.0034
37523CL      CL14590   7.479   7.440   6.787 -0.1714  0.0256 -0.3014
37524CL      CL14591   4.770   1.861   9.400 -0.1571  0.1233  0.1556
37525CL      CL14592   7.919   1.018   0.191  0.4093  0.1094 -0.2516
37526CL      CL14593   1.059   0.141   5.197 -0.3697 -0.0851  0.0298
37527CL      CL14594   9.025   4.397   4.890  0.0958  0.0176  0.0939
37528CL      CL14595   5.276   0.473   8.734  0.6156 -0.2116  0.3386
37529CL      CL14596   3.188   0.252   5.863 -0.0807 -0.2948 -0.1906
37530CL      CL14597   4.831   7.520   3.844 -0.1473 -0.3609 -0.1037
37531CL      CL14598   1.498   9.895   4.291  0.3659 -0.1881 -0.3925
37532CL      CL14599   2.723   8.811   2.983 -0.1072 -0.3376  0.1095
37533CL      CL14600   6.633   7.327   7.245 -0.3984  0.4458 -0.0930
37534CL      CL14601   1.179   9.580   8.639  0.2030 -0.2250 -0.0015
37535CL      CL14602   3.845   1.924   0.992  0.1280  0.0110 -0.0900
37536CL      CL14603   0.738   6.844   7.233  0.1217 -0.0004  0.0568
37537CL      CL14604   3.894   8.434   1.791  0.1165 -0.5082  0.0286
37538CL      CL14605   3.044   9.374   2.392 -0.0549  0.4418 -0.3928
37539CL      CL14606   4.655   8.202   8.507 -0.2732  0.0780  0.1680
37540CL      CL14607   9.505   1.224  10.207  0.1763 -0.1014 -0.1074
37541CL      CL14608   2.684   6.150   8.225  0.1405  0.0470  0.0521
37542CL      CL14609   5.408   7.727   1.934 -0.0853 -0.0064  0.2141
37543CL      CL14610  10.399   0.991   8.582 -0.0521 -0.0854  0.6876
37544CL      CL14611   7.041   5.198   1.223  0.3633 -0.0540  0.0644
37545CL      CL14612   4.183   3.452   4.131  0.5060 -0.2556  0.2310
37546CL      CL14613   9.900   1.816   6.242 -0.1637 -0.1776  0.0528
37547CL      CL14614   8.688   8.962   8.377  0.2733 -0.2823 -0.0896
37548CL      CL14615   1.794   2.888   8.644  0.4417 -0.5267  0.0841
37549CL      CL14616   2.681   9.252   7.091  0.1914  0.1802 -0.0673
37550CL      CL14617   8.539  10.025  10.403  0.5163  0.1803  0.1650
37551CL      CL14618   7.269   0.512   7.348 -0.0063  0.2367  0.2124
37552CL      CL14619   1.506   1.506   9.183  0.2565 -0.2808 -0.2419
37553CL      CL14620   0.431   0.398   4.915  0.1610  0.3032  0.1811
37554CL      CL14621   4.392   7.651   0.851 -0.0271 -0.5948  0.1896
37555CL      CL14622   3.489   3.683   0.463  0.0868 -0.0076 -0.0762
37556CL      CL14623   6.336   1.020   5.282  0.3711 -0.1767  0.3090
37557CL      CL14624   8.845   4.432   0.926 -0.0690 -0.1470  0.7454
37558CL      CL14625   8.732   5.250   2.930 -0.2125 -0.0046  0.4892
37559CL      CL14626   7.637   7.703   1.033  0.2585  0.2210  0.1923
37560CL      CL14627   5.649   6.480   2.022 -0.0991  0.1272 -0.3713
37561CL      CL14628   6.839   8.410   3.190  0.2666  0.0359 -0.5085
37562CL      CL14629   3.344   7.621   4.244  0.0186  0.4468 -0.1278
37563CL      CL14630   9.573   4.811   0.420  0.2652  0.3787 -0.1407
37564CL      CL14631   4.938   6.035   5.272  0.0136  0.1755  0.0926
37565CL      CL14632   7.021   5.268   3.419 -0.3317 -0.2379  0.4276
37566CL      CL14633   0.300   1.481   8.319 -0.3161 -0.1554  0.1330
37567CL      CL14634   3.172  10.262  10.302 -0.1273  0.0339  0.1124
37568CL      CL14635   6.500   0.787   9.845  0.2765 -0.0876 -0.1574
37569CL      CL14636   6.224   8.913   5.622 -0.8136 -0.3384 -0.1704
37570CL      CL14637   0.633   5.358   9.960  0.1537 -0.1313  0.1840
37571CL      CL14638   5.573   1.739  10.167  0.1416 -0.2235  0.1668
37572CL      CL14639   4.877   7.587   5.023 -0.0438  0.1350 -0.1505
37573CL      CL14640   6.343   3.377   3.284  0.0405 -0.4431  0.1414
37574CL      CL14641   5.944   0.288   6.172 -0.3512  0.3332 -0.2030
37575CL      CL14642   3.454   5.473   8.362  0.2525 -0.0829 -0.1733
37576CL      CL14643   8.889   6.351   7.354  0.2231  0.0190  0.3935
37577CL      CL14644   8.463   1.388   9.079  0.2972 -0.5699  0.0080
37578CL      CL14645   6.738   2.059   2.271 -0.3289 -0.3460  0.2425
37579CL      CL14646   1.002   4.495   6.402  0.1334  0.3924  0.0314
37580CL      CL14647   1.979   0.470   8.852 -0.4208  0.0911  0.3368
37581CL      CL14648   1.507   3.344   8.063 -0.4024 -0.0244  0.3242
37582CL      CL14649   2.112   5.445   7.024 -0.0209 -0.1577  0.0629
37583CL      CL14650  10.225   8.172   0.634  0.0485  0.2506  0.0934
37584CL      CL14651   2.245   2.048   7.634 -0.4994 -0.0486  0.4353
37585CL      CL14652   1.236   8.476   8.274  0.2023 -0.2422  0.0316
37586CL      CL14653   0.070   3.345   6.110  0.4746 -0.1755 -0.1096
37587CL      CL14654   3.390   1.023   1.593  0.0664 -0.4775 -0.1407
37588CL      CL14655   3.513   4.889  10.156 -0.3261 -0.0095  0.0791
37589CL      CL14656   7.959   6.298  10.058 -0.0219  0.0556 -0.3048
37590CL      CL14657   6.539   3.003   1.094  0.1363 -0.3406 -0.0284
37591CL      CL14658   0.721   1.606   3.169 -0.7405 -0.0175  0.1164
37592CL      CL14659   9.372   6.571   4.449  0.0759 -0.1742 -0.2808
37593CL      CL14660   5.477   2.865   5.834  0.0907 -0.1190  0.1418
37594CL      CL14661   2.766   2.827   9.270 -0.0879 -0.0885  0.2453
37595CL      CL14662   0.424   8.744  10.455  0.1293  0.0880 -0.1749
37596CL      CL14663   9.977   8.280   9.931 -0.3998 -0.1841 -0.2706
37597CL      CL14664   0.696   8.844   8.502 -0.4077  0.3178  0.0611
37598CL      CL14665   1.536   4.592   5.032  0.0374  0.3073  0.2271
37599CL      CL14666  10.028   6.615   1.633  0.2218  0.2748 -0.1334
37600CL      CL14667   5.354   4.379   2.165 -0.0736 -0.1769  0.2991
37601CL      CL14668   2.525   7.695   1.853 -0.0368  0.3056 -0.0296
37602CL      CL14669   8.869   9.302   3.108 -0.1889  0.0793 -0.0688
37603CL      CL14670   8.520   0.684   7.134  0.1924  0.3629  0.2099
37604CL      CL14671   0.567   1.191   5.249  0.3996  0.1984  0.2678
37605CL      CL14672   9.812   7.721   4.841  0.1987  0.0091 -0.1218
37606CL      CL14673   4.891   8.323   2.878  0.0080  0.2648  0.6215
37607CL      CL14674   8.875   2.926   3.515  0.0449  0.3080 -0.4895
37608CL      CL14675   7.272   7.338   3.255 -0.0108 -0.1818 -0.1872
37609CL      CL14676   4.519   2.659   2.830  0.6083  0.0209  0.1377
37610CL      CL14677   5.585   8.419   4.514 -0.2796 -0.1931  0.1499
37611CL      CL14678   9.269   9.612   7.115  0.2611  0.3477 -0.6032
37612CL      CL14679   2.212   8.022   5.864  0.0947 -0.0603 -0.0148
37613CL      CL14680   9.283   8.376   1.682 -0.1317 -0.1624  0.0630
37614CL      CL14681   8.779   6.179   0.207 -0.4239 -0.3406  0.0178
37615CL      CL14682   4.555   0.250   8.430 -0.0610  0.6320 -0.0320
37616CL      CL14683   5.091  10.264   4.502  0.3338 -0.1687  0.0648
37617CL      CL14684   6.714   3.772   8.634  0.3687 -0.1802 -0.4132
37618CL      CL14685   6.451   6.173   9.677  0.3623 -0.3104 -0.4472
37619CL      CL14686   1.516   4.462   2.094  0.0027 -0.0943  0.1656
37620CL      CL14687   3.173   1.123   3.164 -0.2997 -0.4834  0.0640
  10.49078  10.49078  10.49078
