;
;   File g4dpocore_petim_betagalactose.itp  was generated
;   By user: sairam (1000)
;   On host: sairam
;   At date: Tue. January  2 19:22:47 2025
;
;   This is a standalone topology file
;
;   Created by:
;   ParmEd:       amb2gro_top_gro.py, VERSION 3.4.1
;   Executable:   amb2gro_top_gro.py
;   Library dir:  /usr/local/gromacs/share/gromacs/top
;   Command line:
;     ./amb2gro_top_gro.py -p g4dpocore_petim_betagalactose.prmtop -c g4dpocore_petim_betagalactose.inpcrd -t g4dpocore_petim_betagalactose.itp -g g4dpocore_petim_betagalactose.gro -b g4dpocore_petim_betagalactose.pdb
;

;[ defaults ]
;; nbfunc        comb-rule       gen-pairs       fudgeLJ fudgeQQ
;1               2               yes             0.5          0.83333333  
;
;[ atomtypes ]
;; name    at.num    mass    charge ptype  sigma      epsilon
;os             8  16.000000  0.00000000  A     0.30000123        0.71128
;c3             6  12.010000  0.00000000  A     0.33996695      0.4577296
;h1             1   1.008000  0.00000000  A      0.2471353      0.0656888
;hc             1   1.008000  0.00000000  A     0.26495328      0.0656888
;hx             1   1.008000  0.00000000  A     0.19599772      0.0656888
;n4             7  14.010000  0.00000000  A     0.32499985        0.71128
;hn             1   1.008000  0.00000000  A     0.10690785      0.0656888
;h2             1   1.008000  0.00000000  A     0.22931733      0.0656888
;oh             8  16.000000  0.00000000  A     0.30664734      0.8803136
;ho             1   1.008000  0.00000000  A              0              0


[ moleculetype ]
; Name            nrexcl
g4dpocore_petim_betagalactose          3

[ atoms ]
;   nr       type  resnr residue  atom   cgnr    charge       mass  typeB    chargeB      massB
; residue    1 aaa rtp aaa q 2.0
    1         os      1    aaa     O1      1 -0.58111400  16.000000   ; qtot -0.581114
    2         c3      1    aaa     C1      2 0.17711200  12.010000   ; qtot -0.404002
    3         h1      1    aaa     H1      3 0.04565000   1.008000   ; qtot -0.358352
    4         h1      1    aaa     H2      4 0.04565000   1.008000   ; qtot -0.312702
    5         c3      1    aaa     C2      5 0.17711200  12.010000   ; qtot -0.135590
    6         h1      1    aaa     H3      6 0.04565000   1.008000   ; qtot -0.089940
    7         h1      1    aaa     H4      7 0.04565000   1.008000   ; qtot -0.044290
    8         c3      1    aaa     C3      8 0.15102100  12.010000   ; qtot 0.106731
    9         hc      1    aaa     H5      9 0.02538500   1.008000   ; qtot 0.132116
   10         hc      1    aaa     H6     10 0.02538500   1.008000   ; qtot 0.157501
   11         c3      1    aaa     C4     11 0.15102100  12.010000   ; qtot 0.308522
   12         hc      1    aaa     H7     12 0.02538500   1.008000   ; qtot 0.333907
   13         hc      1    aaa     H8     13 0.02538500   1.008000   ; qtot 0.359292
   14         c3      1    aaa     C5     14 -0.29474300  12.010000   ; qtot 0.064549
   15         hx      1    aaa     H9     15 0.12534200   1.008000   ; qtot 0.189891
   16         hx      1    aaa    H10     16 0.12534200   1.008000   ; qtot 0.315233
   17         c3      1    aaa     C6     17 -0.29474300  12.010000   ; qtot 0.020490
   18         hx      1    aaa    H11     18 0.12534200   1.008000   ; qtot 0.145832
   19         hx      1    aaa    H12     19 0.12534200   1.008000   ; qtot 0.271174
   20         n4      1    aaa     N1     20 -0.11447800  14.010000   ; qtot 0.156696
   21         n4      1    aaa     N2     21 -0.11447800  14.010000   ; qtot 0.042218
   22         c3      1    aaa     C7     22 -0.03432800  12.010000   ; qtot 0.007890
   23         hx      1    aaa    H13     23 0.10515400   1.008000   ; qtot 0.113044
   24         hx      1    aaa    H14     24 0.10515400   1.008000   ; qtot 0.218198
   25         c3      1    aaa     C8     25 -0.03432800  12.010000   ; qtot 0.183870
   26         hx      1    aaa    H15     26 0.10515400   1.008000   ; qtot 0.289024
   27         hx      1    aaa    H16     27 0.10515400   1.008000   ; qtot 0.394178
   28         c3      1    aaa     C9     28 -0.03432800  12.010000   ; qtot 0.359850
   29         hx      1    aaa    H17     29 0.10515400   1.008000   ; qtot 0.465004
   30         hx      1    aaa    H18     30 0.10515400   1.008000   ; qtot 0.570158
   31         c3      1    aaa    C10     31 -0.03432800  12.010000   ; qtot 0.535830
   32         hx      1    aaa    H19     32 0.10515400   1.008000   ; qtot 0.640984
   33         hx      1    aaa    H20     33 0.10515400   1.008000   ; qtot 0.746138
   34         c3      1    aaa    C11     34 -0.06183200  12.010000   ; qtot 0.684306
   35         hc      1    aaa    H21     35 0.08865200   1.008000   ; qtot 0.772958
   36         hc      1    aaa    H22     36 0.08865200   1.008000   ; qtot 0.861610
   37         c3      1    aaa    C12     37 -0.06183200  12.010000   ; qtot 0.799778
   38         hc      1    aaa    H23     38 0.08865200   1.008000   ; qtot 0.888430
   39         hc      1    aaa    H24     39 0.08865200   1.008000   ; qtot 0.977082
   40         c3      1    aaa    C13     40 -0.06183200  12.010000   ; qtot 0.915250
   41         hc      1    aaa    H25     41 0.08865200   1.008000   ; qtot 1.003902
   42         hc      1    aaa    H26     42 0.08865200   1.008000   ; qtot 1.092554
   43         c3      1    aaa    C14     43 -0.06183200  12.010000   ; qtot 1.030722
   44         hc      1    aaa    H27     44 0.08865200   1.008000   ; qtot 1.119374
   45         hc      1    aaa    H28     45 0.08865200   1.008000   ; qtot 1.208026
   46         c3      1    aaa    C15     46 -0.22217300  12.010000   ; qtot 0.985853
   47         hc      1    aaa    H29     47 0.16441900   1.008000   ; qtot 1.150272
   48         hc      1    aaa    H30     48 0.16441900   1.008000   ; qtot 1.314691
   49         c3      1    aaa    C16     49 -0.22217300  12.010000   ; qtot 1.092518
   50         hc      1    aaa    H31     50 0.16441900   1.008000   ; qtot 1.256937
   51         hc      1    aaa    H32     51 0.16441900   1.008000   ; qtot 1.421356
   52         c3      1    aaa    C17     52 -0.22217300  12.010000   ; qtot 1.199183
   53         hc      1    aaa    H33     53 0.16441900   1.008000   ; qtot 1.363602
   54         hc      1    aaa    H34     54 0.16441900   1.008000   ; qtot 1.528021
   55         c3      1    aaa    C18     55 -0.22217300  12.010000   ; qtot 1.305848
   56         hc      1    aaa    H35     56 0.16441900   1.008000   ; qtot 1.470267
   57         hc      1    aaa    H36     57 0.16441900   1.008000   ; qtot 1.634686
   58         hn      1    aaa    H38     58 0.18266300   1.008000   ; qtot 1.817349
   59         hn      1    aaa    H37     59 0.18266300   1.008000   ; qtot 2.000012
; residue    2 bbb rtp bbb q 1.0
   60         n4      2    bbb     N1     60 0.03726400  14.010000   ; qtot 2.037276
   61         c3      2    bbb     C1     61 -0.07020100  12.010000   ; qtot 1.967075
   62         hx      2    bbb     H1     62 0.12219000   1.008000   ; qtot 2.089265
   63         hx      2    bbb     H2     63 0.12219000   1.008000   ; qtot 2.211455
   64         c3      2    bbb     C2     64 -0.07020100  12.010000   ; qtot 2.141254
   65         hx      2    bbb     H3     65 0.12219000   1.008000   ; qtot 2.263444
   66         hx      2    bbb     H4     66 0.12219000   1.008000   ; qtot 2.385634
   67         c3      2    bbb     C3     67 -0.39007700  12.010000   ; qtot 1.995557
   68         hx      2    bbb     H5     68 0.14940300   1.008000   ; qtot 2.144960
   69         hx      2    bbb     H6     69 0.14940300   1.008000   ; qtot 2.294363
   70         c3      2    bbb     C4     70 0.18057300  12.010000   ; qtot 2.474936
   71         hc      2    bbb     H7     71 0.01788900   1.008000   ; qtot 2.492825
   72         hc      2    bbb     H8     72 0.01788900   1.008000   ; qtot 2.510714
   73         c3      2    bbb     C5     73 -0.11337700  12.010000   ; qtot 2.397337
   74         hc      2    bbb     H9     74 0.09515400   1.008000   ; qtot 2.492491
   75         hc      2    bbb    H10     75 0.09515400   1.008000   ; qtot 2.587645
   76         c3      2    bbb     C6     76 -0.11337700  12.010000   ; qtot 2.474268
   77         hc      2    bbb    H11     77 0.09515400   1.008000   ; qtot 2.569422
   78         hc      2    bbb    H12     78 0.09515400   1.008000   ; qtot 2.664576
   79         c3      2    bbb     C7     79 0.21842400  12.010000   ; qtot 2.883000
   80         h1      2    bbb    H13     80 0.04500300   1.008000   ; qtot 2.928003
   81         h1      2    bbb    H14     81 0.04500300   1.008000   ; qtot 2.973006
   82         c3      2    bbb     C8     82 -0.06455200  12.010000   ; qtot 2.908454
   83         h1      2    bbb    H15     83 0.13554100   1.008000   ; qtot 3.043995
   84         h1      2    bbb    H16     84 0.13554100   1.008000   ; qtot 3.179536
   85         c3      2    bbb     C9     85 -0.06455200  12.010000   ; qtot 3.114984
   86         h1      2    bbb    H17     86 0.13554100   1.008000   ; qtot 3.250525
   87         h1      2    bbb    H18     87 0.13554100   1.008000   ; qtot 3.386066
   88         os      2    bbb     O1     88 -0.62587700  16.000000   ; qtot 2.760189
   89         hn      2    bbb    H19     89 0.23982500   1.008000   ; qtot 3.000014
; residue    3 bbb rtp bbb q 1.0
   90         n4      3    bbb     N1     90 0.03726400  14.010000   ; qtot 3.037278
   91         c3      3    bbb     C1     91 -0.07020100  12.010000   ; qtot 2.967077
   92         hx      3    bbb     H1     92 0.12219000   1.008000   ; qtot 3.089267
   93         hx      3    bbb     H2     93 0.12219000   1.008000   ; qtot 3.211457
   94         c3      3    bbb     C2     94 -0.07020100  12.010000   ; qtot 3.141256
   95         hx      3    bbb     H3     95 0.12219000   1.008000   ; qtot 3.263446
   96         hx      3    bbb     H4     96 0.12219000   1.008000   ; qtot 3.385636
   97         c3      3    bbb     C3     97 -0.39007700  12.010000   ; qtot 2.995559
   98         hx      3    bbb     H5     98 0.14940300   1.008000   ; qtot 3.144962
   99         hx      3    bbb     H6     99 0.14940300   1.008000   ; qtot 3.294365
  100         c3      3    bbb     C4    100 0.18057300  12.010000   ; qtot 3.474938
  101         hc      3    bbb     H7    101 0.01788900   1.008000   ; qtot 3.492827
  102         hc      3    bbb     H8    102 0.01788900   1.008000   ; qtot 3.510716
  103         c3      3    bbb     C5    103 -0.11337700  12.010000   ; qtot 3.397339
  104         hc      3    bbb     H9    104 0.09515400   1.008000   ; qtot 3.492493
  105         hc      3    bbb    H10    105 0.09515400   1.008000   ; qtot 3.587647
  106         c3      3    bbb     C6    106 -0.11337700  12.010000   ; qtot 3.474270
  107         hc      3    bbb    H11    107 0.09515400   1.008000   ; qtot 3.569424
  108         hc      3    bbb    H12    108 0.09515400   1.008000   ; qtot 3.664578
  109         c3      3    bbb     C7    109 0.21842400  12.010000   ; qtot 3.883002
  110         h1      3    bbb    H13    110 0.04500300   1.008000   ; qtot 3.928005
  111         h1      3    bbb    H14    111 0.04500300   1.008000   ; qtot 3.973008
  112         c3      3    bbb     C8    112 -0.06455200  12.010000   ; qtot 3.908456
  113         h1      3    bbb    H15    113 0.13554100   1.008000   ; qtot 4.043997
  114         h1      3    bbb    H16    114 0.13554100   1.008000   ; qtot 4.179538
  115         c3      3    bbb     C9    115 -0.06455200  12.010000   ; qtot 4.114986
  116         h1      3    bbb    H17    116 0.13554100   1.008000   ; qtot 4.250527
  117         h1      3    bbb    H18    117 0.13554100   1.008000   ; qtot 4.386068
  118         os      3    bbb     O1    118 -0.62587700  16.000000   ; qtot 3.760191
  119         hn      3    bbb    H19    119 0.23982500   1.008000   ; qtot 4.000016
; residue    4 bbb rtp bbb q 1.0
  120         n4      4    bbb     N1    120 0.03726400  14.010000   ; qtot 4.037280
  121         c3      4    bbb     C1    121 -0.07020100  12.010000   ; qtot 3.967079
  122         hx      4    bbb     H1    122 0.12219000   1.008000   ; qtot 4.089269
  123         hx      4    bbb     H2    123 0.12219000   1.008000   ; qtot 4.211459
  124         c3      4    bbb     C2    124 -0.07020100  12.010000   ; qtot 4.141258
  125         hx      4    bbb     H3    125 0.12219000   1.008000   ; qtot 4.263448
  126         hx      4    bbb     H4    126 0.12219000   1.008000   ; qtot 4.385638
  127         c3      4    bbb     C3    127 -0.39007700  12.010000   ; qtot 3.995561
  128         hx      4    bbb     H5    128 0.14940300   1.008000   ; qtot 4.144964
  129         hx      4    bbb     H6    129 0.14940300   1.008000   ; qtot 4.294367
  130         c3      4    bbb     C4    130 0.18057300  12.010000   ; qtot 4.474940
  131         hc      4    bbb     H7    131 0.01788900   1.008000   ; qtot 4.492829
  132         hc      4    bbb     H8    132 0.01788900   1.008000   ; qtot 4.510718
  133         c3      4    bbb     C5    133 -0.11337700  12.010000   ; qtot 4.397341
  134         hc      4    bbb     H9    134 0.09515400   1.008000   ; qtot 4.492495
  135         hc      4    bbb    H10    135 0.09515400   1.008000   ; qtot 4.587649
  136         c3      4    bbb     C6    136 -0.11337700  12.010000   ; qtot 4.474272
  137         hc      4    bbb    H11    137 0.09515400   1.008000   ; qtot 4.569426
  138         hc      4    bbb    H12    138 0.09515400   1.008000   ; qtot 4.664580
  139         c3      4    bbb     C7    139 0.21842400  12.010000   ; qtot 4.883004
  140         h1      4    bbb    H13    140 0.04500300   1.008000   ; qtot 4.928007
  141         h1      4    bbb    H14    141 0.04500300   1.008000   ; qtot 4.973010
  142         c3      4    bbb     C8    142 -0.06455200  12.010000   ; qtot 4.908458
  143         h1      4    bbb    H15    143 0.13554100   1.008000   ; qtot 5.043999
  144         h1      4    bbb    H16    144 0.13554100   1.008000   ; qtot 5.179540
  145         c3      4    bbb     C9    145 -0.06455200  12.010000   ; qtot 5.114988
  146         h1      4    bbb    H17    146 0.13554100   1.008000   ; qtot 5.250529
  147         h1      4    bbb    H18    147 0.13554100   1.008000   ; qtot 5.386070
  148         os      4    bbb     O1    148 -0.62587700  16.000000   ; qtot 4.760193
  149         hn      4    bbb    H19    149 0.23982500   1.008000   ; qtot 5.000018
; residue    5 bbb rtp bbb q 1.0
  150         n4      5    bbb     N1    150 0.03726400  14.010000   ; qtot 5.037282
  151         c3      5    bbb     C1    151 -0.07020100  12.010000   ; qtot 4.967081
  152         hx      5    bbb     H1    152 0.12219000   1.008000   ; qtot 5.089271
  153         hx      5    bbb     H2    153 0.12219000   1.008000   ; qtot 5.211461
  154         c3      5    bbb     C2    154 -0.07020100  12.010000   ; qtot 5.141260
  155         hx      5    bbb     H3    155 0.12219000   1.008000   ; qtot 5.263450
  156         hx      5    bbb     H4    156 0.12219000   1.008000   ; qtot 5.385640
  157         c3      5    bbb     C3    157 -0.39007700  12.010000   ; qtot 4.995563
  158         hx      5    bbb     H5    158 0.14940300   1.008000   ; qtot 5.144966
  159         hx      5    bbb     H6    159 0.14940300   1.008000   ; qtot 5.294369
  160         c3      5    bbb     C4    160 0.18057300  12.010000   ; qtot 5.474942
  161         hc      5    bbb     H7    161 0.01788900   1.008000   ; qtot 5.492831
  162         hc      5    bbb     H8    162 0.01788900   1.008000   ; qtot 5.510720
  163         c3      5    bbb     C5    163 -0.11337700  12.010000   ; qtot 5.397343
  164         hc      5    bbb     H9    164 0.09515400   1.008000   ; qtot 5.492497
  165         hc      5    bbb    H10    165 0.09515400   1.008000   ; qtot 5.587651
  166         c3      5    bbb     C6    166 -0.11337700  12.010000   ; qtot 5.474274
  167         hc      5    bbb    H11    167 0.09515400   1.008000   ; qtot 5.569428
  168         hc      5    bbb    H12    168 0.09515400   1.008000   ; qtot 5.664582
  169         c3      5    bbb     C7    169 0.21842400  12.010000   ; qtot 5.883006
  170         h1      5    bbb    H13    170 0.04500300   1.008000   ; qtot 5.928009
  171         h1      5    bbb    H14    171 0.04500300   1.008000   ; qtot 5.973012
  172         c3      5    bbb     C8    172 -0.06455200  12.010000   ; qtot 5.908460
  173         h1      5    bbb    H15    173 0.13554100   1.008000   ; qtot 6.044001
  174         h1      5    bbb    H16    174 0.13554100   1.008000   ; qtot 6.179542
  175         c3      5    bbb     C9    175 -0.06455200  12.010000   ; qtot 6.114990
  176         h1      5    bbb    H17    176 0.13554100   1.008000   ; qtot 6.250531
  177         h1      5    bbb    H18    177 0.13554100   1.008000   ; qtot 6.386072
  178         os      5    bbb     O1    178 -0.62587700  16.000000   ; qtot 5.760195
  179         hn      5    bbb    H19    179 0.23982500   1.008000   ; qtot 6.000020
; residue    6 bbb rtp bbb q 1.0
  180         n4      6    bbb     N1    180 0.03726400  14.010000   ; qtot 6.037284
  181         c3      6    bbb     C1    181 -0.07020100  12.010000   ; qtot 5.967083
  182         hx      6    bbb     H1    182 0.12219000   1.008000   ; qtot 6.089273
  183         hx      6    bbb     H2    183 0.12219000   1.008000   ; qtot 6.211463
  184         c3      6    bbb     C2    184 -0.07020100  12.010000   ; qtot 6.141262
  185         hx      6    bbb     H3    185 0.12219000   1.008000   ; qtot 6.263452
  186         hx      6    bbb     H4    186 0.12219000   1.008000   ; qtot 6.385642
  187         c3      6    bbb     C3    187 -0.39007700  12.010000   ; qtot 5.995565
  188         hx      6    bbb     H5    188 0.14940300   1.008000   ; qtot 6.144968
  189         hx      6    bbb     H6    189 0.14940300   1.008000   ; qtot 6.294371
  190         c3      6    bbb     C4    190 0.18057300  12.010000   ; qtot 6.474944
  191         hc      6    bbb     H7    191 0.01788900   1.008000   ; qtot 6.492833
  192         hc      6    bbb     H8    192 0.01788900   1.008000   ; qtot 6.510722
  193         c3      6    bbb     C5    193 -0.11337700  12.010000   ; qtot 6.397345
  194         hc      6    bbb     H9    194 0.09515400   1.008000   ; qtot 6.492499
  195         hc      6    bbb    H10    195 0.09515400   1.008000   ; qtot 6.587653
  196         c3      6    bbb     C6    196 -0.11337700  12.010000   ; qtot 6.474276
  197         hc      6    bbb    H11    197 0.09515400   1.008000   ; qtot 6.569430
  198         hc      6    bbb    H12    198 0.09515400   1.008000   ; qtot 6.664584
  199         c3      6    bbb     C7    199 0.21842400  12.010000   ; qtot 6.883008
  200         h1      6    bbb    H13    200 0.04500300   1.008000   ; qtot 6.928011
  201         h1      6    bbb    H14    201 0.04500300   1.008000   ; qtot 6.973014
  202         c3      6    bbb     C8    202 -0.06455200  12.010000   ; qtot 6.908462
  203         h1      6    bbb    H15    203 0.13554100   1.008000   ; qtot 7.044003
  204         h1      6    bbb    H16    204 0.13554100   1.008000   ; qtot 7.179544
  205         c3      6    bbb     C9    205 -0.06455200  12.010000   ; qtot 7.114992
  206         h1      6    bbb    H17    206 0.13554100   1.008000   ; qtot 7.250533
  207         h1      6    bbb    H18    207 0.13554100   1.008000   ; qtot 7.386074
  208         os      6    bbb     O1    208 -0.62587700  16.000000   ; qtot 6.760197
  209         hn      6    bbb    H19    209 0.23982500   1.008000   ; qtot 7.000022
; residue    7 bbb rtp bbb q 1.0
  210         n4      7    bbb     N1    210 0.03726400  14.010000   ; qtot 7.037286
  211         c3      7    bbb     C1    211 -0.07020100  12.010000   ; qtot 6.967085
  212         hx      7    bbb     H1    212 0.12219000   1.008000   ; qtot 7.089275
  213         hx      7    bbb     H2    213 0.12219000   1.008000   ; qtot 7.211465
  214         c3      7    bbb     C2    214 -0.07020100  12.010000   ; qtot 7.141264
  215         hx      7    bbb     H3    215 0.12219000   1.008000   ; qtot 7.263454
  216         hx      7    bbb     H4    216 0.12219000   1.008000   ; qtot 7.385644
  217         c3      7    bbb     C3    217 -0.39007700  12.010000   ; qtot 6.995567
  218         hx      7    bbb     H5    218 0.14940300   1.008000   ; qtot 7.144970
  219         hx      7    bbb     H6    219 0.14940300   1.008000   ; qtot 7.294373
  220         c3      7    bbb     C4    220 0.18057300  12.010000   ; qtot 7.474946
  221         hc      7    bbb     H7    221 0.01788900   1.008000   ; qtot 7.492835
  222         hc      7    bbb     H8    222 0.01788900   1.008000   ; qtot 7.510724
  223         c3      7    bbb     C5    223 -0.11337700  12.010000   ; qtot 7.397347
  224         hc      7    bbb     H9    224 0.09515400   1.008000   ; qtot 7.492501
  225         hc      7    bbb    H10    225 0.09515400   1.008000   ; qtot 7.587655
  226         c3      7    bbb     C6    226 -0.11337700  12.010000   ; qtot 7.474278
  227         hc      7    bbb    H11    227 0.09515400   1.008000   ; qtot 7.569432
  228         hc      7    bbb    H12    228 0.09515400   1.008000   ; qtot 7.664586
  229         c3      7    bbb     C7    229 0.21842400  12.010000   ; qtot 7.883010
  230         h1      7    bbb    H13    230 0.04500300   1.008000   ; qtot 7.928013
  231         h1      7    bbb    H14    231 0.04500300   1.008000   ; qtot 7.973016
  232         c3      7    bbb     C8    232 -0.06455200  12.010000   ; qtot 7.908464
  233         h1      7    bbb    H15    233 0.13554100   1.008000   ; qtot 8.044005
  234         h1      7    bbb    H16    234 0.13554100   1.008000   ; qtot 8.179546
  235         c3      7    bbb     C9    235 -0.06455200  12.010000   ; qtot 8.114994
  236         h1      7    bbb    H17    236 0.13554100   1.008000   ; qtot 8.250535
  237         h1      7    bbb    H18    237 0.13554100   1.008000   ; qtot 8.386076
  238         os      7    bbb     O1    238 -0.62587700  16.000000   ; qtot 7.760199
  239         hn      7    bbb    H19    239 0.23982500   1.008000   ; qtot 8.000024
; residue    8 bbb rtp bbb q 1.0
  240         n4      8    bbb     N1    240 0.03726400  14.010000   ; qtot 8.037288
  241         c3      8    bbb     C1    241 -0.07020100  12.010000   ; qtot 7.967087
  242         hx      8    bbb     H1    242 0.12219000   1.008000   ; qtot 8.089277
  243         hx      8    bbb     H2    243 0.12219000   1.008000   ; qtot 8.211467
  244         c3      8    bbb     C2    244 -0.07020100  12.010000   ; qtot 8.141266
  245         hx      8    bbb     H3    245 0.12219000   1.008000   ; qtot 8.263456
  246         hx      8    bbb     H4    246 0.12219000   1.008000   ; qtot 8.385646
  247         c3      8    bbb     C3    247 -0.39007700  12.010000   ; qtot 7.995569
  248         hx      8    bbb     H5    248 0.14940300   1.008000   ; qtot 8.144972
  249         hx      8    bbb     H6    249 0.14940300   1.008000   ; qtot 8.294375
  250         c3      8    bbb     C4    250 0.18057300  12.010000   ; qtot 8.474948
  251         hc      8    bbb     H7    251 0.01788900   1.008000   ; qtot 8.492837
  252         hc      8    bbb     H8    252 0.01788900   1.008000   ; qtot 8.510726
  253         c3      8    bbb     C5    253 -0.11337700  12.010000   ; qtot 8.397349
  254         hc      8    bbb     H9    254 0.09515400   1.008000   ; qtot 8.492503
  255         hc      8    bbb    H10    255 0.09515400   1.008000   ; qtot 8.587657
  256         c3      8    bbb     C6    256 -0.11337700  12.010000   ; qtot 8.474280
  257         hc      8    bbb    H11    257 0.09515400   1.008000   ; qtot 8.569434
  258         hc      8    bbb    H12    258 0.09515400   1.008000   ; qtot 8.664588
  259         c3      8    bbb     C7    259 0.21842400  12.010000   ; qtot 8.883012
  260         h1      8    bbb    H13    260 0.04500300   1.008000   ; qtot 8.928015
  261         h1      8    bbb    H14    261 0.04500300   1.008000   ; qtot 8.973018
  262         c3      8    bbb     C8    262 -0.06455200  12.010000   ; qtot 8.908466
  263         h1      8    bbb    H15    263 0.13554100   1.008000   ; qtot 9.044007
  264         h1      8    bbb    H16    264 0.13554100   1.008000   ; qtot 9.179548
  265         c3      8    bbb     C9    265 -0.06455200  12.010000   ; qtot 9.114996
  266         h1      8    bbb    H17    266 0.13554100   1.008000   ; qtot 9.250537
  267         h1      8    bbb    H18    267 0.13554100   1.008000   ; qtot 9.386078
  268         os      8    bbb     O1    268 -0.62587700  16.000000   ; qtot 8.760201
  269         hn      8    bbb    H19    269 0.23982500   1.008000   ; qtot 9.000026
; residue    9 bbb rtp bbb q 1.0
  270         n4      9    bbb     N1    270 0.03726400  14.010000   ; qtot 9.037290
  271         c3      9    bbb     C1    271 -0.07020100  12.010000   ; qtot 8.967089
  272         hx      9    bbb     H1    272 0.12219000   1.008000   ; qtot 9.089279
  273         hx      9    bbb     H2    273 0.12219000   1.008000   ; qtot 9.211469
  274         c3      9    bbb     C2    274 -0.07020100  12.010000   ; qtot 9.141268
  275         hx      9    bbb     H3    275 0.12219000   1.008000   ; qtot 9.263458
  276         hx      9    bbb     H4    276 0.12219000   1.008000   ; qtot 9.385648
  277         c3      9    bbb     C3    277 -0.39007700  12.010000   ; qtot 8.995571
  278         hx      9    bbb     H5    278 0.14940300   1.008000   ; qtot 9.144974
  279         hx      9    bbb     H6    279 0.14940300   1.008000   ; qtot 9.294377
  280         c3      9    bbb     C4    280 0.18057300  12.010000   ; qtot 9.474950
  281         hc      9    bbb     H7    281 0.01788900   1.008000   ; qtot 9.492839
  282         hc      9    bbb     H8    282 0.01788900   1.008000   ; qtot 9.510728
  283         c3      9    bbb     C5    283 -0.11337700  12.010000   ; qtot 9.397351
  284         hc      9    bbb     H9    284 0.09515400   1.008000   ; qtot 9.492505
  285         hc      9    bbb    H10    285 0.09515400   1.008000   ; qtot 9.587659
  286         c3      9    bbb     C6    286 -0.11337700  12.010000   ; qtot 9.474282
  287         hc      9    bbb    H11    287 0.09515400   1.008000   ; qtot 9.569436
  288         hc      9    bbb    H12    288 0.09515400   1.008000   ; qtot 9.664590
  289         c3      9    bbb     C7    289 0.21842400  12.010000   ; qtot 9.883014
  290         h1      9    bbb    H13    290 0.04500300   1.008000   ; qtot 9.928017
  291         h1      9    bbb    H14    291 0.04500300   1.008000   ; qtot 9.973020
  292         c3      9    bbb     C8    292 -0.06455200  12.010000   ; qtot 9.908468
  293         h1      9    bbb    H15    293 0.13554100   1.008000   ; qtot 10.044009
  294         h1      9    bbb    H16    294 0.13554100   1.008000   ; qtot 10.179550
  295         c3      9    bbb     C9    295 -0.06455200  12.010000   ; qtot 10.114998
  296         h1      9    bbb    H17    296 0.13554100   1.008000   ; qtot 10.250539
  297         h1      9    bbb    H18    297 0.13554100   1.008000   ; qtot 10.386080
  298         os      9    bbb     O1    298 -0.62587700  16.000000   ; qtot 9.760203
  299         hn      9    bbb    H19    299 0.23982500   1.008000   ; qtot 10.000028
; residue   10 bbb rtp bbb q 1.0
  300         n4     10    bbb     N1    300 0.03726400  14.010000   ; qtot 10.037292
  301         c3     10    bbb     C1    301 -0.07020100  12.010000   ; qtot 9.967091
  302         hx     10    bbb     H1    302 0.12219000   1.008000   ; qtot 10.089281
  303         hx     10    bbb     H2    303 0.12219000   1.008000   ; qtot 10.211471
  304         c3     10    bbb     C2    304 -0.07020100  12.010000   ; qtot 10.141270
  305         hx     10    bbb     H3    305 0.12219000   1.008000   ; qtot 10.263460
  306         hx     10    bbb     H4    306 0.12219000   1.008000   ; qtot 10.385650
  307         c3     10    bbb     C3    307 -0.39007700  12.010000   ; qtot 9.995573
  308         hx     10    bbb     H5    308 0.14940300   1.008000   ; qtot 10.144976
  309         hx     10    bbb     H6    309 0.14940300   1.008000   ; qtot 10.294379
  310         c3     10    bbb     C4    310 0.18057300  12.010000   ; qtot 10.474952
  311         hc     10    bbb     H7    311 0.01788900   1.008000   ; qtot 10.492841
  312         hc     10    bbb     H8    312 0.01788900   1.008000   ; qtot 10.510730
  313         c3     10    bbb     C5    313 -0.11337700  12.010000   ; qtot 10.397353
  314         hc     10    bbb     H9    314 0.09515400   1.008000   ; qtot 10.492507
  315         hc     10    bbb    H10    315 0.09515400   1.008000   ; qtot 10.587661
  316         c3     10    bbb     C6    316 -0.11337700  12.010000   ; qtot 10.474284
  317         hc     10    bbb    H11    317 0.09515400   1.008000   ; qtot 10.569438
  318         hc     10    bbb    H12    318 0.09515400   1.008000   ; qtot 10.664592
  319         c3     10    bbb     C7    319 0.21842400  12.010000   ; qtot 10.883016
  320         h1     10    bbb    H13    320 0.04500300   1.008000   ; qtot 10.928019
  321         h1     10    bbb    H14    321 0.04500300   1.008000   ; qtot 10.973022
  322         c3     10    bbb     C8    322 -0.06455200  12.010000   ; qtot 10.908470
  323         h1     10    bbb    H15    323 0.13554100   1.008000   ; qtot 11.044011
  324         h1     10    bbb    H16    324 0.13554100   1.008000   ; qtot 11.179552
  325         c3     10    bbb     C9    325 -0.06455200  12.010000   ; qtot 11.115000
  326         h1     10    bbb    H17    326 0.13554100   1.008000   ; qtot 11.250541
  327         h1     10    bbb    H18    327 0.13554100   1.008000   ; qtot 11.386082
  328         os     10    bbb     O1    328 -0.62587700  16.000000   ; qtot 10.760205
  329         hn     10    bbb    H19    329 0.23982500   1.008000   ; qtot 11.000030
; residue   11 bbb rtp bbb q 1.0
  330         n4     11    bbb     N1    330 0.03726400  14.010000   ; qtot 11.037294
  331         c3     11    bbb     C1    331 -0.07020100  12.010000   ; qtot 10.967093
  332         hx     11    bbb     H1    332 0.12219000   1.008000   ; qtot 11.089283
  333         hx     11    bbb     H2    333 0.12219000   1.008000   ; qtot 11.211473
  334         c3     11    bbb     C2    334 -0.07020100  12.010000   ; qtot 11.141272
  335         hx     11    bbb     H3    335 0.12219000   1.008000   ; qtot 11.263462
  336         hx     11    bbb     H4    336 0.12219000   1.008000   ; qtot 11.385652
  337         c3     11    bbb     C3    337 -0.39007700  12.010000   ; qtot 10.995575
  338         hx     11    bbb     H5    338 0.14940300   1.008000   ; qtot 11.144978
  339         hx     11    bbb     H6    339 0.14940300   1.008000   ; qtot 11.294381
  340         c3     11    bbb     C4    340 0.18057300  12.010000   ; qtot 11.474954
  341         hc     11    bbb     H7    341 0.01788900   1.008000   ; qtot 11.492843
  342         hc     11    bbb     H8    342 0.01788900   1.008000   ; qtot 11.510732
  343         c3     11    bbb     C5    343 -0.11337700  12.010000   ; qtot 11.397355
  344         hc     11    bbb     H9    344 0.09515400   1.008000   ; qtot 11.492509
  345         hc     11    bbb    H10    345 0.09515400   1.008000   ; qtot 11.587663
  346         c3     11    bbb     C6    346 -0.11337700  12.010000   ; qtot 11.474286
  347         hc     11    bbb    H11    347 0.09515400   1.008000   ; qtot 11.569440
  348         hc     11    bbb    H12    348 0.09515400   1.008000   ; qtot 11.664594
  349         c3     11    bbb     C7    349 0.21842400  12.010000   ; qtot 11.883018
  350         h1     11    bbb    H13    350 0.04500300   1.008000   ; qtot 11.928021
  351         h1     11    bbb    H14    351 0.04500300   1.008000   ; qtot 11.973024
  352         c3     11    bbb     C8    352 -0.06455200  12.010000   ; qtot 11.908472
  353         h1     11    bbb    H15    353 0.13554100   1.008000   ; qtot 12.044013
  354         h1     11    bbb    H16    354 0.13554100   1.008000   ; qtot 12.179554
  355         c3     11    bbb     C9    355 -0.06455200  12.010000   ; qtot 12.115002
  356         h1     11    bbb    H17    356 0.13554100   1.008000   ; qtot 12.250543
  357         h1     11    bbb    H18    357 0.13554100   1.008000   ; qtot 12.386084
  358         os     11    bbb     O1    358 -0.62587700  16.000000   ; qtot 11.760207
  359         hn     11    bbb    H19    359 0.23982500   1.008000   ; qtot 12.000032
; residue   12 bbb rtp bbb q 1.0
  360         n4     12    bbb     N1    360 0.03726400  14.010000   ; qtot 12.037296
  361         c3     12    bbb     C1    361 -0.07020100  12.010000   ; qtot 11.967095
  362         hx     12    bbb     H1    362 0.12219000   1.008000   ; qtot 12.089285
  363         hx     12    bbb     H2    363 0.12219000   1.008000   ; qtot 12.211475
  364         c3     12    bbb     C2    364 -0.07020100  12.010000   ; qtot 12.141274
  365         hx     12    bbb     H3    365 0.12219000   1.008000   ; qtot 12.263464
  366         hx     12    bbb     H4    366 0.12219000   1.008000   ; qtot 12.385654
  367         c3     12    bbb     C3    367 -0.39007700  12.010000   ; qtot 11.995577
  368         hx     12    bbb     H5    368 0.14940300   1.008000   ; qtot 12.144980
  369         hx     12    bbb     H6    369 0.14940300   1.008000   ; qtot 12.294383
  370         c3     12    bbb     C4    370 0.18057300  12.010000   ; qtot 12.474956
  371         hc     12    bbb     H7    371 0.01788900   1.008000   ; qtot 12.492845
  372         hc     12    bbb     H8    372 0.01788900   1.008000   ; qtot 12.510734
  373         c3     12    bbb     C5    373 -0.11337700  12.010000   ; qtot 12.397357
  374         hc     12    bbb     H9    374 0.09515400   1.008000   ; qtot 12.492511
  375         hc     12    bbb    H10    375 0.09515400   1.008000   ; qtot 12.587665
  376         c3     12    bbb     C6    376 -0.11337700  12.010000   ; qtot 12.474288
  377         hc     12    bbb    H11    377 0.09515400   1.008000   ; qtot 12.569442
  378         hc     12    bbb    H12    378 0.09515400   1.008000   ; qtot 12.664596
  379         c3     12    bbb     C7    379 0.21842400  12.010000   ; qtot 12.883020
  380         h1     12    bbb    H13    380 0.04500300   1.008000   ; qtot 12.928023
  381         h1     12    bbb    H14    381 0.04500300   1.008000   ; qtot 12.973026
  382         c3     12    bbb     C8    382 -0.06455200  12.010000   ; qtot 12.908474
  383         h1     12    bbb    H15    383 0.13554100   1.008000   ; qtot 13.044015
  384         h1     12    bbb    H16    384 0.13554100   1.008000   ; qtot 13.179556
  385         c3     12    bbb     C9    385 -0.06455200  12.010000   ; qtot 13.115004
  386         h1     12    bbb    H17    386 0.13554100   1.008000   ; qtot 13.250545
  387         h1     12    bbb    H18    387 0.13554100   1.008000   ; qtot 13.386086
  388         os     12    bbb     O1    388 -0.62587700  16.000000   ; qtot 12.760209
  389         hn     12    bbb    H19    389 0.23982500   1.008000   ; qtot 13.000034
; residue   13 bbb rtp bbb q 1.0
  390         n4     13    bbb     N1    390 0.03726400  14.010000   ; qtot 13.037298
  391         c3     13    bbb     C1    391 -0.07020100  12.010000   ; qtot 12.967097
  392         hx     13    bbb     H1    392 0.12219000   1.008000   ; qtot 13.089287
  393         hx     13    bbb     H2    393 0.12219000   1.008000   ; qtot 13.211477
  394         c3     13    bbb     C2    394 -0.07020100  12.010000   ; qtot 13.141276
  395         hx     13    bbb     H3    395 0.12219000   1.008000   ; qtot 13.263466
  396         hx     13    bbb     H4    396 0.12219000   1.008000   ; qtot 13.385656
  397         c3     13    bbb     C3    397 -0.39007700  12.010000   ; qtot 12.995579
  398         hx     13    bbb     H5    398 0.14940300   1.008000   ; qtot 13.144982
  399         hx     13    bbb     H6    399 0.14940300   1.008000   ; qtot 13.294385
  400         c3     13    bbb     C4    400 0.18057300  12.010000   ; qtot 13.474958
  401         hc     13    bbb     H7    401 0.01788900   1.008000   ; qtot 13.492847
  402         hc     13    bbb     H8    402 0.01788900   1.008000   ; qtot 13.510736
  403         c3     13    bbb     C5    403 -0.11337700  12.010000   ; qtot 13.397359
  404         hc     13    bbb     H9    404 0.09515400   1.008000   ; qtot 13.492513
  405         hc     13    bbb    H10    405 0.09515400   1.008000   ; qtot 13.587667
  406         c3     13    bbb     C6    406 -0.11337700  12.010000   ; qtot 13.474290
  407         hc     13    bbb    H11    407 0.09515400   1.008000   ; qtot 13.569444
  408         hc     13    bbb    H12    408 0.09515400   1.008000   ; qtot 13.664598
  409         c3     13    bbb     C7    409 0.21842400  12.010000   ; qtot 13.883022
  410         h1     13    bbb    H13    410 0.04500300   1.008000   ; qtot 13.928025
  411         h1     13    bbb    H14    411 0.04500300   1.008000   ; qtot 13.973028
  412         c3     13    bbb     C8    412 -0.06455200  12.010000   ; qtot 13.908476
  413         h1     13    bbb    H15    413 0.13554100   1.008000   ; qtot 14.044017
  414         h1     13    bbb    H16    414 0.13554100   1.008000   ; qtot 14.179558
  415         c3     13    bbb     C9    415 -0.06455200  12.010000   ; qtot 14.115006
  416         h1     13    bbb    H17    416 0.13554100   1.008000   ; qtot 14.250547
  417         h1     13    bbb    H18    417 0.13554100   1.008000   ; qtot 14.386088
  418         os     13    bbb     O1    418 -0.62587700  16.000000   ; qtot 13.760211
  419         hn     13    bbb    H19    419 0.23982500   1.008000   ; qtot 14.000036
; residue   14 bbb rtp bbb q 1.0
  420         n4     14    bbb     N1    420 0.03726400  14.010000   ; qtot 14.037300
  421         c3     14    bbb     C1    421 -0.07020100  12.010000   ; qtot 13.967099
  422         hx     14    bbb     H1    422 0.12219000   1.008000   ; qtot 14.089289
  423         hx     14    bbb     H2    423 0.12219000   1.008000   ; qtot 14.211479
  424         c3     14    bbb     C2    424 -0.07020100  12.010000   ; qtot 14.141278
  425         hx     14    bbb     H3    425 0.12219000   1.008000   ; qtot 14.263468
  426         hx     14    bbb     H4    426 0.12219000   1.008000   ; qtot 14.385658
  427         c3     14    bbb     C3    427 -0.39007700  12.010000   ; qtot 13.995581
  428         hx     14    bbb     H5    428 0.14940300   1.008000   ; qtot 14.144984
  429         hx     14    bbb     H6    429 0.14940300   1.008000   ; qtot 14.294387
  430         c3     14    bbb     C4    430 0.18057300  12.010000   ; qtot 14.474960
  431         hc     14    bbb     H7    431 0.01788900   1.008000   ; qtot 14.492849
  432         hc     14    bbb     H8    432 0.01788900   1.008000   ; qtot 14.510738
  433         c3     14    bbb     C5    433 -0.11337700  12.010000   ; qtot 14.397361
  434         hc     14    bbb     H9    434 0.09515400   1.008000   ; qtot 14.492515
  435         hc     14    bbb    H10    435 0.09515400   1.008000   ; qtot 14.587669
  436         c3     14    bbb     C6    436 -0.11337700  12.010000   ; qtot 14.474292
  437         hc     14    bbb    H11    437 0.09515400   1.008000   ; qtot 14.569446
  438         hc     14    bbb    H12    438 0.09515400   1.008000   ; qtot 14.664600
  439         c3     14    bbb     C7    439 0.21842400  12.010000   ; qtot 14.883024
  440         h1     14    bbb    H13    440 0.04500300   1.008000   ; qtot 14.928027
  441         h1     14    bbb    H14    441 0.04500300   1.008000   ; qtot 14.973030
  442         c3     14    bbb     C8    442 -0.06455200  12.010000   ; qtot 14.908478
  443         h1     14    bbb    H15    443 0.13554100   1.008000   ; qtot 15.044019
  444         h1     14    bbb    H16    444 0.13554100   1.008000   ; qtot 15.179560
  445         c3     14    bbb     C9    445 -0.06455200  12.010000   ; qtot 15.115008
  446         h1     14    bbb    H17    446 0.13554100   1.008000   ; qtot 15.250549
  447         h1     14    bbb    H18    447 0.13554100   1.008000   ; qtot 15.386090
  448         os     14    bbb     O1    448 -0.62587700  16.000000   ; qtot 14.760213
  449         hn     14    bbb    H19    449 0.23982500   1.008000   ; qtot 15.000038
; residue   15 bbb rtp bbb q 1.0
  450         n4     15    bbb     N1    450 0.03726400  14.010000   ; qtot 15.037302
  451         c3     15    bbb     C1    451 -0.07020100  12.010000   ; qtot 14.967101
  452         hx     15    bbb     H1    452 0.12219000   1.008000   ; qtot 15.089291
  453         hx     15    bbb     H2    453 0.12219000   1.008000   ; qtot 15.211481
  454         c3     15    bbb     C2    454 -0.07020100  12.010000   ; qtot 15.141280
  455         hx     15    bbb     H3    455 0.12219000   1.008000   ; qtot 15.263470
  456         hx     15    bbb     H4    456 0.12219000   1.008000   ; qtot 15.385660
  457         c3     15    bbb     C3    457 -0.39007700  12.010000   ; qtot 14.995583
  458         hx     15    bbb     H5    458 0.14940300   1.008000   ; qtot 15.144986
  459         hx     15    bbb     H6    459 0.14940300   1.008000   ; qtot 15.294389
  460         c3     15    bbb     C4    460 0.18057300  12.010000   ; qtot 15.474962
  461         hc     15    bbb     H7    461 0.01788900   1.008000   ; qtot 15.492851
  462         hc     15    bbb     H8    462 0.01788900   1.008000   ; qtot 15.510740
  463         c3     15    bbb     C5    463 -0.11337700  12.010000   ; qtot 15.397363
  464         hc     15    bbb     H9    464 0.09515400   1.008000   ; qtot 15.492517
  465         hc     15    bbb    H10    465 0.09515400   1.008000   ; qtot 15.587671
  466         c3     15    bbb     C6    466 -0.11337700  12.010000   ; qtot 15.474294
  467         hc     15    bbb    H11    467 0.09515400   1.008000   ; qtot 15.569448
  468         hc     15    bbb    H12    468 0.09515400   1.008000   ; qtot 15.664602
  469         c3     15    bbb     C7    469 0.21842400  12.010000   ; qtot 15.883026
  470         h1     15    bbb    H13    470 0.04500300   1.008000   ; qtot 15.928029
  471         h1     15    bbb    H14    471 0.04500300   1.008000   ; qtot 15.973032
  472         c3     15    bbb     C8    472 -0.06455200  12.010000   ; qtot 15.908480
  473         h1     15    bbb    H15    473 0.13554100   1.008000   ; qtot 16.044021
  474         h1     15    bbb    H16    474 0.13554100   1.008000   ; qtot 16.179562
  475         c3     15    bbb     C9    475 -0.06455200  12.010000   ; qtot 16.115010
  476         h1     15    bbb    H17    476 0.13554100   1.008000   ; qtot 16.250551
  477         h1     15    bbb    H18    477 0.13554100   1.008000   ; qtot 16.386092
  478         os     15    bbb     O1    478 -0.62587700  16.000000   ; qtot 15.760215
  479         hn     15    bbb    H19    479 0.23982500   1.008000   ; qtot 16.000040
; residue   16 bbb rtp bbb q 1.0
  480         n4     16    bbb     N1    480 0.03726400  14.010000   ; qtot 16.037304
  481         c3     16    bbb     C1    481 -0.07020100  12.010000   ; qtot 15.967103
  482         hx     16    bbb     H1    482 0.12219000   1.008000   ; qtot 16.089293
  483         hx     16    bbb     H2    483 0.12219000   1.008000   ; qtot 16.211483
  484         c3     16    bbb     C2    484 -0.07020100  12.010000   ; qtot 16.141282
  485         hx     16    bbb     H3    485 0.12219000   1.008000   ; qtot 16.263472
  486         hx     16    bbb     H4    486 0.12219000   1.008000   ; qtot 16.385662
  487         c3     16    bbb     C3    487 -0.39007700  12.010000   ; qtot 15.995585
  488         hx     16    bbb     H5    488 0.14940300   1.008000   ; qtot 16.144988
  489         hx     16    bbb     H6    489 0.14940300   1.008000   ; qtot 16.294391
  490         c3     16    bbb     C4    490 0.18057300  12.010000   ; qtot 16.474964
  491         hc     16    bbb     H7    491 0.01788900   1.008000   ; qtot 16.492853
  492         hc     16    bbb     H8    492 0.01788900   1.008000   ; qtot 16.510742
  493         c3     16    bbb     C5    493 -0.11337700  12.010000   ; qtot 16.397365
  494         hc     16    bbb     H9    494 0.09515400   1.008000   ; qtot 16.492519
  495         hc     16    bbb    H10    495 0.09515400   1.008000   ; qtot 16.587673
  496         c3     16    bbb     C6    496 -0.11337700  12.010000   ; qtot 16.474296
  497         hc     16    bbb    H11    497 0.09515400   1.008000   ; qtot 16.569450
  498         hc     16    bbb    H12    498 0.09515400   1.008000   ; qtot 16.664604
  499         c3     16    bbb     C7    499 0.21842400  12.010000   ; qtot 16.883028
  500         h1     16    bbb    H13    500 0.04500300   1.008000   ; qtot 16.928031
  501         h1     16    bbb    H14    501 0.04500300   1.008000   ; qtot 16.973034
  502         c3     16    bbb     C8    502 -0.06455200  12.010000   ; qtot 16.908482
  503         h1     16    bbb    H15    503 0.13554100   1.008000   ; qtot 17.044023
  504         h1     16    bbb    H16    504 0.13554100   1.008000   ; qtot 17.179564
  505         c3     16    bbb     C9    505 -0.06455200  12.010000   ; qtot 17.115012
  506         h1     16    bbb    H17    506 0.13554100   1.008000   ; qtot 17.250553
  507         h1     16    bbb    H18    507 0.13554100   1.008000   ; qtot 17.386094
  508         os     16    bbb     O1    508 -0.62587700  16.000000   ; qtot 16.760217
  509         hn     16    bbb    H19    509 0.23982500   1.008000   ; qtot 17.000042
; residue   17 bbb rtp bbb q 1.0
  510         n4     17    bbb     N1    510 0.03726400  14.010000   ; qtot 17.037306
  511         c3     17    bbb     C1    511 -0.07020100  12.010000   ; qtot 16.967105
  512         hx     17    bbb     H1    512 0.12219000   1.008000   ; qtot 17.089295
  513         hx     17    bbb     H2    513 0.12219000   1.008000   ; qtot 17.211485
  514         c3     17    bbb     C2    514 -0.07020100  12.010000   ; qtot 17.141284
  515         hx     17    bbb     H3    515 0.12219000   1.008000   ; qtot 17.263474
  516         hx     17    bbb     H4    516 0.12219000   1.008000   ; qtot 17.385664
  517         c3     17    bbb     C3    517 -0.39007700  12.010000   ; qtot 16.995587
  518         hx     17    bbb     H5    518 0.14940300   1.008000   ; qtot 17.144990
  519         hx     17    bbb     H6    519 0.14940300   1.008000   ; qtot 17.294393
  520         c3     17    bbb     C4    520 0.18057300  12.010000   ; qtot 17.474966
  521         hc     17    bbb     H7    521 0.01788900   1.008000   ; qtot 17.492855
  522         hc     17    bbb     H8    522 0.01788900   1.008000   ; qtot 17.510744
  523         c3     17    bbb     C5    523 -0.11337700  12.010000   ; qtot 17.397367
  524         hc     17    bbb     H9    524 0.09515400   1.008000   ; qtot 17.492521
  525         hc     17    bbb    H10    525 0.09515400   1.008000   ; qtot 17.587675
  526         c3     17    bbb     C6    526 -0.11337700  12.010000   ; qtot 17.474298
  527         hc     17    bbb    H11    527 0.09515400   1.008000   ; qtot 17.569452
  528         hc     17    bbb    H12    528 0.09515400   1.008000   ; qtot 17.664606
  529         c3     17    bbb     C7    529 0.21842400  12.010000   ; qtot 17.883030
  530         h1     17    bbb    H13    530 0.04500300   1.008000   ; qtot 17.928033
  531         h1     17    bbb    H14    531 0.04500300   1.008000   ; qtot 17.973036
  532         c3     17    bbb     C8    532 -0.06455200  12.010000   ; qtot 17.908484
  533         h1     17    bbb    H15    533 0.13554100   1.008000   ; qtot 18.044025
  534         h1     17    bbb    H16    534 0.13554100   1.008000   ; qtot 18.179566
  535         c3     17    bbb     C9    535 -0.06455200  12.010000   ; qtot 18.115014
  536         h1     17    bbb    H17    536 0.13554100   1.008000   ; qtot 18.250555
  537         h1     17    bbb    H18    537 0.13554100   1.008000   ; qtot 18.386096
  538         os     17    bbb     O1    538 -0.62587700  16.000000   ; qtot 17.760219
  539         hn     17    bbb    H19    539 0.23982500   1.008000   ; qtot 18.000044
; residue   18 bbb rtp bbb q 1.0
  540         n4     18    bbb     N1    540 0.03726400  14.010000   ; qtot 18.037308
  541         c3     18    bbb     C1    541 -0.07020100  12.010000   ; qtot 17.967107
  542         hx     18    bbb     H1    542 0.12219000   1.008000   ; qtot 18.089297
  543         hx     18    bbb     H2    543 0.12219000   1.008000   ; qtot 18.211487
  544         c3     18    bbb     C2    544 -0.07020100  12.010000   ; qtot 18.141286
  545         hx     18    bbb     H3    545 0.12219000   1.008000   ; qtot 18.263476
  546         hx     18    bbb     H4    546 0.12219000   1.008000   ; qtot 18.385666
  547         c3     18    bbb     C3    547 -0.39007700  12.010000   ; qtot 17.995589
  548         hx     18    bbb     H5    548 0.14940300   1.008000   ; qtot 18.144992
  549         hx     18    bbb     H6    549 0.14940300   1.008000   ; qtot 18.294395
  550         c3     18    bbb     C4    550 0.18057300  12.010000   ; qtot 18.474968
  551         hc     18    bbb     H7    551 0.01788900   1.008000   ; qtot 18.492857
  552         hc     18    bbb     H8    552 0.01788900   1.008000   ; qtot 18.510746
  553         c3     18    bbb     C5    553 -0.11337700  12.010000   ; qtot 18.397369
  554         hc     18    bbb     H9    554 0.09515400   1.008000   ; qtot 18.492523
  555         hc     18    bbb    H10    555 0.09515400   1.008000   ; qtot 18.587677
  556         c3     18    bbb     C6    556 -0.11337700  12.010000   ; qtot 18.474300
  557         hc     18    bbb    H11    557 0.09515400   1.008000   ; qtot 18.569454
  558         hc     18    bbb    H12    558 0.09515400   1.008000   ; qtot 18.664608
  559         c3     18    bbb     C7    559 0.21842400  12.010000   ; qtot 18.883032
  560         h1     18    bbb    H13    560 0.04500300   1.008000   ; qtot 18.928035
  561         h1     18    bbb    H14    561 0.04500300   1.008000   ; qtot 18.973038
  562         c3     18    bbb     C8    562 -0.06455200  12.010000   ; qtot 18.908486
  563         h1     18    bbb    H15    563 0.13554100   1.008000   ; qtot 19.044027
  564         h1     18    bbb    H16    564 0.13554100   1.008000   ; qtot 19.179568
  565         c3     18    bbb     C9    565 -0.06455200  12.010000   ; qtot 19.115016
  566         h1     18    bbb    H17    566 0.13554100   1.008000   ; qtot 19.250557
  567         h1     18    bbb    H18    567 0.13554100   1.008000   ; qtot 19.386098
  568         os     18    bbb     O1    568 -0.62587700  16.000000   ; qtot 18.760221
  569         hn     18    bbb    H19    569 0.23982500   1.008000   ; qtot 19.000046
; residue   19 bbb rtp bbb q 1.0
  570         n4     19    bbb     N1    570 0.03726400  14.010000   ; qtot 19.037310
  571         c3     19    bbb     C1    571 -0.07020100  12.010000   ; qtot 18.967109
  572         hx     19    bbb     H1    572 0.12219000   1.008000   ; qtot 19.089299
  573         hx     19    bbb     H2    573 0.12219000   1.008000   ; qtot 19.211489
  574         c3     19    bbb     C2    574 -0.07020100  12.010000   ; qtot 19.141288
  575         hx     19    bbb     H3    575 0.12219000   1.008000   ; qtot 19.263478
  576         hx     19    bbb     H4    576 0.12219000   1.008000   ; qtot 19.385668
  577         c3     19    bbb     C3    577 -0.39007700  12.010000   ; qtot 18.995591
  578         hx     19    bbb     H5    578 0.14940300   1.008000   ; qtot 19.144994
  579         hx     19    bbb     H6    579 0.14940300   1.008000   ; qtot 19.294397
  580         c3     19    bbb     C4    580 0.18057300  12.010000   ; qtot 19.474970
  581         hc     19    bbb     H7    581 0.01788900   1.008000   ; qtot 19.492859
  582         hc     19    bbb     H8    582 0.01788900   1.008000   ; qtot 19.510748
  583         c3     19    bbb     C5    583 -0.11337700  12.010000   ; qtot 19.397371
  584         hc     19    bbb     H9    584 0.09515400   1.008000   ; qtot 19.492525
  585         hc     19    bbb    H10    585 0.09515400   1.008000   ; qtot 19.587679
  586         c3     19    bbb     C6    586 -0.11337700  12.010000   ; qtot 19.474302
  587         hc     19    bbb    H11    587 0.09515400   1.008000   ; qtot 19.569456
  588         hc     19    bbb    H12    588 0.09515400   1.008000   ; qtot 19.664610
  589         c3     19    bbb     C7    589 0.21842400  12.010000   ; qtot 19.883034
  590         h1     19    bbb    H13    590 0.04500300   1.008000   ; qtot 19.928037
  591         h1     19    bbb    H14    591 0.04500300   1.008000   ; qtot 19.973040
  592         c3     19    bbb     C8    592 -0.06455200  12.010000   ; qtot 19.908488
  593         h1     19    bbb    H15    593 0.13554100   1.008000   ; qtot 20.044029
  594         h1     19    bbb    H16    594 0.13554100   1.008000   ; qtot 20.179570
  595         c3     19    bbb     C9    595 -0.06455200  12.010000   ; qtot 20.115018
  596         h1     19    bbb    H17    596 0.13554100   1.008000   ; qtot 20.250559
  597         h1     19    bbb    H18    597 0.13554100   1.008000   ; qtot 20.386100
  598         os     19    bbb     O1    598 -0.62587700  16.000000   ; qtot 19.760223
  599         hn     19    bbb    H19    599 0.23982500   1.008000   ; qtot 20.000048
; residue   20 bbb rtp bbb q 1.0
  600         n4     20    bbb     N1    600 0.03726400  14.010000   ; qtot 20.037312
  601         c3     20    bbb     C1    601 -0.07020100  12.010000   ; qtot 19.967111
  602         hx     20    bbb     H1    602 0.12219000   1.008000   ; qtot 20.089301
  603         hx     20    bbb     H2    603 0.12219000   1.008000   ; qtot 20.211491
  604         c3     20    bbb     C2    604 -0.07020100  12.010000   ; qtot 20.141290
  605         hx     20    bbb     H3    605 0.12219000   1.008000   ; qtot 20.263480
  606         hx     20    bbb     H4    606 0.12219000   1.008000   ; qtot 20.385670
  607         c3     20    bbb     C3    607 -0.39007700  12.010000   ; qtot 19.995593
  608         hx     20    bbb     H5    608 0.14940300   1.008000   ; qtot 20.144996
  609         hx     20    bbb     H6    609 0.14940300   1.008000   ; qtot 20.294399
  610         c3     20    bbb     C4    610 0.18057300  12.010000   ; qtot 20.474972
  611         hc     20    bbb     H7    611 0.01788900   1.008000   ; qtot 20.492861
  612         hc     20    bbb     H8    612 0.01788900   1.008000   ; qtot 20.510750
  613         c3     20    bbb     C5    613 -0.11337700  12.010000   ; qtot 20.397373
  614         hc     20    bbb     H9    614 0.09515400   1.008000   ; qtot 20.492527
  615         hc     20    bbb    H10    615 0.09515400   1.008000   ; qtot 20.587681
  616         c3     20    bbb     C6    616 -0.11337700  12.010000   ; qtot 20.474304
  617         hc     20    bbb    H11    617 0.09515400   1.008000   ; qtot 20.569458
  618         hc     20    bbb    H12    618 0.09515400   1.008000   ; qtot 20.664612
  619         c3     20    bbb     C7    619 0.21842400  12.010000   ; qtot 20.883036
  620         h1     20    bbb    H13    620 0.04500300   1.008000   ; qtot 20.928039
  621         h1     20    bbb    H14    621 0.04500300   1.008000   ; qtot 20.973042
  622         c3     20    bbb     C8    622 -0.06455200  12.010000   ; qtot 20.908490
  623         h1     20    bbb    H15    623 0.13554100   1.008000   ; qtot 21.044031
  624         h1     20    bbb    H16    624 0.13554100   1.008000   ; qtot 21.179572
  625         c3     20    bbb     C9    625 -0.06455200  12.010000   ; qtot 21.115020
  626         h1     20    bbb    H17    626 0.13554100   1.008000   ; qtot 21.250561
  627         h1     20    bbb    H18    627 0.13554100   1.008000   ; qtot 21.386102
  628         os     20    bbb     O1    628 -0.62587700  16.000000   ; qtot 20.760225
  629         hn     20    bbb    H19    629 0.23982500   1.008000   ; qtot 21.000050
; residue   21 bbb rtp bbb q 1.0
  630         n4     21    bbb     N1    630 0.03726400  14.010000   ; qtot 21.037314
  631         c3     21    bbb     C1    631 -0.07020100  12.010000   ; qtot 20.967113
  632         hx     21    bbb     H1    632 0.12219000   1.008000   ; qtot 21.089303
  633         hx     21    bbb     H2    633 0.12219000   1.008000   ; qtot 21.211493
  634         c3     21    bbb     C2    634 -0.07020100  12.010000   ; qtot 21.141292
  635         hx     21    bbb     H3    635 0.12219000   1.008000   ; qtot 21.263482
  636         hx     21    bbb     H4    636 0.12219000   1.008000   ; qtot 21.385672
  637         c3     21    bbb     C3    637 -0.39007700  12.010000   ; qtot 20.995595
  638         hx     21    bbb     H5    638 0.14940300   1.008000   ; qtot 21.144998
  639         hx     21    bbb     H6    639 0.14940300   1.008000   ; qtot 21.294401
  640         c3     21    bbb     C4    640 0.18057300  12.010000   ; qtot 21.474974
  641         hc     21    bbb     H7    641 0.01788900   1.008000   ; qtot 21.492863
  642         hc     21    bbb     H8    642 0.01788900   1.008000   ; qtot 21.510752
  643         c3     21    bbb     C5    643 -0.11337700  12.010000   ; qtot 21.397375
  644         hc     21    bbb     H9    644 0.09515400   1.008000   ; qtot 21.492529
  645         hc     21    bbb    H10    645 0.09515400   1.008000   ; qtot 21.587683
  646         c3     21    bbb     C6    646 -0.11337700  12.010000   ; qtot 21.474306
  647         hc     21    bbb    H11    647 0.09515400   1.008000   ; qtot 21.569460
  648         hc     21    bbb    H12    648 0.09515400   1.008000   ; qtot 21.664614
  649         c3     21    bbb     C7    649 0.21842400  12.010000   ; qtot 21.883038
  650         h1     21    bbb    H13    650 0.04500300   1.008000   ; qtot 21.928041
  651         h1     21    bbb    H14    651 0.04500300   1.008000   ; qtot 21.973044
  652         c3     21    bbb     C8    652 -0.06455200  12.010000   ; qtot 21.908492
  653         h1     21    bbb    H15    653 0.13554100   1.008000   ; qtot 22.044033
  654         h1     21    bbb    H16    654 0.13554100   1.008000   ; qtot 22.179574
  655         c3     21    bbb     C9    655 -0.06455200  12.010000   ; qtot 22.115022
  656         h1     21    bbb    H17    656 0.13554100   1.008000   ; qtot 22.250563
  657         h1     21    bbb    H18    657 0.13554100   1.008000   ; qtot 22.386104
  658         os     21    bbb     O1    658 -0.62587700  16.000000   ; qtot 21.760227
  659         hn     21    bbb    H19    659 0.23982500   1.008000   ; qtot 22.000052
; residue   22 bbb rtp bbb q 1.0
  660         n4     22    bbb     N1    660 0.03726400  14.010000   ; qtot 22.037316
  661         c3     22    bbb     C1    661 -0.07020100  12.010000   ; qtot 21.967115
  662         hx     22    bbb     H1    662 0.12219000   1.008000   ; qtot 22.089305
  663         hx     22    bbb     H2    663 0.12219000   1.008000   ; qtot 22.211495
  664         c3     22    bbb     C2    664 -0.07020100  12.010000   ; qtot 22.141294
  665         hx     22    bbb     H3    665 0.12219000   1.008000   ; qtot 22.263484
  666         hx     22    bbb     H4    666 0.12219000   1.008000   ; qtot 22.385674
  667         c3     22    bbb     C3    667 -0.39007700  12.010000   ; qtot 21.995597
  668         hx     22    bbb     H5    668 0.14940300   1.008000   ; qtot 22.145000
  669         hx     22    bbb     H6    669 0.14940300   1.008000   ; qtot 22.294403
  670         c3     22    bbb     C4    670 0.18057300  12.010000   ; qtot 22.474976
  671         hc     22    bbb     H7    671 0.01788900   1.008000   ; qtot 22.492865
  672         hc     22    bbb     H8    672 0.01788900   1.008000   ; qtot 22.510754
  673         c3     22    bbb     C5    673 -0.11337700  12.010000   ; qtot 22.397377
  674         hc     22    bbb     H9    674 0.09515400   1.008000   ; qtot 22.492531
  675         hc     22    bbb    H10    675 0.09515400   1.008000   ; qtot 22.587685
  676         c3     22    bbb     C6    676 -0.11337700  12.010000   ; qtot 22.474308
  677         hc     22    bbb    H11    677 0.09515400   1.008000   ; qtot 22.569462
  678         hc     22    bbb    H12    678 0.09515400   1.008000   ; qtot 22.664616
  679         c3     22    bbb     C7    679 0.21842400  12.010000   ; qtot 22.883040
  680         h1     22    bbb    H13    680 0.04500300   1.008000   ; qtot 22.928043
  681         h1     22    bbb    H14    681 0.04500300   1.008000   ; qtot 22.973046
  682         c3     22    bbb     C8    682 -0.06455200  12.010000   ; qtot 22.908494
  683         h1     22    bbb    H15    683 0.13554100   1.008000   ; qtot 23.044035
  684         h1     22    bbb    H16    684 0.13554100   1.008000   ; qtot 23.179576
  685         c3     22    bbb     C9    685 -0.06455200  12.010000   ; qtot 23.115024
  686         h1     22    bbb    H17    686 0.13554100   1.008000   ; qtot 23.250565
  687         h1     22    bbb    H18    687 0.13554100   1.008000   ; qtot 23.386106
  688         os     22    bbb     O1    688 -0.62587700  16.000000   ; qtot 22.760229
  689         hn     22    bbb    H19    689 0.23982500   1.008000   ; qtot 23.000054
; residue   23 bbb rtp bbb q 1.0
  690         n4     23    bbb     N1    690 0.03726400  14.010000   ; qtot 23.037318
  691         c3     23    bbb     C1    691 -0.07020100  12.010000   ; qtot 22.967117
  692         hx     23    bbb     H1    692 0.12219000   1.008000   ; qtot 23.089307
  693         hx     23    bbb     H2    693 0.12219000   1.008000   ; qtot 23.211497
  694         c3     23    bbb     C2    694 -0.07020100  12.010000   ; qtot 23.141296
  695         hx     23    bbb     H3    695 0.12219000   1.008000   ; qtot 23.263486
  696         hx     23    bbb     H4    696 0.12219000   1.008000   ; qtot 23.385676
  697         c3     23    bbb     C3    697 -0.39007700  12.010000   ; qtot 22.995599
  698         hx     23    bbb     H5    698 0.14940300   1.008000   ; qtot 23.145002
  699         hx     23    bbb     H6    699 0.14940300   1.008000   ; qtot 23.294405
  700         c3     23    bbb     C4    700 0.18057300  12.010000   ; qtot 23.474978
  701         hc     23    bbb     H7    701 0.01788900   1.008000   ; qtot 23.492867
  702         hc     23    bbb     H8    702 0.01788900   1.008000   ; qtot 23.510756
  703         c3     23    bbb     C5    703 -0.11337700  12.010000   ; qtot 23.397379
  704         hc     23    bbb     H9    704 0.09515400   1.008000   ; qtot 23.492533
  705         hc     23    bbb    H10    705 0.09515400   1.008000   ; qtot 23.587687
  706         c3     23    bbb     C6    706 -0.11337700  12.010000   ; qtot 23.474310
  707         hc     23    bbb    H11    707 0.09515400   1.008000   ; qtot 23.569464
  708         hc     23    bbb    H12    708 0.09515400   1.008000   ; qtot 23.664618
  709         c3     23    bbb     C7    709 0.21842400  12.010000   ; qtot 23.883042
  710         h1     23    bbb    H13    710 0.04500300   1.008000   ; qtot 23.928045
  711         h1     23    bbb    H14    711 0.04500300   1.008000   ; qtot 23.973048
  712         c3     23    bbb     C8    712 -0.06455200  12.010000   ; qtot 23.908496
  713         h1     23    bbb    H15    713 0.13554100   1.008000   ; qtot 24.044037
  714         h1     23    bbb    H16    714 0.13554100   1.008000   ; qtot 24.179578
  715         c3     23    bbb     C9    715 -0.06455200  12.010000   ; qtot 24.115026
  716         h1     23    bbb    H17    716 0.13554100   1.008000   ; qtot 24.250567
  717         h1     23    bbb    H18    717 0.13554100   1.008000   ; qtot 24.386108
  718         os     23    bbb     O1    718 -0.62587700  16.000000   ; qtot 23.760231
  719         hn     23    bbb    H19    719 0.23982500   1.008000   ; qtot 24.000056
; residue   24 bbb rtp bbb q 1.0
  720         n4     24    bbb     N1    720 0.03726400  14.010000   ; qtot 24.037320
  721         c3     24    bbb     C1    721 -0.07020100  12.010000   ; qtot 23.967119
  722         hx     24    bbb     H1    722 0.12219000   1.008000   ; qtot 24.089309
  723         hx     24    bbb     H2    723 0.12219000   1.008000   ; qtot 24.211499
  724         c3     24    bbb     C2    724 -0.07020100  12.010000   ; qtot 24.141298
  725         hx     24    bbb     H3    725 0.12219000   1.008000   ; qtot 24.263488
  726         hx     24    bbb     H4    726 0.12219000   1.008000   ; qtot 24.385678
  727         c3     24    bbb     C3    727 -0.39007700  12.010000   ; qtot 23.995601
  728         hx     24    bbb     H5    728 0.14940300   1.008000   ; qtot 24.145004
  729         hx     24    bbb     H6    729 0.14940300   1.008000   ; qtot 24.294407
  730         c3     24    bbb     C4    730 0.18057300  12.010000   ; qtot 24.474980
  731         hc     24    bbb     H7    731 0.01788900   1.008000   ; qtot 24.492869
  732         hc     24    bbb     H8    732 0.01788900   1.008000   ; qtot 24.510758
  733         c3     24    bbb     C5    733 -0.11337700  12.010000   ; qtot 24.397381
  734         hc     24    bbb     H9    734 0.09515400   1.008000   ; qtot 24.492535
  735         hc     24    bbb    H10    735 0.09515400   1.008000   ; qtot 24.587689
  736         c3     24    bbb     C6    736 -0.11337700  12.010000   ; qtot 24.474312
  737         hc     24    bbb    H11    737 0.09515400   1.008000   ; qtot 24.569466
  738         hc     24    bbb    H12    738 0.09515400   1.008000   ; qtot 24.664620
  739         c3     24    bbb     C7    739 0.21842400  12.010000   ; qtot 24.883044
  740         h1     24    bbb    H13    740 0.04500300   1.008000   ; qtot 24.928047
  741         h1     24    bbb    H14    741 0.04500300   1.008000   ; qtot 24.973050
  742         c3     24    bbb     C8    742 -0.06455200  12.010000   ; qtot 24.908498
  743         h1     24    bbb    H15    743 0.13554100   1.008000   ; qtot 25.044039
  744         h1     24    bbb    H16    744 0.13554100   1.008000   ; qtot 25.179580
  745         c3     24    bbb     C9    745 -0.06455200  12.010000   ; qtot 25.115028
  746         h1     24    bbb    H17    746 0.13554100   1.008000   ; qtot 25.250569
  747         h1     24    bbb    H18    747 0.13554100   1.008000   ; qtot 25.386110
  748         os     24    bbb     O1    748 -0.62587700  16.000000   ; qtot 24.760233
  749         hn     24    bbb    H19    749 0.23982500   1.008000   ; qtot 25.000058
; residue   25 bbb rtp bbb q 1.0
  750         n4     25    bbb     N1    750 0.03726400  14.010000   ; qtot 25.037322
  751         c3     25    bbb     C1    751 -0.07020100  12.010000   ; qtot 24.967121
  752         hx     25    bbb     H1    752 0.12219000   1.008000   ; qtot 25.089311
  753         hx     25    bbb     H2    753 0.12219000   1.008000   ; qtot 25.211501
  754         c3     25    bbb     C2    754 -0.07020100  12.010000   ; qtot 25.141300
  755         hx     25    bbb     H3    755 0.12219000   1.008000   ; qtot 25.263490
  756         hx     25    bbb     H4    756 0.12219000   1.008000   ; qtot 25.385680
  757         c3     25    bbb     C3    757 -0.39007700  12.010000   ; qtot 24.995603
  758         hx     25    bbb     H5    758 0.14940300   1.008000   ; qtot 25.145006
  759         hx     25    bbb     H6    759 0.14940300   1.008000   ; qtot 25.294409
  760         c3     25    bbb     C4    760 0.18057300  12.010000   ; qtot 25.474982
  761         hc     25    bbb     H7    761 0.01788900   1.008000   ; qtot 25.492871
  762         hc     25    bbb     H8    762 0.01788900   1.008000   ; qtot 25.510760
  763         c3     25    bbb     C5    763 -0.11337700  12.010000   ; qtot 25.397383
  764         hc     25    bbb     H9    764 0.09515400   1.008000   ; qtot 25.492537
  765         hc     25    bbb    H10    765 0.09515400   1.008000   ; qtot 25.587691
  766         c3     25    bbb     C6    766 -0.11337700  12.010000   ; qtot 25.474314
  767         hc     25    bbb    H11    767 0.09515400   1.008000   ; qtot 25.569468
  768         hc     25    bbb    H12    768 0.09515400   1.008000   ; qtot 25.664622
  769         c3     25    bbb     C7    769 0.21842400  12.010000   ; qtot 25.883046
  770         h1     25    bbb    H13    770 0.04500300   1.008000   ; qtot 25.928049
  771         h1     25    bbb    H14    771 0.04500300   1.008000   ; qtot 25.973052
  772         c3     25    bbb     C8    772 -0.06455200  12.010000   ; qtot 25.908500
  773         h1     25    bbb    H15    773 0.13554100   1.008000   ; qtot 26.044041
  774         h1     25    bbb    H16    774 0.13554100   1.008000   ; qtot 26.179582
  775         c3     25    bbb     C9    775 -0.06455200  12.010000   ; qtot 26.115030
  776         h1     25    bbb    H17    776 0.13554100   1.008000   ; qtot 26.250571
  777         h1     25    bbb    H18    777 0.13554100   1.008000   ; qtot 26.386112
  778         os     25    bbb     O1    778 -0.62587700  16.000000   ; qtot 25.760235
  779         hn     25    bbb    H19    779 0.23982500   1.008000   ; qtot 26.000060
; residue   26 bbb rtp bbb q 1.0
  780         n4     26    bbb     N1    780 0.03726400  14.010000   ; qtot 26.037324
  781         c3     26    bbb     C1    781 -0.07020100  12.010000   ; qtot 25.967123
  782         hx     26    bbb     H1    782 0.12219000   1.008000   ; qtot 26.089313
  783         hx     26    bbb     H2    783 0.12219000   1.008000   ; qtot 26.211503
  784         c3     26    bbb     C2    784 -0.07020100  12.010000   ; qtot 26.141302
  785         hx     26    bbb     H3    785 0.12219000   1.008000   ; qtot 26.263492
  786         hx     26    bbb     H4    786 0.12219000   1.008000   ; qtot 26.385682
  787         c3     26    bbb     C3    787 -0.39007700  12.010000   ; qtot 25.995605
  788         hx     26    bbb     H5    788 0.14940300   1.008000   ; qtot 26.145008
  789         hx     26    bbb     H6    789 0.14940300   1.008000   ; qtot 26.294411
  790         c3     26    bbb     C4    790 0.18057300  12.010000   ; qtot 26.474984
  791         hc     26    bbb     H7    791 0.01788900   1.008000   ; qtot 26.492873
  792         hc     26    bbb     H8    792 0.01788900   1.008000   ; qtot 26.510762
  793         c3     26    bbb     C5    793 -0.11337700  12.010000   ; qtot 26.397385
  794         hc     26    bbb     H9    794 0.09515400   1.008000   ; qtot 26.492539
  795         hc     26    bbb    H10    795 0.09515400   1.008000   ; qtot 26.587693
  796         c3     26    bbb     C6    796 -0.11337700  12.010000   ; qtot 26.474316
  797         hc     26    bbb    H11    797 0.09515400   1.008000   ; qtot 26.569470
  798         hc     26    bbb    H12    798 0.09515400   1.008000   ; qtot 26.664624
  799         c3     26    bbb     C7    799 0.21842400  12.010000   ; qtot 26.883048
  800         h1     26    bbb    H13    800 0.04500300   1.008000   ; qtot 26.928051
  801         h1     26    bbb    H14    801 0.04500300   1.008000   ; qtot 26.973054
  802         c3     26    bbb     C8    802 -0.06455200  12.010000   ; qtot 26.908502
  803         h1     26    bbb    H15    803 0.13554100   1.008000   ; qtot 27.044043
  804         h1     26    bbb    H16    804 0.13554100   1.008000   ; qtot 27.179584
  805         c3     26    bbb     C9    805 -0.06455200  12.010000   ; qtot 27.115032
  806         h1     26    bbb    H17    806 0.13554100   1.008000   ; qtot 27.250573
  807         h1     26    bbb    H18    807 0.13554100   1.008000   ; qtot 27.386114
  808         os     26    bbb     O1    808 -0.62587700  16.000000   ; qtot 26.760237
  809         hn     26    bbb    H19    809 0.23982500   1.008000   ; qtot 27.000062
; residue   27 bbb rtp bbb q 1.0
  810         n4     27    bbb     N1    810 0.03726400  14.010000   ; qtot 27.037326
  811         c3     27    bbb     C1    811 -0.07020100  12.010000   ; qtot 26.967125
  812         hx     27    bbb     H1    812 0.12219000   1.008000   ; qtot 27.089315
  813         hx     27    bbb     H2    813 0.12219000   1.008000   ; qtot 27.211505
  814         c3     27    bbb     C2    814 -0.07020100  12.010000   ; qtot 27.141304
  815         hx     27    bbb     H3    815 0.12219000   1.008000   ; qtot 27.263494
  816         hx     27    bbb     H4    816 0.12219000   1.008000   ; qtot 27.385684
  817         c3     27    bbb     C3    817 -0.39007700  12.010000   ; qtot 26.995607
  818         hx     27    bbb     H5    818 0.14940300   1.008000   ; qtot 27.145010
  819         hx     27    bbb     H6    819 0.14940300   1.008000   ; qtot 27.294413
  820         c3     27    bbb     C4    820 0.18057300  12.010000   ; qtot 27.474986
  821         hc     27    bbb     H7    821 0.01788900   1.008000   ; qtot 27.492875
  822         hc     27    bbb     H8    822 0.01788900   1.008000   ; qtot 27.510764
  823         c3     27    bbb     C5    823 -0.11337700  12.010000   ; qtot 27.397387
  824         hc     27    bbb     H9    824 0.09515400   1.008000   ; qtot 27.492541
  825         hc     27    bbb    H10    825 0.09515400   1.008000   ; qtot 27.587695
  826         c3     27    bbb     C6    826 -0.11337700  12.010000   ; qtot 27.474318
  827         hc     27    bbb    H11    827 0.09515400   1.008000   ; qtot 27.569472
  828         hc     27    bbb    H12    828 0.09515400   1.008000   ; qtot 27.664626
  829         c3     27    bbb     C7    829 0.21842400  12.010000   ; qtot 27.883050
  830         h1     27    bbb    H13    830 0.04500300   1.008000   ; qtot 27.928053
  831         h1     27    bbb    H14    831 0.04500300   1.008000   ; qtot 27.973056
  832         c3     27    bbb     C8    832 -0.06455200  12.010000   ; qtot 27.908504
  833         h1     27    bbb    H15    833 0.13554100   1.008000   ; qtot 28.044045
  834         h1     27    bbb    H16    834 0.13554100   1.008000   ; qtot 28.179586
  835         c3     27    bbb     C9    835 -0.06455200  12.010000   ; qtot 28.115034
  836         h1     27    bbb    H17    836 0.13554100   1.008000   ; qtot 28.250575
  837         h1     27    bbb    H18    837 0.13554100   1.008000   ; qtot 28.386116
  838         os     27    bbb     O1    838 -0.62587700  16.000000   ; qtot 27.760239
  839         hn     27    bbb    H19    839 0.23982500   1.008000   ; qtot 28.000064
; residue   28 bbb rtp bbb q 1.0
  840         n4     28    bbb     N1    840 0.03726400  14.010000   ; qtot 28.037328
  841         c3     28    bbb     C1    841 -0.07020100  12.010000   ; qtot 27.967127
  842         hx     28    bbb     H1    842 0.12219000   1.008000   ; qtot 28.089317
  843         hx     28    bbb     H2    843 0.12219000   1.008000   ; qtot 28.211507
  844         c3     28    bbb     C2    844 -0.07020100  12.010000   ; qtot 28.141306
  845         hx     28    bbb     H3    845 0.12219000   1.008000   ; qtot 28.263496
  846         hx     28    bbb     H4    846 0.12219000   1.008000   ; qtot 28.385686
  847         c3     28    bbb     C3    847 -0.39007700  12.010000   ; qtot 27.995609
  848         hx     28    bbb     H5    848 0.14940300   1.008000   ; qtot 28.145012
  849         hx     28    bbb     H6    849 0.14940300   1.008000   ; qtot 28.294415
  850         c3     28    bbb     C4    850 0.18057300  12.010000   ; qtot 28.474988
  851         hc     28    bbb     H7    851 0.01788900   1.008000   ; qtot 28.492877
  852         hc     28    bbb     H8    852 0.01788900   1.008000   ; qtot 28.510766
  853         c3     28    bbb     C5    853 -0.11337700  12.010000   ; qtot 28.397389
  854         hc     28    bbb     H9    854 0.09515400   1.008000   ; qtot 28.492543
  855         hc     28    bbb    H10    855 0.09515400   1.008000   ; qtot 28.587697
  856         c3     28    bbb     C6    856 -0.11337700  12.010000   ; qtot 28.474320
  857         hc     28    bbb    H11    857 0.09515400   1.008000   ; qtot 28.569474
  858         hc     28    bbb    H12    858 0.09515400   1.008000   ; qtot 28.664628
  859         c3     28    bbb     C7    859 0.21842400  12.010000   ; qtot 28.883052
  860         h1     28    bbb    H13    860 0.04500300   1.008000   ; qtot 28.928055
  861         h1     28    bbb    H14    861 0.04500300   1.008000   ; qtot 28.973058
  862         c3     28    bbb     C8    862 -0.06455200  12.010000   ; qtot 28.908506
  863         h1     28    bbb    H15    863 0.13554100   1.008000   ; qtot 29.044047
  864         h1     28    bbb    H16    864 0.13554100   1.008000   ; qtot 29.179588
  865         c3     28    bbb     C9    865 -0.06455200  12.010000   ; qtot 29.115036
  866         h1     28    bbb    H17    866 0.13554100   1.008000   ; qtot 29.250577
  867         h1     28    bbb    H18    867 0.13554100   1.008000   ; qtot 29.386118
  868         os     28    bbb     O1    868 -0.62587700  16.000000   ; qtot 28.760241
  869         hn     28    bbb    H19    869 0.23982500   1.008000   ; qtot 29.000066
; residue   29 bbb rtp bbb q 1.0
  870         n4     29    bbb     N1    870 0.03726400  14.010000   ; qtot 29.037330
  871         c3     29    bbb     C1    871 -0.07020100  12.010000   ; qtot 28.967129
  872         hx     29    bbb     H1    872 0.12219000   1.008000   ; qtot 29.089319
  873         hx     29    bbb     H2    873 0.12219000   1.008000   ; qtot 29.211509
  874         c3     29    bbb     C2    874 -0.07020100  12.010000   ; qtot 29.141308
  875         hx     29    bbb     H3    875 0.12219000   1.008000   ; qtot 29.263498
  876         hx     29    bbb     H4    876 0.12219000   1.008000   ; qtot 29.385688
  877         c3     29    bbb     C3    877 -0.39007700  12.010000   ; qtot 28.995611
  878         hx     29    bbb     H5    878 0.14940300   1.008000   ; qtot 29.145014
  879         hx     29    bbb     H6    879 0.14940300   1.008000   ; qtot 29.294417
  880         c3     29    bbb     C4    880 0.18057300  12.010000   ; qtot 29.474990
  881         hc     29    bbb     H7    881 0.01788900   1.008000   ; qtot 29.492879
  882         hc     29    bbb     H8    882 0.01788900   1.008000   ; qtot 29.510768
  883         c3     29    bbb     C5    883 -0.11337700  12.010000   ; qtot 29.397391
  884         hc     29    bbb     H9    884 0.09515400   1.008000   ; qtot 29.492545
  885         hc     29    bbb    H10    885 0.09515400   1.008000   ; qtot 29.587699
  886         c3     29    bbb     C6    886 -0.11337700  12.010000   ; qtot 29.474322
  887         hc     29    bbb    H11    887 0.09515400   1.008000   ; qtot 29.569476
  888         hc     29    bbb    H12    888 0.09515400   1.008000   ; qtot 29.664630
  889         c3     29    bbb     C7    889 0.21842400  12.010000   ; qtot 29.883054
  890         h1     29    bbb    H13    890 0.04500300   1.008000   ; qtot 29.928057
  891         h1     29    bbb    H14    891 0.04500300   1.008000   ; qtot 29.973060
  892         c3     29    bbb     C8    892 -0.06455200  12.010000   ; qtot 29.908508
  893         h1     29    bbb    H15    893 0.13554100   1.008000   ; qtot 30.044049
  894         h1     29    bbb    H16    894 0.13554100   1.008000   ; qtot 30.179590
  895         c3     29    bbb     C9    895 -0.06455200  12.010000   ; qtot 30.115038
  896         h1     29    bbb    H17    896 0.13554100   1.008000   ; qtot 30.250579
  897         h1     29    bbb    H18    897 0.13554100   1.008000   ; qtot 30.386120
  898         os     29    bbb     O1    898 -0.62587700  16.000000   ; qtot 29.760243
  899         hn     29    bbb    H19    899 0.23982500   1.008000   ; qtot 30.000068
; residue   30 bbb rtp bbb q 1.0
  900         n4     30    bbb     N1    900 0.03726400  14.010000   ; qtot 30.037332
  901         c3     30    bbb     C1    901 -0.07020100  12.010000   ; qtot 29.967131
  902         hx     30    bbb     H1    902 0.12219000   1.008000   ; qtot 30.089321
  903         hx     30    bbb     H2    903 0.12219000   1.008000   ; qtot 30.211511
  904         c3     30    bbb     C2    904 -0.07020100  12.010000   ; qtot 30.141310
  905         hx     30    bbb     H3    905 0.12219000   1.008000   ; qtot 30.263500
  906         hx     30    bbb     H4    906 0.12219000   1.008000   ; qtot 30.385690
  907         c3     30    bbb     C3    907 -0.39007700  12.010000   ; qtot 29.995613
  908         hx     30    bbb     H5    908 0.14940300   1.008000   ; qtot 30.145016
  909         hx     30    bbb     H6    909 0.14940300   1.008000   ; qtot 30.294419
  910         c3     30    bbb     C4    910 0.18057300  12.010000   ; qtot 30.474992
  911         hc     30    bbb     H7    911 0.01788900   1.008000   ; qtot 30.492881
  912         hc     30    bbb     H8    912 0.01788900   1.008000   ; qtot 30.510770
  913         c3     30    bbb     C5    913 -0.11337700  12.010000   ; qtot 30.397393
  914         hc     30    bbb     H9    914 0.09515400   1.008000   ; qtot 30.492547
  915         hc     30    bbb    H10    915 0.09515400   1.008000   ; qtot 30.587701
  916         c3     30    bbb     C6    916 -0.11337700  12.010000   ; qtot 30.474324
  917         hc     30    bbb    H11    917 0.09515400   1.008000   ; qtot 30.569478
  918         hc     30    bbb    H12    918 0.09515400   1.008000   ; qtot 30.664632
  919         c3     30    bbb     C7    919 0.21842400  12.010000   ; qtot 30.883056
  920         h1     30    bbb    H13    920 0.04500300   1.008000   ; qtot 30.928059
  921         h1     30    bbb    H14    921 0.04500300   1.008000   ; qtot 30.973062
  922         c3     30    bbb     C8    922 -0.06455200  12.010000   ; qtot 30.908510
  923         h1     30    bbb    H15    923 0.13554100   1.008000   ; qtot 31.044051
  924         h1     30    bbb    H16    924 0.13554100   1.008000   ; qtot 31.179592
  925         c3     30    bbb     C9    925 -0.06455200  12.010000   ; qtot 31.115040
  926         h1     30    bbb    H17    926 0.13554100   1.008000   ; qtot 31.250581
  927         h1     30    bbb    H18    927 0.13554100   1.008000   ; qtot 31.386122
  928         os     30    bbb     O1    928 -0.62587700  16.000000   ; qtot 30.760245
  929         hn     30    bbb    H19    929 0.23982500   1.008000   ; qtot 31.000070
; residue   31 bbb rtp bbb q 1.0
  930         n4     31    bbb     N1    930 0.03726400  14.010000   ; qtot 31.037334
  931         c3     31    bbb     C1    931 -0.07020100  12.010000   ; qtot 30.967133
  932         hx     31    bbb     H1    932 0.12219000   1.008000   ; qtot 31.089323
  933         hx     31    bbb     H2    933 0.12219000   1.008000   ; qtot 31.211513
  934         c3     31    bbb     C2    934 -0.07020100  12.010000   ; qtot 31.141312
  935         hx     31    bbb     H3    935 0.12219000   1.008000   ; qtot 31.263502
  936         hx     31    bbb     H4    936 0.12219000   1.008000   ; qtot 31.385692
  937         c3     31    bbb     C3    937 -0.39007700  12.010000   ; qtot 30.995615
  938         hx     31    bbb     H5    938 0.14940300   1.008000   ; qtot 31.145018
  939         hx     31    bbb     H6    939 0.14940300   1.008000   ; qtot 31.294421
  940         c3     31    bbb     C4    940 0.18057300  12.010000   ; qtot 31.474994
  941         hc     31    bbb     H7    941 0.01788900   1.008000   ; qtot 31.492883
  942         hc     31    bbb     H8    942 0.01788900   1.008000   ; qtot 31.510772
  943         c3     31    bbb     C5    943 -0.11337700  12.010000   ; qtot 31.397395
  944         hc     31    bbb     H9    944 0.09515400   1.008000   ; qtot 31.492549
  945         hc     31    bbb    H10    945 0.09515400   1.008000   ; qtot 31.587703
  946         c3     31    bbb     C6    946 -0.11337700  12.010000   ; qtot 31.474326
  947         hc     31    bbb    H11    947 0.09515400   1.008000   ; qtot 31.569480
  948         hc     31    bbb    H12    948 0.09515400   1.008000   ; qtot 31.664634
  949         c3     31    bbb     C7    949 0.21842400  12.010000   ; qtot 31.883058
  950         h1     31    bbb    H13    950 0.04500300   1.008000   ; qtot 31.928061
  951         h1     31    bbb    H14    951 0.04500300   1.008000   ; qtot 31.973064
  952         c3     31    bbb     C8    952 -0.06455200  12.010000   ; qtot 31.908512
  953         h1     31    bbb    H15    953 0.13554100   1.008000   ; qtot 32.044053
  954         h1     31    bbb    H16    954 0.13554100   1.008000   ; qtot 32.179594
  955         c3     31    bbb     C9    955 -0.06455200  12.010000   ; qtot 32.115042
  956         h1     31    bbb    H17    956 0.13554100   1.008000   ; qtot 32.250583
  957         h1     31    bbb    H18    957 0.13554100   1.008000   ; qtot 32.386124
  958         os     31    bbb     O1    958 -0.62587700  16.000000   ; qtot 31.760247
  959         hn     31    bbb    H19    959 0.23982500   1.008000   ; qtot 32.000072
; residue   32 bbb rtp bbb q 1.0
  960         n4     32    bbb     N1    960 0.03726400  14.010000   ; qtot 32.037336
  961         c3     32    bbb     C1    961 -0.07020100  12.010000   ; qtot 31.967135
  962         hx     32    bbb     H1    962 0.12219000   1.008000   ; qtot 32.089325
  963         hx     32    bbb     H2    963 0.12219000   1.008000   ; qtot 32.211515
  964         c3     32    bbb     C2    964 -0.07020100  12.010000   ; qtot 32.141314
  965         hx     32    bbb     H3    965 0.12219000   1.008000   ; qtot 32.263504
  966         hx     32    bbb     H4    966 0.12219000   1.008000   ; qtot 32.385694
  967         c3     32    bbb     C3    967 -0.39007700  12.010000   ; qtot 31.995617
  968         hx     32    bbb     H5    968 0.14940300   1.008000   ; qtot 32.145020
  969         hx     32    bbb     H6    969 0.14940300   1.008000   ; qtot 32.294423
  970         c3     32    bbb     C4    970 0.18057300  12.010000   ; qtot 32.474996
  971         hc     32    bbb     H7    971 0.01788900   1.008000   ; qtot 32.492885
  972         hc     32    bbb     H8    972 0.01788900   1.008000   ; qtot 32.510774
  973         c3     32    bbb     C5    973 -0.11337700  12.010000   ; qtot 32.397397
  974         hc     32    bbb     H9    974 0.09515400   1.008000   ; qtot 32.492551
  975         hc     32    bbb    H10    975 0.09515400   1.008000   ; qtot 32.587705
  976         c3     32    bbb     C6    976 -0.11337700  12.010000   ; qtot 32.474328
  977         hc     32    bbb    H11    977 0.09515400   1.008000   ; qtot 32.569482
  978         hc     32    bbb    H12    978 0.09515400   1.008000   ; qtot 32.664636
  979         c3     32    bbb     C7    979 0.21842400  12.010000   ; qtot 32.883060
  980         h1     32    bbb    H13    980 0.04500300   1.008000   ; qtot 32.928063
  981         h1     32    bbb    H14    981 0.04500300   1.008000   ; qtot 32.973066
  982         c3     32    bbb     C8    982 -0.06455200  12.010000   ; qtot 32.908514
  983         h1     32    bbb    H15    983 0.13554100   1.008000   ; qtot 33.044055
  984         h1     32    bbb    H16    984 0.13554100   1.008000   ; qtot 33.179596
  985         c3     32    bbb     C9    985 -0.06455200  12.010000   ; qtot 33.115044
  986         h1     32    bbb    H17    986 0.13554100   1.008000   ; qtot 33.250585
  987         h1     32    bbb    H18    987 0.13554100   1.008000   ; qtot 33.386126
  988         os     32    bbb     O1    988 -0.62587700  16.000000   ; qtot 32.760249
  989         hn     32    bbb    H19    989 0.23982500   1.008000   ; qtot 33.000074
; residue   33 bbb rtp bbb q 1.0
  990         n4     33    bbb     N1    990 0.03726400  14.010000   ; qtot 33.037338
  991         c3     33    bbb     C1    991 -0.07020100  12.010000   ; qtot 32.967137
  992         hx     33    bbb     H1    992 0.12219000   1.008000   ; qtot 33.089327
  993         hx     33    bbb     H2    993 0.12219000   1.008000   ; qtot 33.211517
  994         c3     33    bbb     C2    994 -0.07020100  12.010000   ; qtot 33.141316
  995         hx     33    bbb     H3    995 0.12219000   1.008000   ; qtot 33.263506
  996         hx     33    bbb     H4    996 0.12219000   1.008000   ; qtot 33.385696
  997         c3     33    bbb     C3    997 -0.39007700  12.010000   ; qtot 32.995619
  998         hx     33    bbb     H5    998 0.14940300   1.008000   ; qtot 33.145022
  999         hx     33    bbb     H6    999 0.14940300   1.008000   ; qtot 33.294425
 1000         c3     33    bbb     C4   1000 0.18057300  12.010000   ; qtot 33.474998
 1001         hc     33    bbb     H7   1001 0.01788900   1.008000   ; qtot 33.492887
 1002         hc     33    bbb     H8   1002 0.01788900   1.008000   ; qtot 33.510776
 1003         c3     33    bbb     C5   1003 -0.11337700  12.010000   ; qtot 33.397399
 1004         hc     33    bbb     H9   1004 0.09515400   1.008000   ; qtot 33.492553
 1005         hc     33    bbb    H10   1005 0.09515400   1.008000   ; qtot 33.587707
 1006         c3     33    bbb     C6   1006 -0.11337700  12.010000   ; qtot 33.474330
 1007         hc     33    bbb    H11   1007 0.09515400   1.008000   ; qtot 33.569484
 1008         hc     33    bbb    H12   1008 0.09515400   1.008000   ; qtot 33.664638
 1009         c3     33    bbb     C7   1009 0.21842400  12.010000   ; qtot 33.883062
 1010         h1     33    bbb    H13   1010 0.04500300   1.008000   ; qtot 33.928065
 1011         h1     33    bbb    H14   1011 0.04500300   1.008000   ; qtot 33.973068
 1012         c3     33    bbb     C8   1012 -0.06455200  12.010000   ; qtot 33.908516
 1013         h1     33    bbb    H15   1013 0.13554100   1.008000   ; qtot 34.044057
 1014         h1     33    bbb    H16   1014 0.13554100   1.008000   ; qtot 34.179598
 1015         c3     33    bbb     C9   1015 -0.06455200  12.010000   ; qtot 34.115046
 1016         h1     33    bbb    H17   1016 0.13554100   1.008000   ; qtot 34.250587
 1017         h1     33    bbb    H18   1017 0.13554100   1.008000   ; qtot 34.386128
 1018         os     33    bbb     O1   1018 -0.62587700  16.000000   ; qtot 33.760251
 1019         hn     33    bbb    H19   1019 0.23982500   1.008000   ; qtot 34.000076
; residue   34 bbb rtp bbb q 1.0
 1020         n4     34    bbb     N1   1020 0.03726400  14.010000   ; qtot 34.037340
 1021         c3     34    bbb     C1   1021 -0.07020100  12.010000   ; qtot 33.967139
 1022         hx     34    bbb     H1   1022 0.12219000   1.008000   ; qtot 34.089329
 1023         hx     34    bbb     H2   1023 0.12219000   1.008000   ; qtot 34.211519
 1024         c3     34    bbb     C2   1024 -0.07020100  12.010000   ; qtot 34.141318
 1025         hx     34    bbb     H3   1025 0.12219000   1.008000   ; qtot 34.263508
 1026         hx     34    bbb     H4   1026 0.12219000   1.008000   ; qtot 34.385698
 1027         c3     34    bbb     C3   1027 -0.39007700  12.010000   ; qtot 33.995621
 1028         hx     34    bbb     H5   1028 0.14940300   1.008000   ; qtot 34.145024
 1029         hx     34    bbb     H6   1029 0.14940300   1.008000   ; qtot 34.294427
 1030         c3     34    bbb     C4   1030 0.18057300  12.010000   ; qtot 34.475000
 1031         hc     34    bbb     H7   1031 0.01788900   1.008000   ; qtot 34.492889
 1032         hc     34    bbb     H8   1032 0.01788900   1.008000   ; qtot 34.510778
 1033         c3     34    bbb     C5   1033 -0.11337700  12.010000   ; qtot 34.397401
 1034         hc     34    bbb     H9   1034 0.09515400   1.008000   ; qtot 34.492555
 1035         hc     34    bbb    H10   1035 0.09515400   1.008000   ; qtot 34.587709
 1036         c3     34    bbb     C6   1036 -0.11337700  12.010000   ; qtot 34.474332
 1037         hc     34    bbb    H11   1037 0.09515400   1.008000   ; qtot 34.569486
 1038         hc     34    bbb    H12   1038 0.09515400   1.008000   ; qtot 34.664640
 1039         c3     34    bbb     C7   1039 0.21842400  12.010000   ; qtot 34.883064
 1040         h1     34    bbb    H13   1040 0.04500300   1.008000   ; qtot 34.928067
 1041         h1     34    bbb    H14   1041 0.04500300   1.008000   ; qtot 34.973070
 1042         c3     34    bbb     C8   1042 -0.06455200  12.010000   ; qtot 34.908518
 1043         h1     34    bbb    H15   1043 0.13554100   1.008000   ; qtot 35.044059
 1044         h1     34    bbb    H16   1044 0.13554100   1.008000   ; qtot 35.179600
 1045         c3     34    bbb     C9   1045 -0.06455200  12.010000   ; qtot 35.115048
 1046         h1     34    bbb    H17   1046 0.13554100   1.008000   ; qtot 35.250589
 1047         h1     34    bbb    H18   1047 0.13554100   1.008000   ; qtot 35.386130
 1048         os     34    bbb     O1   1048 -0.62587700  16.000000   ; qtot 34.760253
 1049         hn     34    bbb    H19   1049 0.23982500   1.008000   ; qtot 35.000078
; residue   35 bbb rtp bbb q 1.0
 1050         n4     35    bbb     N1   1050 0.03726400  14.010000   ; qtot 35.037342
 1051         c3     35    bbb     C1   1051 -0.07020100  12.010000   ; qtot 34.967141
 1052         hx     35    bbb     H1   1052 0.12219000   1.008000   ; qtot 35.089331
 1053         hx     35    bbb     H2   1053 0.12219000   1.008000   ; qtot 35.211521
 1054         c3     35    bbb     C2   1054 -0.07020100  12.010000   ; qtot 35.141320
 1055         hx     35    bbb     H3   1055 0.12219000   1.008000   ; qtot 35.263510
 1056         hx     35    bbb     H4   1056 0.12219000   1.008000   ; qtot 35.385700
 1057         c3     35    bbb     C3   1057 -0.39007700  12.010000   ; qtot 34.995623
 1058         hx     35    bbb     H5   1058 0.14940300   1.008000   ; qtot 35.145026
 1059         hx     35    bbb     H6   1059 0.14940300   1.008000   ; qtot 35.294429
 1060         c3     35    bbb     C4   1060 0.18057300  12.010000   ; qtot 35.475002
 1061         hc     35    bbb     H7   1061 0.01788900   1.008000   ; qtot 35.492891
 1062         hc     35    bbb     H8   1062 0.01788900   1.008000   ; qtot 35.510780
 1063         c3     35    bbb     C5   1063 -0.11337700  12.010000   ; qtot 35.397403
 1064         hc     35    bbb     H9   1064 0.09515400   1.008000   ; qtot 35.492557
 1065         hc     35    bbb    H10   1065 0.09515400   1.008000   ; qtot 35.587711
 1066         c3     35    bbb     C6   1066 -0.11337700  12.010000   ; qtot 35.474334
 1067         hc     35    bbb    H11   1067 0.09515400   1.008000   ; qtot 35.569488
 1068         hc     35    bbb    H12   1068 0.09515400   1.008000   ; qtot 35.664642
 1069         c3     35    bbb     C7   1069 0.21842400  12.010000   ; qtot 35.883066
 1070         h1     35    bbb    H13   1070 0.04500300   1.008000   ; qtot 35.928069
 1071         h1     35    bbb    H14   1071 0.04500300   1.008000   ; qtot 35.973072
 1072         c3     35    bbb     C8   1072 -0.06455200  12.010000   ; qtot 35.908520
 1073         h1     35    bbb    H15   1073 0.13554100   1.008000   ; qtot 36.044061
 1074         h1     35    bbb    H16   1074 0.13554100   1.008000   ; qtot 36.179602
 1075         c3     35    bbb     C9   1075 -0.06455200  12.010000   ; qtot 36.115050
 1076         h1     35    bbb    H17   1076 0.13554100   1.008000   ; qtot 36.250591
 1077         h1     35    bbb    H18   1077 0.13554100   1.008000   ; qtot 36.386132
 1078         os     35    bbb     O1   1078 -0.62587700  16.000000   ; qtot 35.760255
 1079         hn     35    bbb    H19   1079 0.23982500   1.008000   ; qtot 36.000080
; residue   36 bbb rtp bbb q 1.0
 1080         n4     36    bbb     N1   1080 0.03726400  14.010000   ; qtot 36.037344
 1081         c3     36    bbb     C1   1081 -0.07020100  12.010000   ; qtot 35.967143
 1082         hx     36    bbb     H1   1082 0.12219000   1.008000   ; qtot 36.089333
 1083         hx     36    bbb     H2   1083 0.12219000   1.008000   ; qtot 36.211523
 1084         c3     36    bbb     C2   1084 -0.07020100  12.010000   ; qtot 36.141322
 1085         hx     36    bbb     H3   1085 0.12219000   1.008000   ; qtot 36.263512
 1086         hx     36    bbb     H4   1086 0.12219000   1.008000   ; qtot 36.385702
 1087         c3     36    bbb     C3   1087 -0.39007700  12.010000   ; qtot 35.995625
 1088         hx     36    bbb     H5   1088 0.14940300   1.008000   ; qtot 36.145028
 1089         hx     36    bbb     H6   1089 0.14940300   1.008000   ; qtot 36.294431
 1090         c3     36    bbb     C4   1090 0.18057300  12.010000   ; qtot 36.475004
 1091         hc     36    bbb     H7   1091 0.01788900   1.008000   ; qtot 36.492893
 1092         hc     36    bbb     H8   1092 0.01788900   1.008000   ; qtot 36.510782
 1093         c3     36    bbb     C5   1093 -0.11337700  12.010000   ; qtot 36.397405
 1094         hc     36    bbb     H9   1094 0.09515400   1.008000   ; qtot 36.492559
 1095         hc     36    bbb    H10   1095 0.09515400   1.008000   ; qtot 36.587713
 1096         c3     36    bbb     C6   1096 -0.11337700  12.010000   ; qtot 36.474336
 1097         hc     36    bbb    H11   1097 0.09515400   1.008000   ; qtot 36.569490
 1098         hc     36    bbb    H12   1098 0.09515400   1.008000   ; qtot 36.664644
 1099         c3     36    bbb     C7   1099 0.21842400  12.010000   ; qtot 36.883068
 1100         h1     36    bbb    H13   1100 0.04500300   1.008000   ; qtot 36.928071
 1101         h1     36    bbb    H14   1101 0.04500300   1.008000   ; qtot 36.973074
 1102         c3     36    bbb     C8   1102 -0.06455200  12.010000   ; qtot 36.908522
 1103         h1     36    bbb    H15   1103 0.13554100   1.008000   ; qtot 37.044063
 1104         h1     36    bbb    H16   1104 0.13554100   1.008000   ; qtot 37.179604
 1105         c3     36    bbb     C9   1105 -0.06455200  12.010000   ; qtot 37.115052
 1106         h1     36    bbb    H17   1106 0.13554100   1.008000   ; qtot 37.250593
 1107         h1     36    bbb    H18   1107 0.13554100   1.008000   ; qtot 37.386134
 1108         os     36    bbb     O1   1108 -0.62587700  16.000000   ; qtot 36.760257
 1109         hn     36    bbb    H19   1109 0.23982500   1.008000   ; qtot 37.000082
; residue   37 bbb rtp bbb q 1.0
 1110         n4     37    bbb     N1   1110 0.03726400  14.010000   ; qtot 37.037346
 1111         c3     37    bbb     C1   1111 -0.07020100  12.010000   ; qtot 36.967145
 1112         hx     37    bbb     H1   1112 0.12219000   1.008000   ; qtot 37.089335
 1113         hx     37    bbb     H2   1113 0.12219000   1.008000   ; qtot 37.211525
 1114         c3     37    bbb     C2   1114 -0.07020100  12.010000   ; qtot 37.141324
 1115         hx     37    bbb     H3   1115 0.12219000   1.008000   ; qtot 37.263514
 1116         hx     37    bbb     H4   1116 0.12219000   1.008000   ; qtot 37.385704
 1117         c3     37    bbb     C3   1117 -0.39007700  12.010000   ; qtot 36.995627
 1118         hx     37    bbb     H5   1118 0.14940300   1.008000   ; qtot 37.145030
 1119         hx     37    bbb     H6   1119 0.14940300   1.008000   ; qtot 37.294433
 1120         c3     37    bbb     C4   1120 0.18057300  12.010000   ; qtot 37.475006
 1121         hc     37    bbb     H7   1121 0.01788900   1.008000   ; qtot 37.492895
 1122         hc     37    bbb     H8   1122 0.01788900   1.008000   ; qtot 37.510784
 1123         c3     37    bbb     C5   1123 -0.11337700  12.010000   ; qtot 37.397407
 1124         hc     37    bbb     H9   1124 0.09515400   1.008000   ; qtot 37.492561
 1125         hc     37    bbb    H10   1125 0.09515400   1.008000   ; qtot 37.587715
 1126         c3     37    bbb     C6   1126 -0.11337700  12.010000   ; qtot 37.474338
 1127         hc     37    bbb    H11   1127 0.09515400   1.008000   ; qtot 37.569492
 1128         hc     37    bbb    H12   1128 0.09515400   1.008000   ; qtot 37.664646
 1129         c3     37    bbb     C7   1129 0.21842400  12.010000   ; qtot 37.883070
 1130         h1     37    bbb    H13   1130 0.04500300   1.008000   ; qtot 37.928073
 1131         h1     37    bbb    H14   1131 0.04500300   1.008000   ; qtot 37.973076
 1132         c3     37    bbb     C8   1132 -0.06455200  12.010000   ; qtot 37.908524
 1133         h1     37    bbb    H15   1133 0.13554100   1.008000   ; qtot 38.044065
 1134         h1     37    bbb    H16   1134 0.13554100   1.008000   ; qtot 38.179606
 1135         c3     37    bbb     C9   1135 -0.06455200  12.010000   ; qtot 38.115054
 1136         h1     37    bbb    H17   1136 0.13554100   1.008000   ; qtot 38.250595
 1137         h1     37    bbb    H18   1137 0.13554100   1.008000   ; qtot 38.386136
 1138         os     37    bbb     O1   1138 -0.62587700  16.000000   ; qtot 37.760259
 1139         hn     37    bbb    H19   1139 0.23982500   1.008000   ; qtot 38.000084
; residue   38 bbb rtp bbb q 1.0
 1140         n4     38    bbb     N1   1140 0.03726400  14.010000   ; qtot 38.037348
 1141         c3     38    bbb     C1   1141 -0.07020100  12.010000   ; qtot 37.967147
 1142         hx     38    bbb     H1   1142 0.12219000   1.008000   ; qtot 38.089337
 1143         hx     38    bbb     H2   1143 0.12219000   1.008000   ; qtot 38.211527
 1144         c3     38    bbb     C2   1144 -0.07020100  12.010000   ; qtot 38.141326
 1145         hx     38    bbb     H3   1145 0.12219000   1.008000   ; qtot 38.263516
 1146         hx     38    bbb     H4   1146 0.12219000   1.008000   ; qtot 38.385706
 1147         c3     38    bbb     C3   1147 -0.39007700  12.010000   ; qtot 37.995629
 1148         hx     38    bbb     H5   1148 0.14940300   1.008000   ; qtot 38.145032
 1149         hx     38    bbb     H6   1149 0.14940300   1.008000   ; qtot 38.294435
 1150         c3     38    bbb     C4   1150 0.18057300  12.010000   ; qtot 38.475008
 1151         hc     38    bbb     H7   1151 0.01788900   1.008000   ; qtot 38.492897
 1152         hc     38    bbb     H8   1152 0.01788900   1.008000   ; qtot 38.510786
 1153         c3     38    bbb     C5   1153 -0.11337700  12.010000   ; qtot 38.397409
 1154         hc     38    bbb     H9   1154 0.09515400   1.008000   ; qtot 38.492563
 1155         hc     38    bbb    H10   1155 0.09515400   1.008000   ; qtot 38.587717
 1156         c3     38    bbb     C6   1156 -0.11337700  12.010000   ; qtot 38.474340
 1157         hc     38    bbb    H11   1157 0.09515400   1.008000   ; qtot 38.569494
 1158         hc     38    bbb    H12   1158 0.09515400   1.008000   ; qtot 38.664648
 1159         c3     38    bbb     C7   1159 0.21842400  12.010000   ; qtot 38.883072
 1160         h1     38    bbb    H13   1160 0.04500300   1.008000   ; qtot 38.928075
 1161         h1     38    bbb    H14   1161 0.04500300   1.008000   ; qtot 38.973078
 1162         c3     38    bbb     C8   1162 -0.06455200  12.010000   ; qtot 38.908526
 1163         h1     38    bbb    H15   1163 0.13554100   1.008000   ; qtot 39.044067
 1164         h1     38    bbb    H16   1164 0.13554100   1.008000   ; qtot 39.179608
 1165         c3     38    bbb     C9   1165 -0.06455200  12.010000   ; qtot 39.115056
 1166         h1     38    bbb    H17   1166 0.13554100   1.008000   ; qtot 39.250597
 1167         h1     38    bbb    H18   1167 0.13554100   1.008000   ; qtot 39.386138
 1168         os     38    bbb     O1   1168 -0.62587700  16.000000   ; qtot 38.760261
 1169         hn     38    bbb    H19   1169 0.23982500   1.008000   ; qtot 39.000086
; residue   39 bbb rtp bbb q 1.0
 1170         n4     39    bbb     N1   1170 0.03726400  14.010000   ; qtot 39.037350
 1171         c3     39    bbb     C1   1171 -0.07020100  12.010000   ; qtot 38.967149
 1172         hx     39    bbb     H1   1172 0.12219000   1.008000   ; qtot 39.089339
 1173         hx     39    bbb     H2   1173 0.12219000   1.008000   ; qtot 39.211529
 1174         c3     39    bbb     C2   1174 -0.07020100  12.010000   ; qtot 39.141328
 1175         hx     39    bbb     H3   1175 0.12219000   1.008000   ; qtot 39.263518
 1176         hx     39    bbb     H4   1176 0.12219000   1.008000   ; qtot 39.385708
 1177         c3     39    bbb     C3   1177 -0.39007700  12.010000   ; qtot 38.995631
 1178         hx     39    bbb     H5   1178 0.14940300   1.008000   ; qtot 39.145034
 1179         hx     39    bbb     H6   1179 0.14940300   1.008000   ; qtot 39.294437
 1180         c3     39    bbb     C4   1180 0.18057300  12.010000   ; qtot 39.475010
 1181         hc     39    bbb     H7   1181 0.01788900   1.008000   ; qtot 39.492899
 1182         hc     39    bbb     H8   1182 0.01788900   1.008000   ; qtot 39.510788
 1183         c3     39    bbb     C5   1183 -0.11337700  12.010000   ; qtot 39.397411
 1184         hc     39    bbb     H9   1184 0.09515400   1.008000   ; qtot 39.492565
 1185         hc     39    bbb    H10   1185 0.09515400   1.008000   ; qtot 39.587719
 1186         c3     39    bbb     C6   1186 -0.11337700  12.010000   ; qtot 39.474342
 1187         hc     39    bbb    H11   1187 0.09515400   1.008000   ; qtot 39.569496
 1188         hc     39    bbb    H12   1188 0.09515400   1.008000   ; qtot 39.664650
 1189         c3     39    bbb     C7   1189 0.21842400  12.010000   ; qtot 39.883074
 1190         h1     39    bbb    H13   1190 0.04500300   1.008000   ; qtot 39.928077
 1191         h1     39    bbb    H14   1191 0.04500300   1.008000   ; qtot 39.973080
 1192         c3     39    bbb     C8   1192 -0.06455200  12.010000   ; qtot 39.908528
 1193         h1     39    bbb    H15   1193 0.13554100   1.008000   ; qtot 40.044069
 1194         h1     39    bbb    H16   1194 0.13554100   1.008000   ; qtot 40.179610
 1195         c3     39    bbb     C9   1195 -0.06455200  12.010000   ; qtot 40.115058
 1196         h1     39    bbb    H17   1196 0.13554100   1.008000   ; qtot 40.250599
 1197         h1     39    bbb    H18   1197 0.13554100   1.008000   ; qtot 40.386140
 1198         os     39    bbb     O1   1198 -0.62587700  16.000000   ; qtot 39.760263
 1199         hn     39    bbb    H19   1199 0.23982500   1.008000   ; qtot 40.000088
; residue   40 bbb rtp bbb q 1.0
 1200         n4     40    bbb     N1   1200 0.03726400  14.010000   ; qtot 40.037352
 1201         c3     40    bbb     C1   1201 -0.07020100  12.010000   ; qtot 39.967151
 1202         hx     40    bbb     H1   1202 0.12219000   1.008000   ; qtot 40.089341
 1203         hx     40    bbb     H2   1203 0.12219000   1.008000   ; qtot 40.211531
 1204         c3     40    bbb     C2   1204 -0.07020100  12.010000   ; qtot 40.141330
 1205         hx     40    bbb     H3   1205 0.12219000   1.008000   ; qtot 40.263520
 1206         hx     40    bbb     H4   1206 0.12219000   1.008000   ; qtot 40.385710
 1207         c3     40    bbb     C3   1207 -0.39007700  12.010000   ; qtot 39.995633
 1208         hx     40    bbb     H5   1208 0.14940300   1.008000   ; qtot 40.145036
 1209         hx     40    bbb     H6   1209 0.14940300   1.008000   ; qtot 40.294439
 1210         c3     40    bbb     C4   1210 0.18057300  12.010000   ; qtot 40.475012
 1211         hc     40    bbb     H7   1211 0.01788900   1.008000   ; qtot 40.492901
 1212         hc     40    bbb     H8   1212 0.01788900   1.008000   ; qtot 40.510790
 1213         c3     40    bbb     C5   1213 -0.11337700  12.010000   ; qtot 40.397413
 1214         hc     40    bbb     H9   1214 0.09515400   1.008000   ; qtot 40.492567
 1215         hc     40    bbb    H10   1215 0.09515400   1.008000   ; qtot 40.587721
 1216         c3     40    bbb     C6   1216 -0.11337700  12.010000   ; qtot 40.474344
 1217         hc     40    bbb    H11   1217 0.09515400   1.008000   ; qtot 40.569498
 1218         hc     40    bbb    H12   1218 0.09515400   1.008000   ; qtot 40.664652
 1219         c3     40    bbb     C7   1219 0.21842400  12.010000   ; qtot 40.883076
 1220         h1     40    bbb    H13   1220 0.04500300   1.008000   ; qtot 40.928079
 1221         h1     40    bbb    H14   1221 0.04500300   1.008000   ; qtot 40.973082
 1222         c3     40    bbb     C8   1222 -0.06455200  12.010000   ; qtot 40.908530
 1223         h1     40    bbb    H15   1223 0.13554100   1.008000   ; qtot 41.044071
 1224         h1     40    bbb    H16   1224 0.13554100   1.008000   ; qtot 41.179612
 1225         c3     40    bbb     C9   1225 -0.06455200  12.010000   ; qtot 41.115060
 1226         h1     40    bbb    H17   1226 0.13554100   1.008000   ; qtot 41.250601
 1227         h1     40    bbb    H18   1227 0.13554100   1.008000   ; qtot 41.386142
 1228         os     40    bbb     O1   1228 -0.62587700  16.000000   ; qtot 40.760265
 1229         hn     40    bbb    H19   1229 0.23982500   1.008000   ; qtot 41.000090
; residue   41 bbb rtp bbb q 1.0
 1230         n4     41    bbb     N1   1230 0.03726400  14.010000   ; qtot 41.037354
 1231         c3     41    bbb     C1   1231 -0.07020100  12.010000   ; qtot 40.967153
 1232         hx     41    bbb     H1   1232 0.12219000   1.008000   ; qtot 41.089343
 1233         hx     41    bbb     H2   1233 0.12219000   1.008000   ; qtot 41.211533
 1234         c3     41    bbb     C2   1234 -0.07020100  12.010000   ; qtot 41.141332
 1235         hx     41    bbb     H3   1235 0.12219000   1.008000   ; qtot 41.263522
 1236         hx     41    bbb     H4   1236 0.12219000   1.008000   ; qtot 41.385712
 1237         c3     41    bbb     C3   1237 -0.39007700  12.010000   ; qtot 40.995635
 1238         hx     41    bbb     H5   1238 0.14940300   1.008000   ; qtot 41.145038
 1239         hx     41    bbb     H6   1239 0.14940300   1.008000   ; qtot 41.294441
 1240         c3     41    bbb     C4   1240 0.18057300  12.010000   ; qtot 41.475014
 1241         hc     41    bbb     H7   1241 0.01788900   1.008000   ; qtot 41.492903
 1242         hc     41    bbb     H8   1242 0.01788900   1.008000   ; qtot 41.510792
 1243         c3     41    bbb     C5   1243 -0.11337700  12.010000   ; qtot 41.397415
 1244         hc     41    bbb     H9   1244 0.09515400   1.008000   ; qtot 41.492569
 1245         hc     41    bbb    H10   1245 0.09515400   1.008000   ; qtot 41.587723
 1246         c3     41    bbb     C6   1246 -0.11337700  12.010000   ; qtot 41.474346
 1247         hc     41    bbb    H11   1247 0.09515400   1.008000   ; qtot 41.569500
 1248         hc     41    bbb    H12   1248 0.09515400   1.008000   ; qtot 41.664654
 1249         c3     41    bbb     C7   1249 0.21842400  12.010000   ; qtot 41.883078
 1250         h1     41    bbb    H13   1250 0.04500300   1.008000   ; qtot 41.928081
 1251         h1     41    bbb    H14   1251 0.04500300   1.008000   ; qtot 41.973084
 1252         c3     41    bbb     C8   1252 -0.06455200  12.010000   ; qtot 41.908532
 1253         h1     41    bbb    H15   1253 0.13554100   1.008000   ; qtot 42.044073
 1254         h1     41    bbb    H16   1254 0.13554100   1.008000   ; qtot 42.179614
 1255         c3     41    bbb     C9   1255 -0.06455200  12.010000   ; qtot 42.115062
 1256         h1     41    bbb    H17   1256 0.13554100   1.008000   ; qtot 42.250603
 1257         h1     41    bbb    H18   1257 0.13554100   1.008000   ; qtot 42.386144
 1258         os     41    bbb     O1   1258 -0.62587700  16.000000   ; qtot 41.760267
 1259         hn     41    bbb    H19   1259 0.23982500   1.008000   ; qtot 42.000092
; residue   42 bbb rtp bbb q 1.0
 1260         n4     42    bbb     N1   1260 0.03726400  14.010000   ; qtot 42.037356
 1261         c3     42    bbb     C1   1261 -0.07020100  12.010000   ; qtot 41.967155
 1262         hx     42    bbb     H1   1262 0.12219000   1.008000   ; qtot 42.089345
 1263         hx     42    bbb     H2   1263 0.12219000   1.008000   ; qtot 42.211535
 1264         c3     42    bbb     C2   1264 -0.07020100  12.010000   ; qtot 42.141334
 1265         hx     42    bbb     H3   1265 0.12219000   1.008000   ; qtot 42.263524
 1266         hx     42    bbb     H4   1266 0.12219000   1.008000   ; qtot 42.385714
 1267         c3     42    bbb     C3   1267 -0.39007700  12.010000   ; qtot 41.995637
 1268         hx     42    bbb     H5   1268 0.14940300   1.008000   ; qtot 42.145040
 1269         hx     42    bbb     H6   1269 0.14940300   1.008000   ; qtot 42.294443
 1270         c3     42    bbb     C4   1270 0.18057300  12.010000   ; qtot 42.475016
 1271         hc     42    bbb     H7   1271 0.01788900   1.008000   ; qtot 42.492905
 1272         hc     42    bbb     H8   1272 0.01788900   1.008000   ; qtot 42.510794
 1273         c3     42    bbb     C5   1273 -0.11337700  12.010000   ; qtot 42.397417
 1274         hc     42    bbb     H9   1274 0.09515400   1.008000   ; qtot 42.492571
 1275         hc     42    bbb    H10   1275 0.09515400   1.008000   ; qtot 42.587725
 1276         c3     42    bbb     C6   1276 -0.11337700  12.010000   ; qtot 42.474348
 1277         hc     42    bbb    H11   1277 0.09515400   1.008000   ; qtot 42.569502
 1278         hc     42    bbb    H12   1278 0.09515400   1.008000   ; qtot 42.664656
 1279         c3     42    bbb     C7   1279 0.21842400  12.010000   ; qtot 42.883080
 1280         h1     42    bbb    H13   1280 0.04500300   1.008000   ; qtot 42.928083
 1281         h1     42    bbb    H14   1281 0.04500300   1.008000   ; qtot 42.973086
 1282         c3     42    bbb     C8   1282 -0.06455200  12.010000   ; qtot 42.908534
 1283         h1     42    bbb    H15   1283 0.13554100   1.008000   ; qtot 43.044075
 1284         h1     42    bbb    H16   1284 0.13554100   1.008000   ; qtot 43.179616
 1285         c3     42    bbb     C9   1285 -0.06455200  12.010000   ; qtot 43.115064
 1286         h1     42    bbb    H17   1286 0.13554100   1.008000   ; qtot 43.250605
 1287         h1     42    bbb    H18   1287 0.13554100   1.008000   ; qtot 43.386146
 1288         os     42    bbb     O1   1288 -0.62587700  16.000000   ; qtot 42.760269
 1289         hn     42    bbb    H19   1289 0.23982500   1.008000   ; qtot 43.000094
; residue   43 bbb rtp bbb q 1.0
 1290         n4     43    bbb     N1   1290 0.03726400  14.010000   ; qtot 43.037358
 1291         c3     43    bbb     C1   1291 -0.07020100  12.010000   ; qtot 42.967157
 1292         hx     43    bbb     H1   1292 0.12219000   1.008000   ; qtot 43.089347
 1293         hx     43    bbb     H2   1293 0.12219000   1.008000   ; qtot 43.211537
 1294         c3     43    bbb     C2   1294 -0.07020100  12.010000   ; qtot 43.141336
 1295         hx     43    bbb     H3   1295 0.12219000   1.008000   ; qtot 43.263526
 1296         hx     43    bbb     H4   1296 0.12219000   1.008000   ; qtot 43.385716
 1297         c3     43    bbb     C3   1297 -0.39007700  12.010000   ; qtot 42.995639
 1298         hx     43    bbb     H5   1298 0.14940300   1.008000   ; qtot 43.145042
 1299         hx     43    bbb     H6   1299 0.14940300   1.008000   ; qtot 43.294445
 1300         c3     43    bbb     C4   1300 0.18057300  12.010000   ; qtot 43.475018
 1301         hc     43    bbb     H7   1301 0.01788900   1.008000   ; qtot 43.492907
 1302         hc     43    bbb     H8   1302 0.01788900   1.008000   ; qtot 43.510796
 1303         c3     43    bbb     C5   1303 -0.11337700  12.010000   ; qtot 43.397419
 1304         hc     43    bbb     H9   1304 0.09515400   1.008000   ; qtot 43.492573
 1305         hc     43    bbb    H10   1305 0.09515400   1.008000   ; qtot 43.587727
 1306         c3     43    bbb     C6   1306 -0.11337700  12.010000   ; qtot 43.474350
 1307         hc     43    bbb    H11   1307 0.09515400   1.008000   ; qtot 43.569504
 1308         hc     43    bbb    H12   1308 0.09515400   1.008000   ; qtot 43.664658
 1309         c3     43    bbb     C7   1309 0.21842400  12.010000   ; qtot 43.883082
 1310         h1     43    bbb    H13   1310 0.04500300   1.008000   ; qtot 43.928085
 1311         h1     43    bbb    H14   1311 0.04500300   1.008000   ; qtot 43.973088
 1312         c3     43    bbb     C8   1312 -0.06455200  12.010000   ; qtot 43.908536
 1313         h1     43    bbb    H15   1313 0.13554100   1.008000   ; qtot 44.044077
 1314         h1     43    bbb    H16   1314 0.13554100   1.008000   ; qtot 44.179618
 1315         c3     43    bbb     C9   1315 -0.06455200  12.010000   ; qtot 44.115066
 1316         h1     43    bbb    H17   1316 0.13554100   1.008000   ; qtot 44.250607
 1317         h1     43    bbb    H18   1317 0.13554100   1.008000   ; qtot 44.386148
 1318         os     43    bbb     O1   1318 -0.62587700  16.000000   ; qtot 43.760271
 1319         hn     43    bbb    H19   1319 0.23982500   1.008000   ; qtot 44.000096
; residue   44 bbb rtp bbb q 1.0
 1320         n4     44    bbb     N1   1320 0.03726400  14.010000   ; qtot 44.037360
 1321         c3     44    bbb     C1   1321 -0.07020100  12.010000   ; qtot 43.967159
 1322         hx     44    bbb     H1   1322 0.12219000   1.008000   ; qtot 44.089349
 1323         hx     44    bbb     H2   1323 0.12219000   1.008000   ; qtot 44.211539
 1324         c3     44    bbb     C2   1324 -0.07020100  12.010000   ; qtot 44.141338
 1325         hx     44    bbb     H3   1325 0.12219000   1.008000   ; qtot 44.263528
 1326         hx     44    bbb     H4   1326 0.12219000   1.008000   ; qtot 44.385718
 1327         c3     44    bbb     C3   1327 -0.39007700  12.010000   ; qtot 43.995641
 1328         hx     44    bbb     H5   1328 0.14940300   1.008000   ; qtot 44.145044
 1329         hx     44    bbb     H6   1329 0.14940300   1.008000   ; qtot 44.294447
 1330         c3     44    bbb     C4   1330 0.18057300  12.010000   ; qtot 44.475020
 1331         hc     44    bbb     H7   1331 0.01788900   1.008000   ; qtot 44.492909
 1332         hc     44    bbb     H8   1332 0.01788900   1.008000   ; qtot 44.510798
 1333         c3     44    bbb     C5   1333 -0.11337700  12.010000   ; qtot 44.397421
 1334         hc     44    bbb     H9   1334 0.09515400   1.008000   ; qtot 44.492575
 1335         hc     44    bbb    H10   1335 0.09515400   1.008000   ; qtot 44.587729
 1336         c3     44    bbb     C6   1336 -0.11337700  12.010000   ; qtot 44.474352
 1337         hc     44    bbb    H11   1337 0.09515400   1.008000   ; qtot 44.569506
 1338         hc     44    bbb    H12   1338 0.09515400   1.008000   ; qtot 44.664660
 1339         c3     44    bbb     C7   1339 0.21842400  12.010000   ; qtot 44.883084
 1340         h1     44    bbb    H13   1340 0.04500300   1.008000   ; qtot 44.928087
 1341         h1     44    bbb    H14   1341 0.04500300   1.008000   ; qtot 44.973090
 1342         c3     44    bbb     C8   1342 -0.06455200  12.010000   ; qtot 44.908538
 1343         h1     44    bbb    H15   1343 0.13554100   1.008000   ; qtot 45.044079
 1344         h1     44    bbb    H16   1344 0.13554100   1.008000   ; qtot 45.179620
 1345         c3     44    bbb     C9   1345 -0.06455200  12.010000   ; qtot 45.115068
 1346         h1     44    bbb    H17   1346 0.13554100   1.008000   ; qtot 45.250609
 1347         h1     44    bbb    H18   1347 0.13554100   1.008000   ; qtot 45.386150
 1348         os     44    bbb     O1   1348 -0.62587700  16.000000   ; qtot 44.760273
 1349         hn     44    bbb    H19   1349 0.23982500   1.008000   ; qtot 45.000098
; residue   45 bbb rtp bbb q 1.0
 1350         n4     45    bbb     N1   1350 0.03726400  14.010000   ; qtot 45.037362
 1351         c3     45    bbb     C1   1351 -0.07020100  12.010000   ; qtot 44.967161
 1352         hx     45    bbb     H1   1352 0.12219000   1.008000   ; qtot 45.089351
 1353         hx     45    bbb     H2   1353 0.12219000   1.008000   ; qtot 45.211541
 1354         c3     45    bbb     C2   1354 -0.07020100  12.010000   ; qtot 45.141340
 1355         hx     45    bbb     H3   1355 0.12219000   1.008000   ; qtot 45.263530
 1356         hx     45    bbb     H4   1356 0.12219000   1.008000   ; qtot 45.385720
 1357         c3     45    bbb     C3   1357 -0.39007700  12.010000   ; qtot 44.995643
 1358         hx     45    bbb     H5   1358 0.14940300   1.008000   ; qtot 45.145046
 1359         hx     45    bbb     H6   1359 0.14940300   1.008000   ; qtot 45.294449
 1360         c3     45    bbb     C4   1360 0.18057300  12.010000   ; qtot 45.475022
 1361         hc     45    bbb     H7   1361 0.01788900   1.008000   ; qtot 45.492911
 1362         hc     45    bbb     H8   1362 0.01788900   1.008000   ; qtot 45.510800
 1363         c3     45    bbb     C5   1363 -0.11337700  12.010000   ; qtot 45.397423
 1364         hc     45    bbb     H9   1364 0.09515400   1.008000   ; qtot 45.492577
 1365         hc     45    bbb    H10   1365 0.09515400   1.008000   ; qtot 45.587731
 1366         c3     45    bbb     C6   1366 -0.11337700  12.010000   ; qtot 45.474354
 1367         hc     45    bbb    H11   1367 0.09515400   1.008000   ; qtot 45.569508
 1368         hc     45    bbb    H12   1368 0.09515400   1.008000   ; qtot 45.664662
 1369         c3     45    bbb     C7   1369 0.21842400  12.010000   ; qtot 45.883086
 1370         h1     45    bbb    H13   1370 0.04500300   1.008000   ; qtot 45.928089
 1371         h1     45    bbb    H14   1371 0.04500300   1.008000   ; qtot 45.973092
 1372         c3     45    bbb     C8   1372 -0.06455200  12.010000   ; qtot 45.908540
 1373         h1     45    bbb    H15   1373 0.13554100   1.008000   ; qtot 46.044081
 1374         h1     45    bbb    H16   1374 0.13554100   1.008000   ; qtot 46.179622
 1375         c3     45    bbb     C9   1375 -0.06455200  12.010000   ; qtot 46.115070
 1376         h1     45    bbb    H17   1376 0.13554100   1.008000   ; qtot 46.250611
 1377         h1     45    bbb    H18   1377 0.13554100   1.008000   ; qtot 46.386152
 1378         os     45    bbb     O1   1378 -0.62587700  16.000000   ; qtot 45.760275
 1379         hn     45    bbb    H19   1379 0.23982500   1.008000   ; qtot 46.000100
; residue   46 bbb rtp bbb q 1.0
 1380         n4     46    bbb     N1   1380 0.03726400  14.010000   ; qtot 46.037364
 1381         c3     46    bbb     C1   1381 -0.07020100  12.010000   ; qtot 45.967163
 1382         hx     46    bbb     H1   1382 0.12219000   1.008000   ; qtot 46.089353
 1383         hx     46    bbb     H2   1383 0.12219000   1.008000   ; qtot 46.211543
 1384         c3     46    bbb     C2   1384 -0.07020100  12.010000   ; qtot 46.141342
 1385         hx     46    bbb     H3   1385 0.12219000   1.008000   ; qtot 46.263532
 1386         hx     46    bbb     H4   1386 0.12219000   1.008000   ; qtot 46.385722
 1387         c3     46    bbb     C3   1387 -0.39007700  12.010000   ; qtot 45.995645
 1388         hx     46    bbb     H5   1388 0.14940300   1.008000   ; qtot 46.145048
 1389         hx     46    bbb     H6   1389 0.14940300   1.008000   ; qtot 46.294451
 1390         c3     46    bbb     C4   1390 0.18057300  12.010000   ; qtot 46.475024
 1391         hc     46    bbb     H7   1391 0.01788900   1.008000   ; qtot 46.492913
 1392         hc     46    bbb     H8   1392 0.01788900   1.008000   ; qtot 46.510802
 1393         c3     46    bbb     C5   1393 -0.11337700  12.010000   ; qtot 46.397425
 1394         hc     46    bbb     H9   1394 0.09515400   1.008000   ; qtot 46.492579
 1395         hc     46    bbb    H10   1395 0.09515400   1.008000   ; qtot 46.587733
 1396         c3     46    bbb     C6   1396 -0.11337700  12.010000   ; qtot 46.474356
 1397         hc     46    bbb    H11   1397 0.09515400   1.008000   ; qtot 46.569510
 1398         hc     46    bbb    H12   1398 0.09515400   1.008000   ; qtot 46.664664
 1399         c3     46    bbb     C7   1399 0.21842400  12.010000   ; qtot 46.883088
 1400         h1     46    bbb    H13   1400 0.04500300   1.008000   ; qtot 46.928091
 1401         h1     46    bbb    H14   1401 0.04500300   1.008000   ; qtot 46.973094
 1402         c3     46    bbb     C8   1402 -0.06455200  12.010000   ; qtot 46.908542
 1403         h1     46    bbb    H15   1403 0.13554100   1.008000   ; qtot 47.044083
 1404         h1     46    bbb    H16   1404 0.13554100   1.008000   ; qtot 47.179624
 1405         c3     46    bbb     C9   1405 -0.06455200  12.010000   ; qtot 47.115072
 1406         h1     46    bbb    H17   1406 0.13554100   1.008000   ; qtot 47.250613
 1407         h1     46    bbb    H18   1407 0.13554100   1.008000   ; qtot 47.386154
 1408         os     46    bbb     O1   1408 -0.62587700  16.000000   ; qtot 46.760277
 1409         hn     46    bbb    H19   1409 0.23982500   1.008000   ; qtot 47.000102
; residue   47 bbb rtp bbb q 1.0
 1410         n4     47    bbb     N1   1410 0.03726400  14.010000   ; qtot 47.037366
 1411         c3     47    bbb     C1   1411 -0.07020100  12.010000   ; qtot 46.967165
 1412         hx     47    bbb     H1   1412 0.12219000   1.008000   ; qtot 47.089355
 1413         hx     47    bbb     H2   1413 0.12219000   1.008000   ; qtot 47.211545
 1414         c3     47    bbb     C2   1414 -0.07020100  12.010000   ; qtot 47.141344
 1415         hx     47    bbb     H3   1415 0.12219000   1.008000   ; qtot 47.263534
 1416         hx     47    bbb     H4   1416 0.12219000   1.008000   ; qtot 47.385724
 1417         c3     47    bbb     C3   1417 -0.39007700  12.010000   ; qtot 46.995647
 1418         hx     47    bbb     H5   1418 0.14940300   1.008000   ; qtot 47.145050
 1419         hx     47    bbb     H6   1419 0.14940300   1.008000   ; qtot 47.294453
 1420         c3     47    bbb     C4   1420 0.18057300  12.010000   ; qtot 47.475026
 1421         hc     47    bbb     H7   1421 0.01788900   1.008000   ; qtot 47.492915
 1422         hc     47    bbb     H8   1422 0.01788900   1.008000   ; qtot 47.510804
 1423         c3     47    bbb     C5   1423 -0.11337700  12.010000   ; qtot 47.397427
 1424         hc     47    bbb     H9   1424 0.09515400   1.008000   ; qtot 47.492581
 1425         hc     47    bbb    H10   1425 0.09515400   1.008000   ; qtot 47.587735
 1426         c3     47    bbb     C6   1426 -0.11337700  12.010000   ; qtot 47.474358
 1427         hc     47    bbb    H11   1427 0.09515400   1.008000   ; qtot 47.569512
 1428         hc     47    bbb    H12   1428 0.09515400   1.008000   ; qtot 47.664666
 1429         c3     47    bbb     C7   1429 0.21842400  12.010000   ; qtot 47.883090
 1430         h1     47    bbb    H13   1430 0.04500300   1.008000   ; qtot 47.928093
 1431         h1     47    bbb    H14   1431 0.04500300   1.008000   ; qtot 47.973096
 1432         c3     47    bbb     C8   1432 -0.06455200  12.010000   ; qtot 47.908544
 1433         h1     47    bbb    H15   1433 0.13554100   1.008000   ; qtot 48.044085
 1434         h1     47    bbb    H16   1434 0.13554100   1.008000   ; qtot 48.179626
 1435         c3     47    bbb     C9   1435 -0.06455200  12.010000   ; qtot 48.115074
 1436         h1     47    bbb    H17   1436 0.13554100   1.008000   ; qtot 48.250615
 1437         h1     47    bbb    H18   1437 0.13554100   1.008000   ; qtot 48.386156
 1438         os     47    bbb     O1   1438 -0.62587700  16.000000   ; qtot 47.760279
 1439         hn     47    bbb    H19   1439 0.23982500   1.008000   ; qtot 48.000104
; residue   48 bbb rtp bbb q 1.0
 1440         n4     48    bbb     N1   1440 0.03726400  14.010000   ; qtot 48.037368
 1441         c3     48    bbb     C1   1441 -0.07020100  12.010000   ; qtot 47.967167
 1442         hx     48    bbb     H1   1442 0.12219000   1.008000   ; qtot 48.089357
 1443         hx     48    bbb     H2   1443 0.12219000   1.008000   ; qtot 48.211547
 1444         c3     48    bbb     C2   1444 -0.07020100  12.010000   ; qtot 48.141346
 1445         hx     48    bbb     H3   1445 0.12219000   1.008000   ; qtot 48.263536
 1446         hx     48    bbb     H4   1446 0.12219000   1.008000   ; qtot 48.385726
 1447         c3     48    bbb     C3   1447 -0.39007700  12.010000   ; qtot 47.995649
 1448         hx     48    bbb     H5   1448 0.14940300   1.008000   ; qtot 48.145052
 1449         hx     48    bbb     H6   1449 0.14940300   1.008000   ; qtot 48.294455
 1450         c3     48    bbb     C4   1450 0.18057300  12.010000   ; qtot 48.475028
 1451         hc     48    bbb     H7   1451 0.01788900   1.008000   ; qtot 48.492917
 1452         hc     48    bbb     H8   1452 0.01788900   1.008000   ; qtot 48.510806
 1453         c3     48    bbb     C5   1453 -0.11337700  12.010000   ; qtot 48.397429
 1454         hc     48    bbb     H9   1454 0.09515400   1.008000   ; qtot 48.492583
 1455         hc     48    bbb    H10   1455 0.09515400   1.008000   ; qtot 48.587737
 1456         c3     48    bbb     C6   1456 -0.11337700  12.010000   ; qtot 48.474360
 1457         hc     48    bbb    H11   1457 0.09515400   1.008000   ; qtot 48.569514
 1458         hc     48    bbb    H12   1458 0.09515400   1.008000   ; qtot 48.664668
 1459         c3     48    bbb     C7   1459 0.21842400  12.010000   ; qtot 48.883092
 1460         h1     48    bbb    H13   1460 0.04500300   1.008000   ; qtot 48.928095
 1461         h1     48    bbb    H14   1461 0.04500300   1.008000   ; qtot 48.973098
 1462         c3     48    bbb     C8   1462 -0.06455200  12.010000   ; qtot 48.908546
 1463         h1     48    bbb    H15   1463 0.13554100   1.008000   ; qtot 49.044087
 1464         h1     48    bbb    H16   1464 0.13554100   1.008000   ; qtot 49.179628
 1465         c3     48    bbb     C9   1465 -0.06455200  12.010000   ; qtot 49.115076
 1466         h1     48    bbb    H17   1466 0.13554100   1.008000   ; qtot 49.250617
 1467         h1     48    bbb    H18   1467 0.13554100   1.008000   ; qtot 49.386158
 1468         os     48    bbb     O1   1468 -0.62587700  16.000000   ; qtot 48.760281
 1469         hn     48    bbb    H19   1469 0.23982500   1.008000   ; qtot 49.000106
; residue   49 bbb rtp bbb q 1.0
 1470         n4     49    bbb     N1   1470 0.03726400  14.010000   ; qtot 49.037370
 1471         c3     49    bbb     C1   1471 -0.07020100  12.010000   ; qtot 48.967169
 1472         hx     49    bbb     H1   1472 0.12219000   1.008000   ; qtot 49.089359
 1473         hx     49    bbb     H2   1473 0.12219000   1.008000   ; qtot 49.211549
 1474         c3     49    bbb     C2   1474 -0.07020100  12.010000   ; qtot 49.141348
 1475         hx     49    bbb     H3   1475 0.12219000   1.008000   ; qtot 49.263538
 1476         hx     49    bbb     H4   1476 0.12219000   1.008000   ; qtot 49.385728
 1477         c3     49    bbb     C3   1477 -0.39007700  12.010000   ; qtot 48.995651
 1478         hx     49    bbb     H5   1478 0.14940300   1.008000   ; qtot 49.145054
 1479         hx     49    bbb     H6   1479 0.14940300   1.008000   ; qtot 49.294457
 1480         c3     49    bbb     C4   1480 0.18057300  12.010000   ; qtot 49.475030
 1481         hc     49    bbb     H7   1481 0.01788900   1.008000   ; qtot 49.492919
 1482         hc     49    bbb     H8   1482 0.01788900   1.008000   ; qtot 49.510808
 1483         c3     49    bbb     C5   1483 -0.11337700  12.010000   ; qtot 49.397431
 1484         hc     49    bbb     H9   1484 0.09515400   1.008000   ; qtot 49.492585
 1485         hc     49    bbb    H10   1485 0.09515400   1.008000   ; qtot 49.587739
 1486         c3     49    bbb     C6   1486 -0.11337700  12.010000   ; qtot 49.474362
 1487         hc     49    bbb    H11   1487 0.09515400   1.008000   ; qtot 49.569516
 1488         hc     49    bbb    H12   1488 0.09515400   1.008000   ; qtot 49.664670
 1489         c3     49    bbb     C7   1489 0.21842400  12.010000   ; qtot 49.883094
 1490         h1     49    bbb    H13   1490 0.04500300   1.008000   ; qtot 49.928097
 1491         h1     49    bbb    H14   1491 0.04500300   1.008000   ; qtot 49.973100
 1492         c3     49    bbb     C8   1492 -0.06455200  12.010000   ; qtot 49.908548
 1493         h1     49    bbb    H15   1493 0.13554100   1.008000   ; qtot 50.044089
 1494         h1     49    bbb    H16   1494 0.13554100   1.008000   ; qtot 50.179630
 1495         c3     49    bbb     C9   1495 -0.06455200  12.010000   ; qtot 50.115078
 1496         h1     49    bbb    H17   1496 0.13554100   1.008000   ; qtot 50.250619
 1497         h1     49    bbb    H18   1497 0.13554100   1.008000   ; qtot 50.386160
 1498         os     49    bbb     O1   1498 -0.62587700  16.000000   ; qtot 49.760283
 1499         hn     49    bbb    H19   1499 0.23982500   1.008000   ; qtot 50.000108
; residue   50 bbb rtp bbb q 1.0
 1500         n4     50    bbb     N1   1500 0.03726400  14.010000   ; qtot 50.037372
 1501         c3     50    bbb     C1   1501 -0.07020100  12.010000   ; qtot 49.967171
 1502         hx     50    bbb     H1   1502 0.12219000   1.008000   ; qtot 50.089361
 1503         hx     50    bbb     H2   1503 0.12219000   1.008000   ; qtot 50.211551
 1504         c3     50    bbb     C2   1504 -0.07020100  12.010000   ; qtot 50.141350
 1505         hx     50    bbb     H3   1505 0.12219000   1.008000   ; qtot 50.263540
 1506         hx     50    bbb     H4   1506 0.12219000   1.008000   ; qtot 50.385730
 1507         c3     50    bbb     C3   1507 -0.39007700  12.010000   ; qtot 49.995653
 1508         hx     50    bbb     H5   1508 0.14940300   1.008000   ; qtot 50.145056
 1509         hx     50    bbb     H6   1509 0.14940300   1.008000   ; qtot 50.294459
 1510         c3     50    bbb     C4   1510 0.18057300  12.010000   ; qtot 50.475032
 1511         hc     50    bbb     H7   1511 0.01788900   1.008000   ; qtot 50.492921
 1512         hc     50    bbb     H8   1512 0.01788900   1.008000   ; qtot 50.510810
 1513         c3     50    bbb     C5   1513 -0.11337700  12.010000   ; qtot 50.397433
 1514         hc     50    bbb     H9   1514 0.09515400   1.008000   ; qtot 50.492587
 1515         hc     50    bbb    H10   1515 0.09515400   1.008000   ; qtot 50.587741
 1516         c3     50    bbb     C6   1516 -0.11337700  12.010000   ; qtot 50.474364
 1517         hc     50    bbb    H11   1517 0.09515400   1.008000   ; qtot 50.569518
 1518         hc     50    bbb    H12   1518 0.09515400   1.008000   ; qtot 50.664672
 1519         c3     50    bbb     C7   1519 0.21842400  12.010000   ; qtot 50.883096
 1520         h1     50    bbb    H13   1520 0.04500300   1.008000   ; qtot 50.928099
 1521         h1     50    bbb    H14   1521 0.04500300   1.008000   ; qtot 50.973102
 1522         c3     50    bbb     C8   1522 -0.06455200  12.010000   ; qtot 50.908550
 1523         h1     50    bbb    H15   1523 0.13554100   1.008000   ; qtot 51.044091
 1524         h1     50    bbb    H16   1524 0.13554100   1.008000   ; qtot 51.179632
 1525         c3     50    bbb     C9   1525 -0.06455200  12.010000   ; qtot 51.115080
 1526         h1     50    bbb    H17   1526 0.13554100   1.008000   ; qtot 51.250621
 1527         h1     50    bbb    H18   1527 0.13554100   1.008000   ; qtot 51.386162
 1528         os     50    bbb     O1   1528 -0.62587700  16.000000   ; qtot 50.760285
 1529         hn     50    bbb    H19   1529 0.23982500   1.008000   ; qtot 51.000110
; residue   51 bbb rtp bbb q 1.0
 1530         n4     51    bbb     N1   1530 0.03726400  14.010000   ; qtot 51.037374
 1531         c3     51    bbb     C1   1531 -0.07020100  12.010000   ; qtot 50.967173
 1532         hx     51    bbb     H1   1532 0.12219000   1.008000   ; qtot 51.089363
 1533         hx     51    bbb     H2   1533 0.12219000   1.008000   ; qtot 51.211553
 1534         c3     51    bbb     C2   1534 -0.07020100  12.010000   ; qtot 51.141352
 1535         hx     51    bbb     H3   1535 0.12219000   1.008000   ; qtot 51.263542
 1536         hx     51    bbb     H4   1536 0.12219000   1.008000   ; qtot 51.385732
 1537         c3     51    bbb     C3   1537 -0.39007700  12.010000   ; qtot 50.995655
 1538         hx     51    bbb     H5   1538 0.14940300   1.008000   ; qtot 51.145058
 1539         hx     51    bbb     H6   1539 0.14940300   1.008000   ; qtot 51.294461
 1540         c3     51    bbb     C4   1540 0.18057300  12.010000   ; qtot 51.475034
 1541         hc     51    bbb     H7   1541 0.01788900   1.008000   ; qtot 51.492923
 1542         hc     51    bbb     H8   1542 0.01788900   1.008000   ; qtot 51.510812
 1543         c3     51    bbb     C5   1543 -0.11337700  12.010000   ; qtot 51.397435
 1544         hc     51    bbb     H9   1544 0.09515400   1.008000   ; qtot 51.492589
 1545         hc     51    bbb    H10   1545 0.09515400   1.008000   ; qtot 51.587743
 1546         c3     51    bbb     C6   1546 -0.11337700  12.010000   ; qtot 51.474366
 1547         hc     51    bbb    H11   1547 0.09515400   1.008000   ; qtot 51.569520
 1548         hc     51    bbb    H12   1548 0.09515400   1.008000   ; qtot 51.664674
 1549         c3     51    bbb     C7   1549 0.21842400  12.010000   ; qtot 51.883098
 1550         h1     51    bbb    H13   1550 0.04500300   1.008000   ; qtot 51.928101
 1551         h1     51    bbb    H14   1551 0.04500300   1.008000   ; qtot 51.973104
 1552         c3     51    bbb     C8   1552 -0.06455200  12.010000   ; qtot 51.908552
 1553         h1     51    bbb    H15   1553 0.13554100   1.008000   ; qtot 52.044093
 1554         h1     51    bbb    H16   1554 0.13554100   1.008000   ; qtot 52.179634
 1555         c3     51    bbb     C9   1555 -0.06455200  12.010000   ; qtot 52.115082
 1556         h1     51    bbb    H17   1556 0.13554100   1.008000   ; qtot 52.250623
 1557         h1     51    bbb    H18   1557 0.13554100   1.008000   ; qtot 52.386164
 1558         os     51    bbb     O1   1558 -0.62587700  16.000000   ; qtot 51.760287
 1559         hn     51    bbb    H19   1559 0.23982500   1.008000   ; qtot 52.000112
; residue   52 bbb rtp bbb q 1.0
 1560         n4     52    bbb     N1   1560 0.03726400  14.010000   ; qtot 52.037376
 1561         c3     52    bbb     C1   1561 -0.07020100  12.010000   ; qtot 51.967175
 1562         hx     52    bbb     H1   1562 0.12219000   1.008000   ; qtot 52.089365
 1563         hx     52    bbb     H2   1563 0.12219000   1.008000   ; qtot 52.211555
 1564         c3     52    bbb     C2   1564 -0.07020100  12.010000   ; qtot 52.141354
 1565         hx     52    bbb     H3   1565 0.12219000   1.008000   ; qtot 52.263544
 1566         hx     52    bbb     H4   1566 0.12219000   1.008000   ; qtot 52.385734
 1567         c3     52    bbb     C3   1567 -0.39007700  12.010000   ; qtot 51.995657
 1568         hx     52    bbb     H5   1568 0.14940300   1.008000   ; qtot 52.145060
 1569         hx     52    bbb     H6   1569 0.14940300   1.008000   ; qtot 52.294463
 1570         c3     52    bbb     C4   1570 0.18057300  12.010000   ; qtot 52.475036
 1571         hc     52    bbb     H7   1571 0.01788900   1.008000   ; qtot 52.492925
 1572         hc     52    bbb     H8   1572 0.01788900   1.008000   ; qtot 52.510814
 1573         c3     52    bbb     C5   1573 -0.11337700  12.010000   ; qtot 52.397437
 1574         hc     52    bbb     H9   1574 0.09515400   1.008000   ; qtot 52.492591
 1575         hc     52    bbb    H10   1575 0.09515400   1.008000   ; qtot 52.587745
 1576         c3     52    bbb     C6   1576 -0.11337700  12.010000   ; qtot 52.474368
 1577         hc     52    bbb    H11   1577 0.09515400   1.008000   ; qtot 52.569522
 1578         hc     52    bbb    H12   1578 0.09515400   1.008000   ; qtot 52.664676
 1579         c3     52    bbb     C7   1579 0.21842400  12.010000   ; qtot 52.883100
 1580         h1     52    bbb    H13   1580 0.04500300   1.008000   ; qtot 52.928103
 1581         h1     52    bbb    H14   1581 0.04500300   1.008000   ; qtot 52.973106
 1582         c3     52    bbb     C8   1582 -0.06455200  12.010000   ; qtot 52.908554
 1583         h1     52    bbb    H15   1583 0.13554100   1.008000   ; qtot 53.044095
 1584         h1     52    bbb    H16   1584 0.13554100   1.008000   ; qtot 53.179636
 1585         c3     52    bbb     C9   1585 -0.06455200  12.010000   ; qtot 53.115084
 1586         h1     52    bbb    H17   1586 0.13554100   1.008000   ; qtot 53.250625
 1587         h1     52    bbb    H18   1587 0.13554100   1.008000   ; qtot 53.386166
 1588         os     52    bbb     O1   1588 -0.62587700  16.000000   ; qtot 52.760289
 1589         hn     52    bbb    H19   1589 0.23982500   1.008000   ; qtot 53.000114
; residue   53 bbb rtp bbb q 1.0
 1590         n4     53    bbb     N1   1590 0.03726400  14.010000   ; qtot 53.037378
 1591         c3     53    bbb     C1   1591 -0.07020100  12.010000   ; qtot 52.967177
 1592         hx     53    bbb     H1   1592 0.12219000   1.008000   ; qtot 53.089367
 1593         hx     53    bbb     H2   1593 0.12219000   1.008000   ; qtot 53.211557
 1594         c3     53    bbb     C2   1594 -0.07020100  12.010000   ; qtot 53.141356
 1595         hx     53    bbb     H3   1595 0.12219000   1.008000   ; qtot 53.263546
 1596         hx     53    bbb     H4   1596 0.12219000   1.008000   ; qtot 53.385736
 1597         c3     53    bbb     C3   1597 -0.39007700  12.010000   ; qtot 52.995659
 1598         hx     53    bbb     H5   1598 0.14940300   1.008000   ; qtot 53.145062
 1599         hx     53    bbb     H6   1599 0.14940300   1.008000   ; qtot 53.294465
 1600         c3     53    bbb     C4   1600 0.18057300  12.010000   ; qtot 53.475038
 1601         hc     53    bbb     H7   1601 0.01788900   1.008000   ; qtot 53.492927
 1602         hc     53    bbb     H8   1602 0.01788900   1.008000   ; qtot 53.510816
 1603         c3     53    bbb     C5   1603 -0.11337700  12.010000   ; qtot 53.397439
 1604         hc     53    bbb     H9   1604 0.09515400   1.008000   ; qtot 53.492593
 1605         hc     53    bbb    H10   1605 0.09515400   1.008000   ; qtot 53.587747
 1606         c3     53    bbb     C6   1606 -0.11337700  12.010000   ; qtot 53.474370
 1607         hc     53    bbb    H11   1607 0.09515400   1.008000   ; qtot 53.569524
 1608         hc     53    bbb    H12   1608 0.09515400   1.008000   ; qtot 53.664678
 1609         c3     53    bbb     C7   1609 0.21842400  12.010000   ; qtot 53.883102
 1610         h1     53    bbb    H13   1610 0.04500300   1.008000   ; qtot 53.928105
 1611         h1     53    bbb    H14   1611 0.04500300   1.008000   ; qtot 53.973108
 1612         c3     53    bbb     C8   1612 -0.06455200  12.010000   ; qtot 53.908556
 1613         h1     53    bbb    H15   1613 0.13554100   1.008000   ; qtot 54.044097
 1614         h1     53    bbb    H16   1614 0.13554100   1.008000   ; qtot 54.179638
 1615         c3     53    bbb     C9   1615 -0.06455200  12.010000   ; qtot 54.115086
 1616         h1     53    bbb    H17   1616 0.13554100   1.008000   ; qtot 54.250627
 1617         h1     53    bbb    H18   1617 0.13554100   1.008000   ; qtot 54.386168
 1618         os     53    bbb     O1   1618 -0.62587700  16.000000   ; qtot 53.760291
 1619         hn     53    bbb    H19   1619 0.23982500   1.008000   ; qtot 54.000116
; residue   54 bbb rtp bbb q 1.0
 1620         n4     54    bbb     N1   1620 0.03726400  14.010000   ; qtot 54.037380
 1621         c3     54    bbb     C1   1621 -0.07020100  12.010000   ; qtot 53.967179
 1622         hx     54    bbb     H1   1622 0.12219000   1.008000   ; qtot 54.089369
 1623         hx     54    bbb     H2   1623 0.12219000   1.008000   ; qtot 54.211559
 1624         c3     54    bbb     C2   1624 -0.07020100  12.010000   ; qtot 54.141358
 1625         hx     54    bbb     H3   1625 0.12219000   1.008000   ; qtot 54.263548
 1626         hx     54    bbb     H4   1626 0.12219000   1.008000   ; qtot 54.385738
 1627         c3     54    bbb     C3   1627 -0.39007700  12.010000   ; qtot 53.995661
 1628         hx     54    bbb     H5   1628 0.14940300   1.008000   ; qtot 54.145064
 1629         hx     54    bbb     H6   1629 0.14940300   1.008000   ; qtot 54.294467
 1630         c3     54    bbb     C4   1630 0.18057300  12.010000   ; qtot 54.475040
 1631         hc     54    bbb     H7   1631 0.01788900   1.008000   ; qtot 54.492929
 1632         hc     54    bbb     H8   1632 0.01788900   1.008000   ; qtot 54.510818
 1633         c3     54    bbb     C5   1633 -0.11337700  12.010000   ; qtot 54.397441
 1634         hc     54    bbb     H9   1634 0.09515400   1.008000   ; qtot 54.492595
 1635         hc     54    bbb    H10   1635 0.09515400   1.008000   ; qtot 54.587749
 1636         c3     54    bbb     C6   1636 -0.11337700  12.010000   ; qtot 54.474372
 1637         hc     54    bbb    H11   1637 0.09515400   1.008000   ; qtot 54.569526
 1638         hc     54    bbb    H12   1638 0.09515400   1.008000   ; qtot 54.664680
 1639         c3     54    bbb     C7   1639 0.21842400  12.010000   ; qtot 54.883104
 1640         h1     54    bbb    H13   1640 0.04500300   1.008000   ; qtot 54.928107
 1641         h1     54    bbb    H14   1641 0.04500300   1.008000   ; qtot 54.973110
 1642         c3     54    bbb     C8   1642 -0.06455200  12.010000   ; qtot 54.908558
 1643         h1     54    bbb    H15   1643 0.13554100   1.008000   ; qtot 55.044099
 1644         h1     54    bbb    H16   1644 0.13554100   1.008000   ; qtot 55.179640
 1645         c3     54    bbb     C9   1645 -0.06455200  12.010000   ; qtot 55.115088
 1646         h1     54    bbb    H17   1646 0.13554100   1.008000   ; qtot 55.250629
 1647         h1     54    bbb    H18   1647 0.13554100   1.008000   ; qtot 55.386170
 1648         os     54    bbb     O1   1648 -0.62587700  16.000000   ; qtot 54.760293
 1649         hn     54    bbb    H19   1649 0.23982500   1.008000   ; qtot 55.000118
; residue   55 bbb rtp bbb q 1.0
 1650         n4     55    bbb     N1   1650 0.03726400  14.010000   ; qtot 55.037382
 1651         c3     55    bbb     C1   1651 -0.07020100  12.010000   ; qtot 54.967181
 1652         hx     55    bbb     H1   1652 0.12219000   1.008000   ; qtot 55.089371
 1653         hx     55    bbb     H2   1653 0.12219000   1.008000   ; qtot 55.211561
 1654         c3     55    bbb     C2   1654 -0.07020100  12.010000   ; qtot 55.141360
 1655         hx     55    bbb     H3   1655 0.12219000   1.008000   ; qtot 55.263550
 1656         hx     55    bbb     H4   1656 0.12219000   1.008000   ; qtot 55.385740
 1657         c3     55    bbb     C3   1657 -0.39007700  12.010000   ; qtot 54.995663
 1658         hx     55    bbb     H5   1658 0.14940300   1.008000   ; qtot 55.145066
 1659         hx     55    bbb     H6   1659 0.14940300   1.008000   ; qtot 55.294469
 1660         c3     55    bbb     C4   1660 0.18057300  12.010000   ; qtot 55.475042
 1661         hc     55    bbb     H7   1661 0.01788900   1.008000   ; qtot 55.492931
 1662         hc     55    bbb     H8   1662 0.01788900   1.008000   ; qtot 55.510820
 1663         c3     55    bbb     C5   1663 -0.11337700  12.010000   ; qtot 55.397443
 1664         hc     55    bbb     H9   1664 0.09515400   1.008000   ; qtot 55.492597
 1665         hc     55    bbb    H10   1665 0.09515400   1.008000   ; qtot 55.587751
 1666         c3     55    bbb     C6   1666 -0.11337700  12.010000   ; qtot 55.474374
 1667         hc     55    bbb    H11   1667 0.09515400   1.008000   ; qtot 55.569528
 1668         hc     55    bbb    H12   1668 0.09515400   1.008000   ; qtot 55.664682
 1669         c3     55    bbb     C7   1669 0.21842400  12.010000   ; qtot 55.883106
 1670         h1     55    bbb    H13   1670 0.04500300   1.008000   ; qtot 55.928109
 1671         h1     55    bbb    H14   1671 0.04500300   1.008000   ; qtot 55.973112
 1672         c3     55    bbb     C8   1672 -0.06455200  12.010000   ; qtot 55.908560
 1673         h1     55    bbb    H15   1673 0.13554100   1.008000   ; qtot 56.044101
 1674         h1     55    bbb    H16   1674 0.13554100   1.008000   ; qtot 56.179642
 1675         c3     55    bbb     C9   1675 -0.06455200  12.010000   ; qtot 56.115090
 1676         h1     55    bbb    H17   1676 0.13554100   1.008000   ; qtot 56.250631
 1677         h1     55    bbb    H18   1677 0.13554100   1.008000   ; qtot 56.386172
 1678         os     55    bbb     O1   1678 -0.62587700  16.000000   ; qtot 55.760295
 1679         hn     55    bbb    H19   1679 0.23982500   1.008000   ; qtot 56.000120
; residue   56 bbb rtp bbb q 1.0
 1680         n4     56    bbb     N1   1680 0.03726400  14.010000   ; qtot 56.037384
 1681         c3     56    bbb     C1   1681 -0.07020100  12.010000   ; qtot 55.967183
 1682         hx     56    bbb     H1   1682 0.12219000   1.008000   ; qtot 56.089373
 1683         hx     56    bbb     H2   1683 0.12219000   1.008000   ; qtot 56.211563
 1684         c3     56    bbb     C2   1684 -0.07020100  12.010000   ; qtot 56.141362
 1685         hx     56    bbb     H3   1685 0.12219000   1.008000   ; qtot 56.263552
 1686         hx     56    bbb     H4   1686 0.12219000   1.008000   ; qtot 56.385742
 1687         c3     56    bbb     C3   1687 -0.39007700  12.010000   ; qtot 55.995665
 1688         hx     56    bbb     H5   1688 0.14940300   1.008000   ; qtot 56.145068
 1689         hx     56    bbb     H6   1689 0.14940300   1.008000   ; qtot 56.294471
 1690         c3     56    bbb     C4   1690 0.18057300  12.010000   ; qtot 56.475044
 1691         hc     56    bbb     H7   1691 0.01788900   1.008000   ; qtot 56.492933
 1692         hc     56    bbb     H8   1692 0.01788900   1.008000   ; qtot 56.510822
 1693         c3     56    bbb     C5   1693 -0.11337700  12.010000   ; qtot 56.397445
 1694         hc     56    bbb     H9   1694 0.09515400   1.008000   ; qtot 56.492599
 1695         hc     56    bbb    H10   1695 0.09515400   1.008000   ; qtot 56.587753
 1696         c3     56    bbb     C6   1696 -0.11337700  12.010000   ; qtot 56.474376
 1697         hc     56    bbb    H11   1697 0.09515400   1.008000   ; qtot 56.569530
 1698         hc     56    bbb    H12   1698 0.09515400   1.008000   ; qtot 56.664684
 1699         c3     56    bbb     C7   1699 0.21842400  12.010000   ; qtot 56.883108
 1700         h1     56    bbb    H13   1700 0.04500300   1.008000   ; qtot 56.928111
 1701         h1     56    bbb    H14   1701 0.04500300   1.008000   ; qtot 56.973114
 1702         c3     56    bbb     C8   1702 -0.06455200  12.010000   ; qtot 56.908562
 1703         h1     56    bbb    H15   1703 0.13554100   1.008000   ; qtot 57.044103
 1704         h1     56    bbb    H16   1704 0.13554100   1.008000   ; qtot 57.179644
 1705         c3     56    bbb     C9   1705 -0.06455200  12.010000   ; qtot 57.115092
 1706         h1     56    bbb    H17   1706 0.13554100   1.008000   ; qtot 57.250633
 1707         h1     56    bbb    H18   1707 0.13554100   1.008000   ; qtot 57.386174
 1708         os     56    bbb     O1   1708 -0.62587700  16.000000   ; qtot 56.760297
 1709         hn     56    bbb    H19   1709 0.23982500   1.008000   ; qtot 57.000122
; residue   57 bbb rtp bbb q 1.0
 1710         n4     57    bbb     N1   1710 0.03726400  14.010000   ; qtot 57.037386
 1711         c3     57    bbb     C1   1711 -0.07020100  12.010000   ; qtot 56.967185
 1712         hx     57    bbb     H1   1712 0.12219000   1.008000   ; qtot 57.089375
 1713         hx     57    bbb     H2   1713 0.12219000   1.008000   ; qtot 57.211565
 1714         c3     57    bbb     C2   1714 -0.07020100  12.010000   ; qtot 57.141364
 1715         hx     57    bbb     H3   1715 0.12219000   1.008000   ; qtot 57.263554
 1716         hx     57    bbb     H4   1716 0.12219000   1.008000   ; qtot 57.385744
 1717         c3     57    bbb     C3   1717 -0.39007700  12.010000   ; qtot 56.995667
 1718         hx     57    bbb     H5   1718 0.14940300   1.008000   ; qtot 57.145070
 1719         hx     57    bbb     H6   1719 0.14940300   1.008000   ; qtot 57.294473
 1720         c3     57    bbb     C4   1720 0.18057300  12.010000   ; qtot 57.475046
 1721         hc     57    bbb     H7   1721 0.01788900   1.008000   ; qtot 57.492935
 1722         hc     57    bbb     H8   1722 0.01788900   1.008000   ; qtot 57.510824
 1723         c3     57    bbb     C5   1723 -0.11337700  12.010000   ; qtot 57.397447
 1724         hc     57    bbb     H9   1724 0.09515400   1.008000   ; qtot 57.492601
 1725         hc     57    bbb    H10   1725 0.09515400   1.008000   ; qtot 57.587755
 1726         c3     57    bbb     C6   1726 -0.11337700  12.010000   ; qtot 57.474378
 1727         hc     57    bbb    H11   1727 0.09515400   1.008000   ; qtot 57.569532
 1728         hc     57    bbb    H12   1728 0.09515400   1.008000   ; qtot 57.664686
 1729         c3     57    bbb     C7   1729 0.21842400  12.010000   ; qtot 57.883110
 1730         h1     57    bbb    H13   1730 0.04500300   1.008000   ; qtot 57.928113
 1731         h1     57    bbb    H14   1731 0.04500300   1.008000   ; qtot 57.973116
 1732         c3     57    bbb     C8   1732 -0.06455200  12.010000   ; qtot 57.908564
 1733         h1     57    bbb    H15   1733 0.13554100   1.008000   ; qtot 58.044105
 1734         h1     57    bbb    H16   1734 0.13554100   1.008000   ; qtot 58.179646
 1735         c3     57    bbb     C9   1735 -0.06455200  12.010000   ; qtot 58.115094
 1736         h1     57    bbb    H17   1736 0.13554100   1.008000   ; qtot 58.250635
 1737         h1     57    bbb    H18   1737 0.13554100   1.008000   ; qtot 58.386176
 1738         os     57    bbb     O1   1738 -0.62587700  16.000000   ; qtot 57.760299
 1739         hn     57    bbb    H19   1739 0.23982500   1.008000   ; qtot 58.000124
; residue   58 bbb rtp bbb q 1.0
 1740         n4     58    bbb     N1   1740 0.03726400  14.010000   ; qtot 58.037388
 1741         c3     58    bbb     C1   1741 -0.07020100  12.010000   ; qtot 57.967187
 1742         hx     58    bbb     H1   1742 0.12219000   1.008000   ; qtot 58.089377
 1743         hx     58    bbb     H2   1743 0.12219000   1.008000   ; qtot 58.211567
 1744         c3     58    bbb     C2   1744 -0.07020100  12.010000   ; qtot 58.141366
 1745         hx     58    bbb     H3   1745 0.12219000   1.008000   ; qtot 58.263556
 1746         hx     58    bbb     H4   1746 0.12219000   1.008000   ; qtot 58.385746
 1747         c3     58    bbb     C3   1747 -0.39007700  12.010000   ; qtot 57.995669
 1748         hx     58    bbb     H5   1748 0.14940300   1.008000   ; qtot 58.145072
 1749         hx     58    bbb     H6   1749 0.14940300   1.008000   ; qtot 58.294475
 1750         c3     58    bbb     C4   1750 0.18057300  12.010000   ; qtot 58.475048
 1751         hc     58    bbb     H7   1751 0.01788900   1.008000   ; qtot 58.492937
 1752         hc     58    bbb     H8   1752 0.01788900   1.008000   ; qtot 58.510826
 1753         c3     58    bbb     C5   1753 -0.11337700  12.010000   ; qtot 58.397449
 1754         hc     58    bbb     H9   1754 0.09515400   1.008000   ; qtot 58.492603
 1755         hc     58    bbb    H10   1755 0.09515400   1.008000   ; qtot 58.587757
 1756         c3     58    bbb     C6   1756 -0.11337700  12.010000   ; qtot 58.474380
 1757         hc     58    bbb    H11   1757 0.09515400   1.008000   ; qtot 58.569534
 1758         hc     58    bbb    H12   1758 0.09515400   1.008000   ; qtot 58.664688
 1759         c3     58    bbb     C7   1759 0.21842400  12.010000   ; qtot 58.883112
 1760         h1     58    bbb    H13   1760 0.04500300   1.008000   ; qtot 58.928115
 1761         h1     58    bbb    H14   1761 0.04500300   1.008000   ; qtot 58.973118
 1762         c3     58    bbb     C8   1762 -0.06455200  12.010000   ; qtot 58.908566
 1763         h1     58    bbb    H15   1763 0.13554100   1.008000   ; qtot 59.044107
 1764         h1     58    bbb    H16   1764 0.13554100   1.008000   ; qtot 59.179648
 1765         c3     58    bbb     C9   1765 -0.06455200  12.010000   ; qtot 59.115096
 1766         h1     58    bbb    H17   1766 0.13554100   1.008000   ; qtot 59.250637
 1767         h1     58    bbb    H18   1767 0.13554100   1.008000   ; qtot 59.386178
 1768         os     58    bbb     O1   1768 -0.62587700  16.000000   ; qtot 58.760301
 1769         hn     58    bbb    H19   1769 0.23982500   1.008000   ; qtot 59.000126
; residue   59 bbb rtp bbb q 1.0
 1770         n4     59    bbb     N1   1770 0.03726400  14.010000   ; qtot 59.037390
 1771         c3     59    bbb     C1   1771 -0.07020100  12.010000   ; qtot 58.967189
 1772         hx     59    bbb     H1   1772 0.12219000   1.008000   ; qtot 59.089379
 1773         hx     59    bbb     H2   1773 0.12219000   1.008000   ; qtot 59.211569
 1774         c3     59    bbb     C2   1774 -0.07020100  12.010000   ; qtot 59.141368
 1775         hx     59    bbb     H3   1775 0.12219000   1.008000   ; qtot 59.263558
 1776         hx     59    bbb     H4   1776 0.12219000   1.008000   ; qtot 59.385748
 1777         c3     59    bbb     C3   1777 -0.39007700  12.010000   ; qtot 58.995671
 1778         hx     59    bbb     H5   1778 0.14940300   1.008000   ; qtot 59.145074
 1779         hx     59    bbb     H6   1779 0.14940300   1.008000   ; qtot 59.294477
 1780         c3     59    bbb     C4   1780 0.18057300  12.010000   ; qtot 59.475050
 1781         hc     59    bbb     H7   1781 0.01788900   1.008000   ; qtot 59.492939
 1782         hc     59    bbb     H8   1782 0.01788900   1.008000   ; qtot 59.510828
 1783         c3     59    bbb     C5   1783 -0.11337700  12.010000   ; qtot 59.397451
 1784         hc     59    bbb     H9   1784 0.09515400   1.008000   ; qtot 59.492605
 1785         hc     59    bbb    H10   1785 0.09515400   1.008000   ; qtot 59.587759
 1786         c3     59    bbb     C6   1786 -0.11337700  12.010000   ; qtot 59.474382
 1787         hc     59    bbb    H11   1787 0.09515400   1.008000   ; qtot 59.569536
 1788         hc     59    bbb    H12   1788 0.09515400   1.008000   ; qtot 59.664690
 1789         c3     59    bbb     C7   1789 0.21842400  12.010000   ; qtot 59.883114
 1790         h1     59    bbb    H13   1790 0.04500300   1.008000   ; qtot 59.928117
 1791         h1     59    bbb    H14   1791 0.04500300   1.008000   ; qtot 59.973120
 1792         c3     59    bbb     C8   1792 -0.06455200  12.010000   ; qtot 59.908568
 1793         h1     59    bbb    H15   1793 0.13554100   1.008000   ; qtot 60.044109
 1794         h1     59    bbb    H16   1794 0.13554100   1.008000   ; qtot 60.179650
 1795         c3     59    bbb     C9   1795 -0.06455200  12.010000   ; qtot 60.115098
 1796         h1     59    bbb    H17   1796 0.13554100   1.008000   ; qtot 60.250639
 1797         h1     59    bbb    H18   1797 0.13554100   1.008000   ; qtot 60.386180
 1798         os     59    bbb     O1   1798 -0.62587700  16.000000   ; qtot 59.760303
 1799         hn     59    bbb    H19   1799 0.23982500   1.008000   ; qtot 60.000128
; residue   60 bbb rtp bbb q 1.0
 1800         n4     60    bbb     N1   1800 0.03726400  14.010000   ; qtot 60.037392
 1801         c3     60    bbb     C1   1801 -0.07020100  12.010000   ; qtot 59.967191
 1802         hx     60    bbb     H1   1802 0.12219000   1.008000   ; qtot 60.089381
 1803         hx     60    bbb     H2   1803 0.12219000   1.008000   ; qtot 60.211571
 1804         c3     60    bbb     C2   1804 -0.07020100  12.010000   ; qtot 60.141370
 1805         hx     60    bbb     H3   1805 0.12219000   1.008000   ; qtot 60.263560
 1806         hx     60    bbb     H4   1806 0.12219000   1.008000   ; qtot 60.385750
 1807         c3     60    bbb     C3   1807 -0.39007700  12.010000   ; qtot 59.995673
 1808         hx     60    bbb     H5   1808 0.14940300   1.008000   ; qtot 60.145076
 1809         hx     60    bbb     H6   1809 0.14940300   1.008000   ; qtot 60.294479
 1810         c3     60    bbb     C4   1810 0.18057300  12.010000   ; qtot 60.475052
 1811         hc     60    bbb     H7   1811 0.01788900   1.008000   ; qtot 60.492941
 1812         hc     60    bbb     H8   1812 0.01788900   1.008000   ; qtot 60.510830
 1813         c3     60    bbb     C5   1813 -0.11337700  12.010000   ; qtot 60.397453
 1814         hc     60    bbb     H9   1814 0.09515400   1.008000   ; qtot 60.492607
 1815         hc     60    bbb    H10   1815 0.09515400   1.008000   ; qtot 60.587761
 1816         c3     60    bbb     C6   1816 -0.11337700  12.010000   ; qtot 60.474384
 1817         hc     60    bbb    H11   1817 0.09515400   1.008000   ; qtot 60.569538
 1818         hc     60    bbb    H12   1818 0.09515400   1.008000   ; qtot 60.664692
 1819         c3     60    bbb     C7   1819 0.21842400  12.010000   ; qtot 60.883116
 1820         h1     60    bbb    H13   1820 0.04500300   1.008000   ; qtot 60.928119
 1821         h1     60    bbb    H14   1821 0.04500300   1.008000   ; qtot 60.973122
 1822         c3     60    bbb     C8   1822 -0.06455200  12.010000   ; qtot 60.908570
 1823         h1     60    bbb    H15   1823 0.13554100   1.008000   ; qtot 61.044111
 1824         h1     60    bbb    H16   1824 0.13554100   1.008000   ; qtot 61.179652
 1825         c3     60    bbb     C9   1825 -0.06455200  12.010000   ; qtot 61.115100
 1826         h1     60    bbb    H17   1826 0.13554100   1.008000   ; qtot 61.250641
 1827         h1     60    bbb    H18   1827 0.13554100   1.008000   ; qtot 61.386182
 1828         os     60    bbb     O1   1828 -0.62587700  16.000000   ; qtot 60.760305
 1829         hn     60    bbb    H19   1829 0.23982500   1.008000   ; qtot 61.000130
; residue   61 bbb rtp bbb q 1.0
 1830         n4     61    bbb     N1   1830 0.03726400  14.010000   ; qtot 61.037394
 1831         c3     61    bbb     C1   1831 -0.07020100  12.010000   ; qtot 60.967193
 1832         hx     61    bbb     H1   1832 0.12219000   1.008000   ; qtot 61.089383
 1833         hx     61    bbb     H2   1833 0.12219000   1.008000   ; qtot 61.211573
 1834         c3     61    bbb     C2   1834 -0.07020100  12.010000   ; qtot 61.141372
 1835         hx     61    bbb     H3   1835 0.12219000   1.008000   ; qtot 61.263562
 1836         hx     61    bbb     H4   1836 0.12219000   1.008000   ; qtot 61.385752
 1837         c3     61    bbb     C3   1837 -0.39007700  12.010000   ; qtot 60.995675
 1838         hx     61    bbb     H5   1838 0.14940300   1.008000   ; qtot 61.145078
 1839         hx     61    bbb     H6   1839 0.14940300   1.008000   ; qtot 61.294481
 1840         c3     61    bbb     C4   1840 0.18057300  12.010000   ; qtot 61.475054
 1841         hc     61    bbb     H7   1841 0.01788900   1.008000   ; qtot 61.492943
 1842         hc     61    bbb     H8   1842 0.01788900   1.008000   ; qtot 61.510832
 1843         c3     61    bbb     C5   1843 -0.11337700  12.010000   ; qtot 61.397455
 1844         hc     61    bbb     H9   1844 0.09515400   1.008000   ; qtot 61.492609
 1845         hc     61    bbb    H10   1845 0.09515400   1.008000   ; qtot 61.587763
 1846         c3     61    bbb     C6   1846 -0.11337700  12.010000   ; qtot 61.474386
 1847         hc     61    bbb    H11   1847 0.09515400   1.008000   ; qtot 61.569540
 1848         hc     61    bbb    H12   1848 0.09515400   1.008000   ; qtot 61.664694
 1849         c3     61    bbb     C7   1849 0.21842400  12.010000   ; qtot 61.883118
 1850         h1     61    bbb    H13   1850 0.04500300   1.008000   ; qtot 61.928121
 1851         h1     61    bbb    H14   1851 0.04500300   1.008000   ; qtot 61.973124
 1852         c3     61    bbb     C8   1852 -0.06455200  12.010000   ; qtot 61.908572
 1853         h1     61    bbb    H15   1853 0.13554100   1.008000   ; qtot 62.044113
 1854         h1     61    bbb    H16   1854 0.13554100   1.008000   ; qtot 62.179654
 1855         c3     61    bbb     C9   1855 -0.06455200  12.010000   ; qtot 62.115102
 1856         h1     61    bbb    H17   1856 0.13554100   1.008000   ; qtot 62.250643
 1857         h1     61    bbb    H18   1857 0.13554100   1.008000   ; qtot 62.386184
 1858         os     61    bbb     O1   1858 -0.62587700  16.000000   ; qtot 61.760307
 1859         hn     61    bbb    H19   1859 0.23982500   1.008000   ; qtot 62.000132
; residue   62 ccc rtp ccc q 0.0
 1860         c3     62    ccc     C1   1860 -0.33178800  12.010000   ; qtot 61.668344
 1861         c3     62    ccc     C2   1861 0.30606500  12.010000   ; qtot 61.974409
 1862         h1     62    ccc     H1   1862 0.11662300   1.008000   ; qtot 62.091032
 1863         h1     62    ccc     H2   1863 0.11526800   1.008000   ; qtot 62.206300
 1864         c3     62    ccc     C3   1864 0.15592700  12.010000   ; qtot 62.362227
 1865         c3     62    ccc     C4   1865 0.28383300  12.010000   ; qtot 62.646060
 1866         c3     62    ccc     C5   1866 0.32403300  12.010000   ; qtot 62.970093
 1867         h1     62    ccc     H3   1867 0.13386900   1.008000   ; qtot 63.103962
 1868         h1     62    ccc     H4   1868 0.10146700   1.008000   ; qtot 63.205429
 1869         h2     62    ccc     H5   1869 0.10960400   1.008000   ; qtot 63.315033
 1870         os     62    ccc     O1   1870 -0.28650000  16.000000   ; qtot 63.028533
 1871         oh     62    ccc     O2   1871 -0.86012500  16.000000   ; qtot 62.168408
 1872         oh     62    ccc     O3   1872 -0.83772800  16.000000   ; qtot 61.330680
 1873         oh     62    ccc     O4   1873 -0.77449700  16.000000   ; qtot 60.556183
 1874         c3     62    ccc     C6   1874 0.37576500  12.010000   ; qtot 60.931948
 1875         ho     62    ccc     H6   1875 0.53656000   1.008000   ; qtot 61.468508
 1876         ho     62    ccc     H7   1876 0.49492100   1.008000   ; qtot 61.963429
 1877         ho     62    ccc     H8   1877 0.51297200   1.008000   ; qtot 62.476401
 1878         h1     62    ccc     H9   1878 0.05653400   1.008000   ; qtot 62.532935
 1879         h1     62    ccc    H10   1879 0.05653400   1.008000   ; qtot 62.589469
 1880         oh     62    ccc     O5   1880 -0.84113600  16.000000   ; qtot 61.748333
 1881         ho     62    ccc    H11   1881 0.51201600   1.008000   ; qtot 62.260349
 1882         os     62    ccc     O6   1882 -0.26013600  16.000000   ; qtot 62.000213
; residue   63 ccc rtp ccc q 0.0
 1883         c3     63    ccc     C1   1883 -0.33178800  12.010000   ; qtot 61.668425
 1884         c3     63    ccc     C2   1884 0.30606500  12.010000   ; qtot 61.974490
 1885         h1     63    ccc     H1   1885 0.11662300   1.008000   ; qtot 62.091113
 1886         h1     63    ccc     H2   1886 0.11526800   1.008000   ; qtot 62.206381
 1887         c3     63    ccc     C3   1887 0.15592700  12.010000   ; qtot 62.362308
 1888         c3     63    ccc     C4   1888 0.28383300  12.010000   ; qtot 62.646141
 1889         c3     63    ccc     C5   1889 0.32403300  12.010000   ; qtot 62.970174
 1890         h1     63    ccc     H3   1890 0.13386900   1.008000   ; qtot 63.104043
 1891         h1     63    ccc     H4   1891 0.10146700   1.008000   ; qtot 63.205510
 1892         h2     63    ccc     H5   1892 0.10960400   1.008000   ; qtot 63.315114
 1893         os     63    ccc     O1   1893 -0.28650000  16.000000   ; qtot 63.028614
 1894         oh     63    ccc     O2   1894 -0.86012500  16.000000   ; qtot 62.168489
 1895         oh     63    ccc     O3   1895 -0.83772800  16.000000   ; qtot 61.330761
 1896         oh     63    ccc     O4   1896 -0.77449700  16.000000   ; qtot 60.556264
 1897         c3     63    ccc     C6   1897 0.37576500  12.010000   ; qtot 60.932029
 1898         ho     63    ccc     H6   1898 0.53656000   1.008000   ; qtot 61.468589
 1899         ho     63    ccc     H7   1899 0.49492100   1.008000   ; qtot 61.963510
 1900         ho     63    ccc     H8   1900 0.51297200   1.008000   ; qtot 62.476482
 1901         h1     63    ccc     H9   1901 0.05653400   1.008000   ; qtot 62.533016
 1902         h1     63    ccc    H10   1902 0.05653400   1.008000   ; qtot 62.589550
 1903         oh     63    ccc     O5   1903 -0.84113600  16.000000   ; qtot 61.748414
 1904         ho     63    ccc    H11   1904 0.51201600   1.008000   ; qtot 62.260430
 1905         os     63    ccc     O6   1905 -0.26013600  16.000000   ; qtot 62.000294
; residue   64 ccc rtp ccc q 0.0
 1906         c3     64    ccc     C1   1906 -0.33178800  12.010000   ; qtot 61.668506
 1907         c3     64    ccc     C2   1907 0.30606500  12.010000   ; qtot 61.974571
 1908         h1     64    ccc     H1   1908 0.11662300   1.008000   ; qtot 62.091194
 1909         h1     64    ccc     H2   1909 0.11526800   1.008000   ; qtot 62.206462
 1910         c3     64    ccc     C3   1910 0.15592700  12.010000   ; qtot 62.362389
 1911         c3     64    ccc     C4   1911 0.28383300  12.010000   ; qtot 62.646222
 1912         c3     64    ccc     C5   1912 0.32403300  12.010000   ; qtot 62.970255
 1913         h1     64    ccc     H3   1913 0.13386900   1.008000   ; qtot 63.104124
 1914         h1     64    ccc     H4   1914 0.10146700   1.008000   ; qtot 63.205591
 1915         h2     64    ccc     H5   1915 0.10960400   1.008000   ; qtot 63.315195
 1916         os     64    ccc     O1   1916 -0.28650000  16.000000   ; qtot 63.028695
 1917         oh     64    ccc     O2   1917 -0.86012500  16.000000   ; qtot 62.168570
 1918         oh     64    ccc     O3   1918 -0.83772800  16.000000   ; qtot 61.330842
 1919         oh     64    ccc     O4   1919 -0.77449700  16.000000   ; qtot 60.556345
 1920         c3     64    ccc     C6   1920 0.37576500  12.010000   ; qtot 60.932110
 1921         ho     64    ccc     H6   1921 0.53656000   1.008000   ; qtot 61.468670
 1922         ho     64    ccc     H7   1922 0.49492100   1.008000   ; qtot 61.963591
 1923         ho     64    ccc     H8   1923 0.51297200   1.008000   ; qtot 62.476563
 1924         h1     64    ccc     H9   1924 0.05653400   1.008000   ; qtot 62.533097
 1925         h1     64    ccc    H10   1925 0.05653400   1.008000   ; qtot 62.589631
 1926         oh     64    ccc     O5   1926 -0.84113600  16.000000   ; qtot 61.748495
 1927         ho     64    ccc    H11   1927 0.51201600   1.008000   ; qtot 62.260511
 1928         os     64    ccc     O6   1928 -0.26013600  16.000000   ; qtot 62.000375
; residue   65 ccc rtp ccc q 0.0
 1929         c3     65    ccc     C1   1929 -0.33178800  12.010000   ; qtot 61.668587
 1930         c3     65    ccc     C2   1930 0.30606500  12.010000   ; qtot 61.974652
 1931         h1     65    ccc     H1   1931 0.11662300   1.008000   ; qtot 62.091275
 1932         h1     65    ccc     H2   1932 0.11526800   1.008000   ; qtot 62.206543
 1933         c3     65    ccc     C3   1933 0.15592700  12.010000   ; qtot 62.362470
 1934         c3     65    ccc     C4   1934 0.28383300  12.010000   ; qtot 62.646303
 1935         c3     65    ccc     C5   1935 0.32403300  12.010000   ; qtot 62.970336
 1936         h1     65    ccc     H3   1936 0.13386900   1.008000   ; qtot 63.104205
 1937         h1     65    ccc     H4   1937 0.10146700   1.008000   ; qtot 63.205672
 1938         h2     65    ccc     H5   1938 0.10960400   1.008000   ; qtot 63.315276
 1939         os     65    ccc     O1   1939 -0.28650000  16.000000   ; qtot 63.028776
 1940         oh     65    ccc     O2   1940 -0.86012500  16.000000   ; qtot 62.168651
 1941         oh     65    ccc     O3   1941 -0.83772800  16.000000   ; qtot 61.330923
 1942         oh     65    ccc     O4   1942 -0.77449700  16.000000   ; qtot 60.556426
 1943         c3     65    ccc     C6   1943 0.37576500  12.010000   ; qtot 60.932191
 1944         ho     65    ccc     H6   1944 0.53656000   1.008000   ; qtot 61.468751
 1945         ho     65    ccc     H7   1945 0.49492100   1.008000   ; qtot 61.963672
 1946         ho     65    ccc     H8   1946 0.51297200   1.008000   ; qtot 62.476644
 1947         h1     65    ccc     H9   1947 0.05653400   1.008000   ; qtot 62.533178
 1948         h1     65    ccc    H10   1948 0.05653400   1.008000   ; qtot 62.589712
 1949         oh     65    ccc     O5   1949 -0.84113600  16.000000   ; qtot 61.748576
 1950         ho     65    ccc    H11   1950 0.51201600   1.008000   ; qtot 62.260592
 1951         os     65    ccc     O6   1951 -0.26013600  16.000000   ; qtot 62.000456
; residue   66 ccc rtp ccc q 0.0
 1952         c3     66    ccc     C1   1952 -0.33178800  12.010000   ; qtot 61.668668
 1953         c3     66    ccc     C2   1953 0.30606500  12.010000   ; qtot 61.974733
 1954         h1     66    ccc     H1   1954 0.11662300   1.008000   ; qtot 62.091356
 1955         h1     66    ccc     H2   1955 0.11526800   1.008000   ; qtot 62.206624
 1956         c3     66    ccc     C3   1956 0.15592700  12.010000   ; qtot 62.362551
 1957         c3     66    ccc     C4   1957 0.28383300  12.010000   ; qtot 62.646384
 1958         c3     66    ccc     C5   1958 0.32403300  12.010000   ; qtot 62.970417
 1959         h1     66    ccc     H3   1959 0.13386900   1.008000   ; qtot 63.104286
 1960         h1     66    ccc     H4   1960 0.10146700   1.008000   ; qtot 63.205753
 1961         h2     66    ccc     H5   1961 0.10960400   1.008000   ; qtot 63.315357
 1962         os     66    ccc     O1   1962 -0.28650000  16.000000   ; qtot 63.028857
 1963         oh     66    ccc     O2   1963 -0.86012500  16.000000   ; qtot 62.168732
 1964         oh     66    ccc     O3   1964 -0.83772800  16.000000   ; qtot 61.331004
 1965         oh     66    ccc     O4   1965 -0.77449700  16.000000   ; qtot 60.556507
 1966         c3     66    ccc     C6   1966 0.37576500  12.010000   ; qtot 60.932272
 1967         ho     66    ccc     H6   1967 0.53656000   1.008000   ; qtot 61.468832
 1968         ho     66    ccc     H7   1968 0.49492100   1.008000   ; qtot 61.963753
 1969         ho     66    ccc     H8   1969 0.51297200   1.008000   ; qtot 62.476725
 1970         h1     66    ccc     H9   1970 0.05653400   1.008000   ; qtot 62.533259
 1971         h1     66    ccc    H10   1971 0.05653400   1.008000   ; qtot 62.589793
 1972         oh     66    ccc     O5   1972 -0.84113600  16.000000   ; qtot 61.748657
 1973         ho     66    ccc    H11   1973 0.51201600   1.008000   ; qtot 62.260673
 1974         os     66    ccc     O6   1974 -0.26013600  16.000000   ; qtot 62.000537
; residue   67 ccc rtp ccc q 0.0
 1975         c3     67    ccc     C1   1975 -0.33178800  12.010000   ; qtot 61.668749
 1976         c3     67    ccc     C2   1976 0.30606500  12.010000   ; qtot 61.974814
 1977         h1     67    ccc     H1   1977 0.11662300   1.008000   ; qtot 62.091437
 1978         h1     67    ccc     H2   1978 0.11526800   1.008000   ; qtot 62.206705
 1979         c3     67    ccc     C3   1979 0.15592700  12.010000   ; qtot 62.362632
 1980         c3     67    ccc     C4   1980 0.28383300  12.010000   ; qtot 62.646465
 1981         c3     67    ccc     C5   1981 0.32403300  12.010000   ; qtot 62.970498
 1982         h1     67    ccc     H3   1982 0.13386900   1.008000   ; qtot 63.104367
 1983         h1     67    ccc     H4   1983 0.10146700   1.008000   ; qtot 63.205834
 1984         h2     67    ccc     H5   1984 0.10960400   1.008000   ; qtot 63.315438
 1985         os     67    ccc     O1   1985 -0.28650000  16.000000   ; qtot 63.028938
 1986         oh     67    ccc     O2   1986 -0.86012500  16.000000   ; qtot 62.168813
 1987         oh     67    ccc     O3   1987 -0.83772800  16.000000   ; qtot 61.331085
 1988         oh     67    ccc     O4   1988 -0.77449700  16.000000   ; qtot 60.556588
 1989         c3     67    ccc     C6   1989 0.37576500  12.010000   ; qtot 60.932353
 1990         ho     67    ccc     H6   1990 0.53656000   1.008000   ; qtot 61.468913
 1991         ho     67    ccc     H7   1991 0.49492100   1.008000   ; qtot 61.963834
 1992         ho     67    ccc     H8   1992 0.51297200   1.008000   ; qtot 62.476806
 1993         h1     67    ccc     H9   1993 0.05653400   1.008000   ; qtot 62.533340
 1994         h1     67    ccc    H10   1994 0.05653400   1.008000   ; qtot 62.589874
 1995         oh     67    ccc     O5   1995 -0.84113600  16.000000   ; qtot 61.748738
 1996         ho     67    ccc    H11   1996 0.51201600   1.008000   ; qtot 62.260754
 1997         os     67    ccc     O6   1997 -0.26013600  16.000000   ; qtot 62.000618
; residue   68 ccc rtp ccc q 0.0
 1998         c3     68    ccc     C1   1998 -0.33178800  12.010000   ; qtot 61.668830
 1999         c3     68    ccc     C2   1999 0.30606500  12.010000   ; qtot 61.974895
 2000         h1     68    ccc     H1   2000 0.11662300   1.008000   ; qtot 62.091518
 2001         h1     68    ccc     H2   2001 0.11526800   1.008000   ; qtot 62.206786
 2002         c3     68    ccc     C3   2002 0.15592700  12.010000   ; qtot 62.362713
 2003         c3     68    ccc     C4   2003 0.28383300  12.010000   ; qtot 62.646546
 2004         c3     68    ccc     C5   2004 0.32403300  12.010000   ; qtot 62.970579
 2005         h1     68    ccc     H3   2005 0.13386900   1.008000   ; qtot 63.104448
 2006         h1     68    ccc     H4   2006 0.10146700   1.008000   ; qtot 63.205915
 2007         h2     68    ccc     H5   2007 0.10960400   1.008000   ; qtot 63.315519
 2008         os     68    ccc     O1   2008 -0.28650000  16.000000   ; qtot 63.029019
 2009         oh     68    ccc     O2   2009 -0.86012500  16.000000   ; qtot 62.168894
 2010         oh     68    ccc     O3   2010 -0.83772800  16.000000   ; qtot 61.331166
 2011         oh     68    ccc     O4   2011 -0.77449700  16.000000   ; qtot 60.556669
 2012         c3     68    ccc     C6   2012 0.37576500  12.010000   ; qtot 60.932434
 2013         ho     68    ccc     H6   2013 0.53656000   1.008000   ; qtot 61.468994
 2014         ho     68    ccc     H7   2014 0.49492100   1.008000   ; qtot 61.963915
 2015         ho     68    ccc     H8   2015 0.51297200   1.008000   ; qtot 62.476887
 2016         h1     68    ccc     H9   2016 0.05653400   1.008000   ; qtot 62.533421
 2017         h1     68    ccc    H10   2017 0.05653400   1.008000   ; qtot 62.589955
 2018         oh     68    ccc     O5   2018 -0.84113600  16.000000   ; qtot 61.748819
 2019         ho     68    ccc    H11   2019 0.51201600   1.008000   ; qtot 62.260835
 2020         os     68    ccc     O6   2020 -0.26013600  16.000000   ; qtot 62.000699
; residue   69 ccc rtp ccc q 0.0
 2021         c3     69    ccc     C1   2021 -0.33178800  12.010000   ; qtot 61.668911
 2022         c3     69    ccc     C2   2022 0.30606500  12.010000   ; qtot 61.974976
 2023         h1     69    ccc     H1   2023 0.11662300   1.008000   ; qtot 62.091599
 2024         h1     69    ccc     H2   2024 0.11526800   1.008000   ; qtot 62.206867
 2025         c3     69    ccc     C3   2025 0.15592700  12.010000   ; qtot 62.362794
 2026         c3     69    ccc     C4   2026 0.28383300  12.010000   ; qtot 62.646627
 2027         c3     69    ccc     C5   2027 0.32403300  12.010000   ; qtot 62.970660
 2028         h1     69    ccc     H3   2028 0.13386900   1.008000   ; qtot 63.104529
 2029         h1     69    ccc     H4   2029 0.10146700   1.008000   ; qtot 63.205996
 2030         h2     69    ccc     H5   2030 0.10960400   1.008000   ; qtot 63.315600
 2031         os     69    ccc     O1   2031 -0.28650000  16.000000   ; qtot 63.029100
 2032         oh     69    ccc     O2   2032 -0.86012500  16.000000   ; qtot 62.168975
 2033         oh     69    ccc     O3   2033 -0.83772800  16.000000   ; qtot 61.331247
 2034         oh     69    ccc     O4   2034 -0.77449700  16.000000   ; qtot 60.556750
 2035         c3     69    ccc     C6   2035 0.37576500  12.010000   ; qtot 60.932515
 2036         ho     69    ccc     H6   2036 0.53656000   1.008000   ; qtot 61.469075
 2037         ho     69    ccc     H7   2037 0.49492100   1.008000   ; qtot 61.963996
 2038         ho     69    ccc     H8   2038 0.51297200   1.008000   ; qtot 62.476968
 2039         h1     69    ccc     H9   2039 0.05653400   1.008000   ; qtot 62.533502
 2040         h1     69    ccc    H10   2040 0.05653400   1.008000   ; qtot 62.590036
 2041         oh     69    ccc     O5   2041 -0.84113600  16.000000   ; qtot 61.748900
 2042         ho     69    ccc    H11   2042 0.51201600   1.008000   ; qtot 62.260916
 2043         os     69    ccc     O6   2043 -0.26013600  16.000000   ; qtot 62.000780
; residue   70 ccc rtp ccc q 0.0
 2044         c3     70    ccc     C1   2044 -0.33178800  12.010000   ; qtot 61.668992
 2045         c3     70    ccc     C2   2045 0.30606500  12.010000   ; qtot 61.975057
 2046         h1     70    ccc     H1   2046 0.11662300   1.008000   ; qtot 62.091680
 2047         h1     70    ccc     H2   2047 0.11526800   1.008000   ; qtot 62.206948
 2048         c3     70    ccc     C3   2048 0.15592700  12.010000   ; qtot 62.362875
 2049         c3     70    ccc     C4   2049 0.28383300  12.010000   ; qtot 62.646708
 2050         c3     70    ccc     C5   2050 0.32403300  12.010000   ; qtot 62.970741
 2051         h1     70    ccc     H3   2051 0.13386900   1.008000   ; qtot 63.104610
 2052         h1     70    ccc     H4   2052 0.10146700   1.008000   ; qtot 63.206077
 2053         h2     70    ccc     H5   2053 0.10960400   1.008000   ; qtot 63.315681
 2054         os     70    ccc     O1   2054 -0.28650000  16.000000   ; qtot 63.029181
 2055         oh     70    ccc     O2   2055 -0.86012500  16.000000   ; qtot 62.169056
 2056         oh     70    ccc     O3   2056 -0.83772800  16.000000   ; qtot 61.331328
 2057         oh     70    ccc     O4   2057 -0.77449700  16.000000   ; qtot 60.556831
 2058         c3     70    ccc     C6   2058 0.37576500  12.010000   ; qtot 60.932596
 2059         ho     70    ccc     H6   2059 0.53656000   1.008000   ; qtot 61.469156
 2060         ho     70    ccc     H7   2060 0.49492100   1.008000   ; qtot 61.964077
 2061         ho     70    ccc     H8   2061 0.51297200   1.008000   ; qtot 62.477049
 2062         h1     70    ccc     H9   2062 0.05653400   1.008000   ; qtot 62.533583
 2063         h1     70    ccc    H10   2063 0.05653400   1.008000   ; qtot 62.590117
 2064         oh     70    ccc     O5   2064 -0.84113600  16.000000   ; qtot 61.748981
 2065         ho     70    ccc    H11   2065 0.51201600   1.008000   ; qtot 62.260997
 2066         os     70    ccc     O6   2066 -0.26013600  16.000000   ; qtot 62.000861
; residue   71 ccc rtp ccc q 0.0
 2067         c3     71    ccc     C1   2067 -0.33178800  12.010000   ; qtot 61.669073
 2068         c3     71    ccc     C2   2068 0.30606500  12.010000   ; qtot 61.975138
 2069         h1     71    ccc     H1   2069 0.11662300   1.008000   ; qtot 62.091761
 2070         h1     71    ccc     H2   2070 0.11526800   1.008000   ; qtot 62.207029
 2071         c3     71    ccc     C3   2071 0.15592700  12.010000   ; qtot 62.362956
 2072         c3     71    ccc     C4   2072 0.28383300  12.010000   ; qtot 62.646789
 2073         c3     71    ccc     C5   2073 0.32403300  12.010000   ; qtot 62.970822
 2074         h1     71    ccc     H3   2074 0.13386900   1.008000   ; qtot 63.104691
 2075         h1     71    ccc     H4   2075 0.10146700   1.008000   ; qtot 63.206158
 2076         h2     71    ccc     H5   2076 0.10960400   1.008000   ; qtot 63.315762
 2077         os     71    ccc     O1   2077 -0.28650000  16.000000   ; qtot 63.029262
 2078         oh     71    ccc     O2   2078 -0.86012500  16.000000   ; qtot 62.169137
 2079         oh     71    ccc     O3   2079 -0.83772800  16.000000   ; qtot 61.331409
 2080         oh     71    ccc     O4   2080 -0.77449700  16.000000   ; qtot 60.556912
 2081         c3     71    ccc     C6   2081 0.37576500  12.010000   ; qtot 60.932677
 2082         ho     71    ccc     H6   2082 0.53656000   1.008000   ; qtot 61.469237
 2083         ho     71    ccc     H7   2083 0.49492100   1.008000   ; qtot 61.964158
 2084         ho     71    ccc     H8   2084 0.51297200   1.008000   ; qtot 62.477130
 2085         h1     71    ccc     H9   2085 0.05653400   1.008000   ; qtot 62.533664
 2086         h1     71    ccc    H10   2086 0.05653400   1.008000   ; qtot 62.590198
 2087         oh     71    ccc     O5   2087 -0.84113600  16.000000   ; qtot 61.749062
 2088         ho     71    ccc    H11   2088 0.51201600   1.008000   ; qtot 62.261078
 2089         os     71    ccc     O6   2089 -0.26013600  16.000000   ; qtot 62.000942
; residue   72 ccc rtp ccc q 0.0
 2090         c3     72    ccc     C1   2090 -0.33178800  12.010000   ; qtot 61.669154
 2091         c3     72    ccc     C2   2091 0.30606500  12.010000   ; qtot 61.975219
 2092         h1     72    ccc     H1   2092 0.11662300   1.008000   ; qtot 62.091842
 2093         h1     72    ccc     H2   2093 0.11526800   1.008000   ; qtot 62.207110
 2094         c3     72    ccc     C3   2094 0.15592700  12.010000   ; qtot 62.363037
 2095         c3     72    ccc     C4   2095 0.28383300  12.010000   ; qtot 62.646870
 2096         c3     72    ccc     C5   2096 0.32403300  12.010000   ; qtot 62.970903
 2097         h1     72    ccc     H3   2097 0.13386900   1.008000   ; qtot 63.104772
 2098         h1     72    ccc     H4   2098 0.10146700   1.008000   ; qtot 63.206239
 2099         h2     72    ccc     H5   2099 0.10960400   1.008000   ; qtot 63.315843
 2100         os     72    ccc     O1   2100 -0.28650000  16.000000   ; qtot 63.029343
 2101         oh     72    ccc     O2   2101 -0.86012500  16.000000   ; qtot 62.169218
 2102         oh     72    ccc     O3   2102 -0.83772800  16.000000   ; qtot 61.331490
 2103         oh     72    ccc     O4   2103 -0.77449700  16.000000   ; qtot 60.556993
 2104         c3     72    ccc     C6   2104 0.37576500  12.010000   ; qtot 60.932758
 2105         ho     72    ccc     H6   2105 0.53656000   1.008000   ; qtot 61.469318
 2106         ho     72    ccc     H7   2106 0.49492100   1.008000   ; qtot 61.964239
 2107         ho     72    ccc     H8   2107 0.51297200   1.008000   ; qtot 62.477211
 2108         h1     72    ccc     H9   2108 0.05653400   1.008000   ; qtot 62.533745
 2109         h1     72    ccc    H10   2109 0.05653400   1.008000   ; qtot 62.590279
 2110         oh     72    ccc     O5   2110 -0.84113600  16.000000   ; qtot 61.749143
 2111         ho     72    ccc    H11   2111 0.51201600   1.008000   ; qtot 62.261159
 2112         os     72    ccc     O6   2112 -0.26013600  16.000000   ; qtot 62.001023
; residue   73 ccc rtp ccc q 0.0
 2113         c3     73    ccc     C1   2113 -0.33178800  12.010000   ; qtot 61.669235
 2114         c3     73    ccc     C2   2114 0.30606500  12.010000   ; qtot 61.975300
 2115         h1     73    ccc     H1   2115 0.11662300   1.008000   ; qtot 62.091923
 2116         h1     73    ccc     H2   2116 0.11526800   1.008000   ; qtot 62.207191
 2117         c3     73    ccc     C3   2117 0.15592700  12.010000   ; qtot 62.363118
 2118         c3     73    ccc     C4   2118 0.28383300  12.010000   ; qtot 62.646951
 2119         c3     73    ccc     C5   2119 0.32403300  12.010000   ; qtot 62.970984
 2120         h1     73    ccc     H3   2120 0.13386900   1.008000   ; qtot 63.104853
 2121         h1     73    ccc     H4   2121 0.10146700   1.008000   ; qtot 63.206320
 2122         h2     73    ccc     H5   2122 0.10960400   1.008000   ; qtot 63.315924
 2123         os     73    ccc     O1   2123 -0.28650000  16.000000   ; qtot 63.029424
 2124         oh     73    ccc     O2   2124 -0.86012500  16.000000   ; qtot 62.169299
 2125         oh     73    ccc     O3   2125 -0.83772800  16.000000   ; qtot 61.331571
 2126         oh     73    ccc     O4   2126 -0.77449700  16.000000   ; qtot 60.557074
 2127         c3     73    ccc     C6   2127 0.37576500  12.010000   ; qtot 60.932839
 2128         ho     73    ccc     H6   2128 0.53656000   1.008000   ; qtot 61.469399
 2129         ho     73    ccc     H7   2129 0.49492100   1.008000   ; qtot 61.964320
 2130         ho     73    ccc     H8   2130 0.51297200   1.008000   ; qtot 62.477292
 2131         h1     73    ccc     H9   2131 0.05653400   1.008000   ; qtot 62.533826
 2132         h1     73    ccc    H10   2132 0.05653400   1.008000   ; qtot 62.590360
 2133         oh     73    ccc     O5   2133 -0.84113600  16.000000   ; qtot 61.749224
 2134         ho     73    ccc    H11   2134 0.51201600   1.008000   ; qtot 62.261240
 2135         os     73    ccc     O6   2135 -0.26013600  16.000000   ; qtot 62.001104
; residue   74 ccc rtp ccc q 0.0
 2136         c3     74    ccc     C1   2136 -0.33178800  12.010000   ; qtot 61.669316
 2137         c3     74    ccc     C2   2137 0.30606500  12.010000   ; qtot 61.975381
 2138         h1     74    ccc     H1   2138 0.11662300   1.008000   ; qtot 62.092004
 2139         h1     74    ccc     H2   2139 0.11526800   1.008000   ; qtot 62.207272
 2140         c3     74    ccc     C3   2140 0.15592700  12.010000   ; qtot 62.363199
 2141         c3     74    ccc     C4   2141 0.28383300  12.010000   ; qtot 62.647032
 2142         c3     74    ccc     C5   2142 0.32403300  12.010000   ; qtot 62.971065
 2143         h1     74    ccc     H3   2143 0.13386900   1.008000   ; qtot 63.104934
 2144         h1     74    ccc     H4   2144 0.10146700   1.008000   ; qtot 63.206401
 2145         h2     74    ccc     H5   2145 0.10960400   1.008000   ; qtot 63.316005
 2146         os     74    ccc     O1   2146 -0.28650000  16.000000   ; qtot 63.029505
 2147         oh     74    ccc     O2   2147 -0.86012500  16.000000   ; qtot 62.169380
 2148         oh     74    ccc     O3   2148 -0.83772800  16.000000   ; qtot 61.331652
 2149         oh     74    ccc     O4   2149 -0.77449700  16.000000   ; qtot 60.557155
 2150         c3     74    ccc     C6   2150 0.37576500  12.010000   ; qtot 60.932920
 2151         ho     74    ccc     H6   2151 0.53656000   1.008000   ; qtot 61.469480
 2152         ho     74    ccc     H7   2152 0.49492100   1.008000   ; qtot 61.964401
 2153         ho     74    ccc     H8   2153 0.51297200   1.008000   ; qtot 62.477373
 2154         h1     74    ccc     H9   2154 0.05653400   1.008000   ; qtot 62.533907
 2155         h1     74    ccc    H10   2155 0.05653400   1.008000   ; qtot 62.590441
 2156         oh     74    ccc     O5   2156 -0.84113600  16.000000   ; qtot 61.749305
 2157         ho     74    ccc    H11   2157 0.51201600   1.008000   ; qtot 62.261321
 2158         os     74    ccc     O6   2158 -0.26013600  16.000000   ; qtot 62.001185
; residue   75 ccc rtp ccc q 0.0
 2159         c3     75    ccc     C1   2159 -0.33178800  12.010000   ; qtot 61.669397
 2160         c3     75    ccc     C2   2160 0.30606500  12.010000   ; qtot 61.975462
 2161         h1     75    ccc     H1   2161 0.11662300   1.008000   ; qtot 62.092085
 2162         h1     75    ccc     H2   2162 0.11526800   1.008000   ; qtot 62.207353
 2163         c3     75    ccc     C3   2163 0.15592700  12.010000   ; qtot 62.363280
 2164         c3     75    ccc     C4   2164 0.28383300  12.010000   ; qtot 62.647113
 2165         c3     75    ccc     C5   2165 0.32403300  12.010000   ; qtot 62.971146
 2166         h1     75    ccc     H3   2166 0.13386900   1.008000   ; qtot 63.105015
 2167         h1     75    ccc     H4   2167 0.10146700   1.008000   ; qtot 63.206482
 2168         h2     75    ccc     H5   2168 0.10960400   1.008000   ; qtot 63.316086
 2169         os     75    ccc     O1   2169 -0.28650000  16.000000   ; qtot 63.029586
 2170         oh     75    ccc     O2   2170 -0.86012500  16.000000   ; qtot 62.169461
 2171         oh     75    ccc     O3   2171 -0.83772800  16.000000   ; qtot 61.331733
 2172         oh     75    ccc     O4   2172 -0.77449700  16.000000   ; qtot 60.557236
 2173         c3     75    ccc     C6   2173 0.37576500  12.010000   ; qtot 60.933001
 2174         ho     75    ccc     H6   2174 0.53656000   1.008000   ; qtot 61.469561
 2175         ho     75    ccc     H7   2175 0.49492100   1.008000   ; qtot 61.964482
 2176         ho     75    ccc     H8   2176 0.51297200   1.008000   ; qtot 62.477454
 2177         h1     75    ccc     H9   2177 0.05653400   1.008000   ; qtot 62.533988
 2178         h1     75    ccc    H10   2178 0.05653400   1.008000   ; qtot 62.590522
 2179         oh     75    ccc     O5   2179 -0.84113600  16.000000   ; qtot 61.749386
 2180         ho     75    ccc    H11   2180 0.51201600   1.008000   ; qtot 62.261402
 2181         os     75    ccc     O6   2181 -0.26013600  16.000000   ; qtot 62.001266
; residue   76 ccc rtp ccc q 0.0
 2182         c3     76    ccc     C1   2182 -0.33178800  12.010000   ; qtot 61.669478
 2183         c3     76    ccc     C2   2183 0.30606500  12.010000   ; qtot 61.975543
 2184         h1     76    ccc     H1   2184 0.11662300   1.008000   ; qtot 62.092166
 2185         h1     76    ccc     H2   2185 0.11526800   1.008000   ; qtot 62.207434
 2186         c3     76    ccc     C3   2186 0.15592700  12.010000   ; qtot 62.363361
 2187         c3     76    ccc     C4   2187 0.28383300  12.010000   ; qtot 62.647194
 2188         c3     76    ccc     C5   2188 0.32403300  12.010000   ; qtot 62.971227
 2189         h1     76    ccc     H3   2189 0.13386900   1.008000   ; qtot 63.105096
 2190         h1     76    ccc     H4   2190 0.10146700   1.008000   ; qtot 63.206563
 2191         h2     76    ccc     H5   2191 0.10960400   1.008000   ; qtot 63.316167
 2192         os     76    ccc     O1   2192 -0.28650000  16.000000   ; qtot 63.029667
 2193         oh     76    ccc     O2   2193 -0.86012500  16.000000   ; qtot 62.169542
 2194         oh     76    ccc     O3   2194 -0.83772800  16.000000   ; qtot 61.331814
 2195         oh     76    ccc     O4   2195 -0.77449700  16.000000   ; qtot 60.557317
 2196         c3     76    ccc     C6   2196 0.37576500  12.010000   ; qtot 60.933082
 2197         ho     76    ccc     H6   2197 0.53656000   1.008000   ; qtot 61.469642
 2198         ho     76    ccc     H7   2198 0.49492100   1.008000   ; qtot 61.964563
 2199         ho     76    ccc     H8   2199 0.51297200   1.008000   ; qtot 62.477535
 2200         h1     76    ccc     H9   2200 0.05653400   1.008000   ; qtot 62.534069
 2201         h1     76    ccc    H10   2201 0.05653400   1.008000   ; qtot 62.590603
 2202         oh     76    ccc     O5   2202 -0.84113600  16.000000   ; qtot 61.749467
 2203         ho     76    ccc    H11   2203 0.51201600   1.008000   ; qtot 62.261483
 2204         os     76    ccc     O6   2204 -0.26013600  16.000000   ; qtot 62.001347
; residue   77 ccc rtp ccc q 0.0
 2205         c3     77    ccc     C1   2205 -0.33178800  12.010000   ; qtot 61.669559
 2206         c3     77    ccc     C2   2206 0.30606500  12.010000   ; qtot 61.975624
 2207         h1     77    ccc     H1   2207 0.11662300   1.008000   ; qtot 62.092247
 2208         h1     77    ccc     H2   2208 0.11526800   1.008000   ; qtot 62.207515
 2209         c3     77    ccc     C3   2209 0.15592700  12.010000   ; qtot 62.363442
 2210         c3     77    ccc     C4   2210 0.28383300  12.010000   ; qtot 62.647275
 2211         c3     77    ccc     C5   2211 0.32403300  12.010000   ; qtot 62.971308
 2212         h1     77    ccc     H3   2212 0.13386900   1.008000   ; qtot 63.105177
 2213         h1     77    ccc     H4   2213 0.10146700   1.008000   ; qtot 63.206644
 2214         h2     77    ccc     H5   2214 0.10960400   1.008000   ; qtot 63.316248
 2215         os     77    ccc     O1   2215 -0.28650000  16.000000   ; qtot 63.029748
 2216         oh     77    ccc     O2   2216 -0.86012500  16.000000   ; qtot 62.169623
 2217         oh     77    ccc     O3   2217 -0.83772800  16.000000   ; qtot 61.331895
 2218         oh     77    ccc     O4   2218 -0.77449700  16.000000   ; qtot 60.557398
 2219         c3     77    ccc     C6   2219 0.37576500  12.010000   ; qtot 60.933163
 2220         ho     77    ccc     H6   2220 0.53656000   1.008000   ; qtot 61.469723
 2221         ho     77    ccc     H7   2221 0.49492100   1.008000   ; qtot 61.964644
 2222         ho     77    ccc     H8   2222 0.51297200   1.008000   ; qtot 62.477616
 2223         h1     77    ccc     H9   2223 0.05653400   1.008000   ; qtot 62.534150
 2224         h1     77    ccc    H10   2224 0.05653400   1.008000   ; qtot 62.590684
 2225         oh     77    ccc     O5   2225 -0.84113600  16.000000   ; qtot 61.749548
 2226         ho     77    ccc    H11   2226 0.51201600   1.008000   ; qtot 62.261564
 2227         os     77    ccc     O6   2227 -0.26013600  16.000000   ; qtot 62.001428
; residue   78 ccc rtp ccc q 0.0
 2228         c3     78    ccc     C1   2228 -0.33178800  12.010000   ; qtot 61.669640
 2229         c3     78    ccc     C2   2229 0.30606500  12.010000   ; qtot 61.975705
 2230         h1     78    ccc     H1   2230 0.11662300   1.008000   ; qtot 62.092328
 2231         h1     78    ccc     H2   2231 0.11526800   1.008000   ; qtot 62.207596
 2232         c3     78    ccc     C3   2232 0.15592700  12.010000   ; qtot 62.363523
 2233         c3     78    ccc     C4   2233 0.28383300  12.010000   ; qtot 62.647356
 2234         c3     78    ccc     C5   2234 0.32403300  12.010000   ; qtot 62.971389
 2235         h1     78    ccc     H3   2235 0.13386900   1.008000   ; qtot 63.105258
 2236         h1     78    ccc     H4   2236 0.10146700   1.008000   ; qtot 63.206725
 2237         h2     78    ccc     H5   2237 0.10960400   1.008000   ; qtot 63.316329
 2238         os     78    ccc     O1   2238 -0.28650000  16.000000   ; qtot 63.029829
 2239         oh     78    ccc     O2   2239 -0.86012500  16.000000   ; qtot 62.169704
 2240         oh     78    ccc     O3   2240 -0.83772800  16.000000   ; qtot 61.331976
 2241         oh     78    ccc     O4   2241 -0.77449700  16.000000   ; qtot 60.557479
 2242         c3     78    ccc     C6   2242 0.37576500  12.010000   ; qtot 60.933244
 2243         ho     78    ccc     H6   2243 0.53656000   1.008000   ; qtot 61.469804
 2244         ho     78    ccc     H7   2244 0.49492100   1.008000   ; qtot 61.964725
 2245         ho     78    ccc     H8   2245 0.51297200   1.008000   ; qtot 62.477697
 2246         h1     78    ccc     H9   2246 0.05653400   1.008000   ; qtot 62.534231
 2247         h1     78    ccc    H10   2247 0.05653400   1.008000   ; qtot 62.590765
 2248         oh     78    ccc     O5   2248 -0.84113600  16.000000   ; qtot 61.749629
 2249         ho     78    ccc    H11   2249 0.51201600   1.008000   ; qtot 62.261645
 2250         os     78    ccc     O6   2250 -0.26013600  16.000000   ; qtot 62.001509
; residue   79 ccc rtp ccc q 0.0
 2251         c3     79    ccc     C1   2251 -0.33178800  12.010000   ; qtot 61.669721
 2252         c3     79    ccc     C2   2252 0.30606500  12.010000   ; qtot 61.975786
 2253         h1     79    ccc     H1   2253 0.11662300   1.008000   ; qtot 62.092409
 2254         h1     79    ccc     H2   2254 0.11526800   1.008000   ; qtot 62.207677
 2255         c3     79    ccc     C3   2255 0.15592700  12.010000   ; qtot 62.363604
 2256         c3     79    ccc     C4   2256 0.28383300  12.010000   ; qtot 62.647437
 2257         c3     79    ccc     C5   2257 0.32403300  12.010000   ; qtot 62.971470
 2258         h1     79    ccc     H3   2258 0.13386900   1.008000   ; qtot 63.105339
 2259         h1     79    ccc     H4   2259 0.10146700   1.008000   ; qtot 63.206806
 2260         h2     79    ccc     H5   2260 0.10960400   1.008000   ; qtot 63.316410
 2261         os     79    ccc     O1   2261 -0.28650000  16.000000   ; qtot 63.029910
 2262         oh     79    ccc     O2   2262 -0.86012500  16.000000   ; qtot 62.169785
 2263         oh     79    ccc     O3   2263 -0.83772800  16.000000   ; qtot 61.332057
 2264         oh     79    ccc     O4   2264 -0.77449700  16.000000   ; qtot 60.557560
 2265         c3     79    ccc     C6   2265 0.37576500  12.010000   ; qtot 60.933325
 2266         ho     79    ccc     H6   2266 0.53656000   1.008000   ; qtot 61.469885
 2267         ho     79    ccc     H7   2267 0.49492100   1.008000   ; qtot 61.964806
 2268         ho     79    ccc     H8   2268 0.51297200   1.008000   ; qtot 62.477778
 2269         h1     79    ccc     H9   2269 0.05653400   1.008000   ; qtot 62.534312
 2270         h1     79    ccc    H10   2270 0.05653400   1.008000   ; qtot 62.590846
 2271         oh     79    ccc     O5   2271 -0.84113600  16.000000   ; qtot 61.749710
 2272         ho     79    ccc    H11   2272 0.51201600   1.008000   ; qtot 62.261726
 2273         os     79    ccc     O6   2273 -0.26013600  16.000000   ; qtot 62.001590
; residue   80 ccc rtp ccc q 0.0
 2274         c3     80    ccc     C1   2274 -0.33178800  12.010000   ; qtot 61.669802
 2275         c3     80    ccc     C2   2275 0.30606500  12.010000   ; qtot 61.975867
 2276         h1     80    ccc     H1   2276 0.11662300   1.008000   ; qtot 62.092490
 2277         h1     80    ccc     H2   2277 0.11526800   1.008000   ; qtot 62.207758
 2278         c3     80    ccc     C3   2278 0.15592700  12.010000   ; qtot 62.363685
 2279         c3     80    ccc     C4   2279 0.28383300  12.010000   ; qtot 62.647518
 2280         c3     80    ccc     C5   2280 0.32403300  12.010000   ; qtot 62.971551
 2281         h1     80    ccc     H3   2281 0.13386900   1.008000   ; qtot 63.105420
 2282         h1     80    ccc     H4   2282 0.10146700   1.008000   ; qtot 63.206887
 2283         h2     80    ccc     H5   2283 0.10960400   1.008000   ; qtot 63.316491
 2284         os     80    ccc     O1   2284 -0.28650000  16.000000   ; qtot 63.029991
 2285         oh     80    ccc     O2   2285 -0.86012500  16.000000   ; qtot 62.169866
 2286         oh     80    ccc     O3   2286 -0.83772800  16.000000   ; qtot 61.332138
 2287         oh     80    ccc     O4   2287 -0.77449700  16.000000   ; qtot 60.557641
 2288         c3     80    ccc     C6   2288 0.37576500  12.010000   ; qtot 60.933406
 2289         ho     80    ccc     H6   2289 0.53656000   1.008000   ; qtot 61.469966
 2290         ho     80    ccc     H7   2290 0.49492100   1.008000   ; qtot 61.964887
 2291         ho     80    ccc     H8   2291 0.51297200   1.008000   ; qtot 62.477859
 2292         h1     80    ccc     H9   2292 0.05653400   1.008000   ; qtot 62.534393
 2293         h1     80    ccc    H10   2293 0.05653400   1.008000   ; qtot 62.590927
 2294         oh     80    ccc     O5   2294 -0.84113600  16.000000   ; qtot 61.749791
 2295         ho     80    ccc    H11   2295 0.51201600   1.008000   ; qtot 62.261807
 2296         os     80    ccc     O6   2296 -0.26013600  16.000000   ; qtot 62.001671
; residue   81 ccc rtp ccc q 0.0
 2297         c3     81    ccc     C1   2297 -0.33178800  12.010000   ; qtot 61.669883
 2298         c3     81    ccc     C2   2298 0.30606500  12.010000   ; qtot 61.975948
 2299         h1     81    ccc     H1   2299 0.11662300   1.008000   ; qtot 62.092571
 2300         h1     81    ccc     H2   2300 0.11526800   1.008000   ; qtot 62.207839
 2301         c3     81    ccc     C3   2301 0.15592700  12.010000   ; qtot 62.363766
 2302         c3     81    ccc     C4   2302 0.28383300  12.010000   ; qtot 62.647599
 2303         c3     81    ccc     C5   2303 0.32403300  12.010000   ; qtot 62.971632
 2304         h1     81    ccc     H3   2304 0.13386900   1.008000   ; qtot 63.105501
 2305         h1     81    ccc     H4   2305 0.10146700   1.008000   ; qtot 63.206968
 2306         h2     81    ccc     H5   2306 0.10960400   1.008000   ; qtot 63.316572
 2307         os     81    ccc     O1   2307 -0.28650000  16.000000   ; qtot 63.030072
 2308         oh     81    ccc     O2   2308 -0.86012500  16.000000   ; qtot 62.169947
 2309         oh     81    ccc     O3   2309 -0.83772800  16.000000   ; qtot 61.332219
 2310         oh     81    ccc     O4   2310 -0.77449700  16.000000   ; qtot 60.557722
 2311         c3     81    ccc     C6   2311 0.37576500  12.010000   ; qtot 60.933487
 2312         ho     81    ccc     H6   2312 0.53656000   1.008000   ; qtot 61.470047
 2313         ho     81    ccc     H7   2313 0.49492100   1.008000   ; qtot 61.964968
 2314         ho     81    ccc     H8   2314 0.51297200   1.008000   ; qtot 62.477940
 2315         h1     81    ccc     H9   2315 0.05653400   1.008000   ; qtot 62.534474
 2316         h1     81    ccc    H10   2316 0.05653400   1.008000   ; qtot 62.591008
 2317         oh     81    ccc     O5   2317 -0.84113600  16.000000   ; qtot 61.749872
 2318         ho     81    ccc    H11   2318 0.51201600   1.008000   ; qtot 62.261888
 2319         os     81    ccc     O6   2319 -0.26013600  16.000000   ; qtot 62.001752
; residue   82 ccc rtp ccc q 0.0
 2320         c3     82    ccc     C1   2320 -0.33178800  12.010000   ; qtot 61.669964
 2321         c3     82    ccc     C2   2321 0.30606500  12.010000   ; qtot 61.976029
 2322         h1     82    ccc     H1   2322 0.11662300   1.008000   ; qtot 62.092652
 2323         h1     82    ccc     H2   2323 0.11526800   1.008000   ; qtot 62.207920
 2324         c3     82    ccc     C3   2324 0.15592700  12.010000   ; qtot 62.363847
 2325         c3     82    ccc     C4   2325 0.28383300  12.010000   ; qtot 62.647680
 2326         c3     82    ccc     C5   2326 0.32403300  12.010000   ; qtot 62.971713
 2327         h1     82    ccc     H3   2327 0.13386900   1.008000   ; qtot 63.105582
 2328         h1     82    ccc     H4   2328 0.10146700   1.008000   ; qtot 63.207049
 2329         h2     82    ccc     H5   2329 0.10960400   1.008000   ; qtot 63.316653
 2330         os     82    ccc     O1   2330 -0.28650000  16.000000   ; qtot 63.030153
 2331         oh     82    ccc     O2   2331 -0.86012500  16.000000   ; qtot 62.170028
 2332         oh     82    ccc     O3   2332 -0.83772800  16.000000   ; qtot 61.332300
 2333         oh     82    ccc     O4   2333 -0.77449700  16.000000   ; qtot 60.557803
 2334         c3     82    ccc     C6   2334 0.37576500  12.010000   ; qtot 60.933568
 2335         ho     82    ccc     H6   2335 0.53656000   1.008000   ; qtot 61.470128
 2336         ho     82    ccc     H7   2336 0.49492100   1.008000   ; qtot 61.965049
 2337         ho     82    ccc     H8   2337 0.51297200   1.008000   ; qtot 62.478021
 2338         h1     82    ccc     H9   2338 0.05653400   1.008000   ; qtot 62.534555
 2339         h1     82    ccc    H10   2339 0.05653400   1.008000   ; qtot 62.591089
 2340         oh     82    ccc     O5   2340 -0.84113600  16.000000   ; qtot 61.749953
 2341         ho     82    ccc    H11   2341 0.51201600   1.008000   ; qtot 62.261969
 2342         os     82    ccc     O6   2342 -0.26013600  16.000000   ; qtot 62.001833
; residue   83 ccc rtp ccc q 0.0
 2343         c3     83    ccc     C1   2343 -0.33178800  12.010000   ; qtot 61.670045
 2344         c3     83    ccc     C2   2344 0.30606500  12.010000   ; qtot 61.976110
 2345         h1     83    ccc     H1   2345 0.11662300   1.008000   ; qtot 62.092733
 2346         h1     83    ccc     H2   2346 0.11526800   1.008000   ; qtot 62.208001
 2347         c3     83    ccc     C3   2347 0.15592700  12.010000   ; qtot 62.363928
 2348         c3     83    ccc     C4   2348 0.28383300  12.010000   ; qtot 62.647761
 2349         c3     83    ccc     C5   2349 0.32403300  12.010000   ; qtot 62.971794
 2350         h1     83    ccc     H3   2350 0.13386900   1.008000   ; qtot 63.105663
 2351         h1     83    ccc     H4   2351 0.10146700   1.008000   ; qtot 63.207130
 2352         h2     83    ccc     H5   2352 0.10960400   1.008000   ; qtot 63.316734
 2353         os     83    ccc     O1   2353 -0.28650000  16.000000   ; qtot 63.030234
 2354         oh     83    ccc     O2   2354 -0.86012500  16.000000   ; qtot 62.170109
 2355         oh     83    ccc     O3   2355 -0.83772800  16.000000   ; qtot 61.332381
 2356         oh     83    ccc     O4   2356 -0.77449700  16.000000   ; qtot 60.557884
 2357         c3     83    ccc     C6   2357 0.37576500  12.010000   ; qtot 60.933649
 2358         ho     83    ccc     H6   2358 0.53656000   1.008000   ; qtot 61.470209
 2359         ho     83    ccc     H7   2359 0.49492100   1.008000   ; qtot 61.965130
 2360         ho     83    ccc     H8   2360 0.51297200   1.008000   ; qtot 62.478102
 2361         h1     83    ccc     H9   2361 0.05653400   1.008000   ; qtot 62.534636
 2362         h1     83    ccc    H10   2362 0.05653400   1.008000   ; qtot 62.591170
 2363         oh     83    ccc     O5   2363 -0.84113600  16.000000   ; qtot 61.750034
 2364         ho     83    ccc    H11   2364 0.51201600   1.008000   ; qtot 62.262050
 2365         os     83    ccc     O6   2365 -0.26013600  16.000000   ; qtot 62.001914
; residue   84 ccc rtp ccc q 0.0
 2366         c3     84    ccc     C1   2366 -0.33178800  12.010000   ; qtot 61.670126
 2367         c3     84    ccc     C2   2367 0.30606500  12.010000   ; qtot 61.976191
 2368         h1     84    ccc     H1   2368 0.11662300   1.008000   ; qtot 62.092814
 2369         h1     84    ccc     H2   2369 0.11526800   1.008000   ; qtot 62.208082
 2370         c3     84    ccc     C3   2370 0.15592700  12.010000   ; qtot 62.364009
 2371         c3     84    ccc     C4   2371 0.28383300  12.010000   ; qtot 62.647842
 2372         c3     84    ccc     C5   2372 0.32403300  12.010000   ; qtot 62.971875
 2373         h1     84    ccc     H3   2373 0.13386900   1.008000   ; qtot 63.105744
 2374         h1     84    ccc     H4   2374 0.10146700   1.008000   ; qtot 63.207211
 2375         h2     84    ccc     H5   2375 0.10960400   1.008000   ; qtot 63.316815
 2376         os     84    ccc     O1   2376 -0.28650000  16.000000   ; qtot 63.030315
 2377         oh     84    ccc     O2   2377 -0.86012500  16.000000   ; qtot 62.170190
 2378         oh     84    ccc     O3   2378 -0.83772800  16.000000   ; qtot 61.332462
 2379         oh     84    ccc     O4   2379 -0.77449700  16.000000   ; qtot 60.557965
 2380         c3     84    ccc     C6   2380 0.37576500  12.010000   ; qtot 60.933730
 2381         ho     84    ccc     H6   2381 0.53656000   1.008000   ; qtot 61.470290
 2382         ho     84    ccc     H7   2382 0.49492100   1.008000   ; qtot 61.965211
 2383         ho     84    ccc     H8   2383 0.51297200   1.008000   ; qtot 62.478183
 2384         h1     84    ccc     H9   2384 0.05653400   1.008000   ; qtot 62.534717
 2385         h1     84    ccc    H10   2385 0.05653400   1.008000   ; qtot 62.591251
 2386         oh     84    ccc     O5   2386 -0.84113600  16.000000   ; qtot 61.750115
 2387         ho     84    ccc    H11   2387 0.51201600   1.008000   ; qtot 62.262131
 2388         os     84    ccc     O6   2388 -0.26013600  16.000000   ; qtot 62.001995
; residue   85 ccc rtp ccc q 0.0
 2389         c3     85    ccc     C1   2389 -0.33178800  12.010000   ; qtot 61.670207
 2390         c3     85    ccc     C2   2390 0.30606500  12.010000   ; qtot 61.976272
 2391         h1     85    ccc     H1   2391 0.11662300   1.008000   ; qtot 62.092895
 2392         h1     85    ccc     H2   2392 0.11526800   1.008000   ; qtot 62.208163
 2393         c3     85    ccc     C3   2393 0.15592700  12.010000   ; qtot 62.364090
 2394         c3     85    ccc     C4   2394 0.28383300  12.010000   ; qtot 62.647923
 2395         c3     85    ccc     C5   2395 0.32403300  12.010000   ; qtot 62.971956
 2396         h1     85    ccc     H3   2396 0.13386900   1.008000   ; qtot 63.105825
 2397         h1     85    ccc     H4   2397 0.10146700   1.008000   ; qtot 63.207292
 2398         h2     85    ccc     H5   2398 0.10960400   1.008000   ; qtot 63.316896
 2399         os     85    ccc     O1   2399 -0.28650000  16.000000   ; qtot 63.030396
 2400         oh     85    ccc     O2   2400 -0.86012500  16.000000   ; qtot 62.170271
 2401         oh     85    ccc     O3   2401 -0.83772800  16.000000   ; qtot 61.332543
 2402         oh     85    ccc     O4   2402 -0.77449700  16.000000   ; qtot 60.558046
 2403         c3     85    ccc     C6   2403 0.37576500  12.010000   ; qtot 60.933811
 2404         ho     85    ccc     H6   2404 0.53656000   1.008000   ; qtot 61.470371
 2405         ho     85    ccc     H7   2405 0.49492100   1.008000   ; qtot 61.965292
 2406         ho     85    ccc     H8   2406 0.51297200   1.008000   ; qtot 62.478264
 2407         h1     85    ccc     H9   2407 0.05653400   1.008000   ; qtot 62.534798
 2408         h1     85    ccc    H10   2408 0.05653400   1.008000   ; qtot 62.591332
 2409         oh     85    ccc     O5   2409 -0.84113600  16.000000   ; qtot 61.750196
 2410         ho     85    ccc    H11   2410 0.51201600   1.008000   ; qtot 62.262212
 2411         os     85    ccc     O6   2411 -0.26013600  16.000000   ; qtot 62.002076
; residue   86 ccc rtp ccc q 0.0
 2412         c3     86    ccc     C1   2412 -0.33178800  12.010000   ; qtot 61.670288
 2413         c3     86    ccc     C2   2413 0.30606500  12.010000   ; qtot 61.976353
 2414         h1     86    ccc     H1   2414 0.11662300   1.008000   ; qtot 62.092976
 2415         h1     86    ccc     H2   2415 0.11526800   1.008000   ; qtot 62.208244
 2416         c3     86    ccc     C3   2416 0.15592700  12.010000   ; qtot 62.364171
 2417         c3     86    ccc     C4   2417 0.28383300  12.010000   ; qtot 62.648004
 2418         c3     86    ccc     C5   2418 0.32403300  12.010000   ; qtot 62.972037
 2419         h1     86    ccc     H3   2419 0.13386900   1.008000   ; qtot 63.105906
 2420         h1     86    ccc     H4   2420 0.10146700   1.008000   ; qtot 63.207373
 2421         h2     86    ccc     H5   2421 0.10960400   1.008000   ; qtot 63.316977
 2422         os     86    ccc     O1   2422 -0.28650000  16.000000   ; qtot 63.030477
 2423         oh     86    ccc     O2   2423 -0.86012500  16.000000   ; qtot 62.170352
 2424         oh     86    ccc     O3   2424 -0.83772800  16.000000   ; qtot 61.332624
 2425         oh     86    ccc     O4   2425 -0.77449700  16.000000   ; qtot 60.558127
 2426         c3     86    ccc     C6   2426 0.37576500  12.010000   ; qtot 60.933892
 2427         ho     86    ccc     H6   2427 0.53656000   1.008000   ; qtot 61.470452
 2428         ho     86    ccc     H7   2428 0.49492100   1.008000   ; qtot 61.965373
 2429         ho     86    ccc     H8   2429 0.51297200   1.008000   ; qtot 62.478345
 2430         h1     86    ccc     H9   2430 0.05653400   1.008000   ; qtot 62.534879
 2431         h1     86    ccc    H10   2431 0.05653400   1.008000   ; qtot 62.591413
 2432         oh     86    ccc     O5   2432 -0.84113600  16.000000   ; qtot 61.750277
 2433         ho     86    ccc    H11   2433 0.51201600   1.008000   ; qtot 62.262293
 2434         os     86    ccc     O6   2434 -0.26013600  16.000000   ; qtot 62.002157
; residue   87 ccc rtp ccc q 0.0
 2435         c3     87    ccc     C1   2435 -0.33178800  12.010000   ; qtot 61.670369
 2436         c3     87    ccc     C2   2436 0.30606500  12.010000   ; qtot 61.976434
 2437         h1     87    ccc     H1   2437 0.11662300   1.008000   ; qtot 62.093057
 2438         h1     87    ccc     H2   2438 0.11526800   1.008000   ; qtot 62.208325
 2439         c3     87    ccc     C3   2439 0.15592700  12.010000   ; qtot 62.364252
 2440         c3     87    ccc     C4   2440 0.28383300  12.010000   ; qtot 62.648085
 2441         c3     87    ccc     C5   2441 0.32403300  12.010000   ; qtot 62.972118
 2442         h1     87    ccc     H3   2442 0.13386900   1.008000   ; qtot 63.105987
 2443         h1     87    ccc     H4   2443 0.10146700   1.008000   ; qtot 63.207454
 2444         h2     87    ccc     H5   2444 0.10960400   1.008000   ; qtot 63.317058
 2445         os     87    ccc     O1   2445 -0.28650000  16.000000   ; qtot 63.030558
 2446         oh     87    ccc     O2   2446 -0.86012500  16.000000   ; qtot 62.170433
 2447         oh     87    ccc     O3   2447 -0.83772800  16.000000   ; qtot 61.332705
 2448         oh     87    ccc     O4   2448 -0.77449700  16.000000   ; qtot 60.558208
 2449         c3     87    ccc     C6   2449 0.37576500  12.010000   ; qtot 60.933973
 2450         ho     87    ccc     H6   2450 0.53656000   1.008000   ; qtot 61.470533
 2451         ho     87    ccc     H7   2451 0.49492100   1.008000   ; qtot 61.965454
 2452         ho     87    ccc     H8   2452 0.51297200   1.008000   ; qtot 62.478426
 2453         h1     87    ccc     H9   2453 0.05653400   1.008000   ; qtot 62.534960
 2454         h1     87    ccc    H10   2454 0.05653400   1.008000   ; qtot 62.591494
 2455         oh     87    ccc     O5   2455 -0.84113600  16.000000   ; qtot 61.750358
 2456         ho     87    ccc    H11   2456 0.51201600   1.008000   ; qtot 62.262374
 2457         os     87    ccc     O6   2457 -0.26013600  16.000000   ; qtot 62.002238
; residue   88 ccc rtp ccc q 0.0
 2458         c3     88    ccc     C1   2458 -0.33178800  12.010000   ; qtot 61.670450
 2459         c3     88    ccc     C2   2459 0.30606500  12.010000   ; qtot 61.976515
 2460         h1     88    ccc     H1   2460 0.11662300   1.008000   ; qtot 62.093138
 2461         h1     88    ccc     H2   2461 0.11526800   1.008000   ; qtot 62.208406
 2462         c3     88    ccc     C3   2462 0.15592700  12.010000   ; qtot 62.364333
 2463         c3     88    ccc     C4   2463 0.28383300  12.010000   ; qtot 62.648166
 2464         c3     88    ccc     C5   2464 0.32403300  12.010000   ; qtot 62.972199
 2465         h1     88    ccc     H3   2465 0.13386900   1.008000   ; qtot 63.106068
 2466         h1     88    ccc     H4   2466 0.10146700   1.008000   ; qtot 63.207535
 2467         h2     88    ccc     H5   2467 0.10960400   1.008000   ; qtot 63.317139
 2468         os     88    ccc     O1   2468 -0.28650000  16.000000   ; qtot 63.030639
 2469         oh     88    ccc     O2   2469 -0.86012500  16.000000   ; qtot 62.170514
 2470         oh     88    ccc     O3   2470 -0.83772800  16.000000   ; qtot 61.332786
 2471         oh     88    ccc     O4   2471 -0.77449700  16.000000   ; qtot 60.558289
 2472         c3     88    ccc     C6   2472 0.37576500  12.010000   ; qtot 60.934054
 2473         ho     88    ccc     H6   2473 0.53656000   1.008000   ; qtot 61.470614
 2474         ho     88    ccc     H7   2474 0.49492100   1.008000   ; qtot 61.965535
 2475         ho     88    ccc     H8   2475 0.51297200   1.008000   ; qtot 62.478507
 2476         h1     88    ccc     H9   2476 0.05653400   1.008000   ; qtot 62.535041
 2477         h1     88    ccc    H10   2477 0.05653400   1.008000   ; qtot 62.591575
 2478         oh     88    ccc     O5   2478 -0.84113600  16.000000   ; qtot 61.750439
 2479         ho     88    ccc    H11   2479 0.51201600   1.008000   ; qtot 62.262455
 2480         os     88    ccc     O6   2480 -0.26013600  16.000000   ; qtot 62.002319
; residue   89 ccc rtp ccc q 0.0
 2481         c3     89    ccc     C1   2481 -0.33178800  12.010000   ; qtot 61.670531
 2482         c3     89    ccc     C2   2482 0.30606500  12.010000   ; qtot 61.976596
 2483         h1     89    ccc     H1   2483 0.11662300   1.008000   ; qtot 62.093219
 2484         h1     89    ccc     H2   2484 0.11526800   1.008000   ; qtot 62.208487
 2485         c3     89    ccc     C3   2485 0.15592700  12.010000   ; qtot 62.364414
 2486         c3     89    ccc     C4   2486 0.28383300  12.010000   ; qtot 62.648247
 2487         c3     89    ccc     C5   2487 0.32403300  12.010000   ; qtot 62.972280
 2488         h1     89    ccc     H3   2488 0.13386900   1.008000   ; qtot 63.106149
 2489         h1     89    ccc     H4   2489 0.10146700   1.008000   ; qtot 63.207616
 2490         h2     89    ccc     H5   2490 0.10960400   1.008000   ; qtot 63.317220
 2491         os     89    ccc     O1   2491 -0.28650000  16.000000   ; qtot 63.030720
 2492         oh     89    ccc     O2   2492 -0.86012500  16.000000   ; qtot 62.170595
 2493         oh     89    ccc     O3   2493 -0.83772800  16.000000   ; qtot 61.332867
 2494         oh     89    ccc     O4   2494 -0.77449700  16.000000   ; qtot 60.558370
 2495         c3     89    ccc     C6   2495 0.37576500  12.010000   ; qtot 60.934135
 2496         ho     89    ccc     H6   2496 0.53656000   1.008000   ; qtot 61.470695
 2497         ho     89    ccc     H7   2497 0.49492100   1.008000   ; qtot 61.965616
 2498         ho     89    ccc     H8   2498 0.51297200   1.008000   ; qtot 62.478588
 2499         h1     89    ccc     H9   2499 0.05653400   1.008000   ; qtot 62.535122
 2500         h1     89    ccc    H10   2500 0.05653400   1.008000   ; qtot 62.591656
 2501         oh     89    ccc     O5   2501 -0.84113600  16.000000   ; qtot 61.750520
 2502         ho     89    ccc    H11   2502 0.51201600   1.008000   ; qtot 62.262536
 2503         os     89    ccc     O6   2503 -0.26013600  16.000000   ; qtot 62.002400
; residue   90 ccc rtp ccc q 0.0
 2504         c3     90    ccc     C1   2504 -0.33178800  12.010000   ; qtot 61.670612
 2505         c3     90    ccc     C2   2505 0.30606500  12.010000   ; qtot 61.976677
 2506         h1     90    ccc     H1   2506 0.11662300   1.008000   ; qtot 62.093300
 2507         h1     90    ccc     H2   2507 0.11526800   1.008000   ; qtot 62.208568
 2508         c3     90    ccc     C3   2508 0.15592700  12.010000   ; qtot 62.364495
 2509         c3     90    ccc     C4   2509 0.28383300  12.010000   ; qtot 62.648328
 2510         c3     90    ccc     C5   2510 0.32403300  12.010000   ; qtot 62.972361
 2511         h1     90    ccc     H3   2511 0.13386900   1.008000   ; qtot 63.106230
 2512         h1     90    ccc     H4   2512 0.10146700   1.008000   ; qtot 63.207697
 2513         h2     90    ccc     H5   2513 0.10960400   1.008000   ; qtot 63.317301
 2514         os     90    ccc     O1   2514 -0.28650000  16.000000   ; qtot 63.030801
 2515         oh     90    ccc     O2   2515 -0.86012500  16.000000   ; qtot 62.170676
 2516         oh     90    ccc     O3   2516 -0.83772800  16.000000   ; qtot 61.332948
 2517         oh     90    ccc     O4   2517 -0.77449700  16.000000   ; qtot 60.558451
 2518         c3     90    ccc     C6   2518 0.37576500  12.010000   ; qtot 60.934216
 2519         ho     90    ccc     H6   2519 0.53656000   1.008000   ; qtot 61.470776
 2520         ho     90    ccc     H7   2520 0.49492100   1.008000   ; qtot 61.965697
 2521         ho     90    ccc     H8   2521 0.51297200   1.008000   ; qtot 62.478669
 2522         h1     90    ccc     H9   2522 0.05653400   1.008000   ; qtot 62.535203
 2523         h1     90    ccc    H10   2523 0.05653400   1.008000   ; qtot 62.591737
 2524         oh     90    ccc     O5   2524 -0.84113600  16.000000   ; qtot 61.750601
 2525         ho     90    ccc    H11   2525 0.51201600   1.008000   ; qtot 62.262617
 2526         os     90    ccc     O6   2526 -0.26013600  16.000000   ; qtot 62.002481
; residue   91 ccc rtp ccc q 0.0
 2527         c3     91    ccc     C1   2527 -0.33178800  12.010000   ; qtot 61.670693
 2528         c3     91    ccc     C2   2528 0.30606500  12.010000   ; qtot 61.976758
 2529         h1     91    ccc     H1   2529 0.11662300   1.008000   ; qtot 62.093381
 2530         h1     91    ccc     H2   2530 0.11526800   1.008000   ; qtot 62.208649
 2531         c3     91    ccc     C3   2531 0.15592700  12.010000   ; qtot 62.364576
 2532         c3     91    ccc     C4   2532 0.28383300  12.010000   ; qtot 62.648409
 2533         c3     91    ccc     C5   2533 0.32403300  12.010000   ; qtot 62.972442
 2534         h1     91    ccc     H3   2534 0.13386900   1.008000   ; qtot 63.106311
 2535         h1     91    ccc     H4   2535 0.10146700   1.008000   ; qtot 63.207778
 2536         h2     91    ccc     H5   2536 0.10960400   1.008000   ; qtot 63.317382
 2537         os     91    ccc     O1   2537 -0.28650000  16.000000   ; qtot 63.030882
 2538         oh     91    ccc     O2   2538 -0.86012500  16.000000   ; qtot 62.170757
 2539         oh     91    ccc     O3   2539 -0.83772800  16.000000   ; qtot 61.333029
 2540         oh     91    ccc     O4   2540 -0.77449700  16.000000   ; qtot 60.558532
 2541         c3     91    ccc     C6   2541 0.37576500  12.010000   ; qtot 60.934297
 2542         ho     91    ccc     H6   2542 0.53656000   1.008000   ; qtot 61.470857
 2543         ho     91    ccc     H7   2543 0.49492100   1.008000   ; qtot 61.965778
 2544         ho     91    ccc     H8   2544 0.51297200   1.008000   ; qtot 62.478750
 2545         h1     91    ccc     H9   2545 0.05653400   1.008000   ; qtot 62.535284
 2546         h1     91    ccc    H10   2546 0.05653400   1.008000   ; qtot 62.591818
 2547         oh     91    ccc     O5   2547 -0.84113600  16.000000   ; qtot 61.750682
 2548         ho     91    ccc    H11   2548 0.51201600   1.008000   ; qtot 62.262698
 2549         os     91    ccc     O6   2549 -0.26013600  16.000000   ; qtot 62.002562
; residue   92 ccc rtp ccc q 0.0
 2550         c3     92    ccc     C1   2550 -0.33178800  12.010000   ; qtot 61.670774
 2551         c3     92    ccc     C2   2551 0.30606500  12.010000   ; qtot 61.976839
 2552         h1     92    ccc     H1   2552 0.11662300   1.008000   ; qtot 62.093462
 2553         h1     92    ccc     H2   2553 0.11526800   1.008000   ; qtot 62.208730
 2554         c3     92    ccc     C3   2554 0.15592700  12.010000   ; qtot 62.364657
 2555         c3     92    ccc     C4   2555 0.28383300  12.010000   ; qtot 62.648490
 2556         c3     92    ccc     C5   2556 0.32403300  12.010000   ; qtot 62.972523
 2557         h1     92    ccc     H3   2557 0.13386900   1.008000   ; qtot 63.106392
 2558         h1     92    ccc     H4   2558 0.10146700   1.008000   ; qtot 63.207859
 2559         h2     92    ccc     H5   2559 0.10960400   1.008000   ; qtot 63.317463
 2560         os     92    ccc     O1   2560 -0.28650000  16.000000   ; qtot 63.030963
 2561         oh     92    ccc     O2   2561 -0.86012500  16.000000   ; qtot 62.170838
 2562         oh     92    ccc     O3   2562 -0.83772800  16.000000   ; qtot 61.333110
 2563         oh     92    ccc     O4   2563 -0.77449700  16.000000   ; qtot 60.558613
 2564         c3     92    ccc     C6   2564 0.37576500  12.010000   ; qtot 60.934378
 2565         ho     92    ccc     H6   2565 0.53656000   1.008000   ; qtot 61.470938
 2566         ho     92    ccc     H7   2566 0.49492100   1.008000   ; qtot 61.965859
 2567         ho     92    ccc     H8   2567 0.51297200   1.008000   ; qtot 62.478831
 2568         h1     92    ccc     H9   2568 0.05653400   1.008000   ; qtot 62.535365
 2569         h1     92    ccc    H10   2569 0.05653400   1.008000   ; qtot 62.591899
 2570         oh     92    ccc     O5   2570 -0.84113600  16.000000   ; qtot 61.750763
 2571         ho     92    ccc    H11   2571 0.51201600   1.008000   ; qtot 62.262779
 2572         os     92    ccc     O6   2572 -0.26013600  16.000000   ; qtot 62.002643
; residue   93 ccc rtp ccc q 0.0
 2573         c3     93    ccc     C1   2573 -0.33178800  12.010000   ; qtot 61.670855
 2574         c3     93    ccc     C2   2574 0.30606500  12.010000   ; qtot 61.976920
 2575         h1     93    ccc     H1   2575 0.11662300   1.008000   ; qtot 62.093543
 2576         h1     93    ccc     H2   2576 0.11526800   1.008000   ; qtot 62.208811
 2577         c3     93    ccc     C3   2577 0.15592700  12.010000   ; qtot 62.364738
 2578         c3     93    ccc     C4   2578 0.28383300  12.010000   ; qtot 62.648571
 2579         c3     93    ccc     C5   2579 0.32403300  12.010000   ; qtot 62.972604
 2580         h1     93    ccc     H3   2580 0.13386900   1.008000   ; qtot 63.106473
 2581         h1     93    ccc     H4   2581 0.10146700   1.008000   ; qtot 63.207940
 2582         h2     93    ccc     H5   2582 0.10960400   1.008000   ; qtot 63.317544
 2583         os     93    ccc     O1   2583 -0.28650000  16.000000   ; qtot 63.031044
 2584         oh     93    ccc     O2   2584 -0.86012500  16.000000   ; qtot 62.170919
 2585         oh     93    ccc     O3   2585 -0.83772800  16.000000   ; qtot 61.333191
 2586         oh     93    ccc     O4   2586 -0.77449700  16.000000   ; qtot 60.558694
 2587         c3     93    ccc     C6   2587 0.37576500  12.010000   ; qtot 60.934459
 2588         ho     93    ccc     H6   2588 0.53656000   1.008000   ; qtot 61.471019
 2589         ho     93    ccc     H7   2589 0.49492100   1.008000   ; qtot 61.965940
 2590         ho     93    ccc     H8   2590 0.51297200   1.008000   ; qtot 62.478912
 2591         h1     93    ccc     H9   2591 0.05653400   1.008000   ; qtot 62.535446
 2592         h1     93    ccc    H10   2592 0.05653400   1.008000   ; qtot 62.591980
 2593         oh     93    ccc     O5   2593 -0.84113600  16.000000   ; qtot 61.750844
 2594         ho     93    ccc    H11   2594 0.51201600   1.008000   ; qtot 62.262860
 2595         os     93    ccc     O6   2595 -0.26013600  16.000000   ; qtot 62.002724
; residue   94 ccc rtp ccc q 0.0
 2596         c3     94    ccc     C1   2596 -0.33178800  12.010000   ; qtot 61.670936
 2597         c3     94    ccc     C2   2597 0.30606500  12.010000   ; qtot 61.977001
 2598         h1     94    ccc     H1   2598 0.11662300   1.008000   ; qtot 62.093624
 2599         h1     94    ccc     H2   2599 0.11526800   1.008000   ; qtot 62.208892
 2600         c3     94    ccc     C3   2600 0.15592700  12.010000   ; qtot 62.364819
 2601         c3     94    ccc     C4   2601 0.28383300  12.010000   ; qtot 62.648652
 2602         c3     94    ccc     C5   2602 0.32403300  12.010000   ; qtot 62.972685
 2603         h1     94    ccc     H3   2603 0.13386900   1.008000   ; qtot 63.106554
 2604         h1     94    ccc     H4   2604 0.10146700   1.008000   ; qtot 63.208021
 2605         h2     94    ccc     H5   2605 0.10960400   1.008000   ; qtot 63.317625
 2606         os     94    ccc     O1   2606 -0.28650000  16.000000   ; qtot 63.031125
 2607         oh     94    ccc     O2   2607 -0.86012500  16.000000   ; qtot 62.171000
 2608         oh     94    ccc     O3   2608 -0.83772800  16.000000   ; qtot 61.333272
 2609         oh     94    ccc     O4   2609 -0.77449700  16.000000   ; qtot 60.558775
 2610         c3     94    ccc     C6   2610 0.37576500  12.010000   ; qtot 60.934540
 2611         ho     94    ccc     H6   2611 0.53656000   1.008000   ; qtot 61.471100
 2612         ho     94    ccc     H7   2612 0.49492100   1.008000   ; qtot 61.966021
 2613         ho     94    ccc     H8   2613 0.51297200   1.008000   ; qtot 62.478993
 2614         h1     94    ccc     H9   2614 0.05653400   1.008000   ; qtot 62.535527
 2615         h1     94    ccc    H10   2615 0.05653400   1.008000   ; qtot 62.592061
 2616         oh     94    ccc     O5   2616 -0.84113600  16.000000   ; qtot 61.750925
 2617         ho     94    ccc    H11   2617 0.51201600   1.008000   ; qtot 62.262941
 2618         os     94    ccc     O6   2618 -0.26013600  16.000000   ; qtot 62.002805
; residue   95 ccc rtp ccc q 0.0
 2619         c3     95    ccc     C1   2619 -0.33178800  12.010000   ; qtot 61.671017
 2620         c3     95    ccc     C2   2620 0.30606500  12.010000   ; qtot 61.977082
 2621         h1     95    ccc     H1   2621 0.11662300   1.008000   ; qtot 62.093705
 2622         h1     95    ccc     H2   2622 0.11526800   1.008000   ; qtot 62.208973
 2623         c3     95    ccc     C3   2623 0.15592700  12.010000   ; qtot 62.364900
 2624         c3     95    ccc     C4   2624 0.28383300  12.010000   ; qtot 62.648733
 2625         c3     95    ccc     C5   2625 0.32403300  12.010000   ; qtot 62.972766
 2626         h1     95    ccc     H3   2626 0.13386900   1.008000   ; qtot 63.106635
 2627         h1     95    ccc     H4   2627 0.10146700   1.008000   ; qtot 63.208102
 2628         h2     95    ccc     H5   2628 0.10960400   1.008000   ; qtot 63.317706
 2629         os     95    ccc     O1   2629 -0.28650000  16.000000   ; qtot 63.031206
 2630         oh     95    ccc     O2   2630 -0.86012500  16.000000   ; qtot 62.171081
 2631         oh     95    ccc     O3   2631 -0.83772800  16.000000   ; qtot 61.333353
 2632         oh     95    ccc     O4   2632 -0.77449700  16.000000   ; qtot 60.558856
 2633         c3     95    ccc     C6   2633 0.37576500  12.010000   ; qtot 60.934621
 2634         ho     95    ccc     H6   2634 0.53656000   1.008000   ; qtot 61.471181
 2635         ho     95    ccc     H7   2635 0.49492100   1.008000   ; qtot 61.966102
 2636         ho     95    ccc     H8   2636 0.51297200   1.008000   ; qtot 62.479074
 2637         h1     95    ccc     H9   2637 0.05653400   1.008000   ; qtot 62.535608
 2638         h1     95    ccc    H10   2638 0.05653400   1.008000   ; qtot 62.592142
 2639         oh     95    ccc     O5   2639 -0.84113600  16.000000   ; qtot 61.751006
 2640         ho     95    ccc    H11   2640 0.51201600   1.008000   ; qtot 62.263022
 2641         os     95    ccc     O6   2641 -0.26013600  16.000000   ; qtot 62.002886
; residue   96 ccc rtp ccc q 0.0
 2642         c3     96    ccc     C1   2642 -0.33178800  12.010000   ; qtot 61.671098
 2643         c3     96    ccc     C2   2643 0.30606500  12.010000   ; qtot 61.977163
 2644         h1     96    ccc     H1   2644 0.11662300   1.008000   ; qtot 62.093786
 2645         h1     96    ccc     H2   2645 0.11526800   1.008000   ; qtot 62.209054
 2646         c3     96    ccc     C3   2646 0.15592700  12.010000   ; qtot 62.364981
 2647         c3     96    ccc     C4   2647 0.28383300  12.010000   ; qtot 62.648814
 2648         c3     96    ccc     C5   2648 0.32403300  12.010000   ; qtot 62.972847
 2649         h1     96    ccc     H3   2649 0.13386900   1.008000   ; qtot 63.106716
 2650         h1     96    ccc     H4   2650 0.10146700   1.008000   ; qtot 63.208183
 2651         h2     96    ccc     H5   2651 0.10960400   1.008000   ; qtot 63.317787
 2652         os     96    ccc     O1   2652 -0.28650000  16.000000   ; qtot 63.031287
 2653         oh     96    ccc     O2   2653 -0.86012500  16.000000   ; qtot 62.171162
 2654         oh     96    ccc     O3   2654 -0.83772800  16.000000   ; qtot 61.333434
 2655         oh     96    ccc     O4   2655 -0.77449700  16.000000   ; qtot 60.558937
 2656         c3     96    ccc     C6   2656 0.37576500  12.010000   ; qtot 60.934702
 2657         ho     96    ccc     H6   2657 0.53656000   1.008000   ; qtot 61.471262
 2658         ho     96    ccc     H7   2658 0.49492100   1.008000   ; qtot 61.966183
 2659         ho     96    ccc     H8   2659 0.51297200   1.008000   ; qtot 62.479155
 2660         h1     96    ccc     H9   2660 0.05653400   1.008000   ; qtot 62.535689
 2661         h1     96    ccc    H10   2661 0.05653400   1.008000   ; qtot 62.592223
 2662         oh     96    ccc     O5   2662 -0.84113600  16.000000   ; qtot 61.751087
 2663         ho     96    ccc    H11   2663 0.51201600   1.008000   ; qtot 62.263103
 2664         os     96    ccc     O6   2664 -0.26013600  16.000000   ; qtot 62.002967
; residue   97 ccc rtp ccc q 0.0
 2665         c3     97    ccc     C1   2665 -0.33178800  12.010000   ; qtot 61.671179
 2666         c3     97    ccc     C2   2666 0.30606500  12.010000   ; qtot 61.977244
 2667         h1     97    ccc     H1   2667 0.11662300   1.008000   ; qtot 62.093867
 2668         h1     97    ccc     H2   2668 0.11526800   1.008000   ; qtot 62.209135
 2669         c3     97    ccc     C3   2669 0.15592700  12.010000   ; qtot 62.365062
 2670         c3     97    ccc     C4   2670 0.28383300  12.010000   ; qtot 62.648895
 2671         c3     97    ccc     C5   2671 0.32403300  12.010000   ; qtot 62.972928
 2672         h1     97    ccc     H3   2672 0.13386900   1.008000   ; qtot 63.106797
 2673         h1     97    ccc     H4   2673 0.10146700   1.008000   ; qtot 63.208264
 2674         h2     97    ccc     H5   2674 0.10960400   1.008000   ; qtot 63.317868
 2675         os     97    ccc     O1   2675 -0.28650000  16.000000   ; qtot 63.031368
 2676         oh     97    ccc     O2   2676 -0.86012500  16.000000   ; qtot 62.171243
 2677         oh     97    ccc     O3   2677 -0.83772800  16.000000   ; qtot 61.333515
 2678         oh     97    ccc     O4   2678 -0.77449700  16.000000   ; qtot 60.559018
 2679         c3     97    ccc     C6   2679 0.37576500  12.010000   ; qtot 60.934783
 2680         ho     97    ccc     H6   2680 0.53656000   1.008000   ; qtot 61.471343
 2681         ho     97    ccc     H7   2681 0.49492100   1.008000   ; qtot 61.966264
 2682         ho     97    ccc     H8   2682 0.51297200   1.008000   ; qtot 62.479236
 2683         h1     97    ccc     H9   2683 0.05653400   1.008000   ; qtot 62.535770
 2684         h1     97    ccc    H10   2684 0.05653400   1.008000   ; qtot 62.592304
 2685         oh     97    ccc     O5   2685 -0.84113600  16.000000   ; qtot 61.751168
 2686         ho     97    ccc    H11   2686 0.51201600   1.008000   ; qtot 62.263184
 2687         os     97    ccc     O6   2687 -0.26013600  16.000000   ; qtot 62.003048
; residue   98 ccc rtp ccc q 0.0
 2688         c3     98    ccc     C1   2688 -0.33178800  12.010000   ; qtot 61.671260
 2689         c3     98    ccc     C2   2689 0.30606500  12.010000   ; qtot 61.977325
 2690         h1     98    ccc     H1   2690 0.11662300   1.008000   ; qtot 62.093948
 2691         h1     98    ccc     H2   2691 0.11526800   1.008000   ; qtot 62.209216
 2692         c3     98    ccc     C3   2692 0.15592700  12.010000   ; qtot 62.365143
 2693         c3     98    ccc     C4   2693 0.28383300  12.010000   ; qtot 62.648976
 2694         c3     98    ccc     C5   2694 0.32403300  12.010000   ; qtot 62.973009
 2695         h1     98    ccc     H3   2695 0.13386900   1.008000   ; qtot 63.106878
 2696         h1     98    ccc     H4   2696 0.10146700   1.008000   ; qtot 63.208345
 2697         h2     98    ccc     H5   2697 0.10960400   1.008000   ; qtot 63.317949
 2698         os     98    ccc     O1   2698 -0.28650000  16.000000   ; qtot 63.031449
 2699         oh     98    ccc     O2   2699 -0.86012500  16.000000   ; qtot 62.171324
 2700         oh     98    ccc     O3   2700 -0.83772800  16.000000   ; qtot 61.333596
 2701         oh     98    ccc     O4   2701 -0.77449700  16.000000   ; qtot 60.559099
 2702         c3     98    ccc     C6   2702 0.37576500  12.010000   ; qtot 60.934864
 2703         ho     98    ccc     H6   2703 0.53656000   1.008000   ; qtot 61.471424
 2704         ho     98    ccc     H7   2704 0.49492100   1.008000   ; qtot 61.966345
 2705         ho     98    ccc     H8   2705 0.51297200   1.008000   ; qtot 62.479317
 2706         h1     98    ccc     H9   2706 0.05653400   1.008000   ; qtot 62.535851
 2707         h1     98    ccc    H10   2707 0.05653400   1.008000   ; qtot 62.592385
 2708         oh     98    ccc     O5   2708 -0.84113600  16.000000   ; qtot 61.751249
 2709         ho     98    ccc    H11   2709 0.51201600   1.008000   ; qtot 62.263265
 2710         os     98    ccc     O6   2710 -0.26013600  16.000000   ; qtot 62.003129
; residue   99 ccc rtp ccc q 0.0
 2711         c3     99    ccc     C1   2711 -0.33178800  12.010000   ; qtot 61.671341
 2712         c3     99    ccc     C2   2712 0.30606500  12.010000   ; qtot 61.977406
 2713         h1     99    ccc     H1   2713 0.11662300   1.008000   ; qtot 62.094029
 2714         h1     99    ccc     H2   2714 0.11526800   1.008000   ; qtot 62.209297
 2715         c3     99    ccc     C3   2715 0.15592700  12.010000   ; qtot 62.365224
 2716         c3     99    ccc     C4   2716 0.28383300  12.010000   ; qtot 62.649057
 2717         c3     99    ccc     C5   2717 0.32403300  12.010000   ; qtot 62.973090
 2718         h1     99    ccc     H3   2718 0.13386900   1.008000   ; qtot 63.106959
 2719         h1     99    ccc     H4   2719 0.10146700   1.008000   ; qtot 63.208426
 2720         h2     99    ccc     H5   2720 0.10960400   1.008000   ; qtot 63.318030
 2721         os     99    ccc     O1   2721 -0.28650000  16.000000   ; qtot 63.031530
 2722         oh     99    ccc     O2   2722 -0.86012500  16.000000   ; qtot 62.171405
 2723         oh     99    ccc     O3   2723 -0.83772800  16.000000   ; qtot 61.333677
 2724         oh     99    ccc     O4   2724 -0.77449700  16.000000   ; qtot 60.559180
 2725         c3     99    ccc     C6   2725 0.37576500  12.010000   ; qtot 60.934945
 2726         ho     99    ccc     H6   2726 0.53656000   1.008000   ; qtot 61.471505
 2727         ho     99    ccc     H7   2727 0.49492100   1.008000   ; qtot 61.966426
 2728         ho     99    ccc     H8   2728 0.51297200   1.008000   ; qtot 62.479398
 2729         h1     99    ccc     H9   2729 0.05653400   1.008000   ; qtot 62.535932
 2730         h1     99    ccc    H10   2730 0.05653400   1.008000   ; qtot 62.592466
 2731         oh     99    ccc     O5   2731 -0.84113600  16.000000   ; qtot 61.751330
 2732         ho     99    ccc    H11   2732 0.51201600   1.008000   ; qtot 62.263346
 2733         os     99    ccc     O6   2733 -0.26013600  16.000000   ; qtot 62.003210
; residue  100 ccc rtp ccc q 0.0
 2734         c3    100    ccc     C1   2734 -0.33178800  12.010000   ; qtot 61.671422
 2735         c3    100    ccc     C2   2735 0.30606500  12.010000   ; qtot 61.977487
 2736         h1    100    ccc     H1   2736 0.11662300   1.008000   ; qtot 62.094110
 2737         h1    100    ccc     H2   2737 0.11526800   1.008000   ; qtot 62.209378
 2738         c3    100    ccc     C3   2738 0.15592700  12.010000   ; qtot 62.365305
 2739         c3    100    ccc     C4   2739 0.28383300  12.010000   ; qtot 62.649138
 2740         c3    100    ccc     C5   2740 0.32403300  12.010000   ; qtot 62.973171
 2741         h1    100    ccc     H3   2741 0.13386900   1.008000   ; qtot 63.107040
 2742         h1    100    ccc     H4   2742 0.10146700   1.008000   ; qtot 63.208507
 2743         h2    100    ccc     H5   2743 0.10960400   1.008000   ; qtot 63.318111
 2744         os    100    ccc     O1   2744 -0.28650000  16.000000   ; qtot 63.031611
 2745         oh    100    ccc     O2   2745 -0.86012500  16.000000   ; qtot 62.171486
 2746         oh    100    ccc     O3   2746 -0.83772800  16.000000   ; qtot 61.333758
 2747         oh    100    ccc     O4   2747 -0.77449700  16.000000   ; qtot 60.559261
 2748         c3    100    ccc     C6   2748 0.37576500  12.010000   ; qtot 60.935026
 2749         ho    100    ccc     H6   2749 0.53656000   1.008000   ; qtot 61.471586
 2750         ho    100    ccc     H7   2750 0.49492100   1.008000   ; qtot 61.966507
 2751         ho    100    ccc     H8   2751 0.51297200   1.008000   ; qtot 62.479479
 2752         h1    100    ccc     H9   2752 0.05653400   1.008000   ; qtot 62.536013
 2753         h1    100    ccc    H10   2753 0.05653400   1.008000   ; qtot 62.592547
 2754         oh    100    ccc     O5   2754 -0.84113600  16.000000   ; qtot 61.751411
 2755         ho    100    ccc    H11   2755 0.51201600   1.008000   ; qtot 62.263427
 2756         os    100    ccc     O6   2756 -0.26013600  16.000000   ; qtot 62.003291
; residue  101 ccc rtp ccc q 0.0
 2757         c3    101    ccc     C1   2757 -0.33178800  12.010000   ; qtot 61.671503
 2758         c3    101    ccc     C2   2758 0.30606500  12.010000   ; qtot 61.977568
 2759         h1    101    ccc     H1   2759 0.11662300   1.008000   ; qtot 62.094191
 2760         h1    101    ccc     H2   2760 0.11526800   1.008000   ; qtot 62.209459
 2761         c3    101    ccc     C3   2761 0.15592700  12.010000   ; qtot 62.365386
 2762         c3    101    ccc     C4   2762 0.28383300  12.010000   ; qtot 62.649219
 2763         c3    101    ccc     C5   2763 0.32403300  12.010000   ; qtot 62.973252
 2764         h1    101    ccc     H3   2764 0.13386900   1.008000   ; qtot 63.107121
 2765         h1    101    ccc     H4   2765 0.10146700   1.008000   ; qtot 63.208588
 2766         h2    101    ccc     H5   2766 0.10960400   1.008000   ; qtot 63.318192
 2767         os    101    ccc     O1   2767 -0.28650000  16.000000   ; qtot 63.031692
 2768         oh    101    ccc     O2   2768 -0.86012500  16.000000   ; qtot 62.171567
 2769         oh    101    ccc     O3   2769 -0.83772800  16.000000   ; qtot 61.333839
 2770         oh    101    ccc     O4   2770 -0.77449700  16.000000   ; qtot 60.559342
 2771         c3    101    ccc     C6   2771 0.37576500  12.010000   ; qtot 60.935107
 2772         ho    101    ccc     H6   2772 0.53656000   1.008000   ; qtot 61.471667
 2773         ho    101    ccc     H7   2773 0.49492100   1.008000   ; qtot 61.966588
 2774         ho    101    ccc     H8   2774 0.51297200   1.008000   ; qtot 62.479560
 2775         h1    101    ccc     H9   2775 0.05653400   1.008000   ; qtot 62.536094
 2776         h1    101    ccc    H10   2776 0.05653400   1.008000   ; qtot 62.592628
 2777         oh    101    ccc     O5   2777 -0.84113600  16.000000   ; qtot 61.751492
 2778         ho    101    ccc    H11   2778 0.51201600   1.008000   ; qtot 62.263508
 2779         os    101    ccc     O6   2779 -0.26013600  16.000000   ; qtot 62.003372
; residue  102 ccc rtp ccc q 0.0
 2780         c3    102    ccc     C1   2780 -0.33178800  12.010000   ; qtot 61.671584
 2781         c3    102    ccc     C2   2781 0.30606500  12.010000   ; qtot 61.977649
 2782         h1    102    ccc     H1   2782 0.11662300   1.008000   ; qtot 62.094272
 2783         h1    102    ccc     H2   2783 0.11526800   1.008000   ; qtot 62.209540
 2784         c3    102    ccc     C3   2784 0.15592700  12.010000   ; qtot 62.365467
 2785         c3    102    ccc     C4   2785 0.28383300  12.010000   ; qtot 62.649300
 2786         c3    102    ccc     C5   2786 0.32403300  12.010000   ; qtot 62.973333
 2787         h1    102    ccc     H3   2787 0.13386900   1.008000   ; qtot 63.107202
 2788         h1    102    ccc     H4   2788 0.10146700   1.008000   ; qtot 63.208669
 2789         h2    102    ccc     H5   2789 0.10960400   1.008000   ; qtot 63.318273
 2790         os    102    ccc     O1   2790 -0.28650000  16.000000   ; qtot 63.031773
 2791         oh    102    ccc     O2   2791 -0.86012500  16.000000   ; qtot 62.171648
 2792         oh    102    ccc     O3   2792 -0.83772800  16.000000   ; qtot 61.333920
 2793         oh    102    ccc     O4   2793 -0.77449700  16.000000   ; qtot 60.559423
 2794         c3    102    ccc     C6   2794 0.37576500  12.010000   ; qtot 60.935188
 2795         ho    102    ccc     H6   2795 0.53656000   1.008000   ; qtot 61.471748
 2796         ho    102    ccc     H7   2796 0.49492100   1.008000   ; qtot 61.966669
 2797         ho    102    ccc     H8   2797 0.51297200   1.008000   ; qtot 62.479641
 2798         h1    102    ccc     H9   2798 0.05653400   1.008000   ; qtot 62.536175
 2799         h1    102    ccc    H10   2799 0.05653400   1.008000   ; qtot 62.592709
 2800         oh    102    ccc     O5   2800 -0.84113600  16.000000   ; qtot 61.751573
 2801         ho    102    ccc    H11   2801 0.51201600   1.008000   ; qtot 62.263589
 2802         os    102    ccc     O6   2802 -0.26013600  16.000000   ; qtot 62.003453
; residue  103 ccc rtp ccc q 0.0
 2803         c3    103    ccc     C1   2803 -0.33178800  12.010000   ; qtot 61.671665
 2804         c3    103    ccc     C2   2804 0.30606500  12.010000   ; qtot 61.977730
 2805         h1    103    ccc     H1   2805 0.11662300   1.008000   ; qtot 62.094353
 2806         h1    103    ccc     H2   2806 0.11526800   1.008000   ; qtot 62.209621
 2807         c3    103    ccc     C3   2807 0.15592700  12.010000   ; qtot 62.365548
 2808         c3    103    ccc     C4   2808 0.28383300  12.010000   ; qtot 62.649381
 2809         c3    103    ccc     C5   2809 0.32403300  12.010000   ; qtot 62.973414
 2810         h1    103    ccc     H3   2810 0.13386900   1.008000   ; qtot 63.107283
 2811         h1    103    ccc     H4   2811 0.10146700   1.008000   ; qtot 63.208750
 2812         h2    103    ccc     H5   2812 0.10960400   1.008000   ; qtot 63.318354
 2813         os    103    ccc     O1   2813 -0.28650000  16.000000   ; qtot 63.031854
 2814         oh    103    ccc     O2   2814 -0.86012500  16.000000   ; qtot 62.171729
 2815         oh    103    ccc     O3   2815 -0.83772800  16.000000   ; qtot 61.334001
 2816         oh    103    ccc     O4   2816 -0.77449700  16.000000   ; qtot 60.559504
 2817         c3    103    ccc     C6   2817 0.37576500  12.010000   ; qtot 60.935269
 2818         ho    103    ccc     H6   2818 0.53656000   1.008000   ; qtot 61.471829
 2819         ho    103    ccc     H7   2819 0.49492100   1.008000   ; qtot 61.966750
 2820         ho    103    ccc     H8   2820 0.51297200   1.008000   ; qtot 62.479722
 2821         h1    103    ccc     H9   2821 0.05653400   1.008000   ; qtot 62.536256
 2822         h1    103    ccc    H10   2822 0.05653400   1.008000   ; qtot 62.592790
 2823         oh    103    ccc     O5   2823 -0.84113600  16.000000   ; qtot 61.751654
 2824         ho    103    ccc    H11   2824 0.51201600   1.008000   ; qtot 62.263670
 2825         os    103    ccc     O6   2825 -0.26013600  16.000000   ; qtot 62.003534
; residue  104 ccc rtp ccc q 0.0
 2826         c3    104    ccc     C1   2826 -0.33178800  12.010000   ; qtot 61.671746
 2827         c3    104    ccc     C2   2827 0.30606500  12.010000   ; qtot 61.977811
 2828         h1    104    ccc     H1   2828 0.11662300   1.008000   ; qtot 62.094434
 2829         h1    104    ccc     H2   2829 0.11526800   1.008000   ; qtot 62.209702
 2830         c3    104    ccc     C3   2830 0.15592700  12.010000   ; qtot 62.365629
 2831         c3    104    ccc     C4   2831 0.28383300  12.010000   ; qtot 62.649462
 2832         c3    104    ccc     C5   2832 0.32403300  12.010000   ; qtot 62.973495
 2833         h1    104    ccc     H3   2833 0.13386900   1.008000   ; qtot 63.107364
 2834         h1    104    ccc     H4   2834 0.10146700   1.008000   ; qtot 63.208831
 2835         h2    104    ccc     H5   2835 0.10960400   1.008000   ; qtot 63.318435
 2836         os    104    ccc     O1   2836 -0.28650000  16.000000   ; qtot 63.031935
 2837         oh    104    ccc     O2   2837 -0.86012500  16.000000   ; qtot 62.171810
 2838         oh    104    ccc     O3   2838 -0.83772800  16.000000   ; qtot 61.334082
 2839         oh    104    ccc     O4   2839 -0.77449700  16.000000   ; qtot 60.559585
 2840         c3    104    ccc     C6   2840 0.37576500  12.010000   ; qtot 60.935350
 2841         ho    104    ccc     H6   2841 0.53656000   1.008000   ; qtot 61.471910
 2842         ho    104    ccc     H7   2842 0.49492100   1.008000   ; qtot 61.966831
 2843         ho    104    ccc     H8   2843 0.51297200   1.008000   ; qtot 62.479803
 2844         h1    104    ccc     H9   2844 0.05653400   1.008000   ; qtot 62.536337
 2845         h1    104    ccc    H10   2845 0.05653400   1.008000   ; qtot 62.592871
 2846         oh    104    ccc     O5   2846 -0.84113600  16.000000   ; qtot 61.751735
 2847         ho    104    ccc    H11   2847 0.51201600   1.008000   ; qtot 62.263751
 2848         os    104    ccc     O6   2848 -0.26013600  16.000000   ; qtot 62.003615
; residue  105 ccc rtp ccc q 0.0
 2849         c3    105    ccc     C1   2849 -0.33178800  12.010000   ; qtot 61.671827
 2850         c3    105    ccc     C2   2850 0.30606500  12.010000   ; qtot 61.977892
 2851         h1    105    ccc     H1   2851 0.11662300   1.008000   ; qtot 62.094515
 2852         h1    105    ccc     H2   2852 0.11526800   1.008000   ; qtot 62.209783
 2853         c3    105    ccc     C3   2853 0.15592700  12.010000   ; qtot 62.365710
 2854         c3    105    ccc     C4   2854 0.28383300  12.010000   ; qtot 62.649543
 2855         c3    105    ccc     C5   2855 0.32403300  12.010000   ; qtot 62.973576
 2856         h1    105    ccc     H3   2856 0.13386900   1.008000   ; qtot 63.107445
 2857         h1    105    ccc     H4   2857 0.10146700   1.008000   ; qtot 63.208912
 2858         h2    105    ccc     H5   2858 0.10960400   1.008000   ; qtot 63.318516
 2859         os    105    ccc     O1   2859 -0.28650000  16.000000   ; qtot 63.032016
 2860         oh    105    ccc     O2   2860 -0.86012500  16.000000   ; qtot 62.171891
 2861         oh    105    ccc     O3   2861 -0.83772800  16.000000   ; qtot 61.334163
 2862         oh    105    ccc     O4   2862 -0.77449700  16.000000   ; qtot 60.559666
 2863         c3    105    ccc     C6   2863 0.37576500  12.010000   ; qtot 60.935431
 2864         ho    105    ccc     H6   2864 0.53656000   1.008000   ; qtot 61.471991
 2865         ho    105    ccc     H7   2865 0.49492100   1.008000   ; qtot 61.966912
 2866         ho    105    ccc     H8   2866 0.51297200   1.008000   ; qtot 62.479884
 2867         h1    105    ccc     H9   2867 0.05653400   1.008000   ; qtot 62.536418
 2868         h1    105    ccc    H10   2868 0.05653400   1.008000   ; qtot 62.592952
 2869         oh    105    ccc     O5   2869 -0.84113600  16.000000   ; qtot 61.751816
 2870         ho    105    ccc    H11   2870 0.51201600   1.008000   ; qtot 62.263832
 2871         os    105    ccc     O6   2871 -0.26013600  16.000000   ; qtot 62.003696
; residue  106 ccc rtp ccc q 0.0
 2872         c3    106    ccc     C1   2872 -0.33178800  12.010000   ; qtot 61.671908
 2873         c3    106    ccc     C2   2873 0.30606500  12.010000   ; qtot 61.977973
 2874         h1    106    ccc     H1   2874 0.11662300   1.008000   ; qtot 62.094596
 2875         h1    106    ccc     H2   2875 0.11526800   1.008000   ; qtot 62.209864
 2876         c3    106    ccc     C3   2876 0.15592700  12.010000   ; qtot 62.365791
 2877         c3    106    ccc     C4   2877 0.28383300  12.010000   ; qtot 62.649624
 2878         c3    106    ccc     C5   2878 0.32403300  12.010000   ; qtot 62.973657
 2879         h1    106    ccc     H3   2879 0.13386900   1.008000   ; qtot 63.107526
 2880         h1    106    ccc     H4   2880 0.10146700   1.008000   ; qtot 63.208993
 2881         h2    106    ccc     H5   2881 0.10960400   1.008000   ; qtot 63.318597
 2882         os    106    ccc     O1   2882 -0.28650000  16.000000   ; qtot 63.032097
 2883         oh    106    ccc     O2   2883 -0.86012500  16.000000   ; qtot 62.171972
 2884         oh    106    ccc     O3   2884 -0.83772800  16.000000   ; qtot 61.334244
 2885         oh    106    ccc     O4   2885 -0.77449700  16.000000   ; qtot 60.559747
 2886         c3    106    ccc     C6   2886 0.37576500  12.010000   ; qtot 60.935512
 2887         ho    106    ccc     H6   2887 0.53656000   1.008000   ; qtot 61.472072
 2888         ho    106    ccc     H7   2888 0.49492100   1.008000   ; qtot 61.966993
 2889         ho    106    ccc     H8   2889 0.51297200   1.008000   ; qtot 62.479965
 2890         h1    106    ccc     H9   2890 0.05653400   1.008000   ; qtot 62.536499
 2891         h1    106    ccc    H10   2891 0.05653400   1.008000   ; qtot 62.593033
 2892         oh    106    ccc     O5   2892 -0.84113600  16.000000   ; qtot 61.751897
 2893         ho    106    ccc    H11   2893 0.51201600   1.008000   ; qtot 62.263913
 2894         os    106    ccc     O6   2894 -0.26013600  16.000000   ; qtot 62.003777
; residue  107 ccc rtp ccc q 0.0
 2895         c3    107    ccc     C1   2895 -0.33178800  12.010000   ; qtot 61.671989
 2896         c3    107    ccc     C2   2896 0.30606500  12.010000   ; qtot 61.978054
 2897         h1    107    ccc     H1   2897 0.11662300   1.008000   ; qtot 62.094677
 2898         h1    107    ccc     H2   2898 0.11526800   1.008000   ; qtot 62.209945
 2899         c3    107    ccc     C3   2899 0.15592700  12.010000   ; qtot 62.365872
 2900         c3    107    ccc     C4   2900 0.28383300  12.010000   ; qtot 62.649705
 2901         c3    107    ccc     C5   2901 0.32403300  12.010000   ; qtot 62.973738
 2902         h1    107    ccc     H3   2902 0.13386900   1.008000   ; qtot 63.107607
 2903         h1    107    ccc     H4   2903 0.10146700   1.008000   ; qtot 63.209074
 2904         h2    107    ccc     H5   2904 0.10960400   1.008000   ; qtot 63.318678
 2905         os    107    ccc     O1   2905 -0.28650000  16.000000   ; qtot 63.032178
 2906         oh    107    ccc     O2   2906 -0.86012500  16.000000   ; qtot 62.172053
 2907         oh    107    ccc     O3   2907 -0.83772800  16.000000   ; qtot 61.334325
 2908         oh    107    ccc     O4   2908 -0.77449700  16.000000   ; qtot 60.559828
 2909         c3    107    ccc     C6   2909 0.37576500  12.010000   ; qtot 60.935593
 2910         ho    107    ccc     H6   2910 0.53656000   1.008000   ; qtot 61.472153
 2911         ho    107    ccc     H7   2911 0.49492100   1.008000   ; qtot 61.967074
 2912         ho    107    ccc     H8   2912 0.51297200   1.008000   ; qtot 62.480046
 2913         h1    107    ccc     H9   2913 0.05653400   1.008000   ; qtot 62.536580
 2914         h1    107    ccc    H10   2914 0.05653400   1.008000   ; qtot 62.593114
 2915         oh    107    ccc     O5   2915 -0.84113600  16.000000   ; qtot 61.751978
 2916         ho    107    ccc    H11   2916 0.51201600   1.008000   ; qtot 62.263994
 2917         os    107    ccc     O6   2917 -0.26013600  16.000000   ; qtot 62.003858
; residue  108 ccc rtp ccc q 0.0
 2918         c3    108    ccc     C1   2918 -0.33178800  12.010000   ; qtot 61.672070
 2919         c3    108    ccc     C2   2919 0.30606500  12.010000   ; qtot 61.978135
 2920         h1    108    ccc     H1   2920 0.11662300   1.008000   ; qtot 62.094758
 2921         h1    108    ccc     H2   2921 0.11526800   1.008000   ; qtot 62.210026
 2922         c3    108    ccc     C3   2922 0.15592700  12.010000   ; qtot 62.365953
 2923         c3    108    ccc     C4   2923 0.28383300  12.010000   ; qtot 62.649786
 2924         c3    108    ccc     C5   2924 0.32403300  12.010000   ; qtot 62.973819
 2925         h1    108    ccc     H3   2925 0.13386900   1.008000   ; qtot 63.107688
 2926         h1    108    ccc     H4   2926 0.10146700   1.008000   ; qtot 63.209155
 2927         h2    108    ccc     H5   2927 0.10960400   1.008000   ; qtot 63.318759
 2928         os    108    ccc     O1   2928 -0.28650000  16.000000   ; qtot 63.032259
 2929         oh    108    ccc     O2   2929 -0.86012500  16.000000   ; qtot 62.172134
 2930         oh    108    ccc     O3   2930 -0.83772800  16.000000   ; qtot 61.334406
 2931         oh    108    ccc     O4   2931 -0.77449700  16.000000   ; qtot 60.559909
 2932         c3    108    ccc     C6   2932 0.37576500  12.010000   ; qtot 60.935674
 2933         ho    108    ccc     H6   2933 0.53656000   1.008000   ; qtot 61.472234
 2934         ho    108    ccc     H7   2934 0.49492100   1.008000   ; qtot 61.967155
 2935         ho    108    ccc     H8   2935 0.51297200   1.008000   ; qtot 62.480127
 2936         h1    108    ccc     H9   2936 0.05653400   1.008000   ; qtot 62.536661
 2937         h1    108    ccc    H10   2937 0.05653400   1.008000   ; qtot 62.593195
 2938         oh    108    ccc     O5   2938 -0.84113600  16.000000   ; qtot 61.752059
 2939         ho    108    ccc    H11   2939 0.51201600   1.008000   ; qtot 62.264075
 2940         os    108    ccc     O6   2940 -0.26013600  16.000000   ; qtot 62.003939
; residue  109 ccc rtp ccc q 0.0
 2941         c3    109    ccc     C1   2941 -0.33178800  12.010000   ; qtot 61.672151
 2942         c3    109    ccc     C2   2942 0.30606500  12.010000   ; qtot 61.978216
 2943         h1    109    ccc     H1   2943 0.11662300   1.008000   ; qtot 62.094839
 2944         h1    109    ccc     H2   2944 0.11526800   1.008000   ; qtot 62.210107
 2945         c3    109    ccc     C3   2945 0.15592700  12.010000   ; qtot 62.366034
 2946         c3    109    ccc     C4   2946 0.28383300  12.010000   ; qtot 62.649867
 2947         c3    109    ccc     C5   2947 0.32403300  12.010000   ; qtot 62.973900
 2948         h1    109    ccc     H3   2948 0.13386900   1.008000   ; qtot 63.107769
 2949         h1    109    ccc     H4   2949 0.10146700   1.008000   ; qtot 63.209236
 2950         h2    109    ccc     H5   2950 0.10960400   1.008000   ; qtot 63.318840
 2951         os    109    ccc     O1   2951 -0.28650000  16.000000   ; qtot 63.032340
 2952         oh    109    ccc     O2   2952 -0.86012500  16.000000   ; qtot 62.172215
 2953         oh    109    ccc     O3   2953 -0.83772800  16.000000   ; qtot 61.334487
 2954         oh    109    ccc     O4   2954 -0.77449700  16.000000   ; qtot 60.559990
 2955         c3    109    ccc     C6   2955 0.37576500  12.010000   ; qtot 60.935755
 2956         ho    109    ccc     H6   2956 0.53656000   1.008000   ; qtot 61.472315
 2957         ho    109    ccc     H7   2957 0.49492100   1.008000   ; qtot 61.967236
 2958         ho    109    ccc     H8   2958 0.51297200   1.008000   ; qtot 62.480208
 2959         h1    109    ccc     H9   2959 0.05653400   1.008000   ; qtot 62.536742
 2960         h1    109    ccc    H10   2960 0.05653400   1.008000   ; qtot 62.593276
 2961         oh    109    ccc     O5   2961 -0.84113600  16.000000   ; qtot 61.752140
 2962         ho    109    ccc    H11   2962 0.51201600   1.008000   ; qtot 62.264156
 2963         os    109    ccc     O6   2963 -0.26013600  16.000000   ; qtot 62.004020
; residue  110 ccc rtp ccc q 0.0
 2964         c3    110    ccc     C1   2964 -0.33178800  12.010000   ; qtot 61.672232
 2965         c3    110    ccc     C2   2965 0.30606500  12.010000   ; qtot 61.978297
 2966         h1    110    ccc     H1   2966 0.11662300   1.008000   ; qtot 62.094920
 2967         h1    110    ccc     H2   2967 0.11526800   1.008000   ; qtot 62.210188
 2968         c3    110    ccc     C3   2968 0.15592700  12.010000   ; qtot 62.366115
 2969         c3    110    ccc     C4   2969 0.28383300  12.010000   ; qtot 62.649948
 2970         c3    110    ccc     C5   2970 0.32403300  12.010000   ; qtot 62.973981
 2971         h1    110    ccc     H3   2971 0.13386900   1.008000   ; qtot 63.107850
 2972         h1    110    ccc     H4   2972 0.10146700   1.008000   ; qtot 63.209317
 2973         h2    110    ccc     H5   2973 0.10960400   1.008000   ; qtot 63.318921
 2974         os    110    ccc     O1   2974 -0.28650000  16.000000   ; qtot 63.032421
 2975         oh    110    ccc     O2   2975 -0.86012500  16.000000   ; qtot 62.172296
 2976         oh    110    ccc     O3   2976 -0.83772800  16.000000   ; qtot 61.334568
 2977         oh    110    ccc     O4   2977 -0.77449700  16.000000   ; qtot 60.560071
 2978         c3    110    ccc     C6   2978 0.37576500  12.010000   ; qtot 60.935836
 2979         ho    110    ccc     H6   2979 0.53656000   1.008000   ; qtot 61.472396
 2980         ho    110    ccc     H7   2980 0.49492100   1.008000   ; qtot 61.967317
 2981         ho    110    ccc     H8   2981 0.51297200   1.008000   ; qtot 62.480289
 2982         h1    110    ccc     H9   2982 0.05653400   1.008000   ; qtot 62.536823
 2983         h1    110    ccc    H10   2983 0.05653400   1.008000   ; qtot 62.593357
 2984         oh    110    ccc     O5   2984 -0.84113600  16.000000   ; qtot 61.752221
 2985         ho    110    ccc    H11   2985 0.51201600   1.008000   ; qtot 62.264237
 2986         os    110    ccc     O6   2986 -0.26013600  16.000000   ; qtot 62.004101
; residue  111 ccc rtp ccc q 0.0
 2987         c3    111    ccc     C1   2987 -0.33178800  12.010000   ; qtot 61.672313
 2988         c3    111    ccc     C2   2988 0.30606500  12.010000   ; qtot 61.978378
 2989         h1    111    ccc     H1   2989 0.11662300   1.008000   ; qtot 62.095001
 2990         h1    111    ccc     H2   2990 0.11526800   1.008000   ; qtot 62.210269
 2991         c3    111    ccc     C3   2991 0.15592700  12.010000   ; qtot 62.366196
 2992         c3    111    ccc     C4   2992 0.28383300  12.010000   ; qtot 62.650029
 2993         c3    111    ccc     C5   2993 0.32403300  12.010000   ; qtot 62.974062
 2994         h1    111    ccc     H3   2994 0.13386900   1.008000   ; qtot 63.107931
 2995         h1    111    ccc     H4   2995 0.10146700   1.008000   ; qtot 63.209398
 2996         h2    111    ccc     H5   2996 0.10960400   1.008000   ; qtot 63.319002
 2997         os    111    ccc     O1   2997 -0.28650000  16.000000   ; qtot 63.032502
 2998         oh    111    ccc     O2   2998 -0.86012500  16.000000   ; qtot 62.172377
 2999         oh    111    ccc     O3   2999 -0.83772800  16.000000   ; qtot 61.334649
 3000         oh    111    ccc     O4   3000 -0.77449700  16.000000   ; qtot 60.560152
 3001         c3    111    ccc     C6   3001 0.37576500  12.010000   ; qtot 60.935917
 3002         ho    111    ccc     H6   3002 0.53656000   1.008000   ; qtot 61.472477
 3003         ho    111    ccc     H7   3003 0.49492100   1.008000   ; qtot 61.967398
 3004         ho    111    ccc     H8   3004 0.51297200   1.008000   ; qtot 62.480370
 3005         h1    111    ccc     H9   3005 0.05653400   1.008000   ; qtot 62.536904
 3006         h1    111    ccc    H10   3006 0.05653400   1.008000   ; qtot 62.593438
 3007         oh    111    ccc     O5   3007 -0.84113600  16.000000   ; qtot 61.752302
 3008         ho    111    ccc    H11   3008 0.51201600   1.008000   ; qtot 62.264318
 3009         os    111    ccc     O6   3009 -0.26013600  16.000000   ; qtot 62.004182
; residue  112 ccc rtp ccc q 0.0
 3010         c3    112    ccc     C1   3010 -0.33178800  12.010000   ; qtot 61.672394
 3011         c3    112    ccc     C2   3011 0.30606500  12.010000   ; qtot 61.978459
 3012         h1    112    ccc     H1   3012 0.11662300   1.008000   ; qtot 62.095082
 3013         h1    112    ccc     H2   3013 0.11526800   1.008000   ; qtot 62.210350
 3014         c3    112    ccc     C3   3014 0.15592700  12.010000   ; qtot 62.366277
 3015         c3    112    ccc     C4   3015 0.28383300  12.010000   ; qtot 62.650110
 3016         c3    112    ccc     C5   3016 0.32403300  12.010000   ; qtot 62.974143
 3017         h1    112    ccc     H3   3017 0.13386900   1.008000   ; qtot 63.108012
 3018         h1    112    ccc     H4   3018 0.10146700   1.008000   ; qtot 63.209479
 3019         h2    112    ccc     H5   3019 0.10960400   1.008000   ; qtot 63.319083
 3020         os    112    ccc     O1   3020 -0.28650000  16.000000   ; qtot 63.032583
 3021         oh    112    ccc     O2   3021 -0.86012500  16.000000   ; qtot 62.172458
 3022         oh    112    ccc     O3   3022 -0.83772800  16.000000   ; qtot 61.334730
 3023         oh    112    ccc     O4   3023 -0.77449700  16.000000   ; qtot 60.560233
 3024         c3    112    ccc     C6   3024 0.37576500  12.010000   ; qtot 60.935998
 3025         ho    112    ccc     H6   3025 0.53656000   1.008000   ; qtot 61.472558
 3026         ho    112    ccc     H7   3026 0.49492100   1.008000   ; qtot 61.967479
 3027         ho    112    ccc     H8   3027 0.51297200   1.008000   ; qtot 62.480451
 3028         h1    112    ccc     H9   3028 0.05653400   1.008000   ; qtot 62.536985
 3029         h1    112    ccc    H10   3029 0.05653400   1.008000   ; qtot 62.593519
 3030         oh    112    ccc     O5   3030 -0.84113600  16.000000   ; qtot 61.752383
 3031         ho    112    ccc    H11   3031 0.51201600   1.008000   ; qtot 62.264399
 3032         os    112    ccc     O6   3032 -0.26013600  16.000000   ; qtot 62.004263
; residue  113 ccc rtp ccc q 0.0
 3033         c3    113    ccc     C1   3033 -0.33178800  12.010000   ; qtot 61.672475
 3034         c3    113    ccc     C2   3034 0.30606500  12.010000   ; qtot 61.978540
 3035         h1    113    ccc     H1   3035 0.11662300   1.008000   ; qtot 62.095163
 3036         h1    113    ccc     H2   3036 0.11526800   1.008000   ; qtot 62.210431
 3037         c3    113    ccc     C3   3037 0.15592700  12.010000   ; qtot 62.366358
 3038         c3    113    ccc     C4   3038 0.28383300  12.010000   ; qtot 62.650191
 3039         c3    113    ccc     C5   3039 0.32403300  12.010000   ; qtot 62.974224
 3040         h1    113    ccc     H3   3040 0.13386900   1.008000   ; qtot 63.108093
 3041         h1    113    ccc     H4   3041 0.10146700   1.008000   ; qtot 63.209560
 3042         h2    113    ccc     H5   3042 0.10960400   1.008000   ; qtot 63.319164
 3043         os    113    ccc     O1   3043 -0.28650000  16.000000   ; qtot 63.032664
 3044         oh    113    ccc     O2   3044 -0.86012500  16.000000   ; qtot 62.172539
 3045         oh    113    ccc     O3   3045 -0.83772800  16.000000   ; qtot 61.334811
 3046         oh    113    ccc     O4   3046 -0.77449700  16.000000   ; qtot 60.560314
 3047         c3    113    ccc     C6   3047 0.37576500  12.010000   ; qtot 60.936079
 3048         ho    113    ccc     H6   3048 0.53656000   1.008000   ; qtot 61.472639
 3049         ho    113    ccc     H7   3049 0.49492100   1.008000   ; qtot 61.967560
 3050         ho    113    ccc     H8   3050 0.51297200   1.008000   ; qtot 62.480532
 3051         h1    113    ccc     H9   3051 0.05653400   1.008000   ; qtot 62.537066
 3052         h1    113    ccc    H10   3052 0.05653400   1.008000   ; qtot 62.593600
 3053         oh    113    ccc     O5   3053 -0.84113600  16.000000   ; qtot 61.752464
 3054         ho    113    ccc    H11   3054 0.51201600   1.008000   ; qtot 62.264480
 3055         os    113    ccc     O6   3055 -0.26013600  16.000000   ; qtot 62.004344
; residue  114 ccc rtp ccc q 0.0
 3056         c3    114    ccc     C1   3056 -0.33178800  12.010000   ; qtot 61.672556
 3057         c3    114    ccc     C2   3057 0.30606500  12.010000   ; qtot 61.978621
 3058         h1    114    ccc     H1   3058 0.11662300   1.008000   ; qtot 62.095244
 3059         h1    114    ccc     H2   3059 0.11526800   1.008000   ; qtot 62.210512
 3060         c3    114    ccc     C3   3060 0.15592700  12.010000   ; qtot 62.366439
 3061         c3    114    ccc     C4   3061 0.28383300  12.010000   ; qtot 62.650272
 3062         c3    114    ccc     C5   3062 0.32403300  12.010000   ; qtot 62.974305
 3063         h1    114    ccc     H3   3063 0.13386900   1.008000   ; qtot 63.108174
 3064         h1    114    ccc     H4   3064 0.10146700   1.008000   ; qtot 63.209641
 3065         h2    114    ccc     H5   3065 0.10960400   1.008000   ; qtot 63.319245
 3066         os    114    ccc     O1   3066 -0.28650000  16.000000   ; qtot 63.032745
 3067         oh    114    ccc     O2   3067 -0.86012500  16.000000   ; qtot 62.172620
 3068         oh    114    ccc     O3   3068 -0.83772800  16.000000   ; qtot 61.334892
 3069         oh    114    ccc     O4   3069 -0.77449700  16.000000   ; qtot 60.560395
 3070         c3    114    ccc     C6   3070 0.37576500  12.010000   ; qtot 60.936160
 3071         ho    114    ccc     H6   3071 0.53656000   1.008000   ; qtot 61.472720
 3072         ho    114    ccc     H7   3072 0.49492100   1.008000   ; qtot 61.967641
 3073         ho    114    ccc     H8   3073 0.51297200   1.008000   ; qtot 62.480613
 3074         h1    114    ccc     H9   3074 0.05653400   1.008000   ; qtot 62.537147
 3075         h1    114    ccc    H10   3075 0.05653400   1.008000   ; qtot 62.593681
 3076         oh    114    ccc     O5   3076 -0.84113600  16.000000   ; qtot 61.752545
 3077         ho    114    ccc    H11   3077 0.51201600   1.008000   ; qtot 62.264561
 3078         os    114    ccc     O6   3078 -0.26013600  16.000000   ; qtot 62.004425
; residue  115 ccc rtp ccc q 0.0
 3079         c3    115    ccc     C1   3079 -0.33178800  12.010000   ; qtot 61.672637
 3080         c3    115    ccc     C2   3080 0.30606500  12.010000   ; qtot 61.978702
 3081         h1    115    ccc     H1   3081 0.11662300   1.008000   ; qtot 62.095325
 3082         h1    115    ccc     H2   3082 0.11526800   1.008000   ; qtot 62.210593
 3083         c3    115    ccc     C3   3083 0.15592700  12.010000   ; qtot 62.366520
 3084         c3    115    ccc     C4   3084 0.28383300  12.010000   ; qtot 62.650353
 3085         c3    115    ccc     C5   3085 0.32403300  12.010000   ; qtot 62.974386
 3086         h1    115    ccc     H3   3086 0.13386900   1.008000   ; qtot 63.108255
 3087         h1    115    ccc     H4   3087 0.10146700   1.008000   ; qtot 63.209722
 3088         h2    115    ccc     H5   3088 0.10960400   1.008000   ; qtot 63.319326
 3089         os    115    ccc     O1   3089 -0.28650000  16.000000   ; qtot 63.032826
 3090         oh    115    ccc     O2   3090 -0.86012500  16.000000   ; qtot 62.172701
 3091         oh    115    ccc     O3   3091 -0.83772800  16.000000   ; qtot 61.334973
 3092         oh    115    ccc     O4   3092 -0.77449700  16.000000   ; qtot 60.560476
 3093         c3    115    ccc     C6   3093 0.37576500  12.010000   ; qtot 60.936241
 3094         ho    115    ccc     H6   3094 0.53656000   1.008000   ; qtot 61.472801
 3095         ho    115    ccc     H7   3095 0.49492100   1.008000   ; qtot 61.967722
 3096         ho    115    ccc     H8   3096 0.51297200   1.008000   ; qtot 62.480694
 3097         h1    115    ccc     H9   3097 0.05653400   1.008000   ; qtot 62.537228
 3098         h1    115    ccc    H10   3098 0.05653400   1.008000   ; qtot 62.593762
 3099         oh    115    ccc     O5   3099 -0.84113600  16.000000   ; qtot 61.752626
 3100         ho    115    ccc    H11   3100 0.51201600   1.008000   ; qtot 62.264642
 3101         os    115    ccc     O6   3101 -0.26013600  16.000000   ; qtot 62.004506
; residue  116 ccc rtp ccc q 0.0
 3102         c3    116    ccc     C1   3102 -0.33178800  12.010000   ; qtot 61.672718
 3103         c3    116    ccc     C2   3103 0.30606500  12.010000   ; qtot 61.978783
 3104         h1    116    ccc     H1   3104 0.11662300   1.008000   ; qtot 62.095406
 3105         h1    116    ccc     H2   3105 0.11526800   1.008000   ; qtot 62.210674
 3106         c3    116    ccc     C3   3106 0.15592700  12.010000   ; qtot 62.366601
 3107         c3    116    ccc     C4   3107 0.28383300  12.010000   ; qtot 62.650434
 3108         c3    116    ccc     C5   3108 0.32403300  12.010000   ; qtot 62.974467
 3109         h1    116    ccc     H3   3109 0.13386900   1.008000   ; qtot 63.108336
 3110         h1    116    ccc     H4   3110 0.10146700   1.008000   ; qtot 63.209803
 3111         h2    116    ccc     H5   3111 0.10960400   1.008000   ; qtot 63.319407
 3112         os    116    ccc     O1   3112 -0.28650000  16.000000   ; qtot 63.032907
 3113         oh    116    ccc     O2   3113 -0.86012500  16.000000   ; qtot 62.172782
 3114         oh    116    ccc     O3   3114 -0.83772800  16.000000   ; qtot 61.335054
 3115         oh    116    ccc     O4   3115 -0.77449700  16.000000   ; qtot 60.560557
 3116         c3    116    ccc     C6   3116 0.37576500  12.010000   ; qtot 60.936322
 3117         ho    116    ccc     H6   3117 0.53656000   1.008000   ; qtot 61.472882
 3118         ho    116    ccc     H7   3118 0.49492100   1.008000   ; qtot 61.967803
 3119         ho    116    ccc     H8   3119 0.51297200   1.008000   ; qtot 62.480775
 3120         h1    116    ccc     H9   3120 0.05653400   1.008000   ; qtot 62.537309
 3121         h1    116    ccc    H10   3121 0.05653400   1.008000   ; qtot 62.593843
 3122         oh    116    ccc     O5   3122 -0.84113600  16.000000   ; qtot 61.752707
 3123         ho    116    ccc    H11   3123 0.51201600   1.008000   ; qtot 62.264723
 3124         os    116    ccc     O6   3124 -0.26013600  16.000000   ; qtot 62.004587
; residue  117 ccc rtp ccc q 0.0
 3125         c3    117    ccc     C1   3125 -0.33178800  12.010000   ; qtot 61.672799
 3126         c3    117    ccc     C2   3126 0.30606500  12.010000   ; qtot 61.978864
 3127         h1    117    ccc     H1   3127 0.11662300   1.008000   ; qtot 62.095487
 3128         h1    117    ccc     H2   3128 0.11526800   1.008000   ; qtot 62.210755
 3129         c3    117    ccc     C3   3129 0.15592700  12.010000   ; qtot 62.366682
 3130         c3    117    ccc     C4   3130 0.28383300  12.010000   ; qtot 62.650515
 3131         c3    117    ccc     C5   3131 0.32403300  12.010000   ; qtot 62.974548
 3132         h1    117    ccc     H3   3132 0.13386900   1.008000   ; qtot 63.108417
 3133         h1    117    ccc     H4   3133 0.10146700   1.008000   ; qtot 63.209884
 3134         h2    117    ccc     H5   3134 0.10960400   1.008000   ; qtot 63.319488
 3135         os    117    ccc     O1   3135 -0.28650000  16.000000   ; qtot 63.032988
 3136         oh    117    ccc     O2   3136 -0.86012500  16.000000   ; qtot 62.172863
 3137         oh    117    ccc     O3   3137 -0.83772800  16.000000   ; qtot 61.335135
 3138         oh    117    ccc     O4   3138 -0.77449700  16.000000   ; qtot 60.560638
 3139         c3    117    ccc     C6   3139 0.37576500  12.010000   ; qtot 60.936403
 3140         ho    117    ccc     H6   3140 0.53656000   1.008000   ; qtot 61.472963
 3141         ho    117    ccc     H7   3141 0.49492100   1.008000   ; qtot 61.967884
 3142         ho    117    ccc     H8   3142 0.51297200   1.008000   ; qtot 62.480856
 3143         h1    117    ccc     H9   3143 0.05653400   1.008000   ; qtot 62.537390
 3144         h1    117    ccc    H10   3144 0.05653400   1.008000   ; qtot 62.593924
 3145         oh    117    ccc     O5   3145 -0.84113600  16.000000   ; qtot 61.752788
 3146         ho    117    ccc    H11   3146 0.51201600   1.008000   ; qtot 62.264804
 3147         os    117    ccc     O6   3147 -0.26013600  16.000000   ; qtot 62.004668
; residue  118 ccc rtp ccc q 0.0
 3148         c3    118    ccc     C1   3148 -0.33178800  12.010000   ; qtot 61.672880
 3149         c3    118    ccc     C2   3149 0.30606500  12.010000   ; qtot 61.978945
 3150         h1    118    ccc     H1   3150 0.11662300   1.008000   ; qtot 62.095568
 3151         h1    118    ccc     H2   3151 0.11526800   1.008000   ; qtot 62.210836
 3152         c3    118    ccc     C3   3152 0.15592700  12.010000   ; qtot 62.366763
 3153         c3    118    ccc     C4   3153 0.28383300  12.010000   ; qtot 62.650596
 3154         c3    118    ccc     C5   3154 0.32403300  12.010000   ; qtot 62.974629
 3155         h1    118    ccc     H3   3155 0.13386900   1.008000   ; qtot 63.108498
 3156         h1    118    ccc     H4   3156 0.10146700   1.008000   ; qtot 63.209965
 3157         h2    118    ccc     H5   3157 0.10960400   1.008000   ; qtot 63.319569
 3158         os    118    ccc     O1   3158 -0.28650000  16.000000   ; qtot 63.033069
 3159         oh    118    ccc     O2   3159 -0.86012500  16.000000   ; qtot 62.172944
 3160         oh    118    ccc     O3   3160 -0.83772800  16.000000   ; qtot 61.335216
 3161         oh    118    ccc     O4   3161 -0.77449700  16.000000   ; qtot 60.560719
 3162         c3    118    ccc     C6   3162 0.37576500  12.010000   ; qtot 60.936484
 3163         ho    118    ccc     H6   3163 0.53656000   1.008000   ; qtot 61.473044
 3164         ho    118    ccc     H7   3164 0.49492100   1.008000   ; qtot 61.967965
 3165         ho    118    ccc     H8   3165 0.51297200   1.008000   ; qtot 62.480937
 3166         h1    118    ccc     H9   3166 0.05653400   1.008000   ; qtot 62.537471
 3167         h1    118    ccc    H10   3167 0.05653400   1.008000   ; qtot 62.594005
 3168         oh    118    ccc     O5   3168 -0.84113600  16.000000   ; qtot 61.752869
 3169         ho    118    ccc    H11   3169 0.51201600   1.008000   ; qtot 62.264885
 3170         os    118    ccc     O6   3170 -0.26013600  16.000000   ; qtot 62.004749
; residue  119 ccc rtp ccc q 0.0
 3171         c3    119    ccc     C1   3171 -0.33178800  12.010000   ; qtot 61.672961
 3172         c3    119    ccc     C2   3172 0.30606500  12.010000   ; qtot 61.979026
 3173         h1    119    ccc     H1   3173 0.11662300   1.008000   ; qtot 62.095649
 3174         h1    119    ccc     H2   3174 0.11526800   1.008000   ; qtot 62.210917
 3175         c3    119    ccc     C3   3175 0.15592700  12.010000   ; qtot 62.366844
 3176         c3    119    ccc     C4   3176 0.28383300  12.010000   ; qtot 62.650677
 3177         c3    119    ccc     C5   3177 0.32403300  12.010000   ; qtot 62.974710
 3178         h1    119    ccc     H3   3178 0.13386900   1.008000   ; qtot 63.108579
 3179         h1    119    ccc     H4   3179 0.10146700   1.008000   ; qtot 63.210046
 3180         h2    119    ccc     H5   3180 0.10960400   1.008000   ; qtot 63.319650
 3181         os    119    ccc     O1   3181 -0.28650000  16.000000   ; qtot 63.033150
 3182         oh    119    ccc     O2   3182 -0.86012500  16.000000   ; qtot 62.173025
 3183         oh    119    ccc     O3   3183 -0.83772800  16.000000   ; qtot 61.335297
 3184         oh    119    ccc     O4   3184 -0.77449700  16.000000   ; qtot 60.560800
 3185         c3    119    ccc     C6   3185 0.37576500  12.010000   ; qtot 60.936565
 3186         ho    119    ccc     H6   3186 0.53656000   1.008000   ; qtot 61.473125
 3187         ho    119    ccc     H7   3187 0.49492100   1.008000   ; qtot 61.968046
 3188         ho    119    ccc     H8   3188 0.51297200   1.008000   ; qtot 62.481018
 3189         h1    119    ccc     H9   3189 0.05653400   1.008000   ; qtot 62.537552
 3190         h1    119    ccc    H10   3190 0.05653400   1.008000   ; qtot 62.594086
 3191         oh    119    ccc     O5   3191 -0.84113600  16.000000   ; qtot 61.752950
 3192         ho    119    ccc    H11   3192 0.51201600   1.008000   ; qtot 62.264966
 3193         os    119    ccc     O6   3193 -0.26013600  16.000000   ; qtot 62.004830
; residue  120 ccc rtp ccc q 0.0
 3194         c3    120    ccc     C1   3194 -0.33178800  12.010000   ; qtot 61.673042
 3195         c3    120    ccc     C2   3195 0.30606500  12.010000   ; qtot 61.979107
 3196         h1    120    ccc     H1   3196 0.11662300   1.008000   ; qtot 62.095730
 3197         h1    120    ccc     H2   3197 0.11526800   1.008000   ; qtot 62.210998
 3198         c3    120    ccc     C3   3198 0.15592700  12.010000   ; qtot 62.366925
 3199         c3    120    ccc     C4   3199 0.28383300  12.010000   ; qtot 62.650758
 3200         c3    120    ccc     C5   3200 0.32403300  12.010000   ; qtot 62.974791
 3201         h1    120    ccc     H3   3201 0.13386900   1.008000   ; qtot 63.108660
 3202         h1    120    ccc     H4   3202 0.10146700   1.008000   ; qtot 63.210127
 3203         h2    120    ccc     H5   3203 0.10960400   1.008000   ; qtot 63.319731
 3204         os    120    ccc     O1   3204 -0.28650000  16.000000   ; qtot 63.033231
 3205         oh    120    ccc     O2   3205 -0.86012500  16.000000   ; qtot 62.173106
 3206         oh    120    ccc     O3   3206 -0.83772800  16.000000   ; qtot 61.335378
 3207         oh    120    ccc     O4   3207 -0.77449700  16.000000   ; qtot 60.560881
 3208         c3    120    ccc     C6   3208 0.37576500  12.010000   ; qtot 60.936646
 3209         ho    120    ccc     H6   3209 0.53656000   1.008000   ; qtot 61.473206
 3210         ho    120    ccc     H7   3210 0.49492100   1.008000   ; qtot 61.968127
 3211         ho    120    ccc     H8   3211 0.51297200   1.008000   ; qtot 62.481099
 3212         h1    120    ccc     H9   3212 0.05653400   1.008000   ; qtot 62.537633
 3213         h1    120    ccc    H10   3213 0.05653400   1.008000   ; qtot 62.594167
 3214         oh    120    ccc     O5   3214 -0.84113600  16.000000   ; qtot 61.753031
 3215         ho    120    ccc    H11   3215 0.51201600   1.008000   ; qtot 62.265047
 3216         os    120    ccc     O6   3216 -0.26013600  16.000000   ; qtot 62.004911
; residue  121 ccc rtp ccc q 0.0
 3217         c3    121    ccc     C1   3217 -0.33178800  12.010000   ; qtot 61.673123
 3218         c3    121    ccc     C2   3218 0.30606500  12.010000   ; qtot 61.979188
 3219         h1    121    ccc     H1   3219 0.11662300   1.008000   ; qtot 62.095811
 3220         h1    121    ccc     H2   3220 0.11526800   1.008000   ; qtot 62.211079
 3221         c3    121    ccc     C3   3221 0.15592700  12.010000   ; qtot 62.367006
 3222         c3    121    ccc     C4   3222 0.28383300  12.010000   ; qtot 62.650839
 3223         c3    121    ccc     C5   3223 0.32403300  12.010000   ; qtot 62.974872
 3224         h1    121    ccc     H3   3224 0.13386900   1.008000   ; qtot 63.108741
 3225         h1    121    ccc     H4   3225 0.10146700   1.008000   ; qtot 63.210208
 3226         h2    121    ccc     H5   3226 0.10960400   1.008000   ; qtot 63.319812
 3227         os    121    ccc     O1   3227 -0.28650000  16.000000   ; qtot 63.033312
 3228         oh    121    ccc     O2   3228 -0.86012500  16.000000   ; qtot 62.173187
 3229         oh    121    ccc     O3   3229 -0.83772800  16.000000   ; qtot 61.335459
 3230         oh    121    ccc     O4   3230 -0.77449700  16.000000   ; qtot 60.560962
 3231         c3    121    ccc     C6   3231 0.37576500  12.010000   ; qtot 60.936727
 3232         ho    121    ccc     H6   3232 0.53656000   1.008000   ; qtot 61.473287
 3233         ho    121    ccc     H7   3233 0.49492100   1.008000   ; qtot 61.968208
 3234         ho    121    ccc     H8   3234 0.51297200   1.008000   ; qtot 62.481180
 3235         h1    121    ccc     H9   3235 0.05653400   1.008000   ; qtot 62.537714
 3236         h1    121    ccc    H10   3236 0.05653400   1.008000   ; qtot 62.594248
 3237         oh    121    ccc     O5   3237 -0.84113600  16.000000   ; qtot 61.753112
 3238         ho    121    ccc    H11   3238 0.51201600   1.008000   ; qtot 62.265128
 3239         os    121    ccc     O6   3239 -0.26013600  16.000000   ; qtot 62.004992
; residue  122 ccc rtp ccc q 0.0
 3240         c3    122    ccc     C1   3240 -0.33178800  12.010000   ; qtot 61.673204
 3241         c3    122    ccc     C2   3241 0.30606500  12.010000   ; qtot 61.979269
 3242         h1    122    ccc     H1   3242 0.11662300   1.008000   ; qtot 62.095892
 3243         h1    122    ccc     H2   3243 0.11526800   1.008000   ; qtot 62.211160
 3244         c3    122    ccc     C3   3244 0.15592700  12.010000   ; qtot 62.367087
 3245         c3    122    ccc     C4   3245 0.28383300  12.010000   ; qtot 62.650920
 3246         c3    122    ccc     C5   3246 0.32403300  12.010000   ; qtot 62.974953
 3247         h1    122    ccc     H3   3247 0.13386900   1.008000   ; qtot 63.108822
 3248         h1    122    ccc     H4   3248 0.10146700   1.008000   ; qtot 63.210289
 3249         h2    122    ccc     H5   3249 0.10960400   1.008000   ; qtot 63.319893
 3250         os    122    ccc     O1   3250 -0.28650000  16.000000   ; qtot 63.033393
 3251         oh    122    ccc     O2   3251 -0.86012500  16.000000   ; qtot 62.173268
 3252         oh    122    ccc     O3   3252 -0.83772800  16.000000   ; qtot 61.335540
 3253         oh    122    ccc     O4   3253 -0.77449700  16.000000   ; qtot 60.561043
 3254         c3    122    ccc     C6   3254 0.37576500  12.010000   ; qtot 60.936808
 3255         ho    122    ccc     H6   3255 0.53656000   1.008000   ; qtot 61.473368
 3256         ho    122    ccc     H7   3256 0.49492100   1.008000   ; qtot 61.968289
 3257         ho    122    ccc     H8   3257 0.51297200   1.008000   ; qtot 62.481261
 3258         h1    122    ccc     H9   3258 0.05653400   1.008000   ; qtot 62.537795
 3259         h1    122    ccc    H10   3259 0.05653400   1.008000   ; qtot 62.594329
 3260         oh    122    ccc     O5   3260 -0.84113600  16.000000   ; qtot 61.753193
 3261         ho    122    ccc    H11   3261 0.51201600   1.008000   ; qtot 62.265209
 3262         os    122    ccc     O6   3262 -0.26013600  16.000000   ; qtot 62.005073
; residue  123 ccc rtp ccc q 0.0
 3263         c3    123    ccc     C1   3263 -0.33178800  12.010000   ; qtot 61.673285
 3264         c3    123    ccc     C2   3264 0.30606500  12.010000   ; qtot 61.979350
 3265         h1    123    ccc     H1   3265 0.11662300   1.008000   ; qtot 62.095973
 3266         h1    123    ccc     H2   3266 0.11526800   1.008000   ; qtot 62.211241
 3267         c3    123    ccc     C3   3267 0.15592700  12.010000   ; qtot 62.367168
 3268         c3    123    ccc     C4   3268 0.28383300  12.010000   ; qtot 62.651001
 3269         c3    123    ccc     C5   3269 0.32403300  12.010000   ; qtot 62.975034
 3270         h1    123    ccc     H3   3270 0.13386900   1.008000   ; qtot 63.108903
 3271         h1    123    ccc     H4   3271 0.10146700   1.008000   ; qtot 63.210370
 3272         h2    123    ccc     H5   3272 0.10960400   1.008000   ; qtot 63.319974
 3273         os    123    ccc     O1   3273 -0.28650000  16.000000   ; qtot 63.033474
 3274         oh    123    ccc     O2   3274 -0.86012500  16.000000   ; qtot 62.173349
 3275         oh    123    ccc     O3   3275 -0.83772800  16.000000   ; qtot 61.335621
 3276         oh    123    ccc     O4   3276 -0.77449700  16.000000   ; qtot 60.561124
 3277         c3    123    ccc     C6   3277 0.37576500  12.010000   ; qtot 60.936889
 3278         ho    123    ccc     H6   3278 0.53656000   1.008000   ; qtot 61.473449
 3279         ho    123    ccc     H7   3279 0.49492100   1.008000   ; qtot 61.968370
 3280         ho    123    ccc     H8   3280 0.51297200   1.008000   ; qtot 62.481342
 3281         h1    123    ccc     H9   3281 0.05653400   1.008000   ; qtot 62.537876
 3282         h1    123    ccc    H10   3282 0.05653400   1.008000   ; qtot 62.594410
 3283         oh    123    ccc     O5   3283 -0.84113600  16.000000   ; qtot 61.753274
 3284         ho    123    ccc    H11   3284 0.51201600   1.008000   ; qtot 62.265290
 3285         os    123    ccc     O6   3285 -0.26013600  16.000000   ; qtot 62.005154
; residue  124 ccc rtp ccc q 0.0
 3286         c3    124    ccc     C1   3286 -0.33178800  12.010000   ; qtot 61.673366
 3287         c3    124    ccc     C2   3287 0.30606500  12.010000   ; qtot 61.979431
 3288         h1    124    ccc     H1   3288 0.11662300   1.008000   ; qtot 62.096054
 3289         h1    124    ccc     H2   3289 0.11526800   1.008000   ; qtot 62.211322
 3290         c3    124    ccc     C3   3290 0.15592700  12.010000   ; qtot 62.367249
 3291         c3    124    ccc     C4   3291 0.28383300  12.010000   ; qtot 62.651082
 3292         c3    124    ccc     C5   3292 0.32403300  12.010000   ; qtot 62.975115
 3293         h1    124    ccc     H3   3293 0.13386900   1.008000   ; qtot 63.108984
 3294         h1    124    ccc     H4   3294 0.10146700   1.008000   ; qtot 63.210451
 3295         h2    124    ccc     H5   3295 0.10960400   1.008000   ; qtot 63.320055
 3296         os    124    ccc     O1   3296 -0.28650000  16.000000   ; qtot 63.033555
 3297         oh    124    ccc     O2   3297 -0.86012500  16.000000   ; qtot 62.173430
 3298         oh    124    ccc     O3   3298 -0.83772800  16.000000   ; qtot 61.335702
 3299         oh    124    ccc     O4   3299 -0.77449700  16.000000   ; qtot 60.561205
 3300         c3    124    ccc     C6   3300 0.37576500  12.010000   ; qtot 60.936970
 3301         ho    124    ccc     H6   3301 0.53656000   1.008000   ; qtot 61.473530
 3302         ho    124    ccc     H7   3302 0.49492100   1.008000   ; qtot 61.968451
 3303         ho    124    ccc     H8   3303 0.51297200   1.008000   ; qtot 62.481423
 3304         h1    124    ccc     H9   3304 0.05653400   1.008000   ; qtot 62.537957
 3305         h1    124    ccc    H10   3305 0.05653400   1.008000   ; qtot 62.594491
 3306         oh    124    ccc     O5   3306 -0.84113600  16.000000   ; qtot 61.753355
 3307         ho    124    ccc    H11   3307 0.51201600   1.008000   ; qtot 62.265371
 3308         os    124    ccc     O6   3308 -0.26013600  16.000000   ; qtot 62.005235
; residue  125 ccc rtp ccc q 0.0
 3309         c3    125    ccc     C1   3309 -0.33178800  12.010000   ; qtot 61.673447
 3310         c3    125    ccc     C2   3310 0.30606500  12.010000   ; qtot 61.979512
 3311         h1    125    ccc     H1   3311 0.11662300   1.008000   ; qtot 62.096135
 3312         h1    125    ccc     H2   3312 0.11526800   1.008000   ; qtot 62.211403
 3313         c3    125    ccc     C3   3313 0.15592700  12.010000   ; qtot 62.367330
 3314         c3    125    ccc     C4   3314 0.28383300  12.010000   ; qtot 62.651163
 3315         c3    125    ccc     C5   3315 0.32403300  12.010000   ; qtot 62.975196
 3316         h1    125    ccc     H3   3316 0.13386900   1.008000   ; qtot 63.109065
 3317         h1    125    ccc     H4   3317 0.10146700   1.008000   ; qtot 63.210532
 3318         h2    125    ccc     H5   3318 0.10960400   1.008000   ; qtot 63.320136
 3319         os    125    ccc     O1   3319 -0.28650000  16.000000   ; qtot 63.033636
 3320         oh    125    ccc     O2   3320 -0.86012500  16.000000   ; qtot 62.173511
 3321         oh    125    ccc     O3   3321 -0.83772800  16.000000   ; qtot 61.335783
 3322         oh    125    ccc     O4   3322 -0.77449700  16.000000   ; qtot 60.561286
 3323         c3    125    ccc     C6   3323 0.37576500  12.010000   ; qtot 60.937051
 3324         ho    125    ccc     H6   3324 0.53656000   1.008000   ; qtot 61.473611
 3325         ho    125    ccc     H7   3325 0.49492100   1.008000   ; qtot 61.968532
 3326         ho    125    ccc     H8   3326 0.51297200   1.008000   ; qtot 62.481504
 3327         h1    125    ccc     H9   3327 0.05653400   1.008000   ; qtot 62.538038
 3328         h1    125    ccc    H10   3328 0.05653400   1.008000   ; qtot 62.594572
 3329         oh    125    ccc     O5   3329 -0.84113600  16.000000   ; qtot 61.753436
 3330         ho    125    ccc    H11   3330 0.51201600   1.008000   ; qtot 62.265452
 3331         os    125    ccc     O6   3331 -0.26013600  16.000000   ; qtot 62.005316

[ bonds ]
;    ai     aj funct         c0         c1         c2         c3
      1      2     1   0.14316 258236.480000
      1      5     1   0.14316 258236.480000
      2      8     1   0.15375 251793.120000
      5     11     1   0.15375 251793.120000
      8     14     1   0.15375 251793.120000
     11     17     1   0.15375 251793.120000
     14     20     1   0.15110 237065.440000
     17     21     1   0.15110 237065.440000
     20     28     1   0.15110 237065.440000
     20     31     1   0.15110 237065.440000
     21     22     1   0.15110 237065.440000
     21     25     1   0.15110 237065.440000
     22     34     1   0.15375 251793.120000
     25     37     1   0.15375 251793.120000
     28     40     1   0.15375 251793.120000
     31     43     1   0.15375 251793.120000
     34     55     1   0.15375 251793.120000
     37     52     1   0.15375 251793.120000
     40     49     1   0.15375 251793.120000
     43     46     1   0.15375 251793.120000
     46     88     1   0.14316 258236.480000
     49    118     1   0.14316 258236.480000
     52    148     1   0.14316 258236.480000
     55    178     1   0.14316 258236.480000
     60     61     1   0.15110 237065.440000
     60     64     1   0.15110 237065.440000
     60     67     1   0.15110 237065.440000
     61     73     1   0.15375 251793.120000
     64     76     1   0.15375 251793.120000
     67     70     1   0.15375 251793.120000
     70     79     1   0.15375 251793.120000
     73     85     1   0.15375 251793.120000
     76     82     1   0.15375 251793.120000
     79     88     1   0.14316 258236.480000
     82    208     1   0.14316 258236.480000
     85    238     1   0.14316 258236.480000
     90     91     1   0.15110 237065.440000
     90     94     1   0.15110 237065.440000
     90     97     1   0.15110 237065.440000
     91    103     1   0.15375 251793.120000
     94    106     1   0.15375 251793.120000
     97    100     1   0.15375 251793.120000
    100    109     1   0.15375 251793.120000
    103    115     1   0.15375 251793.120000
    106    112     1   0.15375 251793.120000
    109    118     1   0.14316 258236.480000
    112    268     1   0.14316 258236.480000
    115    298     1   0.14316 258236.480000
    120    121     1   0.15110 237065.440000
    120    124     1   0.15110 237065.440000
    120    127     1   0.15110 237065.440000
    121    133     1   0.15375 251793.120000
    124    136     1   0.15375 251793.120000
    127    130     1   0.15375 251793.120000
    130    139     1   0.15375 251793.120000
    133    145     1   0.15375 251793.120000
    136    142     1   0.15375 251793.120000
    139    148     1   0.14316 258236.480000
    142    328     1   0.14316 258236.480000
    145    358     1   0.14316 258236.480000
    150    151     1   0.15110 237065.440000
    150    154     1   0.15110 237065.440000
    150    157     1   0.15110 237065.440000
    151    163     1   0.15375 251793.120000
    154    166     1   0.15375 251793.120000
    157    160     1   0.15375 251793.120000
    160    169     1   0.15375 251793.120000
    163    175     1   0.15375 251793.120000
    166    172     1   0.15375 251793.120000
    169    178     1   0.14316 258236.480000
    172    388     1   0.14316 258236.480000
    175    418     1   0.14316 258236.480000
    180    181     1   0.15110 237065.440000
    180    184     1   0.15110 237065.440000
    180    187     1   0.15110 237065.440000
    181    193     1   0.15375 251793.120000
    184    196     1   0.15375 251793.120000
    187    190     1   0.15375 251793.120000
    190    199     1   0.15375 251793.120000
    193    205     1   0.15375 251793.120000
    196    202     1   0.15375 251793.120000
    199    208     1   0.14316 258236.480000
    202    448     1   0.14316 258236.480000
    205    478     1   0.14316 258236.480000
    210    211     1   0.15110 237065.440000
    210    214     1   0.15110 237065.440000
    210    217     1   0.15110 237065.440000
    211    223     1   0.15375 251793.120000
    214    226     1   0.15375 251793.120000
    217    220     1   0.15375 251793.120000
    220    229     1   0.15375 251793.120000
    223    235     1   0.15375 251793.120000
    226    232     1   0.15375 251793.120000
    229    238     1   0.14316 258236.480000
    232    508     1   0.14316 258236.480000
    235    538     1   0.14316 258236.480000
    240    241     1   0.15110 237065.440000
    240    244     1   0.15110 237065.440000
    240    247     1   0.15110 237065.440000
    241    253     1   0.15375 251793.120000
    244    256     1   0.15375 251793.120000
    247    250     1   0.15375 251793.120000
    250    259     1   0.15375 251793.120000
    253    265     1   0.15375 251793.120000
    256    262     1   0.15375 251793.120000
    259    268     1   0.14316 258236.480000
    262    568     1   0.14316 258236.480000
    265    598     1   0.14316 258236.480000
    270    271     1   0.15110 237065.440000
    270    274     1   0.15110 237065.440000
    270    277     1   0.15110 237065.440000
    271    283     1   0.15375 251793.120000
    274    286     1   0.15375 251793.120000
    277    280     1   0.15375 251793.120000
    280    289     1   0.15375 251793.120000
    283    295     1   0.15375 251793.120000
    286    292     1   0.15375 251793.120000
    289    298     1   0.14316 258236.480000
    292    628     1   0.14316 258236.480000
    295    658     1   0.14316 258236.480000
    300    301     1   0.15110 237065.440000
    300    304     1   0.15110 237065.440000
    300    307     1   0.15110 237065.440000
    301    313     1   0.15375 251793.120000
    304    316     1   0.15375 251793.120000
    307    310     1   0.15375 251793.120000
    310    319     1   0.15375 251793.120000
    313    325     1   0.15375 251793.120000
    316    322     1   0.15375 251793.120000
    319    328     1   0.14316 258236.480000
    322    688     1   0.14316 258236.480000
    325    718     1   0.14316 258236.480000
    330    331     1   0.15110 237065.440000
    330    334     1   0.15110 237065.440000
    330    337     1   0.15110 237065.440000
    331    343     1   0.15375 251793.120000
    334    346     1   0.15375 251793.120000
    337    340     1   0.15375 251793.120000
    340    349     1   0.15375 251793.120000
    343    355     1   0.15375 251793.120000
    346    352     1   0.15375 251793.120000
    349    358     1   0.14316 258236.480000
    352    748     1   0.14316 258236.480000
    355    778     1   0.14316 258236.480000
    360    361     1   0.15110 237065.440000
    360    364     1   0.15110 237065.440000
    360    367     1   0.15110 237065.440000
    361    373     1   0.15375 251793.120000
    364    376     1   0.15375 251793.120000
    367    370     1   0.15375 251793.120000
    370    379     1   0.15375 251793.120000
    373    385     1   0.15375 251793.120000
    376    382     1   0.15375 251793.120000
    379    388     1   0.14316 258236.480000
    382    808     1   0.14316 258236.480000
    385    838     1   0.14316 258236.480000
    390    391     1   0.15110 237065.440000
    390    394     1   0.15110 237065.440000
    390    397     1   0.15110 237065.440000
    391    403     1   0.15375 251793.120000
    394    406     1   0.15375 251793.120000
    397    400     1   0.15375 251793.120000
    400    409     1   0.15375 251793.120000
    403    415     1   0.15375 251793.120000
    406    412     1   0.15375 251793.120000
    409    418     1   0.14316 258236.480000
    412    868     1   0.14316 258236.480000
    415    898     1   0.14316 258236.480000
    420    421     1   0.15110 237065.440000
    420    424     1   0.15110 237065.440000
    420    427     1   0.15110 237065.440000
    421    433     1   0.15375 251793.120000
    424    436     1   0.15375 251793.120000
    427    430     1   0.15375 251793.120000
    430    439     1   0.15375 251793.120000
    433    445     1   0.15375 251793.120000
    436    442     1   0.15375 251793.120000
    439    448     1   0.14316 258236.480000
    442    928     1   0.14316 258236.480000
    445    958     1   0.14316 258236.480000
    450    451     1   0.15110 237065.440000
    450    454     1   0.15110 237065.440000
    450    457     1   0.15110 237065.440000
    451    463     1   0.15375 251793.120000
    454    466     1   0.15375 251793.120000
    457    460     1   0.15375 251793.120000
    460    469     1   0.15375 251793.120000
    463    475     1   0.15375 251793.120000
    466    472     1   0.15375 251793.120000
    469    478     1   0.14316 258236.480000
    472    988     1   0.14316 258236.480000
    475   1018     1   0.14316 258236.480000
    480    481     1   0.15110 237065.440000
    480    484     1   0.15110 237065.440000
    480    487     1   0.15110 237065.440000
    481    493     1   0.15375 251793.120000
    484    496     1   0.15375 251793.120000
    487    490     1   0.15375 251793.120000
    490    499     1   0.15375 251793.120000
    493    505     1   0.15375 251793.120000
    496    502     1   0.15375 251793.120000
    499    508     1   0.14316 258236.480000
    502   1048     1   0.14316 258236.480000
    505   1078     1   0.14316 258236.480000
    510    511     1   0.15110 237065.440000
    510    514     1   0.15110 237065.440000
    510    517     1   0.15110 237065.440000
    511    523     1   0.15375 251793.120000
    514    526     1   0.15375 251793.120000
    517    520     1   0.15375 251793.120000
    520    529     1   0.15375 251793.120000
    523    535     1   0.15375 251793.120000
    526    532     1   0.15375 251793.120000
    529    538     1   0.14316 258236.480000
    532   1108     1   0.14316 258236.480000
    535   1138     1   0.14316 258236.480000
    540    541     1   0.15110 237065.440000
    540    544     1   0.15110 237065.440000
    540    547     1   0.15110 237065.440000
    541    553     1   0.15375 251793.120000
    544    556     1   0.15375 251793.120000
    547    550     1   0.15375 251793.120000
    550    559     1   0.15375 251793.120000
    553    565     1   0.15375 251793.120000
    556    562     1   0.15375 251793.120000
    559    568     1   0.14316 258236.480000
    562   1168     1   0.14316 258236.480000
    565   1198     1   0.14316 258236.480000
    570    571     1   0.15110 237065.440000
    570    574     1   0.15110 237065.440000
    570    577     1   0.15110 237065.440000
    571    583     1   0.15375 251793.120000
    574    586     1   0.15375 251793.120000
    577    580     1   0.15375 251793.120000
    580    589     1   0.15375 251793.120000
    583    595     1   0.15375 251793.120000
    586    592     1   0.15375 251793.120000
    589    598     1   0.14316 258236.480000
    592   1228     1   0.14316 258236.480000
    595   1258     1   0.14316 258236.480000
    600    601     1   0.15110 237065.440000
    600    604     1   0.15110 237065.440000
    600    607     1   0.15110 237065.440000
    601    613     1   0.15375 251793.120000
    604    616     1   0.15375 251793.120000
    607    610     1   0.15375 251793.120000
    610    619     1   0.15375 251793.120000
    613    625     1   0.15375 251793.120000
    616    622     1   0.15375 251793.120000
    619    628     1   0.14316 258236.480000
    622   1288     1   0.14316 258236.480000
    625   1318     1   0.14316 258236.480000
    630    631     1   0.15110 237065.440000
    630    634     1   0.15110 237065.440000
    630    637     1   0.15110 237065.440000
    631    643     1   0.15375 251793.120000
    634    646     1   0.15375 251793.120000
    637    640     1   0.15375 251793.120000
    640    649     1   0.15375 251793.120000
    643    655     1   0.15375 251793.120000
    646    652     1   0.15375 251793.120000
    649    658     1   0.14316 258236.480000
    652   1348     1   0.14316 258236.480000
    655   1378     1   0.14316 258236.480000
    660    661     1   0.15110 237065.440000
    660    664     1   0.15110 237065.440000
    660    667     1   0.15110 237065.440000
    661    673     1   0.15375 251793.120000
    664    676     1   0.15375 251793.120000
    667    670     1   0.15375 251793.120000
    670    679     1   0.15375 251793.120000
    673    685     1   0.15375 251793.120000
    676    682     1   0.15375 251793.120000
    679    688     1   0.14316 258236.480000
    682   1408     1   0.14316 258236.480000
    685   1438     1   0.14316 258236.480000
    690    691     1   0.15110 237065.440000
    690    694     1   0.15110 237065.440000
    690    697     1   0.15110 237065.440000
    691    703     1   0.15375 251793.120000
    694    706     1   0.15375 251793.120000
    697    700     1   0.15375 251793.120000
    700    709     1   0.15375 251793.120000
    703    715     1   0.15375 251793.120000
    706    712     1   0.15375 251793.120000
    709    718     1   0.14316 258236.480000
    712   1468     1   0.14316 258236.480000
    715   1498     1   0.14316 258236.480000
    720    721     1   0.15110 237065.440000
    720    724     1   0.15110 237065.440000
    720    727     1   0.15110 237065.440000
    721    733     1   0.15375 251793.120000
    724    736     1   0.15375 251793.120000
    727    730     1   0.15375 251793.120000
    730    739     1   0.15375 251793.120000
    733    745     1   0.15375 251793.120000
    736    742     1   0.15375 251793.120000
    739    748     1   0.14316 258236.480000
    742   1528     1   0.14316 258236.480000
    745   1558     1   0.14316 258236.480000
    750    751     1   0.15110 237065.440000
    750    754     1   0.15110 237065.440000
    750    757     1   0.15110 237065.440000
    751    763     1   0.15375 251793.120000
    754    766     1   0.15375 251793.120000
    757    760     1   0.15375 251793.120000
    760    769     1   0.15375 251793.120000
    763    775     1   0.15375 251793.120000
    766    772     1   0.15375 251793.120000
    769    778     1   0.14316 258236.480000
    772   1588     1   0.14316 258236.480000
    775   1618     1   0.14316 258236.480000
    780    781     1   0.15110 237065.440000
    780    784     1   0.15110 237065.440000
    780    787     1   0.15110 237065.440000
    781    793     1   0.15375 251793.120000
    784    796     1   0.15375 251793.120000
    787    790     1   0.15375 251793.120000
    790    799     1   0.15375 251793.120000
    793    805     1   0.15375 251793.120000
    796    802     1   0.15375 251793.120000
    799    808     1   0.14316 258236.480000
    802   1648     1   0.14316 258236.480000
    805   1678     1   0.14316 258236.480000
    810    811     1   0.15110 237065.440000
    810    814     1   0.15110 237065.440000
    810    817     1   0.15110 237065.440000
    811    823     1   0.15375 251793.120000
    814    826     1   0.15375 251793.120000
    817    820     1   0.15375 251793.120000
    820    829     1   0.15375 251793.120000
    823    835     1   0.15375 251793.120000
    826    832     1   0.15375 251793.120000
    829    838     1   0.14316 258236.480000
    832   1708     1   0.14316 258236.480000
    835   1738     1   0.14316 258236.480000
    840    841     1   0.15110 237065.440000
    840    844     1   0.15110 237065.440000
    840    847     1   0.15110 237065.440000
    841    853     1   0.15375 251793.120000
    844    856     1   0.15375 251793.120000
    847    850     1   0.15375 251793.120000
    850    859     1   0.15375 251793.120000
    853    865     1   0.15375 251793.120000
    856    862     1   0.15375 251793.120000
    859    868     1   0.14316 258236.480000
    862   1768     1   0.14316 258236.480000
    865   1798     1   0.14316 258236.480000
    870    871     1   0.15110 237065.440000
    870    874     1   0.15110 237065.440000
    870    877     1   0.15110 237065.440000
    871    883     1   0.15375 251793.120000
    874    886     1   0.15375 251793.120000
    877    880     1   0.15375 251793.120000
    880    889     1   0.15375 251793.120000
    883    895     1   0.15375 251793.120000
    886    892     1   0.15375 251793.120000
    889    898     1   0.14316 258236.480000
    892   1828     1   0.14316 258236.480000
    895   1858     1   0.14316 258236.480000
    900    901     1   0.15110 237065.440000
    900    904     1   0.15110 237065.440000
    900    907     1   0.15110 237065.440000
    901    913     1   0.15375 251793.120000
    904    916     1   0.15375 251793.120000
    907    910     1   0.15375 251793.120000
    910    919     1   0.15375 251793.120000
    913    925     1   0.15375 251793.120000
    916    922     1   0.15375 251793.120000
    919    928     1   0.14316 258236.480000
    922   1870     1   0.14316 258236.480000
    925   1893     1   0.14316 258236.480000
    930    931     1   0.15110 237065.440000
    930    934     1   0.15110 237065.440000
    930    937     1   0.15110 237065.440000
    931    943     1   0.15375 251793.120000
    934    946     1   0.15375 251793.120000
    937    940     1   0.15375 251793.120000
    940    949     1   0.15375 251793.120000
    943    955     1   0.15375 251793.120000
    946    952     1   0.15375 251793.120000
    949    958     1   0.14316 258236.480000
    952   1916     1   0.14316 258236.480000
    955   1939     1   0.14316 258236.480000
    960    961     1   0.15110 237065.440000
    960    964     1   0.15110 237065.440000
    960    967     1   0.15110 237065.440000
    961    973     1   0.15375 251793.120000
    964    976     1   0.15375 251793.120000
    967    970     1   0.15375 251793.120000
    970    979     1   0.15375 251793.120000
    973    985     1   0.15375 251793.120000
    976    982     1   0.15375 251793.120000
    979    988     1   0.14316 258236.480000
    982   1962     1   0.14316 258236.480000
    985   1985     1   0.14316 258236.480000
    990    991     1   0.15110 237065.440000
    990    994     1   0.15110 237065.440000
    990    997     1   0.15110 237065.440000
    991   1003     1   0.15375 251793.120000
    994   1006     1   0.15375 251793.120000
    997   1000     1   0.15375 251793.120000
   1000   1009     1   0.15375 251793.120000
   1003   1015     1   0.15375 251793.120000
   1006   1012     1   0.15375 251793.120000
   1009   1018     1   0.14316 258236.480000
   1012   2008     1   0.14316 258236.480000
   1015   2031     1   0.14316 258236.480000
   1020   1021     1   0.15110 237065.440000
   1020   1024     1   0.15110 237065.440000
   1020   1027     1   0.15110 237065.440000
   1021   1033     1   0.15375 251793.120000
   1024   1036     1   0.15375 251793.120000
   1027   1030     1   0.15375 251793.120000
   1030   1039     1   0.15375 251793.120000
   1033   1045     1   0.15375 251793.120000
   1036   1042     1   0.15375 251793.120000
   1039   1048     1   0.14316 258236.480000
   1042   2054     1   0.14316 258236.480000
   1045   2077     1   0.14316 258236.480000
   1050   1051     1   0.15110 237065.440000
   1050   1054     1   0.15110 237065.440000
   1050   1057     1   0.15110 237065.440000
   1051   1063     1   0.15375 251793.120000
   1054   1066     1   0.15375 251793.120000
   1057   1060     1   0.15375 251793.120000
   1060   1069     1   0.15375 251793.120000
   1063   1075     1   0.15375 251793.120000
   1066   1072     1   0.15375 251793.120000
   1069   1078     1   0.14316 258236.480000
   1072   2100     1   0.14316 258236.480000
   1075   2123     1   0.14316 258236.480000
   1080   1081     1   0.15110 237065.440000
   1080   1084     1   0.15110 237065.440000
   1080   1087     1   0.15110 237065.440000
   1081   1093     1   0.15375 251793.120000
   1084   1096     1   0.15375 251793.120000
   1087   1090     1   0.15375 251793.120000
   1090   1099     1   0.15375 251793.120000
   1093   1105     1   0.15375 251793.120000
   1096   1102     1   0.15375 251793.120000
   1099   1108     1   0.14316 258236.480000
   1102   2146     1   0.14316 258236.480000
   1105   2169     1   0.14316 258236.480000
   1110   1111     1   0.15110 237065.440000
   1110   1114     1   0.15110 237065.440000
   1110   1117     1   0.15110 237065.440000
   1111   1123     1   0.15375 251793.120000
   1114   1126     1   0.15375 251793.120000
   1117   1120     1   0.15375 251793.120000
   1120   1129     1   0.15375 251793.120000
   1123   1135     1   0.15375 251793.120000
   1126   1132     1   0.15375 251793.120000
   1129   1138     1   0.14316 258236.480000
   1132   2192     1   0.14316 258236.480000
   1135   2215     1   0.14316 258236.480000
   1140   1141     1   0.15110 237065.440000
   1140   1144     1   0.15110 237065.440000
   1140   1147     1   0.15110 237065.440000
   1141   1153     1   0.15375 251793.120000
   1144   1156     1   0.15375 251793.120000
   1147   1150     1   0.15375 251793.120000
   1150   1159     1   0.15375 251793.120000
   1153   1165     1   0.15375 251793.120000
   1156   1162     1   0.15375 251793.120000
   1159   1168     1   0.14316 258236.480000
   1162   2238     1   0.14316 258236.480000
   1165   2261     1   0.14316 258236.480000
   1170   1171     1   0.15110 237065.440000
   1170   1174     1   0.15110 237065.440000
   1170   1177     1   0.15110 237065.440000
   1171   1183     1   0.15375 251793.120000
   1174   1186     1   0.15375 251793.120000
   1177   1180     1   0.15375 251793.120000
   1180   1189     1   0.15375 251793.120000
   1183   1195     1   0.15375 251793.120000
   1186   1192     1   0.15375 251793.120000
   1189   1198     1   0.14316 258236.480000
   1192   2284     1   0.14316 258236.480000
   1195   2307     1   0.14316 258236.480000
   1200   1201     1   0.15110 237065.440000
   1200   1204     1   0.15110 237065.440000
   1200   1207     1   0.15110 237065.440000
   1201   1213     1   0.15375 251793.120000
   1204   1216     1   0.15375 251793.120000
   1207   1210     1   0.15375 251793.120000
   1210   1219     1   0.15375 251793.120000
   1213   1225     1   0.15375 251793.120000
   1216   1222     1   0.15375 251793.120000
   1219   1228     1   0.14316 258236.480000
   1222   2330     1   0.14316 258236.480000
   1225   2353     1   0.14316 258236.480000
   1230   1231     1   0.15110 237065.440000
   1230   1234     1   0.15110 237065.440000
   1230   1237     1   0.15110 237065.440000
   1231   1243     1   0.15375 251793.120000
   1234   1246     1   0.15375 251793.120000
   1237   1240     1   0.15375 251793.120000
   1240   1249     1   0.15375 251793.120000
   1243   1255     1   0.15375 251793.120000
   1246   1252     1   0.15375 251793.120000
   1249   1258     1   0.14316 258236.480000
   1252   2376     1   0.14316 258236.480000
   1255   2399     1   0.14316 258236.480000
   1260   1261     1   0.15110 237065.440000
   1260   1264     1   0.15110 237065.440000
   1260   1267     1   0.15110 237065.440000
   1261   1273     1   0.15375 251793.120000
   1264   1276     1   0.15375 251793.120000
   1267   1270     1   0.15375 251793.120000
   1270   1279     1   0.15375 251793.120000
   1273   1285     1   0.15375 251793.120000
   1276   1282     1   0.15375 251793.120000
   1279   1288     1   0.14316 258236.480000
   1282   2422     1   0.14316 258236.480000
   1285   2445     1   0.14316 258236.480000
   1290   1291     1   0.15110 237065.440000
   1290   1294     1   0.15110 237065.440000
   1290   1297     1   0.15110 237065.440000
   1291   1303     1   0.15375 251793.120000
   1294   1306     1   0.15375 251793.120000
   1297   1300     1   0.15375 251793.120000
   1300   1309     1   0.15375 251793.120000
   1303   1315     1   0.15375 251793.120000
   1306   1312     1   0.15375 251793.120000
   1309   1318     1   0.14316 258236.480000
   1312   2468     1   0.14316 258236.480000
   1315   2491     1   0.14316 258236.480000
   1320   1321     1   0.15110 237065.440000
   1320   1324     1   0.15110 237065.440000
   1320   1327     1   0.15110 237065.440000
   1321   1333     1   0.15375 251793.120000
   1324   1336     1   0.15375 251793.120000
   1327   1330     1   0.15375 251793.120000
   1330   1339     1   0.15375 251793.120000
   1333   1345     1   0.15375 251793.120000
   1336   1342     1   0.15375 251793.120000
   1339   1348     1   0.14316 258236.480000
   1342   2514     1   0.14316 258236.480000
   1345   2537     1   0.14316 258236.480000
   1350   1351     1   0.15110 237065.440000
   1350   1354     1   0.15110 237065.440000
   1350   1357     1   0.15110 237065.440000
   1351   1363     1   0.15375 251793.120000
   1354   1366     1   0.15375 251793.120000
   1357   1360     1   0.15375 251793.120000
   1360   1369     1   0.15375 251793.120000
   1363   1375     1   0.15375 251793.120000
   1366   1372     1   0.15375 251793.120000
   1369   1378     1   0.14316 258236.480000
   1372   2560     1   0.14316 258236.480000
   1375   2583     1   0.14316 258236.480000
   1380   1381     1   0.15110 237065.440000
   1380   1384     1   0.15110 237065.440000
   1380   1387     1   0.15110 237065.440000
   1381   1393     1   0.15375 251793.120000
   1384   1396     1   0.15375 251793.120000
   1387   1390     1   0.15375 251793.120000
   1390   1399     1   0.15375 251793.120000
   1393   1405     1   0.15375 251793.120000
   1396   1402     1   0.15375 251793.120000
   1399   1408     1   0.14316 258236.480000
   1402   2606     1   0.14316 258236.480000
   1405   2629     1   0.14316 258236.480000
   1410   1411     1   0.15110 237065.440000
   1410   1414     1   0.15110 237065.440000
   1410   1417     1   0.15110 237065.440000
   1411   1423     1   0.15375 251793.120000
   1414   1426     1   0.15375 251793.120000
   1417   1420     1   0.15375 251793.120000
   1420   1429     1   0.15375 251793.120000
   1423   1435     1   0.15375 251793.120000
   1426   1432     1   0.15375 251793.120000
   1429   1438     1   0.14316 258236.480000
   1432   2652     1   0.14316 258236.480000
   1435   2675     1   0.14316 258236.480000
   1440   1441     1   0.15110 237065.440000
   1440   1444     1   0.15110 237065.440000
   1440   1447     1   0.15110 237065.440000
   1441   1453     1   0.15375 251793.120000
   1444   1456     1   0.15375 251793.120000
   1447   1450     1   0.15375 251793.120000
   1450   1459     1   0.15375 251793.120000
   1453   1465     1   0.15375 251793.120000
   1456   1462     1   0.15375 251793.120000
   1459   1468     1   0.14316 258236.480000
   1462   2698     1   0.14316 258236.480000
   1465   2721     1   0.14316 258236.480000
   1470   1471     1   0.15110 237065.440000
   1470   1474     1   0.15110 237065.440000
   1470   1477     1   0.15110 237065.440000
   1471   1483     1   0.15375 251793.120000
   1474   1486     1   0.15375 251793.120000
   1477   1480     1   0.15375 251793.120000
   1480   1489     1   0.15375 251793.120000
   1483   1495     1   0.15375 251793.120000
   1486   1492     1   0.15375 251793.120000
   1489   1498     1   0.14316 258236.480000
   1492   2744     1   0.14316 258236.480000
   1495   2767     1   0.14316 258236.480000
   1500   1501     1   0.15110 237065.440000
   1500   1504     1   0.15110 237065.440000
   1500   1507     1   0.15110 237065.440000
   1501   1513     1   0.15375 251793.120000
   1504   1516     1   0.15375 251793.120000
   1507   1510     1   0.15375 251793.120000
   1510   1519     1   0.15375 251793.120000
   1513   1525     1   0.15375 251793.120000
   1516   1522     1   0.15375 251793.120000
   1519   1528     1   0.14316 258236.480000
   1522   2790     1   0.14316 258236.480000
   1525   2813     1   0.14316 258236.480000
   1530   1531     1   0.15110 237065.440000
   1530   1534     1   0.15110 237065.440000
   1530   1537     1   0.15110 237065.440000
   1531   1543     1   0.15375 251793.120000
   1534   1546     1   0.15375 251793.120000
   1537   1540     1   0.15375 251793.120000
   1540   1549     1   0.15375 251793.120000
   1543   1555     1   0.15375 251793.120000
   1546   1552     1   0.15375 251793.120000
   1549   1558     1   0.14316 258236.480000
   1552   2836     1   0.14316 258236.480000
   1555   2859     1   0.14316 258236.480000
   1560   1561     1   0.15110 237065.440000
   1560   1564     1   0.15110 237065.440000
   1560   1567     1   0.15110 237065.440000
   1561   1573     1   0.15375 251793.120000
   1564   1576     1   0.15375 251793.120000
   1567   1570     1   0.15375 251793.120000
   1570   1579     1   0.15375 251793.120000
   1573   1585     1   0.15375 251793.120000
   1576   1582     1   0.15375 251793.120000
   1579   1588     1   0.14316 258236.480000
   1582   2882     1   0.14316 258236.480000
   1585   2905     1   0.14316 258236.480000
   1590   1591     1   0.15110 237065.440000
   1590   1594     1   0.15110 237065.440000
   1590   1597     1   0.15110 237065.440000
   1591   1603     1   0.15375 251793.120000
   1594   1606     1   0.15375 251793.120000
   1597   1600     1   0.15375 251793.120000
   1600   1609     1   0.15375 251793.120000
   1603   1615     1   0.15375 251793.120000
   1606   1612     1   0.15375 251793.120000
   1609   1618     1   0.14316 258236.480000
   1612   2928     1   0.14316 258236.480000
   1615   2951     1   0.14316 258236.480000
   1620   1621     1   0.15110 237065.440000
   1620   1624     1   0.15110 237065.440000
   1620   1627     1   0.15110 237065.440000
   1621   1633     1   0.15375 251793.120000
   1624   1636     1   0.15375 251793.120000
   1627   1630     1   0.15375 251793.120000
   1630   1639     1   0.15375 251793.120000
   1633   1645     1   0.15375 251793.120000
   1636   1642     1   0.15375 251793.120000
   1639   1648     1   0.14316 258236.480000
   1642   2974     1   0.14316 258236.480000
   1645   2997     1   0.14316 258236.480000
   1650   1651     1   0.15110 237065.440000
   1650   1654     1   0.15110 237065.440000
   1650   1657     1   0.15110 237065.440000
   1651   1663     1   0.15375 251793.120000
   1654   1666     1   0.15375 251793.120000
   1657   1660     1   0.15375 251793.120000
   1660   1669     1   0.15375 251793.120000
   1663   1675     1   0.15375 251793.120000
   1666   1672     1   0.15375 251793.120000
   1669   1678     1   0.14316 258236.480000
   1672   3020     1   0.14316 258236.480000
   1675   3043     1   0.14316 258236.480000
   1680   1681     1   0.15110 237065.440000
   1680   1684     1   0.15110 237065.440000
   1680   1687     1   0.15110 237065.440000
   1681   1693     1   0.15375 251793.120000
   1684   1696     1   0.15375 251793.120000
   1687   1690     1   0.15375 251793.120000
   1690   1699     1   0.15375 251793.120000
   1693   1705     1   0.15375 251793.120000
   1696   1702     1   0.15375 251793.120000
   1699   1708     1   0.14316 258236.480000
   1702   3066     1   0.14316 258236.480000
   1705   3089     1   0.14316 258236.480000
   1710   1711     1   0.15110 237065.440000
   1710   1714     1   0.15110 237065.440000
   1710   1717     1   0.15110 237065.440000
   1711   1723     1   0.15375 251793.120000
   1714   1726     1   0.15375 251793.120000
   1717   1720     1   0.15375 251793.120000
   1720   1729     1   0.15375 251793.120000
   1723   1735     1   0.15375 251793.120000
   1726   1732     1   0.15375 251793.120000
   1729   1738     1   0.14316 258236.480000
   1732   3112     1   0.14316 258236.480000
   1735   3135     1   0.14316 258236.480000
   1740   1741     1   0.15110 237065.440000
   1740   1744     1   0.15110 237065.440000
   1740   1747     1   0.15110 237065.440000
   1741   1753     1   0.15375 251793.120000
   1744   1756     1   0.15375 251793.120000
   1747   1750     1   0.15375 251793.120000
   1750   1759     1   0.15375 251793.120000
   1753   1765     1   0.15375 251793.120000
   1756   1762     1   0.15375 251793.120000
   1759   1768     1   0.14316 258236.480000
   1762   3158     1   0.14316 258236.480000
   1765   3181     1   0.14316 258236.480000
   1770   1771     1   0.15110 237065.440000
   1770   1774     1   0.15110 237065.440000
   1770   1777     1   0.15110 237065.440000
   1771   1783     1   0.15375 251793.120000
   1774   1786     1   0.15375 251793.120000
   1777   1780     1   0.15375 251793.120000
   1780   1789     1   0.15375 251793.120000
   1783   1795     1   0.15375 251793.120000
   1786   1792     1   0.15375 251793.120000
   1789   1798     1   0.14316 258236.480000
   1792   3204     1   0.14316 258236.480000
   1795   3227     1   0.14316 258236.480000
   1800   1801     1   0.15110 237065.440000
   1800   1804     1   0.15110 237065.440000
   1800   1807     1   0.15110 237065.440000
   1801   1813     1   0.15375 251793.120000
   1804   1816     1   0.15375 251793.120000
   1807   1810     1   0.15375 251793.120000
   1810   1819     1   0.15375 251793.120000
   1813   1825     1   0.15375 251793.120000
   1816   1822     1   0.15375 251793.120000
   1819   1828     1   0.14316 258236.480000
   1822   3250     1   0.14316 258236.480000
   1825   3273     1   0.14316 258236.480000
   1830   1831     1   0.15110 237065.440000
   1830   1834     1   0.15110 237065.440000
   1830   1837     1   0.15110 237065.440000
   1831   1843     1   0.15375 251793.120000
   1834   1846     1   0.15375 251793.120000
   1837   1840     1   0.15375 251793.120000
   1840   1849     1   0.15375 251793.120000
   1843   1855     1   0.15375 251793.120000
   1846   1852     1   0.15375 251793.120000
   1849   1858     1   0.14316 258236.480000
   1852   3296     1   0.14316 258236.480000
   1855   3319     1   0.14316 258236.480000
   1860   1861     1   0.15375 251793.120000
   1860   1874     1   0.15375 251793.120000
   1860   1882     1   0.14316 258236.480000
   1861   1864     1   0.15375 251793.120000
   1861   1873     1   0.14233 265014.560000
   1864   1865     1   0.15375 251793.120000
   1864   1872     1   0.14233 265014.560000
   1865   1866     1   0.15375 251793.120000
   1865   1871     1   0.14233 265014.560000
   1866   1870     1   0.14316 258236.480000
   1866   1882     1   0.14316 258236.480000
   1874   1880     1   0.14233 265014.560000
   1883   1884     1   0.15375 251793.120000
   1883   1897     1   0.15375 251793.120000
   1883   1905     1   0.14316 258236.480000
   1884   1887     1   0.15375 251793.120000
   1884   1896     1   0.14233 265014.560000
   1887   1888     1   0.15375 251793.120000
   1887   1895     1   0.14233 265014.560000
   1888   1889     1   0.15375 251793.120000
   1888   1894     1   0.14233 265014.560000
   1889   1893     1   0.14316 258236.480000
   1889   1905     1   0.14316 258236.480000
   1897   1903     1   0.14233 265014.560000
   1906   1907     1   0.15375 251793.120000
   1906   1920     1   0.15375 251793.120000
   1906   1928     1   0.14316 258236.480000
   1907   1910     1   0.15375 251793.120000
   1907   1919     1   0.14233 265014.560000
   1910   1911     1   0.15375 251793.120000
   1910   1918     1   0.14233 265014.560000
   1911   1912     1   0.15375 251793.120000
   1911   1917     1   0.14233 265014.560000
   1912   1916     1   0.14316 258236.480000
   1912   1928     1   0.14316 258236.480000
   1920   1926     1   0.14233 265014.560000
   1929   1930     1   0.15375 251793.120000
   1929   1943     1   0.15375 251793.120000
   1929   1951     1   0.14316 258236.480000
   1930   1933     1   0.15375 251793.120000
   1930   1942     1   0.14233 265014.560000
   1933   1934     1   0.15375 251793.120000
   1933   1941     1   0.14233 265014.560000
   1934   1935     1   0.15375 251793.120000
   1934   1940     1   0.14233 265014.560000
   1935   1939     1   0.14316 258236.480000
   1935   1951     1   0.14316 258236.480000
   1943   1949     1   0.14233 265014.560000
   1952   1953     1   0.15375 251793.120000
   1952   1966     1   0.15375 251793.120000
   1952   1974     1   0.14316 258236.480000
   1953   1956     1   0.15375 251793.120000
   1953   1965     1   0.14233 265014.560000
   1956   1957     1   0.15375 251793.120000
   1956   1964     1   0.14233 265014.560000
   1957   1958     1   0.15375 251793.120000
   1957   1963     1   0.14233 265014.560000
   1958   1962     1   0.14316 258236.480000
   1958   1974     1   0.14316 258236.480000
   1966   1972     1   0.14233 265014.560000
   1975   1976     1   0.15375 251793.120000
   1975   1989     1   0.15375 251793.120000
   1975   1997     1   0.14316 258236.480000
   1976   1979     1   0.15375 251793.120000
   1976   1988     1   0.14233 265014.560000
   1979   1980     1   0.15375 251793.120000
   1979   1987     1   0.14233 265014.560000
   1980   1981     1   0.15375 251793.120000
   1980   1986     1   0.14233 265014.560000
   1981   1985     1   0.14316 258236.480000
   1981   1997     1   0.14316 258236.480000
   1989   1995     1   0.14233 265014.560000
   1998   1999     1   0.15375 251793.120000
   1998   2012     1   0.15375 251793.120000
   1998   2020     1   0.14316 258236.480000
   1999   2002     1   0.15375 251793.120000
   1999   2011     1   0.14233 265014.560000
   2002   2003     1   0.15375 251793.120000
   2002   2010     1   0.14233 265014.560000
   2003   2004     1   0.15375 251793.120000
   2003   2009     1   0.14233 265014.560000
   2004   2008     1   0.14316 258236.480000
   2004   2020     1   0.14316 258236.480000
   2012   2018     1   0.14233 265014.560000
   2021   2022     1   0.15375 251793.120000
   2021   2035     1   0.15375 251793.120000
   2021   2043     1   0.14316 258236.480000
   2022   2025     1   0.15375 251793.120000
   2022   2034     1   0.14233 265014.560000
   2025   2026     1   0.15375 251793.120000
   2025   2033     1   0.14233 265014.560000
   2026   2027     1   0.15375 251793.120000
   2026   2032     1   0.14233 265014.560000
   2027   2031     1   0.14316 258236.480000
   2027   2043     1   0.14316 258236.480000
   2035   2041     1   0.14233 265014.560000
   2044   2045     1   0.15375 251793.120000
   2044   2058     1   0.15375 251793.120000
   2044   2066     1   0.14316 258236.480000
   2045   2048     1   0.15375 251793.120000
   2045   2057     1   0.14233 265014.560000
   2048   2049     1   0.15375 251793.120000
   2048   2056     1   0.14233 265014.560000
   2049   2050     1   0.15375 251793.120000
   2049   2055     1   0.14233 265014.560000
   2050   2054     1   0.14316 258236.480000
   2050   2066     1   0.14316 258236.480000
   2058   2064     1   0.14233 265014.560000
   2067   2068     1   0.15375 251793.120000
   2067   2081     1   0.15375 251793.120000
   2067   2089     1   0.14316 258236.480000
   2068   2071     1   0.15375 251793.120000
   2068   2080     1   0.14233 265014.560000
   2071   2072     1   0.15375 251793.120000
   2071   2079     1   0.14233 265014.560000
   2072   2073     1   0.15375 251793.120000
   2072   2078     1   0.14233 265014.560000
   2073   2077     1   0.14316 258236.480000
   2073   2089     1   0.14316 258236.480000
   2081   2087     1   0.14233 265014.560000
   2090   2091     1   0.15375 251793.120000
   2090   2104     1   0.15375 251793.120000
   2090   2112     1   0.14316 258236.480000
   2091   2094     1   0.15375 251793.120000
   2091   2103     1   0.14233 265014.560000
   2094   2095     1   0.15375 251793.120000
   2094   2102     1   0.14233 265014.560000
   2095   2096     1   0.15375 251793.120000
   2095   2101     1   0.14233 265014.560000
   2096   2100     1   0.14316 258236.480000
   2096   2112     1   0.14316 258236.480000
   2104   2110     1   0.14233 265014.560000
   2113   2114     1   0.15375 251793.120000
   2113   2127     1   0.15375 251793.120000
   2113   2135     1   0.14316 258236.480000
   2114   2117     1   0.15375 251793.120000
   2114   2126     1   0.14233 265014.560000
   2117   2118     1   0.15375 251793.120000
   2117   2125     1   0.14233 265014.560000
   2118   2119     1   0.15375 251793.120000
   2118   2124     1   0.14233 265014.560000
   2119   2123     1   0.14316 258236.480000
   2119   2135     1   0.14316 258236.480000
   2127   2133     1   0.14233 265014.560000
   2136   2137     1   0.15375 251793.120000
   2136   2150     1   0.15375 251793.120000
   2136   2158     1   0.14316 258236.480000
   2137   2140     1   0.15375 251793.120000
   2137   2149     1   0.14233 265014.560000
   2140   2141     1   0.15375 251793.120000
   2140   2148     1   0.14233 265014.560000
   2141   2142     1   0.15375 251793.120000
   2141   2147     1   0.14233 265014.560000
   2142   2146     1   0.14316 258236.480000
   2142   2158     1   0.14316 258236.480000
   2150   2156     1   0.14233 265014.560000
   2159   2160     1   0.15375 251793.120000
   2159   2173     1   0.15375 251793.120000
   2159   2181     1   0.14316 258236.480000
   2160   2163     1   0.15375 251793.120000
   2160   2172     1   0.14233 265014.560000
   2163   2164     1   0.15375 251793.120000
   2163   2171     1   0.14233 265014.560000
   2164   2165     1   0.15375 251793.120000
   2164   2170     1   0.14233 265014.560000
   2165   2169     1   0.14316 258236.480000
   2165   2181     1   0.14316 258236.480000
   2173   2179     1   0.14233 265014.560000
   2182   2183     1   0.15375 251793.120000
   2182   2196     1   0.15375 251793.120000
   2182   2204     1   0.14316 258236.480000
   2183   2186     1   0.15375 251793.120000
   2183   2195     1   0.14233 265014.560000
   2186   2187     1   0.15375 251793.120000
   2186   2194     1   0.14233 265014.560000
   2187   2188     1   0.15375 251793.120000
   2187   2193     1   0.14233 265014.560000
   2188   2192     1   0.14316 258236.480000
   2188   2204     1   0.14316 258236.480000
   2196   2202     1   0.14233 265014.560000
   2205   2206     1   0.15375 251793.120000
   2205   2219     1   0.15375 251793.120000
   2205   2227     1   0.14316 258236.480000
   2206   2209     1   0.15375 251793.120000
   2206   2218     1   0.14233 265014.560000
   2209   2210     1   0.15375 251793.120000
   2209   2217     1   0.14233 265014.560000
   2210   2211     1   0.15375 251793.120000
   2210   2216     1   0.14233 265014.560000
   2211   2215     1   0.14316 258236.480000
   2211   2227     1   0.14316 258236.480000
   2219   2225     1   0.14233 265014.560000
   2228   2229     1   0.15375 251793.120000
   2228   2242     1   0.15375 251793.120000
   2228   2250     1   0.14316 258236.480000
   2229   2232     1   0.15375 251793.120000
   2229   2241     1   0.14233 265014.560000
   2232   2233     1   0.15375 251793.120000
   2232   2240     1   0.14233 265014.560000
   2233   2234     1   0.15375 251793.120000
   2233   2239     1   0.14233 265014.560000
   2234   2238     1   0.14316 258236.480000
   2234   2250     1   0.14316 258236.480000
   2242   2248     1   0.14233 265014.560000
   2251   2252     1   0.15375 251793.120000
   2251   2265     1   0.15375 251793.120000
   2251   2273     1   0.14316 258236.480000
   2252   2255     1   0.15375 251793.120000
   2252   2264     1   0.14233 265014.560000
   2255   2256     1   0.15375 251793.120000
   2255   2263     1   0.14233 265014.560000
   2256   2257     1   0.15375 251793.120000
   2256   2262     1   0.14233 265014.560000
   2257   2261     1   0.14316 258236.480000
   2257   2273     1   0.14316 258236.480000
   2265   2271     1   0.14233 265014.560000
   2274   2275     1   0.15375 251793.120000
   2274   2288     1   0.15375 251793.120000
   2274   2296     1   0.14316 258236.480000
   2275   2278     1   0.15375 251793.120000
   2275   2287     1   0.14233 265014.560000
   2278   2279     1   0.15375 251793.120000
   2278   2286     1   0.14233 265014.560000
   2279   2280     1   0.15375 251793.120000
   2279   2285     1   0.14233 265014.560000
   2280   2284     1   0.14316 258236.480000
   2280   2296     1   0.14316 258236.480000
   2288   2294     1   0.14233 265014.560000
   2297   2298     1   0.15375 251793.120000
   2297   2311     1   0.15375 251793.120000
   2297   2319     1   0.14316 258236.480000
   2298   2301     1   0.15375 251793.120000
   2298   2310     1   0.14233 265014.560000
   2301   2302     1   0.15375 251793.120000
   2301   2309     1   0.14233 265014.560000
   2302   2303     1   0.15375 251793.120000
   2302   2308     1   0.14233 265014.560000
   2303   2307     1   0.14316 258236.480000
   2303   2319     1   0.14316 258236.480000
   2311   2317     1   0.14233 265014.560000
   2320   2321     1   0.15375 251793.120000
   2320   2334     1   0.15375 251793.120000
   2320   2342     1   0.14316 258236.480000
   2321   2324     1   0.15375 251793.120000
   2321   2333     1   0.14233 265014.560000
   2324   2325     1   0.15375 251793.120000
   2324   2332     1   0.14233 265014.560000
   2325   2326     1   0.15375 251793.120000
   2325   2331     1   0.14233 265014.560000
   2326   2330     1   0.14316 258236.480000
   2326   2342     1   0.14316 258236.480000
   2334   2340     1   0.14233 265014.560000
   2343   2344     1   0.15375 251793.120000
   2343   2357     1   0.15375 251793.120000
   2343   2365     1   0.14316 258236.480000
   2344   2347     1   0.15375 251793.120000
   2344   2356     1   0.14233 265014.560000
   2347   2348     1   0.15375 251793.120000
   2347   2355     1   0.14233 265014.560000
   2348   2349     1   0.15375 251793.120000
   2348   2354     1   0.14233 265014.560000
   2349   2353     1   0.14316 258236.480000
   2349   2365     1   0.14316 258236.480000
   2357   2363     1   0.14233 265014.560000
   2366   2367     1   0.15375 251793.120000
   2366   2380     1   0.15375 251793.120000
   2366   2388     1   0.14316 258236.480000
   2367   2370     1   0.15375 251793.120000
   2367   2379     1   0.14233 265014.560000
   2370   2371     1   0.15375 251793.120000
   2370   2378     1   0.14233 265014.560000
   2371   2372     1   0.15375 251793.120000
   2371   2377     1   0.14233 265014.560000
   2372   2376     1   0.14316 258236.480000
   2372   2388     1   0.14316 258236.480000
   2380   2386     1   0.14233 265014.560000
   2389   2390     1   0.15375 251793.120000
   2389   2403     1   0.15375 251793.120000
   2389   2411     1   0.14316 258236.480000
   2390   2393     1   0.15375 251793.120000
   2390   2402     1   0.14233 265014.560000
   2393   2394     1   0.15375 251793.120000
   2393   2401     1   0.14233 265014.560000
   2394   2395     1   0.15375 251793.120000
   2394   2400     1   0.14233 265014.560000
   2395   2399     1   0.14316 258236.480000
   2395   2411     1   0.14316 258236.480000
   2403   2409     1   0.14233 265014.560000
   2412   2413     1   0.15375 251793.120000
   2412   2426     1   0.15375 251793.120000
   2412   2434     1   0.14316 258236.480000
   2413   2416     1   0.15375 251793.120000
   2413   2425     1   0.14233 265014.560000
   2416   2417     1   0.15375 251793.120000
   2416   2424     1   0.14233 265014.560000
   2417   2418     1   0.15375 251793.120000
   2417   2423     1   0.14233 265014.560000
   2418   2422     1   0.14316 258236.480000
   2418   2434     1   0.14316 258236.480000
   2426   2432     1   0.14233 265014.560000
   2435   2436     1   0.15375 251793.120000
   2435   2449     1   0.15375 251793.120000
   2435   2457     1   0.14316 258236.480000
   2436   2439     1   0.15375 251793.120000
   2436   2448     1   0.14233 265014.560000
   2439   2440     1   0.15375 251793.120000
   2439   2447     1   0.14233 265014.560000
   2440   2441     1   0.15375 251793.120000
   2440   2446     1   0.14233 265014.560000
   2441   2445     1   0.14316 258236.480000
   2441   2457     1   0.14316 258236.480000
   2449   2455     1   0.14233 265014.560000
   2458   2459     1   0.15375 251793.120000
   2458   2472     1   0.15375 251793.120000
   2458   2480     1   0.14316 258236.480000
   2459   2462     1   0.15375 251793.120000
   2459   2471     1   0.14233 265014.560000
   2462   2463     1   0.15375 251793.120000
   2462   2470     1   0.14233 265014.560000
   2463   2464     1   0.15375 251793.120000
   2463   2469     1   0.14233 265014.560000
   2464   2468     1   0.14316 258236.480000
   2464   2480     1   0.14316 258236.480000
   2472   2478     1   0.14233 265014.560000
   2481   2482     1   0.15375 251793.120000
   2481   2495     1   0.15375 251793.120000
   2481   2503     1   0.14316 258236.480000
   2482   2485     1   0.15375 251793.120000
   2482   2494     1   0.14233 265014.560000
   2485   2486     1   0.15375 251793.120000
   2485   2493     1   0.14233 265014.560000
   2486   2487     1   0.15375 251793.120000
   2486   2492     1   0.14233 265014.560000
   2487   2491     1   0.14316 258236.480000
   2487   2503     1   0.14316 258236.480000
   2495   2501     1   0.14233 265014.560000
   2504   2505     1   0.15375 251793.120000
   2504   2518     1   0.15375 251793.120000
   2504   2526     1   0.14316 258236.480000
   2505   2508     1   0.15375 251793.120000
   2505   2517     1   0.14233 265014.560000
   2508   2509     1   0.15375 251793.120000
   2508   2516     1   0.14233 265014.560000
   2509   2510     1   0.15375 251793.120000
   2509   2515     1   0.14233 265014.560000
   2510   2514     1   0.14316 258236.480000
   2510   2526     1   0.14316 258236.480000
   2518   2524     1   0.14233 265014.560000
   2527   2528     1   0.15375 251793.120000
   2527   2541     1   0.15375 251793.120000
   2527   2549     1   0.14316 258236.480000
   2528   2531     1   0.15375 251793.120000
   2528   2540     1   0.14233 265014.560000
   2531   2532     1   0.15375 251793.120000
   2531   2539     1   0.14233 265014.560000
   2532   2533     1   0.15375 251793.120000
   2532   2538     1   0.14233 265014.560000
   2533   2537     1   0.14316 258236.480000
   2533   2549     1   0.14316 258236.480000
   2541   2547     1   0.14233 265014.560000
   2550   2551     1   0.15375 251793.120000
   2550   2564     1   0.15375 251793.120000
   2550   2572     1   0.14316 258236.480000
   2551   2554     1   0.15375 251793.120000
   2551   2563     1   0.14233 265014.560000
   2554   2555     1   0.15375 251793.120000
   2554   2562     1   0.14233 265014.560000
   2555   2556     1   0.15375 251793.120000
   2555   2561     1   0.14233 265014.560000
   2556   2560     1   0.14316 258236.480000
   2556   2572     1   0.14316 258236.480000
   2564   2570     1   0.14233 265014.560000
   2573   2574     1   0.15375 251793.120000
   2573   2587     1   0.15375 251793.120000
   2573   2595     1   0.14316 258236.480000
   2574   2577     1   0.15375 251793.120000
   2574   2586     1   0.14233 265014.560000
   2577   2578     1   0.15375 251793.120000
   2577   2585     1   0.14233 265014.560000
   2578   2579     1   0.15375 251793.120000
   2578   2584     1   0.14233 265014.560000
   2579   2583     1   0.14316 258236.480000
   2579   2595     1   0.14316 258236.480000
   2587   2593     1   0.14233 265014.560000
   2596   2597     1   0.15375 251793.120000
   2596   2610     1   0.15375 251793.120000
   2596   2618     1   0.14316 258236.480000
   2597   2600     1   0.15375 251793.120000
   2597   2609     1   0.14233 265014.560000
   2600   2601     1   0.15375 251793.120000
   2600   2608     1   0.14233 265014.560000
   2601   2602     1   0.15375 251793.120000
   2601   2607     1   0.14233 265014.560000
   2602   2606     1   0.14316 258236.480000
   2602   2618     1   0.14316 258236.480000
   2610   2616     1   0.14233 265014.560000
   2619   2620     1   0.15375 251793.120000
   2619   2633     1   0.15375 251793.120000
   2619   2641     1   0.14316 258236.480000
   2620   2623     1   0.15375 251793.120000
   2620   2632     1   0.14233 265014.560000
   2623   2624     1   0.15375 251793.120000
   2623   2631     1   0.14233 265014.560000
   2624   2625     1   0.15375 251793.120000
   2624   2630     1   0.14233 265014.560000
   2625   2629     1   0.14316 258236.480000
   2625   2641     1   0.14316 258236.480000
   2633   2639     1   0.14233 265014.560000
   2642   2643     1   0.15375 251793.120000
   2642   2656     1   0.15375 251793.120000
   2642   2664     1   0.14316 258236.480000
   2643   2646     1   0.15375 251793.120000
   2643   2655     1   0.14233 265014.560000
   2646   2647     1   0.15375 251793.120000
   2646   2654     1   0.14233 265014.560000
   2647   2648     1   0.15375 251793.120000
   2647   2653     1   0.14233 265014.560000
   2648   2652     1   0.14316 258236.480000
   2648   2664     1   0.14316 258236.480000
   2656   2662     1   0.14233 265014.560000
   2665   2666     1   0.15375 251793.120000
   2665   2679     1   0.15375 251793.120000
   2665   2687     1   0.14316 258236.480000
   2666   2669     1   0.15375 251793.120000
   2666   2678     1   0.14233 265014.560000
   2669   2670     1   0.15375 251793.120000
   2669   2677     1   0.14233 265014.560000
   2670   2671     1   0.15375 251793.120000
   2670   2676     1   0.14233 265014.560000
   2671   2675     1   0.14316 258236.480000
   2671   2687     1   0.14316 258236.480000
   2679   2685     1   0.14233 265014.560000
   2688   2689     1   0.15375 251793.120000
   2688   2702     1   0.15375 251793.120000
   2688   2710     1   0.14316 258236.480000
   2689   2692     1   0.15375 251793.120000
   2689   2701     1   0.14233 265014.560000
   2692   2693     1   0.15375 251793.120000
   2692   2700     1   0.14233 265014.560000
   2693   2694     1   0.15375 251793.120000
   2693   2699     1   0.14233 265014.560000
   2694   2698     1   0.14316 258236.480000
   2694   2710     1   0.14316 258236.480000
   2702   2708     1   0.14233 265014.560000
   2711   2712     1   0.15375 251793.120000
   2711   2725     1   0.15375 251793.120000
   2711   2733     1   0.14316 258236.480000
   2712   2715     1   0.15375 251793.120000
   2712   2724     1   0.14233 265014.560000
   2715   2716     1   0.15375 251793.120000
   2715   2723     1   0.14233 265014.560000
   2716   2717     1   0.15375 251793.120000
   2716   2722     1   0.14233 265014.560000
   2717   2721     1   0.14316 258236.480000
   2717   2733     1   0.14316 258236.480000
   2725   2731     1   0.14233 265014.560000
   2734   2735     1   0.15375 251793.120000
   2734   2748     1   0.15375 251793.120000
   2734   2756     1   0.14316 258236.480000
   2735   2738     1   0.15375 251793.120000
   2735   2747     1   0.14233 265014.560000
   2738   2739     1   0.15375 251793.120000
   2738   2746     1   0.14233 265014.560000
   2739   2740     1   0.15375 251793.120000
   2739   2745     1   0.14233 265014.560000
   2740   2744     1   0.14316 258236.480000
   2740   2756     1   0.14316 258236.480000
   2748   2754     1   0.14233 265014.560000
   2757   2758     1   0.15375 251793.120000
   2757   2771     1   0.15375 251793.120000
   2757   2779     1   0.14316 258236.480000
   2758   2761     1   0.15375 251793.120000
   2758   2770     1   0.14233 265014.560000
   2761   2762     1   0.15375 251793.120000
   2761   2769     1   0.14233 265014.560000
   2762   2763     1   0.15375 251793.120000
   2762   2768     1   0.14233 265014.560000
   2763   2767     1   0.14316 258236.480000
   2763   2779     1   0.14316 258236.480000
   2771   2777     1   0.14233 265014.560000
   2780   2781     1   0.15375 251793.120000
   2780   2794     1   0.15375 251793.120000
   2780   2802     1   0.14316 258236.480000
   2781   2784     1   0.15375 251793.120000
   2781   2793     1   0.14233 265014.560000
   2784   2785     1   0.15375 251793.120000
   2784   2792     1   0.14233 265014.560000
   2785   2786     1   0.15375 251793.120000
   2785   2791     1   0.14233 265014.560000
   2786   2790     1   0.14316 258236.480000
   2786   2802     1   0.14316 258236.480000
   2794   2800     1   0.14233 265014.560000
   2803   2804     1   0.15375 251793.120000
   2803   2817     1   0.15375 251793.120000
   2803   2825     1   0.14316 258236.480000
   2804   2807     1   0.15375 251793.120000
   2804   2816     1   0.14233 265014.560000
   2807   2808     1   0.15375 251793.120000
   2807   2815     1   0.14233 265014.560000
   2808   2809     1   0.15375 251793.120000
   2808   2814     1   0.14233 265014.560000
   2809   2813     1   0.14316 258236.480000
   2809   2825     1   0.14316 258236.480000
   2817   2823     1   0.14233 265014.560000
   2826   2827     1   0.15375 251793.120000
   2826   2840     1   0.15375 251793.120000
   2826   2848     1   0.14316 258236.480000
   2827   2830     1   0.15375 251793.120000
   2827   2839     1   0.14233 265014.560000
   2830   2831     1   0.15375 251793.120000
   2830   2838     1   0.14233 265014.560000
   2831   2832     1   0.15375 251793.120000
   2831   2837     1   0.14233 265014.560000
   2832   2836     1   0.14316 258236.480000
   2832   2848     1   0.14316 258236.480000
   2840   2846     1   0.14233 265014.560000
   2849   2850     1   0.15375 251793.120000
   2849   2863     1   0.15375 251793.120000
   2849   2871     1   0.14316 258236.480000
   2850   2853     1   0.15375 251793.120000
   2850   2862     1   0.14233 265014.560000
   2853   2854     1   0.15375 251793.120000
   2853   2861     1   0.14233 265014.560000
   2854   2855     1   0.15375 251793.120000
   2854   2860     1   0.14233 265014.560000
   2855   2859     1   0.14316 258236.480000
   2855   2871     1   0.14316 258236.480000
   2863   2869     1   0.14233 265014.560000
   2872   2873     1   0.15375 251793.120000
   2872   2886     1   0.15375 251793.120000
   2872   2894     1   0.14316 258236.480000
   2873   2876     1   0.15375 251793.120000
   2873   2885     1   0.14233 265014.560000
   2876   2877     1   0.15375 251793.120000
   2876   2884     1   0.14233 265014.560000
   2877   2878     1   0.15375 251793.120000
   2877   2883     1   0.14233 265014.560000
   2878   2882     1   0.14316 258236.480000
   2878   2894     1   0.14316 258236.480000
   2886   2892     1   0.14233 265014.560000
   2895   2896     1   0.15375 251793.120000
   2895   2909     1   0.15375 251793.120000
   2895   2917     1   0.14316 258236.480000
   2896   2899     1   0.15375 251793.120000
   2896   2908     1   0.14233 265014.560000
   2899   2900     1   0.15375 251793.120000
   2899   2907     1   0.14233 265014.560000
   2900   2901     1   0.15375 251793.120000
   2900   2906     1   0.14233 265014.560000
   2901   2905     1   0.14316 258236.480000
   2901   2917     1   0.14316 258236.480000
   2909   2915     1   0.14233 265014.560000
   2918   2919     1   0.15375 251793.120000
   2918   2932     1   0.15375 251793.120000
   2918   2940     1   0.14316 258236.480000
   2919   2922     1   0.15375 251793.120000
   2919   2931     1   0.14233 265014.560000
   2922   2923     1   0.15375 251793.120000
   2922   2930     1   0.14233 265014.560000
   2923   2924     1   0.15375 251793.120000
   2923   2929     1   0.14233 265014.560000
   2924   2928     1   0.14316 258236.480000
   2924   2940     1   0.14316 258236.480000
   2932   2938     1   0.14233 265014.560000
   2941   2942     1   0.15375 251793.120000
   2941   2955     1   0.15375 251793.120000
   2941   2963     1   0.14316 258236.480000
   2942   2945     1   0.15375 251793.120000
   2942   2954     1   0.14233 265014.560000
   2945   2946     1   0.15375 251793.120000
   2945   2953     1   0.14233 265014.560000
   2946   2947     1   0.15375 251793.120000
   2946   2952     1   0.14233 265014.560000
   2947   2951     1   0.14316 258236.480000
   2947   2963     1   0.14316 258236.480000
   2955   2961     1   0.14233 265014.560000
   2964   2965     1   0.15375 251793.120000
   2964   2978     1   0.15375 251793.120000
   2964   2986     1   0.14316 258236.480000
   2965   2968     1   0.15375 251793.120000
   2965   2977     1   0.14233 265014.560000
   2968   2969     1   0.15375 251793.120000
   2968   2976     1   0.14233 265014.560000
   2969   2970     1   0.15375 251793.120000
   2969   2975     1   0.14233 265014.560000
   2970   2974     1   0.14316 258236.480000
   2970   2986     1   0.14316 258236.480000
   2978   2984     1   0.14233 265014.560000
   2987   2988     1   0.15375 251793.120000
   2987   3001     1   0.15375 251793.120000
   2987   3009     1   0.14316 258236.480000
   2988   2991     1   0.15375 251793.120000
   2988   3000     1   0.14233 265014.560000
   2991   2992     1   0.15375 251793.120000
   2991   2999     1   0.14233 265014.560000
   2992   2993     1   0.15375 251793.120000
   2992   2998     1   0.14233 265014.560000
   2993   2997     1   0.14316 258236.480000
   2993   3009     1   0.14316 258236.480000
   3001   3007     1   0.14233 265014.560000
   3010   3011     1   0.15375 251793.120000
   3010   3024     1   0.15375 251793.120000
   3010   3032     1   0.14316 258236.480000
   3011   3014     1   0.15375 251793.120000
   3011   3023     1   0.14233 265014.560000
   3014   3015     1   0.15375 251793.120000
   3014   3022     1   0.14233 265014.560000
   3015   3016     1   0.15375 251793.120000
   3015   3021     1   0.14233 265014.560000
   3016   3020     1   0.14316 258236.480000
   3016   3032     1   0.14316 258236.480000
   3024   3030     1   0.14233 265014.560000
   3033   3034     1   0.15375 251793.120000
   3033   3047     1   0.15375 251793.120000
   3033   3055     1   0.14316 258236.480000
   3034   3037     1   0.15375 251793.120000
   3034   3046     1   0.14233 265014.560000
   3037   3038     1   0.15375 251793.120000
   3037   3045     1   0.14233 265014.560000
   3038   3039     1   0.15375 251793.120000
   3038   3044     1   0.14233 265014.560000
   3039   3043     1   0.14316 258236.480000
   3039   3055     1   0.14316 258236.480000
   3047   3053     1   0.14233 265014.560000
   3056   3057     1   0.15375 251793.120000
   3056   3070     1   0.15375 251793.120000
   3056   3078     1   0.14316 258236.480000
   3057   3060     1   0.15375 251793.120000
   3057   3069     1   0.14233 265014.560000
   3060   3061     1   0.15375 251793.120000
   3060   3068     1   0.14233 265014.560000
   3061   3062     1   0.15375 251793.120000
   3061   3067     1   0.14233 265014.560000
   3062   3066     1   0.14316 258236.480000
   3062   3078     1   0.14316 258236.480000
   3070   3076     1   0.14233 265014.560000
   3079   3080     1   0.15375 251793.120000
   3079   3093     1   0.15375 251793.120000
   3079   3101     1   0.14316 258236.480000
   3080   3083     1   0.15375 251793.120000
   3080   3092     1   0.14233 265014.560000
   3083   3084     1   0.15375 251793.120000
   3083   3091     1   0.14233 265014.560000
   3084   3085     1   0.15375 251793.120000
   3084   3090     1   0.14233 265014.560000
   3085   3089     1   0.14316 258236.480000
   3085   3101     1   0.14316 258236.480000
   3093   3099     1   0.14233 265014.560000
   3102   3103     1   0.15375 251793.120000
   3102   3116     1   0.15375 251793.120000
   3102   3124     1   0.14316 258236.480000
   3103   3106     1   0.15375 251793.120000
   3103   3115     1   0.14233 265014.560000
   3106   3107     1   0.15375 251793.120000
   3106   3114     1   0.14233 265014.560000
   3107   3108     1   0.15375 251793.120000
   3107   3113     1   0.14233 265014.560000
   3108   3112     1   0.14316 258236.480000
   3108   3124     1   0.14316 258236.480000
   3116   3122     1   0.14233 265014.560000
   3125   3126     1   0.15375 251793.120000
   3125   3139     1   0.15375 251793.120000
   3125   3147     1   0.14316 258236.480000
   3126   3129     1   0.15375 251793.120000
   3126   3138     1   0.14233 265014.560000
   3129   3130     1   0.15375 251793.120000
   3129   3137     1   0.14233 265014.560000
   3130   3131     1   0.15375 251793.120000
   3130   3136     1   0.14233 265014.560000
   3131   3135     1   0.14316 258236.480000
   3131   3147     1   0.14316 258236.480000
   3139   3145     1   0.14233 265014.560000
   3148   3149     1   0.15375 251793.120000
   3148   3162     1   0.15375 251793.120000
   3148   3170     1   0.14316 258236.480000
   3149   3152     1   0.15375 251793.120000
   3149   3161     1   0.14233 265014.560000
   3152   3153     1   0.15375 251793.120000
   3152   3160     1   0.14233 265014.560000
   3153   3154     1   0.15375 251793.120000
   3153   3159     1   0.14233 265014.560000
   3154   3158     1   0.14316 258236.480000
   3154   3170     1   0.14316 258236.480000
   3162   3168     1   0.14233 265014.560000
   3171   3172     1   0.15375 251793.120000
   3171   3185     1   0.15375 251793.120000
   3171   3193     1   0.14316 258236.480000
   3172   3175     1   0.15375 251793.120000
   3172   3184     1   0.14233 265014.560000
   3175   3176     1   0.15375 251793.120000
   3175   3183     1   0.14233 265014.560000
   3176   3177     1   0.15375 251793.120000
   3176   3182     1   0.14233 265014.560000
   3177   3181     1   0.14316 258236.480000
   3177   3193     1   0.14316 258236.480000
   3185   3191     1   0.14233 265014.560000
   3194   3195     1   0.15375 251793.120000
   3194   3208     1   0.15375 251793.120000
   3194   3216     1   0.14316 258236.480000
   3195   3198     1   0.15375 251793.120000
   3195   3207     1   0.14233 265014.560000
   3198   3199     1   0.15375 251793.120000
   3198   3206     1   0.14233 265014.560000
   3199   3200     1   0.15375 251793.120000
   3199   3205     1   0.14233 265014.560000
   3200   3204     1   0.14316 258236.480000
   3200   3216     1   0.14316 258236.480000
   3208   3214     1   0.14233 265014.560000
   3217   3218     1   0.15375 251793.120000
   3217   3231     1   0.15375 251793.120000
   3217   3239     1   0.14316 258236.480000
   3218   3221     1   0.15375 251793.120000
   3218   3230     1   0.14233 265014.560000
   3221   3222     1   0.15375 251793.120000
   3221   3229     1   0.14233 265014.560000
   3222   3223     1   0.15375 251793.120000
   3222   3228     1   0.14233 265014.560000
   3223   3227     1   0.14316 258236.480000
   3223   3239     1   0.14316 258236.480000
   3231   3237     1   0.14233 265014.560000
   3240   3241     1   0.15375 251793.120000
   3240   3254     1   0.15375 251793.120000
   3240   3262     1   0.14316 258236.480000
   3241   3244     1   0.15375 251793.120000
   3241   3253     1   0.14233 265014.560000
   3244   3245     1   0.15375 251793.120000
   3244   3252     1   0.14233 265014.560000
   3245   3246     1   0.15375 251793.120000
   3245   3251     1   0.14233 265014.560000
   3246   3250     1   0.14316 258236.480000
   3246   3262     1   0.14316 258236.480000
   3254   3260     1   0.14233 265014.560000
   3263   3264     1   0.15375 251793.120000
   3263   3277     1   0.15375 251793.120000
   3263   3285     1   0.14316 258236.480000
   3264   3267     1   0.15375 251793.120000
   3264   3276     1   0.14233 265014.560000
   3267   3268     1   0.15375 251793.120000
   3267   3275     1   0.14233 265014.560000
   3268   3269     1   0.15375 251793.120000
   3268   3274     1   0.14233 265014.560000
   3269   3273     1   0.14316 258236.480000
   3269   3285     1   0.14316 258236.480000
   3277   3283     1   0.14233 265014.560000
   3286   3287     1   0.15375 251793.120000
   3286   3300     1   0.15375 251793.120000
   3286   3308     1   0.14316 258236.480000
   3287   3290     1   0.15375 251793.120000
   3287   3299     1   0.14233 265014.560000
   3290   3291     1   0.15375 251793.120000
   3290   3298     1   0.14233 265014.560000
   3291   3292     1   0.15375 251793.120000
   3291   3297     1   0.14233 265014.560000
   3292   3296     1   0.14316 258236.480000
   3292   3308     1   0.14316 258236.480000
   3300   3306     1   0.14233 265014.560000
   3309   3310     1   0.15375 251793.120000
   3309   3323     1   0.15375 251793.120000
   3309   3331     1   0.14316 258236.480000
   3310   3313     1   0.15375 251793.120000
   3310   3322     1   0.14233 265014.560000
   3313   3314     1   0.15375 251793.120000
   3313   3321     1   0.14233 265014.560000
   3314   3315     1   0.15375 251793.120000
   3314   3320     1   0.14233 265014.560000
   3315   3319     1   0.14316 258236.480000
   3315   3331     1   0.14316 258236.480000
   3323   3329     1   0.14233 265014.560000
      2      3     1   0.10969 276646.080000
      2      4     1   0.10969 276646.080000
      5      6     1   0.10969 276646.080000
      5      7     1   0.10969 276646.080000
      8      9     1   0.10969 276646.080000
      8     10     1   0.10969 276646.080000
     11     12     1   0.10969 276646.080000
     11     13     1   0.10969 276646.080000
     14     15     1   0.10910 283424.160000
     14     16     1   0.10910 283424.160000
     17     18     1   0.10910 283424.160000
     17     19     1   0.10910 283424.160000
     20     58     1   0.10304 312293.760000
     21     59     1   0.10304 312293.760000
     22     23     1   0.10910 283424.160000
     22     24     1   0.10910 283424.160000
     25     26     1   0.10910 283424.160000
     25     27     1   0.10910 283424.160000
     28     29     1   0.10910 283424.160000
     28     30     1   0.10910 283424.160000
     31     32     1   0.10910 283424.160000
     31     33     1   0.10910 283424.160000
     34     35     1   0.10969 276646.080000
     34     36     1   0.10969 276646.080000
     37     38     1   0.10969 276646.080000
     37     39     1   0.10969 276646.080000
     40     41     1   0.10969 276646.080000
     40     42     1   0.10969 276646.080000
     43     44     1   0.10969 276646.080000
     43     45     1   0.10969 276646.080000
     46     47     1   0.10969 276646.080000
     46     48     1   0.10969 276646.080000
     49     50     1   0.10969 276646.080000
     49     51     1   0.10969 276646.080000
     52     53     1   0.10969 276646.080000
     52     54     1   0.10969 276646.080000
     55     56     1   0.10969 276646.080000
     55     57     1   0.10969 276646.080000
     60     89     1   0.10304 312293.760000
     61     62     1   0.10910 283424.160000
     61     63     1   0.10910 283424.160000
     64     65     1   0.10910 283424.160000
     64     66     1   0.10910 283424.160000
     67     68     1   0.10910 283424.160000
     67     69     1   0.10910 283424.160000
     70     71     1   0.10969 276646.080000
     70     72     1   0.10969 276646.080000
     73     74     1   0.10969 276646.080000
     73     75     1   0.10969 276646.080000
     76     77     1   0.10969 276646.080000
     76     78     1   0.10969 276646.080000
     79     80     1   0.10969 276646.080000
     79     81     1   0.10969 276646.080000
     82     83     1   0.10969 276646.080000
     82     84     1   0.10969 276646.080000
     85     86     1   0.10969 276646.080000
     85     87     1   0.10969 276646.080000
     90    119     1   0.10304 312293.760000
     91     92     1   0.10910 283424.160000
     91     93     1   0.10910 283424.160000
     94     95     1   0.10910 283424.160000
     94     96     1   0.10910 283424.160000
     97     98     1   0.10910 283424.160000
     97     99     1   0.10910 283424.160000
    100    101     1   0.10969 276646.080000
    100    102     1   0.10969 276646.080000
    103    104     1   0.10969 276646.080000
    103    105     1   0.10969 276646.080000
    106    107     1   0.10969 276646.080000
    106    108     1   0.10969 276646.080000
    109    110     1   0.10969 276646.080000
    109    111     1   0.10969 276646.080000
    112    113     1   0.10969 276646.080000
    112    114     1   0.10969 276646.080000
    115    116     1   0.10969 276646.080000
    115    117     1   0.10969 276646.080000
    120    149     1   0.10304 312293.760000
    121    122     1   0.10910 283424.160000
    121    123     1   0.10910 283424.160000
    124    125     1   0.10910 283424.160000
    124    126     1   0.10910 283424.160000
    127    128     1   0.10910 283424.160000
    127    129     1   0.10910 283424.160000
    130    131     1   0.10969 276646.080000
    130    132     1   0.10969 276646.080000
    133    134     1   0.10969 276646.080000
    133    135     1   0.10969 276646.080000
    136    137     1   0.10969 276646.080000
    136    138     1   0.10969 276646.080000
    139    140     1   0.10969 276646.080000
    139    141     1   0.10969 276646.080000
    142    143     1   0.10969 276646.080000
    142    144     1   0.10969 276646.080000
    145    146     1   0.10969 276646.080000
    145    147     1   0.10969 276646.080000
    150    179     1   0.10304 312293.760000
    151    152     1   0.10910 283424.160000
    151    153     1   0.10910 283424.160000
    154    155     1   0.10910 283424.160000
    154    156     1   0.10910 283424.160000
    157    158     1   0.10910 283424.160000
    157    159     1   0.10910 283424.160000
    160    161     1   0.10969 276646.080000
    160    162     1   0.10969 276646.080000
    163    164     1   0.10969 276646.080000
    163    165     1   0.10969 276646.080000
    166    167     1   0.10969 276646.080000
    166    168     1   0.10969 276646.080000
    169    170     1   0.10969 276646.080000
    169    171     1   0.10969 276646.080000
    172    173     1   0.10969 276646.080000
    172    174     1   0.10969 276646.080000
    175    176     1   0.10969 276646.080000
    175    177     1   0.10969 276646.080000
    180    209     1   0.10304 312293.760000
    181    182     1   0.10910 283424.160000
    181    183     1   0.10910 283424.160000
    184    185     1   0.10910 283424.160000
    184    186     1   0.10910 283424.160000
    187    188     1   0.10910 283424.160000
    187    189     1   0.10910 283424.160000
    190    191     1   0.10969 276646.080000
    190    192     1   0.10969 276646.080000
    193    194     1   0.10969 276646.080000
    193    195     1   0.10969 276646.080000
    196    197     1   0.10969 276646.080000
    196    198     1   0.10969 276646.080000
    199    200     1   0.10969 276646.080000
    199    201     1   0.10969 276646.080000
    202    203     1   0.10969 276646.080000
    202    204     1   0.10969 276646.080000
    205    206     1   0.10969 276646.080000
    205    207     1   0.10969 276646.080000
    210    239     1   0.10304 312293.760000
    211    212     1   0.10910 283424.160000
    211    213     1   0.10910 283424.160000
    214    215     1   0.10910 283424.160000
    214    216     1   0.10910 283424.160000
    217    218     1   0.10910 283424.160000
    217    219     1   0.10910 283424.160000
    220    221     1   0.10969 276646.080000
    220    222     1   0.10969 276646.080000
    223    224     1   0.10969 276646.080000
    223    225     1   0.10969 276646.080000
    226    227     1   0.10969 276646.080000
    226    228     1   0.10969 276646.080000
    229    230     1   0.10969 276646.080000
    229    231     1   0.10969 276646.080000
    232    233     1   0.10969 276646.080000
    232    234     1   0.10969 276646.080000
    235    236     1   0.10969 276646.080000
    235    237     1   0.10969 276646.080000
    240    269     1   0.10304 312293.760000
    241    242     1   0.10910 283424.160000
    241    243     1   0.10910 283424.160000
    244    245     1   0.10910 283424.160000
    244    246     1   0.10910 283424.160000
    247    248     1   0.10910 283424.160000
    247    249     1   0.10910 283424.160000
    250    251     1   0.10969 276646.080000
    250    252     1   0.10969 276646.080000
    253    254     1   0.10969 276646.080000
    253    255     1   0.10969 276646.080000
    256    257     1   0.10969 276646.080000
    256    258     1   0.10969 276646.080000
    259    260     1   0.10969 276646.080000
    259    261     1   0.10969 276646.080000
    262    263     1   0.10969 276646.080000
    262    264     1   0.10969 276646.080000
    265    266     1   0.10969 276646.080000
    265    267     1   0.10969 276646.080000
    270    299     1   0.10304 312293.760000
    271    272     1   0.10910 283424.160000
    271    273     1   0.10910 283424.160000
    274    275     1   0.10910 283424.160000
    274    276     1   0.10910 283424.160000
    277    278     1   0.10910 283424.160000
    277    279     1   0.10910 283424.160000
    280    281     1   0.10969 276646.080000
    280    282     1   0.10969 276646.080000
    283    284     1   0.10969 276646.080000
    283    285     1   0.10969 276646.080000
    286    287     1   0.10969 276646.080000
    286    288     1   0.10969 276646.080000
    289    290     1   0.10969 276646.080000
    289    291     1   0.10969 276646.080000
    292    293     1   0.10969 276646.080000
    292    294     1   0.10969 276646.080000
    295    296     1   0.10969 276646.080000
    295    297     1   0.10969 276646.080000
    300    329     1   0.10304 312293.760000
    301    302     1   0.10910 283424.160000
    301    303     1   0.10910 283424.160000
    304    305     1   0.10910 283424.160000
    304    306     1   0.10910 283424.160000
    307    308     1   0.10910 283424.160000
    307    309     1   0.10910 283424.160000
    310    311     1   0.10969 276646.080000
    310    312     1   0.10969 276646.080000
    313    314     1   0.10969 276646.080000
    313    315     1   0.10969 276646.080000
    316    317     1   0.10969 276646.080000
    316    318     1   0.10969 276646.080000
    319    320     1   0.10969 276646.080000
    319    321     1   0.10969 276646.080000
    322    323     1   0.10969 276646.080000
    322    324     1   0.10969 276646.080000
    325    326     1   0.10969 276646.080000
    325    327     1   0.10969 276646.080000
    330    359     1   0.10304 312293.760000
    331    332     1   0.10910 283424.160000
    331    333     1   0.10910 283424.160000
    334    335     1   0.10910 283424.160000
    334    336     1   0.10910 283424.160000
    337    338     1   0.10910 283424.160000
    337    339     1   0.10910 283424.160000
    340    341     1   0.10969 276646.080000
    340    342     1   0.10969 276646.080000
    343    344     1   0.10969 276646.080000
    343    345     1   0.10969 276646.080000
    346    347     1   0.10969 276646.080000
    346    348     1   0.10969 276646.080000
    349    350     1   0.10969 276646.080000
    349    351     1   0.10969 276646.080000
    352    353     1   0.10969 276646.080000
    352    354     1   0.10969 276646.080000
    355    356     1   0.10969 276646.080000
    355    357     1   0.10969 276646.080000
    360    389     1   0.10304 312293.760000
    361    362     1   0.10910 283424.160000
    361    363     1   0.10910 283424.160000
    364    365     1   0.10910 283424.160000
    364    366     1   0.10910 283424.160000
    367    368     1   0.10910 283424.160000
    367    369     1   0.10910 283424.160000
    370    371     1   0.10969 276646.080000
    370    372     1   0.10969 276646.080000
    373    374     1   0.10969 276646.080000
    373    375     1   0.10969 276646.080000
    376    377     1   0.10969 276646.080000
    376    378     1   0.10969 276646.080000
    379    380     1   0.10969 276646.080000
    379    381     1   0.10969 276646.080000
    382    383     1   0.10969 276646.080000
    382    384     1   0.10969 276646.080000
    385    386     1   0.10969 276646.080000
    385    387     1   0.10969 276646.080000
    390    419     1   0.10304 312293.760000
    391    392     1   0.10910 283424.160000
    391    393     1   0.10910 283424.160000
    394    395     1   0.10910 283424.160000
    394    396     1   0.10910 283424.160000
    397    398     1   0.10910 283424.160000
    397    399     1   0.10910 283424.160000
    400    401     1   0.10969 276646.080000
    400    402     1   0.10969 276646.080000
    403    404     1   0.10969 276646.080000
    403    405     1   0.10969 276646.080000
    406    407     1   0.10969 276646.080000
    406    408     1   0.10969 276646.080000
    409    410     1   0.10969 276646.080000
    409    411     1   0.10969 276646.080000
    412    413     1   0.10969 276646.080000
    412    414     1   0.10969 276646.080000
    415    416     1   0.10969 276646.080000
    415    417     1   0.10969 276646.080000
    420    449     1   0.10304 312293.760000
    421    422     1   0.10910 283424.160000
    421    423     1   0.10910 283424.160000
    424    425     1   0.10910 283424.160000
    424    426     1   0.10910 283424.160000
    427    428     1   0.10910 283424.160000
    427    429     1   0.10910 283424.160000
    430    431     1   0.10969 276646.080000
    430    432     1   0.10969 276646.080000
    433    434     1   0.10969 276646.080000
    433    435     1   0.10969 276646.080000
    436    437     1   0.10969 276646.080000
    436    438     1   0.10969 276646.080000
    439    440     1   0.10969 276646.080000
    439    441     1   0.10969 276646.080000
    442    443     1   0.10969 276646.080000
    442    444     1   0.10969 276646.080000
    445    446     1   0.10969 276646.080000
    445    447     1   0.10969 276646.080000
    450    479     1   0.10304 312293.760000
    451    452     1   0.10910 283424.160000
    451    453     1   0.10910 283424.160000
    454    455     1   0.10910 283424.160000
    454    456     1   0.10910 283424.160000
    457    458     1   0.10910 283424.160000
    457    459     1   0.10910 283424.160000
    460    461     1   0.10969 276646.080000
    460    462     1   0.10969 276646.080000
    463    464     1   0.10969 276646.080000
    463    465     1   0.10969 276646.080000
    466    467     1   0.10969 276646.080000
    466    468     1   0.10969 276646.080000
    469    470     1   0.10969 276646.080000
    469    471     1   0.10969 276646.080000
    472    473     1   0.10969 276646.080000
    472    474     1   0.10969 276646.080000
    475    476     1   0.10969 276646.080000
    475    477     1   0.10969 276646.080000
    480    509     1   0.10304 312293.760000
    481    482     1   0.10910 283424.160000
    481    483     1   0.10910 283424.160000
    484    485     1   0.10910 283424.160000
    484    486     1   0.10910 283424.160000
    487    488     1   0.10910 283424.160000
    487    489     1   0.10910 283424.160000
    490    491     1   0.10969 276646.080000
    490    492     1   0.10969 276646.080000
    493    494     1   0.10969 276646.080000
    493    495     1   0.10969 276646.080000
    496    497     1   0.10969 276646.080000
    496    498     1   0.10969 276646.080000
    499    500     1   0.10969 276646.080000
    499    501     1   0.10969 276646.080000
    502    503     1   0.10969 276646.080000
    502    504     1   0.10969 276646.080000
    505    506     1   0.10969 276646.080000
    505    507     1   0.10969 276646.080000
    510    539     1   0.10304 312293.760000
    511    512     1   0.10910 283424.160000
    511    513     1   0.10910 283424.160000
    514    515     1   0.10910 283424.160000
    514    516     1   0.10910 283424.160000
    517    518     1   0.10910 283424.160000
    517    519     1   0.10910 283424.160000
    520    521     1   0.10969 276646.080000
    520    522     1   0.10969 276646.080000
    523    524     1   0.10969 276646.080000
    523    525     1   0.10969 276646.080000
    526    527     1   0.10969 276646.080000
    526    528     1   0.10969 276646.080000
    529    530     1   0.10969 276646.080000
    529    531     1   0.10969 276646.080000
    532    533     1   0.10969 276646.080000
    532    534     1   0.10969 276646.080000
    535    536     1   0.10969 276646.080000
    535    537     1   0.10969 276646.080000
    540    569     1   0.10304 312293.760000
    541    542     1   0.10910 283424.160000
    541    543     1   0.10910 283424.160000
    544    545     1   0.10910 283424.160000
    544    546     1   0.10910 283424.160000
    547    548     1   0.10910 283424.160000
    547    549     1   0.10910 283424.160000
    550    551     1   0.10969 276646.080000
    550    552     1   0.10969 276646.080000
    553    554     1   0.10969 276646.080000
    553    555     1   0.10969 276646.080000
    556    557     1   0.10969 276646.080000
    556    558     1   0.10969 276646.080000
    559    560     1   0.10969 276646.080000
    559    561     1   0.10969 276646.080000
    562    563     1   0.10969 276646.080000
    562    564     1   0.10969 276646.080000
    565    566     1   0.10969 276646.080000
    565    567     1   0.10969 276646.080000
    570    599     1   0.10304 312293.760000
    571    572     1   0.10910 283424.160000
    571    573     1   0.10910 283424.160000
    574    575     1   0.10910 283424.160000
    574    576     1   0.10910 283424.160000
    577    578     1   0.10910 283424.160000
    577    579     1   0.10910 283424.160000
    580    581     1   0.10969 276646.080000
    580    582     1   0.10969 276646.080000
    583    584     1   0.10969 276646.080000
    583    585     1   0.10969 276646.080000
    586    587     1   0.10969 276646.080000
    586    588     1   0.10969 276646.080000
    589    590     1   0.10969 276646.080000
    589    591     1   0.10969 276646.080000
    592    593     1   0.10969 276646.080000
    592    594     1   0.10969 276646.080000
    595    596     1   0.10969 276646.080000
    595    597     1   0.10969 276646.080000
    600    629     1   0.10304 312293.760000
    601    602     1   0.10910 283424.160000
    601    603     1   0.10910 283424.160000
    604    605     1   0.10910 283424.160000
    604    606     1   0.10910 283424.160000
    607    608     1   0.10910 283424.160000
    607    609     1   0.10910 283424.160000
    610    611     1   0.10969 276646.080000
    610    612     1   0.10969 276646.080000
    613    614     1   0.10969 276646.080000
    613    615     1   0.10969 276646.080000
    616    617     1   0.10969 276646.080000
    616    618     1   0.10969 276646.080000
    619    620     1   0.10969 276646.080000
    619    621     1   0.10969 276646.080000
    622    623     1   0.10969 276646.080000
    622    624     1   0.10969 276646.080000
    625    626     1   0.10969 276646.080000
    625    627     1   0.10969 276646.080000
    630    659     1   0.10304 312293.760000
    631    632     1   0.10910 283424.160000
    631    633     1   0.10910 283424.160000
    634    635     1   0.10910 283424.160000
    634    636     1   0.10910 283424.160000
    637    638     1   0.10910 283424.160000
    637    639     1   0.10910 283424.160000
    640    641     1   0.10969 276646.080000
    640    642     1   0.10969 276646.080000
    643    644     1   0.10969 276646.080000
    643    645     1   0.10969 276646.080000
    646    647     1   0.10969 276646.080000
    646    648     1   0.10969 276646.080000
    649    650     1   0.10969 276646.080000
    649    651     1   0.10969 276646.080000
    652    653     1   0.10969 276646.080000
    652    654     1   0.10969 276646.080000
    655    656     1   0.10969 276646.080000
    655    657     1   0.10969 276646.080000
    660    689     1   0.10304 312293.760000
    661    662     1   0.10910 283424.160000
    661    663     1   0.10910 283424.160000
    664    665     1   0.10910 283424.160000
    664    666     1   0.10910 283424.160000
    667    668     1   0.10910 283424.160000
    667    669     1   0.10910 283424.160000
    670    671     1   0.10969 276646.080000
    670    672     1   0.10969 276646.080000
    673    674     1   0.10969 276646.080000
    673    675     1   0.10969 276646.080000
    676    677     1   0.10969 276646.080000
    676    678     1   0.10969 276646.080000
    679    680     1   0.10969 276646.080000
    679    681     1   0.10969 276646.080000
    682    683     1   0.10969 276646.080000
    682    684     1   0.10969 276646.080000
    685    686     1   0.10969 276646.080000
    685    687     1   0.10969 276646.080000
    690    719     1   0.10304 312293.760000
    691    692     1   0.10910 283424.160000
    691    693     1   0.10910 283424.160000
    694    695     1   0.10910 283424.160000
    694    696     1   0.10910 283424.160000
    697    698     1   0.10910 283424.160000
    697    699     1   0.10910 283424.160000
    700    701     1   0.10969 276646.080000
    700    702     1   0.10969 276646.080000
    703    704     1   0.10969 276646.080000
    703    705     1   0.10969 276646.080000
    706    707     1   0.10969 276646.080000
    706    708     1   0.10969 276646.080000
    709    710     1   0.10969 276646.080000
    709    711     1   0.10969 276646.080000
    712    713     1   0.10969 276646.080000
    712    714     1   0.10969 276646.080000
    715    716     1   0.10969 276646.080000
    715    717     1   0.10969 276646.080000
    720    749     1   0.10304 312293.760000
    721    722     1   0.10910 283424.160000
    721    723     1   0.10910 283424.160000
    724    725     1   0.10910 283424.160000
    724    726     1   0.10910 283424.160000
    727    728     1   0.10910 283424.160000
    727    729     1   0.10910 283424.160000
    730    731     1   0.10969 276646.080000
    730    732     1   0.10969 276646.080000
    733    734     1   0.10969 276646.080000
    733    735     1   0.10969 276646.080000
    736    737     1   0.10969 276646.080000
    736    738     1   0.10969 276646.080000
    739    740     1   0.10969 276646.080000
    739    741     1   0.10969 276646.080000
    742    743     1   0.10969 276646.080000
    742    744     1   0.10969 276646.080000
    745    746     1   0.10969 276646.080000
    745    747     1   0.10969 276646.080000
    750    779     1   0.10304 312293.760000
    751    752     1   0.10910 283424.160000
    751    753     1   0.10910 283424.160000
    754    755     1   0.10910 283424.160000
    754    756     1   0.10910 283424.160000
    757    758     1   0.10910 283424.160000
    757    759     1   0.10910 283424.160000
    760    761     1   0.10969 276646.080000
    760    762     1   0.10969 276646.080000
    763    764     1   0.10969 276646.080000
    763    765     1   0.10969 276646.080000
    766    767     1   0.10969 276646.080000
    766    768     1   0.10969 276646.080000
    769    770     1   0.10969 276646.080000
    769    771     1   0.10969 276646.080000
    772    773     1   0.10969 276646.080000
    772    774     1   0.10969 276646.080000
    775    776     1   0.10969 276646.080000
    775    777     1   0.10969 276646.080000
    780    809     1   0.10304 312293.760000
    781    782     1   0.10910 283424.160000
    781    783     1   0.10910 283424.160000
    784    785     1   0.10910 283424.160000
    784    786     1   0.10910 283424.160000
    787    788     1   0.10910 283424.160000
    787    789     1   0.10910 283424.160000
    790    791     1   0.10969 276646.080000
    790    792     1   0.10969 276646.080000
    793    794     1   0.10969 276646.080000
    793    795     1   0.10969 276646.080000
    796    797     1   0.10969 276646.080000
    796    798     1   0.10969 276646.080000
    799    800     1   0.10969 276646.080000
    799    801     1   0.10969 276646.080000
    802    803     1   0.10969 276646.080000
    802    804     1   0.10969 276646.080000
    805    806     1   0.10969 276646.080000
    805    807     1   0.10969 276646.080000
    810    839     1   0.10304 312293.760000
    811    812     1   0.10910 283424.160000
    811    813     1   0.10910 283424.160000
    814    815     1   0.10910 283424.160000
    814    816     1   0.10910 283424.160000
    817    818     1   0.10910 283424.160000
    817    819     1   0.10910 283424.160000
    820    821     1   0.10969 276646.080000
    820    822     1   0.10969 276646.080000
    823    824     1   0.10969 276646.080000
    823    825     1   0.10969 276646.080000
    826    827     1   0.10969 276646.080000
    826    828     1   0.10969 276646.080000
    829    830     1   0.10969 276646.080000
    829    831     1   0.10969 276646.080000
    832    833     1   0.10969 276646.080000
    832    834     1   0.10969 276646.080000
    835    836     1   0.10969 276646.080000
    835    837     1   0.10969 276646.080000
    840    869     1   0.10304 312293.760000
    841    842     1   0.10910 283424.160000
    841    843     1   0.10910 283424.160000
    844    845     1   0.10910 283424.160000
    844    846     1   0.10910 283424.160000
    847    848     1   0.10910 283424.160000
    847    849     1   0.10910 283424.160000
    850    851     1   0.10969 276646.080000
    850    852     1   0.10969 276646.080000
    853    854     1   0.10969 276646.080000
    853    855     1   0.10969 276646.080000
    856    857     1   0.10969 276646.080000
    856    858     1   0.10969 276646.080000
    859    860     1   0.10969 276646.080000
    859    861     1   0.10969 276646.080000
    862    863     1   0.10969 276646.080000
    862    864     1   0.10969 276646.080000
    865    866     1   0.10969 276646.080000
    865    867     1   0.10969 276646.080000
    870    899     1   0.10304 312293.760000
    871    872     1   0.10910 283424.160000
    871    873     1   0.10910 283424.160000
    874    875     1   0.10910 283424.160000
    874    876     1   0.10910 283424.160000
    877    878     1   0.10910 283424.160000
    877    879     1   0.10910 283424.160000
    880    881     1   0.10969 276646.080000
    880    882     1   0.10969 276646.080000
    883    884     1   0.10969 276646.080000
    883    885     1   0.10969 276646.080000
    886    887     1   0.10969 276646.080000
    886    888     1   0.10969 276646.080000
    889    890     1   0.10969 276646.080000
    889    891     1   0.10969 276646.080000
    892    893     1   0.10969 276646.080000
    892    894     1   0.10969 276646.080000
    895    896     1   0.10969 276646.080000
    895    897     1   0.10969 276646.080000
    900    929     1   0.10304 312293.760000
    901    902     1   0.10910 283424.160000
    901    903     1   0.10910 283424.160000
    904    905     1   0.10910 283424.160000
    904    906     1   0.10910 283424.160000
    907    908     1   0.10910 283424.160000
    907    909     1   0.10910 283424.160000
    910    911     1   0.10969 276646.080000
    910    912     1   0.10969 276646.080000
    913    914     1   0.10969 276646.080000
    913    915     1   0.10969 276646.080000
    916    917     1   0.10969 276646.080000
    916    918     1   0.10969 276646.080000
    919    920     1   0.10969 276646.080000
    919    921     1   0.10969 276646.080000
    922    923     1   0.10969 276646.080000
    922    924     1   0.10969 276646.080000
    925    926     1   0.10969 276646.080000
    925    927     1   0.10969 276646.080000
    930    959     1   0.10304 312293.760000
    931    932     1   0.10910 283424.160000
    931    933     1   0.10910 283424.160000
    934    935     1   0.10910 283424.160000
    934    936     1   0.10910 283424.160000
    937    938     1   0.10910 283424.160000
    937    939     1   0.10910 283424.160000
    940    941     1   0.10969 276646.080000
    940    942     1   0.10969 276646.080000
    943    944     1   0.10969 276646.080000
    943    945     1   0.10969 276646.080000
    946    947     1   0.10969 276646.080000
    946    948     1   0.10969 276646.080000
    949    950     1   0.10969 276646.080000
    949    951     1   0.10969 276646.080000
    952    953     1   0.10969 276646.080000
    952    954     1   0.10969 276646.080000
    955    956     1   0.10969 276646.080000
    955    957     1   0.10969 276646.080000
    960    989     1   0.10304 312293.760000
    961    962     1   0.10910 283424.160000
    961    963     1   0.10910 283424.160000
    964    965     1   0.10910 283424.160000
    964    966     1   0.10910 283424.160000
    967    968     1   0.10910 283424.160000
    967    969     1   0.10910 283424.160000
    970    971     1   0.10969 276646.080000
    970    972     1   0.10969 276646.080000
    973    974     1   0.10969 276646.080000
    973    975     1   0.10969 276646.080000
    976    977     1   0.10969 276646.080000
    976    978     1   0.10969 276646.080000
    979    980     1   0.10969 276646.080000
    979    981     1   0.10969 276646.080000
    982    983     1   0.10969 276646.080000
    982    984     1   0.10969 276646.080000
    985    986     1   0.10969 276646.080000
    985    987     1   0.10969 276646.080000
    990   1019     1   0.10304 312293.760000
    991    992     1   0.10910 283424.160000
    991    993     1   0.10910 283424.160000
    994    995     1   0.10910 283424.160000
    994    996     1   0.10910 283424.160000
    997    998     1   0.10910 283424.160000
    997    999     1   0.10910 283424.160000
   1000   1001     1   0.10969 276646.080000
   1000   1002     1   0.10969 276646.080000
   1003   1004     1   0.10969 276646.080000
   1003   1005     1   0.10969 276646.080000
   1006   1007     1   0.10969 276646.080000
   1006   1008     1   0.10969 276646.080000
   1009   1010     1   0.10969 276646.080000
   1009   1011     1   0.10969 276646.080000
   1012   1013     1   0.10969 276646.080000
   1012   1014     1   0.10969 276646.080000
   1015   1016     1   0.10969 276646.080000
   1015   1017     1   0.10969 276646.080000
   1020   1049     1   0.10304 312293.760000
   1021   1022     1   0.10910 283424.160000
   1021   1023     1   0.10910 283424.160000
   1024   1025     1   0.10910 283424.160000
   1024   1026     1   0.10910 283424.160000
   1027   1028     1   0.10910 283424.160000
   1027   1029     1   0.10910 283424.160000
   1030   1031     1   0.10969 276646.080000
   1030   1032     1   0.10969 276646.080000
   1033   1034     1   0.10969 276646.080000
   1033   1035     1   0.10969 276646.080000
   1036   1037     1   0.10969 276646.080000
   1036   1038     1   0.10969 276646.080000
   1039   1040     1   0.10969 276646.080000
   1039   1041     1   0.10969 276646.080000
   1042   1043     1   0.10969 276646.080000
   1042   1044     1   0.10969 276646.080000
   1045   1046     1   0.10969 276646.080000
   1045   1047     1   0.10969 276646.080000
   1050   1079     1   0.10304 312293.760000
   1051   1052     1   0.10910 283424.160000
   1051   1053     1   0.10910 283424.160000
   1054   1055     1   0.10910 283424.160000
   1054   1056     1   0.10910 283424.160000
   1057   1058     1   0.10910 283424.160000
   1057   1059     1   0.10910 283424.160000
   1060   1061     1   0.10969 276646.080000
   1060   1062     1   0.10969 276646.080000
   1063   1064     1   0.10969 276646.080000
   1063   1065     1   0.10969 276646.080000
   1066   1067     1   0.10969 276646.080000
   1066   1068     1   0.10969 276646.080000
   1069   1070     1   0.10969 276646.080000
   1069   1071     1   0.10969 276646.080000
   1072   1073     1   0.10969 276646.080000
   1072   1074     1   0.10969 276646.080000
   1075   1076     1   0.10969 276646.080000
   1075   1077     1   0.10969 276646.080000
   1080   1109     1   0.10304 312293.760000
   1081   1082     1   0.10910 283424.160000
   1081   1083     1   0.10910 283424.160000
   1084   1085     1   0.10910 283424.160000
   1084   1086     1   0.10910 283424.160000
   1087   1088     1   0.10910 283424.160000
   1087   1089     1   0.10910 283424.160000
   1090   1091     1   0.10969 276646.080000
   1090   1092     1   0.10969 276646.080000
   1093   1094     1   0.10969 276646.080000
   1093   1095     1   0.10969 276646.080000
   1096   1097     1   0.10969 276646.080000
   1096   1098     1   0.10969 276646.080000
   1099   1100     1   0.10969 276646.080000
   1099   1101     1   0.10969 276646.080000
   1102   1103     1   0.10969 276646.080000
   1102   1104     1   0.10969 276646.080000
   1105   1106     1   0.10969 276646.080000
   1105   1107     1   0.10969 276646.080000
   1110   1139     1   0.10304 312293.760000
   1111   1112     1   0.10910 283424.160000
   1111   1113     1   0.10910 283424.160000
   1114   1115     1   0.10910 283424.160000
   1114   1116     1   0.10910 283424.160000
   1117   1118     1   0.10910 283424.160000
   1117   1119     1   0.10910 283424.160000
   1120   1121     1   0.10969 276646.080000
   1120   1122     1   0.10969 276646.080000
   1123   1124     1   0.10969 276646.080000
   1123   1125     1   0.10969 276646.080000
   1126   1127     1   0.10969 276646.080000
   1126   1128     1   0.10969 276646.080000
   1129   1130     1   0.10969 276646.080000
   1129   1131     1   0.10969 276646.080000
   1132   1133     1   0.10969 276646.080000
   1132   1134     1   0.10969 276646.080000
   1135   1136     1   0.10969 276646.080000
   1135   1137     1   0.10969 276646.080000
   1140   1169     1   0.10304 312293.760000
   1141   1142     1   0.10910 283424.160000
   1141   1143     1   0.10910 283424.160000
   1144   1145     1   0.10910 283424.160000
   1144   1146     1   0.10910 283424.160000
   1147   1148     1   0.10910 283424.160000
   1147   1149     1   0.10910 283424.160000
   1150   1151     1   0.10969 276646.080000
   1150   1152     1   0.10969 276646.080000
   1153   1154     1   0.10969 276646.080000
   1153   1155     1   0.10969 276646.080000
   1156   1157     1   0.10969 276646.080000
   1156   1158     1   0.10969 276646.080000
   1159   1160     1   0.10969 276646.080000
   1159   1161     1   0.10969 276646.080000
   1162   1163     1   0.10969 276646.080000
   1162   1164     1   0.10969 276646.080000
   1165   1166     1   0.10969 276646.080000
   1165   1167     1   0.10969 276646.080000
   1170   1199     1   0.10304 312293.760000
   1171   1172     1   0.10910 283424.160000
   1171   1173     1   0.10910 283424.160000
   1174   1175     1   0.10910 283424.160000
   1174   1176     1   0.10910 283424.160000
   1177   1178     1   0.10910 283424.160000
   1177   1179     1   0.10910 283424.160000
   1180   1181     1   0.10969 276646.080000
   1180   1182     1   0.10969 276646.080000
   1183   1184     1   0.10969 276646.080000
   1183   1185     1   0.10969 276646.080000
   1186   1187     1   0.10969 276646.080000
   1186   1188     1   0.10969 276646.080000
   1189   1190     1   0.10969 276646.080000
   1189   1191     1   0.10969 276646.080000
   1192   1193     1   0.10969 276646.080000
   1192   1194     1   0.10969 276646.080000
   1195   1196     1   0.10969 276646.080000
   1195   1197     1   0.10969 276646.080000
   1200   1229     1   0.10304 312293.760000
   1201   1202     1   0.10910 283424.160000
   1201   1203     1   0.10910 283424.160000
   1204   1205     1   0.10910 283424.160000
   1204   1206     1   0.10910 283424.160000
   1207   1208     1   0.10910 283424.160000
   1207   1209     1   0.10910 283424.160000
   1210   1211     1   0.10969 276646.080000
   1210   1212     1   0.10969 276646.080000
   1213   1214     1   0.10969 276646.080000
   1213   1215     1   0.10969 276646.080000
   1216   1217     1   0.10969 276646.080000
   1216   1218     1   0.10969 276646.080000
   1219   1220     1   0.10969 276646.080000
   1219   1221     1   0.10969 276646.080000
   1222   1223     1   0.10969 276646.080000
   1222   1224     1   0.10969 276646.080000
   1225   1226     1   0.10969 276646.080000
   1225   1227     1   0.10969 276646.080000
   1230   1259     1   0.10304 312293.760000
   1231   1232     1   0.10910 283424.160000
   1231   1233     1   0.10910 283424.160000
   1234   1235     1   0.10910 283424.160000
   1234   1236     1   0.10910 283424.160000
   1237   1238     1   0.10910 283424.160000
   1237   1239     1   0.10910 283424.160000
   1240   1241     1   0.10969 276646.080000
   1240   1242     1   0.10969 276646.080000
   1243   1244     1   0.10969 276646.080000
   1243   1245     1   0.10969 276646.080000
   1246   1247     1   0.10969 276646.080000
   1246   1248     1   0.10969 276646.080000
   1249   1250     1   0.10969 276646.080000
   1249   1251     1   0.10969 276646.080000
   1252   1253     1   0.10969 276646.080000
   1252   1254     1   0.10969 276646.080000
   1255   1256     1   0.10969 276646.080000
   1255   1257     1   0.10969 276646.080000
   1260   1289     1   0.10304 312293.760000
   1261   1262     1   0.10910 283424.160000
   1261   1263     1   0.10910 283424.160000
   1264   1265     1   0.10910 283424.160000
   1264   1266     1   0.10910 283424.160000
   1267   1268     1   0.10910 283424.160000
   1267   1269     1   0.10910 283424.160000
   1270   1271     1   0.10969 276646.080000
   1270   1272     1   0.10969 276646.080000
   1273   1274     1   0.10969 276646.080000
   1273   1275     1   0.10969 276646.080000
   1276   1277     1   0.10969 276646.080000
   1276   1278     1   0.10969 276646.080000
   1279   1280     1   0.10969 276646.080000
   1279   1281     1   0.10969 276646.080000
   1282   1283     1   0.10969 276646.080000
   1282   1284     1   0.10969 276646.080000
   1285   1286     1   0.10969 276646.080000
   1285   1287     1   0.10969 276646.080000
   1290   1319     1   0.10304 312293.760000
   1291   1292     1   0.10910 283424.160000
   1291   1293     1   0.10910 283424.160000
   1294   1295     1   0.10910 283424.160000
   1294   1296     1   0.10910 283424.160000
   1297   1298     1   0.10910 283424.160000
   1297   1299     1   0.10910 283424.160000
   1300   1301     1   0.10969 276646.080000
   1300   1302     1   0.10969 276646.080000
   1303   1304     1   0.10969 276646.080000
   1303   1305     1   0.10969 276646.080000
   1306   1307     1   0.10969 276646.080000
   1306   1308     1   0.10969 276646.080000
   1309   1310     1   0.10969 276646.080000
   1309   1311     1   0.10969 276646.080000
   1312   1313     1   0.10969 276646.080000
   1312   1314     1   0.10969 276646.080000
   1315   1316     1   0.10969 276646.080000
   1315   1317     1   0.10969 276646.080000
   1320   1349     1   0.10304 312293.760000
   1321   1322     1   0.10910 283424.160000
   1321   1323     1   0.10910 283424.160000
   1324   1325     1   0.10910 283424.160000
   1324   1326     1   0.10910 283424.160000
   1327   1328     1   0.10910 283424.160000
   1327   1329     1   0.10910 283424.160000
   1330   1331     1   0.10969 276646.080000
   1330   1332     1   0.10969 276646.080000
   1333   1334     1   0.10969 276646.080000
   1333   1335     1   0.10969 276646.080000
   1336   1337     1   0.10969 276646.080000
   1336   1338     1   0.10969 276646.080000
   1339   1340     1   0.10969 276646.080000
   1339   1341     1   0.10969 276646.080000
   1342   1343     1   0.10969 276646.080000
   1342   1344     1   0.10969 276646.080000
   1345   1346     1   0.10969 276646.080000
   1345   1347     1   0.10969 276646.080000
   1350   1379     1   0.10304 312293.760000
   1351   1352     1   0.10910 283424.160000
   1351   1353     1   0.10910 283424.160000
   1354   1355     1   0.10910 283424.160000
   1354   1356     1   0.10910 283424.160000
   1357   1358     1   0.10910 283424.160000
   1357   1359     1   0.10910 283424.160000
   1360   1361     1   0.10969 276646.080000
   1360   1362     1   0.10969 276646.080000
   1363   1364     1   0.10969 276646.080000
   1363   1365     1   0.10969 276646.080000
   1366   1367     1   0.10969 276646.080000
   1366   1368     1   0.10969 276646.080000
   1369   1370     1   0.10969 276646.080000
   1369   1371     1   0.10969 276646.080000
   1372   1373     1   0.10969 276646.080000
   1372   1374     1   0.10969 276646.080000
   1375   1376     1   0.10969 276646.080000
   1375   1377     1   0.10969 276646.080000
   1380   1409     1   0.10304 312293.760000
   1381   1382     1   0.10910 283424.160000
   1381   1383     1   0.10910 283424.160000
   1384   1385     1   0.10910 283424.160000
   1384   1386     1   0.10910 283424.160000
   1387   1388     1   0.10910 283424.160000
   1387   1389     1   0.10910 283424.160000
   1390   1391     1   0.10969 276646.080000
   1390   1392     1   0.10969 276646.080000
   1393   1394     1   0.10969 276646.080000
   1393   1395     1   0.10969 276646.080000
   1396   1397     1   0.10969 276646.080000
   1396   1398     1   0.10969 276646.080000
   1399   1400     1   0.10969 276646.080000
   1399   1401     1   0.10969 276646.080000
   1402   1403     1   0.10969 276646.080000
   1402   1404     1   0.10969 276646.080000
   1405   1406     1   0.10969 276646.080000
   1405   1407     1   0.10969 276646.080000
   1410   1439     1   0.10304 312293.760000
   1411   1412     1   0.10910 283424.160000
   1411   1413     1   0.10910 283424.160000
   1414   1415     1   0.10910 283424.160000
   1414   1416     1   0.10910 283424.160000
   1417   1418     1   0.10910 283424.160000
   1417   1419     1   0.10910 283424.160000
   1420   1421     1   0.10969 276646.080000
   1420   1422     1   0.10969 276646.080000
   1423   1424     1   0.10969 276646.080000
   1423   1425     1   0.10969 276646.080000
   1426   1427     1   0.10969 276646.080000
   1426   1428     1   0.10969 276646.080000
   1429   1430     1   0.10969 276646.080000
   1429   1431     1   0.10969 276646.080000
   1432   1433     1   0.10969 276646.080000
   1432   1434     1   0.10969 276646.080000
   1435   1436     1   0.10969 276646.080000
   1435   1437     1   0.10969 276646.080000
   1440   1469     1   0.10304 312293.760000
   1441   1442     1   0.10910 283424.160000
   1441   1443     1   0.10910 283424.160000
   1444   1445     1   0.10910 283424.160000
   1444   1446     1   0.10910 283424.160000
   1447   1448     1   0.10910 283424.160000
   1447   1449     1   0.10910 283424.160000
   1450   1451     1   0.10969 276646.080000
   1450   1452     1   0.10969 276646.080000
   1453   1454     1   0.10969 276646.080000
   1453   1455     1   0.10969 276646.080000
   1456   1457     1   0.10969 276646.080000
   1456   1458     1   0.10969 276646.080000
   1459   1460     1   0.10969 276646.080000
   1459   1461     1   0.10969 276646.080000
   1462   1463     1   0.10969 276646.080000
   1462   1464     1   0.10969 276646.080000
   1465   1466     1   0.10969 276646.080000
   1465   1467     1   0.10969 276646.080000
   1470   1499     1   0.10304 312293.760000
   1471   1472     1   0.10910 283424.160000
   1471   1473     1   0.10910 283424.160000
   1474   1475     1   0.10910 283424.160000
   1474   1476     1   0.10910 283424.160000
   1477   1478     1   0.10910 283424.160000
   1477   1479     1   0.10910 283424.160000
   1480   1481     1   0.10969 276646.080000
   1480   1482     1   0.10969 276646.080000
   1483   1484     1   0.10969 276646.080000
   1483   1485     1   0.10969 276646.080000
   1486   1487     1   0.10969 276646.080000
   1486   1488     1   0.10969 276646.080000
   1489   1490     1   0.10969 276646.080000
   1489   1491     1   0.10969 276646.080000
   1492   1493     1   0.10969 276646.080000
   1492   1494     1   0.10969 276646.080000
   1495   1496     1   0.10969 276646.080000
   1495   1497     1   0.10969 276646.080000
   1500   1529     1   0.10304 312293.760000
   1501   1502     1   0.10910 283424.160000
   1501   1503     1   0.10910 283424.160000
   1504   1505     1   0.10910 283424.160000
   1504   1506     1   0.10910 283424.160000
   1507   1508     1   0.10910 283424.160000
   1507   1509     1   0.10910 283424.160000
   1510   1511     1   0.10969 276646.080000
   1510   1512     1   0.10969 276646.080000
   1513   1514     1   0.10969 276646.080000
   1513   1515     1   0.10969 276646.080000
   1516   1517     1   0.10969 276646.080000
   1516   1518     1   0.10969 276646.080000
   1519   1520     1   0.10969 276646.080000
   1519   1521     1   0.10969 276646.080000
   1522   1523     1   0.10969 276646.080000
   1522   1524     1   0.10969 276646.080000
   1525   1526     1   0.10969 276646.080000
   1525   1527     1   0.10969 276646.080000
   1530   1559     1   0.10304 312293.760000
   1531   1532     1   0.10910 283424.160000
   1531   1533     1   0.10910 283424.160000
   1534   1535     1   0.10910 283424.160000
   1534   1536     1   0.10910 283424.160000
   1537   1538     1   0.10910 283424.160000
   1537   1539     1   0.10910 283424.160000
   1540   1541     1   0.10969 276646.080000
   1540   1542     1   0.10969 276646.080000
   1543   1544     1   0.10969 276646.080000
   1543   1545     1   0.10969 276646.080000
   1546   1547     1   0.10969 276646.080000
   1546   1548     1   0.10969 276646.080000
   1549   1550     1   0.10969 276646.080000
   1549   1551     1   0.10969 276646.080000
   1552   1553     1   0.10969 276646.080000
   1552   1554     1   0.10969 276646.080000
   1555   1556     1   0.10969 276646.080000
   1555   1557     1   0.10969 276646.080000
   1560   1589     1   0.10304 312293.760000
   1561   1562     1   0.10910 283424.160000
   1561   1563     1   0.10910 283424.160000
   1564   1565     1   0.10910 283424.160000
   1564   1566     1   0.10910 283424.160000
   1567   1568     1   0.10910 283424.160000
   1567   1569     1   0.10910 283424.160000
   1570   1571     1   0.10969 276646.080000
   1570   1572     1   0.10969 276646.080000
   1573   1574     1   0.10969 276646.080000
   1573   1575     1   0.10969 276646.080000
   1576   1577     1   0.10969 276646.080000
   1576   1578     1   0.10969 276646.080000
   1579   1580     1   0.10969 276646.080000
   1579   1581     1   0.10969 276646.080000
   1582   1583     1   0.10969 276646.080000
   1582   1584     1   0.10969 276646.080000
   1585   1586     1   0.10969 276646.080000
   1585   1587     1   0.10969 276646.080000
   1590   1619     1   0.10304 312293.760000
   1591   1592     1   0.10910 283424.160000
   1591   1593     1   0.10910 283424.160000
   1594   1595     1   0.10910 283424.160000
   1594   1596     1   0.10910 283424.160000
   1597   1598     1   0.10910 283424.160000
   1597   1599     1   0.10910 283424.160000
   1600   1601     1   0.10969 276646.080000
   1600   1602     1   0.10969 276646.080000
   1603   1604     1   0.10969 276646.080000
   1603   1605     1   0.10969 276646.080000
   1606   1607     1   0.10969 276646.080000
   1606   1608     1   0.10969 276646.080000
   1609   1610     1   0.10969 276646.080000
   1609   1611     1   0.10969 276646.080000
   1612   1613     1   0.10969 276646.080000
   1612   1614     1   0.10969 276646.080000
   1615   1616     1   0.10969 276646.080000
   1615   1617     1   0.10969 276646.080000
   1620   1649     1   0.10304 312293.760000
   1621   1622     1   0.10910 283424.160000
   1621   1623     1   0.10910 283424.160000
   1624   1625     1   0.10910 283424.160000
   1624   1626     1   0.10910 283424.160000
   1627   1628     1   0.10910 283424.160000
   1627   1629     1   0.10910 283424.160000
   1630   1631     1   0.10969 276646.080000
   1630   1632     1   0.10969 276646.080000
   1633   1634     1   0.10969 276646.080000
   1633   1635     1   0.10969 276646.080000
   1636   1637     1   0.10969 276646.080000
   1636   1638     1   0.10969 276646.080000
   1639   1640     1   0.10969 276646.080000
   1639   1641     1   0.10969 276646.080000
   1642   1643     1   0.10969 276646.080000
   1642   1644     1   0.10969 276646.080000
   1645   1646     1   0.10969 276646.080000
   1645   1647     1   0.10969 276646.080000
   1650   1679     1   0.10304 312293.760000
   1651   1652     1   0.10910 283424.160000
   1651   1653     1   0.10910 283424.160000
   1654   1655     1   0.10910 283424.160000
   1654   1656     1   0.10910 283424.160000
   1657   1658     1   0.10910 283424.160000
   1657   1659     1   0.10910 283424.160000
   1660   1661     1   0.10969 276646.080000
   1660   1662     1   0.10969 276646.080000
   1663   1664     1   0.10969 276646.080000
   1663   1665     1   0.10969 276646.080000
   1666   1667     1   0.10969 276646.080000
   1666   1668     1   0.10969 276646.080000
   1669   1670     1   0.10969 276646.080000
   1669   1671     1   0.10969 276646.080000
   1672   1673     1   0.10969 276646.080000
   1672   1674     1   0.10969 276646.080000
   1675   1676     1   0.10969 276646.080000
   1675   1677     1   0.10969 276646.080000
   1680   1709     1   0.10304 312293.760000
   1681   1682     1   0.10910 283424.160000
   1681   1683     1   0.10910 283424.160000
   1684   1685     1   0.10910 283424.160000
   1684   1686     1   0.10910 283424.160000
   1687   1688     1   0.10910 283424.160000
   1687   1689     1   0.10910 283424.160000
   1690   1691     1   0.10969 276646.080000
   1690   1692     1   0.10969 276646.080000
   1693   1694     1   0.10969 276646.080000
   1693   1695     1   0.10969 276646.080000
   1696   1697     1   0.10969 276646.080000
   1696   1698     1   0.10969 276646.080000
   1699   1700     1   0.10969 276646.080000
   1699   1701     1   0.10969 276646.080000
   1702   1703     1   0.10969 276646.080000
   1702   1704     1   0.10969 276646.080000
   1705   1706     1   0.10969 276646.080000
   1705   1707     1   0.10969 276646.080000
   1710   1739     1   0.10304 312293.760000
   1711   1712     1   0.10910 283424.160000
   1711   1713     1   0.10910 283424.160000
   1714   1715     1   0.10910 283424.160000
   1714   1716     1   0.10910 283424.160000
   1717   1718     1   0.10910 283424.160000
   1717   1719     1   0.10910 283424.160000
   1720   1721     1   0.10969 276646.080000
   1720   1722     1   0.10969 276646.080000
   1723   1724     1   0.10969 276646.080000
   1723   1725     1   0.10969 276646.080000
   1726   1727     1   0.10969 276646.080000
   1726   1728     1   0.10969 276646.080000
   1729   1730     1   0.10969 276646.080000
   1729   1731     1   0.10969 276646.080000
   1732   1733     1   0.10969 276646.080000
   1732   1734     1   0.10969 276646.080000
   1735   1736     1   0.10969 276646.080000
   1735   1737     1   0.10969 276646.080000
   1740   1769     1   0.10304 312293.760000
   1741   1742     1   0.10910 283424.160000
   1741   1743     1   0.10910 283424.160000
   1744   1745     1   0.10910 283424.160000
   1744   1746     1   0.10910 283424.160000
   1747   1748     1   0.10910 283424.160000
   1747   1749     1   0.10910 283424.160000
   1750   1751     1   0.10969 276646.080000
   1750   1752     1   0.10969 276646.080000
   1753   1754     1   0.10969 276646.080000
   1753   1755     1   0.10969 276646.080000
   1756   1757     1   0.10969 276646.080000
   1756   1758     1   0.10969 276646.080000
   1759   1760     1   0.10969 276646.080000
   1759   1761     1   0.10969 276646.080000
   1762   1763     1   0.10969 276646.080000
   1762   1764     1   0.10969 276646.080000
   1765   1766     1   0.10969 276646.080000
   1765   1767     1   0.10969 276646.080000
   1770   1799     1   0.10304 312293.760000
   1771   1772     1   0.10910 283424.160000
   1771   1773     1   0.10910 283424.160000
   1774   1775     1   0.10910 283424.160000
   1774   1776     1   0.10910 283424.160000
   1777   1778     1   0.10910 283424.160000
   1777   1779     1   0.10910 283424.160000
   1780   1781     1   0.10969 276646.080000
   1780   1782     1   0.10969 276646.080000
   1783   1784     1   0.10969 276646.080000
   1783   1785     1   0.10969 276646.080000
   1786   1787     1   0.10969 276646.080000
   1786   1788     1   0.10969 276646.080000
   1789   1790     1   0.10969 276646.080000
   1789   1791     1   0.10969 276646.080000
   1792   1793     1   0.10969 276646.080000
   1792   1794     1   0.10969 276646.080000
   1795   1796     1   0.10969 276646.080000
   1795   1797     1   0.10969 276646.080000
   1800   1829     1   0.10304 312293.760000
   1801   1802     1   0.10910 283424.160000
   1801   1803     1   0.10910 283424.160000
   1804   1805     1   0.10910 283424.160000
   1804   1806     1   0.10910 283424.160000
   1807   1808     1   0.10910 283424.160000
   1807   1809     1   0.10910 283424.160000
   1810   1811     1   0.10969 276646.080000
   1810   1812     1   0.10969 276646.080000
   1813   1814     1   0.10969 276646.080000
   1813   1815     1   0.10969 276646.080000
   1816   1817     1   0.10969 276646.080000
   1816   1818     1   0.10969 276646.080000
   1819   1820     1   0.10969 276646.080000
   1819   1821     1   0.10969 276646.080000
   1822   1823     1   0.10969 276646.080000
   1822   1824     1   0.10969 276646.080000
   1825   1826     1   0.10969 276646.080000
   1825   1827     1   0.10969 276646.080000
   1830   1859     1   0.10304 312293.760000
   1831   1832     1   0.10910 283424.160000
   1831   1833     1   0.10910 283424.160000
   1834   1835     1   0.10910 283424.160000
   1834   1836     1   0.10910 283424.160000
   1837   1838     1   0.10910 283424.160000
   1837   1839     1   0.10910 283424.160000
   1840   1841     1   0.10969 276646.080000
   1840   1842     1   0.10969 276646.080000
   1843   1844     1   0.10969 276646.080000
   1843   1845     1   0.10969 276646.080000
   1846   1847     1   0.10969 276646.080000
   1846   1848     1   0.10969 276646.080000
   1849   1850     1   0.10969 276646.080000
   1849   1851     1   0.10969 276646.080000
   1852   1853     1   0.10969 276646.080000
   1852   1854     1   0.10969 276646.080000
   1855   1856     1   0.10969 276646.080000
   1855   1857     1   0.10969 276646.080000
   1860   1862     1   0.10969 276646.080000
   1861   1863     1   0.10969 276646.080000
   1864   1868     1   0.10969 276646.080000
   1865   1867     1   0.10969 276646.080000
   1866   1869     1   0.10961 277566.560000
   1871   1877     1   0.09730 310787.520000
   1872   1875     1   0.09730 310787.520000
   1873   1876     1   0.09730 310787.520000
   1874   1878     1   0.10969 276646.080000
   1874   1879     1   0.10969 276646.080000
   1880   1881     1   0.09730 310787.520000
   1883   1885     1   0.10969 276646.080000
   1884   1886     1   0.10969 276646.080000
   1887   1891     1   0.10969 276646.080000
   1888   1890     1   0.10969 276646.080000
   1889   1892     1   0.10961 277566.560000
   1894   1900     1   0.09730 310787.520000
   1895   1898     1   0.09730 310787.520000
   1896   1899     1   0.09730 310787.520000
   1897   1901     1   0.10969 276646.080000
   1897   1902     1   0.10969 276646.080000
   1903   1904     1   0.09730 310787.520000
   1906   1908     1   0.10969 276646.080000
   1907   1909     1   0.10969 276646.080000
   1910   1914     1   0.10969 276646.080000
   1911   1913     1   0.10969 276646.080000
   1912   1915     1   0.10961 277566.560000
   1917   1923     1   0.09730 310787.520000
   1918   1921     1   0.09730 310787.520000
   1919   1922     1   0.09730 310787.520000
   1920   1924     1   0.10969 276646.080000
   1920   1925     1   0.10969 276646.080000
   1926   1927     1   0.09730 310787.520000
   1929   1931     1   0.10969 276646.080000
   1930   1932     1   0.10969 276646.080000
   1933   1937     1   0.10969 276646.080000
   1934   1936     1   0.10969 276646.080000
   1935   1938     1   0.10961 277566.560000
   1940   1946     1   0.09730 310787.520000
   1941   1944     1   0.09730 310787.520000
   1942   1945     1   0.09730 310787.520000
   1943   1947     1   0.10969 276646.080000
   1943   1948     1   0.10969 276646.080000
   1949   1950     1   0.09730 310787.520000
   1952   1954     1   0.10969 276646.080000
   1953   1955     1   0.10969 276646.080000
   1956   1960     1   0.10969 276646.080000
   1957   1959     1   0.10969 276646.080000
   1958   1961     1   0.10961 277566.560000
   1963   1969     1   0.09730 310787.520000
   1964   1967     1   0.09730 310787.520000
   1965   1968     1   0.09730 310787.520000
   1966   1970     1   0.10969 276646.080000
   1966   1971     1   0.10969 276646.080000
   1972   1973     1   0.09730 310787.520000
   1975   1977     1   0.10969 276646.080000
   1976   1978     1   0.10969 276646.080000
   1979   1983     1   0.10969 276646.080000
   1980   1982     1   0.10969 276646.080000
   1981   1984     1   0.10961 277566.560000
   1986   1992     1   0.09730 310787.520000
   1987   1990     1   0.09730 310787.520000
   1988   1991     1   0.09730 310787.520000
   1989   1993     1   0.10969 276646.080000
   1989   1994     1   0.10969 276646.080000
   1995   1996     1   0.09730 310787.520000
   1998   2000     1   0.10969 276646.080000
   1999   2001     1   0.10969 276646.080000
   2002   2006     1   0.10969 276646.080000
   2003   2005     1   0.10969 276646.080000
   2004   2007     1   0.10961 277566.560000
   2009   2015     1   0.09730 310787.520000
   2010   2013     1   0.09730 310787.520000
   2011   2014     1   0.09730 310787.520000
   2012   2016     1   0.10969 276646.080000
   2012   2017     1   0.10969 276646.080000
   2018   2019     1   0.09730 310787.520000
   2021   2023     1   0.10969 276646.080000
   2022   2024     1   0.10969 276646.080000
   2025   2029     1   0.10969 276646.080000
   2026   2028     1   0.10969 276646.080000
   2027   2030     1   0.10961 277566.560000
   2032   2038     1   0.09730 310787.520000
   2033   2036     1   0.09730 310787.520000
   2034   2037     1   0.09730 310787.520000
   2035   2039     1   0.10969 276646.080000
   2035   2040     1   0.10969 276646.080000
   2041   2042     1   0.09730 310787.520000
   2044   2046     1   0.10969 276646.080000
   2045   2047     1   0.10969 276646.080000
   2048   2052     1   0.10969 276646.080000
   2049   2051     1   0.10969 276646.080000
   2050   2053     1   0.10961 277566.560000
   2055   2061     1   0.09730 310787.520000
   2056   2059     1   0.09730 310787.520000
   2057   2060     1   0.09730 310787.520000
   2058   2062     1   0.10969 276646.080000
   2058   2063     1   0.10969 276646.080000
   2064   2065     1   0.09730 310787.520000
   2067   2069     1   0.10969 276646.080000
   2068   2070     1   0.10969 276646.080000
   2071   2075     1   0.10969 276646.080000
   2072   2074     1   0.10969 276646.080000
   2073   2076     1   0.10961 277566.560000
   2078   2084     1   0.09730 310787.520000
   2079   2082     1   0.09730 310787.520000
   2080   2083     1   0.09730 310787.520000
   2081   2085     1   0.10969 276646.080000
   2081   2086     1   0.10969 276646.080000
   2087   2088     1   0.09730 310787.520000
   2090   2092     1   0.10969 276646.080000
   2091   2093     1   0.10969 276646.080000
   2094   2098     1   0.10969 276646.080000
   2095   2097     1   0.10969 276646.080000
   2096   2099     1   0.10961 277566.560000
   2101   2107     1   0.09730 310787.520000
   2102   2105     1   0.09730 310787.520000
   2103   2106     1   0.09730 310787.520000
   2104   2108     1   0.10969 276646.080000
   2104   2109     1   0.10969 276646.080000
   2110   2111     1   0.09730 310787.520000
   2113   2115     1   0.10969 276646.080000
   2114   2116     1   0.10969 276646.080000
   2117   2121     1   0.10969 276646.080000
   2118   2120     1   0.10969 276646.080000
   2119   2122     1   0.10961 277566.560000
   2124   2130     1   0.09730 310787.520000
   2125   2128     1   0.09730 310787.520000
   2126   2129     1   0.09730 310787.520000
   2127   2131     1   0.10969 276646.080000
   2127   2132     1   0.10969 276646.080000
   2133   2134     1   0.09730 310787.520000
   2136   2138     1   0.10969 276646.080000
   2137   2139     1   0.10969 276646.080000
   2140   2144     1   0.10969 276646.080000
   2141   2143     1   0.10969 276646.080000
   2142   2145     1   0.10961 277566.560000
   2147   2153     1   0.09730 310787.520000
   2148   2151     1   0.09730 310787.520000
   2149   2152     1   0.09730 310787.520000
   2150   2154     1   0.10969 276646.080000
   2150   2155     1   0.10969 276646.080000
   2156   2157     1   0.09730 310787.520000
   2159   2161     1   0.10969 276646.080000
   2160   2162     1   0.10969 276646.080000
   2163   2167     1   0.10969 276646.080000
   2164   2166     1   0.10969 276646.080000
   2165   2168     1   0.10961 277566.560000
   2170   2176     1   0.09730 310787.520000
   2171   2174     1   0.09730 310787.520000
   2172   2175     1   0.09730 310787.520000
   2173   2177     1   0.10969 276646.080000
   2173   2178     1   0.10969 276646.080000
   2179   2180     1   0.09730 310787.520000
   2182   2184     1   0.10969 276646.080000
   2183   2185     1   0.10969 276646.080000
   2186   2190     1   0.10969 276646.080000
   2187   2189     1   0.10969 276646.080000
   2188   2191     1   0.10961 277566.560000
   2193   2199     1   0.09730 310787.520000
   2194   2197     1   0.09730 310787.520000
   2195   2198     1   0.09730 310787.520000
   2196   2200     1   0.10969 276646.080000
   2196   2201     1   0.10969 276646.080000
   2202   2203     1   0.09730 310787.520000
   2205   2207     1   0.10969 276646.080000
   2206   2208     1   0.10969 276646.080000
   2209   2213     1   0.10969 276646.080000
   2210   2212     1   0.10969 276646.080000
   2211   2214     1   0.10961 277566.560000
   2216   2222     1   0.09730 310787.520000
   2217   2220     1   0.09730 310787.520000
   2218   2221     1   0.09730 310787.520000
   2219   2223     1   0.10969 276646.080000
   2219   2224     1   0.10969 276646.080000
   2225   2226     1   0.09730 310787.520000
   2228   2230     1   0.10969 276646.080000
   2229   2231     1   0.10969 276646.080000
   2232   2236     1   0.10969 276646.080000
   2233   2235     1   0.10969 276646.080000
   2234   2237     1   0.10961 277566.560000
   2239   2245     1   0.09730 310787.520000
   2240   2243     1   0.09730 310787.520000
   2241   2244     1   0.09730 310787.520000
   2242   2246     1   0.10969 276646.080000
   2242   2247     1   0.10969 276646.080000
   2248   2249     1   0.09730 310787.520000
   2251   2253     1   0.10969 276646.080000
   2252   2254     1   0.10969 276646.080000
   2255   2259     1   0.10969 276646.080000
   2256   2258     1   0.10969 276646.080000
   2257   2260     1   0.10961 277566.560000
   2262   2268     1   0.09730 310787.520000
   2263   2266     1   0.09730 310787.520000
   2264   2267     1   0.09730 310787.520000
   2265   2269     1   0.10969 276646.080000
   2265   2270     1   0.10969 276646.080000
   2271   2272     1   0.09730 310787.520000
   2274   2276     1   0.10969 276646.080000
   2275   2277     1   0.10969 276646.080000
   2278   2282     1   0.10969 276646.080000
   2279   2281     1   0.10969 276646.080000
   2280   2283     1   0.10961 277566.560000
   2285   2291     1   0.09730 310787.520000
   2286   2289     1   0.09730 310787.520000
   2287   2290     1   0.09730 310787.520000
   2288   2292     1   0.10969 276646.080000
   2288   2293     1   0.10969 276646.080000
   2294   2295     1   0.09730 310787.520000
   2297   2299     1   0.10969 276646.080000
   2298   2300     1   0.10969 276646.080000
   2301   2305     1   0.10969 276646.080000
   2302   2304     1   0.10969 276646.080000
   2303   2306     1   0.10961 277566.560000
   2308   2314     1   0.09730 310787.520000
   2309   2312     1   0.09730 310787.520000
   2310   2313     1   0.09730 310787.520000
   2311   2315     1   0.10969 276646.080000
   2311   2316     1   0.10969 276646.080000
   2317   2318     1   0.09730 310787.520000
   2320   2322     1   0.10969 276646.080000
   2321   2323     1   0.10969 276646.080000
   2324   2328     1   0.10969 276646.080000
   2325   2327     1   0.10969 276646.080000
   2326   2329     1   0.10961 277566.560000
   2331   2337     1   0.09730 310787.520000
   2332   2335     1   0.09730 310787.520000
   2333   2336     1   0.09730 310787.520000
   2334   2338     1   0.10969 276646.080000
   2334   2339     1   0.10969 276646.080000
   2340   2341     1   0.09730 310787.520000
   2343   2345     1   0.10969 276646.080000
   2344   2346     1   0.10969 276646.080000
   2347   2351     1   0.10969 276646.080000
   2348   2350     1   0.10969 276646.080000
   2349   2352     1   0.10961 277566.560000
   2354   2360     1   0.09730 310787.520000
   2355   2358     1   0.09730 310787.520000
   2356   2359     1   0.09730 310787.520000
   2357   2361     1   0.10969 276646.080000
   2357   2362     1   0.10969 276646.080000
   2363   2364     1   0.09730 310787.520000
   2366   2368     1   0.10969 276646.080000
   2367   2369     1   0.10969 276646.080000
   2370   2374     1   0.10969 276646.080000
   2371   2373     1   0.10969 276646.080000
   2372   2375     1   0.10961 277566.560000
   2377   2383     1   0.09730 310787.520000
   2378   2381     1   0.09730 310787.520000
   2379   2382     1   0.09730 310787.520000
   2380   2384     1   0.10969 276646.080000
   2380   2385     1   0.10969 276646.080000
   2386   2387     1   0.09730 310787.520000
   2389   2391     1   0.10969 276646.080000
   2390   2392     1   0.10969 276646.080000
   2393   2397     1   0.10969 276646.080000
   2394   2396     1   0.10969 276646.080000
   2395   2398     1   0.10961 277566.560000
   2400   2406     1   0.09730 310787.520000
   2401   2404     1   0.09730 310787.520000
   2402   2405     1   0.09730 310787.520000
   2403   2407     1   0.10969 276646.080000
   2403   2408     1   0.10969 276646.080000
   2409   2410     1   0.09730 310787.520000
   2412   2414     1   0.10969 276646.080000
   2413   2415     1   0.10969 276646.080000
   2416   2420     1   0.10969 276646.080000
   2417   2419     1   0.10969 276646.080000
   2418   2421     1   0.10961 277566.560000
   2423   2429     1   0.09730 310787.520000
   2424   2427     1   0.09730 310787.520000
   2425   2428     1   0.09730 310787.520000
   2426   2430     1   0.10969 276646.080000
   2426   2431     1   0.10969 276646.080000
   2432   2433     1   0.09730 310787.520000
   2435   2437     1   0.10969 276646.080000
   2436   2438     1   0.10969 276646.080000
   2439   2443     1   0.10969 276646.080000
   2440   2442     1   0.10969 276646.080000
   2441   2444     1   0.10961 277566.560000
   2446   2452     1   0.09730 310787.520000
   2447   2450     1   0.09730 310787.520000
   2448   2451     1   0.09730 310787.520000
   2449   2453     1   0.10969 276646.080000
   2449   2454     1   0.10969 276646.080000
   2455   2456     1   0.09730 310787.520000
   2458   2460     1   0.10969 276646.080000
   2459   2461     1   0.10969 276646.080000
   2462   2466     1   0.10969 276646.080000
   2463   2465     1   0.10969 276646.080000
   2464   2467     1   0.10961 277566.560000
   2469   2475     1   0.09730 310787.520000
   2470   2473     1   0.09730 310787.520000
   2471   2474     1   0.09730 310787.520000
   2472   2476     1   0.10969 276646.080000
   2472   2477     1   0.10969 276646.080000
   2478   2479     1   0.09730 310787.520000
   2481   2483     1   0.10969 276646.080000
   2482   2484     1   0.10969 276646.080000
   2485   2489     1   0.10969 276646.080000
   2486   2488     1   0.10969 276646.080000
   2487   2490     1   0.10961 277566.560000
   2492   2498     1   0.09730 310787.520000
   2493   2496     1   0.09730 310787.520000
   2494   2497     1   0.09730 310787.520000
   2495   2499     1   0.10969 276646.080000
   2495   2500     1   0.10969 276646.080000
   2501   2502     1   0.09730 310787.520000
   2504   2506     1   0.10969 276646.080000
   2505   2507     1   0.10969 276646.080000
   2508   2512     1   0.10969 276646.080000
   2509   2511     1   0.10969 276646.080000
   2510   2513     1   0.10961 277566.560000
   2515   2521     1   0.09730 310787.520000
   2516   2519     1   0.09730 310787.520000
   2517   2520     1   0.09730 310787.520000
   2518   2522     1   0.10969 276646.080000
   2518   2523     1   0.10969 276646.080000
   2524   2525     1   0.09730 310787.520000
   2527   2529     1   0.10969 276646.080000
   2528   2530     1   0.10969 276646.080000
   2531   2535     1   0.10969 276646.080000
   2532   2534     1   0.10969 276646.080000
   2533   2536     1   0.10961 277566.560000
   2538   2544     1   0.09730 310787.520000
   2539   2542     1   0.09730 310787.520000
   2540   2543     1   0.09730 310787.520000
   2541   2545     1   0.10969 276646.080000
   2541   2546     1   0.10969 276646.080000
   2547   2548     1   0.09730 310787.520000
   2550   2552     1   0.10969 276646.080000
   2551   2553     1   0.10969 276646.080000
   2554   2558     1   0.10969 276646.080000
   2555   2557     1   0.10969 276646.080000
   2556   2559     1   0.10961 277566.560000
   2561   2567     1   0.09730 310787.520000
   2562   2565     1   0.09730 310787.520000
   2563   2566     1   0.09730 310787.520000
   2564   2568     1   0.10969 276646.080000
   2564   2569     1   0.10969 276646.080000
   2570   2571     1   0.09730 310787.520000
   2573   2575     1   0.10969 276646.080000
   2574   2576     1   0.10969 276646.080000
   2577   2581     1   0.10969 276646.080000
   2578   2580     1   0.10969 276646.080000
   2579   2582     1   0.10961 277566.560000
   2584   2590     1   0.09730 310787.520000
   2585   2588     1   0.09730 310787.520000
   2586   2589     1   0.09730 310787.520000
   2587   2591     1   0.10969 276646.080000
   2587   2592     1   0.10969 276646.080000
   2593   2594     1   0.09730 310787.520000
   2596   2598     1   0.10969 276646.080000
   2597   2599     1   0.10969 276646.080000
   2600   2604     1   0.10969 276646.080000
   2601   2603     1   0.10969 276646.080000
   2602   2605     1   0.10961 277566.560000
   2607   2613     1   0.09730 310787.520000
   2608   2611     1   0.09730 310787.520000
   2609   2612     1   0.09730 310787.520000
   2610   2614     1   0.10969 276646.080000
   2610   2615     1   0.10969 276646.080000
   2616   2617     1   0.09730 310787.520000
   2619   2621     1   0.10969 276646.080000
   2620   2622     1   0.10969 276646.080000
   2623   2627     1   0.10969 276646.080000
   2624   2626     1   0.10969 276646.080000
   2625   2628     1   0.10961 277566.560000
   2630   2636     1   0.09730 310787.520000
   2631   2634     1   0.09730 310787.520000
   2632   2635     1   0.09730 310787.520000
   2633   2637     1   0.10969 276646.080000
   2633   2638     1   0.10969 276646.080000
   2639   2640     1   0.09730 310787.520000
   2642   2644     1   0.10969 276646.080000
   2643   2645     1   0.10969 276646.080000
   2646   2650     1   0.10969 276646.080000
   2647   2649     1   0.10969 276646.080000
   2648   2651     1   0.10961 277566.560000
   2653   2659     1   0.09730 310787.520000
   2654   2657     1   0.09730 310787.520000
   2655   2658     1   0.09730 310787.520000
   2656   2660     1   0.10969 276646.080000
   2656   2661     1   0.10969 276646.080000
   2662   2663     1   0.09730 310787.520000
   2665   2667     1   0.10969 276646.080000
   2666   2668     1   0.10969 276646.080000
   2669   2673     1   0.10969 276646.080000
   2670   2672     1   0.10969 276646.080000
   2671   2674     1   0.10961 277566.560000
   2676   2682     1   0.09730 310787.520000
   2677   2680     1   0.09730 310787.520000
   2678   2681     1   0.09730 310787.520000
   2679   2683     1   0.10969 276646.080000
   2679   2684     1   0.10969 276646.080000
   2685   2686     1   0.09730 310787.520000
   2688   2690     1   0.10969 276646.080000
   2689   2691     1   0.10969 276646.080000
   2692   2696     1   0.10969 276646.080000
   2693   2695     1   0.10969 276646.080000
   2694   2697     1   0.10961 277566.560000
   2699   2705     1   0.09730 310787.520000
   2700   2703     1   0.09730 310787.520000
   2701   2704     1   0.09730 310787.520000
   2702   2706     1   0.10969 276646.080000
   2702   2707     1   0.10969 276646.080000
   2708   2709     1   0.09730 310787.520000
   2711   2713     1   0.10969 276646.080000
   2712   2714     1   0.10969 276646.080000
   2715   2719     1   0.10969 276646.080000
   2716   2718     1   0.10969 276646.080000
   2717   2720     1   0.10961 277566.560000
   2722   2728     1   0.09730 310787.520000
   2723   2726     1   0.09730 310787.520000
   2724   2727     1   0.09730 310787.520000
   2725   2729     1   0.10969 276646.080000
   2725   2730     1   0.10969 276646.080000
   2731   2732     1   0.09730 310787.520000
   2734   2736     1   0.10969 276646.080000
   2735   2737     1   0.10969 276646.080000
   2738   2742     1   0.10969 276646.080000
   2739   2741     1   0.10969 276646.080000
   2740   2743     1   0.10961 277566.560000
   2745   2751     1   0.09730 310787.520000
   2746   2749     1   0.09730 310787.520000
   2747   2750     1   0.09730 310787.520000
   2748   2752     1   0.10969 276646.080000
   2748   2753     1   0.10969 276646.080000
   2754   2755     1   0.09730 310787.520000
   2757   2759     1   0.10969 276646.080000
   2758   2760     1   0.10969 276646.080000
   2761   2765     1   0.10969 276646.080000
   2762   2764     1   0.10969 276646.080000
   2763   2766     1   0.10961 277566.560000
   2768   2774     1   0.09730 310787.520000
   2769   2772     1   0.09730 310787.520000
   2770   2773     1   0.09730 310787.520000
   2771   2775     1   0.10969 276646.080000
   2771   2776     1   0.10969 276646.080000
   2777   2778     1   0.09730 310787.520000
   2780   2782     1   0.10969 276646.080000
   2781   2783     1   0.10969 276646.080000
   2784   2788     1   0.10969 276646.080000
   2785   2787     1   0.10969 276646.080000
   2786   2789     1   0.10961 277566.560000
   2791   2797     1   0.09730 310787.520000
   2792   2795     1   0.09730 310787.520000
   2793   2796     1   0.09730 310787.520000
   2794   2798     1   0.10969 276646.080000
   2794   2799     1   0.10969 276646.080000
   2800   2801     1   0.09730 310787.520000
   2803   2805     1   0.10969 276646.080000
   2804   2806     1   0.10969 276646.080000
   2807   2811     1   0.10969 276646.080000
   2808   2810     1   0.10969 276646.080000
   2809   2812     1   0.10961 277566.560000
   2814   2820     1   0.09730 310787.520000
   2815   2818     1   0.09730 310787.520000
   2816   2819     1   0.09730 310787.520000
   2817   2821     1   0.10969 276646.080000
   2817   2822     1   0.10969 276646.080000
   2823   2824     1   0.09730 310787.520000
   2826   2828     1   0.10969 276646.080000
   2827   2829     1   0.10969 276646.080000
   2830   2834     1   0.10969 276646.080000
   2831   2833     1   0.10969 276646.080000
   2832   2835     1   0.10961 277566.560000
   2837   2843     1   0.09730 310787.520000
   2838   2841     1   0.09730 310787.520000
   2839   2842     1   0.09730 310787.520000
   2840   2844     1   0.10969 276646.080000
   2840   2845     1   0.10969 276646.080000
   2846   2847     1   0.09730 310787.520000
   2849   2851     1   0.10969 276646.080000
   2850   2852     1   0.10969 276646.080000
   2853   2857     1   0.10969 276646.080000
   2854   2856     1   0.10969 276646.080000
   2855   2858     1   0.10961 277566.560000
   2860   2866     1   0.09730 310787.520000
   2861   2864     1   0.09730 310787.520000
   2862   2865     1   0.09730 310787.520000
   2863   2867     1   0.10969 276646.080000
   2863   2868     1   0.10969 276646.080000
   2869   2870     1   0.09730 310787.520000
   2872   2874     1   0.10969 276646.080000
   2873   2875     1   0.10969 276646.080000
   2876   2880     1   0.10969 276646.080000
   2877   2879     1   0.10969 276646.080000
   2878   2881     1   0.10961 277566.560000
   2883   2889     1   0.09730 310787.520000
   2884   2887     1   0.09730 310787.520000
   2885   2888     1   0.09730 310787.520000
   2886   2890     1   0.10969 276646.080000
   2886   2891     1   0.10969 276646.080000
   2892   2893     1   0.09730 310787.520000
   2895   2897     1   0.10969 276646.080000
   2896   2898     1   0.10969 276646.080000
   2899   2903     1   0.10969 276646.080000
   2900   2902     1   0.10969 276646.080000
   2901   2904     1   0.10961 277566.560000
   2906   2912     1   0.09730 310787.520000
   2907   2910     1   0.09730 310787.520000
   2908   2911     1   0.09730 310787.520000
   2909   2913     1   0.10969 276646.080000
   2909   2914     1   0.10969 276646.080000
   2915   2916     1   0.09730 310787.520000
   2918   2920     1   0.10969 276646.080000
   2919   2921     1   0.10969 276646.080000
   2922   2926     1   0.10969 276646.080000
   2923   2925     1   0.10969 276646.080000
   2924   2927     1   0.10961 277566.560000
   2929   2935     1   0.09730 310787.520000
   2930   2933     1   0.09730 310787.520000
   2931   2934     1   0.09730 310787.520000
   2932   2936     1   0.10969 276646.080000
   2932   2937     1   0.10969 276646.080000
   2938   2939     1   0.09730 310787.520000
   2941   2943     1   0.10969 276646.080000
   2942   2944     1   0.10969 276646.080000
   2945   2949     1   0.10969 276646.080000
   2946   2948     1   0.10969 276646.080000
   2947   2950     1   0.10961 277566.560000
   2952   2958     1   0.09730 310787.520000
   2953   2956     1   0.09730 310787.520000
   2954   2957     1   0.09730 310787.520000
   2955   2959     1   0.10969 276646.080000
   2955   2960     1   0.10969 276646.080000
   2961   2962     1   0.09730 310787.520000
   2964   2966     1   0.10969 276646.080000
   2965   2967     1   0.10969 276646.080000
   2968   2972     1   0.10969 276646.080000
   2969   2971     1   0.10969 276646.080000
   2970   2973     1   0.10961 277566.560000
   2975   2981     1   0.09730 310787.520000
   2976   2979     1   0.09730 310787.520000
   2977   2980     1   0.09730 310787.520000
   2978   2982     1   0.10969 276646.080000
   2978   2983     1   0.10969 276646.080000
   2984   2985     1   0.09730 310787.520000
   2987   2989     1   0.10969 276646.080000
   2988   2990     1   0.10969 276646.080000
   2991   2995     1   0.10969 276646.080000
   2992   2994     1   0.10969 276646.080000
   2993   2996     1   0.10961 277566.560000
   2998   3004     1   0.09730 310787.520000
   2999   3002     1   0.09730 310787.520000
   3000   3003     1   0.09730 310787.520000
   3001   3005     1   0.10969 276646.080000
   3001   3006     1   0.10969 276646.080000
   3007   3008     1   0.09730 310787.520000
   3010   3012     1   0.10969 276646.080000
   3011   3013     1   0.10969 276646.080000
   3014   3018     1   0.10969 276646.080000
   3015   3017     1   0.10969 276646.080000
   3016   3019     1   0.10961 277566.560000
   3021   3027     1   0.09730 310787.520000
   3022   3025     1   0.09730 310787.520000
   3023   3026     1   0.09730 310787.520000
   3024   3028     1   0.10969 276646.080000
   3024   3029     1   0.10969 276646.080000
   3030   3031     1   0.09730 310787.520000
   3033   3035     1   0.10969 276646.080000
   3034   3036     1   0.10969 276646.080000
   3037   3041     1   0.10969 276646.080000
   3038   3040     1   0.10969 276646.080000
   3039   3042     1   0.10961 277566.560000
   3044   3050     1   0.09730 310787.520000
   3045   3048     1   0.09730 310787.520000
   3046   3049     1   0.09730 310787.520000
   3047   3051     1   0.10969 276646.080000
   3047   3052     1   0.10969 276646.080000
   3053   3054     1   0.09730 310787.520000
   3056   3058     1   0.10969 276646.080000
   3057   3059     1   0.10969 276646.080000
   3060   3064     1   0.10969 276646.080000
   3061   3063     1   0.10969 276646.080000
   3062   3065     1   0.10961 277566.560000
   3067   3073     1   0.09730 310787.520000
   3068   3071     1   0.09730 310787.520000
   3069   3072     1   0.09730 310787.520000
   3070   3074     1   0.10969 276646.080000
   3070   3075     1   0.10969 276646.080000
   3076   3077     1   0.09730 310787.520000
   3079   3081     1   0.10969 276646.080000
   3080   3082     1   0.10969 276646.080000
   3083   3087     1   0.10969 276646.080000
   3084   3086     1   0.10969 276646.080000
   3085   3088     1   0.10961 277566.560000
   3090   3096     1   0.09730 310787.520000
   3091   3094     1   0.09730 310787.520000
   3092   3095     1   0.09730 310787.520000
   3093   3097     1   0.10969 276646.080000
   3093   3098     1   0.10969 276646.080000
   3099   3100     1   0.09730 310787.520000
   3102   3104     1   0.10969 276646.080000
   3103   3105     1   0.10969 276646.080000
   3106   3110     1   0.10969 276646.080000
   3107   3109     1   0.10969 276646.080000
   3108   3111     1   0.10961 277566.560000
   3113   3119     1   0.09730 310787.520000
   3114   3117     1   0.09730 310787.520000
   3115   3118     1   0.09730 310787.520000
   3116   3120     1   0.10969 276646.080000
   3116   3121     1   0.10969 276646.080000
   3122   3123     1   0.09730 310787.520000
   3125   3127     1   0.10969 276646.080000
   3126   3128     1   0.10969 276646.080000
   3129   3133     1   0.10969 276646.080000
   3130   3132     1   0.10969 276646.080000
   3131   3134     1   0.10961 277566.560000
   3136   3142     1   0.09730 310787.520000
   3137   3140     1   0.09730 310787.520000
   3138   3141     1   0.09730 310787.520000
   3139   3143     1   0.10969 276646.080000
   3139   3144     1   0.10969 276646.080000
   3145   3146     1   0.09730 310787.520000
   3148   3150     1   0.10969 276646.080000
   3149   3151     1   0.10969 276646.080000
   3152   3156     1   0.10969 276646.080000
   3153   3155     1   0.10969 276646.080000
   3154   3157     1   0.10961 277566.560000
   3159   3165     1   0.09730 310787.520000
   3160   3163     1   0.09730 310787.520000
   3161   3164     1   0.09730 310787.520000
   3162   3166     1   0.10969 276646.080000
   3162   3167     1   0.10969 276646.080000
   3168   3169     1   0.09730 310787.520000
   3171   3173     1   0.10969 276646.080000
   3172   3174     1   0.10969 276646.080000
   3175   3179     1   0.10969 276646.080000
   3176   3178     1   0.10969 276646.080000
   3177   3180     1   0.10961 277566.560000
   3182   3188     1   0.09730 310787.520000
   3183   3186     1   0.09730 310787.520000
   3184   3187     1   0.09730 310787.520000
   3185   3189     1   0.10969 276646.080000
   3185   3190     1   0.10969 276646.080000
   3191   3192     1   0.09730 310787.520000
   3194   3196     1   0.10969 276646.080000
   3195   3197     1   0.10969 276646.080000
   3198   3202     1   0.10969 276646.080000
   3199   3201     1   0.10969 276646.080000
   3200   3203     1   0.10961 277566.560000
   3205   3211     1   0.09730 310787.520000
   3206   3209     1   0.09730 310787.520000
   3207   3210     1   0.09730 310787.520000
   3208   3212     1   0.10969 276646.080000
   3208   3213     1   0.10969 276646.080000
   3214   3215     1   0.09730 310787.520000
   3217   3219     1   0.10969 276646.080000
   3218   3220     1   0.10969 276646.080000
   3221   3225     1   0.10969 276646.080000
   3222   3224     1   0.10969 276646.080000
   3223   3226     1   0.10961 277566.560000
   3228   3234     1   0.09730 310787.520000
   3229   3232     1   0.09730 310787.520000
   3230   3233     1   0.09730 310787.520000
   3231   3235     1   0.10969 276646.080000
   3231   3236     1   0.10969 276646.080000
   3237   3238     1   0.09730 310787.520000
   3240   3242     1   0.10969 276646.080000
   3241   3243     1   0.10969 276646.080000
   3244   3248     1   0.10969 276646.080000
   3245   3247     1   0.10969 276646.080000
   3246   3249     1   0.10961 277566.560000
   3251   3257     1   0.09730 310787.520000
   3252   3255     1   0.09730 310787.520000
   3253   3256     1   0.09730 310787.520000
   3254   3258     1   0.10969 276646.080000
   3254   3259     1   0.10969 276646.080000
   3260   3261     1   0.09730 310787.520000
   3263   3265     1   0.10969 276646.080000
   3264   3266     1   0.10969 276646.080000
   3267   3271     1   0.10969 276646.080000
   3268   3270     1   0.10969 276646.080000
   3269   3272     1   0.10961 277566.560000
   3274   3280     1   0.09730 310787.520000
   3275   3278     1   0.09730 310787.520000
   3276   3279     1   0.09730 310787.520000
   3277   3281     1   0.10969 276646.080000
   3277   3282     1   0.10969 276646.080000
   3283   3284     1   0.09730 310787.520000
   3286   3288     1   0.10969 276646.080000
   3287   3289     1   0.10969 276646.080000
   3290   3294     1   0.10969 276646.080000
   3291   3293     1   0.10969 276646.080000
   3292   3295     1   0.10961 277566.560000
   3297   3303     1   0.09730 310787.520000
   3298   3301     1   0.09730 310787.520000
   3299   3302     1   0.09730 310787.520000
   3300   3304     1   0.10969 276646.080000
   3300   3305     1   0.10969 276646.080000
   3306   3307     1   0.09730 310787.520000
   3309   3311     1   0.10969 276646.080000
   3310   3312     1   0.10969 276646.080000
   3313   3317     1   0.10969 276646.080000
   3314   3316     1   0.10969 276646.080000
   3315   3318     1   0.10961 277566.560000
   3320   3326     1   0.09730 310787.520000
   3321   3324     1   0.09730 310787.520000
   3322   3325     1   0.09730 310787.520000
   3323   3327     1   0.10969 276646.080000
   3323   3328     1   0.10969 276646.080000
   3329   3330     1   0.09730 310787.520000

[ pairs ]
;    ai     aj funct         c0         c1         c2         c3
      1     14     1
      1     17     1
      2     11     1
      2     20     1
      5      8     1
      5     21     1
      8     28     1
      8     31     1
     11     22     1
     11     25     1
     14     40     1
     14     43     1
     17     34     1
     17     37     1
     20     49     1
     20     46     1
     21     55     1
     21     52     1
     22     37     1
     22    178     1
     25     34     1
     25    148     1
     28     43     1
     28    118     1
     31     40     1
     31     88     1
     34    169     1
     37    139     1
     40    109     1
     43     79     1
     46     70     1
     49    100     1
     52    130     1
     55    160     1
     60     85     1
     60     82     1
     60     79     1
     61     76     1
     61     70     1
     61    238     1
     64     73     1
     64     70     1
     64    208     1
     67     73     1
     67     76     1
     67     88     1
     73    229     1
     76    199     1
     82    190     1
     85    220     1
     90    115     1
     90    112     1
     90    109     1
     91    106     1
     91    100     1
     91    298     1
     94    103     1
     94    100     1
     94    268     1
     97    103     1
     97    106     1
     97    118     1
    103    289     1
    106    259     1
    112    250     1
    115    280     1
    120    145     1
    120    142     1
    120    139     1
    121    136     1
    121    130     1
    121    358     1
    124    133     1
    124    130     1
    124    328     1
    127    133     1
    127    136     1
    127    148     1
    133    349     1
    136    319     1
    142    310     1
    145    340     1
    150    175     1
    150    172     1
    150    169     1
    151    166     1
    151    160     1
    151    418     1
    154    163     1
    154    160     1
    154    388     1
    157    163     1
    157    166     1
    157    178     1
    163    409     1
    166    379     1
    172    370     1
    175    400     1
    180    205     1
    180    202     1
    180    199     1
    181    196     1
    181    190     1
    181    478     1
    184    193     1
    184    190     1
    184    448     1
    187    193     1
    187    196     1
    187    208     1
    193    469     1
    196    439     1
    202    430     1
    205    460     1
    210    235     1
    210    232     1
    210    229     1
    211    226     1
    211    220     1
    211    538     1
    214    223     1
    214    220     1
    214    508     1
    217    223     1
    217    226     1
    217    238     1
    223    529     1
    226    499     1
    232    490     1
    235    520     1
    240    265     1
    240    262     1
    240    259     1
    241    256     1
    241    250     1
    241    598     1
    244    253     1
    244    250     1
    244    568     1
    247    253     1
    247    256     1
    247    268     1
    253    589     1
    256    559     1
    262    550     1
    265    580     1
    270    295     1
    270    292     1
    270    289     1
    271    286     1
    271    280     1
    271    658     1
    274    283     1
    274    280     1
    274    628     1
    277    283     1
    277    286     1
    277    298     1
    283    649     1
    286    619     1
    292    610     1
    295    640     1
    300    325     1
    300    322     1
    300    319     1
    301    316     1
    301    310     1
    301    718     1
    304    313     1
    304    310     1
    304    688     1
    307    313     1
    307    316     1
    307    328     1
    313    709     1
    316    679     1
    322    670     1
    325    700     1
    330    355     1
    330    352     1
    330    349     1
    331    346     1
    331    340     1
    331    778     1
    334    343     1
    334    340     1
    334    748     1
    337    343     1
    337    346     1
    337    358     1
    343    769     1
    346    739     1
    352    730     1
    355    760     1
    360    385     1
    360    382     1
    360    379     1
    361    376     1
    361    370     1
    361    838     1
    364    373     1
    364    370     1
    364    808     1
    367    373     1
    367    376     1
    367    388     1
    373    829     1
    376    799     1
    382    790     1
    385    820     1
    390    415     1
    390    412     1
    390    409     1
    391    406     1
    391    400     1
    391    898     1
    394    403     1
    394    400     1
    394    868     1
    397    403     1
    397    406     1
    397    418     1
    403    889     1
    406    859     1
    412    850     1
    415    880     1
    420    445     1
    420    442     1
    420    439     1
    421    436     1
    421    430     1
    421    958     1
    424    433     1
    424    430     1
    424    928     1
    427    433     1
    427    436     1
    427    448     1
    433    949     1
    436    919     1
    442    910     1
    445    940     1
    450    475     1
    450    472     1
    450    469     1
    451    466     1
    451    460     1
    451   1018     1
    454    463     1
    454    460     1
    454    988     1
    457    463     1
    457    466     1
    457    478     1
    463   1009     1
    466    979     1
    472    970     1
    475   1000     1
    480    505     1
    480    502     1
    480    499     1
    481    496     1
    481    490     1
    481   1078     1
    484    493     1
    484    490     1
    484   1048     1
    487    493     1
    487    496     1
    487    508     1
    493   1069     1
    496   1039     1
    502   1030     1
    505   1060     1
    510    535     1
    510    532     1
    510    529     1
    511    526     1
    511    520     1
    511   1138     1
    514    523     1
    514    520     1
    514   1108     1
    517    523     1
    517    526     1
    517    538     1
    523   1129     1
    526   1099     1
    532   1090     1
    535   1120     1
    540    565     1
    540    562     1
    540    559     1
    541    556     1
    541    550     1
    541   1198     1
    544    553     1
    544    550     1
    544   1168     1
    547    553     1
    547    556     1
    547    568     1
    553   1189     1
    556   1159     1
    562   1150     1
    565   1180     1
    570    595     1
    570    592     1
    570    589     1
    571    586     1
    571    580     1
    571   1258     1
    574    583     1
    574    580     1
    574   1228     1
    577    583     1
    577    586     1
    577    598     1
    583   1249     1
    586   1219     1
    592   1210     1
    595   1240     1
    600    625     1
    600    622     1
    600    619     1
    601    616     1
    601    610     1
    601   1318     1
    604    613     1
    604    610     1
    604   1288     1
    607    613     1
    607    616     1
    607    628     1
    613   1309     1
    616   1279     1
    622   1270     1
    625   1300     1
    630    655     1
    630    652     1
    630    649     1
    631    646     1
    631    640     1
    631   1378     1
    634    643     1
    634    640     1
    634   1348     1
    637    643     1
    637    646     1
    637    658     1
    643   1369     1
    646   1339     1
    652   1330     1
    655   1360     1
    660    685     1
    660    682     1
    660    679     1
    661    676     1
    661    670     1
    661   1438     1
    664    673     1
    664    670     1
    664   1408     1
    667    673     1
    667    676     1
    667    688     1
    673   1429     1
    676   1399     1
    682   1390     1
    685   1420     1
    690    715     1
    690    712     1
    690    709     1
    691    706     1
    691    700     1
    691   1498     1
    694    703     1
    694    700     1
    694   1468     1
    697    703     1
    697    706     1
    697    718     1
    703   1489     1
    706   1459     1
    712   1450     1
    715   1480     1
    720    745     1
    720    742     1
    720    739     1
    721    736     1
    721    730     1
    721   1558     1
    724    733     1
    724    730     1
    724   1528     1
    727    733     1
    727    736     1
    727    748     1
    733   1549     1
    736   1519     1
    742   1510     1
    745   1540     1
    750    775     1
    750    772     1
    750    769     1
    751    766     1
    751    760     1
    751   1618     1
    754    763     1
    754    760     1
    754   1588     1
    757    763     1
    757    766     1
    757    778     1
    763   1609     1
    766   1579     1
    772   1570     1
    775   1600     1
    780    805     1
    780    802     1
    780    799     1
    781    796     1
    781    790     1
    781   1678     1
    784    793     1
    784    790     1
    784   1648     1
    787    793     1
    787    796     1
    787    808     1
    793   1669     1
    796   1639     1
    802   1630     1
    805   1660     1
    810    835     1
    810    832     1
    810    829     1
    811    826     1
    811    820     1
    811   1738     1
    814    823     1
    814    820     1
    814   1708     1
    817    823     1
    817    826     1
    817    838     1
    823   1729     1
    826   1699     1
    832   1690     1
    835   1720     1
    840    865     1
    840    862     1
    840    859     1
    841    856     1
    841    850     1
    841   1798     1
    844    853     1
    844    850     1
    844   1768     1
    847    853     1
    847    856     1
    847    868     1
    853   1789     1
    856   1759     1
    862   1750     1
    865   1780     1
    870    895     1
    870    892     1
    870    889     1
    871    886     1
    871    880     1
    871   1858     1
    874    883     1
    874    880     1
    874   1828     1
    877    883     1
    877    886     1
    877    898     1
    883   1849     1
    886   1819     1
    892   1810     1
    895   1840     1
    900    925     1
    900    922     1
    900    919     1
    901    916     1
    901    910     1
    901   1893     1
    904    913     1
    904    910     1
    904   1870     1
    907    913     1
    907    916     1
    907    928     1
    913   1889     1
    916   1866     1
    922   1865     1
    922   1882     1
    925   1905     1
    925   1888     1
    930    955     1
    930    952     1
    930    949     1
    931    946     1
    931    940     1
    931   1939     1
    934    943     1
    934    940     1
    934   1916     1
    937    943     1
    937    946     1
    937    958     1
    943   1935     1
    946   1912     1
    952   1911     1
    952   1928     1
    955   1951     1
    955   1934     1
    960    985     1
    960    982     1
    960    979     1
    961    976     1
    961    970     1
    961   1985     1
    964    973     1
    964    970     1
    964   1962     1
    967    973     1
    967    976     1
    967    988     1
    973   1981     1
    976   1958     1
    982   1957     1
    982   1974     1
    985   1997     1
    985   1980     1
    990   1015     1
    990   1012     1
    990   1009     1
    991   1006     1
    991   1000     1
    991   2031     1
    994   1003     1
    994   1000     1
    994   2008     1
    997   1003     1
    997   1006     1
    997   1018     1
   1003   2027     1
   1006   2004     1
   1012   2003     1
   1012   2020     1
   1015   2043     1
   1015   2026     1
   1020   1045     1
   1020   1042     1
   1020   1039     1
   1021   1036     1
   1021   1030     1
   1021   2077     1
   1024   1033     1
   1024   1030     1
   1024   2054     1
   1027   1033     1
   1027   1036     1
   1027   1048     1
   1033   2073     1
   1036   2050     1
   1042   2049     1
   1042   2066     1
   1045   2089     1
   1045   2072     1
   1050   1075     1
   1050   1072     1
   1050   1069     1
   1051   1066     1
   1051   1060     1
   1051   2123     1
   1054   1063     1
   1054   1060     1
   1054   2100     1
   1057   1063     1
   1057   1066     1
   1057   1078     1
   1063   2119     1
   1066   2096     1
   1072   2095     1
   1072   2112     1
   1075   2135     1
   1075   2118     1
   1080   1105     1
   1080   1102     1
   1080   1099     1
   1081   1096     1
   1081   1090     1
   1081   2169     1
   1084   1093     1
   1084   1090     1
   1084   2146     1
   1087   1093     1
   1087   1096     1
   1087   1108     1
   1093   2165     1
   1096   2142     1
   1102   2141     1
   1102   2158     1
   1105   2181     1
   1105   2164     1
   1110   1135     1
   1110   1132     1
   1110   1129     1
   1111   1126     1
   1111   1120     1
   1111   2215     1
   1114   1123     1
   1114   1120     1
   1114   2192     1
   1117   1123     1
   1117   1126     1
   1117   1138     1
   1123   2211     1
   1126   2188     1
   1132   2187     1
   1132   2204     1
   1135   2227     1
   1135   2210     1
   1140   1165     1
   1140   1162     1
   1140   1159     1
   1141   1156     1
   1141   1150     1
   1141   2261     1
   1144   1153     1
   1144   1150     1
   1144   2238     1
   1147   1153     1
   1147   1156     1
   1147   1168     1
   1153   2257     1
   1156   2234     1
   1162   2233     1
   1162   2250     1
   1165   2273     1
   1165   2256     1
   1170   1195     1
   1170   1192     1
   1170   1189     1
   1171   1186     1
   1171   1180     1
   1171   2307     1
   1174   1183     1
   1174   1180     1
   1174   2284     1
   1177   1183     1
   1177   1186     1
   1177   1198     1
   1183   2303     1
   1186   2280     1
   1192   2279     1
   1192   2296     1
   1195   2319     1
   1195   2302     1
   1200   1225     1
   1200   1222     1
   1200   1219     1
   1201   1216     1
   1201   1210     1
   1201   2353     1
   1204   1213     1
   1204   1210     1
   1204   2330     1
   1207   1213     1
   1207   1216     1
   1207   1228     1
   1213   2349     1
   1216   2326     1
   1222   2325     1
   1222   2342     1
   1225   2365     1
   1225   2348     1
   1230   1255     1
   1230   1252     1
   1230   1249     1
   1231   1246     1
   1231   1240     1
   1231   2399     1
   1234   1243     1
   1234   1240     1
   1234   2376     1
   1237   1243     1
   1237   1246     1
   1237   1258     1
   1243   2395     1
   1246   2372     1
   1252   2371     1
   1252   2388     1
   1255   2411     1
   1255   2394     1
   1260   1285     1
   1260   1282     1
   1260   1279     1
   1261   1276     1
   1261   1270     1
   1261   2445     1
   1264   1273     1
   1264   1270     1
   1264   2422     1
   1267   1273     1
   1267   1276     1
   1267   1288     1
   1273   2441     1
   1276   2418     1
   1282   2417     1
   1282   2434     1
   1285   2457     1
   1285   2440     1
   1290   1315     1
   1290   1312     1
   1290   1309     1
   1291   1306     1
   1291   1300     1
   1291   2491     1
   1294   1303     1
   1294   1300     1
   1294   2468     1
   1297   1303     1
   1297   1306     1
   1297   1318     1
   1303   2487     1
   1306   2464     1
   1312   2463     1
   1312   2480     1
   1315   2503     1
   1315   2486     1
   1320   1345     1
   1320   1342     1
   1320   1339     1
   1321   1336     1
   1321   1330     1
   1321   2537     1
   1324   1333     1
   1324   1330     1
   1324   2514     1
   1327   1333     1
   1327   1336     1
   1327   1348     1
   1333   2533     1
   1336   2510     1
   1342   2509     1
   1342   2526     1
   1345   2549     1
   1345   2532     1
   1350   1375     1
   1350   1372     1
   1350   1369     1
   1351   1366     1
   1351   1360     1
   1351   2583     1
   1354   1363     1
   1354   1360     1
   1354   2560     1
   1357   1363     1
   1357   1366     1
   1357   1378     1
   1363   2579     1
   1366   2556     1
   1372   2555     1
   1372   2572     1
   1375   2595     1
   1375   2578     1
   1380   1405     1
   1380   1402     1
   1380   1399     1
   1381   1396     1
   1381   1390     1
   1381   2629     1
   1384   1393     1
   1384   1390     1
   1384   2606     1
   1387   1393     1
   1387   1396     1
   1387   1408     1
   1393   2625     1
   1396   2602     1
   1402   2601     1
   1402   2618     1
   1405   2641     1
   1405   2624     1
   1410   1435     1
   1410   1432     1
   1410   1429     1
   1411   1426     1
   1411   1420     1
   1411   2675     1
   1414   1423     1
   1414   1420     1
   1414   2652     1
   1417   1423     1
   1417   1426     1
   1417   1438     1
   1423   2671     1
   1426   2648     1
   1432   2647     1
   1432   2664     1
   1435   2687     1
   1435   2670     1
   1440   1465     1
   1440   1462     1
   1440   1459     1
   1441   1456     1
   1441   1450     1
   1441   2721     1
   1444   1453     1
   1444   1450     1
   1444   2698     1
   1447   1453     1
   1447   1456     1
   1447   1468     1
   1453   2717     1
   1456   2694     1
   1462   2693     1
   1462   2710     1
   1465   2733     1
   1465   2716     1
   1470   1495     1
   1470   1492     1
   1470   1489     1
   1471   1486     1
   1471   1480     1
   1471   2767     1
   1474   1483     1
   1474   1480     1
   1474   2744     1
   1477   1483     1
   1477   1486     1
   1477   1498     1
   1483   2763     1
   1486   2740     1
   1492   2739     1
   1492   2756     1
   1495   2779     1
   1495   2762     1
   1500   1525     1
   1500   1522     1
   1500   1519     1
   1501   1516     1
   1501   1510     1
   1501   2813     1
   1504   1513     1
   1504   1510     1
   1504   2790     1
   1507   1513     1
   1507   1516     1
   1507   1528     1
   1513   2809     1
   1516   2786     1
   1522   2785     1
   1522   2802     1
   1525   2825     1
   1525   2808     1
   1530   1555     1
   1530   1552     1
   1530   1549     1
   1531   1546     1
   1531   1540     1
   1531   2859     1
   1534   1543     1
   1534   1540     1
   1534   2836     1
   1537   1543     1
   1537   1546     1
   1537   1558     1
   1543   2855     1
   1546   2832     1
   1552   2831     1
   1552   2848     1
   1555   2871     1
   1555   2854     1
   1560   1585     1
   1560   1582     1
   1560   1579     1
   1561   1576     1
   1561   1570     1
   1561   2905     1
   1564   1573     1
   1564   1570     1
   1564   2882     1
   1567   1573     1
   1567   1576     1
   1567   1588     1
   1573   2901     1
   1576   2878     1
   1582   2877     1
   1582   2894     1
   1585   2917     1
   1585   2900     1
   1590   1615     1
   1590   1612     1
   1590   1609     1
   1591   1606     1
   1591   1600     1
   1591   2951     1
   1594   1603     1
   1594   1600     1
   1594   2928     1
   1597   1603     1
   1597   1606     1
   1597   1618     1
   1603   2947     1
   1606   2924     1
   1612   2923     1
   1612   2940     1
   1615   2963     1
   1615   2946     1
   1620   1645     1
   1620   1642     1
   1620   1639     1
   1621   1636     1
   1621   1630     1
   1621   2997     1
   1624   1633     1
   1624   1630     1
   1624   2974     1
   1627   1633     1
   1627   1636     1
   1627   1648     1
   1633   2993     1
   1636   2970     1
   1642   2969     1
   1642   2986     1
   1645   3009     1
   1645   2992     1
   1650   1675     1
   1650   1672     1
   1650   1669     1
   1651   1666     1
   1651   1660     1
   1651   3043     1
   1654   1663     1
   1654   1660     1
   1654   3020     1
   1657   1663     1
   1657   1666     1
   1657   1678     1
   1663   3039     1
   1666   3016     1
   1672   3015     1
   1672   3032     1
   1675   3055     1
   1675   3038     1
   1680   1705     1
   1680   1702     1
   1680   1699     1
   1681   1696     1
   1681   1690     1
   1681   3089     1
   1684   1693     1
   1684   1690     1
   1684   3066     1
   1687   1693     1
   1687   1696     1
   1687   1708     1
   1693   3085     1
   1696   3062     1
   1702   3061     1
   1702   3078     1
   1705   3101     1
   1705   3084     1
   1710   1735     1
   1710   1732     1
   1710   1729     1
   1711   1726     1
   1711   1720     1
   1711   3135     1
   1714   1723     1
   1714   1720     1
   1714   3112     1
   1717   1723     1
   1717   1726     1
   1717   1738     1
   1723   3131     1
   1726   3108     1
   1732   3107     1
   1732   3124     1
   1735   3147     1
   1735   3130     1
   1740   1765     1
   1740   1762     1
   1740   1759     1
   1741   1756     1
   1741   1750     1
   1741   3181     1
   1744   1753     1
   1744   1750     1
   1744   3158     1
   1747   1753     1
   1747   1756     1
   1747   1768     1
   1753   3177     1
   1756   3154     1
   1762   3153     1
   1762   3170     1
   1765   3193     1
   1765   3176     1
   1770   1795     1
   1770   1792     1
   1770   1789     1
   1771   1786     1
   1771   1780     1
   1771   3227     1
   1774   1783     1
   1774   1780     1
   1774   3204     1
   1777   1783     1
   1777   1786     1
   1777   1798     1
   1783   3223     1
   1786   3200     1
   1792   3199     1
   1792   3216     1
   1795   3239     1
   1795   3222     1
   1800   1825     1
   1800   1822     1
   1800   1819     1
   1801   1816     1
   1801   1810     1
   1801   3273     1
   1804   1813     1
   1804   1810     1
   1804   3250     1
   1807   1813     1
   1807   1816     1
   1807   1828     1
   1813   3269     1
   1816   3246     1
   1822   3245     1
   1822   3262     1
   1825   3285     1
   1825   3268     1
   1830   1855     1
   1830   1852     1
   1830   1849     1
   1831   1846     1
   1831   1840     1
   1831   3319     1
   1834   1843     1
   1834   1840     1
   1834   3296     1
   1837   1843     1
   1837   1846     1
   1837   1858     1
   1843   3315     1
   1846   3292     1
   1852   3291     1
   1852   3308     1
   1855   3331     1
   1855   3314     1
   1860   1865     1
   1860   1872     1
   1860   1870     1
   1861   1880     1
   1861   1866     1
   1861   1871     1
   1864   1874     1
   1864   1882     1
   1864   1870     1
   1865   1873     1
   1866   1872     1
   1866   1874     1
   1870   1871     1
   1871   1872     1
   1871   1882     1
   1872   1873     1
   1873   1874     1
   1873   1882     1
   1880   1882     1
   1883   1888     1
   1883   1895     1
   1883   1893     1
   1884   1889     1
   1884   1894     1
   1884   1903     1
   1887   1893     1
   1887   1905     1
   1887   1897     1
   1888   1896     1
   1889   1897     1
   1889   1895     1
   1893   1894     1
   1894   1905     1
   1894   1895     1
   1895   1896     1
   1896   1897     1
   1896   1905     1
   1903   1905     1
   1906   1911     1
   1906   1918     1
   1906   1916     1
   1907   1926     1
   1907   1912     1
   1907   1917     1
   1910   1920     1
   1910   1928     1
   1910   1916     1
   1911   1919     1
   1912   1918     1
   1912   1920     1
   1916   1917     1
   1917   1918     1
   1917   1928     1
   1918   1919     1
   1919   1920     1
   1919   1928     1
   1926   1928     1
   1929   1934     1
   1929   1941     1
   1929   1939     1
   1930   1935     1
   1930   1940     1
   1930   1949     1
   1933   1939     1
   1933   1951     1
   1933   1943     1
   1934   1942     1
   1935   1943     1
   1935   1941     1
   1939   1940     1
   1940   1951     1
   1940   1941     1
   1941   1942     1
   1942   1943     1
   1942   1951     1
   1949   1951     1
   1952   1957     1
   1952   1964     1
   1952   1962     1
   1953   1972     1
   1953   1958     1
   1953   1963     1
   1956   1966     1
   1956   1974     1
   1956   1962     1
   1957   1965     1
   1958   1964     1
   1958   1966     1
   1962   1963     1
   1963   1964     1
   1963   1974     1
   1964   1965     1
   1965   1966     1
   1965   1974     1
   1972   1974     1
   1975   1980     1
   1975   1987     1
   1975   1985     1
   1976   1981     1
   1976   1986     1
   1976   1995     1
   1979   1985     1
   1979   1997     1
   1979   1989     1
   1980   1988     1
   1981   1989     1
   1981   1987     1
   1985   1986     1
   1986   1997     1
   1986   1987     1
   1987   1988     1
   1988   1989     1
   1988   1997     1
   1995   1997     1
   1998   2003     1
   1998   2010     1
   1998   2008     1
   1999   2018     1
   1999   2004     1
   1999   2009     1
   2002   2012     1
   2002   2020     1
   2002   2008     1
   2003   2011     1
   2004   2010     1
   2004   2012     1
   2008   2009     1
   2009   2010     1
   2009   2020     1
   2010   2011     1
   2011   2012     1
   2011   2020     1
   2018   2020     1
   2021   2026     1
   2021   2033     1
   2021   2031     1
   2022   2027     1
   2022   2032     1
   2022   2041     1
   2025   2031     1
   2025   2043     1
   2025   2035     1
   2026   2034     1
   2027   2035     1
   2027   2033     1
   2031   2032     1
   2032   2043     1
   2032   2033     1
   2033   2034     1
   2034   2035     1
   2034   2043     1
   2041   2043     1
   2044   2049     1
   2044   2056     1
   2044   2054     1
   2045   2064     1
   2045   2050     1
   2045   2055     1
   2048   2058     1
   2048   2066     1
   2048   2054     1
   2049   2057     1
   2050   2056     1
   2050   2058     1
   2054   2055     1
   2055   2056     1
   2055   2066     1
   2056   2057     1
   2057   2058     1
   2057   2066     1
   2064   2066     1
   2067   2072     1
   2067   2079     1
   2067   2077     1
   2068   2073     1
   2068   2078     1
   2068   2087     1
   2071   2077     1
   2071   2089     1
   2071   2081     1
   2072   2080     1
   2073   2081     1
   2073   2079     1
   2077   2078     1
   2078   2089     1
   2078   2079     1
   2079   2080     1
   2080   2081     1
   2080   2089     1
   2087   2089     1
   2090   2095     1
   2090   2102     1
   2090   2100     1
   2091   2110     1
   2091   2096     1
   2091   2101     1
   2094   2104     1
   2094   2112     1
   2094   2100     1
   2095   2103     1
   2096   2102     1
   2096   2104     1
   2100   2101     1
   2101   2102     1
   2101   2112     1
   2102   2103     1
   2103   2104     1
   2103   2112     1
   2110   2112     1
   2113   2118     1
   2113   2125     1
   2113   2123     1
   2114   2119     1
   2114   2124     1
   2114   2133     1
   2117   2123     1
   2117   2135     1
   2117   2127     1
   2118   2126     1
   2119   2127     1
   2119   2125     1
   2123   2124     1
   2124   2135     1
   2124   2125     1
   2125   2126     1
   2126   2127     1
   2126   2135     1
   2133   2135     1
   2136   2141     1
   2136   2148     1
   2136   2146     1
   2137   2156     1
   2137   2142     1
   2137   2147     1
   2140   2150     1
   2140   2158     1
   2140   2146     1
   2141   2149     1
   2142   2148     1
   2142   2150     1
   2146   2147     1
   2147   2148     1
   2147   2158     1
   2148   2149     1
   2149   2150     1
   2149   2158     1
   2156   2158     1
   2159   2164     1
   2159   2171     1
   2159   2169     1
   2160   2165     1
   2160   2170     1
   2160   2179     1
   2163   2169     1
   2163   2181     1
   2163   2173     1
   2164   2172     1
   2165   2173     1
   2165   2171     1
   2169   2170     1
   2170   2181     1
   2170   2171     1
   2171   2172     1
   2172   2173     1
   2172   2181     1
   2179   2181     1
   2182   2187     1
   2182   2194     1
   2182   2192     1
   2183   2202     1
   2183   2188     1
   2183   2193     1
   2186   2196     1
   2186   2204     1
   2186   2192     1
   2187   2195     1
   2188   2194     1
   2188   2196     1
   2192   2193     1
   2193   2194     1
   2193   2204     1
   2194   2195     1
   2195   2196     1
   2195   2204     1
   2202   2204     1
   2205   2210     1
   2205   2217     1
   2205   2215     1
   2206   2211     1
   2206   2216     1
   2206   2225     1
   2209   2215     1
   2209   2227     1
   2209   2219     1
   2210   2218     1
   2211   2219     1
   2211   2217     1
   2215   2216     1
   2216   2227     1
   2216   2217     1
   2217   2218     1
   2218   2219     1
   2218   2227     1
   2225   2227     1
   2228   2233     1
   2228   2240     1
   2228   2238     1
   2229   2248     1
   2229   2234     1
   2229   2239     1
   2232   2242     1
   2232   2250     1
   2232   2238     1
   2233   2241     1
   2234   2240     1
   2234   2242     1
   2238   2239     1
   2239   2240     1
   2239   2250     1
   2240   2241     1
   2241   2242     1
   2241   2250     1
   2248   2250     1
   2251   2256     1
   2251   2263     1
   2251   2261     1
   2252   2257     1
   2252   2262     1
   2252   2271     1
   2255   2261     1
   2255   2273     1
   2255   2265     1
   2256   2264     1
   2257   2265     1
   2257   2263     1
   2261   2262     1
   2262   2273     1
   2262   2263     1
   2263   2264     1
   2264   2265     1
   2264   2273     1
   2271   2273     1
   2274   2279     1
   2274   2286     1
   2274   2284     1
   2275   2294     1
   2275   2280     1
   2275   2285     1
   2278   2288     1
   2278   2296     1
   2278   2284     1
   2279   2287     1
   2280   2286     1
   2280   2288     1
   2284   2285     1
   2285   2286     1
   2285   2296     1
   2286   2287     1
   2287   2288     1
   2287   2296     1
   2294   2296     1
   2297   2302     1
   2297   2309     1
   2297   2307     1
   2298   2303     1
   2298   2308     1
   2298   2317     1
   2301   2307     1
   2301   2319     1
   2301   2311     1
   2302   2310     1
   2303   2311     1
   2303   2309     1
   2307   2308     1
   2308   2319     1
   2308   2309     1
   2309   2310     1
   2310   2311     1
   2310   2319     1
   2317   2319     1
   2320   2325     1
   2320   2332     1
   2320   2330     1
   2321   2340     1
   2321   2326     1
   2321   2331     1
   2324   2334     1
   2324   2342     1
   2324   2330     1
   2325   2333     1
   2326   2332     1
   2326   2334     1
   2330   2331     1
   2331   2332     1
   2331   2342     1
   2332   2333     1
   2333   2334     1
   2333   2342     1
   2340   2342     1
   2343   2348     1
   2343   2355     1
   2343   2353     1
   2344   2349     1
   2344   2354     1
   2344   2363     1
   2347   2353     1
   2347   2365     1
   2347   2357     1
   2348   2356     1
   2349   2357     1
   2349   2355     1
   2353   2354     1
   2354   2365     1
   2354   2355     1
   2355   2356     1
   2356   2357     1
   2356   2365     1
   2363   2365     1
   2366   2371     1
   2366   2378     1
   2366   2376     1
   2367   2386     1
   2367   2372     1
   2367   2377     1
   2370   2380     1
   2370   2388     1
   2370   2376     1
   2371   2379     1
   2372   2378     1
   2372   2380     1
   2376   2377     1
   2377   2378     1
   2377   2388     1
   2378   2379     1
   2379   2380     1
   2379   2388     1
   2386   2388     1
   2389   2394     1
   2389   2401     1
   2389   2399     1
   2390   2395     1
   2390   2400     1
   2390   2409     1
   2393   2399     1
   2393   2411     1
   2393   2403     1
   2394   2402     1
   2395   2403     1
   2395   2401     1
   2399   2400     1
   2400   2411     1
   2400   2401     1
   2401   2402     1
   2402   2403     1
   2402   2411     1
   2409   2411     1
   2412   2417     1
   2412   2424     1
   2412   2422     1
   2413   2432     1
   2413   2418     1
   2413   2423     1
   2416   2426     1
   2416   2434     1
   2416   2422     1
   2417   2425     1
   2418   2424     1
   2418   2426     1
   2422   2423     1
   2423   2424     1
   2423   2434     1
   2424   2425     1
   2425   2426     1
   2425   2434     1
   2432   2434     1
   2435   2440     1
   2435   2447     1
   2435   2445     1
   2436   2441     1
   2436   2446     1
   2436   2455     1
   2439   2445     1
   2439   2457     1
   2439   2449     1
   2440   2448     1
   2441   2449     1
   2441   2447     1
   2445   2446     1
   2446   2457     1
   2446   2447     1
   2447   2448     1
   2448   2449     1
   2448   2457     1
   2455   2457     1
   2458   2463     1
   2458   2470     1
   2458   2468     1
   2459   2478     1
   2459   2464     1
   2459   2469     1
   2462   2472     1
   2462   2480     1
   2462   2468     1
   2463   2471     1
   2464   2470     1
   2464   2472     1
   2468   2469     1
   2469   2470     1
   2469   2480     1
   2470   2471     1
   2471   2472     1
   2471   2480     1
   2478   2480     1
   2481   2486     1
   2481   2493     1
   2481   2491     1
   2482   2487     1
   2482   2492     1
   2482   2501     1
   2485   2491     1
   2485   2503     1
   2485   2495     1
   2486   2494     1
   2487   2495     1
   2487   2493     1
   2491   2492     1
   2492   2503     1
   2492   2493     1
   2493   2494     1
   2494   2495     1
   2494   2503     1
   2501   2503     1
   2504   2509     1
   2504   2516     1
   2504   2514     1
   2505   2524     1
   2505   2510     1
   2505   2515     1
   2508   2518     1
   2508   2526     1
   2508   2514     1
   2509   2517     1
   2510   2516     1
   2510   2518     1
   2514   2515     1
   2515   2516     1
   2515   2526     1
   2516   2517     1
   2517   2518     1
   2517   2526     1
   2524   2526     1
   2527   2532     1
   2527   2539     1
   2527   2537     1
   2528   2533     1
   2528   2538     1
   2528   2547     1
   2531   2537     1
   2531   2549     1
   2531   2541     1
   2532   2540     1
   2533   2541     1
   2533   2539     1
   2537   2538     1
   2538   2549     1
   2538   2539     1
   2539   2540     1
   2540   2541     1
   2540   2549     1
   2547   2549     1
   2550   2555     1
   2550   2562     1
   2550   2560     1
   2551   2570     1
   2551   2556     1
   2551   2561     1
   2554   2564     1
   2554   2572     1
   2554   2560     1
   2555   2563     1
   2556   2562     1
   2556   2564     1
   2560   2561     1
   2561   2562     1
   2561   2572     1
   2562   2563     1
   2563   2564     1
   2563   2572     1
   2570   2572     1
   2573   2578     1
   2573   2585     1
   2573   2583     1
   2574   2579     1
   2574   2584     1
   2574   2593     1
   2577   2583     1
   2577   2595     1
   2577   2587     1
   2578   2586     1
   2579   2587     1
   2579   2585     1
   2583   2584     1
   2584   2595     1
   2584   2585     1
   2585   2586     1
   2586   2587     1
   2586   2595     1
   2593   2595     1
   2596   2601     1
   2596   2608     1
   2596   2606     1
   2597   2616     1
   2597   2602     1
   2597   2607     1
   2600   2610     1
   2600   2618     1
   2600   2606     1
   2601   2609     1
   2602   2608     1
   2602   2610     1
   2606   2607     1
   2607   2608     1
   2607   2618     1
   2608   2609     1
   2609   2610     1
   2609   2618     1
   2616   2618     1
   2619   2624     1
   2619   2631     1
   2619   2629     1
   2620   2625     1
   2620   2630     1
   2620   2639     1
   2623   2629     1
   2623   2641     1
   2623   2633     1
   2624   2632     1
   2625   2633     1
   2625   2631     1
   2629   2630     1
   2630   2641     1
   2630   2631     1
   2631   2632     1
   2632   2633     1
   2632   2641     1
   2639   2641     1
   2642   2647     1
   2642   2654     1
   2642   2652     1
   2643   2662     1
   2643   2648     1
   2643   2653     1
   2646   2656     1
   2646   2664     1
   2646   2652     1
   2647   2655     1
   2648   2654     1
   2648   2656     1
   2652   2653     1
   2653   2654     1
   2653   2664     1
   2654   2655     1
   2655   2656     1
   2655   2664     1
   2662   2664     1
   2665   2670     1
   2665   2677     1
   2665   2675     1
   2666   2671     1
   2666   2676     1
   2666   2685     1
   2669   2675     1
   2669   2687     1
   2669   2679     1
   2670   2678     1
   2671   2679     1
   2671   2677     1
   2675   2676     1
   2676   2687     1
   2676   2677     1
   2677   2678     1
   2678   2679     1
   2678   2687     1
   2685   2687     1
   2688   2693     1
   2688   2700     1
   2688   2698     1
   2689   2708     1
   2689   2694     1
   2689   2699     1
   2692   2702     1
   2692   2710     1
   2692   2698     1
   2693   2701     1
   2694   2700     1
   2694   2702     1
   2698   2699     1
   2699   2700     1
   2699   2710     1
   2700   2701     1
   2701   2702     1
   2701   2710     1
   2708   2710     1
   2711   2716     1
   2711   2723     1
   2711   2721     1
   2712   2717     1
   2712   2722     1
   2712   2731     1
   2715   2721     1
   2715   2733     1
   2715   2725     1
   2716   2724     1
   2717   2725     1
   2717   2723     1
   2721   2722     1
   2722   2733     1
   2722   2723     1
   2723   2724     1
   2724   2725     1
   2724   2733     1
   2731   2733     1
   2734   2739     1
   2734   2746     1
   2734   2744     1
   2735   2754     1
   2735   2740     1
   2735   2745     1
   2738   2748     1
   2738   2756     1
   2738   2744     1
   2739   2747     1
   2740   2746     1
   2740   2748     1
   2744   2745     1
   2745   2746     1
   2745   2756     1
   2746   2747     1
   2747   2748     1
   2747   2756     1
   2754   2756     1
   2757   2762     1
   2757   2769     1
   2757   2767     1
   2758   2763     1
   2758   2768     1
   2758   2777     1
   2761   2767     1
   2761   2779     1
   2761   2771     1
   2762   2770     1
   2763   2771     1
   2763   2769     1
   2767   2768     1
   2768   2779     1
   2768   2769     1
   2769   2770     1
   2770   2771     1
   2770   2779     1
   2777   2779     1
   2780   2785     1
   2780   2792     1
   2780   2790     1
   2781   2800     1
   2781   2786     1
   2781   2791     1
   2784   2794     1
   2784   2802     1
   2784   2790     1
   2785   2793     1
   2786   2792     1
   2786   2794     1
   2790   2791     1
   2791   2792     1
   2791   2802     1
   2792   2793     1
   2793   2794     1
   2793   2802     1
   2800   2802     1
   2803   2808     1
   2803   2815     1
   2803   2813     1
   2804   2809     1
   2804   2814     1
   2804   2823     1
   2807   2813     1
   2807   2825     1
   2807   2817     1
   2808   2816     1
   2809   2817     1
   2809   2815     1
   2813   2814     1
   2814   2825     1
   2814   2815     1
   2815   2816     1
   2816   2817     1
   2816   2825     1
   2823   2825     1
   2826   2831     1
   2826   2838     1
   2826   2836     1
   2827   2846     1
   2827   2832     1
   2827   2837     1
   2830   2840     1
   2830   2848     1
   2830   2836     1
   2831   2839     1
   2832   2838     1
   2832   2840     1
   2836   2837     1
   2837   2838     1
   2837   2848     1
   2838   2839     1
   2839   2840     1
   2839   2848     1
   2846   2848     1
   2849   2854     1
   2849   2861     1
   2849   2859     1
   2850   2855     1
   2850   2860     1
   2850   2869     1
   2853   2859     1
   2853   2871     1
   2853   2863     1
   2854   2862     1
   2855   2863     1
   2855   2861     1
   2859   2860     1
   2860   2871     1
   2860   2861     1
   2861   2862     1
   2862   2863     1
   2862   2871     1
   2869   2871     1
   2872   2877     1
   2872   2884     1
   2872   2882     1
   2873   2892     1
   2873   2878     1
   2873   2883     1
   2876   2886     1
   2876   2894     1
   2876   2882     1
   2877   2885     1
   2878   2884     1
   2878   2886     1
   2882   2883     1
   2883   2884     1
   2883   2894     1
   2884   2885     1
   2885   2886     1
   2885   2894     1
   2892   2894     1
   2895   2900     1
   2895   2907     1
   2895   2905     1
   2896   2901     1
   2896   2906     1
   2896   2915     1
   2899   2905     1
   2899   2917     1
   2899   2909     1
   2900   2908     1
   2901   2909     1
   2901   2907     1
   2905   2906     1
   2906   2917     1
   2906   2907     1
   2907   2908     1
   2908   2909     1
   2908   2917     1
   2915   2917     1
   2918   2923     1
   2918   2930     1
   2918   2928     1
   2919   2938     1
   2919   2924     1
   2919   2929     1
   2922   2932     1
   2922   2940     1
   2922   2928     1
   2923   2931     1
   2924   2930     1
   2924   2932     1
   2928   2929     1
   2929   2930     1
   2929   2940     1
   2930   2931     1
   2931   2932     1
   2931   2940     1
   2938   2940     1
   2941   2946     1
   2941   2953     1
   2941   2951     1
   2942   2947     1
   2942   2952     1
   2942   2961     1
   2945   2951     1
   2945   2963     1
   2945   2955     1
   2946   2954     1
   2947   2955     1
   2947   2953     1
   2951   2952     1
   2952   2963     1
   2952   2953     1
   2953   2954     1
   2954   2955     1
   2954   2963     1
   2961   2963     1
   2964   2969     1
   2964   2976     1
   2964   2974     1
   2965   2984     1
   2965   2970     1
   2965   2975     1
   2968   2978     1
   2968   2986     1
   2968   2974     1
   2969   2977     1
   2970   2976     1
   2970   2978     1
   2974   2975     1
   2975   2976     1
   2975   2986     1
   2976   2977     1
   2977   2978     1
   2977   2986     1
   2984   2986     1
   2987   2992     1
   2987   2999     1
   2987   2997     1
   2988   2993     1
   2988   2998     1
   2988   3007     1
   2991   2997     1
   2991   3009     1
   2991   3001     1
   2992   3000     1
   2993   3001     1
   2993   2999     1
   2997   2998     1
   2998   3009     1
   2998   2999     1
   2999   3000     1
   3000   3001     1
   3000   3009     1
   3007   3009     1
   3010   3015     1
   3010   3022     1
   3010   3020     1
   3011   3030     1
   3011   3016     1
   3011   3021     1
   3014   3024     1
   3014   3032     1
   3014   3020     1
   3015   3023     1
   3016   3022     1
   3016   3024     1
   3020   3021     1
   3021   3022     1
   3021   3032     1
   3022   3023     1
   3023   3024     1
   3023   3032     1
   3030   3032     1
   3033   3038     1
   3033   3045     1
   3033   3043     1
   3034   3039     1
   3034   3044     1
   3034   3053     1
   3037   3043     1
   3037   3055     1
   3037   3047     1
   3038   3046     1
   3039   3047     1
   3039   3045     1
   3043   3044     1
   3044   3055     1
   3044   3045     1
   3045   3046     1
   3046   3047     1
   3046   3055     1
   3053   3055     1
   3056   3061     1
   3056   3068     1
   3056   3066     1
   3057   3076     1
   3057   3062     1
   3057   3067     1
   3060   3070     1
   3060   3078     1
   3060   3066     1
   3061   3069     1
   3062   3068     1
   3062   3070     1
   3066   3067     1
   3067   3068     1
   3067   3078     1
   3068   3069     1
   3069   3070     1
   3069   3078     1
   3076   3078     1
   3079   3084     1
   3079   3091     1
   3079   3089     1
   3080   3085     1
   3080   3090     1
   3080   3099     1
   3083   3089     1
   3083   3101     1
   3083   3093     1
   3084   3092     1
   3085   3093     1
   3085   3091     1
   3089   3090     1
   3090   3101     1
   3090   3091     1
   3091   3092     1
   3092   3093     1
   3092   3101     1
   3099   3101     1
   3102   3107     1
   3102   3114     1
   3102   3112     1
   3103   3122     1
   3103   3108     1
   3103   3113     1
   3106   3116     1
   3106   3124     1
   3106   3112     1
   3107   3115     1
   3108   3114     1
   3108   3116     1
   3112   3113     1
   3113   3114     1
   3113   3124     1
   3114   3115     1
   3115   3116     1
   3115   3124     1
   3122   3124     1
   3125   3130     1
   3125   3137     1
   3125   3135     1
   3126   3131     1
   3126   3136     1
   3126   3145     1
   3129   3135     1
   3129   3147     1
   3129   3139     1
   3130   3138     1
   3131   3139     1
   3131   3137     1
   3135   3136     1
   3136   3147     1
   3136   3137     1
   3137   3138     1
   3138   3139     1
   3138   3147     1
   3145   3147     1
   3148   3153     1
   3148   3160     1
   3148   3158     1
   3149   3168     1
   3149   3154     1
   3149   3159     1
   3152   3162     1
   3152   3170     1
   3152   3158     1
   3153   3161     1
   3154   3160     1
   3154   3162     1
   3158   3159     1
   3159   3160     1
   3159   3170     1
   3160   3161     1
   3161   3162     1
   3161   3170     1
   3168   3170     1
   3171   3176     1
   3171   3183     1
   3171   3181     1
   3172   3177     1
   3172   3182     1
   3172   3191     1
   3175   3181     1
   3175   3193     1
   3175   3185     1
   3176   3184     1
   3177   3185     1
   3177   3183     1
   3181   3182     1
   3182   3193     1
   3182   3183     1
   3183   3184     1
   3184   3185     1
   3184   3193     1
   3191   3193     1
   3194   3199     1
   3194   3206     1
   3194   3204     1
   3195   3214     1
   3195   3200     1
   3195   3205     1
   3198   3208     1
   3198   3216     1
   3198   3204     1
   3199   3207     1
   3200   3206     1
   3200   3208     1
   3204   3205     1
   3205   3206     1
   3205   3216     1
   3206   3207     1
   3207   3208     1
   3207   3216     1
   3214   3216     1
   3217   3222     1
   3217   3229     1
   3217   3227     1
   3218   3223     1
   3218   3228     1
   3218   3237     1
   3221   3227     1
   3221   3239     1
   3221   3231     1
   3222   3230     1
   3223   3231     1
   3223   3229     1
   3227   3228     1
   3228   3239     1
   3228   3229     1
   3229   3230     1
   3230   3231     1
   3230   3239     1
   3237   3239     1
   3240   3245     1
   3240   3252     1
   3240   3250     1
   3241   3260     1
   3241   3246     1
   3241   3251     1
   3244   3254     1
   3244   3262     1
   3244   3250     1
   3245   3253     1
   3246   3252     1
   3246   3254     1
   3250   3251     1
   3251   3252     1
   3251   3262     1
   3252   3253     1
   3253   3254     1
   3253   3262     1
   3260   3262     1
   3263   3268     1
   3263   3275     1
   3263   3273     1
   3264   3269     1
   3264   3274     1
   3264   3283     1
   3267   3273     1
   3267   3285     1
   3267   3277     1
   3268   3276     1
   3269   3277     1
   3269   3275     1
   3273   3274     1
   3274   3285     1
   3274   3275     1
   3275   3276     1
   3276   3277     1
   3276   3285     1
   3283   3285     1
   3286   3291     1
   3286   3298     1
   3286   3296     1
   3287   3306     1
   3287   3292     1
   3287   3297     1
   3290   3300     1
   3290   3308     1
   3290   3296     1
   3291   3299     1
   3292   3298     1
   3292   3300     1
   3296   3297     1
   3297   3298     1
   3297   3308     1
   3298   3299     1
   3299   3300     1
   3299   3308     1
   3306   3308     1
   3309   3314     1
   3309   3321     1
   3309   3319     1
   3310   3315     1
   3310   3320     1
   3310   3329     1
   3313   3319     1
   3313   3331     1
   3313   3323     1
   3314   3322     1
   3315   3323     1
   3315   3321     1
   3319   3320     1
   3320   3331     1
   3320   3321     1
   3321   3322     1
   3322   3323     1
   3322   3331     1
   3329   3331     1
      1      9     1
      1     10     1
      1     12     1
      1     13     1
      2      6     1
      2      7     1
      2     15     1
      2     16     1
      5      3     1
      3     14     1
      3      9     1
      3     10     1
      5      4     1
      4     14     1
      4      9     1
      4     10     1
      5     18     1
      5     19     1
      6     17     1
      6     12     1
      6     13     1
      7     17     1
      7     12     1
      7     13     1
      8     58     1
      9     20     1
      9     15     1
      9     16     1
     10     20     1
     10     15     1
     10     16     1
     11     59     1
     12     21     1
     12     18     1
     12     19     1
     13     21     1
     13     18     1
     13     19     1
     14     29     1
     14     30     1
     14     32     1
     14     33     1
     15     28     1
     15     31     1
     15     58     1
     16     28     1
     16     31     1
     16     58     1
     17     23     1
     17     24     1
     17     26     1
     17     27     1
     18     22     1
     18     25     1
     18     59     1
     19     22     1
     19     25     1
     19     59     1
     20     41     1
     20     42     1
     20     44     1
     20     45     1
     21     35     1
     21     36     1
     21     38     1
     21     39     1
     22     26     1
     22     27     1
     22     56     1
     22     57     1
     23     25     1
     23     59     1
     23     55     1
     23     35     1
     23     36     1
     24     25     1
     24     59     1
     24     55     1
     24     35     1
     24     36     1
     25     53     1
     25     54     1
     26     59     1
     26     52     1
     26     38     1
     26     39     1
     27     59     1
     27     52     1
     27     38     1
     27     39     1
     28     32     1
     28     33     1
     28     50     1
     28     51     1
     29     31     1
     29     58     1
     29     49     1
     29     41     1
     29     42     1
     30     31     1
     30     58     1
     30     49     1
     30     41     1
     30     42     1
     31     47     1
     31     48     1
     32     58     1
     32     46     1
     32     44     1
     32     45     1
     33     58     1
     33     46     1
     33     44     1
     33     45     1
     34     59     1
     35    178     1
     35     56     1
     35     57     1
     36    178     1
     36     56     1
     36     57     1
     37     59     1
     38    148     1
     38     53     1
     38     54     1
     39    148     1
     39     53     1
     39     54     1
     40     58     1
     41    118     1
     41     50     1
     41     51     1
     42    118     1
     42     50     1
     42     51     1
     43     58     1
     44     88     1
     44     47     1
     44     48     1
     45     88     1
     45     47     1
     45     48     1
     46     80     1
     46     81     1
     47     79     1
     48     79     1
     49    110     1
     49    111     1
     50    109     1
     51    109     1
     52    140     1
     52    141     1
     53    139     1
     54    139     1
     55    170     1
     55    171     1
     56    169     1
     57    169     1
     60     74     1
     60     75     1
     60     77     1
     60     78     1
     60     71     1
     60     72     1
     61     65     1
     61     66     1
     61     68     1
     61     69     1
     61     86     1
     61     87     1
     62     64     1
     62     67     1
     62     89     1
     62     85     1
     62     74     1
     62     75     1
     63     64     1
     63     67     1
     63     89     1
     63     85     1
     63     74     1
     63     75     1
     64     68     1
     64     69     1
     64     83     1
     64     84     1
     65     67     1
     65     89     1
     65     82     1
     65     77     1
     65     78     1
     66     67     1
     66     89     1
     66     82     1
     66     77     1
     66     78     1
     67     80     1
     67     81     1
     68     89     1
     68     79     1
     68     71     1
     68     72     1
     69     89     1
     69     79     1
     69     71     1
     69     72     1
     70     89     1
     71     88     1
     71     80     1
     71     81     1
     72     88     1
     72     80     1
     72     81     1
     73     89     1
     74    238     1
     74     86     1
     74     87     1
     75    238     1
     75     86     1
     75     87     1
     76     89     1
     77    208     1
     77     83     1
     77     84     1
     78    208     1
     78     83     1
     78     84     1
     82    200     1
     82    201     1
     83    199     1
     84    199     1
     85    230     1
     85    231     1
     86    229     1
     87    229     1
     90    104     1
     90    105     1
     90    107     1
     90    108     1
     90    101     1
     90    102     1
     91     95     1
     91     96     1
     91     98     1
     91     99     1
     91    116     1
     91    117     1
     92     94     1
     92     97     1
     92    119     1
     92    115     1
     92    104     1
     92    105     1
     93     94     1
     93     97     1
     93    119     1
     93    115     1
     93    104     1
     93    105     1
     94     98     1
     94     99     1
     94    113     1
     94    114     1
     95     97     1
     95    119     1
     95    112     1
     95    107     1
     95    108     1
     96     97     1
     96    119     1
     96    112     1
     96    107     1
     96    108     1
     97    110     1
     97    111     1
     98    119     1
     98    109     1
     98    101     1
     98    102     1
     99    119     1
     99    109     1
     99    101     1
     99    102     1
    100    119     1
    101    118     1
    101    110     1
    101    111     1
    102    118     1
    102    110     1
    102    111     1
    103    119     1
    104    298     1
    104    116     1
    104    117     1
    105    298     1
    105    116     1
    105    117     1
    106    119     1
    107    268     1
    107    113     1
    107    114     1
    108    268     1
    108    113     1
    108    114     1
    112    260     1
    112    261     1
    113    259     1
    114    259     1
    115    290     1
    115    291     1
    116    289     1
    117    289     1
    120    134     1
    120    135     1
    120    137     1
    120    138     1
    120    131     1
    120    132     1
    121    125     1
    121    126     1
    121    128     1
    121    129     1
    121    146     1
    121    147     1
    122    124     1
    122    127     1
    122    149     1
    122    145     1
    122    134     1
    122    135     1
    123    124     1
    123    127     1
    123    149     1
    123    145     1
    123    134     1
    123    135     1
    124    128     1
    124    129     1
    124    143     1
    124    144     1
    125    127     1
    125    149     1
    125    142     1
    125    137     1
    125    138     1
    126    127     1
    126    149     1
    126    142     1
    126    137     1
    126    138     1
    127    140     1
    127    141     1
    128    149     1
    128    139     1
    128    131     1
    128    132     1
    129    149     1
    129    139     1
    129    131     1
    129    132     1
    130    149     1
    131    148     1
    131    140     1
    131    141     1
    132    148     1
    132    140     1
    132    141     1
    133    149     1
    134    358     1
    134    146     1
    134    147     1
    135    358     1
    135    146     1
    135    147     1
    136    149     1
    137    328     1
    137    143     1
    137    144     1
    138    328     1
    138    143     1
    138    144     1
    142    320     1
    142    321     1
    143    319     1
    144    319     1
    145    350     1
    145    351     1
    146    349     1
    147    349     1
    150    164     1
    150    165     1
    150    167     1
    150    168     1
    150    161     1
    150    162     1
    151    155     1
    151    156     1
    151    158     1
    151    159     1
    151    176     1
    151    177     1
    152    154     1
    152    157     1
    152    179     1
    152    175     1
    152    164     1
    152    165     1
    153    154     1
    153    157     1
    153    179     1
    153    175     1
    153    164     1
    153    165     1
    154    158     1
    154    159     1
    154    173     1
    154    174     1
    155    157     1
    155    179     1
    155    172     1
    155    167     1
    155    168     1
    156    157     1
    156    179     1
    156    172     1
    156    167     1
    156    168     1
    157    170     1
    157    171     1
    158    179     1
    158    169     1
    158    161     1
    158    162     1
    159    179     1
    159    169     1
    159    161     1
    159    162     1
    160    179     1
    161    178     1
    161    170     1
    161    171     1
    162    178     1
    162    170     1
    162    171     1
    163    179     1
    164    418     1
    164    176     1
    164    177     1
    165    418     1
    165    176     1
    165    177     1
    166    179     1
    167    388     1
    167    173     1
    167    174     1
    168    388     1
    168    173     1
    168    174     1
    172    380     1
    172    381     1
    173    379     1
    174    379     1
    175    410     1
    175    411     1
    176    409     1
    177    409     1
    180    194     1
    180    195     1
    180    197     1
    180    198     1
    180    191     1
    180    192     1
    181    185     1
    181    186     1
    181    188     1
    181    189     1
    181    206     1
    181    207     1
    182    184     1
    182    187     1
    182    209     1
    182    205     1
    182    194     1
    182    195     1
    183    184     1
    183    187     1
    183    209     1
    183    205     1
    183    194     1
    183    195     1
    184    188     1
    184    189     1
    184    203     1
    184    204     1
    185    187     1
    185    209     1
    185    202     1
    185    197     1
    185    198     1
    186    187     1
    186    209     1
    186    202     1
    186    197     1
    186    198     1
    187    200     1
    187    201     1
    188    209     1
    188    199     1
    188    191     1
    188    192     1
    189    209     1
    189    199     1
    189    191     1
    189    192     1
    190    209     1
    191    208     1
    191    200     1
    191    201     1
    192    208     1
    192    200     1
    192    201     1
    193    209     1
    194    478     1
    194    206     1
    194    207     1
    195    478     1
    195    206     1
    195    207     1
    196    209     1
    197    448     1
    197    203     1
    197    204     1
    198    448     1
    198    203     1
    198    204     1
    202    440     1
    202    441     1
    203    439     1
    204    439     1
    205    470     1
    205    471     1
    206    469     1
    207    469     1
    210    224     1
    210    225     1
    210    227     1
    210    228     1
    210    221     1
    210    222     1
    211    215     1
    211    216     1
    211    218     1
    211    219     1
    211    236     1
    211    237     1
    212    214     1
    212    217     1
    212    239     1
    212    235     1
    212    224     1
    212    225     1
    213    214     1
    213    217     1
    213    239     1
    213    235     1
    213    224     1
    213    225     1
    214    218     1
    214    219     1
    214    233     1
    214    234     1
    215    217     1
    215    239     1
    215    232     1
    215    227     1
    215    228     1
    216    217     1
    216    239     1
    216    232     1
    216    227     1
    216    228     1
    217    230     1
    217    231     1
    218    239     1
    218    229     1
    218    221     1
    218    222     1
    219    239     1
    219    229     1
    219    221     1
    219    222     1
    220    239     1
    221    238     1
    221    230     1
    221    231     1
    222    238     1
    222    230     1
    222    231     1
    223    239     1
    224    538     1
    224    236     1
    224    237     1
    225    538     1
    225    236     1
    225    237     1
    226    239     1
    227    508     1
    227    233     1
    227    234     1
    228    508     1
    228    233     1
    228    234     1
    232    500     1
    232    501     1
    233    499     1
    234    499     1
    235    530     1
    235    531     1
    236    529     1
    237    529     1
    240    254     1
    240    255     1
    240    257     1
    240    258     1
    240    251     1
    240    252     1
    241    245     1
    241    246     1
    241    248     1
    241    249     1
    241    266     1
    241    267     1
    242    244     1
    242    247     1
    242    269     1
    242    265     1
    242    254     1
    242    255     1
    243    244     1
    243    247     1
    243    269     1
    243    265     1
    243    254     1
    243    255     1
    244    248     1
    244    249     1
    244    263     1
    244    264     1
    245    247     1
    245    269     1
    245    262     1
    245    257     1
    245    258     1
    246    247     1
    246    269     1
    246    262     1
    246    257     1
    246    258     1
    247    260     1
    247    261     1
    248    269     1
    248    259     1
    248    251     1
    248    252     1
    249    269     1
    249    259     1
    249    251     1
    249    252     1
    250    269     1
    251    268     1
    251    260     1
    251    261     1
    252    268     1
    252    260     1
    252    261     1
    253    269     1
    254    598     1
    254    266     1
    254    267     1
    255    598     1
    255    266     1
    255    267     1
    256    269     1
    257    568     1
    257    263     1
    257    264     1
    258    568     1
    258    263     1
    258    264     1
    262    560     1
    262    561     1
    263    559     1
    264    559     1
    265    590     1
    265    591     1
    266    589     1
    267    589     1
    270    284     1
    270    285     1
    270    287     1
    270    288     1
    270    281     1
    270    282     1
    271    275     1
    271    276     1
    271    278     1
    271    279     1
    271    296     1
    271    297     1
    272    274     1
    272    277     1
    272    299     1
    272    295     1
    272    284     1
    272    285     1
    273    274     1
    273    277     1
    273    299     1
    273    295     1
    273    284     1
    273    285     1
    274    278     1
    274    279     1
    274    293     1
    274    294     1
    275    277     1
    275    299     1
    275    292     1
    275    287     1
    275    288     1
    276    277     1
    276    299     1
    276    292     1
    276    287     1
    276    288     1
    277    290     1
    277    291     1
    278    299     1
    278    289     1
    278    281     1
    278    282     1
    279    299     1
    279    289     1
    279    281     1
    279    282     1
    280    299     1
    281    298     1
    281    290     1
    281    291     1
    282    298     1
    282    290     1
    282    291     1
    283    299     1
    284    658     1
    284    296     1
    284    297     1
    285    658     1
    285    296     1
    285    297     1
    286    299     1
    287    628     1
    287    293     1
    287    294     1
    288    628     1
    288    293     1
    288    294     1
    292    620     1
    292    621     1
    293    619     1
    294    619     1
    295    650     1
    295    651     1
    296    649     1
    297    649     1
    300    314     1
    300    315     1
    300    317     1
    300    318     1
    300    311     1
    300    312     1
    301    305     1
    301    306     1
    301    308     1
    301    309     1
    301    326     1
    301    327     1
    302    304     1
    302    307     1
    302    329     1
    302    325     1
    302    314     1
    302    315     1
    303    304     1
    303    307     1
    303    329     1
    303    325     1
    303    314     1
    303    315     1
    304    308     1
    304    309     1
    304    323     1
    304    324     1
    305    307     1
    305    329     1
    305    322     1
    305    317     1
    305    318     1
    306    307     1
    306    329     1
    306    322     1
    306    317     1
    306    318     1
    307    320     1
    307    321     1
    308    329     1
    308    319     1
    308    311     1
    308    312     1
    309    329     1
    309    319     1
    309    311     1
    309    312     1
    310    329     1
    311    328     1
    311    320     1
    311    321     1
    312    328     1
    312    320     1
    312    321     1
    313    329     1
    314    718     1
    314    326     1
    314    327     1
    315    718     1
    315    326     1
    315    327     1
    316    329     1
    317    688     1
    317    323     1
    317    324     1
    318    688     1
    318    323     1
    318    324     1
    322    680     1
    322    681     1
    323    679     1
    324    679     1
    325    710     1
    325    711     1
    326    709     1
    327    709     1
    330    344     1
    330    345     1
    330    347     1
    330    348     1
    330    341     1
    330    342     1
    331    335     1
    331    336     1
    331    338     1
    331    339     1
    331    356     1
    331    357     1
    332    334     1
    332    337     1
    332    359     1
    332    355     1
    332    344     1
    332    345     1
    333    334     1
    333    337     1
    333    359     1
    333    355     1
    333    344     1
    333    345     1
    334    338     1
    334    339     1
    334    353     1
    334    354     1
    335    337     1
    335    359     1
    335    352     1
    335    347     1
    335    348     1
    336    337     1
    336    359     1
    336    352     1
    336    347     1
    336    348     1
    337    350     1
    337    351     1
    338    359     1
    338    349     1
    338    341     1
    338    342     1
    339    359     1
    339    349     1
    339    341     1
    339    342     1
    340    359     1
    341    358     1
    341    350     1
    341    351     1
    342    358     1
    342    350     1
    342    351     1
    343    359     1
    344    778     1
    344    356     1
    344    357     1
    345    778     1
    345    356     1
    345    357     1
    346    359     1
    347    748     1
    347    353     1
    347    354     1
    348    748     1
    348    353     1
    348    354     1
    352    740     1
    352    741     1
    353    739     1
    354    739     1
    355    770     1
    355    771     1
    356    769     1
    357    769     1
    360    374     1
    360    375     1
    360    377     1
    360    378     1
    360    371     1
    360    372     1
    361    365     1
    361    366     1
    361    368     1
    361    369     1
    361    386     1
    361    387     1
    362    364     1
    362    367     1
    362    389     1
    362    385     1
    362    374     1
    362    375     1
    363    364     1
    363    367     1
    363    389     1
    363    385     1
    363    374     1
    363    375     1
    364    368     1
    364    369     1
    364    383     1
    364    384     1
    365    367     1
    365    389     1
    365    382     1
    365    377     1
    365    378     1
    366    367     1
    366    389     1
    366    382     1
    366    377     1
    366    378     1
    367    380     1
    367    381     1
    368    389     1
    368    379     1
    368    371     1
    368    372     1
    369    389     1
    369    379     1
    369    371     1
    369    372     1
    370    389     1
    371    388     1
    371    380     1
    371    381     1
    372    388     1
    372    380     1
    372    381     1
    373    389     1
    374    838     1
    374    386     1
    374    387     1
    375    838     1
    375    386     1
    375    387     1
    376    389     1
    377    808     1
    377    383     1
    377    384     1
    378    808     1
    378    383     1
    378    384     1
    382    800     1
    382    801     1
    383    799     1
    384    799     1
    385    830     1
    385    831     1
    386    829     1
    387    829     1
    390    404     1
    390    405     1
    390    407     1
    390    408     1
    390    401     1
    390    402     1
    391    395     1
    391    396     1
    391    398     1
    391    399     1
    391    416     1
    391    417     1
    392    394     1
    392    397     1
    392    419     1
    392    415     1
    392    404     1
    392    405     1
    393    394     1
    393    397     1
    393    419     1
    393    415     1
    393    404     1
    393    405     1
    394    398     1
    394    399     1
    394    413     1
    394    414     1
    395    397     1
    395    419     1
    395    412     1
    395    407     1
    395    408     1
    396    397     1
    396    419     1
    396    412     1
    396    407     1
    396    408     1
    397    410     1
    397    411     1
    398    419     1
    398    409     1
    398    401     1
    398    402     1
    399    419     1
    399    409     1
    399    401     1
    399    402     1
    400    419     1
    401    418     1
    401    410     1
    401    411     1
    402    418     1
    402    410     1
    402    411     1
    403    419     1
    404    898     1
    404    416     1
    404    417     1
    405    898     1
    405    416     1
    405    417     1
    406    419     1
    407    868     1
    407    413     1
    407    414     1
    408    868     1
    408    413     1
    408    414     1
    412    860     1
    412    861     1
    413    859     1
    414    859     1
    415    890     1
    415    891     1
    416    889     1
    417    889     1
    420    434     1
    420    435     1
    420    437     1
    420    438     1
    420    431     1
    420    432     1
    421    425     1
    421    426     1
    421    428     1
    421    429     1
    421    446     1
    421    447     1
    422    424     1
    422    427     1
    422    449     1
    422    445     1
    422    434     1
    422    435     1
    423    424     1
    423    427     1
    423    449     1
    423    445     1
    423    434     1
    423    435     1
    424    428     1
    424    429     1
    424    443     1
    424    444     1
    425    427     1
    425    449     1
    425    442     1
    425    437     1
    425    438     1
    426    427     1
    426    449     1
    426    442     1
    426    437     1
    426    438     1
    427    440     1
    427    441     1
    428    449     1
    428    439     1
    428    431     1
    428    432     1
    429    449     1
    429    439     1
    429    431     1
    429    432     1
    430    449     1
    431    448     1
    431    440     1
    431    441     1
    432    448     1
    432    440     1
    432    441     1
    433    449     1
    434    958     1
    434    446     1
    434    447     1
    435    958     1
    435    446     1
    435    447     1
    436    449     1
    437    928     1
    437    443     1
    437    444     1
    438    928     1
    438    443     1
    438    444     1
    442    920     1
    442    921     1
    443    919     1
    444    919     1
    445    950     1
    445    951     1
    446    949     1
    447    949     1
    450    464     1
    450    465     1
    450    467     1
    450    468     1
    450    461     1
    450    462     1
    451    455     1
    451    456     1
    451    458     1
    451    459     1
    451    476     1
    451    477     1
    452    454     1
    452    457     1
    452    479     1
    452    475     1
    452    464     1
    452    465     1
    453    454     1
    453    457     1
    453    479     1
    453    475     1
    453    464     1
    453    465     1
    454    458     1
    454    459     1
    454    473     1
    454    474     1
    455    457     1
    455    479     1
    455    472     1
    455    467     1
    455    468     1
    456    457     1
    456    479     1
    456    472     1
    456    467     1
    456    468     1
    457    470     1
    457    471     1
    458    479     1
    458    469     1
    458    461     1
    458    462     1
    459    479     1
    459    469     1
    459    461     1
    459    462     1
    460    479     1
    461    478     1
    461    470     1
    461    471     1
    462    478     1
    462    470     1
    462    471     1
    463    479     1
    464   1018     1
    464    476     1
    464    477     1
    465   1018     1
    465    476     1
    465    477     1
    466    479     1
    467    988     1
    467    473     1
    467    474     1
    468    988     1
    468    473     1
    468    474     1
    472    980     1
    472    981     1
    473    979     1
    474    979     1
    475   1010     1
    475   1011     1
    476   1009     1
    477   1009     1
    480    494     1
    480    495     1
    480    497     1
    480    498     1
    480    491     1
    480    492     1
    481    485     1
    481    486     1
    481    488     1
    481    489     1
    481    506     1
    481    507     1
    482    484     1
    482    487     1
    482    509     1
    482    505     1
    482    494     1
    482    495     1
    483    484     1
    483    487     1
    483    509     1
    483    505     1
    483    494     1
    483    495     1
    484    488     1
    484    489     1
    484    503     1
    484    504     1
    485    487     1
    485    509     1
    485    502     1
    485    497     1
    485    498     1
    486    487     1
    486    509     1
    486    502     1
    486    497     1
    486    498     1
    487    500     1
    487    501     1
    488    509     1
    488    499     1
    488    491     1
    488    492     1
    489    509     1
    489    499     1
    489    491     1
    489    492     1
    490    509     1
    491    508     1
    491    500     1
    491    501     1
    492    508     1
    492    500     1
    492    501     1
    493    509     1
    494   1078     1
    494    506     1
    494    507     1
    495   1078     1
    495    506     1
    495    507     1
    496    509     1
    497   1048     1
    497    503     1
    497    504     1
    498   1048     1
    498    503     1
    498    504     1
    502   1040     1
    502   1041     1
    503   1039     1
    504   1039     1
    505   1070     1
    505   1071     1
    506   1069     1
    507   1069     1
    510    524     1
    510    525     1
    510    527     1
    510    528     1
    510    521     1
    510    522     1
    511    515     1
    511    516     1
    511    518     1
    511    519     1
    511    536     1
    511    537     1
    512    514     1
    512    517     1
    512    539     1
    512    535     1
    512    524     1
    512    525     1
    513    514     1
    513    517     1
    513    539     1
    513    535     1
    513    524     1
    513    525     1
    514    518     1
    514    519     1
    514    533     1
    514    534     1
    515    517     1
    515    539     1
    515    532     1
    515    527     1
    515    528     1
    516    517     1
    516    539     1
    516    532     1
    516    527     1
    516    528     1
    517    530     1
    517    531     1
    518    539     1
    518    529     1
    518    521     1
    518    522     1
    519    539     1
    519    529     1
    519    521     1
    519    522     1
    520    539     1
    521    538     1
    521    530     1
    521    531     1
    522    538     1
    522    530     1
    522    531     1
    523    539     1
    524   1138     1
    524    536     1
    524    537     1
    525   1138     1
    525    536     1
    525    537     1
    526    539     1
    527   1108     1
    527    533     1
    527    534     1
    528   1108     1
    528    533     1
    528    534     1
    532   1100     1
    532   1101     1
    533   1099     1
    534   1099     1
    535   1130     1
    535   1131     1
    536   1129     1
    537   1129     1
    540    554     1
    540    555     1
    540    557     1
    540    558     1
    540    551     1
    540    552     1
    541    545     1
    541    546     1
    541    548     1
    541    549     1
    541    566     1
    541    567     1
    542    544     1
    542    547     1
    542    569     1
    542    565     1
    542    554     1
    542    555     1
    543    544     1
    543    547     1
    543    569     1
    543    565     1
    543    554     1
    543    555     1
    544    548     1
    544    549     1
    544    563     1
    544    564     1
    545    547     1
    545    569     1
    545    562     1
    545    557     1
    545    558     1
    546    547     1
    546    569     1
    546    562     1
    546    557     1
    546    558     1
    547    560     1
    547    561     1
    548    569     1
    548    559     1
    548    551     1
    548    552     1
    549    569     1
    549    559     1
    549    551     1
    549    552     1
    550    569     1
    551    568     1
    551    560     1
    551    561     1
    552    568     1
    552    560     1
    552    561     1
    553    569     1
    554   1198     1
    554    566     1
    554    567     1
    555   1198     1
    555    566     1
    555    567     1
    556    569     1
    557   1168     1
    557    563     1
    557    564     1
    558   1168     1
    558    563     1
    558    564     1
    562   1160     1
    562   1161     1
    563   1159     1
    564   1159     1
    565   1190     1
    565   1191     1
    566   1189     1
    567   1189     1
    570    584     1
    570    585     1
    570    587     1
    570    588     1
    570    581     1
    570    582     1
    571    575     1
    571    576     1
    571    578     1
    571    579     1
    571    596     1
    571    597     1
    572    574     1
    572    577     1
    572    599     1
    572    595     1
    572    584     1
    572    585     1
    573    574     1
    573    577     1
    573    599     1
    573    595     1
    573    584     1
    573    585     1
    574    578     1
    574    579     1
    574    593     1
    574    594     1
    575    577     1
    575    599     1
    575    592     1
    575    587     1
    575    588     1
    576    577     1
    576    599     1
    576    592     1
    576    587     1
    576    588     1
    577    590     1
    577    591     1
    578    599     1
    578    589     1
    578    581     1
    578    582     1
    579    599     1
    579    589     1
    579    581     1
    579    582     1
    580    599     1
    581    598     1
    581    590     1
    581    591     1
    582    598     1
    582    590     1
    582    591     1
    583    599     1
    584   1258     1
    584    596     1
    584    597     1
    585   1258     1
    585    596     1
    585    597     1
    586    599     1
    587   1228     1
    587    593     1
    587    594     1
    588   1228     1
    588    593     1
    588    594     1
    592   1220     1
    592   1221     1
    593   1219     1
    594   1219     1
    595   1250     1
    595   1251     1
    596   1249     1
    597   1249     1
    600    614     1
    600    615     1
    600    617     1
    600    618     1
    600    611     1
    600    612     1
    601    605     1
    601    606     1
    601    608     1
    601    609     1
    601    626     1
    601    627     1
    602    604     1
    602    607     1
    602    629     1
    602    625     1
    602    614     1
    602    615     1
    603    604     1
    603    607     1
    603    629     1
    603    625     1
    603    614     1
    603    615     1
    604    608     1
    604    609     1
    604    623     1
    604    624     1
    605    607     1
    605    629     1
    605    622     1
    605    617     1
    605    618     1
    606    607     1
    606    629     1
    606    622     1
    606    617     1
    606    618     1
    607    620     1
    607    621     1
    608    629     1
    608    619     1
    608    611     1
    608    612     1
    609    629     1
    609    619     1
    609    611     1
    609    612     1
    610    629     1
    611    628     1
    611    620     1
    611    621     1
    612    628     1
    612    620     1
    612    621     1
    613    629     1
    614   1318     1
    614    626     1
    614    627     1
    615   1318     1
    615    626     1
    615    627     1
    616    629     1
    617   1288     1
    617    623     1
    617    624     1
    618   1288     1
    618    623     1
    618    624     1
    622   1280     1
    622   1281     1
    623   1279     1
    624   1279     1
    625   1310     1
    625   1311     1
    626   1309     1
    627   1309     1
    630    644     1
    630    645     1
    630    647     1
    630    648     1
    630    641     1
    630    642     1
    631    635     1
    631    636     1
    631    638     1
    631    639     1
    631    656     1
    631    657     1
    632    634     1
    632    637     1
    632    659     1
    632    655     1
    632    644     1
    632    645     1
    633    634     1
    633    637     1
    633    659     1
    633    655     1
    633    644     1
    633    645     1
    634    638     1
    634    639     1
    634    653     1
    634    654     1
    635    637     1
    635    659     1
    635    652     1
    635    647     1
    635    648     1
    636    637     1
    636    659     1
    636    652     1
    636    647     1
    636    648     1
    637    650     1
    637    651     1
    638    659     1
    638    649     1
    638    641     1
    638    642     1
    639    659     1
    639    649     1
    639    641     1
    639    642     1
    640    659     1
    641    658     1
    641    650     1
    641    651     1
    642    658     1
    642    650     1
    642    651     1
    643    659     1
    644   1378     1
    644    656     1
    644    657     1
    645   1378     1
    645    656     1
    645    657     1
    646    659     1
    647   1348     1
    647    653     1
    647    654     1
    648   1348     1
    648    653     1
    648    654     1
    652   1340     1
    652   1341     1
    653   1339     1
    654   1339     1
    655   1370     1
    655   1371     1
    656   1369     1
    657   1369     1
    660    674     1
    660    675     1
    660    677     1
    660    678     1
    660    671     1
    660    672     1
    661    665     1
    661    666     1
    661    668     1
    661    669     1
    661    686     1
    661    687     1
    662    664     1
    662    667     1
    662    689     1
    662    685     1
    662    674     1
    662    675     1
    663    664     1
    663    667     1
    663    689     1
    663    685     1
    663    674     1
    663    675     1
    664    668     1
    664    669     1
    664    683     1
    664    684     1
    665    667     1
    665    689     1
    665    682     1
    665    677     1
    665    678     1
    666    667     1
    666    689     1
    666    682     1
    666    677     1
    666    678     1
    667    680     1
    667    681     1
    668    689     1
    668    679     1
    668    671     1
    668    672     1
    669    689     1
    669    679     1
    669    671     1
    669    672     1
    670    689     1
    671    688     1
    671    680     1
    671    681     1
    672    688     1
    672    680     1
    672    681     1
    673    689     1
    674   1438     1
    674    686     1
    674    687     1
    675   1438     1
    675    686     1
    675    687     1
    676    689     1
    677   1408     1
    677    683     1
    677    684     1
    678   1408     1
    678    683     1
    678    684     1
    682   1400     1
    682   1401     1
    683   1399     1
    684   1399     1
    685   1430     1
    685   1431     1
    686   1429     1
    687   1429     1
    690    704     1
    690    705     1
    690    707     1
    690    708     1
    690    701     1
    690    702     1
    691    695     1
    691    696     1
    691    698     1
    691    699     1
    691    716     1
    691    717     1
    692    694     1
    692    697     1
    692    719     1
    692    715     1
    692    704     1
    692    705     1
    693    694     1
    693    697     1
    693    719     1
    693    715     1
    693    704     1
    693    705     1
    694    698     1
    694    699     1
    694    713     1
    694    714     1
    695    697     1
    695    719     1
    695    712     1
    695    707     1
    695    708     1
    696    697     1
    696    719     1
    696    712     1
    696    707     1
    696    708     1
    697    710     1
    697    711     1
    698    719     1
    698    709     1
    698    701     1
    698    702     1
    699    719     1
    699    709     1
    699    701     1
    699    702     1
    700    719     1
    701    718     1
    701    710     1
    701    711     1
    702    718     1
    702    710     1
    702    711     1
    703    719     1
    704   1498     1
    704    716     1
    704    717     1
    705   1498     1
    705    716     1
    705    717     1
    706    719     1
    707   1468     1
    707    713     1
    707    714     1
    708   1468     1
    708    713     1
    708    714     1
    712   1460     1
    712   1461     1
    713   1459     1
    714   1459     1
    715   1490     1
    715   1491     1
    716   1489     1
    717   1489     1
    720    734     1
    720    735     1
    720    737     1
    720    738     1
    720    731     1
    720    732     1
    721    725     1
    721    726     1
    721    728     1
    721    729     1
    721    746     1
    721    747     1
    722    724     1
    722    727     1
    722    749     1
    722    745     1
    722    734     1
    722    735     1
    723    724     1
    723    727     1
    723    749     1
    723    745     1
    723    734     1
    723    735     1
    724    728     1
    724    729     1
    724    743     1
    724    744     1
    725    727     1
    725    749     1
    725    742     1
    725    737     1
    725    738     1
    726    727     1
    726    749     1
    726    742     1
    726    737     1
    726    738     1
    727    740     1
    727    741     1
    728    749     1
    728    739     1
    728    731     1
    728    732     1
    729    749     1
    729    739     1
    729    731     1
    729    732     1
    730    749     1
    731    748     1
    731    740     1
    731    741     1
    732    748     1
    732    740     1
    732    741     1
    733    749     1
    734   1558     1
    734    746     1
    734    747     1
    735   1558     1
    735    746     1
    735    747     1
    736    749     1
    737   1528     1
    737    743     1
    737    744     1
    738   1528     1
    738    743     1
    738    744     1
    742   1520     1
    742   1521     1
    743   1519     1
    744   1519     1
    745   1550     1
    745   1551     1
    746   1549     1
    747   1549     1
    750    764     1
    750    765     1
    750    767     1
    750    768     1
    750    761     1
    750    762     1
    751    755     1
    751    756     1
    751    758     1
    751    759     1
    751    776     1
    751    777     1
    752    754     1
    752    757     1
    752    779     1
    752    775     1
    752    764     1
    752    765     1
    753    754     1
    753    757     1
    753    779     1
    753    775     1
    753    764     1
    753    765     1
    754    758     1
    754    759     1
    754    773     1
    754    774     1
    755    757     1
    755    779     1
    755    772     1
    755    767     1
    755    768     1
    756    757     1
    756    779     1
    756    772     1
    756    767     1
    756    768     1
    757    770     1
    757    771     1
    758    779     1
    758    769     1
    758    761     1
    758    762     1
    759    779     1
    759    769     1
    759    761     1
    759    762     1
    760    779     1
    761    778     1
    761    770     1
    761    771     1
    762    778     1
    762    770     1
    762    771     1
    763    779     1
    764   1618     1
    764    776     1
    764    777     1
    765   1618     1
    765    776     1
    765    777     1
    766    779     1
    767   1588     1
    767    773     1
    767    774     1
    768   1588     1
    768    773     1
    768    774     1
    772   1580     1
    772   1581     1
    773   1579     1
    774   1579     1
    775   1610     1
    775   1611     1
    776   1609     1
    777   1609     1
    780    794     1
    780    795     1
    780    797     1
    780    798     1
    780    791     1
    780    792     1
    781    785     1
    781    786     1
    781    788     1
    781    789     1
    781    806     1
    781    807     1
    782    784     1
    782    787     1
    782    809     1
    782    805     1
    782    794     1
    782    795     1
    783    784     1
    783    787     1
    783    809     1
    783    805     1
    783    794     1
    783    795     1
    784    788     1
    784    789     1
    784    803     1
    784    804     1
    785    787     1
    785    809     1
    785    802     1
    785    797     1
    785    798     1
    786    787     1
    786    809     1
    786    802     1
    786    797     1
    786    798     1
    787    800     1
    787    801     1
    788    809     1
    788    799     1
    788    791     1
    788    792     1
    789    809     1
    789    799     1
    789    791     1
    789    792     1
    790    809     1
    791    808     1
    791    800     1
    791    801     1
    792    808     1
    792    800     1
    792    801     1
    793    809     1
    794   1678     1
    794    806     1
    794    807     1
    795   1678     1
    795    806     1
    795    807     1
    796    809     1
    797   1648     1
    797    803     1
    797    804     1
    798   1648     1
    798    803     1
    798    804     1
    802   1640     1
    802   1641     1
    803   1639     1
    804   1639     1
    805   1670     1
    805   1671     1
    806   1669     1
    807   1669     1
    810    824     1
    810    825     1
    810    827     1
    810    828     1
    810    821     1
    810    822     1
    811    815     1
    811    816     1
    811    818     1
    811    819     1
    811    836     1
    811    837     1
    812    814     1
    812    817     1
    812    839     1
    812    835     1
    812    824     1
    812    825     1
    813    814     1
    813    817     1
    813    839     1
    813    835     1
    813    824     1
    813    825     1
    814    818     1
    814    819     1
    814    833     1
    814    834     1
    815    817     1
    815    839     1
    815    832     1
    815    827     1
    815    828     1
    816    817     1
    816    839     1
    816    832     1
    816    827     1
    816    828     1
    817    830     1
    817    831     1
    818    839     1
    818    829     1
    818    821     1
    818    822     1
    819    839     1
    819    829     1
    819    821     1
    819    822     1
    820    839     1
    821    838     1
    821    830     1
    821    831     1
    822    838     1
    822    830     1
    822    831     1
    823    839     1
    824   1738     1
    824    836     1
    824    837     1
    825   1738     1
    825    836     1
    825    837     1
    826    839     1
    827   1708     1
    827    833     1
    827    834     1
    828   1708     1
    828    833     1
    828    834     1
    832   1700     1
    832   1701     1
    833   1699     1
    834   1699     1
    835   1730     1
    835   1731     1
    836   1729     1
    837   1729     1
    840    854     1
    840    855     1
    840    857     1
    840    858     1
    840    851     1
    840    852     1
    841    845     1
    841    846     1
    841    848     1
    841    849     1
    841    866     1
    841    867     1
    842    844     1
    842    847     1
    842    869     1
    842    865     1
    842    854     1
    842    855     1
    843    844     1
    843    847     1
    843    869     1
    843    865     1
    843    854     1
    843    855     1
    844    848     1
    844    849     1
    844    863     1
    844    864     1
    845    847     1
    845    869     1
    845    862     1
    845    857     1
    845    858     1
    846    847     1
    846    869     1
    846    862     1
    846    857     1
    846    858     1
    847    860     1
    847    861     1
    848    869     1
    848    859     1
    848    851     1
    848    852     1
    849    869     1
    849    859     1
    849    851     1
    849    852     1
    850    869     1
    851    868     1
    851    860     1
    851    861     1
    852    868     1
    852    860     1
    852    861     1
    853    869     1
    854   1798     1
    854    866     1
    854    867     1
    855   1798     1
    855    866     1
    855    867     1
    856    869     1
    857   1768     1
    857    863     1
    857    864     1
    858   1768     1
    858    863     1
    858    864     1
    862   1760     1
    862   1761     1
    863   1759     1
    864   1759     1
    865   1790     1
    865   1791     1
    866   1789     1
    867   1789     1
    870    884     1
    870    885     1
    870    887     1
    870    888     1
    870    881     1
    870    882     1
    871    875     1
    871    876     1
    871    878     1
    871    879     1
    871    896     1
    871    897     1
    872    874     1
    872    877     1
    872    899     1
    872    895     1
    872    884     1
    872    885     1
    873    874     1
    873    877     1
    873    899     1
    873    895     1
    873    884     1
    873    885     1
    874    878     1
    874    879     1
    874    893     1
    874    894     1
    875    877     1
    875    899     1
    875    892     1
    875    887     1
    875    888     1
    876    877     1
    876    899     1
    876    892     1
    876    887     1
    876    888     1
    877    890     1
    877    891     1
    878    899     1
    878    889     1
    878    881     1
    878    882     1
    879    899     1
    879    889     1
    879    881     1
    879    882     1
    880    899     1
    881    898     1
    881    890     1
    881    891     1
    882    898     1
    882    890     1
    882    891     1
    883    899     1
    884   1858     1
    884    896     1
    884    897     1
    885   1858     1
    885    896     1
    885    897     1
    886    899     1
    887   1828     1
    887    893     1
    887    894     1
    888   1828     1
    888    893     1
    888    894     1
    892   1820     1
    892   1821     1
    893   1819     1
    894   1819     1
    895   1850     1
    895   1851     1
    896   1849     1
    897   1849     1
    900    914     1
    900    915     1
    900    917     1
    900    918     1
    900    911     1
    900    912     1
    901    905     1
    901    906     1
    901    908     1
    901    909     1
    901    926     1
    901    927     1
    902    904     1
    902    907     1
    902    929     1
    902    925     1
    902    914     1
    902    915     1
    903    904     1
    903    907     1
    903    929     1
    903    925     1
    903    914     1
    903    915     1
    904    908     1
    904    909     1
    904    923     1
    904    924     1
    905    907     1
    905    929     1
    905    922     1
    905    917     1
    905    918     1
    906    907     1
    906    929     1
    906    922     1
    906    917     1
    906    918     1
    907    920     1
    907    921     1
    908    929     1
    908    919     1
    908    911     1
    908    912     1
    909    929     1
    909    919     1
    909    911     1
    909    912     1
    910    929     1
    911    928     1
    911    920     1
    911    921     1
    912    928     1
    912    920     1
    912    921     1
    913    929     1
    914   1893     1
    914    926     1
    914    927     1
    915   1893     1
    915    926     1
    915    927     1
    916    929     1
    917   1870     1
    917    923     1
    917    924     1
    918   1870     1
    918    923     1
    918    924     1
    922   1869     1
    923   1866     1
    924   1866     1
    925   1892     1
    926   1889     1
    927   1889     1
    930    944     1
    930    945     1
    930    947     1
    930    948     1
    930    941     1
    930    942     1
    931    935     1
    931    936     1
    931    938     1
    931    939     1
    931    956     1
    931    957     1
    932    934     1
    932    937     1
    932    959     1
    932    955     1
    932    944     1
    932    945     1
    933    934     1
    933    937     1
    933    959     1
    933    955     1
    933    944     1
    933    945     1
    934    938     1
    934    939     1
    934    953     1
    934    954     1
    935    937     1
    935    959     1
    935    952     1
    935    947     1
    935    948     1
    936    937     1
    936    959     1
    936    952     1
    936    947     1
    936    948     1
    937    950     1
    937    951     1
    938    959     1
    938    949     1
    938    941     1
    938    942     1
    939    959     1
    939    949     1
    939    941     1
    939    942     1
    940    959     1
    941    958     1
    941    950     1
    941    951     1
    942    958     1
    942    950     1
    942    951     1
    943    959     1
    944   1939     1
    944    956     1
    944    957     1
    945   1939     1
    945    956     1
    945    957     1
    946    959     1
    947   1916     1
    947    953     1
    947    954     1
    948   1916     1
    948    953     1
    948    954     1
    952   1915     1
    953   1912     1
    954   1912     1
    955   1938     1
    956   1935     1
    957   1935     1
    960    974     1
    960    975     1
    960    977     1
    960    978     1
    960    971     1
    960    972     1
    961    965     1
    961    966     1
    961    968     1
    961    969     1
    961    986     1
    961    987     1
    962    964     1
    962    967     1
    962    989     1
    962    985     1
    962    974     1
    962    975     1
    963    964     1
    963    967     1
    963    989     1
    963    985     1
    963    974     1
    963    975     1
    964    968     1
    964    969     1
    964    983     1
    964    984     1
    965    967     1
    965    989     1
    965    982     1
    965    977     1
    965    978     1
    966    967     1
    966    989     1
    966    982     1
    966    977     1
    966    978     1
    967    980     1
    967    981     1
    968    989     1
    968    979     1
    968    971     1
    968    972     1
    969    989     1
    969    979     1
    969    971     1
    969    972     1
    970    989     1
    971    988     1
    971    980     1
    971    981     1
    972    988     1
    972    980     1
    972    981     1
    973    989     1
    974   1985     1
    974    986     1
    974    987     1
    975   1985     1
    975    986     1
    975    987     1
    976    989     1
    977   1962     1
    977    983     1
    977    984     1
    978   1962     1
    978    983     1
    978    984     1
    982   1961     1
    983   1958     1
    984   1958     1
    985   1984     1
    986   1981     1
    987   1981     1
    990   1004     1
    990   1005     1
    990   1007     1
    990   1008     1
    990   1001     1
    990   1002     1
    991    995     1
    991    996     1
    991    998     1
    991    999     1
    991   1016     1
    991   1017     1
    992    994     1
    992    997     1
    992   1019     1
    992   1015     1
    992   1004     1
    992   1005     1
    993    994     1
    993    997     1
    993   1019     1
    993   1015     1
    993   1004     1
    993   1005     1
    994    998     1
    994    999     1
    994   1013     1
    994   1014     1
    995    997     1
    995   1019     1
    995   1012     1
    995   1007     1
    995   1008     1
    996    997     1
    996   1019     1
    996   1012     1
    996   1007     1
    996   1008     1
    997   1010     1
    997   1011     1
    998   1019     1
    998   1009     1
    998   1001     1
    998   1002     1
    999   1019     1
    999   1009     1
    999   1001     1
    999   1002     1
   1000   1019     1
   1001   1018     1
   1001   1010     1
   1001   1011     1
   1002   1018     1
   1002   1010     1
   1002   1011     1
   1003   1019     1
   1004   2031     1
   1004   1016     1
   1004   1017     1
   1005   2031     1
   1005   1016     1
   1005   1017     1
   1006   1019     1
   1007   2008     1
   1007   1013     1
   1007   1014     1
   1008   2008     1
   1008   1013     1
   1008   1014     1
   1012   2007     1
   1013   2004     1
   1014   2004     1
   1015   2030     1
   1016   2027     1
   1017   2027     1
   1020   1034     1
   1020   1035     1
   1020   1037     1
   1020   1038     1
   1020   1031     1
   1020   1032     1
   1021   1025     1
   1021   1026     1
   1021   1028     1
   1021   1029     1
   1021   1046     1
   1021   1047     1
   1022   1024     1
   1022   1027     1
   1022   1049     1
   1022   1045     1
   1022   1034     1
   1022   1035     1
   1023   1024     1
   1023   1027     1
   1023   1049     1
   1023   1045     1
   1023   1034     1
   1023   1035     1
   1024   1028     1
   1024   1029     1
   1024   1043     1
   1024   1044     1
   1025   1027     1
   1025   1049     1
   1025   1042     1
   1025   1037     1
   1025   1038     1
   1026   1027     1
   1026   1049     1
   1026   1042     1
   1026   1037     1
   1026   1038     1
   1027   1040     1
   1027   1041     1
   1028   1049     1
   1028   1039     1
   1028   1031     1
   1028   1032     1
   1029   1049     1
   1029   1039     1
   1029   1031     1
   1029   1032     1
   1030   1049     1
   1031   1048     1
   1031   1040     1
   1031   1041     1
   1032   1048     1
   1032   1040     1
   1032   1041     1
   1033   1049     1
   1034   2077     1
   1034   1046     1
   1034   1047     1
   1035   2077     1
   1035   1046     1
   1035   1047     1
   1036   1049     1
   1037   2054     1
   1037   1043     1
   1037   1044     1
   1038   2054     1
   1038   1043     1
   1038   1044     1
   1042   2053     1
   1043   2050     1
   1044   2050     1
   1045   2076     1
   1046   2073     1
   1047   2073     1
   1050   1064     1
   1050   1065     1
   1050   1067     1
   1050   1068     1
   1050   1061     1
   1050   1062     1
   1051   1055     1
   1051   1056     1
   1051   1058     1
   1051   1059     1
   1051   1076     1
   1051   1077     1
   1052   1054     1
   1052   1057     1
   1052   1079     1
   1052   1075     1
   1052   1064     1
   1052   1065     1
   1053   1054     1
   1053   1057     1
   1053   1079     1
   1053   1075     1
   1053   1064     1
   1053   1065     1
   1054   1058     1
   1054   1059     1
   1054   1073     1
   1054   1074     1
   1055   1057     1
   1055   1079     1
   1055   1072     1
   1055   1067     1
   1055   1068     1
   1056   1057     1
   1056   1079     1
   1056   1072     1
   1056   1067     1
   1056   1068     1
   1057   1070     1
   1057   1071     1
   1058   1079     1
   1058   1069     1
   1058   1061     1
   1058   1062     1
   1059   1079     1
   1059   1069     1
   1059   1061     1
   1059   1062     1
   1060   1079     1
   1061   1078     1
   1061   1070     1
   1061   1071     1
   1062   1078     1
   1062   1070     1
   1062   1071     1
   1063   1079     1
   1064   2123     1
   1064   1076     1
   1064   1077     1
   1065   2123     1
   1065   1076     1
   1065   1077     1
   1066   1079     1
   1067   2100     1
   1067   1073     1
   1067   1074     1
   1068   2100     1
   1068   1073     1
   1068   1074     1
   1072   2099     1
   1073   2096     1
   1074   2096     1
   1075   2122     1
   1076   2119     1
   1077   2119     1
   1080   1094     1
   1080   1095     1
   1080   1097     1
   1080   1098     1
   1080   1091     1
   1080   1092     1
   1081   1085     1
   1081   1086     1
   1081   1088     1
   1081   1089     1
   1081   1106     1
   1081   1107     1
   1082   1084     1
   1082   1087     1
   1082   1109     1
   1082   1105     1
   1082   1094     1
   1082   1095     1
   1083   1084     1
   1083   1087     1
   1083   1109     1
   1083   1105     1
   1083   1094     1
   1083   1095     1
   1084   1088     1
   1084   1089     1
   1084   1103     1
   1084   1104     1
   1085   1087     1
   1085   1109     1
   1085   1102     1
   1085   1097     1
   1085   1098     1
   1086   1087     1
   1086   1109     1
   1086   1102     1
   1086   1097     1
   1086   1098     1
   1087   1100     1
   1087   1101     1
   1088   1109     1
   1088   1099     1
   1088   1091     1
   1088   1092     1
   1089   1109     1
   1089   1099     1
   1089   1091     1
   1089   1092     1
   1090   1109     1
   1091   1108     1
   1091   1100     1
   1091   1101     1
   1092   1108     1
   1092   1100     1
   1092   1101     1
   1093   1109     1
   1094   2169     1
   1094   1106     1
   1094   1107     1
   1095   2169     1
   1095   1106     1
   1095   1107     1
   1096   1109     1
   1097   2146     1
   1097   1103     1
   1097   1104     1
   1098   2146     1
   1098   1103     1
   1098   1104     1
   1102   2145     1
   1103   2142     1
   1104   2142     1
   1105   2168     1
   1106   2165     1
   1107   2165     1
   1110   1124     1
   1110   1125     1
   1110   1127     1
   1110   1128     1
   1110   1121     1
   1110   1122     1
   1111   1115     1
   1111   1116     1
   1111   1118     1
   1111   1119     1
   1111   1136     1
   1111   1137     1
   1112   1114     1
   1112   1117     1
   1112   1139     1
   1112   1135     1
   1112   1124     1
   1112   1125     1
   1113   1114     1
   1113   1117     1
   1113   1139     1
   1113   1135     1
   1113   1124     1
   1113   1125     1
   1114   1118     1
   1114   1119     1
   1114   1133     1
   1114   1134     1
   1115   1117     1
   1115   1139     1
   1115   1132     1
   1115   1127     1
   1115   1128     1
   1116   1117     1
   1116   1139     1
   1116   1132     1
   1116   1127     1
   1116   1128     1
   1117   1130     1
   1117   1131     1
   1118   1139     1
   1118   1129     1
   1118   1121     1
   1118   1122     1
   1119   1139     1
   1119   1129     1
   1119   1121     1
   1119   1122     1
   1120   1139     1
   1121   1138     1
   1121   1130     1
   1121   1131     1
   1122   1138     1
   1122   1130     1
   1122   1131     1
   1123   1139     1
   1124   2215     1
   1124   1136     1
   1124   1137     1
   1125   2215     1
   1125   1136     1
   1125   1137     1
   1126   1139     1
   1127   2192     1
   1127   1133     1
   1127   1134     1
   1128   2192     1
   1128   1133     1
   1128   1134     1
   1132   2191     1
   1133   2188     1
   1134   2188     1
   1135   2214     1
   1136   2211     1
   1137   2211     1
   1140   1154     1
   1140   1155     1
   1140   1157     1
   1140   1158     1
   1140   1151     1
   1140   1152     1
   1141   1145     1
   1141   1146     1
   1141   1148     1
   1141   1149     1
   1141   1166     1
   1141   1167     1
   1142   1144     1
   1142   1147     1
   1142   1169     1
   1142   1165     1
   1142   1154     1
   1142   1155     1
   1143   1144     1
   1143   1147     1
   1143   1169     1
   1143   1165     1
   1143   1154     1
   1143   1155     1
   1144   1148     1
   1144   1149     1
   1144   1163     1
   1144   1164     1
   1145   1147     1
   1145   1169     1
   1145   1162     1
   1145   1157     1
   1145   1158     1
   1146   1147     1
   1146   1169     1
   1146   1162     1
   1146   1157     1
   1146   1158     1
   1147   1160     1
   1147   1161     1
   1148   1169     1
   1148   1159     1
   1148   1151     1
   1148   1152     1
   1149   1169     1
   1149   1159     1
   1149   1151     1
   1149   1152     1
   1150   1169     1
   1151   1168     1
   1151   1160     1
   1151   1161     1
   1152   1168     1
   1152   1160     1
   1152   1161     1
   1153   1169     1
   1154   2261     1
   1154   1166     1
   1154   1167     1
   1155   2261     1
   1155   1166     1
   1155   1167     1
   1156   1169     1
   1157   2238     1
   1157   1163     1
   1157   1164     1
   1158   2238     1
   1158   1163     1
   1158   1164     1
   1162   2237     1
   1163   2234     1
   1164   2234     1
   1165   2260     1
   1166   2257     1
   1167   2257     1
   1170   1184     1
   1170   1185     1
   1170   1187     1
   1170   1188     1
   1170   1181     1
   1170   1182     1
   1171   1175     1
   1171   1176     1
   1171   1178     1
   1171   1179     1
   1171   1196     1
   1171   1197     1
   1172   1174     1
   1172   1177     1
   1172   1199     1
   1172   1195     1
   1172   1184     1
   1172   1185     1
   1173   1174     1
   1173   1177     1
   1173   1199     1
   1173   1195     1
   1173   1184     1
   1173   1185     1
   1174   1178     1
   1174   1179     1
   1174   1193     1
   1174   1194     1
   1175   1177     1
   1175   1199     1
   1175   1192     1
   1175   1187     1
   1175   1188     1
   1176   1177     1
   1176   1199     1
   1176   1192     1
   1176   1187     1
   1176   1188     1
   1177   1190     1
   1177   1191     1
   1178   1199     1
   1178   1189     1
   1178   1181     1
   1178   1182     1
   1179   1199     1
   1179   1189     1
   1179   1181     1
   1179   1182     1
   1180   1199     1
   1181   1198     1
   1181   1190     1
   1181   1191     1
   1182   1198     1
   1182   1190     1
   1182   1191     1
   1183   1199     1
   1184   2307     1
   1184   1196     1
   1184   1197     1
   1185   2307     1
   1185   1196     1
   1185   1197     1
   1186   1199     1
   1187   2284     1
   1187   1193     1
   1187   1194     1
   1188   2284     1
   1188   1193     1
   1188   1194     1
   1192   2283     1
   1193   2280     1
   1194   2280     1
   1195   2306     1
   1196   2303     1
   1197   2303     1
   1200   1214     1
   1200   1215     1
   1200   1217     1
   1200   1218     1
   1200   1211     1
   1200   1212     1
   1201   1205     1
   1201   1206     1
   1201   1208     1
   1201   1209     1
   1201   1226     1
   1201   1227     1
   1202   1204     1
   1202   1207     1
   1202   1229     1
   1202   1225     1
   1202   1214     1
   1202   1215     1
   1203   1204     1
   1203   1207     1
   1203   1229     1
   1203   1225     1
   1203   1214     1
   1203   1215     1
   1204   1208     1
   1204   1209     1
   1204   1223     1
   1204   1224     1
   1205   1207     1
   1205   1229     1
   1205   1222     1
   1205   1217     1
   1205   1218     1
   1206   1207     1
   1206   1229     1
   1206   1222     1
   1206   1217     1
   1206   1218     1
   1207   1220     1
   1207   1221     1
   1208   1229     1
   1208   1219     1
   1208   1211     1
   1208   1212     1
   1209   1229     1
   1209   1219     1
   1209   1211     1
   1209   1212     1
   1210   1229     1
   1211   1228     1
   1211   1220     1
   1211   1221     1
   1212   1228     1
   1212   1220     1
   1212   1221     1
   1213   1229     1
   1214   2353     1
   1214   1226     1
   1214   1227     1
   1215   2353     1
   1215   1226     1
   1215   1227     1
   1216   1229     1
   1217   2330     1
   1217   1223     1
   1217   1224     1
   1218   2330     1
   1218   1223     1
   1218   1224     1
   1222   2329     1
   1223   2326     1
   1224   2326     1
   1225   2352     1
   1226   2349     1
   1227   2349     1
   1230   1244     1
   1230   1245     1
   1230   1247     1
   1230   1248     1
   1230   1241     1
   1230   1242     1
   1231   1235     1
   1231   1236     1
   1231   1238     1
   1231   1239     1
   1231   1256     1
   1231   1257     1
   1232   1234     1
   1232   1237     1
   1232   1259     1
   1232   1255     1
   1232   1244     1
   1232   1245     1
   1233   1234     1
   1233   1237     1
   1233   1259     1
   1233   1255     1
   1233   1244     1
   1233   1245     1
   1234   1238     1
   1234   1239     1
   1234   1253     1
   1234   1254     1
   1235   1237     1
   1235   1259     1
   1235   1252     1
   1235   1247     1
   1235   1248     1
   1236   1237     1
   1236   1259     1
   1236   1252     1
   1236   1247     1
   1236   1248     1
   1237   1250     1
   1237   1251     1
   1238   1259     1
   1238   1249     1
   1238   1241     1
   1238   1242     1
   1239   1259     1
   1239   1249     1
   1239   1241     1
   1239   1242     1
   1240   1259     1
   1241   1258     1
   1241   1250     1
   1241   1251     1
   1242   1258     1
   1242   1250     1
   1242   1251     1
   1243   1259     1
   1244   2399     1
   1244   1256     1
   1244   1257     1
   1245   2399     1
   1245   1256     1
   1245   1257     1
   1246   1259     1
   1247   2376     1
   1247   1253     1
   1247   1254     1
   1248   2376     1
   1248   1253     1
   1248   1254     1
   1252   2375     1
   1253   2372     1
   1254   2372     1
   1255   2398     1
   1256   2395     1
   1257   2395     1
   1260   1274     1
   1260   1275     1
   1260   1277     1
   1260   1278     1
   1260   1271     1
   1260   1272     1
   1261   1265     1
   1261   1266     1
   1261   1268     1
   1261   1269     1
   1261   1286     1
   1261   1287     1
   1262   1264     1
   1262   1267     1
   1262   1289     1
   1262   1285     1
   1262   1274     1
   1262   1275     1
   1263   1264     1
   1263   1267     1
   1263   1289     1
   1263   1285     1
   1263   1274     1
   1263   1275     1
   1264   1268     1
   1264   1269     1
   1264   1283     1
   1264   1284     1
   1265   1267     1
   1265   1289     1
   1265   1282     1
   1265   1277     1
   1265   1278     1
   1266   1267     1
   1266   1289     1
   1266   1282     1
   1266   1277     1
   1266   1278     1
   1267   1280     1
   1267   1281     1
   1268   1289     1
   1268   1279     1
   1268   1271     1
   1268   1272     1
   1269   1289     1
   1269   1279     1
   1269   1271     1
   1269   1272     1
   1270   1289     1
   1271   1288     1
   1271   1280     1
   1271   1281     1
   1272   1288     1
   1272   1280     1
   1272   1281     1
   1273   1289     1
   1274   2445     1
   1274   1286     1
   1274   1287     1
   1275   2445     1
   1275   1286     1
   1275   1287     1
   1276   1289     1
   1277   2422     1
   1277   1283     1
   1277   1284     1
   1278   2422     1
   1278   1283     1
   1278   1284     1
   1282   2421     1
   1283   2418     1
   1284   2418     1
   1285   2444     1
   1286   2441     1
   1287   2441     1
   1290   1304     1
   1290   1305     1
   1290   1307     1
   1290   1308     1
   1290   1301     1
   1290   1302     1
   1291   1295     1
   1291   1296     1
   1291   1298     1
   1291   1299     1
   1291   1316     1
   1291   1317     1
   1292   1294     1
   1292   1297     1
   1292   1319     1
   1292   1315     1
   1292   1304     1
   1292   1305     1
   1293   1294     1
   1293   1297     1
   1293   1319     1
   1293   1315     1
   1293   1304     1
   1293   1305     1
   1294   1298     1
   1294   1299     1
   1294   1313     1
   1294   1314     1
   1295   1297     1
   1295   1319     1
   1295   1312     1
   1295   1307     1
   1295   1308     1
   1296   1297     1
   1296   1319     1
   1296   1312     1
   1296   1307     1
   1296   1308     1
   1297   1310     1
   1297   1311     1
   1298   1319     1
   1298   1309     1
   1298   1301     1
   1298   1302     1
   1299   1319     1
   1299   1309     1
   1299   1301     1
   1299   1302     1
   1300   1319     1
   1301   1318     1
   1301   1310     1
   1301   1311     1
   1302   1318     1
   1302   1310     1
   1302   1311     1
   1303   1319     1
   1304   2491     1
   1304   1316     1
   1304   1317     1
   1305   2491     1
   1305   1316     1
   1305   1317     1
   1306   1319     1
   1307   2468     1
   1307   1313     1
   1307   1314     1
   1308   2468     1
   1308   1313     1
   1308   1314     1
   1312   2467     1
   1313   2464     1
   1314   2464     1
   1315   2490     1
   1316   2487     1
   1317   2487     1
   1320   1334     1
   1320   1335     1
   1320   1337     1
   1320   1338     1
   1320   1331     1
   1320   1332     1
   1321   1325     1
   1321   1326     1
   1321   1328     1
   1321   1329     1
   1321   1346     1
   1321   1347     1
   1322   1324     1
   1322   1327     1
   1322   1349     1
   1322   1345     1
   1322   1334     1
   1322   1335     1
   1323   1324     1
   1323   1327     1
   1323   1349     1
   1323   1345     1
   1323   1334     1
   1323   1335     1
   1324   1328     1
   1324   1329     1
   1324   1343     1
   1324   1344     1
   1325   1327     1
   1325   1349     1
   1325   1342     1
   1325   1337     1
   1325   1338     1
   1326   1327     1
   1326   1349     1
   1326   1342     1
   1326   1337     1
   1326   1338     1
   1327   1340     1
   1327   1341     1
   1328   1349     1
   1328   1339     1
   1328   1331     1
   1328   1332     1
   1329   1349     1
   1329   1339     1
   1329   1331     1
   1329   1332     1
   1330   1349     1
   1331   1348     1
   1331   1340     1
   1331   1341     1
   1332   1348     1
   1332   1340     1
   1332   1341     1
   1333   1349     1
   1334   2537     1
   1334   1346     1
   1334   1347     1
   1335   2537     1
   1335   1346     1
   1335   1347     1
   1336   1349     1
   1337   2514     1
   1337   1343     1
   1337   1344     1
   1338   2514     1
   1338   1343     1
   1338   1344     1
   1342   2513     1
   1343   2510     1
   1344   2510     1
   1345   2536     1
   1346   2533     1
   1347   2533     1
   1350   1364     1
   1350   1365     1
   1350   1367     1
   1350   1368     1
   1350   1361     1
   1350   1362     1
   1351   1355     1
   1351   1356     1
   1351   1358     1
   1351   1359     1
   1351   1376     1
   1351   1377     1
   1352   1354     1
   1352   1357     1
   1352   1379     1
   1352   1375     1
   1352   1364     1
   1352   1365     1
   1353   1354     1
   1353   1357     1
   1353   1379     1
   1353   1375     1
   1353   1364     1
   1353   1365     1
   1354   1358     1
   1354   1359     1
   1354   1373     1
   1354   1374     1
   1355   1357     1
   1355   1379     1
   1355   1372     1
   1355   1367     1
   1355   1368     1
   1356   1357     1
   1356   1379     1
   1356   1372     1
   1356   1367     1
   1356   1368     1
   1357   1370     1
   1357   1371     1
   1358   1379     1
   1358   1369     1
   1358   1361     1
   1358   1362     1
   1359   1379     1
   1359   1369     1
   1359   1361     1
   1359   1362     1
   1360   1379     1
   1361   1378     1
   1361   1370     1
   1361   1371     1
   1362   1378     1
   1362   1370     1
   1362   1371     1
   1363   1379     1
   1364   2583     1
   1364   1376     1
   1364   1377     1
   1365   2583     1
   1365   1376     1
   1365   1377     1
   1366   1379     1
   1367   2560     1
   1367   1373     1
   1367   1374     1
   1368   2560     1
   1368   1373     1
   1368   1374     1
   1372   2559     1
   1373   2556     1
   1374   2556     1
   1375   2582     1
   1376   2579     1
   1377   2579     1
   1380   1394     1
   1380   1395     1
   1380   1397     1
   1380   1398     1
   1380   1391     1
   1380   1392     1
   1381   1385     1
   1381   1386     1
   1381   1388     1
   1381   1389     1
   1381   1406     1
   1381   1407     1
   1382   1384     1
   1382   1387     1
   1382   1409     1
   1382   1405     1
   1382   1394     1
   1382   1395     1
   1383   1384     1
   1383   1387     1
   1383   1409     1
   1383   1405     1
   1383   1394     1
   1383   1395     1
   1384   1388     1
   1384   1389     1
   1384   1403     1
   1384   1404     1
   1385   1387     1
   1385   1409     1
   1385   1402     1
   1385   1397     1
   1385   1398     1
   1386   1387     1
   1386   1409     1
   1386   1402     1
   1386   1397     1
   1386   1398     1
   1387   1400     1
   1387   1401     1
   1388   1409     1
   1388   1399     1
   1388   1391     1
   1388   1392     1
   1389   1409     1
   1389   1399     1
   1389   1391     1
   1389   1392     1
   1390   1409     1
   1391   1408     1
   1391   1400     1
   1391   1401     1
   1392   1408     1
   1392   1400     1
   1392   1401     1
   1393   1409     1
   1394   2629     1
   1394   1406     1
   1394   1407     1
   1395   2629     1
   1395   1406     1
   1395   1407     1
   1396   1409     1
   1397   2606     1
   1397   1403     1
   1397   1404     1
   1398   2606     1
   1398   1403     1
   1398   1404     1
   1402   2605     1
   1403   2602     1
   1404   2602     1
   1405   2628     1
   1406   2625     1
   1407   2625     1
   1410   1424     1
   1410   1425     1
   1410   1427     1
   1410   1428     1
   1410   1421     1
   1410   1422     1
   1411   1415     1
   1411   1416     1
   1411   1418     1
   1411   1419     1
   1411   1436     1
   1411   1437     1
   1412   1414     1
   1412   1417     1
   1412   1439     1
   1412   1435     1
   1412   1424     1
   1412   1425     1
   1413   1414     1
   1413   1417     1
   1413   1439     1
   1413   1435     1
   1413   1424     1
   1413   1425     1
   1414   1418     1
   1414   1419     1
   1414   1433     1
   1414   1434     1
   1415   1417     1
   1415   1439     1
   1415   1432     1
   1415   1427     1
   1415   1428     1
   1416   1417     1
   1416   1439     1
   1416   1432     1
   1416   1427     1
   1416   1428     1
   1417   1430     1
   1417   1431     1
   1418   1439     1
   1418   1429     1
   1418   1421     1
   1418   1422     1
   1419   1439     1
   1419   1429     1
   1419   1421     1
   1419   1422     1
   1420   1439     1
   1421   1438     1
   1421   1430     1
   1421   1431     1
   1422   1438     1
   1422   1430     1
   1422   1431     1
   1423   1439     1
   1424   2675     1
   1424   1436     1
   1424   1437     1
   1425   2675     1
   1425   1436     1
   1425   1437     1
   1426   1439     1
   1427   2652     1
   1427   1433     1
   1427   1434     1
   1428   2652     1
   1428   1433     1
   1428   1434     1
   1432   2651     1
   1433   2648     1
   1434   2648     1
   1435   2674     1
   1436   2671     1
   1437   2671     1
   1440   1454     1
   1440   1455     1
   1440   1457     1
   1440   1458     1
   1440   1451     1
   1440   1452     1
   1441   1445     1
   1441   1446     1
   1441   1448     1
   1441   1449     1
   1441   1466     1
   1441   1467     1
   1442   1444     1
   1442   1447     1
   1442   1469     1
   1442   1465     1
   1442   1454     1
   1442   1455     1
   1443   1444     1
   1443   1447     1
   1443   1469     1
   1443   1465     1
   1443   1454     1
   1443   1455     1
   1444   1448     1
   1444   1449     1
   1444   1463     1
   1444   1464     1
   1445   1447     1
   1445   1469     1
   1445   1462     1
   1445   1457     1
   1445   1458     1
   1446   1447     1
   1446   1469     1
   1446   1462     1
   1446   1457     1
   1446   1458     1
   1447   1460     1
   1447   1461     1
   1448   1469     1
   1448   1459     1
   1448   1451     1
   1448   1452     1
   1449   1469     1
   1449   1459     1
   1449   1451     1
   1449   1452     1
   1450   1469     1
   1451   1468     1
   1451   1460     1
   1451   1461     1
   1452   1468     1
   1452   1460     1
   1452   1461     1
   1453   1469     1
   1454   2721     1
   1454   1466     1
   1454   1467     1
   1455   2721     1
   1455   1466     1
   1455   1467     1
   1456   1469     1
   1457   2698     1
   1457   1463     1
   1457   1464     1
   1458   2698     1
   1458   1463     1
   1458   1464     1
   1462   2697     1
   1463   2694     1
   1464   2694     1
   1465   2720     1
   1466   2717     1
   1467   2717     1
   1470   1484     1
   1470   1485     1
   1470   1487     1
   1470   1488     1
   1470   1481     1
   1470   1482     1
   1471   1475     1
   1471   1476     1
   1471   1478     1
   1471   1479     1
   1471   1496     1
   1471   1497     1
   1472   1474     1
   1472   1477     1
   1472   1499     1
   1472   1495     1
   1472   1484     1
   1472   1485     1
   1473   1474     1
   1473   1477     1
   1473   1499     1
   1473   1495     1
   1473   1484     1
   1473   1485     1
   1474   1478     1
   1474   1479     1
   1474   1493     1
   1474   1494     1
   1475   1477     1
   1475   1499     1
   1475   1492     1
   1475   1487     1
   1475   1488     1
   1476   1477     1
   1476   1499     1
   1476   1492     1
   1476   1487     1
   1476   1488     1
   1477   1490     1
   1477   1491     1
   1478   1499     1
   1478   1489     1
   1478   1481     1
   1478   1482     1
   1479   1499     1
   1479   1489     1
   1479   1481     1
   1479   1482     1
   1480   1499     1
   1481   1498     1
   1481   1490     1
   1481   1491     1
   1482   1498     1
   1482   1490     1
   1482   1491     1
   1483   1499     1
   1484   2767     1
   1484   1496     1
   1484   1497     1
   1485   2767     1
   1485   1496     1
   1485   1497     1
   1486   1499     1
   1487   2744     1
   1487   1493     1
   1487   1494     1
   1488   2744     1
   1488   1493     1
   1488   1494     1
   1492   2743     1
   1493   2740     1
   1494   2740     1
   1495   2766     1
   1496   2763     1
   1497   2763     1
   1500   1514     1
   1500   1515     1
   1500   1517     1
   1500   1518     1
   1500   1511     1
   1500   1512     1
   1501   1505     1
   1501   1506     1
   1501   1508     1
   1501   1509     1
   1501   1526     1
   1501   1527     1
   1502   1504     1
   1502   1507     1
   1502   1529     1
   1502   1525     1
   1502   1514     1
   1502   1515     1
   1503   1504     1
   1503   1507     1
   1503   1529     1
   1503   1525     1
   1503   1514     1
   1503   1515     1
   1504   1508     1
   1504   1509     1
   1504   1523     1
   1504   1524     1
   1505   1507     1
   1505   1529     1
   1505   1522     1
   1505   1517     1
   1505   1518     1
   1506   1507     1
   1506   1529     1
   1506   1522     1
   1506   1517     1
   1506   1518     1
   1507   1520     1
   1507   1521     1
   1508   1529     1
   1508   1519     1
   1508   1511     1
   1508   1512     1
   1509   1529     1
   1509   1519     1
   1509   1511     1
   1509   1512     1
   1510   1529     1
   1511   1528     1
   1511   1520     1
   1511   1521     1
   1512   1528     1
   1512   1520     1
   1512   1521     1
   1513   1529     1
   1514   2813     1
   1514   1526     1
   1514   1527     1
   1515   2813     1
   1515   1526     1
   1515   1527     1
   1516   1529     1
   1517   2790     1
   1517   1523     1
   1517   1524     1
   1518   2790     1
   1518   1523     1
   1518   1524     1
   1522   2789     1
   1523   2786     1
   1524   2786     1
   1525   2812     1
   1526   2809     1
   1527   2809     1
   1530   1544     1
   1530   1545     1
   1530   1547     1
   1530   1548     1
   1530   1541     1
   1530   1542     1
   1531   1535     1
   1531   1536     1
   1531   1538     1
   1531   1539     1
   1531   1556     1
   1531   1557     1
   1532   1534     1
   1532   1537     1
   1532   1559     1
   1532   1555     1
   1532   1544     1
   1532   1545     1
   1533   1534     1
   1533   1537     1
   1533   1559     1
   1533   1555     1
   1533   1544     1
   1533   1545     1
   1534   1538     1
   1534   1539     1
   1534   1553     1
   1534   1554     1
   1535   1537     1
   1535   1559     1
   1535   1552     1
   1535   1547     1
   1535   1548     1
   1536   1537     1
   1536   1559     1
   1536   1552     1
   1536   1547     1
   1536   1548     1
   1537   1550     1
   1537   1551     1
   1538   1559     1
   1538   1549     1
   1538   1541     1
   1538   1542     1
   1539   1559     1
   1539   1549     1
   1539   1541     1
   1539   1542     1
   1540   1559     1
   1541   1558     1
   1541   1550     1
   1541   1551     1
   1542   1558     1
   1542   1550     1
   1542   1551     1
   1543   1559     1
   1544   2859     1
   1544   1556     1
   1544   1557     1
   1545   2859     1
   1545   1556     1
   1545   1557     1
   1546   1559     1
   1547   2836     1
   1547   1553     1
   1547   1554     1
   1548   2836     1
   1548   1553     1
   1548   1554     1
   1552   2835     1
   1553   2832     1
   1554   2832     1
   1555   2858     1
   1556   2855     1
   1557   2855     1
   1560   1574     1
   1560   1575     1
   1560   1577     1
   1560   1578     1
   1560   1571     1
   1560   1572     1
   1561   1565     1
   1561   1566     1
   1561   1568     1
   1561   1569     1
   1561   1586     1
   1561   1587     1
   1562   1564     1
   1562   1567     1
   1562   1589     1
   1562   1585     1
   1562   1574     1
   1562   1575     1
   1563   1564     1
   1563   1567     1
   1563   1589     1
   1563   1585     1
   1563   1574     1
   1563   1575     1
   1564   1568     1
   1564   1569     1
   1564   1583     1
   1564   1584     1
   1565   1567     1
   1565   1589     1
   1565   1582     1
   1565   1577     1
   1565   1578     1
   1566   1567     1
   1566   1589     1
   1566   1582     1
   1566   1577     1
   1566   1578     1
   1567   1580     1
   1567   1581     1
   1568   1589     1
   1568   1579     1
   1568   1571     1
   1568   1572     1
   1569   1589     1
   1569   1579     1
   1569   1571     1
   1569   1572     1
   1570   1589     1
   1571   1588     1
   1571   1580     1
   1571   1581     1
   1572   1588     1
   1572   1580     1
   1572   1581     1
   1573   1589     1
   1574   2905     1
   1574   1586     1
   1574   1587     1
   1575   2905     1
   1575   1586     1
   1575   1587     1
   1576   1589     1
   1577   2882     1
   1577   1583     1
   1577   1584     1
   1578   2882     1
   1578   1583     1
   1578   1584     1
   1582   2881     1
   1583   2878     1
   1584   2878     1
   1585   2904     1
   1586   2901     1
   1587   2901     1
   1590   1604     1
   1590   1605     1
   1590   1607     1
   1590   1608     1
   1590   1601     1
   1590   1602     1
   1591   1595     1
   1591   1596     1
   1591   1598     1
   1591   1599     1
   1591   1616     1
   1591   1617     1
   1592   1594     1
   1592   1597     1
   1592   1619     1
   1592   1615     1
   1592   1604     1
   1592   1605     1
   1593   1594     1
   1593   1597     1
   1593   1619     1
   1593   1615     1
   1593   1604     1
   1593   1605     1
   1594   1598     1
   1594   1599     1
   1594   1613     1
   1594   1614     1
   1595   1597     1
   1595   1619     1
   1595   1612     1
   1595   1607     1
   1595   1608     1
   1596   1597     1
   1596   1619     1
   1596   1612     1
   1596   1607     1
   1596   1608     1
   1597   1610     1
   1597   1611     1
   1598   1619     1
   1598   1609     1
   1598   1601     1
   1598   1602     1
   1599   1619     1
   1599   1609     1
   1599   1601     1
   1599   1602     1
   1600   1619     1
   1601   1618     1
   1601   1610     1
   1601   1611     1
   1602   1618     1
   1602   1610     1
   1602   1611     1
   1603   1619     1
   1604   2951     1
   1604   1616     1
   1604   1617     1
   1605   2951     1
   1605   1616     1
   1605   1617     1
   1606   1619     1
   1607   2928     1
   1607   1613     1
   1607   1614     1
   1608   2928     1
   1608   1613     1
   1608   1614     1
   1612   2927     1
   1613   2924     1
   1614   2924     1
   1615   2950     1
   1616   2947     1
   1617   2947     1
   1620   1634     1
   1620   1635     1
   1620   1637     1
   1620   1638     1
   1620   1631     1
   1620   1632     1
   1621   1625     1
   1621   1626     1
   1621   1628     1
   1621   1629     1
   1621   1646     1
   1621   1647     1
   1622   1624     1
   1622   1627     1
   1622   1649     1
   1622   1645     1
   1622   1634     1
   1622   1635     1
   1623   1624     1
   1623   1627     1
   1623   1649     1
   1623   1645     1
   1623   1634     1
   1623   1635     1
   1624   1628     1
   1624   1629     1
   1624   1643     1
   1624   1644     1
   1625   1627     1
   1625   1649     1
   1625   1642     1
   1625   1637     1
   1625   1638     1
   1626   1627     1
   1626   1649     1
   1626   1642     1
   1626   1637     1
   1626   1638     1
   1627   1640     1
   1627   1641     1
   1628   1649     1
   1628   1639     1
   1628   1631     1
   1628   1632     1
   1629   1649     1
   1629   1639     1
   1629   1631     1
   1629   1632     1
   1630   1649     1
   1631   1648     1
   1631   1640     1
   1631   1641     1
   1632   1648     1
   1632   1640     1
   1632   1641     1
   1633   1649     1
   1634   2997     1
   1634   1646     1
   1634   1647     1
   1635   2997     1
   1635   1646     1
   1635   1647     1
   1636   1649     1
   1637   2974     1
   1637   1643     1
   1637   1644     1
   1638   2974     1
   1638   1643     1
   1638   1644     1
   1642   2973     1
   1643   2970     1
   1644   2970     1
   1645   2996     1
   1646   2993     1
   1647   2993     1
   1650   1664     1
   1650   1665     1
   1650   1667     1
   1650   1668     1
   1650   1661     1
   1650   1662     1
   1651   1655     1
   1651   1656     1
   1651   1658     1
   1651   1659     1
   1651   1676     1
   1651   1677     1
   1652   1654     1
   1652   1657     1
   1652   1679     1
   1652   1675     1
   1652   1664     1
   1652   1665     1
   1653   1654     1
   1653   1657     1
   1653   1679     1
   1653   1675     1
   1653   1664     1
   1653   1665     1
   1654   1658     1
   1654   1659     1
   1654   1673     1
   1654   1674     1
   1655   1657     1
   1655   1679     1
   1655   1672     1
   1655   1667     1
   1655   1668     1
   1656   1657     1
   1656   1679     1
   1656   1672     1
   1656   1667     1
   1656   1668     1
   1657   1670     1
   1657   1671     1
   1658   1679     1
   1658   1669     1
   1658   1661     1
   1658   1662     1
   1659   1679     1
   1659   1669     1
   1659   1661     1
   1659   1662     1
   1660   1679     1
   1661   1678     1
   1661   1670     1
   1661   1671     1
   1662   1678     1
   1662   1670     1
   1662   1671     1
   1663   1679     1
   1664   3043     1
   1664   1676     1
   1664   1677     1
   1665   3043     1
   1665   1676     1
   1665   1677     1
   1666   1679     1
   1667   3020     1
   1667   1673     1
   1667   1674     1
   1668   3020     1
   1668   1673     1
   1668   1674     1
   1672   3019     1
   1673   3016     1
   1674   3016     1
   1675   3042     1
   1676   3039     1
   1677   3039     1
   1680   1694     1
   1680   1695     1
   1680   1697     1
   1680   1698     1
   1680   1691     1
   1680   1692     1
   1681   1685     1
   1681   1686     1
   1681   1688     1
   1681   1689     1
   1681   1706     1
   1681   1707     1
   1682   1684     1
   1682   1687     1
   1682   1709     1
   1682   1705     1
   1682   1694     1
   1682   1695     1
   1683   1684     1
   1683   1687     1
   1683   1709     1
   1683   1705     1
   1683   1694     1
   1683   1695     1
   1684   1688     1
   1684   1689     1
   1684   1703     1
   1684   1704     1
   1685   1687     1
   1685   1709     1
   1685   1702     1
   1685   1697     1
   1685   1698     1
   1686   1687     1
   1686   1709     1
   1686   1702     1
   1686   1697     1
   1686   1698     1
   1687   1700     1
   1687   1701     1
   1688   1709     1
   1688   1699     1
   1688   1691     1
   1688   1692     1
   1689   1709     1
   1689   1699     1
   1689   1691     1
   1689   1692     1
   1690   1709     1
   1691   1708     1
   1691   1700     1
   1691   1701     1
   1692   1708     1
   1692   1700     1
   1692   1701     1
   1693   1709     1
   1694   3089     1
   1694   1706     1
   1694   1707     1
   1695   3089     1
   1695   1706     1
   1695   1707     1
   1696   1709     1
   1697   3066     1
   1697   1703     1
   1697   1704     1
   1698   3066     1
   1698   1703     1
   1698   1704     1
   1702   3065     1
   1703   3062     1
   1704   3062     1
   1705   3088     1
   1706   3085     1
   1707   3085     1
   1710   1724     1
   1710   1725     1
   1710   1727     1
   1710   1728     1
   1710   1721     1
   1710   1722     1
   1711   1715     1
   1711   1716     1
   1711   1718     1
   1711   1719     1
   1711   1736     1
   1711   1737     1
   1712   1714     1
   1712   1717     1
   1712   1739     1
   1712   1735     1
   1712   1724     1
   1712   1725     1
   1713   1714     1
   1713   1717     1
   1713   1739     1
   1713   1735     1
   1713   1724     1
   1713   1725     1
   1714   1718     1
   1714   1719     1
   1714   1733     1
   1714   1734     1
   1715   1717     1
   1715   1739     1
   1715   1732     1
   1715   1727     1
   1715   1728     1
   1716   1717     1
   1716   1739     1
   1716   1732     1
   1716   1727     1
   1716   1728     1
   1717   1730     1
   1717   1731     1
   1718   1739     1
   1718   1729     1
   1718   1721     1
   1718   1722     1
   1719   1739     1
   1719   1729     1
   1719   1721     1
   1719   1722     1
   1720   1739     1
   1721   1738     1
   1721   1730     1
   1721   1731     1
   1722   1738     1
   1722   1730     1
   1722   1731     1
   1723   1739     1
   1724   3135     1
   1724   1736     1
   1724   1737     1
   1725   3135     1
   1725   1736     1
   1725   1737     1
   1726   1739     1
   1727   3112     1
   1727   1733     1
   1727   1734     1
   1728   3112     1
   1728   1733     1
   1728   1734     1
   1732   3111     1
   1733   3108     1
   1734   3108     1
   1735   3134     1
   1736   3131     1
   1737   3131     1
   1740   1754     1
   1740   1755     1
   1740   1757     1
   1740   1758     1
   1740   1751     1
   1740   1752     1
   1741   1745     1
   1741   1746     1
   1741   1748     1
   1741   1749     1
   1741   1766     1
   1741   1767     1
   1742   1744     1
   1742   1747     1
   1742   1769     1
   1742   1765     1
   1742   1754     1
   1742   1755     1
   1743   1744     1
   1743   1747     1
   1743   1769     1
   1743   1765     1
   1743   1754     1
   1743   1755     1
   1744   1748     1
   1744   1749     1
   1744   1763     1
   1744   1764     1
   1745   1747     1
   1745   1769     1
   1745   1762     1
   1745   1757     1
   1745   1758     1
   1746   1747     1
   1746   1769     1
   1746   1762     1
   1746   1757     1
   1746   1758     1
   1747   1760     1
   1747   1761     1
   1748   1769     1
   1748   1759     1
   1748   1751     1
   1748   1752     1
   1749   1769     1
   1749   1759     1
   1749   1751     1
   1749   1752     1
   1750   1769     1
   1751   1768     1
   1751   1760     1
   1751   1761     1
   1752   1768     1
   1752   1760     1
   1752   1761     1
   1753   1769     1
   1754   3181     1
   1754   1766     1
   1754   1767     1
   1755   3181     1
   1755   1766     1
   1755   1767     1
   1756   1769     1
   1757   3158     1
   1757   1763     1
   1757   1764     1
   1758   3158     1
   1758   1763     1
   1758   1764     1
   1762   3157     1
   1763   3154     1
   1764   3154     1
   1765   3180     1
   1766   3177     1
   1767   3177     1
   1770   1784     1
   1770   1785     1
   1770   1787     1
   1770   1788     1
   1770   1781     1
   1770   1782     1
   1771   1775     1
   1771   1776     1
   1771   1778     1
   1771   1779     1
   1771   1796     1
   1771   1797     1
   1772   1774     1
   1772   1777     1
   1772   1799     1
   1772   1795     1
   1772   1784     1
   1772   1785     1
   1773   1774     1
   1773   1777     1
   1773   1799     1
   1773   1795     1
   1773   1784     1
   1773   1785     1
   1774   1778     1
   1774   1779     1
   1774   1793     1
   1774   1794     1
   1775   1777     1
   1775   1799     1
   1775   1792     1
   1775   1787     1
   1775   1788     1
   1776   1777     1
   1776   1799     1
   1776   1792     1
   1776   1787     1
   1776   1788     1
   1777   1790     1
   1777   1791     1
   1778   1799     1
   1778   1789     1
   1778   1781     1
   1778   1782     1
   1779   1799     1
   1779   1789     1
   1779   1781     1
   1779   1782     1
   1780   1799     1
   1781   1798     1
   1781   1790     1
   1781   1791     1
   1782   1798     1
   1782   1790     1
   1782   1791     1
   1783   1799     1
   1784   3227     1
   1784   1796     1
   1784   1797     1
   1785   3227     1
   1785   1796     1
   1785   1797     1
   1786   1799     1
   1787   3204     1
   1787   1793     1
   1787   1794     1
   1788   3204     1
   1788   1793     1
   1788   1794     1
   1792   3203     1
   1793   3200     1
   1794   3200     1
   1795   3226     1
   1796   3223     1
   1797   3223     1
   1800   1814     1
   1800   1815     1
   1800   1817     1
   1800   1818     1
   1800   1811     1
   1800   1812     1
   1801   1805     1
   1801   1806     1
   1801   1808     1
   1801   1809     1
   1801   1826     1
   1801   1827     1
   1802   1804     1
   1802   1807     1
   1802   1829     1
   1802   1825     1
   1802   1814     1
   1802   1815     1
   1803   1804     1
   1803   1807     1
   1803   1829     1
   1803   1825     1
   1803   1814     1
   1803   1815     1
   1804   1808     1
   1804   1809     1
   1804   1823     1
   1804   1824     1
   1805   1807     1
   1805   1829     1
   1805   1822     1
   1805   1817     1
   1805   1818     1
   1806   1807     1
   1806   1829     1
   1806   1822     1
   1806   1817     1
   1806   1818     1
   1807   1820     1
   1807   1821     1
   1808   1829     1
   1808   1819     1
   1808   1811     1
   1808   1812     1
   1809   1829     1
   1809   1819     1
   1809   1811     1
   1809   1812     1
   1810   1829     1
   1811   1828     1
   1811   1820     1
   1811   1821     1
   1812   1828     1
   1812   1820     1
   1812   1821     1
   1813   1829     1
   1814   3273     1
   1814   1826     1
   1814   1827     1
   1815   3273     1
   1815   1826     1
   1815   1827     1
   1816   1829     1
   1817   3250     1
   1817   1823     1
   1817   1824     1
   1818   3250     1
   1818   1823     1
   1818   1824     1
   1822   3249     1
   1823   3246     1
   1824   3246     1
   1825   3272     1
   1826   3269     1
   1827   3269     1
   1830   1844     1
   1830   1845     1
   1830   1847     1
   1830   1848     1
   1830   1841     1
   1830   1842     1
   1831   1835     1
   1831   1836     1
   1831   1838     1
   1831   1839     1
   1831   1856     1
   1831   1857     1
   1832   1834     1
   1832   1837     1
   1832   1859     1
   1832   1855     1
   1832   1844     1
   1832   1845     1
   1833   1834     1
   1833   1837     1
   1833   1859     1
   1833   1855     1
   1833   1844     1
   1833   1845     1
   1834   1838     1
   1834   1839     1
   1834   1853     1
   1834   1854     1
   1835   1837     1
   1835   1859     1
   1835   1852     1
   1835   1847     1
   1835   1848     1
   1836   1837     1
   1836   1859     1
   1836   1852     1
   1836   1847     1
   1836   1848     1
   1837   1850     1
   1837   1851     1
   1838   1859     1
   1838   1849     1
   1838   1841     1
   1838   1842     1
   1839   1859     1
   1839   1849     1
   1839   1841     1
   1839   1842     1
   1840   1859     1
   1841   1858     1
   1841   1850     1
   1841   1851     1
   1842   1858     1
   1842   1850     1
   1842   1851     1
   1843   1859     1
   1844   3319     1
   1844   1856     1
   1844   1857     1
   1845   3319     1
   1845   1856     1
   1845   1857     1
   1846   1859     1
   1847   3296     1
   1847   1853     1
   1847   1854     1
   1848   3296     1
   1848   1853     1
   1848   1854     1
   1852   3295     1
   1853   3292     1
   1854   3292     1
   1855   3318     1
   1856   3315     1
   1857   3315     1
   1860   1868     1
   1860   1876     1
   1860   1881     1
   1860   1869     1
   1861   1878     1
   1861   1879     1
   1861   1867     1
   1861   1875     1
   1862   1864     1
   1862   1873     1
   1862   1863     1
   1862   1880     1
   1862   1878     1
   1862   1879     1
   1862   1866     1
   1863   1874     1
   1863   1882     1
   1863   1865     1
   1863   1872     1
   1863   1868     1
   1863   1876     1
   1864   1876     1
   1864   1869     1
   1864   1877     1
   1865   1875     1
   1866   1868     1
   1866   1877     1
   1867   1872     1
   1867   1868     1
   1867   1870     1
   1867   1882     1
   1867   1869     1
   1867   1877     1
   1868   1873     1
   1868   1871     1
   1868   1875     1
   1869   1871     1
   1878   1882     1
   1878   1881     1
   1879   1882     1
   1879   1881     1
   1883   1891     1
   1883   1899     1
   1883   1904     1
   1883   1892     1
   1884   1890     1
   1884   1898     1
   1884   1901     1
   1884   1902     1
   1885   1887     1
   1885   1896     1
   1885   1886     1
   1885   1903     1
   1885   1901     1
   1885   1902     1
   1885   1889     1
   1886   1888     1
   1886   1895     1
   1886   1891     1
   1886   1899     1
   1886   1897     1
   1886   1905     1
   1887   1892     1
   1887   1900     1
   1887   1899     1
   1888   1898     1
   1889   1900     1
   1889   1891     1
   1890   1893     1
   1890   1905     1
   1890   1892     1
   1890   1900     1
   1890   1895     1
   1890   1891     1
   1891   1894     1
   1891   1898     1
   1891   1896     1
   1892   1894     1
   1901   1904     1
   1901   1905     1
   1902   1904     1
   1902   1905     1
   1906   1914     1
   1906   1922     1
   1906   1927     1
   1906   1915     1
   1907   1924     1
   1907   1925     1
   1907   1913     1
   1907   1921     1
   1908   1910     1
   1908   1919     1
   1908   1909     1
   1908   1926     1
   1908   1924     1
   1908   1925     1
   1908   1912     1
   1909   1920     1
   1909   1928     1
   1909   1911     1
   1909   1918     1
   1909   1914     1
   1909   1922     1
   1910   1922     1
   1910   1915     1
   1910   1923     1
   1911   1921     1
   1912   1914     1
   1912   1923     1
   1913   1918     1
   1913   1914     1
   1913   1916     1
   1913   1928     1
   1913   1915     1
   1913   1923     1
   1914   1919     1
   1914   1917     1
   1914   1921     1
   1915   1917     1
   1924   1928     1
   1924   1927     1
   1925   1928     1
   1925   1927     1
   1929   1937     1
   1929   1945     1
   1929   1950     1
   1929   1938     1
   1930   1936     1
   1930   1944     1
   1930   1947     1
   1930   1948     1
   1931   1933     1
   1931   1942     1
   1931   1932     1
   1931   1949     1
   1931   1947     1
   1931   1948     1
   1931   1935     1
   1932   1934     1
   1932   1941     1
   1932   1937     1
   1932   1945     1
   1932   1943     1
   1932   1951     1
   1933   1938     1
   1933   1946     1
   1933   1945     1
   1934   1944     1
   1935   1946     1
   1935   1937     1
   1936   1939     1
   1936   1951     1
   1936   1938     1
   1936   1946     1
   1936   1941     1
   1936   1937     1
   1937   1940     1
   1937   1944     1
   1937   1942     1
   1938   1940     1
   1947   1950     1
   1947   1951     1
   1948   1950     1
   1948   1951     1
   1952   1960     1
   1952   1968     1
   1952   1973     1
   1952   1961     1
   1953   1970     1
   1953   1971     1
   1953   1959     1
   1953   1967     1
   1954   1956     1
   1954   1965     1
   1954   1955     1
   1954   1972     1
   1954   1970     1
   1954   1971     1
   1954   1958     1
   1955   1966     1
   1955   1974     1
   1955   1957     1
   1955   1964     1
   1955   1960     1
   1955   1968     1
   1956   1968     1
   1956   1961     1
   1956   1969     1
   1957   1967     1
   1958   1960     1
   1958   1969     1
   1959   1964     1
   1959   1960     1
   1959   1962     1
   1959   1974     1
   1959   1961     1
   1959   1969     1
   1960   1965     1
   1960   1963     1
   1960   1967     1
   1961   1963     1
   1970   1974     1
   1970   1973     1
   1971   1974     1
   1971   1973     1
   1975   1983     1
   1975   1991     1
   1975   1996     1
   1975   1984     1
   1976   1982     1
   1976   1990     1
   1976   1993     1
   1976   1994     1
   1977   1979     1
   1977   1988     1
   1977   1978     1
   1977   1995     1
   1977   1993     1
   1977   1994     1
   1977   1981     1
   1978   1980     1
   1978   1987     1
   1978   1983     1
   1978   1991     1
   1978   1989     1
   1978   1997     1
   1979   1984     1
   1979   1992     1
   1979   1991     1
   1980   1990     1
   1981   1992     1
   1981   1983     1
   1982   1985     1
   1982   1997     1
   1982   1984     1
   1982   1992     1
   1982   1987     1
   1982   1983     1
   1983   1986     1
   1983   1990     1
   1983   1988     1
   1984   1986     1
   1993   1996     1
   1993   1997     1
   1994   1996     1
   1994   1997     1
   1998   2006     1
   1998   2014     1
   1998   2019     1
   1998   2007     1
   1999   2016     1
   1999   2017     1
   1999   2005     1
   1999   2013     1
   2000   2002     1
   2000   2011     1
   2000   2001     1
   2000   2018     1
   2000   2016     1
   2000   2017     1
   2000   2004     1
   2001   2012     1
   2001   2020     1
   2001   2003     1
   2001   2010     1
   2001   2006     1
   2001   2014     1
   2002   2014     1
   2002   2007     1
   2002   2015     1
   2003   2013     1
   2004   2006     1
   2004   2015     1
   2005   2010     1
   2005   2006     1
   2005   2008     1
   2005   2020     1
   2005   2007     1
   2005   2015     1
   2006   2011     1
   2006   2009     1
   2006   2013     1
   2007   2009     1
   2016   2020     1
   2016   2019     1
   2017   2020     1
   2017   2019     1
   2021   2029     1
   2021   2037     1
   2021   2042     1
   2021   2030     1
   2022   2028     1
   2022   2036     1
   2022   2039     1
   2022   2040     1
   2023   2025     1
   2023   2034     1
   2023   2024     1
   2023   2041     1
   2023   2039     1
   2023   2040     1
   2023   2027     1
   2024   2026     1
   2024   2033     1
   2024   2029     1
   2024   2037     1
   2024   2035     1
   2024   2043     1
   2025   2030     1
   2025   2038     1
   2025   2037     1
   2026   2036     1
   2027   2038     1
   2027   2029     1
   2028   2031     1
   2028   2043     1
   2028   2030     1
   2028   2038     1
   2028   2033     1
   2028   2029     1
   2029   2032     1
   2029   2036     1
   2029   2034     1
   2030   2032     1
   2039   2042     1
   2039   2043     1
   2040   2042     1
   2040   2043     1
   2044   2052     1
   2044   2060     1
   2044   2065     1
   2044   2053     1
   2045   2062     1
   2045   2063     1
   2045   2051     1
   2045   2059     1
   2046   2048     1
   2046   2057     1
   2046   2047     1
   2046   2064     1
   2046   2062     1
   2046   2063     1
   2046   2050     1
   2047   2058     1
   2047   2066     1
   2047   2049     1
   2047   2056     1
   2047   2052     1
   2047   2060     1
   2048   2060     1
   2048   2053     1
   2048   2061     1
   2049   2059     1
   2050   2052     1
   2050   2061     1
   2051   2056     1
   2051   2052     1
   2051   2054     1
   2051   2066     1
   2051   2053     1
   2051   2061     1
   2052   2057     1
   2052   2055     1
   2052   2059     1
   2053   2055     1
   2062   2066     1
   2062   2065     1
   2063   2066     1
   2063   2065     1
   2067   2075     1
   2067   2083     1
   2067   2088     1
   2067   2076     1
   2068   2074     1
   2068   2082     1
   2068   2085     1
   2068   2086     1
   2069   2071     1
   2069   2080     1
   2069   2070     1
   2069   2087     1
   2069   2085     1
   2069   2086     1
   2069   2073     1
   2070   2072     1
   2070   2079     1
   2070   2075     1
   2070   2083     1
   2070   2081     1
   2070   2089     1
   2071   2076     1
   2071   2084     1
   2071   2083     1
   2072   2082     1
   2073   2084     1
   2073   2075     1
   2074   2077     1
   2074   2089     1
   2074   2076     1
   2074   2084     1
   2074   2079     1
   2074   2075     1
   2075   2078     1
   2075   2082     1
   2075   2080     1
   2076   2078     1
   2085   2088     1
   2085   2089     1
   2086   2088     1
   2086   2089     1
   2090   2098     1
   2090   2106     1
   2090   2111     1
   2090   2099     1
   2091   2108     1
   2091   2109     1
   2091   2097     1
   2091   2105     1
   2092   2094     1
   2092   2103     1
   2092   2093     1
   2092   2110     1
   2092   2108     1
   2092   2109     1
   2092   2096     1
   2093   2104     1
   2093   2112     1
   2093   2095     1
   2093   2102     1
   2093   2098     1
   2093   2106     1
   2094   2106     1
   2094   2099     1
   2094   2107     1
   2095   2105     1
   2096   2098     1
   2096   2107     1
   2097   2102     1
   2097   2098     1
   2097   2100     1
   2097   2112     1
   2097   2099     1
   2097   2107     1
   2098   2103     1
   2098   2101     1
   2098   2105     1
   2099   2101     1
   2108   2112     1
   2108   2111     1
   2109   2112     1
   2109   2111     1
   2113   2121     1
   2113   2129     1
   2113   2134     1
   2113   2122     1
   2114   2120     1
   2114   2128     1
   2114   2131     1
   2114   2132     1
   2115   2117     1
   2115   2126     1
   2115   2116     1
   2115   2133     1
   2115   2131     1
   2115   2132     1
   2115   2119     1
   2116   2118     1
   2116   2125     1
   2116   2121     1
   2116   2129     1
   2116   2127     1
   2116   2135     1
   2117   2122     1
   2117   2130     1
   2117   2129     1
   2118   2128     1
   2119   2130     1
   2119   2121     1
   2120   2123     1
   2120   2135     1
   2120   2122     1
   2120   2130     1
   2120   2125     1
   2120   2121     1
   2121   2124     1
   2121   2128     1
   2121   2126     1
   2122   2124     1
   2131   2134     1
   2131   2135     1
   2132   2134     1
   2132   2135     1
   2136   2144     1
   2136   2152     1
   2136   2157     1
   2136   2145     1
   2137   2154     1
   2137   2155     1
   2137   2143     1
   2137   2151     1
   2138   2140     1
   2138   2149     1
   2138   2139     1
   2138   2156     1
   2138   2154     1
   2138   2155     1
   2138   2142     1
   2139   2150     1
   2139   2158     1
   2139   2141     1
   2139   2148     1
   2139   2144     1
   2139   2152     1
   2140   2152     1
   2140   2145     1
   2140   2153     1
   2141   2151     1
   2142   2144     1
   2142   2153     1
   2143   2148     1
   2143   2144     1
   2143   2146     1
   2143   2158     1
   2143   2145     1
   2143   2153     1
   2144   2149     1
   2144   2147     1
   2144   2151     1
   2145   2147     1
   2154   2158     1
   2154   2157     1
   2155   2158     1
   2155   2157     1
   2159   2167     1
   2159   2175     1
   2159   2180     1
   2159   2168     1
   2160   2166     1
   2160   2174     1
   2160   2177     1
   2160   2178     1
   2161   2163     1
   2161   2172     1
   2161   2162     1
   2161   2179     1
   2161   2177     1
   2161   2178     1
   2161   2165     1
   2162   2164     1
   2162   2171     1
   2162   2167     1
   2162   2175     1
   2162   2173     1
   2162   2181     1
   2163   2168     1
   2163   2176     1
   2163   2175     1
   2164   2174     1
   2165   2176     1
   2165   2167     1
   2166   2169     1
   2166   2181     1
   2166   2168     1
   2166   2176     1
   2166   2171     1
   2166   2167     1
   2167   2170     1
   2167   2174     1
   2167   2172     1
   2168   2170     1
   2177   2180     1
   2177   2181     1
   2178   2180     1
   2178   2181     1
   2182   2190     1
   2182   2198     1
   2182   2203     1
   2182   2191     1
   2183   2200     1
   2183   2201     1
   2183   2189     1
   2183   2197     1
   2184   2186     1
   2184   2195     1
   2184   2185     1
   2184   2202     1
   2184   2200     1
   2184   2201     1
   2184   2188     1
   2185   2196     1
   2185   2204     1
   2185   2187     1
   2185   2194     1
   2185   2190     1
   2185   2198     1
   2186   2198     1
   2186   2191     1
   2186   2199     1
   2187   2197     1
   2188   2190     1
   2188   2199     1
   2189   2194     1
   2189   2190     1
   2189   2192     1
   2189   2204     1
   2189   2191     1
   2189   2199     1
   2190   2195     1
   2190   2193     1
   2190   2197     1
   2191   2193     1
   2200   2204     1
   2200   2203     1
   2201   2204     1
   2201   2203     1
   2205   2213     1
   2205   2221     1
   2205   2226     1
   2205   2214     1
   2206   2212     1
   2206   2220     1
   2206   2223     1
   2206   2224     1
   2207   2209     1
   2207   2218     1
   2207   2208     1
   2207   2225     1
   2207   2223     1
   2207   2224     1
   2207   2211     1
   2208   2210     1
   2208   2217     1
   2208   2213     1
   2208   2221     1
   2208   2219     1
   2208   2227     1
   2209   2214     1
   2209   2222     1
   2209   2221     1
   2210   2220     1
   2211   2222     1
   2211   2213     1
   2212   2215     1
   2212   2227     1
   2212   2214     1
   2212   2222     1
   2212   2217     1
   2212   2213     1
   2213   2216     1
   2213   2220     1
   2213   2218     1
   2214   2216     1
   2223   2226     1
   2223   2227     1
   2224   2226     1
   2224   2227     1
   2228   2236     1
   2228   2244     1
   2228   2249     1
   2228   2237     1
   2229   2246     1
   2229   2247     1
   2229   2235     1
   2229   2243     1
   2230   2232     1
   2230   2241     1
   2230   2231     1
   2230   2248     1
   2230   2246     1
   2230   2247     1
   2230   2234     1
   2231   2242     1
   2231   2250     1
   2231   2233     1
   2231   2240     1
   2231   2236     1
   2231   2244     1
   2232   2244     1
   2232   2237     1
   2232   2245     1
   2233   2243     1
   2234   2236     1
   2234   2245     1
   2235   2240     1
   2235   2236     1
   2235   2238     1
   2235   2250     1
   2235   2237     1
   2235   2245     1
   2236   2241     1
   2236   2239     1
   2236   2243     1
   2237   2239     1
   2246   2250     1
   2246   2249     1
   2247   2250     1
   2247   2249     1
   2251   2259     1
   2251   2267     1
   2251   2272     1
   2251   2260     1
   2252   2258     1
   2252   2266     1
   2252   2269     1
   2252   2270     1
   2253   2255     1
   2253   2264     1
   2253   2254     1
   2253   2271     1
   2253   2269     1
   2253   2270     1
   2253   2257     1
   2254   2256     1
   2254   2263     1
   2254   2259     1
   2254   2267     1
   2254   2265     1
   2254   2273     1
   2255   2260     1
   2255   2268     1
   2255   2267     1
   2256   2266     1
   2257   2268     1
   2257   2259     1
   2258   2261     1
   2258   2273     1
   2258   2260     1
   2258   2268     1
   2258   2263     1
   2258   2259     1
   2259   2262     1
   2259   2266     1
   2259   2264     1
   2260   2262     1
   2269   2272     1
   2269   2273     1
   2270   2272     1
   2270   2273     1
   2274   2282     1
   2274   2290     1
   2274   2295     1
   2274   2283     1
   2275   2292     1
   2275   2293     1
   2275   2281     1
   2275   2289     1
   2276   2278     1
   2276   2287     1
   2276   2277     1
   2276   2294     1
   2276   2292     1
   2276   2293     1
   2276   2280     1
   2277   2288     1
   2277   2296     1
   2277   2279     1
   2277   2286     1
   2277   2282     1
   2277   2290     1
   2278   2290     1
   2278   2283     1
   2278   2291     1
   2279   2289     1
   2280   2282     1
   2280   2291     1
   2281   2286     1
   2281   2282     1
   2281   2284     1
   2281   2296     1
   2281   2283     1
   2281   2291     1
   2282   2287     1
   2282   2285     1
   2282   2289     1
   2283   2285     1
   2292   2296     1
   2292   2295     1
   2293   2296     1
   2293   2295     1
   2297   2305     1
   2297   2313     1
   2297   2318     1
   2297   2306     1
   2298   2304     1
   2298   2312     1
   2298   2315     1
   2298   2316     1
   2299   2301     1
   2299   2310     1
   2299   2300     1
   2299   2317     1
   2299   2315     1
   2299   2316     1
   2299   2303     1
   2300   2302     1
   2300   2309     1
   2300   2305     1
   2300   2313     1
   2300   2311     1
   2300   2319     1
   2301   2306     1
   2301   2314     1
   2301   2313     1
   2302   2312     1
   2303   2314     1
   2303   2305     1
   2304   2307     1
   2304   2319     1
   2304   2306     1
   2304   2314     1
   2304   2309     1
   2304   2305     1
   2305   2308     1
   2305   2312     1
   2305   2310     1
   2306   2308     1
   2315   2318     1
   2315   2319     1
   2316   2318     1
   2316   2319     1
   2320   2328     1
   2320   2336     1
   2320   2341     1
   2320   2329     1
   2321   2338     1
   2321   2339     1
   2321   2327     1
   2321   2335     1
   2322   2324     1
   2322   2333     1
   2322   2323     1
   2322   2340     1
   2322   2338     1
   2322   2339     1
   2322   2326     1
   2323   2334     1
   2323   2342     1
   2323   2325     1
   2323   2332     1
   2323   2328     1
   2323   2336     1
   2324   2336     1
   2324   2329     1
   2324   2337     1
   2325   2335     1
   2326   2328     1
   2326   2337     1
   2327   2332     1
   2327   2328     1
   2327   2330     1
   2327   2342     1
   2327   2329     1
   2327   2337     1
   2328   2333     1
   2328   2331     1
   2328   2335     1
   2329   2331     1
   2338   2342     1
   2338   2341     1
   2339   2342     1
   2339   2341     1
   2343   2351     1
   2343   2359     1
   2343   2364     1
   2343   2352     1
   2344   2350     1
   2344   2358     1
   2344   2361     1
   2344   2362     1
   2345   2347     1
   2345   2356     1
   2345   2346     1
   2345   2363     1
   2345   2361     1
   2345   2362     1
   2345   2349     1
   2346   2348     1
   2346   2355     1
   2346   2351     1
   2346   2359     1
   2346   2357     1
   2346   2365     1
   2347   2352     1
   2347   2360     1
   2347   2359     1
   2348   2358     1
   2349   2360     1
   2349   2351     1
   2350   2353     1
   2350   2365     1
   2350   2352     1
   2350   2360     1
   2350   2355     1
   2350   2351     1
   2351   2354     1
   2351   2358     1
   2351   2356     1
   2352   2354     1
   2361   2364     1
   2361   2365     1
   2362   2364     1
   2362   2365     1
   2366   2374     1
   2366   2382     1
   2366   2387     1
   2366   2375     1
   2367   2384     1
   2367   2385     1
   2367   2373     1
   2367   2381     1
   2368   2370     1
   2368   2379     1
   2368   2369     1
   2368   2386     1
   2368   2384     1
   2368   2385     1
   2368   2372     1
   2369   2380     1
   2369   2388     1
   2369   2371     1
   2369   2378     1
   2369   2374     1
   2369   2382     1
   2370   2382     1
   2370   2375     1
   2370   2383     1
   2371   2381     1
   2372   2374     1
   2372   2383     1
   2373   2378     1
   2373   2374     1
   2373   2376     1
   2373   2388     1
   2373   2375     1
   2373   2383     1
   2374   2379     1
   2374   2377     1
   2374   2381     1
   2375   2377     1
   2384   2388     1
   2384   2387     1
   2385   2388     1
   2385   2387     1
   2389   2397     1
   2389   2405     1
   2389   2410     1
   2389   2398     1
   2390   2396     1
   2390   2404     1
   2390   2407     1
   2390   2408     1
   2391   2393     1
   2391   2402     1
   2391   2392     1
   2391   2409     1
   2391   2407     1
   2391   2408     1
   2391   2395     1
   2392   2394     1
   2392   2401     1
   2392   2397     1
   2392   2405     1
   2392   2403     1
   2392   2411     1
   2393   2398     1
   2393   2406     1
   2393   2405     1
   2394   2404     1
   2395   2406     1
   2395   2397     1
   2396   2399     1
   2396   2411     1
   2396   2398     1
   2396   2406     1
   2396   2401     1
   2396   2397     1
   2397   2400     1
   2397   2404     1
   2397   2402     1
   2398   2400     1
   2407   2410     1
   2407   2411     1
   2408   2410     1
   2408   2411     1
   2412   2420     1
   2412   2428     1
   2412   2433     1
   2412   2421     1
   2413   2430     1
   2413   2431     1
   2413   2419     1
   2413   2427     1
   2414   2416     1
   2414   2425     1
   2414   2415     1
   2414   2432     1
   2414   2430     1
   2414   2431     1
   2414   2418     1
   2415   2426     1
   2415   2434     1
   2415   2417     1
   2415   2424     1
   2415   2420     1
   2415   2428     1
   2416   2428     1
   2416   2421     1
   2416   2429     1
   2417   2427     1
   2418   2420     1
   2418   2429     1
   2419   2424     1
   2419   2420     1
   2419   2422     1
   2419   2434     1
   2419   2421     1
   2419   2429     1
   2420   2425     1
   2420   2423     1
   2420   2427     1
   2421   2423     1
   2430   2434     1
   2430   2433     1
   2431   2434     1
   2431   2433     1
   2435   2443     1
   2435   2451     1
   2435   2456     1
   2435   2444     1
   2436   2442     1
   2436   2450     1
   2436   2453     1
   2436   2454     1
   2437   2439     1
   2437   2448     1
   2437   2438     1
   2437   2455     1
   2437   2453     1
   2437   2454     1
   2437   2441     1
   2438   2440     1
   2438   2447     1
   2438   2443     1
   2438   2451     1
   2438   2449     1
   2438   2457     1
   2439   2444     1
   2439   2452     1
   2439   2451     1
   2440   2450     1
   2441   2452     1
   2441   2443     1
   2442   2445     1
   2442   2457     1
   2442   2444     1
   2442   2452     1
   2442   2447     1
   2442   2443     1
   2443   2446     1
   2443   2450     1
   2443   2448     1
   2444   2446     1
   2453   2456     1
   2453   2457     1
   2454   2456     1
   2454   2457     1
   2458   2466     1
   2458   2474     1
   2458   2479     1
   2458   2467     1
   2459   2476     1
   2459   2477     1
   2459   2465     1
   2459   2473     1
   2460   2462     1
   2460   2471     1
   2460   2461     1
   2460   2478     1
   2460   2476     1
   2460   2477     1
   2460   2464     1
   2461   2472     1
   2461   2480     1
   2461   2463     1
   2461   2470     1
   2461   2466     1
   2461   2474     1
   2462   2474     1
   2462   2467     1
   2462   2475     1
   2463   2473     1
   2464   2466     1
   2464   2475     1
   2465   2470     1
   2465   2466     1
   2465   2468     1
   2465   2480     1
   2465   2467     1
   2465   2475     1
   2466   2471     1
   2466   2469     1
   2466   2473     1
   2467   2469     1
   2476   2480     1
   2476   2479     1
   2477   2480     1
   2477   2479     1
   2481   2489     1
   2481   2497     1
   2481   2502     1
   2481   2490     1
   2482   2488     1
   2482   2496     1
   2482   2499     1
   2482   2500     1
   2483   2485     1
   2483   2494     1
   2483   2484     1
   2483   2501     1
   2483   2499     1
   2483   2500     1
   2483   2487     1
   2484   2486     1
   2484   2493     1
   2484   2489     1
   2484   2497     1
   2484   2495     1
   2484   2503     1
   2485   2490     1
   2485   2498     1
   2485   2497     1
   2486   2496     1
   2487   2498     1
   2487   2489     1
   2488   2491     1
   2488   2503     1
   2488   2490     1
   2488   2498     1
   2488   2493     1
   2488   2489     1
   2489   2492     1
   2489   2496     1
   2489   2494     1
   2490   2492     1
   2499   2502     1
   2499   2503     1
   2500   2502     1
   2500   2503     1
   2504   2512     1
   2504   2520     1
   2504   2525     1
   2504   2513     1
   2505   2522     1
   2505   2523     1
   2505   2511     1
   2505   2519     1
   2506   2508     1
   2506   2517     1
   2506   2507     1
   2506   2524     1
   2506   2522     1
   2506   2523     1
   2506   2510     1
   2507   2518     1
   2507   2526     1
   2507   2509     1
   2507   2516     1
   2507   2512     1
   2507   2520     1
   2508   2520     1
   2508   2513     1
   2508   2521     1
   2509   2519     1
   2510   2512     1
   2510   2521     1
   2511   2516     1
   2511   2512     1
   2511   2514     1
   2511   2526     1
   2511   2513     1
   2511   2521     1
   2512   2517     1
   2512   2515     1
   2512   2519     1
   2513   2515     1
   2522   2526     1
   2522   2525     1
   2523   2526     1
   2523   2525     1
   2527   2535     1
   2527   2543     1
   2527   2548     1
   2527   2536     1
   2528   2534     1
   2528   2542     1
   2528   2545     1
   2528   2546     1
   2529   2531     1
   2529   2540     1
   2529   2530     1
   2529   2547     1
   2529   2545     1
   2529   2546     1
   2529   2533     1
   2530   2532     1
   2530   2539     1
   2530   2535     1
   2530   2543     1
   2530   2541     1
   2530   2549     1
   2531   2536     1
   2531   2544     1
   2531   2543     1
   2532   2542     1
   2533   2544     1
   2533   2535     1
   2534   2537     1
   2534   2549     1
   2534   2536     1
   2534   2544     1
   2534   2539     1
   2534   2535     1
   2535   2538     1
   2535   2542     1
   2535   2540     1
   2536   2538     1
   2545   2548     1
   2545   2549     1
   2546   2548     1
   2546   2549     1
   2550   2558     1
   2550   2566     1
   2550   2571     1
   2550   2559     1
   2551   2568     1
   2551   2569     1
   2551   2557     1
   2551   2565     1
   2552   2554     1
   2552   2563     1
   2552   2553     1
   2552   2570     1
   2552   2568     1
   2552   2569     1
   2552   2556     1
   2553   2564     1
   2553   2572     1
   2553   2555     1
   2553   2562     1
   2553   2558     1
   2553   2566     1
   2554   2566     1
   2554   2559     1
   2554   2567     1
   2555   2565     1
   2556   2558     1
   2556   2567     1
   2557   2562     1
   2557   2558     1
   2557   2560     1
   2557   2572     1
   2557   2559     1
   2557   2567     1
   2558   2563     1
   2558   2561     1
   2558   2565     1
   2559   2561     1
   2568   2572     1
   2568   2571     1
   2569   2572     1
   2569   2571     1
   2573   2581     1
   2573   2589     1
   2573   2594     1
   2573   2582     1
   2574   2580     1
   2574   2588     1
   2574   2591     1
   2574   2592     1
   2575   2577     1
   2575   2586     1
   2575   2576     1
   2575   2593     1
   2575   2591     1
   2575   2592     1
   2575   2579     1
   2576   2578     1
   2576   2585     1
   2576   2581     1
   2576   2589     1
   2576   2587     1
   2576   2595     1
   2577   2582     1
   2577   2590     1
   2577   2589     1
   2578   2588     1
   2579   2590     1
   2579   2581     1
   2580   2583     1
   2580   2595     1
   2580   2582     1
   2580   2590     1
   2580   2585     1
   2580   2581     1
   2581   2584     1
   2581   2588     1
   2581   2586     1
   2582   2584     1
   2591   2594     1
   2591   2595     1
   2592   2594     1
   2592   2595     1
   2596   2604     1
   2596   2612     1
   2596   2617     1
   2596   2605     1
   2597   2614     1
   2597   2615     1
   2597   2603     1
   2597   2611     1
   2598   2600     1
   2598   2609     1
   2598   2599     1
   2598   2616     1
   2598   2614     1
   2598   2615     1
   2598   2602     1
   2599   2610     1
   2599   2618     1
   2599   2601     1
   2599   2608     1
   2599   2604     1
   2599   2612     1
   2600   2612     1
   2600   2605     1
   2600   2613     1
   2601   2611     1
   2602   2604     1
   2602   2613     1
   2603   2608     1
   2603   2604     1
   2603   2606     1
   2603   2618     1
   2603   2605     1
   2603   2613     1
   2604   2609     1
   2604   2607     1
   2604   2611     1
   2605   2607     1
   2614   2618     1
   2614   2617     1
   2615   2618     1
   2615   2617     1
   2619   2627     1
   2619   2635     1
   2619   2640     1
   2619   2628     1
   2620   2626     1
   2620   2634     1
   2620   2637     1
   2620   2638     1
   2621   2623     1
   2621   2632     1
   2621   2622     1
   2621   2639     1
   2621   2637     1
   2621   2638     1
   2621   2625     1
   2622   2624     1
   2622   2631     1
   2622   2627     1
   2622   2635     1
   2622   2633     1
   2622   2641     1
   2623   2628     1
   2623   2636     1
   2623   2635     1
   2624   2634     1
   2625   2636     1
   2625   2627     1
   2626   2629     1
   2626   2641     1
   2626   2628     1
   2626   2636     1
   2626   2631     1
   2626   2627     1
   2627   2630     1
   2627   2634     1
   2627   2632     1
   2628   2630     1
   2637   2640     1
   2637   2641     1
   2638   2640     1
   2638   2641     1
   2642   2650     1
   2642   2658     1
   2642   2663     1
   2642   2651     1
   2643   2660     1
   2643   2661     1
   2643   2649     1
   2643   2657     1
   2644   2646     1
   2644   2655     1
   2644   2645     1
   2644   2662     1
   2644   2660     1
   2644   2661     1
   2644   2648     1
   2645   2656     1
   2645   2664     1
   2645   2647     1
   2645   2654     1
   2645   2650     1
   2645   2658     1
   2646   2658     1
   2646   2651     1
   2646   2659     1
   2647   2657     1
   2648   2650     1
   2648   2659     1
   2649   2654     1
   2649   2650     1
   2649   2652     1
   2649   2664     1
   2649   2651     1
   2649   2659     1
   2650   2655     1
   2650   2653     1
   2650   2657     1
   2651   2653     1
   2660   2664     1
   2660   2663     1
   2661   2664     1
   2661   2663     1
   2665   2673     1
   2665   2681     1
   2665   2686     1
   2665   2674     1
   2666   2672     1
   2666   2680     1
   2666   2683     1
   2666   2684     1
   2667   2669     1
   2667   2678     1
   2667   2668     1
   2667   2685     1
   2667   2683     1
   2667   2684     1
   2667   2671     1
   2668   2670     1
   2668   2677     1
   2668   2673     1
   2668   2681     1
   2668   2679     1
   2668   2687     1
   2669   2674     1
   2669   2682     1
   2669   2681     1
   2670   2680     1
   2671   2682     1
   2671   2673     1
   2672   2675     1
   2672   2687     1
   2672   2674     1
   2672   2682     1
   2672   2677     1
   2672   2673     1
   2673   2676     1
   2673   2680     1
   2673   2678     1
   2674   2676     1
   2683   2686     1
   2683   2687     1
   2684   2686     1
   2684   2687     1
   2688   2696     1
   2688   2704     1
   2688   2709     1
   2688   2697     1
   2689   2706     1
   2689   2707     1
   2689   2695     1
   2689   2703     1
   2690   2692     1
   2690   2701     1
   2690   2691     1
   2690   2708     1
   2690   2706     1
   2690   2707     1
   2690   2694     1
   2691   2702     1
   2691   2710     1
   2691   2693     1
   2691   2700     1
   2691   2696     1
   2691   2704     1
   2692   2704     1
   2692   2697     1
   2692   2705     1
   2693   2703     1
   2694   2696     1
   2694   2705     1
   2695   2700     1
   2695   2696     1
   2695   2698     1
   2695   2710     1
   2695   2697     1
   2695   2705     1
   2696   2701     1
   2696   2699     1
   2696   2703     1
   2697   2699     1
   2706   2710     1
   2706   2709     1
   2707   2710     1
   2707   2709     1
   2711   2719     1
   2711   2727     1
   2711   2732     1
   2711   2720     1
   2712   2718     1
   2712   2726     1
   2712   2729     1
   2712   2730     1
   2713   2715     1
   2713   2724     1
   2713   2714     1
   2713   2731     1
   2713   2729     1
   2713   2730     1
   2713   2717     1
   2714   2716     1
   2714   2723     1
   2714   2719     1
   2714   2727     1
   2714   2725     1
   2714   2733     1
   2715   2720     1
   2715   2728     1
   2715   2727     1
   2716   2726     1
   2717   2728     1
   2717   2719     1
   2718   2721     1
   2718   2733     1
   2718   2720     1
   2718   2728     1
   2718   2723     1
   2718   2719     1
   2719   2722     1
   2719   2726     1
   2719   2724     1
   2720   2722     1
   2729   2732     1
   2729   2733     1
   2730   2732     1
   2730   2733     1
   2734   2742     1
   2734   2750     1
   2734   2755     1
   2734   2743     1
   2735   2752     1
   2735   2753     1
   2735   2741     1
   2735   2749     1
   2736   2738     1
   2736   2747     1
   2736   2737     1
   2736   2754     1
   2736   2752     1
   2736   2753     1
   2736   2740     1
   2737   2748     1
   2737   2756     1
   2737   2739     1
   2737   2746     1
   2737   2742     1
   2737   2750     1
   2738   2750     1
   2738   2743     1
   2738   2751     1
   2739   2749     1
   2740   2742     1
   2740   2751     1
   2741   2746     1
   2741   2742     1
   2741   2744     1
   2741   2756     1
   2741   2743     1
   2741   2751     1
   2742   2747     1
   2742   2745     1
   2742   2749     1
   2743   2745     1
   2752   2756     1
   2752   2755     1
   2753   2756     1
   2753   2755     1
   2757   2765     1
   2757   2773     1
   2757   2778     1
   2757   2766     1
   2758   2764     1
   2758   2772     1
   2758   2775     1
   2758   2776     1
   2759   2761     1
   2759   2770     1
   2759   2760     1
   2759   2777     1
   2759   2775     1
   2759   2776     1
   2759   2763     1
   2760   2762     1
   2760   2769     1
   2760   2765     1
   2760   2773     1
   2760   2771     1
   2760   2779     1
   2761   2766     1
   2761   2774     1
   2761   2773     1
   2762   2772     1
   2763   2774     1
   2763   2765     1
   2764   2767     1
   2764   2779     1
   2764   2766     1
   2764   2774     1
   2764   2769     1
   2764   2765     1
   2765   2768     1
   2765   2772     1
   2765   2770     1
   2766   2768     1
   2775   2778     1
   2775   2779     1
   2776   2778     1
   2776   2779     1
   2780   2788     1
   2780   2796     1
   2780   2801     1
   2780   2789     1
   2781   2798     1
   2781   2799     1
   2781   2787     1
   2781   2795     1
   2782   2784     1
   2782   2793     1
   2782   2783     1
   2782   2800     1
   2782   2798     1
   2782   2799     1
   2782   2786     1
   2783   2794     1
   2783   2802     1
   2783   2785     1
   2783   2792     1
   2783   2788     1
   2783   2796     1
   2784   2796     1
   2784   2789     1
   2784   2797     1
   2785   2795     1
   2786   2788     1
   2786   2797     1
   2787   2792     1
   2787   2788     1
   2787   2790     1
   2787   2802     1
   2787   2789     1
   2787   2797     1
   2788   2793     1
   2788   2791     1
   2788   2795     1
   2789   2791     1
   2798   2802     1
   2798   2801     1
   2799   2802     1
   2799   2801     1
   2803   2811     1
   2803   2819     1
   2803   2824     1
   2803   2812     1
   2804   2810     1
   2804   2818     1
   2804   2821     1
   2804   2822     1
   2805   2807     1
   2805   2816     1
   2805   2806     1
   2805   2823     1
   2805   2821     1
   2805   2822     1
   2805   2809     1
   2806   2808     1
   2806   2815     1
   2806   2811     1
   2806   2819     1
   2806   2817     1
   2806   2825     1
   2807   2812     1
   2807   2820     1
   2807   2819     1
   2808   2818     1
   2809   2820     1
   2809   2811     1
   2810   2813     1
   2810   2825     1
   2810   2812     1
   2810   2820     1
   2810   2815     1
   2810   2811     1
   2811   2814     1
   2811   2818     1
   2811   2816     1
   2812   2814     1
   2821   2824     1
   2821   2825     1
   2822   2824     1
   2822   2825     1
   2826   2834     1
   2826   2842     1
   2826   2847     1
   2826   2835     1
   2827   2844     1
   2827   2845     1
   2827   2833     1
   2827   2841     1
   2828   2830     1
   2828   2839     1
   2828   2829     1
   2828   2846     1
   2828   2844     1
   2828   2845     1
   2828   2832     1
   2829   2840     1
   2829   2848     1
   2829   2831     1
   2829   2838     1
   2829   2834     1
   2829   2842     1
   2830   2842     1
   2830   2835     1
   2830   2843     1
   2831   2841     1
   2832   2834     1
   2832   2843     1
   2833   2838     1
   2833   2834     1
   2833   2836     1
   2833   2848     1
   2833   2835     1
   2833   2843     1
   2834   2839     1
   2834   2837     1
   2834   2841     1
   2835   2837     1
   2844   2848     1
   2844   2847     1
   2845   2848     1
   2845   2847     1
   2849   2857     1
   2849   2865     1
   2849   2870     1
   2849   2858     1
   2850   2856     1
   2850   2864     1
   2850   2867     1
   2850   2868     1
   2851   2853     1
   2851   2862     1
   2851   2852     1
   2851   2869     1
   2851   2867     1
   2851   2868     1
   2851   2855     1
   2852   2854     1
   2852   2861     1
   2852   2857     1
   2852   2865     1
   2852   2863     1
   2852   2871     1
   2853   2858     1
   2853   2866     1
   2853   2865     1
   2854   2864     1
   2855   2866     1
   2855   2857     1
   2856   2859     1
   2856   2871     1
   2856   2858     1
   2856   2866     1
   2856   2861     1
   2856   2857     1
   2857   2860     1
   2857   2864     1
   2857   2862     1
   2858   2860     1
   2867   2870     1
   2867   2871     1
   2868   2870     1
   2868   2871     1
   2872   2880     1
   2872   2888     1
   2872   2893     1
   2872   2881     1
   2873   2890     1
   2873   2891     1
   2873   2879     1
   2873   2887     1
   2874   2876     1
   2874   2885     1
   2874   2875     1
   2874   2892     1
   2874   2890     1
   2874   2891     1
   2874   2878     1
   2875   2886     1
   2875   2894     1
   2875   2877     1
   2875   2884     1
   2875   2880     1
   2875   2888     1
   2876   2888     1
   2876   2881     1
   2876   2889     1
   2877   2887     1
   2878   2880     1
   2878   2889     1
   2879   2884     1
   2879   2880     1
   2879   2882     1
   2879   2894     1
   2879   2881     1
   2879   2889     1
   2880   2885     1
   2880   2883     1
   2880   2887     1
   2881   2883     1
   2890   2894     1
   2890   2893     1
   2891   2894     1
   2891   2893     1
   2895   2903     1
   2895   2911     1
   2895   2916     1
   2895   2904     1
   2896   2902     1
   2896   2910     1
   2896   2913     1
   2896   2914     1
   2897   2899     1
   2897   2908     1
   2897   2898     1
   2897   2915     1
   2897   2913     1
   2897   2914     1
   2897   2901     1
   2898   2900     1
   2898   2907     1
   2898   2903     1
   2898   2911     1
   2898   2909     1
   2898   2917     1
   2899   2904     1
   2899   2912     1
   2899   2911     1
   2900   2910     1
   2901   2912     1
   2901   2903     1
   2902   2905     1
   2902   2917     1
   2902   2904     1
   2902   2912     1
   2902   2907     1
   2902   2903     1
   2903   2906     1
   2903   2910     1
   2903   2908     1
   2904   2906     1
   2913   2916     1
   2913   2917     1
   2914   2916     1
   2914   2917     1
   2918   2926     1
   2918   2934     1
   2918   2939     1
   2918   2927     1
   2919   2936     1
   2919   2937     1
   2919   2925     1
   2919   2933     1
   2920   2922     1
   2920   2931     1
   2920   2921     1
   2920   2938     1
   2920   2936     1
   2920   2937     1
   2920   2924     1
   2921   2932     1
   2921   2940     1
   2921   2923     1
   2921   2930     1
   2921   2926     1
   2921   2934     1
   2922   2934     1
   2922   2927     1
   2922   2935     1
   2923   2933     1
   2924   2926     1
   2924   2935     1
   2925   2930     1
   2925   2926     1
   2925   2928     1
   2925   2940     1
   2925   2927     1
   2925   2935     1
   2926   2931     1
   2926   2929     1
   2926   2933     1
   2927   2929     1
   2936   2940     1
   2936   2939     1
   2937   2940     1
   2937   2939     1
   2941   2949     1
   2941   2957     1
   2941   2962     1
   2941   2950     1
   2942   2948     1
   2942   2956     1
   2942   2959     1
   2942   2960     1
   2943   2945     1
   2943   2954     1
   2943   2944     1
   2943   2961     1
   2943   2959     1
   2943   2960     1
   2943   2947     1
   2944   2946     1
   2944   2953     1
   2944   2949     1
   2944   2957     1
   2944   2955     1
   2944   2963     1
   2945   2950     1
   2945   2958     1
   2945   2957     1
   2946   2956     1
   2947   2958     1
   2947   2949     1
   2948   2951     1
   2948   2963     1
   2948   2950     1
   2948   2958     1
   2948   2953     1
   2948   2949     1
   2949   2952     1
   2949   2956     1
   2949   2954     1
   2950   2952     1
   2959   2962     1
   2959   2963     1
   2960   2962     1
   2960   2963     1
   2964   2972     1
   2964   2980     1
   2964   2985     1
   2964   2973     1
   2965   2982     1
   2965   2983     1
   2965   2971     1
   2965   2979     1
   2966   2968     1
   2966   2977     1
   2966   2967     1
   2966   2984     1
   2966   2982     1
   2966   2983     1
   2966   2970     1
   2967   2978     1
   2967   2986     1
   2967   2969     1
   2967   2976     1
   2967   2972     1
   2967   2980     1
   2968   2980     1
   2968   2973     1
   2968   2981     1
   2969   2979     1
   2970   2972     1
   2970   2981     1
   2971   2976     1
   2971   2972     1
   2971   2974     1
   2971   2986     1
   2971   2973     1
   2971   2981     1
   2972   2977     1
   2972   2975     1
   2972   2979     1
   2973   2975     1
   2982   2986     1
   2982   2985     1
   2983   2986     1
   2983   2985     1
   2987   2995     1
   2987   3003     1
   2987   3008     1
   2987   2996     1
   2988   2994     1
   2988   3002     1
   2988   3005     1
   2988   3006     1
   2989   2991     1
   2989   3000     1
   2989   2990     1
   2989   3007     1
   2989   3005     1
   2989   3006     1
   2989   2993     1
   2990   2992     1
   2990   2999     1
   2990   2995     1
   2990   3003     1
   2990   3001     1
   2990   3009     1
   2991   2996     1
   2991   3004     1
   2991   3003     1
   2992   3002     1
   2993   3004     1
   2993   2995     1
   2994   2997     1
   2994   3009     1
   2994   2996     1
   2994   3004     1
   2994   2999     1
   2994   2995     1
   2995   2998     1
   2995   3002     1
   2995   3000     1
   2996   2998     1
   3005   3008     1
   3005   3009     1
   3006   3008     1
   3006   3009     1
   3010   3018     1
   3010   3026     1
   3010   3031     1
   3010   3019     1
   3011   3028     1
   3011   3029     1
   3011   3017     1
   3011   3025     1
   3012   3014     1
   3012   3023     1
   3012   3013     1
   3012   3030     1
   3012   3028     1
   3012   3029     1
   3012   3016     1
   3013   3024     1
   3013   3032     1
   3013   3015     1
   3013   3022     1
   3013   3018     1
   3013   3026     1
   3014   3026     1
   3014   3019     1
   3014   3027     1
   3015   3025     1
   3016   3018     1
   3016   3027     1
   3017   3022     1
   3017   3018     1
   3017   3020     1
   3017   3032     1
   3017   3019     1
   3017   3027     1
   3018   3023     1
   3018   3021     1
   3018   3025     1
   3019   3021     1
   3028   3032     1
   3028   3031     1
   3029   3032     1
   3029   3031     1
   3033   3041     1
   3033   3049     1
   3033   3054     1
   3033   3042     1
   3034   3040     1
   3034   3048     1
   3034   3051     1
   3034   3052     1
   3035   3037     1
   3035   3046     1
   3035   3036     1
   3035   3053     1
   3035   3051     1
   3035   3052     1
   3035   3039     1
   3036   3038     1
   3036   3045     1
   3036   3041     1
   3036   3049     1
   3036   3047     1
   3036   3055     1
   3037   3042     1
   3037   3050     1
   3037   3049     1
   3038   3048     1
   3039   3050     1
   3039   3041     1
   3040   3043     1
   3040   3055     1
   3040   3042     1
   3040   3050     1
   3040   3045     1
   3040   3041     1
   3041   3044     1
   3041   3048     1
   3041   3046     1
   3042   3044     1
   3051   3054     1
   3051   3055     1
   3052   3054     1
   3052   3055     1
   3056   3064     1
   3056   3072     1
   3056   3077     1
   3056   3065     1
   3057   3074     1
   3057   3075     1
   3057   3063     1
   3057   3071     1
   3058   3060     1
   3058   3069     1
   3058   3059     1
   3058   3076     1
   3058   3074     1
   3058   3075     1
   3058   3062     1
   3059   3070     1
   3059   3078     1
   3059   3061     1
   3059   3068     1
   3059   3064     1
   3059   3072     1
   3060   3072     1
   3060   3065     1
   3060   3073     1
   3061   3071     1
   3062   3064     1
   3062   3073     1
   3063   3068     1
   3063   3064     1
   3063   3066     1
   3063   3078     1
   3063   3065     1
   3063   3073     1
   3064   3069     1
   3064   3067     1
   3064   3071     1
   3065   3067     1
   3074   3078     1
   3074   3077     1
   3075   3078     1
   3075   3077     1
   3079   3087     1
   3079   3095     1
   3079   3100     1
   3079   3088     1
   3080   3086     1
   3080   3094     1
   3080   3097     1
   3080   3098     1
   3081   3083     1
   3081   3092     1
   3081   3082     1
   3081   3099     1
   3081   3097     1
   3081   3098     1
   3081   3085     1
   3082   3084     1
   3082   3091     1
   3082   3087     1
   3082   3095     1
   3082   3093     1
   3082   3101     1
   3083   3088     1
   3083   3096     1
   3083   3095     1
   3084   3094     1
   3085   3096     1
   3085   3087     1
   3086   3089     1
   3086   3101     1
   3086   3088     1
   3086   3096     1
   3086   3091     1
   3086   3087     1
   3087   3090     1
   3087   3094     1
   3087   3092     1
   3088   3090     1
   3097   3100     1
   3097   3101     1
   3098   3100     1
   3098   3101     1
   3102   3110     1
   3102   3118     1
   3102   3123     1
   3102   3111     1
   3103   3120     1
   3103   3121     1
   3103   3109     1
   3103   3117     1
   3104   3106     1
   3104   3115     1
   3104   3105     1
   3104   3122     1
   3104   3120     1
   3104   3121     1
   3104   3108     1
   3105   3116     1
   3105   3124     1
   3105   3107     1
   3105   3114     1
   3105   3110     1
   3105   3118     1
   3106   3118     1
   3106   3111     1
   3106   3119     1
   3107   3117     1
   3108   3110     1
   3108   3119     1
   3109   3114     1
   3109   3110     1
   3109   3112     1
   3109   3124     1
   3109   3111     1
   3109   3119     1
   3110   3115     1
   3110   3113     1
   3110   3117     1
   3111   3113     1
   3120   3124     1
   3120   3123     1
   3121   3124     1
   3121   3123     1
   3125   3133     1
   3125   3141     1
   3125   3146     1
   3125   3134     1
   3126   3132     1
   3126   3140     1
   3126   3143     1
   3126   3144     1
   3127   3129     1
   3127   3138     1
   3127   3128     1
   3127   3145     1
   3127   3143     1
   3127   3144     1
   3127   3131     1
   3128   3130     1
   3128   3137     1
   3128   3133     1
   3128   3141     1
   3128   3139     1
   3128   3147     1
   3129   3134     1
   3129   3142     1
   3129   3141     1
   3130   3140     1
   3131   3142     1
   3131   3133     1
   3132   3135     1
   3132   3147     1
   3132   3134     1
   3132   3142     1
   3132   3137     1
   3132   3133     1
   3133   3136     1
   3133   3140     1
   3133   3138     1
   3134   3136     1
   3143   3146     1
   3143   3147     1
   3144   3146     1
   3144   3147     1
   3148   3156     1
   3148   3164     1
   3148   3169     1
   3148   3157     1
   3149   3166     1
   3149   3167     1
   3149   3155     1
   3149   3163     1
   3150   3152     1
   3150   3161     1
   3150   3151     1
   3150   3168     1
   3150   3166     1
   3150   3167     1
   3150   3154     1
   3151   3162     1
   3151   3170     1
   3151   3153     1
   3151   3160     1
   3151   3156     1
   3151   3164     1
   3152   3164     1
   3152   3157     1
   3152   3165     1
   3153   3163     1
   3154   3156     1
   3154   3165     1
   3155   3160     1
   3155   3156     1
   3155   3158     1
   3155   3170     1
   3155   3157     1
   3155   3165     1
   3156   3161     1
   3156   3159     1
   3156   3163     1
   3157   3159     1
   3166   3170     1
   3166   3169     1
   3167   3170     1
   3167   3169     1
   3171   3179     1
   3171   3187     1
   3171   3192     1
   3171   3180     1
   3172   3178     1
   3172   3186     1
   3172   3189     1
   3172   3190     1
   3173   3175     1
   3173   3184     1
   3173   3174     1
   3173   3191     1
   3173   3189     1
   3173   3190     1
   3173   3177     1
   3174   3176     1
   3174   3183     1
   3174   3179     1
   3174   3187     1
   3174   3185     1
   3174   3193     1
   3175   3180     1
   3175   3188     1
   3175   3187     1
   3176   3186     1
   3177   3188     1
   3177   3179     1
   3178   3181     1
   3178   3193     1
   3178   3180     1
   3178   3188     1
   3178   3183     1
   3178   3179     1
   3179   3182     1
   3179   3186     1
   3179   3184     1
   3180   3182     1
   3189   3192     1
   3189   3193     1
   3190   3192     1
   3190   3193     1
   3194   3202     1
   3194   3210     1
   3194   3215     1
   3194   3203     1
   3195   3212     1
   3195   3213     1
   3195   3201     1
   3195   3209     1
   3196   3198     1
   3196   3207     1
   3196   3197     1
   3196   3214     1
   3196   3212     1
   3196   3213     1
   3196   3200     1
   3197   3208     1
   3197   3216     1
   3197   3199     1
   3197   3206     1
   3197   3202     1
   3197   3210     1
   3198   3210     1
   3198   3203     1
   3198   3211     1
   3199   3209     1
   3200   3202     1
   3200   3211     1
   3201   3206     1
   3201   3202     1
   3201   3204     1
   3201   3216     1
   3201   3203     1
   3201   3211     1
   3202   3207     1
   3202   3205     1
   3202   3209     1
   3203   3205     1
   3212   3216     1
   3212   3215     1
   3213   3216     1
   3213   3215     1
   3217   3225     1
   3217   3233     1
   3217   3238     1
   3217   3226     1
   3218   3224     1
   3218   3232     1
   3218   3235     1
   3218   3236     1
   3219   3221     1
   3219   3230     1
   3219   3220     1
   3219   3237     1
   3219   3235     1
   3219   3236     1
   3219   3223     1
   3220   3222     1
   3220   3229     1
   3220   3225     1
   3220   3233     1
   3220   3231     1
   3220   3239     1
   3221   3226     1
   3221   3234     1
   3221   3233     1
   3222   3232     1
   3223   3234     1
   3223   3225     1
   3224   3227     1
   3224   3239     1
   3224   3226     1
   3224   3234     1
   3224   3229     1
   3224   3225     1
   3225   3228     1
   3225   3232     1
   3225   3230     1
   3226   3228     1
   3235   3238     1
   3235   3239     1
   3236   3238     1
   3236   3239     1
   3240   3248     1
   3240   3256     1
   3240   3261     1
   3240   3249     1
   3241   3258     1
   3241   3259     1
   3241   3247     1
   3241   3255     1
   3242   3244     1
   3242   3253     1
   3242   3243     1
   3242   3260     1
   3242   3258     1
   3242   3259     1
   3242   3246     1
   3243   3254     1
   3243   3262     1
   3243   3245     1
   3243   3252     1
   3243   3248     1
   3243   3256     1
   3244   3256     1
   3244   3249     1
   3244   3257     1
   3245   3255     1
   3246   3248     1
   3246   3257     1
   3247   3252     1
   3247   3248     1
   3247   3250     1
   3247   3262     1
   3247   3249     1
   3247   3257     1
   3248   3253     1
   3248   3251     1
   3248   3255     1
   3249   3251     1
   3258   3262     1
   3258   3261     1
   3259   3262     1
   3259   3261     1
   3263   3271     1
   3263   3279     1
   3263   3284     1
   3263   3272     1
   3264   3270     1
   3264   3278     1
   3264   3281     1
   3264   3282     1
   3265   3267     1
   3265   3276     1
   3265   3266     1
   3265   3283     1
   3265   3281     1
   3265   3282     1
   3265   3269     1
   3266   3268     1
   3266   3275     1
   3266   3271     1
   3266   3279     1
   3266   3277     1
   3266   3285     1
   3267   3272     1
   3267   3280     1
   3267   3279     1
   3268   3278     1
   3269   3280     1
   3269   3271     1
   3270   3273     1
   3270   3285     1
   3270   3272     1
   3270   3280     1
   3270   3275     1
   3270   3271     1
   3271   3274     1
   3271   3278     1
   3271   3276     1
   3272   3274     1
   3281   3284     1
   3281   3285     1
   3282   3284     1
   3282   3285     1
   3286   3294     1
   3286   3302     1
   3286   3307     1
   3286   3295     1
   3287   3304     1
   3287   3305     1
   3287   3293     1
   3287   3301     1
   3288   3290     1
   3288   3299     1
   3288   3289     1
   3288   3306     1
   3288   3304     1
   3288   3305     1
   3288   3292     1
   3289   3300     1
   3289   3308     1
   3289   3291     1
   3289   3298     1
   3289   3294     1
   3289   3302     1
   3290   3302     1
   3290   3295     1
   3290   3303     1
   3291   3301     1
   3292   3294     1
   3292   3303     1
   3293   3298     1
   3293   3294     1
   3293   3296     1
   3293   3308     1
   3293   3295     1
   3293   3303     1
   3294   3299     1
   3294   3297     1
   3294   3301     1
   3295   3297     1
   3304   3308     1
   3304   3307     1
   3305   3308     1
   3305   3307     1
   3309   3317     1
   3309   3325     1
   3309   3330     1
   3309   3318     1
   3310   3316     1
   3310   3324     1
   3310   3327     1
   3310   3328     1
   3311   3313     1
   3311   3322     1
   3311   3312     1
   3311   3329     1
   3311   3327     1
   3311   3328     1
   3311   3315     1
   3312   3314     1
   3312   3321     1
   3312   3317     1
   3312   3325     1
   3312   3323     1
   3312   3331     1
   3313   3318     1
   3313   3326     1
   3313   3325     1
   3314   3324     1
   3315   3326     1
   3315   3317     1
   3316   3319     1
   3316   3331     1
   3316   3318     1
   3316   3326     1
   3316   3321     1
   3316   3317     1
   3317   3320     1
   3317   3324     1
   3317   3322     1
   3318   3320     1
   3327   3330     1
   3327   3331     1
   3328   3330     1
   3328   3331     1

[ angles ]
;    ai     aj     ak funct         c0         c1         c2         c3
      1      2      8     1   107.9700462 569.024000
      1      5     11     1   107.9700462 569.024000
      2      1      5     1   112.4800480 524.673600
      2      8     14     1   111.5100476 526.347200
      5     11     17     1   111.5100476 526.347200
      8     14     20     1   114.2100488 537.225600
     11     17     21     1   114.2100488 537.225600
     14     20     28     1   109.6600471 523.836800
     14     20     31     1   109.6600471 523.836800
     17     21     22     1   109.6600471 523.836800
     17     21     25     1   109.6600471 523.836800
     20     28     40     1   114.2100488 537.225600
     20     31     43     1   114.2100488 537.225600
     21     22     34     1   114.2100488 537.225600
     21     25     37     1   114.2100488 537.225600
     22     21     25     1   109.6600471 523.836800
     22     34     55     1   111.5100476 526.347200
     25     37     52     1   111.5100476 526.347200
     28     20     31     1   109.6600471 523.836800
     28     40     49     1   111.5100476 526.347200
     31     43     46     1   111.5100476 526.347200
     34     55    178     1   107.9700462 569.024000
     37     52    148     1   107.9700462 569.024000
     40     49    118     1   107.9700462 569.024000
     43     46     88     1   107.9700462 569.024000
     46     88     79     1   112.4800480 524.673600
     49    118    109     1   112.4800480 524.673600
     52    148    139     1   112.4800480 524.673600
     55    178    169     1   112.4800480 524.673600
     60     61     73     1   114.2100488 537.225600
     60     64     76     1   114.2100488 537.225600
     60     67     70     1   114.2100488 537.225600
     61     60     64     1   109.6600471 523.836800
     61     60     67     1   109.6600471 523.836800
     61     73     85     1   111.5100476 526.347200
     64     60     67     1   109.6600471 523.836800
     64     76     82     1   111.5100476 526.347200
     67     70     79     1   111.5100476 526.347200
     70     79     88     1   107.9700462 569.024000
     73     85    238     1   107.9700462 569.024000
     76     82    208     1   107.9700462 569.024000
     82    208    199     1   112.4800480 524.673600
     85    238    229     1   112.4800480 524.673600
     90     91    103     1   114.2100488 537.225600
     90     94    106     1   114.2100488 537.225600
     90     97    100     1   114.2100488 537.225600
     91     90     94     1   109.6600471 523.836800
     91     90     97     1   109.6600471 523.836800
     91    103    115     1   111.5100476 526.347200
     94     90     97     1   109.6600471 523.836800
     94    106    112     1   111.5100476 526.347200
     97    100    109     1   111.5100476 526.347200
    100    109    118     1   107.9700462 569.024000
    103    115    298     1   107.9700462 569.024000
    106    112    268     1   107.9700462 569.024000
    112    268    259     1   112.4800480 524.673600
    115    298    289     1   112.4800480 524.673600
    120    121    133     1   114.2100488 537.225600
    120    124    136     1   114.2100488 537.225600
    120    127    130     1   114.2100488 537.225600
    121    120    124     1   109.6600471 523.836800
    121    120    127     1   109.6600471 523.836800
    121    133    145     1   111.5100476 526.347200
    124    120    127     1   109.6600471 523.836800
    124    136    142     1   111.5100476 526.347200
    127    130    139     1   111.5100476 526.347200
    130    139    148     1   107.9700462 569.024000
    133    145    358     1   107.9700462 569.024000
    136    142    328     1   107.9700462 569.024000
    142    328    319     1   112.4800480 524.673600
    145    358    349     1   112.4800480 524.673600
    150    151    163     1   114.2100488 537.225600
    150    154    166     1   114.2100488 537.225600
    150    157    160     1   114.2100488 537.225600
    151    150    154     1   109.6600471 523.836800
    151    150    157     1   109.6600471 523.836800
    151    163    175     1   111.5100476 526.347200
    154    150    157     1   109.6600471 523.836800
    154    166    172     1   111.5100476 526.347200
    157    160    169     1   111.5100476 526.347200
    160    169    178     1   107.9700462 569.024000
    163    175    418     1   107.9700462 569.024000
    166    172    388     1   107.9700462 569.024000
    172    388    379     1   112.4800480 524.673600
    175    418    409     1   112.4800480 524.673600
    180    181    193     1   114.2100488 537.225600
    180    184    196     1   114.2100488 537.225600
    180    187    190     1   114.2100488 537.225600
    181    180    184     1   109.6600471 523.836800
    181    180    187     1   109.6600471 523.836800
    181    193    205     1   111.5100476 526.347200
    184    180    187     1   109.6600471 523.836800
    184    196    202     1   111.5100476 526.347200
    187    190    199     1   111.5100476 526.347200
    190    199    208     1   107.9700462 569.024000
    193    205    478     1   107.9700462 569.024000
    196    202    448     1   107.9700462 569.024000
    202    448    439     1   112.4800480 524.673600
    205    478    469     1   112.4800480 524.673600
    210    211    223     1   114.2100488 537.225600
    210    214    226     1   114.2100488 537.225600
    210    217    220     1   114.2100488 537.225600
    211    210    214     1   109.6600471 523.836800
    211    210    217     1   109.6600471 523.836800
    211    223    235     1   111.5100476 526.347200
    214    210    217     1   109.6600471 523.836800
    214    226    232     1   111.5100476 526.347200
    217    220    229     1   111.5100476 526.347200
    220    229    238     1   107.9700462 569.024000
    223    235    538     1   107.9700462 569.024000
    226    232    508     1   107.9700462 569.024000
    232    508    499     1   112.4800480 524.673600
    235    538    529     1   112.4800480 524.673600
    240    241    253     1   114.2100488 537.225600
    240    244    256     1   114.2100488 537.225600
    240    247    250     1   114.2100488 537.225600
    241    240    244     1   109.6600471 523.836800
    241    240    247     1   109.6600471 523.836800
    241    253    265     1   111.5100476 526.347200
    244    240    247     1   109.6600471 523.836800
    244    256    262     1   111.5100476 526.347200
    247    250    259     1   111.5100476 526.347200
    250    259    268     1   107.9700462 569.024000
    253    265    598     1   107.9700462 569.024000
    256    262    568     1   107.9700462 569.024000
    262    568    559     1   112.4800480 524.673600
    265    598    589     1   112.4800480 524.673600
    270    271    283     1   114.2100488 537.225600
    270    274    286     1   114.2100488 537.225600
    270    277    280     1   114.2100488 537.225600
    271    270    274     1   109.6600471 523.836800
    271    270    277     1   109.6600471 523.836800
    271    283    295     1   111.5100476 526.347200
    274    270    277     1   109.6600471 523.836800
    274    286    292     1   111.5100476 526.347200
    277    280    289     1   111.5100476 526.347200
    280    289    298     1   107.9700462 569.024000
    283    295    658     1   107.9700462 569.024000
    286    292    628     1   107.9700462 569.024000
    292    628    619     1   112.4800480 524.673600
    295    658    649     1   112.4800480 524.673600
    300    301    313     1   114.2100488 537.225600
    300    304    316     1   114.2100488 537.225600
    300    307    310     1   114.2100488 537.225600
    301    300    304     1   109.6600471 523.836800
    301    300    307     1   109.6600471 523.836800
    301    313    325     1   111.5100476 526.347200
    304    300    307     1   109.6600471 523.836800
    304    316    322     1   111.5100476 526.347200
    307    310    319     1   111.5100476 526.347200
    310    319    328     1   107.9700462 569.024000
    313    325    718     1   107.9700462 569.024000
    316    322    688     1   107.9700462 569.024000
    322    688    679     1   112.4800480 524.673600
    325    718    709     1   112.4800480 524.673600
    330    331    343     1   114.2100488 537.225600
    330    334    346     1   114.2100488 537.225600
    330    337    340     1   114.2100488 537.225600
    331    330    334     1   109.6600471 523.836800
    331    330    337     1   109.6600471 523.836800
    331    343    355     1   111.5100476 526.347200
    334    330    337     1   109.6600471 523.836800
    334    346    352     1   111.5100476 526.347200
    337    340    349     1   111.5100476 526.347200
    340    349    358     1   107.9700462 569.024000
    343    355    778     1   107.9700462 569.024000
    346    352    748     1   107.9700462 569.024000
    352    748    739     1   112.4800480 524.673600
    355    778    769     1   112.4800480 524.673600
    360    361    373     1   114.2100488 537.225600
    360    364    376     1   114.2100488 537.225600
    360    367    370     1   114.2100488 537.225600
    361    360    364     1   109.6600471 523.836800
    361    360    367     1   109.6600471 523.836800
    361    373    385     1   111.5100476 526.347200
    364    360    367     1   109.6600471 523.836800
    364    376    382     1   111.5100476 526.347200
    367    370    379     1   111.5100476 526.347200
    370    379    388     1   107.9700462 569.024000
    373    385    838     1   107.9700462 569.024000
    376    382    808     1   107.9700462 569.024000
    382    808    799     1   112.4800480 524.673600
    385    838    829     1   112.4800480 524.673600
    390    391    403     1   114.2100488 537.225600
    390    394    406     1   114.2100488 537.225600
    390    397    400     1   114.2100488 537.225600
    391    390    394     1   109.6600471 523.836800
    391    390    397     1   109.6600471 523.836800
    391    403    415     1   111.5100476 526.347200
    394    390    397     1   109.6600471 523.836800
    394    406    412     1   111.5100476 526.347200
    397    400    409     1   111.5100476 526.347200
    400    409    418     1   107.9700462 569.024000
    403    415    898     1   107.9700462 569.024000
    406    412    868     1   107.9700462 569.024000
    412    868    859     1   112.4800480 524.673600
    415    898    889     1   112.4800480 524.673600
    420    421    433     1   114.2100488 537.225600
    420    424    436     1   114.2100488 537.225600
    420    427    430     1   114.2100488 537.225600
    421    420    424     1   109.6600471 523.836800
    421    420    427     1   109.6600471 523.836800
    421    433    445     1   111.5100476 526.347200
    424    420    427     1   109.6600471 523.836800
    424    436    442     1   111.5100476 526.347200
    427    430    439     1   111.5100476 526.347200
    430    439    448     1   107.9700462 569.024000
    433    445    958     1   107.9700462 569.024000
    436    442    928     1   107.9700462 569.024000
    442    928    919     1   112.4800480 524.673600
    445    958    949     1   112.4800480 524.673600
    450    451    463     1   114.2100488 537.225600
    450    454    466     1   114.2100488 537.225600
    450    457    460     1   114.2100488 537.225600
    451    450    454     1   109.6600471 523.836800
    451    450    457     1   109.6600471 523.836800
    451    463    475     1   111.5100476 526.347200
    454    450    457     1   109.6600471 523.836800
    454    466    472     1   111.5100476 526.347200
    457    460    469     1   111.5100476 526.347200
    460    469    478     1   107.9700462 569.024000
    463    475   1018     1   107.9700462 569.024000
    466    472    988     1   107.9700462 569.024000
    472    988    979     1   112.4800480 524.673600
    475   1018   1009     1   112.4800480 524.673600
    480    481    493     1   114.2100488 537.225600
    480    484    496     1   114.2100488 537.225600
    480    487    490     1   114.2100488 537.225600
    481    480    484     1   109.6600471 523.836800
    481    480    487     1   109.6600471 523.836800
    481    493    505     1   111.5100476 526.347200
    484    480    487     1   109.6600471 523.836800
    484    496    502     1   111.5100476 526.347200
    487    490    499     1   111.5100476 526.347200
    490    499    508     1   107.9700462 569.024000
    493    505   1078     1   107.9700462 569.024000
    496    502   1048     1   107.9700462 569.024000
    502   1048   1039     1   112.4800480 524.673600
    505   1078   1069     1   112.4800480 524.673600
    510    511    523     1   114.2100488 537.225600
    510    514    526     1   114.2100488 537.225600
    510    517    520     1   114.2100488 537.225600
    511    510    514     1   109.6600471 523.836800
    511    510    517     1   109.6600471 523.836800
    511    523    535     1   111.5100476 526.347200
    514    510    517     1   109.6600471 523.836800
    514    526    532     1   111.5100476 526.347200
    517    520    529     1   111.5100476 526.347200
    520    529    538     1   107.9700462 569.024000
    523    535   1138     1   107.9700462 569.024000
    526    532   1108     1   107.9700462 569.024000
    532   1108   1099     1   112.4800480 524.673600
    535   1138   1129     1   112.4800480 524.673600
    540    541    553     1   114.2100488 537.225600
    540    544    556     1   114.2100488 537.225600
    540    547    550     1   114.2100488 537.225600
    541    540    544     1   109.6600471 523.836800
    541    540    547     1   109.6600471 523.836800
    541    553    565     1   111.5100476 526.347200
    544    540    547     1   109.6600471 523.836800
    544    556    562     1   111.5100476 526.347200
    547    550    559     1   111.5100476 526.347200
    550    559    568     1   107.9700462 569.024000
    553    565   1198     1   107.9700462 569.024000
    556    562   1168     1   107.9700462 569.024000
    562   1168   1159     1   112.4800480 524.673600
    565   1198   1189     1   112.4800480 524.673600
    570    571    583     1   114.2100488 537.225600
    570    574    586     1   114.2100488 537.225600
    570    577    580     1   114.2100488 537.225600
    571    570    574     1   109.6600471 523.836800
    571    570    577     1   109.6600471 523.836800
    571    583    595     1   111.5100476 526.347200
    574    570    577     1   109.6600471 523.836800
    574    586    592     1   111.5100476 526.347200
    577    580    589     1   111.5100476 526.347200
    580    589    598     1   107.9700462 569.024000
    583    595   1258     1   107.9700462 569.024000
    586    592   1228     1   107.9700462 569.024000
    592   1228   1219     1   112.4800480 524.673600
    595   1258   1249     1   112.4800480 524.673600
    600    601    613     1   114.2100488 537.225600
    600    604    616     1   114.2100488 537.225600
    600    607    610     1   114.2100488 537.225600
    601    600    604     1   109.6600471 523.836800
    601    600    607     1   109.6600471 523.836800
    601    613    625     1   111.5100476 526.347200
    604    600    607     1   109.6600471 523.836800
    604    616    622     1   111.5100476 526.347200
    607    610    619     1   111.5100476 526.347200
    610    619    628     1   107.9700462 569.024000
    613    625   1318     1   107.9700462 569.024000
    616    622   1288     1   107.9700462 569.024000
    622   1288   1279     1   112.4800480 524.673600
    625   1318   1309     1   112.4800480 524.673600
    630    631    643     1   114.2100488 537.225600
    630    634    646     1   114.2100488 537.225600
    630    637    640     1   114.2100488 537.225600
    631    630    634     1   109.6600471 523.836800
    631    630    637     1   109.6600471 523.836800
    631    643    655     1   111.5100476 526.347200
    634    630    637     1   109.6600471 523.836800
    634    646    652     1   111.5100476 526.347200
    637    640    649     1   111.5100476 526.347200
    640    649    658     1   107.9700462 569.024000
    643    655   1378     1   107.9700462 569.024000
    646    652   1348     1   107.9700462 569.024000
    652   1348   1339     1   112.4800480 524.673600
    655   1378   1369     1   112.4800480 524.673600
    660    661    673     1   114.2100488 537.225600
    660    664    676     1   114.2100488 537.225600
    660    667    670     1   114.2100488 537.225600
    661    660    664     1   109.6600471 523.836800
    661    660    667     1   109.6600471 523.836800
    661    673    685     1   111.5100476 526.347200
    664    660    667     1   109.6600471 523.836800
    664    676    682     1   111.5100476 526.347200
    667    670    679     1   111.5100476 526.347200
    670    679    688     1   107.9700462 569.024000
    673    685   1438     1   107.9700462 569.024000
    676    682   1408     1   107.9700462 569.024000
    682   1408   1399     1   112.4800480 524.673600
    685   1438   1429     1   112.4800480 524.673600
    690    691    703     1   114.2100488 537.225600
    690    694    706     1   114.2100488 537.225600
    690    697    700     1   114.2100488 537.225600
    691    690    694     1   109.6600471 523.836800
    691    690    697     1   109.6600471 523.836800
    691    703    715     1   111.5100476 526.347200
    694    690    697     1   109.6600471 523.836800
    694    706    712     1   111.5100476 526.347200
    697    700    709     1   111.5100476 526.347200
    700    709    718     1   107.9700462 569.024000
    703    715   1498     1   107.9700462 569.024000
    706    712   1468     1   107.9700462 569.024000
    712   1468   1459     1   112.4800480 524.673600
    715   1498   1489     1   112.4800480 524.673600
    720    721    733     1   114.2100488 537.225600
    720    724    736     1   114.2100488 537.225600
    720    727    730     1   114.2100488 537.225600
    721    720    724     1   109.6600471 523.836800
    721    720    727     1   109.6600471 523.836800
    721    733    745     1   111.5100476 526.347200
    724    720    727     1   109.6600471 523.836800
    724    736    742     1   111.5100476 526.347200
    727    730    739     1   111.5100476 526.347200
    730    739    748     1   107.9700462 569.024000
    733    745   1558     1   107.9700462 569.024000
    736    742   1528     1   107.9700462 569.024000
    742   1528   1519     1   112.4800480 524.673600
    745   1558   1549     1   112.4800480 524.673600
    750    751    763     1   114.2100488 537.225600
    750    754    766     1   114.2100488 537.225600
    750    757    760     1   114.2100488 537.225600
    751    750    754     1   109.6600471 523.836800
    751    750    757     1   109.6600471 523.836800
    751    763    775     1   111.5100476 526.347200
    754    750    757     1   109.6600471 523.836800
    754    766    772     1   111.5100476 526.347200
    757    760    769     1   111.5100476 526.347200
    760    769    778     1   107.9700462 569.024000
    763    775   1618     1   107.9700462 569.024000
    766    772   1588     1   107.9700462 569.024000
    772   1588   1579     1   112.4800480 524.673600
    775   1618   1609     1   112.4800480 524.673600
    780    781    793     1   114.2100488 537.225600
    780    784    796     1   114.2100488 537.225600
    780    787    790     1   114.2100488 537.225600
    781    780    784     1   109.6600471 523.836800
    781    780    787     1   109.6600471 523.836800
    781    793    805     1   111.5100476 526.347200
    784    780    787     1   109.6600471 523.836800
    784    796    802     1   111.5100476 526.347200
    787    790    799     1   111.5100476 526.347200
    790    799    808     1   107.9700462 569.024000
    793    805   1678     1   107.9700462 569.024000
    796    802   1648     1   107.9700462 569.024000
    802   1648   1639     1   112.4800480 524.673600
    805   1678   1669     1   112.4800480 524.673600
    810    811    823     1   114.2100488 537.225600
    810    814    826     1   114.2100488 537.225600
    810    817    820     1   114.2100488 537.225600
    811    810    814     1   109.6600471 523.836800
    811    810    817     1   109.6600471 523.836800
    811    823    835     1   111.5100476 526.347200
    814    810    817     1   109.6600471 523.836800
    814    826    832     1   111.5100476 526.347200
    817    820    829     1   111.5100476 526.347200
    820    829    838     1   107.9700462 569.024000
    823    835   1738     1   107.9700462 569.024000
    826    832   1708     1   107.9700462 569.024000
    832   1708   1699     1   112.4800480 524.673600
    835   1738   1729     1   112.4800480 524.673600
    840    841    853     1   114.2100488 537.225600
    840    844    856     1   114.2100488 537.225600
    840    847    850     1   114.2100488 537.225600
    841    840    844     1   109.6600471 523.836800
    841    840    847     1   109.6600471 523.836800
    841    853    865     1   111.5100476 526.347200
    844    840    847     1   109.6600471 523.836800
    844    856    862     1   111.5100476 526.347200
    847    850    859     1   111.5100476 526.347200
    850    859    868     1   107.9700462 569.024000
    853    865   1798     1   107.9700462 569.024000
    856    862   1768     1   107.9700462 569.024000
    862   1768   1759     1   112.4800480 524.673600
    865   1798   1789     1   112.4800480 524.673600
    870    871    883     1   114.2100488 537.225600
    870    874    886     1   114.2100488 537.225600
    870    877    880     1   114.2100488 537.225600
    871    870    874     1   109.6600471 523.836800
    871    870    877     1   109.6600471 523.836800
    871    883    895     1   111.5100476 526.347200
    874    870    877     1   109.6600471 523.836800
    874    886    892     1   111.5100476 526.347200
    877    880    889     1   111.5100476 526.347200
    880    889    898     1   107.9700462 569.024000
    883    895   1858     1   107.9700462 569.024000
    886    892   1828     1   107.9700462 569.024000
    892   1828   1819     1   112.4800480 524.673600
    895   1858   1849     1   112.4800480 524.673600
    900    901    913     1   114.2100488 537.225600
    900    904    916     1   114.2100488 537.225600
    900    907    910     1   114.2100488 537.225600
    901    900    904     1   109.6600471 523.836800
    901    900    907     1   109.6600471 523.836800
    901    913    925     1   111.5100476 526.347200
    904    900    907     1   109.6600471 523.836800
    904    916    922     1   111.5100476 526.347200
    907    910    919     1   111.5100476 526.347200
    910    919    928     1   107.9700462 569.024000
    913    925   1893     1   107.9700462 569.024000
    916    922   1870     1   107.9700462 569.024000
    922   1870   1866     1   112.4800480 524.673600
    925   1893   1889     1   112.4800480 524.673600
    930    931    943     1   114.2100488 537.225600
    930    934    946     1   114.2100488 537.225600
    930    937    940     1   114.2100488 537.225600
    931    930    934     1   109.6600471 523.836800
    931    930    937     1   109.6600471 523.836800
    931    943    955     1   111.5100476 526.347200
    934    930    937     1   109.6600471 523.836800
    934    946    952     1   111.5100476 526.347200
    937    940    949     1   111.5100476 526.347200
    940    949    958     1   107.9700462 569.024000
    943    955   1939     1   107.9700462 569.024000
    946    952   1916     1   107.9700462 569.024000
    952   1916   1912     1   112.4800480 524.673600
    955   1939   1935     1   112.4800480 524.673600
    960    961    973     1   114.2100488 537.225600
    960    964    976     1   114.2100488 537.225600
    960    967    970     1   114.2100488 537.225600
    961    960    964     1   109.6600471 523.836800
    961    960    967     1   109.6600471 523.836800
    961    973    985     1   111.5100476 526.347200
    964    960    967     1   109.6600471 523.836800
    964    976    982     1   111.5100476 526.347200
    967    970    979     1   111.5100476 526.347200
    970    979    988     1   107.9700462 569.024000
    973    985   1985     1   107.9700462 569.024000
    976    982   1962     1   107.9700462 569.024000
    982   1962   1958     1   112.4800480 524.673600
    985   1985   1981     1   112.4800480 524.673600
    990    991   1003     1   114.2100488 537.225600
    990    994   1006     1   114.2100488 537.225600
    990    997   1000     1   114.2100488 537.225600
    991    990    994     1   109.6600471 523.836800
    991    990    997     1   109.6600471 523.836800
    991   1003   1015     1   111.5100476 526.347200
    994    990    997     1   109.6600471 523.836800
    994   1006   1012     1   111.5100476 526.347200
    997   1000   1009     1   111.5100476 526.347200
   1000   1009   1018     1   107.9700462 569.024000
   1003   1015   2031     1   107.9700462 569.024000
   1006   1012   2008     1   107.9700462 569.024000
   1012   2008   2004     1   112.4800480 524.673600
   1015   2031   2027     1   112.4800480 524.673600
   1020   1021   1033     1   114.2100488 537.225600
   1020   1024   1036     1   114.2100488 537.225600
   1020   1027   1030     1   114.2100488 537.225600
   1021   1020   1024     1   109.6600471 523.836800
   1021   1020   1027     1   109.6600471 523.836800
   1021   1033   1045     1   111.5100476 526.347200
   1024   1020   1027     1   109.6600471 523.836800
   1024   1036   1042     1   111.5100476 526.347200
   1027   1030   1039     1   111.5100476 526.347200
   1030   1039   1048     1   107.9700462 569.024000
   1033   1045   2077     1   107.9700462 569.024000
   1036   1042   2054     1   107.9700462 569.024000
   1042   2054   2050     1   112.4800480 524.673600
   1045   2077   2073     1   112.4800480 524.673600
   1050   1051   1063     1   114.2100488 537.225600
   1050   1054   1066     1   114.2100488 537.225600
   1050   1057   1060     1   114.2100488 537.225600
   1051   1050   1054     1   109.6600471 523.836800
   1051   1050   1057     1   109.6600471 523.836800
   1051   1063   1075     1   111.5100476 526.347200
   1054   1050   1057     1   109.6600471 523.836800
   1054   1066   1072     1   111.5100476 526.347200
   1057   1060   1069     1   111.5100476 526.347200
   1060   1069   1078     1   107.9700462 569.024000
   1063   1075   2123     1   107.9700462 569.024000
   1066   1072   2100     1   107.9700462 569.024000
   1072   2100   2096     1   112.4800480 524.673600
   1075   2123   2119     1   112.4800480 524.673600
   1080   1081   1093     1   114.2100488 537.225600
   1080   1084   1096     1   114.2100488 537.225600
   1080   1087   1090     1   114.2100488 537.225600
   1081   1080   1084     1   109.6600471 523.836800
   1081   1080   1087     1   109.6600471 523.836800
   1081   1093   1105     1   111.5100476 526.347200
   1084   1080   1087     1   109.6600471 523.836800
   1084   1096   1102     1   111.5100476 526.347200
   1087   1090   1099     1   111.5100476 526.347200
   1090   1099   1108     1   107.9700462 569.024000
   1093   1105   2169     1   107.9700462 569.024000
   1096   1102   2146     1   107.9700462 569.024000
   1102   2146   2142     1   112.4800480 524.673600
   1105   2169   2165     1   112.4800480 524.673600
   1110   1111   1123     1   114.2100488 537.225600
   1110   1114   1126     1   114.2100488 537.225600
   1110   1117   1120     1   114.2100488 537.225600
   1111   1110   1114     1   109.6600471 523.836800
   1111   1110   1117     1   109.6600471 523.836800
   1111   1123   1135     1   111.5100476 526.347200
   1114   1110   1117     1   109.6600471 523.836800
   1114   1126   1132     1   111.5100476 526.347200
   1117   1120   1129     1   111.5100476 526.347200
   1120   1129   1138     1   107.9700462 569.024000
   1123   1135   2215     1   107.9700462 569.024000
   1126   1132   2192     1   107.9700462 569.024000
   1132   2192   2188     1   112.4800480 524.673600
   1135   2215   2211     1   112.4800480 524.673600
   1140   1141   1153     1   114.2100488 537.225600
   1140   1144   1156     1   114.2100488 537.225600
   1140   1147   1150     1   114.2100488 537.225600
   1141   1140   1144     1   109.6600471 523.836800
   1141   1140   1147     1   109.6600471 523.836800
   1141   1153   1165     1   111.5100476 526.347200
   1144   1140   1147     1   109.6600471 523.836800
   1144   1156   1162     1   111.5100476 526.347200
   1147   1150   1159     1   111.5100476 526.347200
   1150   1159   1168     1   107.9700462 569.024000
   1153   1165   2261     1   107.9700462 569.024000
   1156   1162   2238     1   107.9700462 569.024000
   1162   2238   2234     1   112.4800480 524.673600
   1165   2261   2257     1   112.4800480 524.673600
   1170   1171   1183     1   114.2100488 537.225600
   1170   1174   1186     1   114.2100488 537.225600
   1170   1177   1180     1   114.2100488 537.225600
   1171   1170   1174     1   109.6600471 523.836800
   1171   1170   1177     1   109.6600471 523.836800
   1171   1183   1195     1   111.5100476 526.347200
   1174   1170   1177     1   109.6600471 523.836800
   1174   1186   1192     1   111.5100476 526.347200
   1177   1180   1189     1   111.5100476 526.347200
   1180   1189   1198     1   107.9700462 569.024000
   1183   1195   2307     1   107.9700462 569.024000
   1186   1192   2284     1   107.9700462 569.024000
   1192   2284   2280     1   112.4800480 524.673600
   1195   2307   2303     1   112.4800480 524.673600
   1200   1201   1213     1   114.2100488 537.225600
   1200   1204   1216     1   114.2100488 537.225600
   1200   1207   1210     1   114.2100488 537.225600
   1201   1200   1204     1   109.6600471 523.836800
   1201   1200   1207     1   109.6600471 523.836800
   1201   1213   1225     1   111.5100476 526.347200
   1204   1200   1207     1   109.6600471 523.836800
   1204   1216   1222     1   111.5100476 526.347200
   1207   1210   1219     1   111.5100476 526.347200
   1210   1219   1228     1   107.9700462 569.024000
   1213   1225   2353     1   107.9700462 569.024000
   1216   1222   2330     1   107.9700462 569.024000
   1222   2330   2326     1   112.4800480 524.673600
   1225   2353   2349     1   112.4800480 524.673600
   1230   1231   1243     1   114.2100488 537.225600
   1230   1234   1246     1   114.2100488 537.225600
   1230   1237   1240     1   114.2100488 537.225600
   1231   1230   1234     1   109.6600471 523.836800
   1231   1230   1237     1   109.6600471 523.836800
   1231   1243   1255     1   111.5100476 526.347200
   1234   1230   1237     1   109.6600471 523.836800
   1234   1246   1252     1   111.5100476 526.347200
   1237   1240   1249     1   111.5100476 526.347200
   1240   1249   1258     1   107.9700462 569.024000
   1243   1255   2399     1   107.9700462 569.024000
   1246   1252   2376     1   107.9700462 569.024000
   1252   2376   2372     1   112.4800480 524.673600
   1255   2399   2395     1   112.4800480 524.673600
   1260   1261   1273     1   114.2100488 537.225600
   1260   1264   1276     1   114.2100488 537.225600
   1260   1267   1270     1   114.2100488 537.225600
   1261   1260   1264     1   109.6600471 523.836800
   1261   1260   1267     1   109.6600471 523.836800
   1261   1273   1285     1   111.5100476 526.347200
   1264   1260   1267     1   109.6600471 523.836800
   1264   1276   1282     1   111.5100476 526.347200
   1267   1270   1279     1   111.5100476 526.347200
   1270   1279   1288     1   107.9700462 569.024000
   1273   1285   2445     1   107.9700462 569.024000
   1276   1282   2422     1   107.9700462 569.024000
   1282   2422   2418     1   112.4800480 524.673600
   1285   2445   2441     1   112.4800480 524.673600
   1290   1291   1303     1   114.2100488 537.225600
   1290   1294   1306     1   114.2100488 537.225600
   1290   1297   1300     1   114.2100488 537.225600
   1291   1290   1294     1   109.6600471 523.836800
   1291   1290   1297     1   109.6600471 523.836800
   1291   1303   1315     1   111.5100476 526.347200
   1294   1290   1297     1   109.6600471 523.836800
   1294   1306   1312     1   111.5100476 526.347200
   1297   1300   1309     1   111.5100476 526.347200
   1300   1309   1318     1   107.9700462 569.024000
   1303   1315   2491     1   107.9700462 569.024000
   1306   1312   2468     1   107.9700462 569.024000
   1312   2468   2464     1   112.4800480 524.673600
   1315   2491   2487     1   112.4800480 524.673600
   1320   1321   1333     1   114.2100488 537.225600
   1320   1324   1336     1   114.2100488 537.225600
   1320   1327   1330     1   114.2100488 537.225600
   1321   1320   1324     1   109.6600471 523.836800
   1321   1320   1327     1   109.6600471 523.836800
   1321   1333   1345     1   111.5100476 526.347200
   1324   1320   1327     1   109.6600471 523.836800
   1324   1336   1342     1   111.5100476 526.347200
   1327   1330   1339     1   111.5100476 526.347200
   1330   1339   1348     1   107.9700462 569.024000
   1333   1345   2537     1   107.9700462 569.024000
   1336   1342   2514     1   107.9700462 569.024000
   1342   2514   2510     1   112.4800480 524.673600
   1345   2537   2533     1   112.4800480 524.673600
   1350   1351   1363     1   114.2100488 537.225600
   1350   1354   1366     1   114.2100488 537.225600
   1350   1357   1360     1   114.2100488 537.225600
   1351   1350   1354     1   109.6600471 523.836800
   1351   1350   1357     1   109.6600471 523.836800
   1351   1363   1375     1   111.5100476 526.347200
   1354   1350   1357     1   109.6600471 523.836800
   1354   1366   1372     1   111.5100476 526.347200
   1357   1360   1369     1   111.5100476 526.347200
   1360   1369   1378     1   107.9700462 569.024000
   1363   1375   2583     1   107.9700462 569.024000
   1366   1372   2560     1   107.9700462 569.024000
   1372   2560   2556     1   112.4800480 524.673600
   1375   2583   2579     1   112.4800480 524.673600
   1380   1381   1393     1   114.2100488 537.225600
   1380   1384   1396     1   114.2100488 537.225600
   1380   1387   1390     1   114.2100488 537.225600
   1381   1380   1384     1   109.6600471 523.836800
   1381   1380   1387     1   109.6600471 523.836800
   1381   1393   1405     1   111.5100476 526.347200
   1384   1380   1387     1   109.6600471 523.836800
   1384   1396   1402     1   111.5100476 526.347200
   1387   1390   1399     1   111.5100476 526.347200
   1390   1399   1408     1   107.9700462 569.024000
   1393   1405   2629     1   107.9700462 569.024000
   1396   1402   2606     1   107.9700462 569.024000
   1402   2606   2602     1   112.4800480 524.673600
   1405   2629   2625     1   112.4800480 524.673600
   1410   1411   1423     1   114.2100488 537.225600
   1410   1414   1426     1   114.2100488 537.225600
   1410   1417   1420     1   114.2100488 537.225600
   1411   1410   1414     1   109.6600471 523.836800
   1411   1410   1417     1   109.6600471 523.836800
   1411   1423   1435     1   111.5100476 526.347200
   1414   1410   1417     1   109.6600471 523.836800
   1414   1426   1432     1   111.5100476 526.347200
   1417   1420   1429     1   111.5100476 526.347200
   1420   1429   1438     1   107.9700462 569.024000
   1423   1435   2675     1   107.9700462 569.024000
   1426   1432   2652     1   107.9700462 569.024000
   1432   2652   2648     1   112.4800480 524.673600
   1435   2675   2671     1   112.4800480 524.673600
   1440   1441   1453     1   114.2100488 537.225600
   1440   1444   1456     1   114.2100488 537.225600
   1440   1447   1450     1   114.2100488 537.225600
   1441   1440   1444     1   109.6600471 523.836800
   1441   1440   1447     1   109.6600471 523.836800
   1441   1453   1465     1   111.5100476 526.347200
   1444   1440   1447     1   109.6600471 523.836800
   1444   1456   1462     1   111.5100476 526.347200
   1447   1450   1459     1   111.5100476 526.347200
   1450   1459   1468     1   107.9700462 569.024000
   1453   1465   2721     1   107.9700462 569.024000
   1456   1462   2698     1   107.9700462 569.024000
   1462   2698   2694     1   112.4800480 524.673600
   1465   2721   2717     1   112.4800480 524.673600
   1470   1471   1483     1   114.2100488 537.225600
   1470   1474   1486     1   114.2100488 537.225600
   1470   1477   1480     1   114.2100488 537.225600
   1471   1470   1474     1   109.6600471 523.836800
   1471   1470   1477     1   109.6600471 523.836800
   1471   1483   1495     1   111.5100476 526.347200
   1474   1470   1477     1   109.6600471 523.836800
   1474   1486   1492     1   111.5100476 526.347200
   1477   1480   1489     1   111.5100476 526.347200
   1480   1489   1498     1   107.9700462 569.024000
   1483   1495   2767     1   107.9700462 569.024000
   1486   1492   2744     1   107.9700462 569.024000
   1492   2744   2740     1   112.4800480 524.673600
   1495   2767   2763     1   112.4800480 524.673600
   1500   1501   1513     1   114.2100488 537.225600
   1500   1504   1516     1   114.2100488 537.225600
   1500   1507   1510     1   114.2100488 537.225600
   1501   1500   1504     1   109.6600471 523.836800
   1501   1500   1507     1   109.6600471 523.836800
   1501   1513   1525     1   111.5100476 526.347200
   1504   1500   1507     1   109.6600471 523.836800
   1504   1516   1522     1   111.5100476 526.347200
   1507   1510   1519     1   111.5100476 526.347200
   1510   1519   1528     1   107.9700462 569.024000
   1513   1525   2813     1   107.9700462 569.024000
   1516   1522   2790     1   107.9700462 569.024000
   1522   2790   2786     1   112.4800480 524.673600
   1525   2813   2809     1   112.4800480 524.673600
   1530   1531   1543     1   114.2100488 537.225600
   1530   1534   1546     1   114.2100488 537.225600
   1530   1537   1540     1   114.2100488 537.225600
   1531   1530   1534     1   109.6600471 523.836800
   1531   1530   1537     1   109.6600471 523.836800
   1531   1543   1555     1   111.5100476 526.347200
   1534   1530   1537     1   109.6600471 523.836800
   1534   1546   1552     1   111.5100476 526.347200
   1537   1540   1549     1   111.5100476 526.347200
   1540   1549   1558     1   107.9700462 569.024000
   1543   1555   2859     1   107.9700462 569.024000
   1546   1552   2836     1   107.9700462 569.024000
   1552   2836   2832     1   112.4800480 524.673600
   1555   2859   2855     1   112.4800480 524.673600
   1560   1561   1573     1   114.2100488 537.225600
   1560   1564   1576     1   114.2100488 537.225600
   1560   1567   1570     1   114.2100488 537.225600
   1561   1560   1564     1   109.6600471 523.836800
   1561   1560   1567     1   109.6600471 523.836800
   1561   1573   1585     1   111.5100476 526.347200
   1564   1560   1567     1   109.6600471 523.836800
   1564   1576   1582     1   111.5100476 526.347200
   1567   1570   1579     1   111.5100476 526.347200
   1570   1579   1588     1   107.9700462 569.024000
   1573   1585   2905     1   107.9700462 569.024000
   1576   1582   2882     1   107.9700462 569.024000
   1582   2882   2878     1   112.4800480 524.673600
   1585   2905   2901     1   112.4800480 524.673600
   1590   1591   1603     1   114.2100488 537.225600
   1590   1594   1606     1   114.2100488 537.225600
   1590   1597   1600     1   114.2100488 537.225600
   1591   1590   1594     1   109.6600471 523.836800
   1591   1590   1597     1   109.6600471 523.836800
   1591   1603   1615     1   111.5100476 526.347200
   1594   1590   1597     1   109.6600471 523.836800
   1594   1606   1612     1   111.5100476 526.347200
   1597   1600   1609     1   111.5100476 526.347200
   1600   1609   1618     1   107.9700462 569.024000
   1603   1615   2951     1   107.9700462 569.024000
   1606   1612   2928     1   107.9700462 569.024000
   1612   2928   2924     1   112.4800480 524.673600
   1615   2951   2947     1   112.4800480 524.673600
   1620   1621   1633     1   114.2100488 537.225600
   1620   1624   1636     1   114.2100488 537.225600
   1620   1627   1630     1   114.2100488 537.225600
   1621   1620   1624     1   109.6600471 523.836800
   1621   1620   1627     1   109.6600471 523.836800
   1621   1633   1645     1   111.5100476 526.347200
   1624   1620   1627     1   109.6600471 523.836800
   1624   1636   1642     1   111.5100476 526.347200
   1627   1630   1639     1   111.5100476 526.347200
   1630   1639   1648     1   107.9700462 569.024000
   1633   1645   2997     1   107.9700462 569.024000
   1636   1642   2974     1   107.9700462 569.024000
   1642   2974   2970     1   112.4800480 524.673600
   1645   2997   2993     1   112.4800480 524.673600
   1650   1651   1663     1   114.2100488 537.225600
   1650   1654   1666     1   114.2100488 537.225600
   1650   1657   1660     1   114.2100488 537.225600
   1651   1650   1654     1   109.6600471 523.836800
   1651   1650   1657     1   109.6600471 523.836800
   1651   1663   1675     1   111.5100476 526.347200
   1654   1650   1657     1   109.6600471 523.836800
   1654   1666   1672     1   111.5100476 526.347200
   1657   1660   1669     1   111.5100476 526.347200
   1660   1669   1678     1   107.9700462 569.024000
   1663   1675   3043     1   107.9700462 569.024000
   1666   1672   3020     1   107.9700462 569.024000
   1672   3020   3016     1   112.4800480 524.673600
   1675   3043   3039     1   112.4800480 524.673600
   1680   1681   1693     1   114.2100488 537.225600
   1680   1684   1696     1   114.2100488 537.225600
   1680   1687   1690     1   114.2100488 537.225600
   1681   1680   1684     1   109.6600471 523.836800
   1681   1680   1687     1   109.6600471 523.836800
   1681   1693   1705     1   111.5100476 526.347200
   1684   1680   1687     1   109.6600471 523.836800
   1684   1696   1702     1   111.5100476 526.347200
   1687   1690   1699     1   111.5100476 526.347200
   1690   1699   1708     1   107.9700462 569.024000
   1693   1705   3089     1   107.9700462 569.024000
   1696   1702   3066     1   107.9700462 569.024000
   1702   3066   3062     1   112.4800480 524.673600
   1705   3089   3085     1   112.4800480 524.673600
   1710   1711   1723     1   114.2100488 537.225600
   1710   1714   1726     1   114.2100488 537.225600
   1710   1717   1720     1   114.2100488 537.225600
   1711   1710   1714     1   109.6600471 523.836800
   1711   1710   1717     1   109.6600471 523.836800
   1711   1723   1735     1   111.5100476 526.347200
   1714   1710   1717     1   109.6600471 523.836800
   1714   1726   1732     1   111.5100476 526.347200
   1717   1720   1729     1   111.5100476 526.347200
   1720   1729   1738     1   107.9700462 569.024000
   1723   1735   3135     1   107.9700462 569.024000
   1726   1732   3112     1   107.9700462 569.024000
   1732   3112   3108     1   112.4800480 524.673600
   1735   3135   3131     1   112.4800480 524.673600
   1740   1741   1753     1   114.2100488 537.225600
   1740   1744   1756     1   114.2100488 537.225600
   1740   1747   1750     1   114.2100488 537.225600
   1741   1740   1744     1   109.6600471 523.836800
   1741   1740   1747     1   109.6600471 523.836800
   1741   1753   1765     1   111.5100476 526.347200
   1744   1740   1747     1   109.6600471 523.836800
   1744   1756   1762     1   111.5100476 526.347200
   1747   1750   1759     1   111.5100476 526.347200
   1750   1759   1768     1   107.9700462 569.024000
   1753   1765   3181     1   107.9700462 569.024000
   1756   1762   3158     1   107.9700462 569.024000
   1762   3158   3154     1   112.4800480 524.673600
   1765   3181   3177     1   112.4800480 524.673600
   1770   1771   1783     1   114.2100488 537.225600
   1770   1774   1786     1   114.2100488 537.225600
   1770   1777   1780     1   114.2100488 537.225600
   1771   1770   1774     1   109.6600471 523.836800
   1771   1770   1777     1   109.6600471 523.836800
   1771   1783   1795     1   111.5100476 526.347200
   1774   1770   1777     1   109.6600471 523.836800
   1774   1786   1792     1   111.5100476 526.347200
   1777   1780   1789     1   111.5100476 526.347200
   1780   1789   1798     1   107.9700462 569.024000
   1783   1795   3227     1   107.9700462 569.024000
   1786   1792   3204     1   107.9700462 569.024000
   1792   3204   3200     1   112.4800480 524.673600
   1795   3227   3223     1   112.4800480 524.673600
   1800   1801   1813     1   114.2100488 537.225600
   1800   1804   1816     1   114.2100488 537.225600
   1800   1807   1810     1   114.2100488 537.225600
   1801   1800   1804     1   109.6600471 523.836800
   1801   1800   1807     1   109.6600471 523.836800
   1801   1813   1825     1   111.5100476 526.347200
   1804   1800   1807     1   109.6600471 523.836800
   1804   1816   1822     1   111.5100476 526.347200
   1807   1810   1819     1   111.5100476 526.347200
   1810   1819   1828     1   107.9700462 569.024000
   1813   1825   3273     1   107.9700462 569.024000
   1816   1822   3250     1   107.9700462 569.024000
   1822   3250   3246     1   112.4800480 524.673600
   1825   3273   3269     1   112.4800480 524.673600
   1830   1831   1843     1   114.2100488 537.225600
   1830   1834   1846     1   114.2100488 537.225600
   1830   1837   1840     1   114.2100488 537.225600
   1831   1830   1834     1   109.6600471 523.836800
   1831   1830   1837     1   109.6600471 523.836800
   1831   1843   1855     1   111.5100476 526.347200
   1834   1830   1837     1   109.6600471 523.836800
   1834   1846   1852     1   111.5100476 526.347200
   1837   1840   1849     1   111.5100476 526.347200
   1840   1849   1858     1   107.9700462 569.024000
   1843   1855   3319     1   107.9700462 569.024000
   1846   1852   3296     1   107.9700462 569.024000
   1852   3296   3292     1   112.4800480 524.673600
   1855   3319   3315     1   112.4800480 524.673600
   1860   1861   1864     1   111.5100476 526.347200
   1860   1861   1873     1   110.1900474 564.840000
   1860   1874   1880     1   110.1900474 564.840000
   1860   1882   1866     1   112.4800480 524.673600
   1861   1860   1874     1   111.5100476 526.347200
   1861   1860   1882     1   107.9700462 569.024000
   1861   1864   1865     1   111.5100476 526.347200
   1861   1864   1872     1   110.1900474 564.840000
   1864   1861   1873     1   110.1900474 564.840000
   1864   1865   1866     1   111.5100476 526.347200
   1864   1865   1871     1   110.1900474 564.840000
   1865   1864   1872     1   110.1900474 564.840000
   1865   1866   1870     1   107.9700462 569.024000
   1865   1866   1882     1   107.9700462 569.024000
   1866   1865   1871     1   110.1900474 564.840000
   1870   1866   1882     1   108.2900466 608.353600
   1874   1860   1882     1   107.9700462 569.024000
   1883   1884   1887     1   111.5100476 526.347200
   1883   1884   1896     1   110.1900474 564.840000
   1883   1897   1903     1   110.1900474 564.840000
   1883   1905   1889     1   112.4800480 524.673600
   1884   1887   1888     1   111.5100476 526.347200
   1884   1887   1895     1   110.1900474 564.840000
   1884   1883   1897     1   111.5100476 526.347200
   1884   1883   1905     1   107.9700462 569.024000
   1887   1888   1889     1   111.5100476 526.347200
   1887   1888   1894     1   110.1900474 564.840000
   1887   1884   1896     1   110.1900474 564.840000
   1888   1889   1893     1   107.9700462 569.024000
   1888   1889   1905     1   107.9700462 569.024000
   1888   1887   1895     1   110.1900474 564.840000
   1889   1888   1894     1   110.1900474 564.840000
   1893   1889   1905     1   108.2900466 608.353600
   1897   1883   1905     1   107.9700462 569.024000
   1906   1907   1910     1   111.5100476 526.347200
   1906   1907   1919     1   110.1900474 564.840000
   1906   1920   1926     1   110.1900474 564.840000
   1906   1928   1912     1   112.4800480 524.673600
   1907   1906   1920     1   111.5100476 526.347200
   1907   1906   1928     1   107.9700462 569.024000
   1907   1910   1911     1   111.5100476 526.347200
   1907   1910   1918     1   110.1900474 564.840000
   1910   1907   1919     1   110.1900474 564.840000
   1910   1911   1912     1   111.5100476 526.347200
   1910   1911   1917     1   110.1900474 564.840000
   1911   1910   1918     1   110.1900474 564.840000
   1911   1912   1916     1   107.9700462 569.024000
   1911   1912   1928     1   107.9700462 569.024000
   1912   1911   1917     1   110.1900474 564.840000
   1916   1912   1928     1   108.2900466 608.353600
   1920   1906   1928     1   107.9700462 569.024000
   1929   1930   1933     1   111.5100476 526.347200
   1929   1930   1942     1   110.1900474 564.840000
   1929   1943   1949     1   110.1900474 564.840000
   1929   1951   1935     1   112.4800480 524.673600
   1930   1933   1934     1   111.5100476 526.347200
   1930   1933   1941     1   110.1900474 564.840000
   1930   1929   1943     1   111.5100476 526.347200
   1930   1929   1951     1   107.9700462 569.024000
   1933   1934   1935     1   111.5100476 526.347200
   1933   1934   1940     1   110.1900474 564.840000
   1933   1930   1942     1   110.1900474 564.840000
   1934   1935   1939     1   107.9700462 569.024000
   1934   1935   1951     1   107.9700462 569.024000
   1934   1933   1941     1   110.1900474 564.840000
   1935   1934   1940     1   110.1900474 564.840000
   1939   1935   1951     1   108.2900466 608.353600
   1943   1929   1951     1   107.9700462 569.024000
   1952   1953   1956     1   111.5100476 526.347200
   1952   1953   1965     1   110.1900474 564.840000
   1952   1966   1972     1   110.1900474 564.840000
   1952   1974   1958     1   112.4800480 524.673600
   1953   1952   1966     1   111.5100476 526.347200
   1953   1952   1974     1   107.9700462 569.024000
   1953   1956   1957     1   111.5100476 526.347200
   1953   1956   1964     1   110.1900474 564.840000
   1956   1953   1965     1   110.1900474 564.840000
   1956   1957   1958     1   111.5100476 526.347200
   1956   1957   1963     1   110.1900474 564.840000
   1957   1956   1964     1   110.1900474 564.840000
   1957   1958   1962     1   107.9700462 569.024000
   1957   1958   1974     1   107.9700462 569.024000
   1958   1957   1963     1   110.1900474 564.840000
   1962   1958   1974     1   108.2900466 608.353600
   1966   1952   1974     1   107.9700462 569.024000
   1975   1976   1979     1   111.5100476 526.347200
   1975   1976   1988     1   110.1900474 564.840000
   1975   1989   1995     1   110.1900474 564.840000
   1975   1997   1981     1   112.4800480 524.673600
   1976   1979   1980     1   111.5100476 526.347200
   1976   1979   1987     1   110.1900474 564.840000
   1976   1975   1989     1   111.5100476 526.347200
   1976   1975   1997     1   107.9700462 569.024000
   1979   1980   1981     1   111.5100476 526.347200
   1979   1980   1986     1   110.1900474 564.840000
   1979   1976   1988     1   110.1900474 564.840000
   1980   1981   1985     1   107.9700462 569.024000
   1980   1981   1997     1   107.9700462 569.024000
   1980   1979   1987     1   110.1900474 564.840000
   1981   1980   1986     1   110.1900474 564.840000
   1985   1981   1997     1   108.2900466 608.353600
   1989   1975   1997     1   107.9700462 569.024000
   1998   1999   2002     1   111.5100476 526.347200
   1998   1999   2011     1   110.1900474 564.840000
   1998   2012   2018     1   110.1900474 564.840000
   1998   2020   2004     1   112.4800480 524.673600
   1999   1998   2012     1   111.5100476 526.347200
   1999   1998   2020     1   107.9700462 569.024000
   1999   2002   2003     1   111.5100476 526.347200
   1999   2002   2010     1   110.1900474 564.840000
   2002   1999   2011     1   110.1900474 564.840000
   2002   2003   2004     1   111.5100476 526.347200
   2002   2003   2009     1   110.1900474 564.840000
   2003   2002   2010     1   110.1900474 564.840000
   2003   2004   2008     1   107.9700462 569.024000
   2003   2004   2020     1   107.9700462 569.024000
   2004   2003   2009     1   110.1900474 564.840000
   2008   2004   2020     1   108.2900466 608.353600
   2012   1998   2020     1   107.9700462 569.024000
   2021   2022   2025     1   111.5100476 526.347200
   2021   2022   2034     1   110.1900474 564.840000
   2021   2035   2041     1   110.1900474 564.840000
   2021   2043   2027     1   112.4800480 524.673600
   2022   2025   2026     1   111.5100476 526.347200
   2022   2025   2033     1   110.1900474 564.840000
   2022   2021   2035     1   111.5100476 526.347200
   2022   2021   2043     1   107.9700462 569.024000
   2025   2026   2027     1   111.5100476 526.347200
   2025   2026   2032     1   110.1900474 564.840000
   2025   2022   2034     1   110.1900474 564.840000
   2026   2027   2031     1   107.9700462 569.024000
   2026   2027   2043     1   107.9700462 569.024000
   2026   2025   2033     1   110.1900474 564.840000
   2027   2026   2032     1   110.1900474 564.840000
   2031   2027   2043     1   108.2900466 608.353600
   2035   2021   2043     1   107.9700462 569.024000
   2044   2045   2048     1   111.5100476 526.347200
   2044   2045   2057     1   110.1900474 564.840000
   2044   2058   2064     1   110.1900474 564.840000
   2044   2066   2050     1   112.4800480 524.673600
   2045   2044   2058     1   111.5100476 526.347200
   2045   2044   2066     1   107.9700462 569.024000
   2045   2048   2049     1   111.5100476 526.347200
   2045   2048   2056     1   110.1900474 564.840000
   2048   2045   2057     1   110.1900474 564.840000
   2048   2049   2050     1   111.5100476 526.347200
   2048   2049   2055     1   110.1900474 564.840000
   2049   2048   2056     1   110.1900474 564.840000
   2049   2050   2054     1   107.9700462 569.024000
   2049   2050   2066     1   107.9700462 569.024000
   2050   2049   2055     1   110.1900474 564.840000
   2054   2050   2066     1   108.2900466 608.353600
   2058   2044   2066     1   107.9700462 569.024000
   2067   2068   2071     1   111.5100476 526.347200
   2067   2068   2080     1   110.1900474 564.840000
   2067   2081   2087     1   110.1900474 564.840000
   2067   2089   2073     1   112.4800480 524.673600
   2068   2071   2072     1   111.5100476 526.347200
   2068   2071   2079     1   110.1900474 564.840000
   2068   2067   2081     1   111.5100476 526.347200
   2068   2067   2089     1   107.9700462 569.024000
   2071   2072   2073     1   111.5100476 526.347200
   2071   2072   2078     1   110.1900474 564.840000
   2071   2068   2080     1   110.1900474 564.840000
   2072   2073   2077     1   107.9700462 569.024000
   2072   2073   2089     1   107.9700462 569.024000
   2072   2071   2079     1   110.1900474 564.840000
   2073   2072   2078     1   110.1900474 564.840000
   2077   2073   2089     1   108.2900466 608.353600
   2081   2067   2089     1   107.9700462 569.024000
   2090   2091   2094     1   111.5100476 526.347200
   2090   2091   2103     1   110.1900474 564.840000
   2090   2104   2110     1   110.1900474 564.840000
   2090   2112   2096     1   112.4800480 524.673600
   2091   2090   2104     1   111.5100476 526.347200
   2091   2090   2112     1   107.9700462 569.024000
   2091   2094   2095     1   111.5100476 526.347200
   2091   2094   2102     1   110.1900474 564.840000
   2094   2091   2103     1   110.1900474 564.840000
   2094   2095   2096     1   111.5100476 526.347200
   2094   2095   2101     1   110.1900474 564.840000
   2095   2094   2102     1   110.1900474 564.840000
   2095   2096   2100     1   107.9700462 569.024000
   2095   2096   2112     1   107.9700462 569.024000
   2096   2095   2101     1   110.1900474 564.840000
   2100   2096   2112     1   108.2900466 608.353600
   2104   2090   2112     1   107.9700462 569.024000
   2113   2114   2117     1   111.5100476 526.347200
   2113   2114   2126     1   110.1900474 564.840000
   2113   2127   2133     1   110.1900474 564.840000
   2113   2135   2119     1   112.4800480 524.673600
   2114   2117   2118     1   111.5100476 526.347200
   2114   2117   2125     1   110.1900474 564.840000
   2114   2113   2127     1   111.5100476 526.347200
   2114   2113   2135     1   107.9700462 569.024000
   2117   2118   2119     1   111.5100476 526.347200
   2117   2118   2124     1   110.1900474 564.840000
   2117   2114   2126     1   110.1900474 564.840000
   2118   2119   2123     1   107.9700462 569.024000
   2118   2119   2135     1   107.9700462 569.024000
   2118   2117   2125     1   110.1900474 564.840000
   2119   2118   2124     1   110.1900474 564.840000
   2123   2119   2135     1   108.2900466 608.353600
   2127   2113   2135     1   107.9700462 569.024000
   2136   2137   2140     1   111.5100476 526.347200
   2136   2137   2149     1   110.1900474 564.840000
   2136   2150   2156     1   110.1900474 564.840000
   2136   2158   2142     1   112.4800480 524.673600
   2137   2136   2150     1   111.5100476 526.347200
   2137   2136   2158     1   107.9700462 569.024000
   2137   2140   2141     1   111.5100476 526.347200
   2137   2140   2148     1   110.1900474 564.840000
   2140   2137   2149     1   110.1900474 564.840000
   2140   2141   2142     1   111.5100476 526.347200
   2140   2141   2147     1   110.1900474 564.840000
   2141   2140   2148     1   110.1900474 564.840000
   2141   2142   2146     1   107.9700462 569.024000
   2141   2142   2158     1   107.9700462 569.024000
   2142   2141   2147     1   110.1900474 564.840000
   2146   2142   2158     1   108.2900466 608.353600
   2150   2136   2158     1   107.9700462 569.024000
   2159   2160   2163     1   111.5100476 526.347200
   2159   2160   2172     1   110.1900474 564.840000
   2159   2173   2179     1   110.1900474 564.840000
   2159   2181   2165     1   112.4800480 524.673600
   2160   2163   2164     1   111.5100476 526.347200
   2160   2163   2171     1   110.1900474 564.840000
   2160   2159   2173     1   111.5100476 526.347200
   2160   2159   2181     1   107.9700462 569.024000
   2163   2164   2165     1   111.5100476 526.347200
   2163   2164   2170     1   110.1900474 564.840000
   2163   2160   2172     1   110.1900474 564.840000
   2164   2165   2169     1   107.9700462 569.024000
   2164   2165   2181     1   107.9700462 569.024000
   2164   2163   2171     1   110.1900474 564.840000
   2165   2164   2170     1   110.1900474 564.840000
   2169   2165   2181     1   108.2900466 608.353600
   2173   2159   2181     1   107.9700462 569.024000
   2182   2183   2186     1   111.5100476 526.347200
   2182   2183   2195     1   110.1900474 564.840000
   2182   2196   2202     1   110.1900474 564.840000
   2182   2204   2188     1   112.4800480 524.673600
   2183   2182   2196     1   111.5100476 526.347200
   2183   2182   2204     1   107.9700462 569.024000
   2183   2186   2187     1   111.5100476 526.347200
   2183   2186   2194     1   110.1900474 564.840000
   2186   2183   2195     1   110.1900474 564.840000
   2186   2187   2188     1   111.5100476 526.347200
   2186   2187   2193     1   110.1900474 564.840000
   2187   2186   2194     1   110.1900474 564.840000
   2187   2188   2192     1   107.9700462 569.024000
   2187   2188   2204     1   107.9700462 569.024000
   2188   2187   2193     1   110.1900474 564.840000
   2192   2188   2204     1   108.2900466 608.353600
   2196   2182   2204     1   107.9700462 569.024000
   2205   2206   2209     1   111.5100476 526.347200
   2205   2206   2218     1   110.1900474 564.840000
   2205   2219   2225     1   110.1900474 564.840000
   2205   2227   2211     1   112.4800480 524.673600
   2206   2209   2210     1   111.5100476 526.347200
   2206   2209   2217     1   110.1900474 564.840000
   2206   2205   2219     1   111.5100476 526.347200
   2206   2205   2227     1   107.9700462 569.024000
   2209   2210   2211     1   111.5100476 526.347200
   2209   2210   2216     1   110.1900474 564.840000
   2209   2206   2218     1   110.1900474 564.840000
   2210   2211   2215     1   107.9700462 569.024000
   2210   2211   2227     1   107.9700462 569.024000
   2210   2209   2217     1   110.1900474 564.840000
   2211   2210   2216     1   110.1900474 564.840000
   2215   2211   2227     1   108.2900466 608.353600
   2219   2205   2227     1   107.9700462 569.024000
   2228   2229   2232     1   111.5100476 526.347200
   2228   2229   2241     1   110.1900474 564.840000
   2228   2242   2248     1   110.1900474 564.840000
   2228   2250   2234     1   112.4800480 524.673600
   2229   2228   2242     1   111.5100476 526.347200
   2229   2228   2250     1   107.9700462 569.024000
   2229   2232   2233     1   111.5100476 526.347200
   2229   2232   2240     1   110.1900474 564.840000
   2232   2229   2241     1   110.1900474 564.840000
   2232   2233   2234     1   111.5100476 526.347200
   2232   2233   2239     1   110.1900474 564.840000
   2233   2232   2240     1   110.1900474 564.840000
   2233   2234   2238     1   107.9700462 569.024000
   2233   2234   2250     1   107.9700462 569.024000
   2234   2233   2239     1   110.1900474 564.840000
   2238   2234   2250     1   108.2900466 608.353600
   2242   2228   2250     1   107.9700462 569.024000
   2251   2252   2255     1   111.5100476 526.347200
   2251   2252   2264     1   110.1900474 564.840000
   2251   2265   2271     1   110.1900474 564.840000
   2251   2273   2257     1   112.4800480 524.673600
   2252   2255   2256     1   111.5100476 526.347200
   2252   2255   2263     1   110.1900474 564.840000
   2252   2251   2265     1   111.5100476 526.347200
   2252   2251   2273     1   107.9700462 569.024000
   2255   2256   2257     1   111.5100476 526.347200
   2255   2256   2262     1   110.1900474 564.840000
   2255   2252   2264     1   110.1900474 564.840000
   2256   2257   2261     1   107.9700462 569.024000
   2256   2257   2273     1   107.9700462 569.024000
   2256   2255   2263     1   110.1900474 564.840000
   2257   2256   2262     1   110.1900474 564.840000
   2261   2257   2273     1   108.2900466 608.353600
   2265   2251   2273     1   107.9700462 569.024000
   2274   2275   2278     1   111.5100476 526.347200
   2274   2275   2287     1   110.1900474 564.840000
   2274   2288   2294     1   110.1900474 564.840000
   2274   2296   2280     1   112.4800480 524.673600
   2275   2274   2288     1   111.5100476 526.347200
   2275   2274   2296     1   107.9700462 569.024000
   2275   2278   2279     1   111.5100476 526.347200
   2275   2278   2286     1   110.1900474 564.840000
   2278   2275   2287     1   110.1900474 564.840000
   2278   2279   2280     1   111.5100476 526.347200
   2278   2279   2285     1   110.1900474 564.840000
   2279   2278   2286     1   110.1900474 564.840000
   2279   2280   2284     1   107.9700462 569.024000
   2279   2280   2296     1   107.9700462 569.024000
   2280   2279   2285     1   110.1900474 564.840000
   2284   2280   2296     1   108.2900466 608.353600
   2288   2274   2296     1   107.9700462 569.024000
   2297   2298   2301     1   111.5100476 526.347200
   2297   2298   2310     1   110.1900474 564.840000
   2297   2311   2317     1   110.1900474 564.840000
   2297   2319   2303     1   112.4800480 524.673600
   2298   2301   2302     1   111.5100476 526.347200
   2298   2301   2309     1   110.1900474 564.840000
   2298   2297   2311     1   111.5100476 526.347200
   2298   2297   2319     1   107.9700462 569.024000
   2301   2302   2303     1   111.5100476 526.347200
   2301   2302   2308     1   110.1900474 564.840000
   2301   2298   2310     1   110.1900474 564.840000
   2302   2303   2307     1   107.9700462 569.024000
   2302   2303   2319     1   107.9700462 569.024000
   2302   2301   2309     1   110.1900474 564.840000
   2303   2302   2308     1   110.1900474 564.840000
   2307   2303   2319     1   108.2900466 608.353600
   2311   2297   2319     1   107.9700462 569.024000
   2320   2321   2324     1   111.5100476 526.347200
   2320   2321   2333     1   110.1900474 564.840000
   2320   2334   2340     1   110.1900474 564.840000
   2320   2342   2326     1   112.4800480 524.673600
   2321   2320   2334     1   111.5100476 526.347200
   2321   2320   2342     1   107.9700462 569.024000
   2321   2324   2325     1   111.5100476 526.347200
   2321   2324   2332     1   110.1900474 564.840000
   2324   2321   2333     1   110.1900474 564.840000
   2324   2325   2326     1   111.5100476 526.347200
   2324   2325   2331     1   110.1900474 564.840000
   2325   2324   2332     1   110.1900474 564.840000
   2325   2326   2330     1   107.9700462 569.024000
   2325   2326   2342     1   107.9700462 569.024000
   2326   2325   2331     1   110.1900474 564.840000
   2330   2326   2342     1   108.2900466 608.353600
   2334   2320   2342     1   107.9700462 569.024000
   2343   2344   2347     1   111.5100476 526.347200
   2343   2344   2356     1   110.1900474 564.840000
   2343   2357   2363     1   110.1900474 564.840000
   2343   2365   2349     1   112.4800480 524.673600
   2344   2347   2348     1   111.5100476 526.347200
   2344   2347   2355     1   110.1900474 564.840000
   2344   2343   2357     1   111.5100476 526.347200
   2344   2343   2365     1   107.9700462 569.024000
   2347   2348   2349     1   111.5100476 526.347200
   2347   2348   2354     1   110.1900474 564.840000
   2347   2344   2356     1   110.1900474 564.840000
   2348   2349   2353     1   107.9700462 569.024000
   2348   2349   2365     1   107.9700462 569.024000
   2348   2347   2355     1   110.1900474 564.840000
   2349   2348   2354     1   110.1900474 564.840000
   2353   2349   2365     1   108.2900466 608.353600
   2357   2343   2365     1   107.9700462 569.024000
   2366   2367   2370     1   111.5100476 526.347200
   2366   2367   2379     1   110.1900474 564.840000
   2366   2380   2386     1   110.1900474 564.840000
   2366   2388   2372     1   112.4800480 524.673600
   2367   2366   2380     1   111.5100476 526.347200
   2367   2366   2388     1   107.9700462 569.024000
   2367   2370   2371     1   111.5100476 526.347200
   2367   2370   2378     1   110.1900474 564.840000
   2370   2367   2379     1   110.1900474 564.840000
   2370   2371   2372     1   111.5100476 526.347200
   2370   2371   2377     1   110.1900474 564.840000
   2371   2370   2378     1   110.1900474 564.840000
   2371   2372   2376     1   107.9700462 569.024000
   2371   2372   2388     1   107.9700462 569.024000
   2372   2371   2377     1   110.1900474 564.840000
   2376   2372   2388     1   108.2900466 608.353600
   2380   2366   2388     1   107.9700462 569.024000
   2389   2390   2393     1   111.5100476 526.347200
   2389   2390   2402     1   110.1900474 564.840000
   2389   2403   2409     1   110.1900474 564.840000
   2389   2411   2395     1   112.4800480 524.673600
   2390   2393   2394     1   111.5100476 526.347200
   2390   2393   2401     1   110.1900474 564.840000
   2390   2389   2403     1   111.5100476 526.347200
   2390   2389   2411     1   107.9700462 569.024000
   2393   2394   2395     1   111.5100476 526.347200
   2393   2394   2400     1   110.1900474 564.840000
   2393   2390   2402     1   110.1900474 564.840000
   2394   2395   2399     1   107.9700462 569.024000
   2394   2395   2411     1   107.9700462 569.024000
   2394   2393   2401     1   110.1900474 564.840000
   2395   2394   2400     1   110.1900474 564.840000
   2399   2395   2411     1   108.2900466 608.353600
   2403   2389   2411     1   107.9700462 569.024000
   2412   2413   2416     1   111.5100476 526.347200
   2412   2413   2425     1   110.1900474 564.840000
   2412   2426   2432     1   110.1900474 564.840000
   2412   2434   2418     1   112.4800480 524.673600
   2413   2412   2426     1   111.5100476 526.347200
   2413   2412   2434     1   107.9700462 569.024000
   2413   2416   2417     1   111.5100476 526.347200
   2413   2416   2424     1   110.1900474 564.840000
   2416   2413   2425     1   110.1900474 564.840000
   2416   2417   2418     1   111.5100476 526.347200
   2416   2417   2423     1   110.1900474 564.840000
   2417   2416   2424     1   110.1900474 564.840000
   2417   2418   2422     1   107.9700462 569.024000
   2417   2418   2434     1   107.9700462 569.024000
   2418   2417   2423     1   110.1900474 564.840000
   2422   2418   2434     1   108.2900466 608.353600
   2426   2412   2434     1   107.9700462 569.024000
   2435   2436   2439     1   111.5100476 526.347200
   2435   2436   2448     1   110.1900474 564.840000
   2435   2449   2455     1   110.1900474 564.840000
   2435   2457   2441     1   112.4800480 524.673600
   2436   2439   2440     1   111.5100476 526.347200
   2436   2439   2447     1   110.1900474 564.840000
   2436   2435   2449     1   111.5100476 526.347200
   2436   2435   2457     1   107.9700462 569.024000
   2439   2440   2441     1   111.5100476 526.347200
   2439   2440   2446     1   110.1900474 564.840000
   2439   2436   2448     1   110.1900474 564.840000
   2440   2441   2445     1   107.9700462 569.024000
   2440   2441   2457     1   107.9700462 569.024000
   2440   2439   2447     1   110.1900474 564.840000
   2441   2440   2446     1   110.1900474 564.840000
   2445   2441   2457     1   108.2900466 608.353600
   2449   2435   2457     1   107.9700462 569.024000
   2458   2459   2462     1   111.5100476 526.347200
   2458   2459   2471     1   110.1900474 564.840000
   2458   2472   2478     1   110.1900474 564.840000
   2458   2480   2464     1   112.4800480 524.673600
   2459   2458   2472     1   111.5100476 526.347200
   2459   2458   2480     1   107.9700462 569.024000
   2459   2462   2463     1   111.5100476 526.347200
   2459   2462   2470     1   110.1900474 564.840000
   2462   2459   2471     1   110.1900474 564.840000
   2462   2463   2464     1   111.5100476 526.347200
   2462   2463   2469     1   110.1900474 564.840000
   2463   2462   2470     1   110.1900474 564.840000
   2463   2464   2468     1   107.9700462 569.024000
   2463   2464   2480     1   107.9700462 569.024000
   2464   2463   2469     1   110.1900474 564.840000
   2468   2464   2480     1   108.2900466 608.353600
   2472   2458   2480     1   107.9700462 569.024000
   2481   2482   2485     1   111.5100476 526.347200
   2481   2482   2494     1   110.1900474 564.840000
   2481   2495   2501     1   110.1900474 564.840000
   2481   2503   2487     1   112.4800480 524.673600
   2482   2485   2486     1   111.5100476 526.347200
   2482   2485   2493     1   110.1900474 564.840000
   2482   2481   2495     1   111.5100476 526.347200
   2482   2481   2503     1   107.9700462 569.024000
   2485   2486   2487     1   111.5100476 526.347200
   2485   2486   2492     1   110.1900474 564.840000
   2485   2482   2494     1   110.1900474 564.840000
   2486   2487   2491     1   107.9700462 569.024000
   2486   2487   2503     1   107.9700462 569.024000
   2486   2485   2493     1   110.1900474 564.840000
   2487   2486   2492     1   110.1900474 564.840000
   2491   2487   2503     1   108.2900466 608.353600
   2495   2481   2503     1   107.9700462 569.024000
   2504   2505   2508     1   111.5100476 526.347200
   2504   2505   2517     1   110.1900474 564.840000
   2504   2518   2524     1   110.1900474 564.840000
   2504   2526   2510     1   112.4800480 524.673600
   2505   2504   2518     1   111.5100476 526.347200
   2505   2504   2526     1   107.9700462 569.024000
   2505   2508   2509     1   111.5100476 526.347200
   2505   2508   2516     1   110.1900474 564.840000
   2508   2505   2517     1   110.1900474 564.840000
   2508   2509   2510     1   111.5100476 526.347200
   2508   2509   2515     1   110.1900474 564.840000
   2509   2508   2516     1   110.1900474 564.840000
   2509   2510   2514     1   107.9700462 569.024000
   2509   2510   2526     1   107.9700462 569.024000
   2510   2509   2515     1   110.1900474 564.840000
   2514   2510   2526     1   108.2900466 608.353600
   2518   2504   2526     1   107.9700462 569.024000
   2527   2528   2531     1   111.5100476 526.347200
   2527   2528   2540     1   110.1900474 564.840000
   2527   2541   2547     1   110.1900474 564.840000
   2527   2549   2533     1   112.4800480 524.673600
   2528   2531   2532     1   111.5100476 526.347200
   2528   2531   2539     1   110.1900474 564.840000
   2528   2527   2541     1   111.5100476 526.347200
   2528   2527   2549     1   107.9700462 569.024000
   2531   2532   2533     1   111.5100476 526.347200
   2531   2532   2538     1   110.1900474 564.840000
   2531   2528   2540     1   110.1900474 564.840000
   2532   2533   2537     1   107.9700462 569.024000
   2532   2533   2549     1   107.9700462 569.024000
   2532   2531   2539     1   110.1900474 564.840000
   2533   2532   2538     1   110.1900474 564.840000
   2537   2533   2549     1   108.2900466 608.353600
   2541   2527   2549     1   107.9700462 569.024000
   2550   2551   2554     1   111.5100476 526.347200
   2550   2551   2563     1   110.1900474 564.840000
   2550   2564   2570     1   110.1900474 564.840000
   2550   2572   2556     1   112.4800480 524.673600
   2551   2550   2564     1   111.5100476 526.347200
   2551   2550   2572     1   107.9700462 569.024000
   2551   2554   2555     1   111.5100476 526.347200
   2551   2554   2562     1   110.1900474 564.840000
   2554   2551   2563     1   110.1900474 564.840000
   2554   2555   2556     1   111.5100476 526.347200
   2554   2555   2561     1   110.1900474 564.840000
   2555   2554   2562     1   110.1900474 564.840000
   2555   2556   2560     1   107.9700462 569.024000
   2555   2556   2572     1   107.9700462 569.024000
   2556   2555   2561     1   110.1900474 564.840000
   2560   2556   2572     1   108.2900466 608.353600
   2564   2550   2572     1   107.9700462 569.024000
   2573   2574   2577     1   111.5100476 526.347200
   2573   2574   2586     1   110.1900474 564.840000
   2573   2587   2593     1   110.1900474 564.840000
   2573   2595   2579     1   112.4800480 524.673600
   2574   2577   2578     1   111.5100476 526.347200
   2574   2577   2585     1   110.1900474 564.840000
   2574   2573   2587     1   111.5100476 526.347200
   2574   2573   2595     1   107.9700462 569.024000
   2577   2578   2579     1   111.5100476 526.347200
   2577   2578   2584     1   110.1900474 564.840000
   2577   2574   2586     1   110.1900474 564.840000
   2578   2579   2583     1   107.9700462 569.024000
   2578   2579   2595     1   107.9700462 569.024000
   2578   2577   2585     1   110.1900474 564.840000
   2579   2578   2584     1   110.1900474 564.840000
   2583   2579   2595     1   108.2900466 608.353600
   2587   2573   2595     1   107.9700462 569.024000
   2596   2597   2600     1   111.5100476 526.347200
   2596   2597   2609     1   110.1900474 564.840000
   2596   2610   2616     1   110.1900474 564.840000
   2596   2618   2602     1   112.4800480 524.673600
   2597   2596   2610     1   111.5100476 526.347200
   2597   2596   2618     1   107.9700462 569.024000
   2597   2600   2601     1   111.5100476 526.347200
   2597   2600   2608     1   110.1900474 564.840000
   2600   2597   2609     1   110.1900474 564.840000
   2600   2601   2602     1   111.5100476 526.347200
   2600   2601   2607     1   110.1900474 564.840000
   2601   2600   2608     1   110.1900474 564.840000
   2601   2602   2606     1   107.9700462 569.024000
   2601   2602   2618     1   107.9700462 569.024000
   2602   2601   2607     1   110.1900474 564.840000
   2606   2602   2618     1   108.2900466 608.353600
   2610   2596   2618     1   107.9700462 569.024000
   2619   2620   2623     1   111.5100476 526.347200
   2619   2620   2632     1   110.1900474 564.840000
   2619   2633   2639     1   110.1900474 564.840000
   2619   2641   2625     1   112.4800480 524.673600
   2620   2623   2624     1   111.5100476 526.347200
   2620   2623   2631     1   110.1900474 564.840000
   2620   2619   2633     1   111.5100476 526.347200
   2620   2619   2641     1   107.9700462 569.024000
   2623   2624   2625     1   111.5100476 526.347200
   2623   2624   2630     1   110.1900474 564.840000
   2623   2620   2632     1   110.1900474 564.840000
   2624   2625   2629     1   107.9700462 569.024000
   2624   2625   2641     1   107.9700462 569.024000
   2624   2623   2631     1   110.1900474 564.840000
   2625   2624   2630     1   110.1900474 564.840000
   2629   2625   2641     1   108.2900466 608.353600
   2633   2619   2641     1   107.9700462 569.024000
   2642   2643   2646     1   111.5100476 526.347200
   2642   2643   2655     1   110.1900474 564.840000
   2642   2656   2662     1   110.1900474 564.840000
   2642   2664   2648     1   112.4800480 524.673600
   2643   2642   2656     1   111.5100476 526.347200
   2643   2642   2664     1   107.9700462 569.024000
   2643   2646   2647     1   111.5100476 526.347200
   2643   2646   2654     1   110.1900474 564.840000
   2646   2643   2655     1   110.1900474 564.840000
   2646   2647   2648     1   111.5100476 526.347200
   2646   2647   2653     1   110.1900474 564.840000
   2647   2646   2654     1   110.1900474 564.840000
   2647   2648   2652     1   107.9700462 569.024000
   2647   2648   2664     1   107.9700462 569.024000
   2648   2647   2653     1   110.1900474 564.840000
   2652   2648   2664     1   108.2900466 608.353600
   2656   2642   2664     1   107.9700462 569.024000
   2665   2666   2669     1   111.5100476 526.347200
   2665   2666   2678     1   110.1900474 564.840000
   2665   2679   2685     1   110.1900474 564.840000
   2665   2687   2671     1   112.4800480 524.673600
   2666   2669   2670     1   111.5100476 526.347200
   2666   2669   2677     1   110.1900474 564.840000
   2666   2665   2679     1   111.5100476 526.347200
   2666   2665   2687     1   107.9700462 569.024000
   2669   2670   2671     1   111.5100476 526.347200
   2669   2670   2676     1   110.1900474 564.840000
   2669   2666   2678     1   110.1900474 564.840000
   2670   2671   2675     1   107.9700462 569.024000
   2670   2671   2687     1   107.9700462 569.024000
   2670   2669   2677     1   110.1900474 564.840000
   2671   2670   2676     1   110.1900474 564.840000
   2675   2671   2687     1   108.2900466 608.353600
   2679   2665   2687     1   107.9700462 569.024000
   2688   2689   2692     1   111.5100476 526.347200
   2688   2689   2701     1   110.1900474 564.840000
   2688   2702   2708     1   110.1900474 564.840000
   2688   2710   2694     1   112.4800480 524.673600
   2689   2688   2702     1   111.5100476 526.347200
   2689   2688   2710     1   107.9700462 569.024000
   2689   2692   2693     1   111.5100476 526.347200
   2689   2692   2700     1   110.1900474 564.840000
   2692   2689   2701     1   110.1900474 564.840000
   2692   2693   2694     1   111.5100476 526.347200
   2692   2693   2699     1   110.1900474 564.840000
   2693   2692   2700     1   110.1900474 564.840000
   2693   2694   2698     1   107.9700462 569.024000
   2693   2694   2710     1   107.9700462 569.024000
   2694   2693   2699     1   110.1900474 564.840000
   2698   2694   2710     1   108.2900466 608.353600
   2702   2688   2710     1   107.9700462 569.024000
   2711   2712   2715     1   111.5100476 526.347200
   2711   2712   2724     1   110.1900474 564.840000
   2711   2725   2731     1   110.1900474 564.840000
   2711   2733   2717     1   112.4800480 524.673600
   2712   2715   2716     1   111.5100476 526.347200
   2712   2715   2723     1   110.1900474 564.840000
   2712   2711   2725     1   111.5100476 526.347200
   2712   2711   2733     1   107.9700462 569.024000
   2715   2716   2717     1   111.5100476 526.347200
   2715   2716   2722     1   110.1900474 564.840000
   2715   2712   2724     1   110.1900474 564.840000
   2716   2717   2721     1   107.9700462 569.024000
   2716   2717   2733     1   107.9700462 569.024000
   2716   2715   2723     1   110.1900474 564.840000
   2717   2716   2722     1   110.1900474 564.840000
   2721   2717   2733     1   108.2900466 608.353600
   2725   2711   2733     1   107.9700462 569.024000
   2734   2735   2738     1   111.5100476 526.347200
   2734   2735   2747     1   110.1900474 564.840000
   2734   2748   2754     1   110.1900474 564.840000
   2734   2756   2740     1   112.4800480 524.673600
   2735   2734   2748     1   111.5100476 526.347200
   2735   2734   2756     1   107.9700462 569.024000
   2735   2738   2739     1   111.5100476 526.347200
   2735   2738   2746     1   110.1900474 564.840000
   2738   2735   2747     1   110.1900474 564.840000
   2738   2739   2740     1   111.5100476 526.347200
   2738   2739   2745     1   110.1900474 564.840000
   2739   2738   2746     1   110.1900474 564.840000
   2739   2740   2744     1   107.9700462 569.024000
   2739   2740   2756     1   107.9700462 569.024000
   2740   2739   2745     1   110.1900474 564.840000
   2744   2740   2756     1   108.2900466 608.353600
   2748   2734   2756     1   107.9700462 569.024000
   2757   2758   2761     1   111.5100476 526.347200
   2757   2758   2770     1   110.1900474 564.840000
   2757   2771   2777     1   110.1900474 564.840000
   2757   2779   2763     1   112.4800480 524.673600
   2758   2761   2762     1   111.5100476 526.347200
   2758   2761   2769     1   110.1900474 564.840000
   2758   2757   2771     1   111.5100476 526.347200
   2758   2757   2779     1   107.9700462 569.024000
   2761   2762   2763     1   111.5100476 526.347200
   2761   2762   2768     1   110.1900474 564.840000
   2761   2758   2770     1   110.1900474 564.840000
   2762   2763   2767     1   107.9700462 569.024000
   2762   2763   2779     1   107.9700462 569.024000
   2762   2761   2769     1   110.1900474 564.840000
   2763   2762   2768     1   110.1900474 564.840000
   2767   2763   2779     1   108.2900466 608.353600
   2771   2757   2779     1   107.9700462 569.024000
   2780   2781   2784     1   111.5100476 526.347200
   2780   2781   2793     1   110.1900474 564.840000
   2780   2794   2800     1   110.1900474 564.840000
   2780   2802   2786     1   112.4800480 524.673600
   2781   2780   2794     1   111.5100476 526.347200
   2781   2780   2802     1   107.9700462 569.024000
   2781   2784   2785     1   111.5100476 526.347200
   2781   2784   2792     1   110.1900474 564.840000
   2784   2781   2793     1   110.1900474 564.840000
   2784   2785   2786     1   111.5100476 526.347200
   2784   2785   2791     1   110.1900474 564.840000
   2785   2784   2792     1   110.1900474 564.840000
   2785   2786   2790     1   107.9700462 569.024000
   2785   2786   2802     1   107.9700462 569.024000
   2786   2785   2791     1   110.1900474 564.840000
   2790   2786   2802     1   108.2900466 608.353600
   2794   2780   2802     1   107.9700462 569.024000
   2803   2804   2807     1   111.5100476 526.347200
   2803   2804   2816     1   110.1900474 564.840000
   2803   2817   2823     1   110.1900474 564.840000
   2803   2825   2809     1   112.4800480 524.673600
   2804   2807   2808     1   111.5100476 526.347200
   2804   2807   2815     1   110.1900474 564.840000
   2804   2803   2817     1   111.5100476 526.347200
   2804   2803   2825     1   107.9700462 569.024000
   2807   2808   2809     1   111.5100476 526.347200
   2807   2808   2814     1   110.1900474 564.840000
   2807   2804   2816     1   110.1900474 564.840000
   2808   2809   2813     1   107.9700462 569.024000
   2808   2809   2825     1   107.9700462 569.024000
   2808   2807   2815     1   110.1900474 564.840000
   2809   2808   2814     1   110.1900474 564.840000
   2813   2809   2825     1   108.2900466 608.353600
   2817   2803   2825     1   107.9700462 569.024000
   2826   2827   2830     1   111.5100476 526.347200
   2826   2827   2839     1   110.1900474 564.840000
   2826   2840   2846     1   110.1900474 564.840000
   2826   2848   2832     1   112.4800480 524.673600
   2827   2826   2840     1   111.5100476 526.347200
   2827   2826   2848     1   107.9700462 569.024000
   2827   2830   2831     1   111.5100476 526.347200
   2827   2830   2838     1   110.1900474 564.840000
   2830   2827   2839     1   110.1900474 564.840000
   2830   2831   2832     1   111.5100476 526.347200
   2830   2831   2837     1   110.1900474 564.840000
   2831   2830   2838     1   110.1900474 564.840000
   2831   2832   2836     1   107.9700462 569.024000
   2831   2832   2848     1   107.9700462 569.024000
   2832   2831   2837     1   110.1900474 564.840000
   2836   2832   2848     1   108.2900466 608.353600
   2840   2826   2848     1   107.9700462 569.024000
   2849   2850   2853     1   111.5100476 526.347200
   2849   2850   2862     1   110.1900474 564.840000
   2849   2863   2869     1   110.1900474 564.840000
   2849   2871   2855     1   112.4800480 524.673600
   2850   2853   2854     1   111.5100476 526.347200
   2850   2853   2861     1   110.1900474 564.840000
   2850   2849   2863     1   111.5100476 526.347200
   2850   2849   2871     1   107.9700462 569.024000
   2853   2854   2855     1   111.5100476 526.347200
   2853   2854   2860     1   110.1900474 564.840000
   2853   2850   2862     1   110.1900474 564.840000
   2854   2855   2859     1   107.9700462 569.024000
   2854   2855   2871     1   107.9700462 569.024000
   2854   2853   2861     1   110.1900474 564.840000
   2855   2854   2860     1   110.1900474 564.840000
   2859   2855   2871     1   108.2900466 608.353600
   2863   2849   2871     1   107.9700462 569.024000
   2872   2873   2876     1   111.5100476 526.347200
   2872   2873   2885     1   110.1900474 564.840000
   2872   2886   2892     1   110.1900474 564.840000
   2872   2894   2878     1   112.4800480 524.673600
   2873   2872   2886     1   111.5100476 526.347200
   2873   2872   2894     1   107.9700462 569.024000
   2873   2876   2877     1   111.5100476 526.347200
   2873   2876   2884     1   110.1900474 564.840000
   2876   2873   2885     1   110.1900474 564.840000
   2876   2877   2878     1   111.5100476 526.347200
   2876   2877   2883     1   110.1900474 564.840000
   2877   2876   2884     1   110.1900474 564.840000
   2877   2878   2882     1   107.9700462 569.024000
   2877   2878   2894     1   107.9700462 569.024000
   2878   2877   2883     1   110.1900474 564.840000
   2882   2878   2894     1   108.2900466 608.353600
   2886   2872   2894     1   107.9700462 569.024000
   2895   2896   2899     1   111.5100476 526.347200
   2895   2896   2908     1   110.1900474 564.840000
   2895   2909   2915     1   110.1900474 564.840000
   2895   2917   2901     1   112.4800480 524.673600
   2896   2899   2900     1   111.5100476 526.347200
   2896   2899   2907     1   110.1900474 564.840000
   2896   2895   2909     1   111.5100476 526.347200
   2896   2895   2917     1   107.9700462 569.024000
   2899   2900   2901     1   111.5100476 526.347200
   2899   2900   2906     1   110.1900474 564.840000
   2899   2896   2908     1   110.1900474 564.840000
   2900   2901   2905     1   107.9700462 569.024000
   2900   2901   2917     1   107.9700462 569.024000
   2900   2899   2907     1   110.1900474 564.840000
   2901   2900   2906     1   110.1900474 564.840000
   2905   2901   2917     1   108.2900466 608.353600
   2909   2895   2917     1   107.9700462 569.024000
   2918   2919   2922     1   111.5100476 526.347200
   2918   2919   2931     1   110.1900474 564.840000
   2918   2932   2938     1   110.1900474 564.840000
   2918   2940   2924     1   112.4800480 524.673600
   2919   2918   2932     1   111.5100476 526.347200
   2919   2918   2940     1   107.9700462 569.024000
   2919   2922   2923     1   111.5100476 526.347200
   2919   2922   2930     1   110.1900474 564.840000
   2922   2919   2931     1   110.1900474 564.840000
   2922   2923   2924     1   111.5100476 526.347200
   2922   2923   2929     1   110.1900474 564.840000
   2923   2922   2930     1   110.1900474 564.840000
   2923   2924   2928     1   107.9700462 569.024000
   2923   2924   2940     1   107.9700462 569.024000
   2924   2923   2929     1   110.1900474 564.840000
   2928   2924   2940     1   108.2900466 608.353600
   2932   2918   2940     1   107.9700462 569.024000
   2941   2942   2945     1   111.5100476 526.347200
   2941   2942   2954     1   110.1900474 564.840000
   2941   2955   2961     1   110.1900474 564.840000
   2941   2963   2947     1   112.4800480 524.673600
   2942   2945   2946     1   111.5100476 526.347200
   2942   2945   2953     1   110.1900474 564.840000
   2942   2941   2955     1   111.5100476 526.347200
   2942   2941   2963     1   107.9700462 569.024000
   2945   2946   2947     1   111.5100476 526.347200
   2945   2946   2952     1   110.1900474 564.840000
   2945   2942   2954     1   110.1900474 564.840000
   2946   2947   2951     1   107.9700462 569.024000
   2946   2947   2963     1   107.9700462 569.024000
   2946   2945   2953     1   110.1900474 564.840000
   2947   2946   2952     1   110.1900474 564.840000
   2951   2947   2963     1   108.2900466 608.353600
   2955   2941   2963     1   107.9700462 569.024000
   2964   2965   2968     1   111.5100476 526.347200
   2964   2965   2977     1   110.1900474 564.840000
   2964   2978   2984     1   110.1900474 564.840000
   2964   2986   2970     1   112.4800480 524.673600
   2965   2964   2978     1   111.5100476 526.347200
   2965   2964   2986     1   107.9700462 569.024000
   2965   2968   2969     1   111.5100476 526.347200
   2965   2968   2976     1   110.1900474 564.840000
   2968   2965   2977     1   110.1900474 564.840000
   2968   2969   2970     1   111.5100476 526.347200
   2968   2969   2975     1   110.1900474 564.840000
   2969   2968   2976     1   110.1900474 564.840000
   2969   2970   2974     1   107.9700462 569.024000
   2969   2970   2986     1   107.9700462 569.024000
   2970   2969   2975     1   110.1900474 564.840000
   2974   2970   2986     1   108.2900466 608.353600
   2978   2964   2986     1   107.9700462 569.024000
   2987   2988   2991     1   111.5100476 526.347200
   2987   2988   3000     1   110.1900474 564.840000
   2987   3001   3007     1   110.1900474 564.840000
   2987   3009   2993     1   112.4800480 524.673600
   2988   2991   2992     1   111.5100476 526.347200
   2988   2991   2999     1   110.1900474 564.840000
   2988   2987   3001     1   111.5100476 526.347200
   2988   2987   3009     1   107.9700462 569.024000
   2991   2992   2993     1   111.5100476 526.347200
   2991   2992   2998     1   110.1900474 564.840000
   2991   2988   3000     1   110.1900474 564.840000
   2992   2993   2997     1   107.9700462 569.024000
   2992   2993   3009     1   107.9700462 569.024000
   2992   2991   2999     1   110.1900474 564.840000
   2993   2992   2998     1   110.1900474 564.840000
   2997   2993   3009     1   108.2900466 608.353600
   3001   2987   3009     1   107.9700462 569.024000
   3010   3011   3014     1   111.5100476 526.347200
   3010   3011   3023     1   110.1900474 564.840000
   3010   3024   3030     1   110.1900474 564.840000
   3010   3032   3016     1   112.4800480 524.673600
   3011   3010   3024     1   111.5100476 526.347200
   3011   3010   3032     1   107.9700462 569.024000
   3011   3014   3015     1   111.5100476 526.347200
   3011   3014   3022     1   110.1900474 564.840000
   3014   3011   3023     1   110.1900474 564.840000
   3014   3015   3016     1   111.5100476 526.347200
   3014   3015   3021     1   110.1900474 564.840000
   3015   3014   3022     1   110.1900474 564.840000
   3015   3016   3020     1   107.9700462 569.024000
   3015   3016   3032     1   107.9700462 569.024000
   3016   3015   3021     1   110.1900474 564.840000
   3020   3016   3032     1   108.2900466 608.353600
   3024   3010   3032     1   107.9700462 569.024000
   3033   3034   3037     1   111.5100476 526.347200
   3033   3034   3046     1   110.1900474 564.840000
   3033   3047   3053     1   110.1900474 564.840000
   3033   3055   3039     1   112.4800480 524.673600
   3034   3037   3038     1   111.5100476 526.347200
   3034   3037   3045     1   110.1900474 564.840000
   3034   3033   3047     1   111.5100476 526.347200
   3034   3033   3055     1   107.9700462 569.024000
   3037   3038   3039     1   111.5100476 526.347200
   3037   3038   3044     1   110.1900474 564.840000
   3037   3034   3046     1   110.1900474 564.840000
   3038   3039   3043     1   107.9700462 569.024000
   3038   3039   3055     1   107.9700462 569.024000
   3038   3037   3045     1   110.1900474 564.840000
   3039   3038   3044     1   110.1900474 564.840000
   3043   3039   3055     1   108.2900466 608.353600
   3047   3033   3055     1   107.9700462 569.024000
   3056   3057   3060     1   111.5100476 526.347200
   3056   3057   3069     1   110.1900474 564.840000
   3056   3070   3076     1   110.1900474 564.840000
   3056   3078   3062     1   112.4800480 524.673600
   3057   3056   3070     1   111.5100476 526.347200
   3057   3056   3078     1   107.9700462 569.024000
   3057   3060   3061     1   111.5100476 526.347200
   3057   3060   3068     1   110.1900474 564.840000
   3060   3057   3069     1   110.1900474 564.840000
   3060   3061   3062     1   111.5100476 526.347200
   3060   3061   3067     1   110.1900474 564.840000
   3061   3060   3068     1   110.1900474 564.840000
   3061   3062   3066     1   107.9700462 569.024000
   3061   3062   3078     1   107.9700462 569.024000
   3062   3061   3067     1   110.1900474 564.840000
   3066   3062   3078     1   108.2900466 608.353600
   3070   3056   3078     1   107.9700462 569.024000
   3079   3080   3083     1   111.5100476 526.347200
   3079   3080   3092     1   110.1900474 564.840000
   3079   3093   3099     1   110.1900474 564.840000
   3079   3101   3085     1   112.4800480 524.673600
   3080   3083   3084     1   111.5100476 526.347200
   3080   3083   3091     1   110.1900474 564.840000
   3080   3079   3093     1   111.5100476 526.347200
   3080   3079   3101     1   107.9700462 569.024000
   3083   3084   3085     1   111.5100476 526.347200
   3083   3084   3090     1   110.1900474 564.840000
   3083   3080   3092     1   110.1900474 564.840000
   3084   3085   3089     1   107.9700462 569.024000
   3084   3085   3101     1   107.9700462 569.024000
   3084   3083   3091     1   110.1900474 564.840000
   3085   3084   3090     1   110.1900474 564.840000
   3089   3085   3101     1   108.2900466 608.353600
   3093   3079   3101     1   107.9700462 569.024000
   3102   3103   3106     1   111.5100476 526.347200
   3102   3103   3115     1   110.1900474 564.840000
   3102   3116   3122     1   110.1900474 564.840000
   3102   3124   3108     1   112.4800480 524.673600
   3103   3102   3116     1   111.5100476 526.347200
   3103   3102   3124     1   107.9700462 569.024000
   3103   3106   3107     1   111.5100476 526.347200
   3103   3106   3114     1   110.1900474 564.840000
   3106   3103   3115     1   110.1900474 564.840000
   3106   3107   3108     1   111.5100476 526.347200
   3106   3107   3113     1   110.1900474 564.840000
   3107   3106   3114     1   110.1900474 564.840000
   3107   3108   3112     1   107.9700462 569.024000
   3107   3108   3124     1   107.9700462 569.024000
   3108   3107   3113     1   110.1900474 564.840000
   3112   3108   3124     1   108.2900466 608.353600
   3116   3102   3124     1   107.9700462 569.024000
   3125   3126   3129     1   111.5100476 526.347200
   3125   3126   3138     1   110.1900474 564.840000
   3125   3139   3145     1   110.1900474 564.840000
   3125   3147   3131     1   112.4800480 524.673600
   3126   3129   3130     1   111.5100476 526.347200
   3126   3129   3137     1   110.1900474 564.840000
   3126   3125   3139     1   111.5100476 526.347200
   3126   3125   3147     1   107.9700462 569.024000
   3129   3130   3131     1   111.5100476 526.347200
   3129   3130   3136     1   110.1900474 564.840000
   3129   3126   3138     1   110.1900474 564.840000
   3130   3131   3135     1   107.9700462 569.024000
   3130   3131   3147     1   107.9700462 569.024000
   3130   3129   3137     1   110.1900474 564.840000
   3131   3130   3136     1   110.1900474 564.840000
   3135   3131   3147     1   108.2900466 608.353600
   3139   3125   3147     1   107.9700462 569.024000
   3148   3149   3152     1   111.5100476 526.347200
   3148   3149   3161     1   110.1900474 564.840000
   3148   3162   3168     1   110.1900474 564.840000
   3148   3170   3154     1   112.4800480 524.673600
   3149   3148   3162     1   111.5100476 526.347200
   3149   3148   3170     1   107.9700462 569.024000
   3149   3152   3153     1   111.5100476 526.347200
   3149   3152   3160     1   110.1900474 564.840000
   3152   3149   3161     1   110.1900474 564.840000
   3152   3153   3154     1   111.5100476 526.347200
   3152   3153   3159     1   110.1900474 564.840000
   3153   3152   3160     1   110.1900474 564.840000
   3153   3154   3158     1   107.9700462 569.024000
   3153   3154   3170     1   107.9700462 569.024000
   3154   3153   3159     1   110.1900474 564.840000
   3158   3154   3170     1   108.2900466 608.353600
   3162   3148   3170     1   107.9700462 569.024000
   3171   3172   3175     1   111.5100476 526.347200
   3171   3172   3184     1   110.1900474 564.840000
   3171   3185   3191     1   110.1900474 564.840000
   3171   3193   3177     1   112.4800480 524.673600
   3172   3175   3176     1   111.5100476 526.347200
   3172   3175   3183     1   110.1900474 564.840000
   3172   3171   3185     1   111.5100476 526.347200
   3172   3171   3193     1   107.9700462 569.024000
   3175   3176   3177     1   111.5100476 526.347200
   3175   3176   3182     1   110.1900474 564.840000
   3175   3172   3184     1   110.1900474 564.840000
   3176   3177   3181     1   107.9700462 569.024000
   3176   3177   3193     1   107.9700462 569.024000
   3176   3175   3183     1   110.1900474 564.840000
   3177   3176   3182     1   110.1900474 564.840000
   3181   3177   3193     1   108.2900466 608.353600
   3185   3171   3193     1   107.9700462 569.024000
   3194   3195   3198     1   111.5100476 526.347200
   3194   3195   3207     1   110.1900474 564.840000
   3194   3208   3214     1   110.1900474 564.840000
   3194   3216   3200     1   112.4800480 524.673600
   3195   3194   3208     1   111.5100476 526.347200
   3195   3194   3216     1   107.9700462 569.024000
   3195   3198   3199     1   111.5100476 526.347200
   3195   3198   3206     1   110.1900474 564.840000
   3198   3195   3207     1   110.1900474 564.840000
   3198   3199   3200     1   111.5100476 526.347200
   3198   3199   3205     1   110.1900474 564.840000
   3199   3198   3206     1   110.1900474 564.840000
   3199   3200   3204     1   107.9700462 569.024000
   3199   3200   3216     1   107.9700462 569.024000
   3200   3199   3205     1   110.1900474 564.840000
   3204   3200   3216     1   108.2900466 608.353600
   3208   3194   3216     1   107.9700462 569.024000
   3217   3218   3221     1   111.5100476 526.347200
   3217   3218   3230     1   110.1900474 564.840000
   3217   3231   3237     1   110.1900474 564.840000
   3217   3239   3223     1   112.4800480 524.673600
   3218   3221   3222     1   111.5100476 526.347200
   3218   3221   3229     1   110.1900474 564.840000
   3218   3217   3231     1   111.5100476 526.347200
   3218   3217   3239     1   107.9700462 569.024000
   3221   3222   3223     1   111.5100476 526.347200
   3221   3222   3228     1   110.1900474 564.840000
   3221   3218   3230     1   110.1900474 564.840000
   3222   3223   3227     1   107.9700462 569.024000
   3222   3223   3239     1   107.9700462 569.024000
   3222   3221   3229     1   110.1900474 564.840000
   3223   3222   3228     1   110.1900474 564.840000
   3227   3223   3239     1   108.2900466 608.353600
   3231   3217   3239     1   107.9700462 569.024000
   3240   3241   3244     1   111.5100476 526.347200
   3240   3241   3253     1   110.1900474 564.840000
   3240   3254   3260     1   110.1900474 564.840000
   3240   3262   3246     1   112.4800480 524.673600
   3241   3240   3254     1   111.5100476 526.347200
   3241   3240   3262     1   107.9700462 569.024000
   3241   3244   3245     1   111.5100476 526.347200
   3241   3244   3252     1   110.1900474 564.840000
   3244   3241   3253     1   110.1900474 564.840000
   3244   3245   3246     1   111.5100476 526.347200
   3244   3245   3251     1   110.1900474 564.840000
   3245   3244   3252     1   110.1900474 564.840000
   3245   3246   3250     1   107.9700462 569.024000
   3245   3246   3262     1   107.9700462 569.024000
   3246   3245   3251     1   110.1900474 564.840000
   3250   3246   3262     1   108.2900466 608.353600
   3254   3240   3262     1   107.9700462 569.024000
   3263   3264   3267     1   111.5100476 526.347200
   3263   3264   3276     1   110.1900474 564.840000
   3263   3277   3283     1   110.1900474 564.840000
   3263   3285   3269     1   112.4800480 524.673600
   3264   3267   3268     1   111.5100476 526.347200
   3264   3267   3275     1   110.1900474 564.840000
   3264   3263   3277     1   111.5100476 526.347200
   3264   3263   3285     1   107.9700462 569.024000
   3267   3268   3269     1   111.5100476 526.347200
   3267   3268   3274     1   110.1900474 564.840000
   3267   3264   3276     1   110.1900474 564.840000
   3268   3269   3273     1   107.9700462 569.024000
   3268   3269   3285     1   107.9700462 569.024000
   3268   3267   3275     1   110.1900474 564.840000
   3269   3268   3274     1   110.1900474 564.840000
   3273   3269   3285     1   108.2900466 608.353600
   3277   3263   3285     1   107.9700462 569.024000
   3286   3287   3290     1   111.5100476 526.347200
   3286   3287   3299     1   110.1900474 564.840000
   3286   3300   3306     1   110.1900474 564.840000
   3286   3308   3292     1   112.4800480 524.673600
   3287   3286   3300     1   111.5100476 526.347200
   3287   3286   3308     1   107.9700462 569.024000
   3287   3290   3291     1   111.5100476 526.347200
   3287   3290   3298     1   110.1900474 564.840000
   3290   3287   3299     1   110.1900474 564.840000
   3290   3291   3292     1   111.5100476 526.347200
   3290   3291   3297     1   110.1900474 564.840000
   3291   3290   3298     1   110.1900474 564.840000
   3291   3292   3296     1   107.9700462 569.024000
   3291   3292   3308     1   107.9700462 569.024000
   3292   3291   3297     1   110.1900474 564.840000
   3296   3292   3308     1   108.2900466 608.353600
   3300   3286   3308     1   107.9700462 569.024000
   3309   3310   3313     1   111.5100476 526.347200
   3309   3310   3322     1   110.1900474 564.840000
   3309   3323   3329     1   110.1900474 564.840000
   3309   3331   3315     1   112.4800480 524.673600
   3310   3313   3314     1   111.5100476 526.347200
   3310   3313   3321     1   110.1900474 564.840000
   3310   3309   3323     1   111.5100476 526.347200
   3310   3309   3331     1   107.9700462 569.024000
   3313   3314   3315     1   111.5100476 526.347200
   3313   3314   3320     1   110.1900474 564.840000
   3313   3310   3322     1   110.1900474 564.840000
   3314   3315   3319     1   107.9700462 569.024000
   3314   3315   3331     1   107.9700462 569.024000
   3314   3313   3321     1   110.1900474 564.840000
   3315   3314   3320     1   110.1900474 564.840000
   3319   3315   3331     1   108.2900466 608.353600
   3323   3309   3331     1   107.9700462 569.024000
      1      2      3     1   109.7800468 425.094400
      1      2      4     1   109.7800468 425.094400
      1      5      6     1   109.7800468 425.094400
      1      5      7     1   109.7800468 425.094400
      2      8      9     1   109.8000471 387.438400
      2      8     10     1   109.8000471 387.438400
      3      2      8     1   109.5600471 388.275200
      3      2      4     1   108.4600466 328.025600
      4      2      8     1   109.5600471 388.275200
      5     11     12     1   109.8000471 387.438400
      5     11     13     1   109.8000471 387.438400
      6      5     11     1   109.5600471 388.275200
      6      5      7     1   108.4600466 328.025600
      7      5     11     1   109.5600471 388.275200
      8     14     15     1   110.5600475 386.601600
      8     14     16     1   110.5600475 386.601600
      9      8     14     1   109.8000471 387.438400
      9      8     10     1   107.5800459 329.699200
     10      8     14     1   109.8000471 387.438400
     11     17     18     1   110.5600475 386.601600
     11     17     19     1   110.5600475 386.601600
     12     11     17     1   109.8000471 387.438400
     12     11     13     1   107.5800459 329.699200
     13     11     17     1   109.8000471 387.438400
     14     20     58     1   110.1100470 384.091200
     15     14     20     1   108.0100461 406.684800
     15     14     16     1   109.7500473 328.025600
     16     14     20     1   108.0100461 406.684800
     17     21     59     1   110.1100470 384.091200
     18     17     21     1   108.0100461 406.684800
     18     17     19     1   109.7500473 328.025600
     19     17     21     1   108.0100461 406.684800
     20     28     29     1   108.0100461 406.684800
     20     28     30     1   108.0100461 406.684800
     20     31     32     1   108.0100461 406.684800
     20     31     33     1   108.0100461 406.684800
     21     22     23     1   108.0100461 406.684800
     21     22     24     1   108.0100461 406.684800
     21     25     26     1   108.0100461 406.684800
     21     25     27     1   108.0100461 406.684800
     22     21     59     1   110.1100470 384.091200
     22     34     35     1   109.8000471 387.438400
     22     34     36     1   109.8000471 387.438400
     23     22     34     1   110.5600475 386.601600
     23     22     24     1   109.7500473 328.025600
     24     22     34     1   110.5600475 386.601600
     25     21     59     1   110.1100470 384.091200
     25     37     38     1   109.8000471 387.438400
     25     37     39     1   109.8000471 387.438400
     26     25     37     1   110.5600475 386.601600
     26     25     27     1   109.7500473 328.025600
     27     25     37     1   110.5600475 386.601600
     28     20     58     1   110.1100470 384.091200
     28     40     41     1   109.8000471 387.438400
     28     40     42     1   109.8000471 387.438400
     29     28     40     1   110.5600475 386.601600
     29     28     30     1   109.7500473 328.025600
     30     28     40     1   110.5600475 386.601600
     31     20     58     1   110.1100470 384.091200
     31     43     44     1   109.8000471 387.438400
     31     43     45     1   109.8000471 387.438400
     32     31     43     1   110.5600475 386.601600
     32     31     33     1   109.7500473 328.025600
     33     31     43     1   110.5600475 386.601600
     34     55     56     1   109.8000471 387.438400
     34     55     57     1   109.8000471 387.438400
     35     34     55     1   109.8000471 387.438400
     35     34     36     1   107.5800459 329.699200
     36     34     55     1   109.8000471 387.438400
     37     52     53     1   109.8000471 387.438400
     37     52     54     1   109.8000471 387.438400
     38     37     52     1   109.8000471 387.438400
     38     37     39     1   107.5800459 329.699200
     39     37     52     1   109.8000471 387.438400
     40     49     50     1   109.8000471 387.438400
     40     49     51     1   109.8000471 387.438400
     41     40     49     1   109.8000471 387.438400
     41     40     42     1   107.5800459 329.699200
     42     40     49     1   109.8000471 387.438400
     43     46     47     1   109.8000471 387.438400
     43     46     48     1   109.8000471 387.438400
     44     43     46     1   109.8000471 387.438400
     44     43     45     1   107.5800459 329.699200
     45     43     46     1   109.8000471 387.438400
     47     46     88     1   108.7000466 426.768000
     47     46     48     1   107.5800459 329.699200
     48     46     88     1   108.7000466 426.768000
     50     49    118     1   108.7000466 426.768000
     50     49     51     1   107.5800459 329.699200
     51     49    118     1   108.7000466 426.768000
     53     52    148     1   108.7000466 426.768000
     53     52     54     1   107.5800459 329.699200
     54     52    148     1   108.7000466 426.768000
     56     55    178     1   108.7000466 426.768000
     56     55     57     1   107.5800459 329.699200
     57     55    178     1   108.7000466 426.768000
     60     61     62     1   108.0100461 406.684800
     60     61     63     1   108.0100461 406.684800
     60     64     65     1   108.0100461 406.684800
     60     64     66     1   108.0100461 406.684800
     60     67     68     1   108.0100461 406.684800
     60     67     69     1   108.0100461 406.684800
     61     60     89     1   110.1100470 384.091200
     61     73     74     1   109.8000471 387.438400
     61     73     75     1   109.8000471 387.438400
     62     61     73     1   110.5600475 386.601600
     62     61     63     1   109.7500473 328.025600
     63     61     73     1   110.5600475 386.601600
     64     60     89     1   110.1100470 384.091200
     64     76     77     1   109.8000471 387.438400
     64     76     78     1   109.8000471 387.438400
     65     64     76     1   110.5600475 386.601600
     65     64     66     1   109.7500473 328.025600
     66     64     76     1   110.5600475 386.601600
     67     60     89     1   110.1100470 384.091200
     67     70     71     1   109.8000471 387.438400
     67     70     72     1   109.8000471 387.438400
     68     67     70     1   110.5600475 386.601600
     68     67     69     1   109.7500473 328.025600
     69     67     70     1   110.5600475 386.601600
     70     79     80     1   109.5600471 388.275200
     70     79     81     1   109.5600471 388.275200
     71     70     79     1   109.8000471 387.438400
     71     70     72     1   107.5800459 329.699200
     72     70     79     1   109.8000471 387.438400
     73     85     86     1   109.5600471 388.275200
     73     85     87     1   109.5600471 388.275200
     74     73     85     1   109.8000471 387.438400
     74     73     75     1   107.5800459 329.699200
     75     73     85     1   109.8000471 387.438400
     76     82     83     1   109.5600471 388.275200
     76     82     84     1   109.5600471 388.275200
     77     76     82     1   109.8000471 387.438400
     77     76     78     1   107.5800459 329.699200
     78     76     82     1   109.8000471 387.438400
     80     79     88     1   109.7800468 425.094400
     80     79     81     1   108.4600466 328.025600
     81     79     88     1   109.7800468 425.094400
     83     82    208     1   109.7800468 425.094400
     83     82     84     1   108.4600466 328.025600
     84     82    208     1   109.7800468 425.094400
     86     85    238     1   109.7800468 425.094400
     86     85     87     1   108.4600466 328.025600
     87     85    238     1   109.7800468 425.094400
     90     91     92     1   108.0100461 406.684800
     90     91     93     1   108.0100461 406.684800
     90     94     95     1   108.0100461 406.684800
     90     94     96     1   108.0100461 406.684800
     90     97     98     1   108.0100461 406.684800
     90     97     99     1   108.0100461 406.684800
     91     90    119     1   110.1100470 384.091200
     91    103    104     1   109.8000471 387.438400
     91    103    105     1   109.8000471 387.438400
     92     91    103     1   110.5600475 386.601600
     92     91     93     1   109.7500473 328.025600
     93     91    103     1   110.5600475 386.601600
     94     90    119     1   110.1100470 384.091200
     94    106    107     1   109.8000471 387.438400
     94    106    108     1   109.8000471 387.438400
     95     94    106     1   110.5600475 386.601600
     95     94     96     1   109.7500473 328.025600
     96     94    106     1   110.5600475 386.601600
     97     90    119     1   110.1100470 384.091200
     97    100    101     1   109.8000471 387.438400
     97    100    102     1   109.8000471 387.438400
     98     97    100     1   110.5600475 386.601600
     98     97     99     1   109.7500473 328.025600
     99     97    100     1   110.5600475 386.601600
    100    109    110     1   109.5600471 388.275200
    100    109    111     1   109.5600471 388.275200
    101    100    109     1   109.8000471 387.438400
    101    100    102     1   107.5800459 329.699200
    102    100    109     1   109.8000471 387.438400
    103    115    116     1   109.5600471 388.275200
    103    115    117     1   109.5600471 388.275200
    104    103    115     1   109.8000471 387.438400
    104    103    105     1   107.5800459 329.699200
    105    103    115     1   109.8000471 387.438400
    106    112    113     1   109.5600471 388.275200
    106    112    114     1   109.5600471 388.275200
    107    106    112     1   109.8000471 387.438400
    107    106    108     1   107.5800459 329.699200
    108    106    112     1   109.8000471 387.438400
    110    109    118     1   109.7800468 425.094400
    110    109    111     1   108.4600466 328.025600
    111    109    118     1   109.7800468 425.094400
    113    112    268     1   109.7800468 425.094400
    113    112    114     1   108.4600466 328.025600
    114    112    268     1   109.7800468 425.094400
    116    115    298     1   109.7800468 425.094400
    116    115    117     1   108.4600466 328.025600
    117    115    298     1   109.7800468 425.094400
    120    121    122     1   108.0100461 406.684800
    120    121    123     1   108.0100461 406.684800
    120    124    125     1   108.0100461 406.684800
    120    124    126     1   108.0100461 406.684800
    120    127    128     1   108.0100461 406.684800
    120    127    129     1   108.0100461 406.684800
    121    120    149     1   110.1100470 384.091200
    121    133    134     1   109.8000471 387.438400
    121    133    135     1   109.8000471 387.438400
    122    121    133     1   110.5600475 386.601600
    122    121    123     1   109.7500473 328.025600
    123    121    133     1   110.5600475 386.601600
    124    120    149     1   110.1100470 384.091200
    124    136    137     1   109.8000471 387.438400
    124    136    138     1   109.8000471 387.438400
    125    124    136     1   110.5600475 386.601600
    125    124    126     1   109.7500473 328.025600
    126    124    136     1   110.5600475 386.601600
    127    120    149     1   110.1100470 384.091200
    127    130    131     1   109.8000471 387.438400
    127    130    132     1   109.8000471 387.438400
    128    127    130     1   110.5600475 386.601600
    128    127    129     1   109.7500473 328.025600
    129    127    130     1   110.5600475 386.601600
    130    139    140     1   109.5600471 388.275200
    130    139    141     1   109.5600471 388.275200
    131    130    139     1   109.8000471 387.438400
    131    130    132     1   107.5800459 329.699200
    132    130    139     1   109.8000471 387.438400
    133    145    146     1   109.5600471 388.275200
    133    145    147     1   109.5600471 388.275200
    134    133    145     1   109.8000471 387.438400
    134    133    135     1   107.5800459 329.699200
    135    133    145     1   109.8000471 387.438400
    136    142    143     1   109.5600471 388.275200
    136    142    144     1   109.5600471 388.275200
    137    136    142     1   109.8000471 387.438400
    137    136    138     1   107.5800459 329.699200
    138    136    142     1   109.8000471 387.438400
    140    139    148     1   109.7800468 425.094400
    140    139    141     1   108.4600466 328.025600
    141    139    148     1   109.7800468 425.094400
    143    142    328     1   109.7800468 425.094400
    143    142    144     1   108.4600466 328.025600
    144    142    328     1   109.7800468 425.094400
    146    145    358     1   109.7800468 425.094400
    146    145    147     1   108.4600466 328.025600
    147    145    358     1   109.7800468 425.094400
    150    151    152     1   108.0100461 406.684800
    150    151    153     1   108.0100461 406.684800
    150    154    155     1   108.0100461 406.684800
    150    154    156     1   108.0100461 406.684800
    150    157    158     1   108.0100461 406.684800
    150    157    159     1   108.0100461 406.684800
    151    150    179     1   110.1100470 384.091200
    151    163    164     1   109.8000471 387.438400
    151    163    165     1   109.8000471 387.438400
    152    151    163     1   110.5600475 386.601600
    152    151    153     1   109.7500473 328.025600
    153    151    163     1   110.5600475 386.601600
    154    150    179     1   110.1100470 384.091200
    154    166    167     1   109.8000471 387.438400
    154    166    168     1   109.8000471 387.438400
    155    154    166     1   110.5600475 386.601600
    155    154    156     1   109.7500473 328.025600
    156    154    166     1   110.5600475 386.601600
    157    150    179     1   110.1100470 384.091200
    157    160    161     1   109.8000471 387.438400
    157    160    162     1   109.8000471 387.438400
    158    157    160     1   110.5600475 386.601600
    158    157    159     1   109.7500473 328.025600
    159    157    160     1   110.5600475 386.601600
    160    169    170     1   109.5600471 388.275200
    160    169    171     1   109.5600471 388.275200
    161    160    169     1   109.8000471 387.438400
    161    160    162     1   107.5800459 329.699200
    162    160    169     1   109.8000471 387.438400
    163    175    176     1   109.5600471 388.275200
    163    175    177     1   109.5600471 388.275200
    164    163    175     1   109.8000471 387.438400
    164    163    165     1   107.5800459 329.699200
    165    163    175     1   109.8000471 387.438400
    166    172    173     1   109.5600471 388.275200
    166    172    174     1   109.5600471 388.275200
    167    166    172     1   109.8000471 387.438400
    167    166    168     1   107.5800459 329.699200
    168    166    172     1   109.8000471 387.438400
    170    169    178     1   109.7800468 425.094400
    170    169    171     1   108.4600466 328.025600
    171    169    178     1   109.7800468 425.094400
    173    172    388     1   109.7800468 425.094400
    173    172    174     1   108.4600466 328.025600
    174    172    388     1   109.7800468 425.094400
    176    175    418     1   109.7800468 425.094400
    176    175    177     1   108.4600466 328.025600
    177    175    418     1   109.7800468 425.094400
    180    181    182     1   108.0100461 406.684800
    180    181    183     1   108.0100461 406.684800
    180    184    185     1   108.0100461 406.684800
    180    184    186     1   108.0100461 406.684800
    180    187    188     1   108.0100461 406.684800
    180    187    189     1   108.0100461 406.684800
    181    180    209     1   110.1100470 384.091200
    181    193    194     1   109.8000471 387.438400
    181    193    195     1   109.8000471 387.438400
    182    181    193     1   110.5600475 386.601600
    182    181    183     1   109.7500473 328.025600
    183    181    193     1   110.5600475 386.601600
    184    180    209     1   110.1100470 384.091200
    184    196    197     1   109.8000471 387.438400
    184    196    198     1   109.8000471 387.438400
    185    184    196     1   110.5600475 386.601600
    185    184    186     1   109.7500473 328.025600
    186    184    196     1   110.5600475 386.601600
    187    180    209     1   110.1100470 384.091200
    187    190    191     1   109.8000471 387.438400
    187    190    192     1   109.8000471 387.438400
    188    187    190     1   110.5600475 386.601600
    188    187    189     1   109.7500473 328.025600
    189    187    190     1   110.5600475 386.601600
    190    199    200     1   109.5600471 388.275200
    190    199    201     1   109.5600471 388.275200
    191    190    199     1   109.8000471 387.438400
    191    190    192     1   107.5800459 329.699200
    192    190    199     1   109.8000471 387.438400
    193    205    206     1   109.5600471 388.275200
    193    205    207     1   109.5600471 388.275200
    194    193    205     1   109.8000471 387.438400
    194    193    195     1   107.5800459 329.699200
    195    193    205     1   109.8000471 387.438400
    196    202    203     1   109.5600471 388.275200
    196    202    204     1   109.5600471 388.275200
    197    196    202     1   109.8000471 387.438400
    197    196    198     1   107.5800459 329.699200
    198    196    202     1   109.8000471 387.438400
    200    199    208     1   109.7800468 425.094400
    200    199    201     1   108.4600466 328.025600
    201    199    208     1   109.7800468 425.094400
    203    202    448     1   109.7800468 425.094400
    203    202    204     1   108.4600466 328.025600
    204    202    448     1   109.7800468 425.094400
    206    205    478     1   109.7800468 425.094400
    206    205    207     1   108.4600466 328.025600
    207    205    478     1   109.7800468 425.094400
    210    211    212     1   108.0100461 406.684800
    210    211    213     1   108.0100461 406.684800
    210    214    215     1   108.0100461 406.684800
    210    214    216     1   108.0100461 406.684800
    210    217    218     1   108.0100461 406.684800
    210    217    219     1   108.0100461 406.684800
    211    210    239     1   110.1100470 384.091200
    211    223    224     1   109.8000471 387.438400
    211    223    225     1   109.8000471 387.438400
    212    211    223     1   110.5600475 386.601600
    212    211    213     1   109.7500473 328.025600
    213    211    223     1   110.5600475 386.601600
    214    210    239     1   110.1100470 384.091200
    214    226    227     1   109.8000471 387.438400
    214    226    228     1   109.8000471 387.438400
    215    214    226     1   110.5600475 386.601600
    215    214    216     1   109.7500473 328.025600
    216    214    226     1   110.5600475 386.601600
    217    210    239     1   110.1100470 384.091200
    217    220    221     1   109.8000471 387.438400
    217    220    222     1   109.8000471 387.438400
    218    217    220     1   110.5600475 386.601600
    218    217    219     1   109.7500473 328.025600
    219    217    220     1   110.5600475 386.601600
    220    229    230     1   109.5600471 388.275200
    220    229    231     1   109.5600471 388.275200
    221    220    229     1   109.8000471 387.438400
    221    220    222     1   107.5800459 329.699200
    222    220    229     1   109.8000471 387.438400
    223    235    236     1   109.5600471 388.275200
    223    235    237     1   109.5600471 388.275200
    224    223    235     1   109.8000471 387.438400
    224    223    225     1   107.5800459 329.699200
    225    223    235     1   109.8000471 387.438400
    226    232    233     1   109.5600471 388.275200
    226    232    234     1   109.5600471 388.275200
    227    226    232     1   109.8000471 387.438400
    227    226    228     1   107.5800459 329.699200
    228    226    232     1   109.8000471 387.438400
    230    229    238     1   109.7800468 425.094400
    230    229    231     1   108.4600466 328.025600
    231    229    238     1   109.7800468 425.094400
    233    232    508     1   109.7800468 425.094400
    233    232    234     1   108.4600466 328.025600
    234    232    508     1   109.7800468 425.094400
    236    235    538     1   109.7800468 425.094400
    236    235    237     1   108.4600466 328.025600
    237    235    538     1   109.7800468 425.094400
    240    241    242     1   108.0100461 406.684800
    240    241    243     1   108.0100461 406.684800
    240    244    245     1   108.0100461 406.684800
    240    244    246     1   108.0100461 406.684800
    240    247    248     1   108.0100461 406.684800
    240    247    249     1   108.0100461 406.684800
    241    240    269     1   110.1100470 384.091200
    241    253    254     1   109.8000471 387.438400
    241    253    255     1   109.8000471 387.438400
    242    241    253     1   110.5600475 386.601600
    242    241    243     1   109.7500473 328.025600
    243    241    253     1   110.5600475 386.601600
    244    240    269     1   110.1100470 384.091200
    244    256    257     1   109.8000471 387.438400
    244    256    258     1   109.8000471 387.438400
    245    244    256     1   110.5600475 386.601600
    245    244    246     1   109.7500473 328.025600
    246    244    256     1   110.5600475 386.601600
    247    240    269     1   110.1100470 384.091200
    247    250    251     1   109.8000471 387.438400
    247    250    252     1   109.8000471 387.438400
    248    247    250     1   110.5600475 386.601600
    248    247    249     1   109.7500473 328.025600
    249    247    250     1   110.5600475 386.601600
    250    259    260     1   109.5600471 388.275200
    250    259    261     1   109.5600471 388.275200
    251    250    259     1   109.8000471 387.438400
    251    250    252     1   107.5800459 329.699200
    252    250    259     1   109.8000471 387.438400
    253    265    266     1   109.5600471 388.275200
    253    265    267     1   109.5600471 388.275200
    254    253    265     1   109.8000471 387.438400
    254    253    255     1   107.5800459 329.699200
    255    253    265     1   109.8000471 387.438400
    256    262    263     1   109.5600471 388.275200
    256    262    264     1   109.5600471 388.275200
    257    256    262     1   109.8000471 387.438400
    257    256    258     1   107.5800459 329.699200
    258    256    262     1   109.8000471 387.438400
    260    259    268     1   109.7800468 425.094400
    260    259    261     1   108.4600466 328.025600
    261    259    268     1   109.7800468 425.094400
    263    262    568     1   109.7800468 425.094400
    263    262    264     1   108.4600466 328.025600
    264    262    568     1   109.7800468 425.094400
    266    265    598     1   109.7800468 425.094400
    266    265    267     1   108.4600466 328.025600
    267    265    598     1   109.7800468 425.094400
    270    271    272     1   108.0100461 406.684800
    270    271    273     1   108.0100461 406.684800
    270    274    275     1   108.0100461 406.684800
    270    274    276     1   108.0100461 406.684800
    270    277    278     1   108.0100461 406.684800
    270    277    279     1   108.0100461 406.684800
    271    270    299     1   110.1100470 384.091200
    271    283    284     1   109.8000471 387.438400
    271    283    285     1   109.8000471 387.438400
    272    271    283     1   110.5600475 386.601600
    272    271    273     1   109.7500473 328.025600
    273    271    283     1   110.5600475 386.601600
    274    270    299     1   110.1100470 384.091200
    274    286    287     1   109.8000471 387.438400
    274    286    288     1   109.8000471 387.438400
    275    274    286     1   110.5600475 386.601600
    275    274    276     1   109.7500473 328.025600
    276    274    286     1   110.5600475 386.601600
    277    270    299     1   110.1100470 384.091200
    277    280    281     1   109.8000471 387.438400
    277    280    282     1   109.8000471 387.438400
    278    277    280     1   110.5600475 386.601600
    278    277    279     1   109.7500473 328.025600
    279    277    280     1   110.5600475 386.601600
    280    289    290     1   109.5600471 388.275200
    280    289    291     1   109.5600471 388.275200
    281    280    289     1   109.8000471 387.438400
    281    280    282     1   107.5800459 329.699200
    282    280    289     1   109.8000471 387.438400
    283    295    296     1   109.5600471 388.275200
    283    295    297     1   109.5600471 388.275200
    284    283    295     1   109.8000471 387.438400
    284    283    285     1   107.5800459 329.699200
    285    283    295     1   109.8000471 387.438400
    286    292    293     1   109.5600471 388.275200
    286    292    294     1   109.5600471 388.275200
    287    286    292     1   109.8000471 387.438400
    287    286    288     1   107.5800459 329.699200
    288    286    292     1   109.8000471 387.438400
    290    289    298     1   109.7800468 425.094400
    290    289    291     1   108.4600466 328.025600
    291    289    298     1   109.7800468 425.094400
    293    292    628     1   109.7800468 425.094400
    293    292    294     1   108.4600466 328.025600
    294    292    628     1   109.7800468 425.094400
    296    295    658     1   109.7800468 425.094400
    296    295    297     1   108.4600466 328.025600
    297    295    658     1   109.7800468 425.094400
    300    301    302     1   108.0100461 406.684800
    300    301    303     1   108.0100461 406.684800
    300    304    305     1   108.0100461 406.684800
    300    304    306     1   108.0100461 406.684800
    300    307    308     1   108.0100461 406.684800
    300    307    309     1   108.0100461 406.684800
    301    300    329     1   110.1100470 384.091200
    301    313    314     1   109.8000471 387.438400
    301    313    315     1   109.8000471 387.438400
    302    301    313     1   110.5600475 386.601600
    302    301    303     1   109.7500473 328.025600
    303    301    313     1   110.5600475 386.601600
    304    300    329     1   110.1100470 384.091200
    304    316    317     1   109.8000471 387.438400
    304    316    318     1   109.8000471 387.438400
    305    304    316     1   110.5600475 386.601600
    305    304    306     1   109.7500473 328.025600
    306    304    316     1   110.5600475 386.601600
    307    300    329     1   110.1100470 384.091200
    307    310    311     1   109.8000471 387.438400
    307    310    312     1   109.8000471 387.438400
    308    307    310     1   110.5600475 386.601600
    308    307    309     1   109.7500473 328.025600
    309    307    310     1   110.5600475 386.601600
    310    319    320     1   109.5600471 388.275200
    310    319    321     1   109.5600471 388.275200
    311    310    319     1   109.8000471 387.438400
    311    310    312     1   107.5800459 329.699200
    312    310    319     1   109.8000471 387.438400
    313    325    326     1   109.5600471 388.275200
    313    325    327     1   109.5600471 388.275200
    314    313    325     1   109.8000471 387.438400
    314    313    315     1   107.5800459 329.699200
    315    313    325     1   109.8000471 387.438400
    316    322    323     1   109.5600471 388.275200
    316    322    324     1   109.5600471 388.275200
    317    316    322     1   109.8000471 387.438400
    317    316    318     1   107.5800459 329.699200
    318    316    322     1   109.8000471 387.438400
    320    319    328     1   109.7800468 425.094400
    320    319    321     1   108.4600466 328.025600
    321    319    328     1   109.7800468 425.094400
    323    322    688     1   109.7800468 425.094400
    323    322    324     1   108.4600466 328.025600
    324    322    688     1   109.7800468 425.094400
    326    325    718     1   109.7800468 425.094400
    326    325    327     1   108.4600466 328.025600
    327    325    718     1   109.7800468 425.094400
    330    331    332     1   108.0100461 406.684800
    330    331    333     1   108.0100461 406.684800
    330    334    335     1   108.0100461 406.684800
    330    334    336     1   108.0100461 406.684800
    330    337    338     1   108.0100461 406.684800
    330    337    339     1   108.0100461 406.684800
    331    330    359     1   110.1100470 384.091200
    331    343    344     1   109.8000471 387.438400
    331    343    345     1   109.8000471 387.438400
    332    331    343     1   110.5600475 386.601600
    332    331    333     1   109.7500473 328.025600
    333    331    343     1   110.5600475 386.601600
    334    330    359     1   110.1100470 384.091200
    334    346    347     1   109.8000471 387.438400
    334    346    348     1   109.8000471 387.438400
    335    334    346     1   110.5600475 386.601600
    335    334    336     1   109.7500473 328.025600
    336    334    346     1   110.5600475 386.601600
    337    330    359     1   110.1100470 384.091200
    337    340    341     1   109.8000471 387.438400
    337    340    342     1   109.8000471 387.438400
    338    337    340     1   110.5600475 386.601600
    338    337    339     1   109.7500473 328.025600
    339    337    340     1   110.5600475 386.601600
    340    349    350     1   109.5600471 388.275200
    340    349    351     1   109.5600471 388.275200
    341    340    349     1   109.8000471 387.438400
    341    340    342     1   107.5800459 329.699200
    342    340    349     1   109.8000471 387.438400
    343    355    356     1   109.5600471 388.275200
    343    355    357     1   109.5600471 388.275200
    344    343    355     1   109.8000471 387.438400
    344    343    345     1   107.5800459 329.699200
    345    343    355     1   109.8000471 387.438400
    346    352    353     1   109.5600471 388.275200
    346    352    354     1   109.5600471 388.275200
    347    346    352     1   109.8000471 387.438400
    347    346    348     1   107.5800459 329.699200
    348    346    352     1   109.8000471 387.438400
    350    349    358     1   109.7800468 425.094400
    350    349    351     1   108.4600466 328.025600
    351    349    358     1   109.7800468 425.094400
    353    352    748     1   109.7800468 425.094400
    353    352    354     1   108.4600466 328.025600
    354    352    748     1   109.7800468 425.094400
    356    355    778     1   109.7800468 425.094400
    356    355    357     1   108.4600466 328.025600
    357    355    778     1   109.7800468 425.094400
    360    361    362     1   108.0100461 406.684800
    360    361    363     1   108.0100461 406.684800
    360    364    365     1   108.0100461 406.684800
    360    364    366     1   108.0100461 406.684800
    360    367    368     1   108.0100461 406.684800
    360    367    369     1   108.0100461 406.684800
    361    360    389     1   110.1100470 384.091200
    361    373    374     1   109.8000471 387.438400
    361    373    375     1   109.8000471 387.438400
    362    361    373     1   110.5600475 386.601600
    362    361    363     1   109.7500473 328.025600
    363    361    373     1   110.5600475 386.601600
    364    360    389     1   110.1100470 384.091200
    364    376    377     1   109.8000471 387.438400
    364    376    378     1   109.8000471 387.438400
    365    364    376     1   110.5600475 386.601600
    365    364    366     1   109.7500473 328.025600
    366    364    376     1   110.5600475 386.601600
    367    360    389     1   110.1100470 384.091200
    367    370    371     1   109.8000471 387.438400
    367    370    372     1   109.8000471 387.438400
    368    367    370     1   110.5600475 386.601600
    368    367    369     1   109.7500473 328.025600
    369    367    370     1   110.5600475 386.601600
    370    379    380     1   109.5600471 388.275200
    370    379    381     1   109.5600471 388.275200
    371    370    379     1   109.8000471 387.438400
    371    370    372     1   107.5800459 329.699200
    372    370    379     1   109.8000471 387.438400
    373    385    386     1   109.5600471 388.275200
    373    385    387     1   109.5600471 388.275200
    374    373    385     1   109.8000471 387.438400
    374    373    375     1   107.5800459 329.699200
    375    373    385     1   109.8000471 387.438400
    376    382    383     1   109.5600471 388.275200
    376    382    384     1   109.5600471 388.275200
    377    376    382     1   109.8000471 387.438400
    377    376    378     1   107.5800459 329.699200
    378    376    382     1   109.8000471 387.438400
    380    379    388     1   109.7800468 425.094400
    380    379    381     1   108.4600466 328.025600
    381    379    388     1   109.7800468 425.094400
    383    382    808     1   109.7800468 425.094400
    383    382    384     1   108.4600466 328.025600
    384    382    808     1   109.7800468 425.094400
    386    385    838     1   109.7800468 425.094400
    386    385    387     1   108.4600466 328.025600
    387    385    838     1   109.7800468 425.094400
    390    391    392     1   108.0100461 406.684800
    390    391    393     1   108.0100461 406.684800
    390    394    395     1   108.0100461 406.684800
    390    394    396     1   108.0100461 406.684800
    390    397    398     1   108.0100461 406.684800
    390    397    399     1   108.0100461 406.684800
    391    390    419     1   110.1100470 384.091200
    391    403    404     1   109.8000471 387.438400
    391    403    405     1   109.8000471 387.438400
    392    391    403     1   110.5600475 386.601600
    392    391    393     1   109.7500473 328.025600
    393    391    403     1   110.5600475 386.601600
    394    390    419     1   110.1100470 384.091200
    394    406    407     1   109.8000471 387.438400
    394    406    408     1   109.8000471 387.438400
    395    394    406     1   110.5600475 386.601600
    395    394    396     1   109.7500473 328.025600
    396    394    406     1   110.5600475 386.601600
    397    390    419     1   110.1100470 384.091200
    397    400    401     1   109.8000471 387.438400
    397    400    402     1   109.8000471 387.438400
    398    397    400     1   110.5600475 386.601600
    398    397    399     1   109.7500473 328.025600
    399    397    400     1   110.5600475 386.601600
    400    409    410     1   109.5600471 388.275200
    400    409    411     1   109.5600471 388.275200
    401    400    409     1   109.8000471 387.438400
    401    400    402     1   107.5800459 329.699200
    402    400    409     1   109.8000471 387.438400
    403    415    416     1   109.5600471 388.275200
    403    415    417     1   109.5600471 388.275200
    404    403    415     1   109.8000471 387.438400
    404    403    405     1   107.5800459 329.699200
    405    403    415     1   109.8000471 387.438400
    406    412    413     1   109.5600471 388.275200
    406    412    414     1   109.5600471 388.275200
    407    406    412     1   109.8000471 387.438400
    407    406    408     1   107.5800459 329.699200
    408    406    412     1   109.8000471 387.438400
    410    409    418     1   109.7800468 425.094400
    410    409    411     1   108.4600466 328.025600
    411    409    418     1   109.7800468 425.094400
    413    412    868     1   109.7800468 425.094400
    413    412    414     1   108.4600466 328.025600
    414    412    868     1   109.7800468 425.094400
    416    415    898     1   109.7800468 425.094400
    416    415    417     1   108.4600466 328.025600
    417    415    898     1   109.7800468 425.094400
    420    421    422     1   108.0100461 406.684800
    420    421    423     1   108.0100461 406.684800
    420    424    425     1   108.0100461 406.684800
    420    424    426     1   108.0100461 406.684800
    420    427    428     1   108.0100461 406.684800
    420    427    429     1   108.0100461 406.684800
    421    420    449     1   110.1100470 384.091200
    421    433    434     1   109.8000471 387.438400
    421    433    435     1   109.8000471 387.438400
    422    421    433     1   110.5600475 386.601600
    422    421    423     1   109.7500473 328.025600
    423    421    433     1   110.5600475 386.601600
    424    420    449     1   110.1100470 384.091200
    424    436    437     1   109.8000471 387.438400
    424    436    438     1   109.8000471 387.438400
    425    424    436     1   110.5600475 386.601600
    425    424    426     1   109.7500473 328.025600
    426    424    436     1   110.5600475 386.601600
    427    420    449     1   110.1100470 384.091200
    427    430    431     1   109.8000471 387.438400
    427    430    432     1   109.8000471 387.438400
    428    427    430     1   110.5600475 386.601600
    428    427    429     1   109.7500473 328.025600
    429    427    430     1   110.5600475 386.601600
    430    439    440     1   109.5600471 388.275200
    430    439    441     1   109.5600471 388.275200
    431    430    439     1   109.8000471 387.438400
    431    430    432     1   107.5800459 329.699200
    432    430    439     1   109.8000471 387.438400
    433    445    446     1   109.5600471 388.275200
    433    445    447     1   109.5600471 388.275200
    434    433    445     1   109.8000471 387.438400
    434    433    435     1   107.5800459 329.699200
    435    433    445     1   109.8000471 387.438400
    436    442    443     1   109.5600471 388.275200
    436    442    444     1   109.5600471 388.275200
    437    436    442     1   109.8000471 387.438400
    437    436    438     1   107.5800459 329.699200
    438    436    442     1   109.8000471 387.438400
    440    439    448     1   109.7800468 425.094400
    440    439    441     1   108.4600466 328.025600
    441    439    448     1   109.7800468 425.094400
    443    442    928     1   109.7800468 425.094400
    443    442    444     1   108.4600466 328.025600
    444    442    928     1   109.7800468 425.094400
    446    445    958     1   109.7800468 425.094400
    446    445    447     1   108.4600466 328.025600
    447    445    958     1   109.7800468 425.094400
    450    451    452     1   108.0100461 406.684800
    450    451    453     1   108.0100461 406.684800
    450    454    455     1   108.0100461 406.684800
    450    454    456     1   108.0100461 406.684800
    450    457    458     1   108.0100461 406.684800
    450    457    459     1   108.0100461 406.684800
    451    450    479     1   110.1100470 384.091200
    451    463    464     1   109.8000471 387.438400
    451    463    465     1   109.8000471 387.438400
    452    451    463     1   110.5600475 386.601600
    452    451    453     1   109.7500473 328.025600
    453    451    463     1   110.5600475 386.601600
    454    450    479     1   110.1100470 384.091200
    454    466    467     1   109.8000471 387.438400
    454    466    468     1   109.8000471 387.438400
    455    454    466     1   110.5600475 386.601600
    455    454    456     1   109.7500473 328.025600
    456    454    466     1   110.5600475 386.601600
    457    450    479     1   110.1100470 384.091200
    457    460    461     1   109.8000471 387.438400
    457    460    462     1   109.8000471 387.438400
    458    457    460     1   110.5600475 386.601600
    458    457    459     1   109.7500473 328.025600
    459    457    460     1   110.5600475 386.601600
    460    469    470     1   109.5600471 388.275200
    460    469    471     1   109.5600471 388.275200
    461    460    469     1   109.8000471 387.438400
    461    460    462     1   107.5800459 329.699200
    462    460    469     1   109.8000471 387.438400
    463    475    476     1   109.5600471 388.275200
    463    475    477     1   109.5600471 388.275200
    464    463    475     1   109.8000471 387.438400
    464    463    465     1   107.5800459 329.699200
    465    463    475     1   109.8000471 387.438400
    466    472    473     1   109.5600471 388.275200
    466    472    474     1   109.5600471 388.275200
    467    466    472     1   109.8000471 387.438400
    467    466    468     1   107.5800459 329.699200
    468    466    472     1   109.8000471 387.438400
    470    469    478     1   109.7800468 425.094400
    470    469    471     1   108.4600466 328.025600
    471    469    478     1   109.7800468 425.094400
    473    472    988     1   109.7800468 425.094400
    473    472    474     1   108.4600466 328.025600
    474    472    988     1   109.7800468 425.094400
    476    475   1018     1   109.7800468 425.094400
    476    475    477     1   108.4600466 328.025600
    477    475   1018     1   109.7800468 425.094400
    480    481    482     1   108.0100461 406.684800
    480    481    483     1   108.0100461 406.684800
    480    484    485     1   108.0100461 406.684800
    480    484    486     1   108.0100461 406.684800
    480    487    488     1   108.0100461 406.684800
    480    487    489     1   108.0100461 406.684800
    481    480    509     1   110.1100470 384.091200
    481    493    494     1   109.8000471 387.438400
    481    493    495     1   109.8000471 387.438400
    482    481    493     1   110.5600475 386.601600
    482    481    483     1   109.7500473 328.025600
    483    481    493     1   110.5600475 386.601600
    484    480    509     1   110.1100470 384.091200
    484    496    497     1   109.8000471 387.438400
    484    496    498     1   109.8000471 387.438400
    485    484    496     1   110.5600475 386.601600
    485    484    486     1   109.7500473 328.025600
    486    484    496     1   110.5600475 386.601600
    487    480    509     1   110.1100470 384.091200
    487    490    491     1   109.8000471 387.438400
    487    490    492     1   109.8000471 387.438400
    488    487    490     1   110.5600475 386.601600
    488    487    489     1   109.7500473 328.025600
    489    487    490     1   110.5600475 386.601600
    490    499    500     1   109.5600471 388.275200
    490    499    501     1   109.5600471 388.275200
    491    490    499     1   109.8000471 387.438400
    491    490    492     1   107.5800459 329.699200
    492    490    499     1   109.8000471 387.438400
    493    505    506     1   109.5600471 388.275200
    493    505    507     1   109.5600471 388.275200
    494    493    505     1   109.8000471 387.438400
    494    493    495     1   107.5800459 329.699200
    495    493    505     1   109.8000471 387.438400
    496    502    503     1   109.5600471 388.275200
    496    502    504     1   109.5600471 388.275200
    497    496    502     1   109.8000471 387.438400
    497    496    498     1   107.5800459 329.699200
    498    496    502     1   109.8000471 387.438400
    500    499    508     1   109.7800468 425.094400
    500    499    501     1   108.4600466 328.025600
    501    499    508     1   109.7800468 425.094400
    503    502   1048     1   109.7800468 425.094400
    503    502    504     1   108.4600466 328.025600
    504    502   1048     1   109.7800468 425.094400
    506    505   1078     1   109.7800468 425.094400
    506    505    507     1   108.4600466 328.025600
    507    505   1078     1   109.7800468 425.094400
    510    511    512     1   108.0100461 406.684800
    510    511    513     1   108.0100461 406.684800
    510    514    515     1   108.0100461 406.684800
    510    514    516     1   108.0100461 406.684800
    510    517    518     1   108.0100461 406.684800
    510    517    519     1   108.0100461 406.684800
    511    510    539     1   110.1100470 384.091200
    511    523    524     1   109.8000471 387.438400
    511    523    525     1   109.8000471 387.438400
    512    511    523     1   110.5600475 386.601600
    512    511    513     1   109.7500473 328.025600
    513    511    523     1   110.5600475 386.601600
    514    510    539     1   110.1100470 384.091200
    514    526    527     1   109.8000471 387.438400
    514    526    528     1   109.8000471 387.438400
    515    514    526     1   110.5600475 386.601600
    515    514    516     1   109.7500473 328.025600
    516    514    526     1   110.5600475 386.601600
    517    510    539     1   110.1100470 384.091200
    517    520    521     1   109.8000471 387.438400
    517    520    522     1   109.8000471 387.438400
    518    517    520     1   110.5600475 386.601600
    518    517    519     1   109.7500473 328.025600
    519    517    520     1   110.5600475 386.601600
    520    529    530     1   109.5600471 388.275200
    520    529    531     1   109.5600471 388.275200
    521    520    529     1   109.8000471 387.438400
    521    520    522     1   107.5800459 329.699200
    522    520    529     1   109.8000471 387.438400
    523    535    536     1   109.5600471 388.275200
    523    535    537     1   109.5600471 388.275200
    524    523    535     1   109.8000471 387.438400
    524    523    525     1   107.5800459 329.699200
    525    523    535     1   109.8000471 387.438400
    526    532    533     1   109.5600471 388.275200
    526    532    534     1   109.5600471 388.275200
    527    526    532     1   109.8000471 387.438400
    527    526    528     1   107.5800459 329.699200
    528    526    532     1   109.8000471 387.438400
    530    529    538     1   109.7800468 425.094400
    530    529    531     1   108.4600466 328.025600
    531    529    538     1   109.7800468 425.094400
    533    532   1108     1   109.7800468 425.094400
    533    532    534     1   108.4600466 328.025600
    534    532   1108     1   109.7800468 425.094400
    536    535   1138     1   109.7800468 425.094400
    536    535    537     1   108.4600466 328.025600
    537    535   1138     1   109.7800468 425.094400
    540    541    542     1   108.0100461 406.684800
    540    541    543     1   108.0100461 406.684800
    540    544    545     1   108.0100461 406.684800
    540    544    546     1   108.0100461 406.684800
    540    547    548     1   108.0100461 406.684800
    540    547    549     1   108.0100461 406.684800
    541    540    569     1   110.1100470 384.091200
    541    553    554     1   109.8000471 387.438400
    541    553    555     1   109.8000471 387.438400
    542    541    553     1   110.5600475 386.601600
    542    541    543     1   109.7500473 328.025600
    543    541    553     1   110.5600475 386.601600
    544    540    569     1   110.1100470 384.091200
    544    556    557     1   109.8000471 387.438400
    544    556    558     1   109.8000471 387.438400
    545    544    556     1   110.5600475 386.601600
    545    544    546     1   109.7500473 328.025600
    546    544    556     1   110.5600475 386.601600
    547    540    569     1   110.1100470 384.091200
    547    550    551     1   109.8000471 387.438400
    547    550    552     1   109.8000471 387.438400
    548    547    550     1   110.5600475 386.601600
    548    547    549     1   109.7500473 328.025600
    549    547    550     1   110.5600475 386.601600
    550    559    560     1   109.5600471 388.275200
    550    559    561     1   109.5600471 388.275200
    551    550    559     1   109.8000471 387.438400
    551    550    552     1   107.5800459 329.699200
    552    550    559     1   109.8000471 387.438400
    553    565    566     1   109.5600471 388.275200
    553    565    567     1   109.5600471 388.275200
    554    553    565     1   109.8000471 387.438400
    554    553    555     1   107.5800459 329.699200
    555    553    565     1   109.8000471 387.438400
    556    562    563     1   109.5600471 388.275200
    556    562    564     1   109.5600471 388.275200
    557    556    562     1   109.8000471 387.438400
    557    556    558     1   107.5800459 329.699200
    558    556    562     1   109.8000471 387.438400
    560    559    568     1   109.7800468 425.094400
    560    559    561     1   108.4600466 328.025600
    561    559    568     1   109.7800468 425.094400
    563    562   1168     1   109.7800468 425.094400
    563    562    564     1   108.4600466 328.025600
    564    562   1168     1   109.7800468 425.094400
    566    565   1198     1   109.7800468 425.094400
    566    565    567     1   108.4600466 328.025600
    567    565   1198     1   109.7800468 425.094400
    570    571    572     1   108.0100461 406.684800
    570    571    573     1   108.0100461 406.684800
    570    574    575     1   108.0100461 406.684800
    570    574    576     1   108.0100461 406.684800
    570    577    578     1   108.0100461 406.684800
    570    577    579     1   108.0100461 406.684800
    571    570    599     1   110.1100470 384.091200
    571    583    584     1   109.8000471 387.438400
    571    583    585     1   109.8000471 387.438400
    572    571    583     1   110.5600475 386.601600
    572    571    573     1   109.7500473 328.025600
    573    571    583     1   110.5600475 386.601600
    574    570    599     1   110.1100470 384.091200
    574    586    587     1   109.8000471 387.438400
    574    586    588     1   109.8000471 387.438400
    575    574    586     1   110.5600475 386.601600
    575    574    576     1   109.7500473 328.025600
    576    574    586     1   110.5600475 386.601600
    577    570    599     1   110.1100470 384.091200
    577    580    581     1   109.8000471 387.438400
    577    580    582     1   109.8000471 387.438400
    578    577    580     1   110.5600475 386.601600
    578    577    579     1   109.7500473 328.025600
    579    577    580     1   110.5600475 386.601600
    580    589    590     1   109.5600471 388.275200
    580    589    591     1   109.5600471 388.275200
    581    580    589     1   109.8000471 387.438400
    581    580    582     1   107.5800459 329.699200
    582    580    589     1   109.8000471 387.438400
    583    595    596     1   109.5600471 388.275200
    583    595    597     1   109.5600471 388.275200
    584    583    595     1   109.8000471 387.438400
    584    583    585     1   107.5800459 329.699200
    585    583    595     1   109.8000471 387.438400
    586    592    593     1   109.5600471 388.275200
    586    592    594     1   109.5600471 388.275200
    587    586    592     1   109.8000471 387.438400
    587    586    588     1   107.5800459 329.699200
    588    586    592     1   109.8000471 387.438400
    590    589    598     1   109.7800468 425.094400
    590    589    591     1   108.4600466 328.025600
    591    589    598     1   109.7800468 425.094400
    593    592   1228     1   109.7800468 425.094400
    593    592    594     1   108.4600466 328.025600
    594    592   1228     1   109.7800468 425.094400
    596    595   1258     1   109.7800468 425.094400
    596    595    597     1   108.4600466 328.025600
    597    595   1258     1   109.7800468 425.094400
    600    601    602     1   108.0100461 406.684800
    600    601    603     1   108.0100461 406.684800
    600    604    605     1   108.0100461 406.684800
    600    604    606     1   108.0100461 406.684800
    600    607    608     1   108.0100461 406.684800
    600    607    609     1   108.0100461 406.684800
    601    600    629     1   110.1100470 384.091200
    601    613    614     1   109.8000471 387.438400
    601    613    615     1   109.8000471 387.438400
    602    601    613     1   110.5600475 386.601600
    602    601    603     1   109.7500473 328.025600
    603    601    613     1   110.5600475 386.601600
    604    600    629     1   110.1100470 384.091200
    604    616    617     1   109.8000471 387.438400
    604    616    618     1   109.8000471 387.438400
    605    604    616     1   110.5600475 386.601600
    605    604    606     1   109.7500473 328.025600
    606    604    616     1   110.5600475 386.601600
    607    600    629     1   110.1100470 384.091200
    607    610    611     1   109.8000471 387.438400
    607    610    612     1   109.8000471 387.438400
    608    607    610     1   110.5600475 386.601600
    608    607    609     1   109.7500473 328.025600
    609    607    610     1   110.5600475 386.601600
    610    619    620     1   109.5600471 388.275200
    610    619    621     1   109.5600471 388.275200
    611    610    619     1   109.8000471 387.438400
    611    610    612     1   107.5800459 329.699200
    612    610    619     1   109.8000471 387.438400
    613    625    626     1   109.5600471 388.275200
    613    625    627     1   109.5600471 388.275200
    614    613    625     1   109.8000471 387.438400
    614    613    615     1   107.5800459 329.699200
    615    613    625     1   109.8000471 387.438400
    616    622    623     1   109.5600471 388.275200
    616    622    624     1   109.5600471 388.275200
    617    616    622     1   109.8000471 387.438400
    617    616    618     1   107.5800459 329.699200
    618    616    622     1   109.8000471 387.438400
    620    619    628     1   109.7800468 425.094400
    620    619    621     1   108.4600466 328.025600
    621    619    628     1   109.7800468 425.094400
    623    622   1288     1   109.7800468 425.094400
    623    622    624     1   108.4600466 328.025600
    624    622   1288     1   109.7800468 425.094400
    626    625   1318     1   109.7800468 425.094400
    626    625    627     1   108.4600466 328.025600
    627    625   1318     1   109.7800468 425.094400
    630    631    632     1   108.0100461 406.684800
    630    631    633     1   108.0100461 406.684800
    630    634    635     1   108.0100461 406.684800
    630    634    636     1   108.0100461 406.684800
    630    637    638     1   108.0100461 406.684800
    630    637    639     1   108.0100461 406.684800
    631    630    659     1   110.1100470 384.091200
    631    643    644     1   109.8000471 387.438400
    631    643    645     1   109.8000471 387.438400
    632    631    643     1   110.5600475 386.601600
    632    631    633     1   109.7500473 328.025600
    633    631    643     1   110.5600475 386.601600
    634    630    659     1   110.1100470 384.091200
    634    646    647     1   109.8000471 387.438400
    634    646    648     1   109.8000471 387.438400
    635    634    646     1   110.5600475 386.601600
    635    634    636     1   109.7500473 328.025600
    636    634    646     1   110.5600475 386.601600
    637    630    659     1   110.1100470 384.091200
    637    640    641     1   109.8000471 387.438400
    637    640    642     1   109.8000471 387.438400
    638    637    640     1   110.5600475 386.601600
    638    637    639     1   109.7500473 328.025600
    639    637    640     1   110.5600475 386.601600
    640    649    650     1   109.5600471 388.275200
    640    649    651     1   109.5600471 388.275200
    641    640    649     1   109.8000471 387.438400
    641    640    642     1   107.5800459 329.699200
    642    640    649     1   109.8000471 387.438400
    643    655    656     1   109.5600471 388.275200
    643    655    657     1   109.5600471 388.275200
    644    643    655     1   109.8000471 387.438400
    644    643    645     1   107.5800459 329.699200
    645    643    655     1   109.8000471 387.438400
    646    652    653     1   109.5600471 388.275200
    646    652    654     1   109.5600471 388.275200
    647    646    652     1   109.8000471 387.438400
    647    646    648     1   107.5800459 329.699200
    648    646    652     1   109.8000471 387.438400
    650    649    658     1   109.7800468 425.094400
    650    649    651     1   108.4600466 328.025600
    651    649    658     1   109.7800468 425.094400
    653    652   1348     1   109.7800468 425.094400
    653    652    654     1   108.4600466 328.025600
    654    652   1348     1   109.7800468 425.094400
    656    655   1378     1   109.7800468 425.094400
    656    655    657     1   108.4600466 328.025600
    657    655   1378     1   109.7800468 425.094400
    660    661    662     1   108.0100461 406.684800
    660    661    663     1   108.0100461 406.684800
    660    664    665     1   108.0100461 406.684800
    660    664    666     1   108.0100461 406.684800
    660    667    668     1   108.0100461 406.684800
    660    667    669     1   108.0100461 406.684800
    661    660    689     1   110.1100470 384.091200
    661    673    674     1   109.8000471 387.438400
    661    673    675     1   109.8000471 387.438400
    662    661    673     1   110.5600475 386.601600
    662    661    663     1   109.7500473 328.025600
    663    661    673     1   110.5600475 386.601600
    664    660    689     1   110.1100470 384.091200
    664    676    677     1   109.8000471 387.438400
    664    676    678     1   109.8000471 387.438400
    665    664    676     1   110.5600475 386.601600
    665    664    666     1   109.7500473 328.025600
    666    664    676     1   110.5600475 386.601600
    667    660    689     1   110.1100470 384.091200
    667    670    671     1   109.8000471 387.438400
    667    670    672     1   109.8000471 387.438400
    668    667    670     1   110.5600475 386.601600
    668    667    669     1   109.7500473 328.025600
    669    667    670     1   110.5600475 386.601600
    670    679    680     1   109.5600471 388.275200
    670    679    681     1   109.5600471 388.275200
    671    670    679     1   109.8000471 387.438400
    671    670    672     1   107.5800459 329.699200
    672    670    679     1   109.8000471 387.438400
    673    685    686     1   109.5600471 388.275200
    673    685    687     1   109.5600471 388.275200
    674    673    685     1   109.8000471 387.438400
    674    673    675     1   107.5800459 329.699200
    675    673    685     1   109.8000471 387.438400
    676    682    683     1   109.5600471 388.275200
    676    682    684     1   109.5600471 388.275200
    677    676    682     1   109.8000471 387.438400
    677    676    678     1   107.5800459 329.699200
    678    676    682     1   109.8000471 387.438400
    680    679    688     1   109.7800468 425.094400
    680    679    681     1   108.4600466 328.025600
    681    679    688     1   109.7800468 425.094400
    683    682   1408     1   109.7800468 425.094400
    683    682    684     1   108.4600466 328.025600
    684    682   1408     1   109.7800468 425.094400
    686    685   1438     1   109.7800468 425.094400
    686    685    687     1   108.4600466 328.025600
    687    685   1438     1   109.7800468 425.094400
    690    691    692     1   108.0100461 406.684800
    690    691    693     1   108.0100461 406.684800
    690    694    695     1   108.0100461 406.684800
    690    694    696     1   108.0100461 406.684800
    690    697    698     1   108.0100461 406.684800
    690    697    699     1   108.0100461 406.684800
    691    690    719     1   110.1100470 384.091200
    691    703    704     1   109.8000471 387.438400
    691    703    705     1   109.8000471 387.438400
    692    691    703     1   110.5600475 386.601600
    692    691    693     1   109.7500473 328.025600
    693    691    703     1   110.5600475 386.601600
    694    690    719     1   110.1100470 384.091200
    694    706    707     1   109.8000471 387.438400
    694    706    708     1   109.8000471 387.438400
    695    694    706     1   110.5600475 386.601600
    695    694    696     1   109.7500473 328.025600
    696    694    706     1   110.5600475 386.601600
    697    690    719     1   110.1100470 384.091200
    697    700    701     1   109.8000471 387.438400
    697    700    702     1   109.8000471 387.438400
    698    697    700     1   110.5600475 386.601600
    698    697    699     1   109.7500473 328.025600
    699    697    700     1   110.5600475 386.601600
    700    709    710     1   109.5600471 388.275200
    700    709    711     1   109.5600471 388.275200
    701    700    709     1   109.8000471 387.438400
    701    700    702     1   107.5800459 329.699200
    702    700    709     1   109.8000471 387.438400
    703    715    716     1   109.5600471 388.275200
    703    715    717     1   109.5600471 388.275200
    704    703    715     1   109.8000471 387.438400
    704    703    705     1   107.5800459 329.699200
    705    703    715     1   109.8000471 387.438400
    706    712    713     1   109.5600471 388.275200
    706    712    714     1   109.5600471 388.275200
    707    706    712     1   109.8000471 387.438400
    707    706    708     1   107.5800459 329.699200
    708    706    712     1   109.8000471 387.438400
    710    709    718     1   109.7800468 425.094400
    710    709    711     1   108.4600466 328.025600
    711    709    718     1   109.7800468 425.094400
    713    712   1468     1   109.7800468 425.094400
    713    712    714     1   108.4600466 328.025600
    714    712   1468     1   109.7800468 425.094400
    716    715   1498     1   109.7800468 425.094400
    716    715    717     1   108.4600466 328.025600
    717    715   1498     1   109.7800468 425.094400
    720    721    722     1   108.0100461 406.684800
    720    721    723     1   108.0100461 406.684800
    720    724    725     1   108.0100461 406.684800
    720    724    726     1   108.0100461 406.684800
    720    727    728     1   108.0100461 406.684800
    720    727    729     1   108.0100461 406.684800
    721    720    749     1   110.1100470 384.091200
    721    733    734     1   109.8000471 387.438400
    721    733    735     1   109.8000471 387.438400
    722    721    733     1   110.5600475 386.601600
    722    721    723     1   109.7500473 328.025600
    723    721    733     1   110.5600475 386.601600
    724    720    749     1   110.1100470 384.091200
    724    736    737     1   109.8000471 387.438400
    724    736    738     1   109.8000471 387.438400
    725    724    736     1   110.5600475 386.601600
    725    724    726     1   109.7500473 328.025600
    726    724    736     1   110.5600475 386.601600
    727    720    749     1   110.1100470 384.091200
    727    730    731     1   109.8000471 387.438400
    727    730    732     1   109.8000471 387.438400
    728    727    730     1   110.5600475 386.601600
    728    727    729     1   109.7500473 328.025600
    729    727    730     1   110.5600475 386.601600
    730    739    740     1   109.5600471 388.275200
    730    739    741     1   109.5600471 388.275200
    731    730    739     1   109.8000471 387.438400
    731    730    732     1   107.5800459 329.699200
    732    730    739     1   109.8000471 387.438400
    733    745    746     1   109.5600471 388.275200
    733    745    747     1   109.5600471 388.275200
    734    733    745     1   109.8000471 387.438400
    734    733    735     1   107.5800459 329.699200
    735    733    745     1   109.8000471 387.438400
    736    742    743     1   109.5600471 388.275200
    736    742    744     1   109.5600471 388.275200
    737    736    742     1   109.8000471 387.438400
    737    736    738     1   107.5800459 329.699200
    738    736    742     1   109.8000471 387.438400
    740    739    748     1   109.7800468 425.094400
    740    739    741     1   108.4600466 328.025600
    741    739    748     1   109.7800468 425.094400
    743    742   1528     1   109.7800468 425.094400
    743    742    744     1   108.4600466 328.025600
    744    742   1528     1   109.7800468 425.094400
    746    745   1558     1   109.7800468 425.094400
    746    745    747     1   108.4600466 328.025600
    747    745   1558     1   109.7800468 425.094400
    750    751    752     1   108.0100461 406.684800
    750    751    753     1   108.0100461 406.684800
    750    754    755     1   108.0100461 406.684800
    750    754    756     1   108.0100461 406.684800
    750    757    758     1   108.0100461 406.684800
    750    757    759     1   108.0100461 406.684800
    751    750    779     1   110.1100470 384.091200
    751    763    764     1   109.8000471 387.438400
    751    763    765     1   109.8000471 387.438400
    752    751    763     1   110.5600475 386.601600
    752    751    753     1   109.7500473 328.025600
    753    751    763     1   110.5600475 386.601600
    754    750    779     1   110.1100470 384.091200
    754    766    767     1   109.8000471 387.438400
    754    766    768     1   109.8000471 387.438400
    755    754    766     1   110.5600475 386.601600
    755    754    756     1   109.7500473 328.025600
    756    754    766     1   110.5600475 386.601600
    757    750    779     1   110.1100470 384.091200
    757    760    761     1   109.8000471 387.438400
    757    760    762     1   109.8000471 387.438400
    758    757    760     1   110.5600475 386.601600
    758    757    759     1   109.7500473 328.025600
    759    757    760     1   110.5600475 386.601600
    760    769    770     1   109.5600471 388.275200
    760    769    771     1   109.5600471 388.275200
    761    760    769     1   109.8000471 387.438400
    761    760    762     1   107.5800459 329.699200
    762    760    769     1   109.8000471 387.438400
    763    775    776     1   109.5600471 388.275200
    763    775    777     1   109.5600471 388.275200
    764    763    775     1   109.8000471 387.438400
    764    763    765     1   107.5800459 329.699200
    765    763    775     1   109.8000471 387.438400
    766    772    773     1   109.5600471 388.275200
    766    772    774     1   109.5600471 388.275200
    767    766    772     1   109.8000471 387.438400
    767    766    768     1   107.5800459 329.699200
    768    766    772     1   109.8000471 387.438400
    770    769    778     1   109.7800468 425.094400
    770    769    771     1   108.4600466 328.025600
    771    769    778     1   109.7800468 425.094400
    773    772   1588     1   109.7800468 425.094400
    773    772    774     1   108.4600466 328.025600
    774    772   1588     1   109.7800468 425.094400
    776    775   1618     1   109.7800468 425.094400
    776    775    777     1   108.4600466 328.025600
    777    775   1618     1   109.7800468 425.094400
    780    781    782     1   108.0100461 406.684800
    780    781    783     1   108.0100461 406.684800
    780    784    785     1   108.0100461 406.684800
    780    784    786     1   108.0100461 406.684800
    780    787    788     1   108.0100461 406.684800
    780    787    789     1   108.0100461 406.684800
    781    780    809     1   110.1100470 384.091200
    781    793    794     1   109.8000471 387.438400
    781    793    795     1   109.8000471 387.438400
    782    781    793     1   110.5600475 386.601600
    782    781    783     1   109.7500473 328.025600
    783    781    793     1   110.5600475 386.601600
    784    780    809     1   110.1100470 384.091200
    784    796    797     1   109.8000471 387.438400
    784    796    798     1   109.8000471 387.438400
    785    784    796     1   110.5600475 386.601600
    785    784    786     1   109.7500473 328.025600
    786    784    796     1   110.5600475 386.601600
    787    780    809     1   110.1100470 384.091200
    787    790    791     1   109.8000471 387.438400
    787    790    792     1   109.8000471 387.438400
    788    787    790     1   110.5600475 386.601600
    788    787    789     1   109.7500473 328.025600
    789    787    790     1   110.5600475 386.601600
    790    799    800     1   109.5600471 388.275200
    790    799    801     1   109.5600471 388.275200
    791    790    799     1   109.8000471 387.438400
    791    790    792     1   107.5800459 329.699200
    792    790    799     1   109.8000471 387.438400
    793    805    806     1   109.5600471 388.275200
    793    805    807     1   109.5600471 388.275200
    794    793    805     1   109.8000471 387.438400
    794    793    795     1   107.5800459 329.699200
    795    793    805     1   109.8000471 387.438400
    796    802    803     1   109.5600471 388.275200
    796    802    804     1   109.5600471 388.275200
    797    796    802     1   109.8000471 387.438400
    797    796    798     1   107.5800459 329.699200
    798    796    802     1   109.8000471 387.438400
    800    799    808     1   109.7800468 425.094400
    800    799    801     1   108.4600466 328.025600
    801    799    808     1   109.7800468 425.094400
    803    802   1648     1   109.7800468 425.094400
    803    802    804     1   108.4600466 328.025600
    804    802   1648     1   109.7800468 425.094400
    806    805   1678     1   109.7800468 425.094400
    806    805    807     1   108.4600466 328.025600
    807    805   1678     1   109.7800468 425.094400
    810    811    812     1   108.0100461 406.684800
    810    811    813     1   108.0100461 406.684800
    810    814    815     1   108.0100461 406.684800
    810    814    816     1   108.0100461 406.684800
    810    817    818     1   108.0100461 406.684800
    810    817    819     1   108.0100461 406.684800
    811    810    839     1   110.1100470 384.091200
    811    823    824     1   109.8000471 387.438400
    811    823    825     1   109.8000471 387.438400
    812    811    823     1   110.5600475 386.601600
    812    811    813     1   109.7500473 328.025600
    813    811    823     1   110.5600475 386.601600
    814    810    839     1   110.1100470 384.091200
    814    826    827     1   109.8000471 387.438400
    814    826    828     1   109.8000471 387.438400
    815    814    826     1   110.5600475 386.601600
    815    814    816     1   109.7500473 328.025600
    816    814    826     1   110.5600475 386.601600
    817    810    839     1   110.1100470 384.091200
    817    820    821     1   109.8000471 387.438400
    817    820    822     1   109.8000471 387.438400
    818    817    820     1   110.5600475 386.601600
    818    817    819     1   109.7500473 328.025600
    819    817    820     1   110.5600475 386.601600
    820    829    830     1   109.5600471 388.275200
    820    829    831     1   109.5600471 388.275200
    821    820    829     1   109.8000471 387.438400
    821    820    822     1   107.5800459 329.699200
    822    820    829     1   109.8000471 387.438400
    823    835    836     1   109.5600471 388.275200
    823    835    837     1   109.5600471 388.275200
    824    823    835     1   109.8000471 387.438400
    824    823    825     1   107.5800459 329.699200
    825    823    835     1   109.8000471 387.438400
    826    832    833     1   109.5600471 388.275200
    826    832    834     1   109.5600471 388.275200
    827    826    832     1   109.8000471 387.438400
    827    826    828     1   107.5800459 329.699200
    828    826    832     1   109.8000471 387.438400
    830    829    838     1   109.7800468 425.094400
    830    829    831     1   108.4600466 328.025600
    831    829    838     1   109.7800468 425.094400
    833    832   1708     1   109.7800468 425.094400
    833    832    834     1   108.4600466 328.025600
    834    832   1708     1   109.7800468 425.094400
    836    835   1738     1   109.7800468 425.094400
    836    835    837     1   108.4600466 328.025600
    837    835   1738     1   109.7800468 425.094400
    840    841    842     1   108.0100461 406.684800
    840    841    843     1   108.0100461 406.684800
    840    844    845     1   108.0100461 406.684800
    840    844    846     1   108.0100461 406.684800
    840    847    848     1   108.0100461 406.684800
    840    847    849     1   108.0100461 406.684800
    841    840    869     1   110.1100470 384.091200
    841    853    854     1   109.8000471 387.438400
    841    853    855     1   109.8000471 387.438400
    842    841    853     1   110.5600475 386.601600
    842    841    843     1   109.7500473 328.025600
    843    841    853     1   110.5600475 386.601600
    844    840    869     1   110.1100470 384.091200
    844    856    857     1   109.8000471 387.438400
    844    856    858     1   109.8000471 387.438400
    845    844    856     1   110.5600475 386.601600
    845    844    846     1   109.7500473 328.025600
    846    844    856     1   110.5600475 386.601600
    847    840    869     1   110.1100470 384.091200
    847    850    851     1   109.8000471 387.438400
    847    850    852     1   109.8000471 387.438400
    848    847    850     1   110.5600475 386.601600
    848    847    849     1   109.7500473 328.025600
    849    847    850     1   110.5600475 386.601600
    850    859    860     1   109.5600471 388.275200
    850    859    861     1   109.5600471 388.275200
    851    850    859     1   109.8000471 387.438400
    851    850    852     1   107.5800459 329.699200
    852    850    859     1   109.8000471 387.438400
    853    865    866     1   109.5600471 388.275200
    853    865    867     1   109.5600471 388.275200
    854    853    865     1   109.8000471 387.438400
    854    853    855     1   107.5800459 329.699200
    855    853    865     1   109.8000471 387.438400
    856    862    863     1   109.5600471 388.275200
    856    862    864     1   109.5600471 388.275200
    857    856    862     1   109.8000471 387.438400
    857    856    858     1   107.5800459 329.699200
    858    856    862     1   109.8000471 387.438400
    860    859    868     1   109.7800468 425.094400
    860    859    861     1   108.4600466 328.025600
    861    859    868     1   109.7800468 425.094400
    863    862   1768     1   109.7800468 425.094400
    863    862    864     1   108.4600466 328.025600
    864    862   1768     1   109.7800468 425.094400
    866    865   1798     1   109.7800468 425.094400
    866    865    867     1   108.4600466 328.025600
    867    865   1798     1   109.7800468 425.094400
    870    871    872     1   108.0100461 406.684800
    870    871    873     1   108.0100461 406.684800
    870    874    875     1   108.0100461 406.684800
    870    874    876     1   108.0100461 406.684800
    870    877    878     1   108.0100461 406.684800
    870    877    879     1   108.0100461 406.684800
    871    870    899     1   110.1100470 384.091200
    871    883    884     1   109.8000471 387.438400
    871    883    885     1   109.8000471 387.438400
    872    871    883     1   110.5600475 386.601600
    872    871    873     1   109.7500473 328.025600
    873    871    883     1   110.5600475 386.601600
    874    870    899     1   110.1100470 384.091200
    874    886    887     1   109.8000471 387.438400
    874    886    888     1   109.8000471 387.438400
    875    874    886     1   110.5600475 386.601600
    875    874    876     1   109.7500473 328.025600
    876    874    886     1   110.5600475 386.601600
    877    870    899     1   110.1100470 384.091200
    877    880    881     1   109.8000471 387.438400
    877    880    882     1   109.8000471 387.438400
    878    877    880     1   110.5600475 386.601600
    878    877    879     1   109.7500473 328.025600
    879    877    880     1   110.5600475 386.601600
    880    889    890     1   109.5600471 388.275200
    880    889    891     1   109.5600471 388.275200
    881    880    889     1   109.8000471 387.438400
    881    880    882     1   107.5800459 329.699200
    882    880    889     1   109.8000471 387.438400
    883    895    896     1   109.5600471 388.275200
    883    895    897     1   109.5600471 388.275200
    884    883    895     1   109.8000471 387.438400
    884    883    885     1   107.5800459 329.699200
    885    883    895     1   109.8000471 387.438400
    886    892    893     1   109.5600471 388.275200
    886    892    894     1   109.5600471 388.275200
    887    886    892     1   109.8000471 387.438400
    887    886    888     1   107.5800459 329.699200
    888    886    892     1   109.8000471 387.438400
    890    889    898     1   109.7800468 425.094400
    890    889    891     1   108.4600466 328.025600
    891    889    898     1   109.7800468 425.094400
    893    892   1828     1   109.7800468 425.094400
    893    892    894     1   108.4600466 328.025600
    894    892   1828     1   109.7800468 425.094400
    896    895   1858     1   109.7800468 425.094400
    896    895    897     1   108.4600466 328.025600
    897    895   1858     1   109.7800468 425.094400
    900    901    902     1   108.0100461 406.684800
    900    901    903     1   108.0100461 406.684800
    900    904    905     1   108.0100461 406.684800
    900    904    906     1   108.0100461 406.684800
    900    907    908     1   108.0100461 406.684800
    900    907    909     1   108.0100461 406.684800
    901    900    929     1   110.1100470 384.091200
    901    913    914     1   109.8000471 387.438400
    901    913    915     1   109.8000471 387.438400
    902    901    913     1   110.5600475 386.601600
    902    901    903     1   109.7500473 328.025600
    903    901    913     1   110.5600475 386.601600
    904    900    929     1   110.1100470 384.091200
    904    916    917     1   109.8000471 387.438400
    904    916    918     1   109.8000471 387.438400
    905    904    916     1   110.5600475 386.601600
    905    904    906     1   109.7500473 328.025600
    906    904    916     1   110.5600475 386.601600
    907    900    929     1   110.1100470 384.091200
    907    910    911     1   109.8000471 387.438400
    907    910    912     1   109.8000471 387.438400
    908    907    910     1   110.5600475 386.601600
    908    907    909     1   109.7500473 328.025600
    909    907    910     1   110.5600475 386.601600
    910    919    920     1   109.5600471 388.275200
    910    919    921     1   109.5600471 388.275200
    911    910    919     1   109.8000471 387.438400
    911    910    912     1   107.5800459 329.699200
    912    910    919     1   109.8000471 387.438400
    913    925    926     1   109.5600471 388.275200
    913    925    927     1   109.5600471 388.275200
    914    913    925     1   109.8000471 387.438400
    914    913    915     1   107.5800459 329.699200
    915    913    925     1   109.8000471 387.438400
    916    922    923     1   109.5600471 388.275200
    916    922    924     1   109.5600471 388.275200
    917    916    922     1   109.8000471 387.438400
    917    916    918     1   107.5800459 329.699200
    918    916    922     1   109.8000471 387.438400
    920    919    928     1   109.7800468 425.094400
    920    919    921     1   108.4600466 328.025600
    921    919    928     1   109.7800468 425.094400
    923    922   1870     1   109.7800468 425.094400
    923    922    924     1   108.4600466 328.025600
    924    922   1870     1   109.7800468 425.094400
    926    925   1893     1   109.7800468 425.094400
    926    925    927     1   108.4600466 328.025600
    927    925   1893     1   109.7800468 425.094400
    930    931    932     1   108.0100461 406.684800
    930    931    933     1   108.0100461 406.684800
    930    934    935     1   108.0100461 406.684800
    930    934    936     1   108.0100461 406.684800
    930    937    938     1   108.0100461 406.684800
    930    937    939     1   108.0100461 406.684800
    931    930    959     1   110.1100470 384.091200
    931    943    944     1   109.8000471 387.438400
    931    943    945     1   109.8000471 387.438400
    932    931    943     1   110.5600475 386.601600
    932    931    933     1   109.7500473 328.025600
    933    931    943     1   110.5600475 386.601600
    934    930    959     1   110.1100470 384.091200
    934    946    947     1   109.8000471 387.438400
    934    946    948     1   109.8000471 387.438400
    935    934    946     1   110.5600475 386.601600
    935    934    936     1   109.7500473 328.025600
    936    934    946     1   110.5600475 386.601600
    937    930    959     1   110.1100470 384.091200
    937    940    941     1   109.8000471 387.438400
    937    940    942     1   109.8000471 387.438400
    938    937    940     1   110.5600475 386.601600
    938    937    939     1   109.7500473 328.025600
    939    937    940     1   110.5600475 386.601600
    940    949    950     1   109.5600471 388.275200
    940    949    951     1   109.5600471 388.275200
    941    940    949     1   109.8000471 387.438400
    941    940    942     1   107.5800459 329.699200
    942    940    949     1   109.8000471 387.438400
    943    955    956     1   109.5600471 388.275200
    943    955    957     1   109.5600471 388.275200
    944    943    955     1   109.8000471 387.438400
    944    943    945     1   107.5800459 329.699200
    945    943    955     1   109.8000471 387.438400
    946    952    953     1   109.5600471 388.275200
    946    952    954     1   109.5600471 388.275200
    947    946    952     1   109.8000471 387.438400
    947    946    948     1   107.5800459 329.699200
    948    946    952     1   109.8000471 387.438400
    950    949    958     1   109.7800468 425.094400
    950    949    951     1   108.4600466 328.025600
    951    949    958     1   109.7800468 425.094400
    953    952   1916     1   109.7800468 425.094400
    953    952    954     1   108.4600466 328.025600
    954    952   1916     1   109.7800468 425.094400
    956    955   1939     1   109.7800468 425.094400
    956    955    957     1   108.4600466 328.025600
    957    955   1939     1   109.7800468 425.094400
    960    961    962     1   108.0100461 406.684800
    960    961    963     1   108.0100461 406.684800
    960    964    965     1   108.0100461 406.684800
    960    964    966     1   108.0100461 406.684800
    960    967    968     1   108.0100461 406.684800
    960    967    969     1   108.0100461 406.684800
    961    960    989     1   110.1100470 384.091200
    961    973    974     1   109.8000471 387.438400
    961    973    975     1   109.8000471 387.438400
    962    961    973     1   110.5600475 386.601600
    962    961    963     1   109.7500473 328.025600
    963    961    973     1   110.5600475 386.601600
    964    960    989     1   110.1100470 384.091200
    964    976    977     1   109.8000471 387.438400
    964    976    978     1   109.8000471 387.438400
    965    964    976     1   110.5600475 386.601600
    965    964    966     1   109.7500473 328.025600
    966    964    976     1   110.5600475 386.601600
    967    960    989     1   110.1100470 384.091200
    967    970    971     1   109.8000471 387.438400
    967    970    972     1   109.8000471 387.438400
    968    967    970     1   110.5600475 386.601600
    968    967    969     1   109.7500473 328.025600
    969    967    970     1   110.5600475 386.601600
    970    979    980     1   109.5600471 388.275200
    970    979    981     1   109.5600471 388.275200
    971    970    979     1   109.8000471 387.438400
    971    970    972     1   107.5800459 329.699200
    972    970    979     1   109.8000471 387.438400
    973    985    986     1   109.5600471 388.275200
    973    985    987     1   109.5600471 388.275200
    974    973    985     1   109.8000471 387.438400
    974    973    975     1   107.5800459 329.699200
    975    973    985     1   109.8000471 387.438400
    976    982    983     1   109.5600471 388.275200
    976    982    984     1   109.5600471 388.275200
    977    976    982     1   109.8000471 387.438400
    977    976    978     1   107.5800459 329.699200
    978    976    982     1   109.8000471 387.438400
    980    979    988     1   109.7800468 425.094400
    980    979    981     1   108.4600466 328.025600
    981    979    988     1   109.7800468 425.094400
    983    982   1962     1   109.7800468 425.094400
    983    982    984     1   108.4600466 328.025600
    984    982   1962     1   109.7800468 425.094400
    986    985   1985     1   109.7800468 425.094400
    986    985    987     1   108.4600466 328.025600
    987    985   1985     1   109.7800468 425.094400
    990    991    992     1   108.0100461 406.684800
    990    991    993     1   108.0100461 406.684800
    990    994    995     1   108.0100461 406.684800
    990    994    996     1   108.0100461 406.684800
    990    997    998     1   108.0100461 406.684800
    990    997    999     1   108.0100461 406.684800
    991    990   1019     1   110.1100470 384.091200
    991   1003   1004     1   109.8000471 387.438400
    991   1003   1005     1   109.8000471 387.438400
    992    991   1003     1   110.5600475 386.601600
    992    991    993     1   109.7500473 328.025600
    993    991   1003     1   110.5600475 386.601600
    994    990   1019     1   110.1100470 384.091200
    994   1006   1007     1   109.8000471 387.438400
    994   1006   1008     1   109.8000471 387.438400
    995    994   1006     1   110.5600475 386.601600
    995    994    996     1   109.7500473 328.025600
    996    994   1006     1   110.5600475 386.601600
    997    990   1019     1   110.1100470 384.091200
    997   1000   1001     1   109.8000471 387.438400
    997   1000   1002     1   109.8000471 387.438400
    998    997   1000     1   110.5600475 386.601600
    998    997    999     1   109.7500473 328.025600
    999    997   1000     1   110.5600475 386.601600
   1000   1009   1010     1   109.5600471 388.275200
   1000   1009   1011     1   109.5600471 388.275200
   1001   1000   1009     1   109.8000471 387.438400
   1001   1000   1002     1   107.5800459 329.699200
   1002   1000   1009     1   109.8000471 387.438400
   1003   1015   1016     1   109.5600471 388.275200
   1003   1015   1017     1   109.5600471 388.275200
   1004   1003   1015     1   109.8000471 387.438400
   1004   1003   1005     1   107.5800459 329.699200
   1005   1003   1015     1   109.8000471 387.438400
   1006   1012   1013     1   109.5600471 388.275200
   1006   1012   1014     1   109.5600471 388.275200
   1007   1006   1012     1   109.8000471 387.438400
   1007   1006   1008     1   107.5800459 329.699200
   1008   1006   1012     1   109.8000471 387.438400
   1010   1009   1018     1   109.7800468 425.094400
   1010   1009   1011     1   108.4600466 328.025600
   1011   1009   1018     1   109.7800468 425.094400
   1013   1012   2008     1   109.7800468 425.094400
   1013   1012   1014     1   108.4600466 328.025600
   1014   1012   2008     1   109.7800468 425.094400
   1016   1015   2031     1   109.7800468 425.094400
   1016   1015   1017     1   108.4600466 328.025600
   1017   1015   2031     1   109.7800468 425.094400
   1020   1021   1022     1   108.0100461 406.684800
   1020   1021   1023     1   108.0100461 406.684800
   1020   1024   1025     1   108.0100461 406.684800
   1020   1024   1026     1   108.0100461 406.684800
   1020   1027   1028     1   108.0100461 406.684800
   1020   1027   1029     1   108.0100461 406.684800
   1021   1020   1049     1   110.1100470 384.091200
   1021   1033   1034     1   109.8000471 387.438400
   1021   1033   1035     1   109.8000471 387.438400
   1022   1021   1033     1   110.5600475 386.601600
   1022   1021   1023     1   109.7500473 328.025600
   1023   1021   1033     1   110.5600475 386.601600
   1024   1020   1049     1   110.1100470 384.091200
   1024   1036   1037     1   109.8000471 387.438400
   1024   1036   1038     1   109.8000471 387.438400
   1025   1024   1036     1   110.5600475 386.601600
   1025   1024   1026     1   109.7500473 328.025600
   1026   1024   1036     1   110.5600475 386.601600
   1027   1020   1049     1   110.1100470 384.091200
   1027   1030   1031     1   109.8000471 387.438400
   1027   1030   1032     1   109.8000471 387.438400
   1028   1027   1030     1   110.5600475 386.601600
   1028   1027   1029     1   109.7500473 328.025600
   1029   1027   1030     1   110.5600475 386.601600
   1030   1039   1040     1   109.5600471 388.275200
   1030   1039   1041     1   109.5600471 388.275200
   1031   1030   1039     1   109.8000471 387.438400
   1031   1030   1032     1   107.5800459 329.699200
   1032   1030   1039     1   109.8000471 387.438400
   1033   1045   1046     1   109.5600471 388.275200
   1033   1045   1047     1   109.5600471 388.275200
   1034   1033   1045     1   109.8000471 387.438400
   1034   1033   1035     1   107.5800459 329.699200
   1035   1033   1045     1   109.8000471 387.438400
   1036   1042   1043     1   109.5600471 388.275200
   1036   1042   1044     1   109.5600471 388.275200
   1037   1036   1042     1   109.8000471 387.438400
   1037   1036   1038     1   107.5800459 329.699200
   1038   1036   1042     1   109.8000471 387.438400
   1040   1039   1048     1   109.7800468 425.094400
   1040   1039   1041     1   108.4600466 328.025600
   1041   1039   1048     1   109.7800468 425.094400
   1043   1042   2054     1   109.7800468 425.094400
   1043   1042   1044     1   108.4600466 328.025600
   1044   1042   2054     1   109.7800468 425.094400
   1046   1045   2077     1   109.7800468 425.094400
   1046   1045   1047     1   108.4600466 328.025600
   1047   1045   2077     1   109.7800468 425.094400
   1050   1051   1052     1   108.0100461 406.684800
   1050   1051   1053     1   108.0100461 406.684800
   1050   1054   1055     1   108.0100461 406.684800
   1050   1054   1056     1   108.0100461 406.684800
   1050   1057   1058     1   108.0100461 406.684800
   1050   1057   1059     1   108.0100461 406.684800
   1051   1050   1079     1   110.1100470 384.091200
   1051   1063   1064     1   109.8000471 387.438400
   1051   1063   1065     1   109.8000471 387.438400
   1052   1051   1063     1   110.5600475 386.601600
   1052   1051   1053     1   109.7500473 328.025600
   1053   1051   1063     1   110.5600475 386.601600
   1054   1050   1079     1   110.1100470 384.091200
   1054   1066   1067     1   109.8000471 387.438400
   1054   1066   1068     1   109.8000471 387.438400
   1055   1054   1066     1   110.5600475 386.601600
   1055   1054   1056     1   109.7500473 328.025600
   1056   1054   1066     1   110.5600475 386.601600
   1057   1050   1079     1   110.1100470 384.091200
   1057   1060   1061     1   109.8000471 387.438400
   1057   1060   1062     1   109.8000471 387.438400
   1058   1057   1060     1   110.5600475 386.601600
   1058   1057   1059     1   109.7500473 328.025600
   1059   1057   1060     1   110.5600475 386.601600
   1060   1069   1070     1   109.5600471 388.275200
   1060   1069   1071     1   109.5600471 388.275200
   1061   1060   1069     1   109.8000471 387.438400
   1061   1060   1062     1   107.5800459 329.699200
   1062   1060   1069     1   109.8000471 387.438400
   1063   1075   1076     1   109.5600471 388.275200
   1063   1075   1077     1   109.5600471 388.275200
   1064   1063   1075     1   109.8000471 387.438400
   1064   1063   1065     1   107.5800459 329.699200
   1065   1063   1075     1   109.8000471 387.438400
   1066   1072   1073     1   109.5600471 388.275200
   1066   1072   1074     1   109.5600471 388.275200
   1067   1066   1072     1   109.8000471 387.438400
   1067   1066   1068     1   107.5800459 329.699200
   1068   1066   1072     1   109.8000471 387.438400
   1070   1069   1078     1   109.7800468 425.094400
   1070   1069   1071     1   108.4600466 328.025600
   1071   1069   1078     1   109.7800468 425.094400
   1073   1072   2100     1   109.7800468 425.094400
   1073   1072   1074     1   108.4600466 328.025600
   1074   1072   2100     1   109.7800468 425.094400
   1076   1075   2123     1   109.7800468 425.094400
   1076   1075   1077     1   108.4600466 328.025600
   1077   1075   2123     1   109.7800468 425.094400
   1080   1081   1082     1   108.0100461 406.684800
   1080   1081   1083     1   108.0100461 406.684800
   1080   1084   1085     1   108.0100461 406.684800
   1080   1084   1086     1   108.0100461 406.684800
   1080   1087   1088     1   108.0100461 406.684800
   1080   1087   1089     1   108.0100461 406.684800
   1081   1080   1109     1   110.1100470 384.091200
   1081   1093   1094     1   109.8000471 387.438400
   1081   1093   1095     1   109.8000471 387.438400
   1082   1081   1093     1   110.5600475 386.601600
   1082   1081   1083     1   109.7500473 328.025600
   1083   1081   1093     1   110.5600475 386.601600
   1084   1080   1109     1   110.1100470 384.091200
   1084   1096   1097     1   109.8000471 387.438400
   1084   1096   1098     1   109.8000471 387.438400
   1085   1084   1096     1   110.5600475 386.601600
   1085   1084   1086     1   109.7500473 328.025600
   1086   1084   1096     1   110.5600475 386.601600
   1087   1080   1109     1   110.1100470 384.091200
   1087   1090   1091     1   109.8000471 387.438400
   1087   1090   1092     1   109.8000471 387.438400
   1088   1087   1090     1   110.5600475 386.601600
   1088   1087   1089     1   109.7500473 328.025600
   1089   1087   1090     1   110.5600475 386.601600
   1090   1099   1100     1   109.5600471 388.275200
   1090   1099   1101     1   109.5600471 388.275200
   1091   1090   1099     1   109.8000471 387.438400
   1091   1090   1092     1   107.5800459 329.699200
   1092   1090   1099     1   109.8000471 387.438400
   1093   1105   1106     1   109.5600471 388.275200
   1093   1105   1107     1   109.5600471 388.275200
   1094   1093   1105     1   109.8000471 387.438400
   1094   1093   1095     1   107.5800459 329.699200
   1095   1093   1105     1   109.8000471 387.438400
   1096   1102   1103     1   109.5600471 388.275200
   1096   1102   1104     1   109.5600471 388.275200
   1097   1096   1102     1   109.8000471 387.438400
   1097   1096   1098     1   107.5800459 329.699200
   1098   1096   1102     1   109.8000471 387.438400
   1100   1099   1108     1   109.7800468 425.094400
   1100   1099   1101     1   108.4600466 328.025600
   1101   1099   1108     1   109.7800468 425.094400
   1103   1102   2146     1   109.7800468 425.094400
   1103   1102   1104     1   108.4600466 328.025600
   1104   1102   2146     1   109.7800468 425.094400
   1106   1105   2169     1   109.7800468 425.094400
   1106   1105   1107     1   108.4600466 328.025600
   1107   1105   2169     1   109.7800468 425.094400
   1110   1111   1112     1   108.0100461 406.684800
   1110   1111   1113     1   108.0100461 406.684800
   1110   1114   1115     1   108.0100461 406.684800
   1110   1114   1116     1   108.0100461 406.684800
   1110   1117   1118     1   108.0100461 406.684800
   1110   1117   1119     1   108.0100461 406.684800
   1111   1110   1139     1   110.1100470 384.091200
   1111   1123   1124     1   109.8000471 387.438400
   1111   1123   1125     1   109.8000471 387.438400
   1112   1111   1123     1   110.5600475 386.601600
   1112   1111   1113     1   109.7500473 328.025600
   1113   1111   1123     1   110.5600475 386.601600
   1114   1110   1139     1   110.1100470 384.091200
   1114   1126   1127     1   109.8000471 387.438400
   1114   1126   1128     1   109.8000471 387.438400
   1115   1114   1126     1   110.5600475 386.601600
   1115   1114   1116     1   109.7500473 328.025600
   1116   1114   1126     1   110.5600475 386.601600
   1117   1110   1139     1   110.1100470 384.091200
   1117   1120   1121     1   109.8000471 387.438400
   1117   1120   1122     1   109.8000471 387.438400
   1118   1117   1120     1   110.5600475 386.601600
   1118   1117   1119     1   109.7500473 328.025600
   1119   1117   1120     1   110.5600475 386.601600
   1120   1129   1130     1   109.5600471 388.275200
   1120   1129   1131     1   109.5600471 388.275200
   1121   1120   1129     1   109.8000471 387.438400
   1121   1120   1122     1   107.5800459 329.699200
   1122   1120   1129     1   109.8000471 387.438400
   1123   1135   1136     1   109.5600471 388.275200
   1123   1135   1137     1   109.5600471 388.275200
   1124   1123   1135     1   109.8000471 387.438400
   1124   1123   1125     1   107.5800459 329.699200
   1125   1123   1135     1   109.8000471 387.438400
   1126   1132   1133     1   109.5600471 388.275200
   1126   1132   1134     1   109.5600471 388.275200
   1127   1126   1132     1   109.8000471 387.438400
   1127   1126   1128     1   107.5800459 329.699200
   1128   1126   1132     1   109.8000471 387.438400
   1130   1129   1138     1   109.7800468 425.094400
   1130   1129   1131     1   108.4600466 328.025600
   1131   1129   1138     1   109.7800468 425.094400
   1133   1132   2192     1   109.7800468 425.094400
   1133   1132   1134     1   108.4600466 328.025600
   1134   1132   2192     1   109.7800468 425.094400
   1136   1135   2215     1   109.7800468 425.094400
   1136   1135   1137     1   108.4600466 328.025600
   1137   1135   2215     1   109.7800468 425.094400
   1140   1141   1142     1   108.0100461 406.684800
   1140   1141   1143     1   108.0100461 406.684800
   1140   1144   1145     1   108.0100461 406.684800
   1140   1144   1146     1   108.0100461 406.684800
   1140   1147   1148     1   108.0100461 406.684800
   1140   1147   1149     1   108.0100461 406.684800
   1141   1140   1169     1   110.1100470 384.091200
   1141   1153   1154     1   109.8000471 387.438400
   1141   1153   1155     1   109.8000471 387.438400
   1142   1141   1153     1   110.5600475 386.601600
   1142   1141   1143     1   109.7500473 328.025600
   1143   1141   1153     1   110.5600475 386.601600
   1144   1140   1169     1   110.1100470 384.091200
   1144   1156   1157     1   109.8000471 387.438400
   1144   1156   1158     1   109.8000471 387.438400
   1145   1144   1156     1   110.5600475 386.601600
   1145   1144   1146     1   109.7500473 328.025600
   1146   1144   1156     1   110.5600475 386.601600
   1147   1140   1169     1   110.1100470 384.091200
   1147   1150   1151     1   109.8000471 387.438400
   1147   1150   1152     1   109.8000471 387.438400
   1148   1147   1150     1   110.5600475 386.601600
   1148   1147   1149     1   109.7500473 328.025600
   1149   1147   1150     1   110.5600475 386.601600
   1150   1159   1160     1   109.5600471 388.275200
   1150   1159   1161     1   109.5600471 388.275200
   1151   1150   1159     1   109.8000471 387.438400
   1151   1150   1152     1   107.5800459 329.699200
   1152   1150   1159     1   109.8000471 387.438400
   1153   1165   1166     1   109.5600471 388.275200
   1153   1165   1167     1   109.5600471 388.275200
   1154   1153   1165     1   109.8000471 387.438400
   1154   1153   1155     1   107.5800459 329.699200
   1155   1153   1165     1   109.8000471 387.438400
   1156   1162   1163     1   109.5600471 388.275200
   1156   1162   1164     1   109.5600471 388.275200
   1157   1156   1162     1   109.8000471 387.438400
   1157   1156   1158     1   107.5800459 329.699200
   1158   1156   1162     1   109.8000471 387.438400
   1160   1159   1168     1   109.7800468 425.094400
   1160   1159   1161     1   108.4600466 328.025600
   1161   1159   1168     1   109.7800468 425.094400
   1163   1162   2238     1   109.7800468 425.094400
   1163   1162   1164     1   108.4600466 328.025600
   1164   1162   2238     1   109.7800468 425.094400
   1166   1165   2261     1   109.7800468 425.094400
   1166   1165   1167     1   108.4600466 328.025600
   1167   1165   2261     1   109.7800468 425.094400
   1170   1171   1172     1   108.0100461 406.684800
   1170   1171   1173     1   108.0100461 406.684800
   1170   1174   1175     1   108.0100461 406.684800
   1170   1174   1176     1   108.0100461 406.684800
   1170   1177   1178     1   108.0100461 406.684800
   1170   1177   1179     1   108.0100461 406.684800
   1171   1170   1199     1   110.1100470 384.091200
   1171   1183   1184     1   109.8000471 387.438400
   1171   1183   1185     1   109.8000471 387.438400
   1172   1171   1183     1   110.5600475 386.601600
   1172   1171   1173     1   109.7500473 328.025600
   1173   1171   1183     1   110.5600475 386.601600
   1174   1170   1199     1   110.1100470 384.091200
   1174   1186   1187     1   109.8000471 387.438400
   1174   1186   1188     1   109.8000471 387.438400
   1175   1174   1186     1   110.5600475 386.601600
   1175   1174   1176     1   109.7500473 328.025600
   1176   1174   1186     1   110.5600475 386.601600
   1177   1170   1199     1   110.1100470 384.091200
   1177   1180   1181     1   109.8000471 387.438400
   1177   1180   1182     1   109.8000471 387.438400
   1178   1177   1180     1   110.5600475 386.601600
   1178   1177   1179     1   109.7500473 328.025600
   1179   1177   1180     1   110.5600475 386.601600
   1180   1189   1190     1   109.5600471 388.275200
   1180   1189   1191     1   109.5600471 388.275200
   1181   1180   1189     1   109.8000471 387.438400
   1181   1180   1182     1   107.5800459 329.699200
   1182   1180   1189     1   109.8000471 387.438400
   1183   1195   1196     1   109.5600471 388.275200
   1183   1195   1197     1   109.5600471 388.275200
   1184   1183   1195     1   109.8000471 387.438400
   1184   1183   1185     1   107.5800459 329.699200
   1185   1183   1195     1   109.8000471 387.438400
   1186   1192   1193     1   109.5600471 388.275200
   1186   1192   1194     1   109.5600471 388.275200
   1187   1186   1192     1   109.8000471 387.438400
   1187   1186   1188     1   107.5800459 329.699200
   1188   1186   1192     1   109.8000471 387.438400
   1190   1189   1198     1   109.7800468 425.094400
   1190   1189   1191     1   108.4600466 328.025600
   1191   1189   1198     1   109.7800468 425.094400
   1193   1192   2284     1   109.7800468 425.094400
   1193   1192   1194     1   108.4600466 328.025600
   1194   1192   2284     1   109.7800468 425.094400
   1196   1195   2307     1   109.7800468 425.094400
   1196   1195   1197     1   108.4600466 328.025600
   1197   1195   2307     1   109.7800468 425.094400
   1200   1201   1202     1   108.0100461 406.684800
   1200   1201   1203     1   108.0100461 406.684800
   1200   1204   1205     1   108.0100461 406.684800
   1200   1204   1206     1   108.0100461 406.684800
   1200   1207   1208     1   108.0100461 406.684800
   1200   1207   1209     1   108.0100461 406.684800
   1201   1200   1229     1   110.1100470 384.091200
   1201   1213   1214     1   109.8000471 387.438400
   1201   1213   1215     1   109.8000471 387.438400
   1202   1201   1213     1   110.5600475 386.601600
   1202   1201   1203     1   109.7500473 328.025600
   1203   1201   1213     1   110.5600475 386.601600
   1204   1200   1229     1   110.1100470 384.091200
   1204   1216   1217     1   109.8000471 387.438400
   1204   1216   1218     1   109.8000471 387.438400
   1205   1204   1216     1   110.5600475 386.601600
   1205   1204   1206     1   109.7500473 328.025600
   1206   1204   1216     1   110.5600475 386.601600
   1207   1200   1229     1   110.1100470 384.091200
   1207   1210   1211     1   109.8000471 387.438400
   1207   1210   1212     1   109.8000471 387.438400
   1208   1207   1210     1   110.5600475 386.601600
   1208   1207   1209     1   109.7500473 328.025600
   1209   1207   1210     1   110.5600475 386.601600
   1210   1219   1220     1   109.5600471 388.275200
   1210   1219   1221     1   109.5600471 388.275200
   1211   1210   1219     1   109.8000471 387.438400
   1211   1210   1212     1   107.5800459 329.699200
   1212   1210   1219     1   109.8000471 387.438400
   1213   1225   1226     1   109.5600471 388.275200
   1213   1225   1227     1   109.5600471 388.275200
   1214   1213   1225     1   109.8000471 387.438400
   1214   1213   1215     1   107.5800459 329.699200
   1215   1213   1225     1   109.8000471 387.438400
   1216   1222   1223     1   109.5600471 388.275200
   1216   1222   1224     1   109.5600471 388.275200
   1217   1216   1222     1   109.8000471 387.438400
   1217   1216   1218     1   107.5800459 329.699200
   1218   1216   1222     1   109.8000471 387.438400
   1220   1219   1228     1   109.7800468 425.094400
   1220   1219   1221     1   108.4600466 328.025600
   1221   1219   1228     1   109.7800468 425.094400
   1223   1222   2330     1   109.7800468 425.094400
   1223   1222   1224     1   108.4600466 328.025600
   1224   1222   2330     1   109.7800468 425.094400
   1226   1225   2353     1   109.7800468 425.094400
   1226   1225   1227     1   108.4600466 328.025600
   1227   1225   2353     1   109.7800468 425.094400
   1230   1231   1232     1   108.0100461 406.684800
   1230   1231   1233     1   108.0100461 406.684800
   1230   1234   1235     1   108.0100461 406.684800
   1230   1234   1236     1   108.0100461 406.684800
   1230   1237   1238     1   108.0100461 406.684800
   1230   1237   1239     1   108.0100461 406.684800
   1231   1230   1259     1   110.1100470 384.091200
   1231   1243   1244     1   109.8000471 387.438400
   1231   1243   1245     1   109.8000471 387.438400
   1232   1231   1243     1   110.5600475 386.601600
   1232   1231   1233     1   109.7500473 328.025600
   1233   1231   1243     1   110.5600475 386.601600
   1234   1230   1259     1   110.1100470 384.091200
   1234   1246   1247     1   109.8000471 387.438400
   1234   1246   1248     1   109.8000471 387.438400
   1235   1234   1246     1   110.5600475 386.601600
   1235   1234   1236     1   109.7500473 328.025600
   1236   1234   1246     1   110.5600475 386.601600
   1237   1230   1259     1   110.1100470 384.091200
   1237   1240   1241     1   109.8000471 387.438400
   1237   1240   1242     1   109.8000471 387.438400
   1238   1237   1240     1   110.5600475 386.601600
   1238   1237   1239     1   109.7500473 328.025600
   1239   1237   1240     1   110.5600475 386.601600
   1240   1249   1250     1   109.5600471 388.275200
   1240   1249   1251     1   109.5600471 388.275200
   1241   1240   1249     1   109.8000471 387.438400
   1241   1240   1242     1   107.5800459 329.699200
   1242   1240   1249     1   109.8000471 387.438400
   1243   1255   1256     1   109.5600471 388.275200
   1243   1255   1257     1   109.5600471 388.275200
   1244   1243   1255     1   109.8000471 387.438400
   1244   1243   1245     1   107.5800459 329.699200
   1245   1243   1255     1   109.8000471 387.438400
   1246   1252   1253     1   109.5600471 388.275200
   1246   1252   1254     1   109.5600471 388.275200
   1247   1246   1252     1   109.8000471 387.438400
   1247   1246   1248     1   107.5800459 329.699200
   1248   1246   1252     1   109.8000471 387.438400
   1250   1249   1258     1   109.7800468 425.094400
   1250   1249   1251     1   108.4600466 328.025600
   1251   1249   1258     1   109.7800468 425.094400
   1253   1252   2376     1   109.7800468 425.094400
   1253   1252   1254     1   108.4600466 328.025600
   1254   1252   2376     1   109.7800468 425.094400
   1256   1255   2399     1   109.7800468 425.094400
   1256   1255   1257     1   108.4600466 328.025600
   1257   1255   2399     1   109.7800468 425.094400
   1260   1261   1262     1   108.0100461 406.684800
   1260   1261   1263     1   108.0100461 406.684800
   1260   1264   1265     1   108.0100461 406.684800
   1260   1264   1266     1   108.0100461 406.684800
   1260   1267   1268     1   108.0100461 406.684800
   1260   1267   1269     1   108.0100461 406.684800
   1261   1260   1289     1   110.1100470 384.091200
   1261   1273   1274     1   109.8000471 387.438400
   1261   1273   1275     1   109.8000471 387.438400
   1262   1261   1273     1   110.5600475 386.601600
   1262   1261   1263     1   109.7500473 328.025600
   1263   1261   1273     1   110.5600475 386.601600
   1264   1260   1289     1   110.1100470 384.091200
   1264   1276   1277     1   109.8000471 387.438400
   1264   1276   1278     1   109.8000471 387.438400
   1265   1264   1276     1   110.5600475 386.601600
   1265   1264   1266     1   109.7500473 328.025600
   1266   1264   1276     1   110.5600475 386.601600
   1267   1260   1289     1   110.1100470 384.091200
   1267   1270   1271     1   109.8000471 387.438400
   1267   1270   1272     1   109.8000471 387.438400
   1268   1267   1270     1   110.5600475 386.601600
   1268   1267   1269     1   109.7500473 328.025600
   1269   1267   1270     1   110.5600475 386.601600
   1270   1279   1280     1   109.5600471 388.275200
   1270   1279   1281     1   109.5600471 388.275200
   1271   1270   1279     1   109.8000471 387.438400
   1271   1270   1272     1   107.5800459 329.699200
   1272   1270   1279     1   109.8000471 387.438400
   1273   1285   1286     1   109.5600471 388.275200
   1273   1285   1287     1   109.5600471 388.275200
   1274   1273   1285     1   109.8000471 387.438400
   1274   1273   1275     1   107.5800459 329.699200
   1275   1273   1285     1   109.8000471 387.438400
   1276   1282   1283     1   109.5600471 388.275200
   1276   1282   1284     1   109.5600471 388.275200
   1277   1276   1282     1   109.8000471 387.438400
   1277   1276   1278     1   107.5800459 329.699200
   1278   1276   1282     1   109.8000471 387.438400
   1280   1279   1288     1   109.7800468 425.094400
   1280   1279   1281     1   108.4600466 328.025600
   1281   1279   1288     1   109.7800468 425.094400
   1283   1282   2422     1   109.7800468 425.094400
   1283   1282   1284     1   108.4600466 328.025600
   1284   1282   2422     1   109.7800468 425.094400
   1286   1285   2445     1   109.7800468 425.094400
   1286   1285   1287     1   108.4600466 328.025600
   1287   1285   2445     1   109.7800468 425.094400
   1290   1291   1292     1   108.0100461 406.684800
   1290   1291   1293     1   108.0100461 406.684800
   1290   1294   1295     1   108.0100461 406.684800
   1290   1294   1296     1   108.0100461 406.684800
   1290   1297   1298     1   108.0100461 406.684800
   1290   1297   1299     1   108.0100461 406.684800
   1291   1290   1319     1   110.1100470 384.091200
   1291   1303   1304     1   109.8000471 387.438400
   1291   1303   1305     1   109.8000471 387.438400
   1292   1291   1303     1   110.5600475 386.601600
   1292   1291   1293     1   109.7500473 328.025600
   1293   1291   1303     1   110.5600475 386.601600
   1294   1290   1319     1   110.1100470 384.091200
   1294   1306   1307     1   109.8000471 387.438400
   1294   1306   1308     1   109.8000471 387.438400
   1295   1294   1306     1   110.5600475 386.601600
   1295   1294   1296     1   109.7500473 328.025600
   1296   1294   1306     1   110.5600475 386.601600
   1297   1290   1319     1   110.1100470 384.091200
   1297   1300   1301     1   109.8000471 387.438400
   1297   1300   1302     1   109.8000471 387.438400
   1298   1297   1300     1   110.5600475 386.601600
   1298   1297   1299     1   109.7500473 328.025600
   1299   1297   1300     1   110.5600475 386.601600
   1300   1309   1310     1   109.5600471 388.275200
   1300   1309   1311     1   109.5600471 388.275200
   1301   1300   1309     1   109.8000471 387.438400
   1301   1300   1302     1   107.5800459 329.699200
   1302   1300   1309     1   109.8000471 387.438400
   1303   1315   1316     1   109.5600471 388.275200
   1303   1315   1317     1   109.5600471 388.275200
   1304   1303   1315     1   109.8000471 387.438400
   1304   1303   1305     1   107.5800459 329.699200
   1305   1303   1315     1   109.8000471 387.438400
   1306   1312   1313     1   109.5600471 388.275200
   1306   1312   1314     1   109.5600471 388.275200
   1307   1306   1312     1   109.8000471 387.438400
   1307   1306   1308     1   107.5800459 329.699200
   1308   1306   1312     1   109.8000471 387.438400
   1310   1309   1318     1   109.7800468 425.094400
   1310   1309   1311     1   108.4600466 328.025600
   1311   1309   1318     1   109.7800468 425.094400
   1313   1312   2468     1   109.7800468 425.094400
   1313   1312   1314     1   108.4600466 328.025600
   1314   1312   2468     1   109.7800468 425.094400
   1316   1315   2491     1   109.7800468 425.094400
   1316   1315   1317     1   108.4600466 328.025600
   1317   1315   2491     1   109.7800468 425.094400
   1320   1321   1322     1   108.0100461 406.684800
   1320   1321   1323     1   108.0100461 406.684800
   1320   1324   1325     1   108.0100461 406.684800
   1320   1324   1326     1   108.0100461 406.684800
   1320   1327   1328     1   108.0100461 406.684800
   1320   1327   1329     1   108.0100461 406.684800
   1321   1320   1349     1   110.1100470 384.091200
   1321   1333   1334     1   109.8000471 387.438400
   1321   1333   1335     1   109.8000471 387.438400
   1322   1321   1333     1   110.5600475 386.601600
   1322   1321   1323     1   109.7500473 328.025600
   1323   1321   1333     1   110.5600475 386.601600
   1324   1320   1349     1   110.1100470 384.091200
   1324   1336   1337     1   109.8000471 387.438400
   1324   1336   1338     1   109.8000471 387.438400
   1325   1324   1336     1   110.5600475 386.601600
   1325   1324   1326     1   109.7500473 328.025600
   1326   1324   1336     1   110.5600475 386.601600
   1327   1320   1349     1   110.1100470 384.091200
   1327   1330   1331     1   109.8000471 387.438400
   1327   1330   1332     1   109.8000471 387.438400
   1328   1327   1330     1   110.5600475 386.601600
   1328   1327   1329     1   109.7500473 328.025600
   1329   1327   1330     1   110.5600475 386.601600
   1330   1339   1340     1   109.5600471 388.275200
   1330   1339   1341     1   109.5600471 388.275200
   1331   1330   1339     1   109.8000471 387.438400
   1331   1330   1332     1   107.5800459 329.699200
   1332   1330   1339     1   109.8000471 387.438400
   1333   1345   1346     1   109.5600471 388.275200
   1333   1345   1347     1   109.5600471 388.275200
   1334   1333   1345     1   109.8000471 387.438400
   1334   1333   1335     1   107.5800459 329.699200
   1335   1333   1345     1   109.8000471 387.438400
   1336   1342   1343     1   109.5600471 388.275200
   1336   1342   1344     1   109.5600471 388.275200
   1337   1336   1342     1   109.8000471 387.438400
   1337   1336   1338     1   107.5800459 329.699200
   1338   1336   1342     1   109.8000471 387.438400
   1340   1339   1348     1   109.7800468 425.094400
   1340   1339   1341     1   108.4600466 328.025600
   1341   1339   1348     1   109.7800468 425.094400
   1343   1342   2514     1   109.7800468 425.094400
   1343   1342   1344     1   108.4600466 328.025600
   1344   1342   2514     1   109.7800468 425.094400
   1346   1345   2537     1   109.7800468 425.094400
   1346   1345   1347     1   108.4600466 328.025600
   1347   1345   2537     1   109.7800468 425.094400
   1350   1351   1352     1   108.0100461 406.684800
   1350   1351   1353     1   108.0100461 406.684800
   1350   1354   1355     1   108.0100461 406.684800
   1350   1354   1356     1   108.0100461 406.684800
   1350   1357   1358     1   108.0100461 406.684800
   1350   1357   1359     1   108.0100461 406.684800
   1351   1350   1379     1   110.1100470 384.091200
   1351   1363   1364     1   109.8000471 387.438400
   1351   1363   1365     1   109.8000471 387.438400
   1352   1351   1363     1   110.5600475 386.601600
   1352   1351   1353     1   109.7500473 328.025600
   1353   1351   1363     1   110.5600475 386.601600
   1354   1350   1379     1   110.1100470 384.091200
   1354   1366   1367     1   109.8000471 387.438400
   1354   1366   1368     1   109.8000471 387.438400
   1355   1354   1366     1   110.5600475 386.601600
   1355   1354   1356     1   109.7500473 328.025600
   1356   1354   1366     1   110.5600475 386.601600
   1357   1350   1379     1   110.1100470 384.091200
   1357   1360   1361     1   109.8000471 387.438400
   1357   1360   1362     1   109.8000471 387.438400
   1358   1357   1360     1   110.5600475 386.601600
   1358   1357   1359     1   109.7500473 328.025600
   1359   1357   1360     1   110.5600475 386.601600
   1360   1369   1370     1   109.5600471 388.275200
   1360   1369   1371     1   109.5600471 388.275200
   1361   1360   1369     1   109.8000471 387.438400
   1361   1360   1362     1   107.5800459 329.699200
   1362   1360   1369     1   109.8000471 387.438400
   1363   1375   1376     1   109.5600471 388.275200
   1363   1375   1377     1   109.5600471 388.275200
   1364   1363   1375     1   109.8000471 387.438400
   1364   1363   1365     1   107.5800459 329.699200
   1365   1363   1375     1   109.8000471 387.438400
   1366   1372   1373     1   109.5600471 388.275200
   1366   1372   1374     1   109.5600471 388.275200
   1367   1366   1372     1   109.8000471 387.438400
   1367   1366   1368     1   107.5800459 329.699200
   1368   1366   1372     1   109.8000471 387.438400
   1370   1369   1378     1   109.7800468 425.094400
   1370   1369   1371     1   108.4600466 328.025600
   1371   1369   1378     1   109.7800468 425.094400
   1373   1372   2560     1   109.7800468 425.094400
   1373   1372   1374     1   108.4600466 328.025600
   1374   1372   2560     1   109.7800468 425.094400
   1376   1375   2583     1   109.7800468 425.094400
   1376   1375   1377     1   108.4600466 328.025600
   1377   1375   2583     1   109.7800468 425.094400
   1380   1381   1382     1   108.0100461 406.684800
   1380   1381   1383     1   108.0100461 406.684800
   1380   1384   1385     1   108.0100461 406.684800
   1380   1384   1386     1   108.0100461 406.684800
   1380   1387   1388     1   108.0100461 406.684800
   1380   1387   1389     1   108.0100461 406.684800
   1381   1380   1409     1   110.1100470 384.091200
   1381   1393   1394     1   109.8000471 387.438400
   1381   1393   1395     1   109.8000471 387.438400
   1382   1381   1393     1   110.5600475 386.601600
   1382   1381   1383     1   109.7500473 328.025600
   1383   1381   1393     1   110.5600475 386.601600
   1384   1380   1409     1   110.1100470 384.091200
   1384   1396   1397     1   109.8000471 387.438400
   1384   1396   1398     1   109.8000471 387.438400
   1385   1384   1396     1   110.5600475 386.601600
   1385   1384   1386     1   109.7500473 328.025600
   1386   1384   1396     1   110.5600475 386.601600
   1387   1380   1409     1   110.1100470 384.091200
   1387   1390   1391     1   109.8000471 387.438400
   1387   1390   1392     1   109.8000471 387.438400
   1388   1387   1390     1   110.5600475 386.601600
   1388   1387   1389     1   109.7500473 328.025600
   1389   1387   1390     1   110.5600475 386.601600
   1390   1399   1400     1   109.5600471 388.275200
   1390   1399   1401     1   109.5600471 388.275200
   1391   1390   1399     1   109.8000471 387.438400
   1391   1390   1392     1   107.5800459 329.699200
   1392   1390   1399     1   109.8000471 387.438400
   1393   1405   1406     1   109.5600471 388.275200
   1393   1405   1407     1   109.5600471 388.275200
   1394   1393   1405     1   109.8000471 387.438400
   1394   1393   1395     1   107.5800459 329.699200
   1395   1393   1405     1   109.8000471 387.438400
   1396   1402   1403     1   109.5600471 388.275200
   1396   1402   1404     1   109.5600471 388.275200
   1397   1396   1402     1   109.8000471 387.438400
   1397   1396   1398     1   107.5800459 329.699200
   1398   1396   1402     1   109.8000471 387.438400
   1400   1399   1408     1   109.7800468 425.094400
   1400   1399   1401     1   108.4600466 328.025600
   1401   1399   1408     1   109.7800468 425.094400
   1403   1402   2606     1   109.7800468 425.094400
   1403   1402   1404     1   108.4600466 328.025600
   1404   1402   2606     1   109.7800468 425.094400
   1406   1405   2629     1   109.7800468 425.094400
   1406   1405   1407     1   108.4600466 328.025600
   1407   1405   2629     1   109.7800468 425.094400
   1410   1411   1412     1   108.0100461 406.684800
   1410   1411   1413     1   108.0100461 406.684800
   1410   1414   1415     1   108.0100461 406.684800
   1410   1414   1416     1   108.0100461 406.684800
   1410   1417   1418     1   108.0100461 406.684800
   1410   1417   1419     1   108.0100461 406.684800
   1411   1410   1439     1   110.1100470 384.091200
   1411   1423   1424     1   109.8000471 387.438400
   1411   1423   1425     1   109.8000471 387.438400
   1412   1411   1423     1   110.5600475 386.601600
   1412   1411   1413     1   109.7500473 328.025600
   1413   1411   1423     1   110.5600475 386.601600
   1414   1410   1439     1   110.1100470 384.091200
   1414   1426   1427     1   109.8000471 387.438400
   1414   1426   1428     1   109.8000471 387.438400
   1415   1414   1426     1   110.5600475 386.601600
   1415   1414   1416     1   109.7500473 328.025600
   1416   1414   1426     1   110.5600475 386.601600
   1417   1410   1439     1   110.1100470 384.091200
   1417   1420   1421     1   109.8000471 387.438400
   1417   1420   1422     1   109.8000471 387.438400
   1418   1417   1420     1   110.5600475 386.601600
   1418   1417   1419     1   109.7500473 328.025600
   1419   1417   1420     1   110.5600475 386.601600
   1420   1429   1430     1   109.5600471 388.275200
   1420   1429   1431     1   109.5600471 388.275200
   1421   1420   1429     1   109.8000471 387.438400
   1421   1420   1422     1   107.5800459 329.699200
   1422   1420   1429     1   109.8000471 387.438400
   1423   1435   1436     1   109.5600471 388.275200
   1423   1435   1437     1   109.5600471 388.275200
   1424   1423   1435     1   109.8000471 387.438400
   1424   1423   1425     1   107.5800459 329.699200
   1425   1423   1435     1   109.8000471 387.438400
   1426   1432   1433     1   109.5600471 388.275200
   1426   1432   1434     1   109.5600471 388.275200
   1427   1426   1432     1   109.8000471 387.438400
   1427   1426   1428     1   107.5800459 329.699200
   1428   1426   1432     1   109.8000471 387.438400
   1430   1429   1438     1   109.7800468 425.094400
   1430   1429   1431     1   108.4600466 328.025600
   1431   1429   1438     1   109.7800468 425.094400
   1433   1432   2652     1   109.7800468 425.094400
   1433   1432   1434     1   108.4600466 328.025600
   1434   1432   2652     1   109.7800468 425.094400
   1436   1435   2675     1   109.7800468 425.094400
   1436   1435   1437     1   108.4600466 328.025600
   1437   1435   2675     1   109.7800468 425.094400
   1440   1441   1442     1   108.0100461 406.684800
   1440   1441   1443     1   108.0100461 406.684800
   1440   1444   1445     1   108.0100461 406.684800
   1440   1444   1446     1   108.0100461 406.684800
   1440   1447   1448     1   108.0100461 406.684800
   1440   1447   1449     1   108.0100461 406.684800
   1441   1440   1469     1   110.1100470 384.091200
   1441   1453   1454     1   109.8000471 387.438400
   1441   1453   1455     1   109.8000471 387.438400
   1442   1441   1453     1   110.5600475 386.601600
   1442   1441   1443     1   109.7500473 328.025600
   1443   1441   1453     1   110.5600475 386.601600
   1444   1440   1469     1   110.1100470 384.091200
   1444   1456   1457     1   109.8000471 387.438400
   1444   1456   1458     1   109.8000471 387.438400
   1445   1444   1456     1   110.5600475 386.601600
   1445   1444   1446     1   109.7500473 328.025600
   1446   1444   1456     1   110.5600475 386.601600
   1447   1440   1469     1   110.1100470 384.091200
   1447   1450   1451     1   109.8000471 387.438400
   1447   1450   1452     1   109.8000471 387.438400
   1448   1447   1450     1   110.5600475 386.601600
   1448   1447   1449     1   109.7500473 328.025600
   1449   1447   1450     1   110.5600475 386.601600
   1450   1459   1460     1   109.5600471 388.275200
   1450   1459   1461     1   109.5600471 388.275200
   1451   1450   1459     1   109.8000471 387.438400
   1451   1450   1452     1   107.5800459 329.699200
   1452   1450   1459     1   109.8000471 387.438400
   1453   1465   1466     1   109.5600471 388.275200
   1453   1465   1467     1   109.5600471 388.275200
   1454   1453   1465     1   109.8000471 387.438400
   1454   1453   1455     1   107.5800459 329.699200
   1455   1453   1465     1   109.8000471 387.438400
   1456   1462   1463     1   109.5600471 388.275200
   1456   1462   1464     1   109.5600471 388.275200
   1457   1456   1462     1   109.8000471 387.438400
   1457   1456   1458     1   107.5800459 329.699200
   1458   1456   1462     1   109.8000471 387.438400
   1460   1459   1468     1   109.7800468 425.094400
   1460   1459   1461     1   108.4600466 328.025600
   1461   1459   1468     1   109.7800468 425.094400
   1463   1462   2698     1   109.7800468 425.094400
   1463   1462   1464     1   108.4600466 328.025600
   1464   1462   2698     1   109.7800468 425.094400
   1466   1465   2721     1   109.7800468 425.094400
   1466   1465   1467     1   108.4600466 328.025600
   1467   1465   2721     1   109.7800468 425.094400
   1470   1471   1472     1   108.0100461 406.684800
   1470   1471   1473     1   108.0100461 406.684800
   1470   1474   1475     1   108.0100461 406.684800
   1470   1474   1476     1   108.0100461 406.684800
   1470   1477   1478     1   108.0100461 406.684800
   1470   1477   1479     1   108.0100461 406.684800
   1471   1470   1499     1   110.1100470 384.091200
   1471   1483   1484     1   109.8000471 387.438400
   1471   1483   1485     1   109.8000471 387.438400
   1472   1471   1483     1   110.5600475 386.601600
   1472   1471   1473     1   109.7500473 328.025600
   1473   1471   1483     1   110.5600475 386.601600
   1474   1470   1499     1   110.1100470 384.091200
   1474   1486   1487     1   109.8000471 387.438400
   1474   1486   1488     1   109.8000471 387.438400
   1475   1474   1486     1   110.5600475 386.601600
   1475   1474   1476     1   109.7500473 328.025600
   1476   1474   1486     1   110.5600475 386.601600
   1477   1470   1499     1   110.1100470 384.091200
   1477   1480   1481     1   109.8000471 387.438400
   1477   1480   1482     1   109.8000471 387.438400
   1478   1477   1480     1   110.5600475 386.601600
   1478   1477   1479     1   109.7500473 328.025600
   1479   1477   1480     1   110.5600475 386.601600
   1480   1489   1490     1   109.5600471 388.275200
   1480   1489   1491     1   109.5600471 388.275200
   1481   1480   1489     1   109.8000471 387.438400
   1481   1480   1482     1   107.5800459 329.699200
   1482   1480   1489     1   109.8000471 387.438400
   1483   1495   1496     1   109.5600471 388.275200
   1483   1495   1497     1   109.5600471 388.275200
   1484   1483   1495     1   109.8000471 387.438400
   1484   1483   1485     1   107.5800459 329.699200
   1485   1483   1495     1   109.8000471 387.438400
   1486   1492   1493     1   109.5600471 388.275200
   1486   1492   1494     1   109.5600471 388.275200
   1487   1486   1492     1   109.8000471 387.438400
   1487   1486   1488     1   107.5800459 329.699200
   1488   1486   1492     1   109.8000471 387.438400
   1490   1489   1498     1   109.7800468 425.094400
   1490   1489   1491     1   108.4600466 328.025600
   1491   1489   1498     1   109.7800468 425.094400
   1493   1492   2744     1   109.7800468 425.094400
   1493   1492   1494     1   108.4600466 328.025600
   1494   1492   2744     1   109.7800468 425.094400
   1496   1495   2767     1   109.7800468 425.094400
   1496   1495   1497     1   108.4600466 328.025600
   1497   1495   2767     1   109.7800468 425.094400
   1500   1501   1502     1   108.0100461 406.684800
   1500   1501   1503     1   108.0100461 406.684800
   1500   1504   1505     1   108.0100461 406.684800
   1500   1504   1506     1   108.0100461 406.684800
   1500   1507   1508     1   108.0100461 406.684800
   1500   1507   1509     1   108.0100461 406.684800
   1501   1500   1529     1   110.1100470 384.091200
   1501   1513   1514     1   109.8000471 387.438400
   1501   1513   1515     1   109.8000471 387.438400
   1502   1501   1513     1   110.5600475 386.601600
   1502   1501   1503     1   109.7500473 328.025600
   1503   1501   1513     1   110.5600475 386.601600
   1504   1500   1529     1   110.1100470 384.091200
   1504   1516   1517     1   109.8000471 387.438400
   1504   1516   1518     1   109.8000471 387.438400
   1505   1504   1516     1   110.5600475 386.601600
   1505   1504   1506     1   109.7500473 328.025600
   1506   1504   1516     1   110.5600475 386.601600
   1507   1500   1529     1   110.1100470 384.091200
   1507   1510   1511     1   109.8000471 387.438400
   1507   1510   1512     1   109.8000471 387.438400
   1508   1507   1510     1   110.5600475 386.601600
   1508   1507   1509     1   109.7500473 328.025600
   1509   1507   1510     1   110.5600475 386.601600
   1510   1519   1520     1   109.5600471 388.275200
   1510   1519   1521     1   109.5600471 388.275200
   1511   1510   1519     1   109.8000471 387.438400
   1511   1510   1512     1   107.5800459 329.699200
   1512   1510   1519     1   109.8000471 387.438400
   1513   1525   1526     1   109.5600471 388.275200
   1513   1525   1527     1   109.5600471 388.275200
   1514   1513   1525     1   109.8000471 387.438400
   1514   1513   1515     1   107.5800459 329.699200
   1515   1513   1525     1   109.8000471 387.438400
   1516   1522   1523     1   109.5600471 388.275200
   1516   1522   1524     1   109.5600471 388.275200
   1517   1516   1522     1   109.8000471 387.438400
   1517   1516   1518     1   107.5800459 329.699200
   1518   1516   1522     1   109.8000471 387.438400
   1520   1519   1528     1   109.7800468 425.094400
   1520   1519   1521     1   108.4600466 328.025600
   1521   1519   1528     1   109.7800468 425.094400
   1523   1522   2790     1   109.7800468 425.094400
   1523   1522   1524     1   108.4600466 328.025600
   1524   1522   2790     1   109.7800468 425.094400
   1526   1525   2813     1   109.7800468 425.094400
   1526   1525   1527     1   108.4600466 328.025600
   1527   1525   2813     1   109.7800468 425.094400
   1530   1531   1532     1   108.0100461 406.684800
   1530   1531   1533     1   108.0100461 406.684800
   1530   1534   1535     1   108.0100461 406.684800
   1530   1534   1536     1   108.0100461 406.684800
   1530   1537   1538     1   108.0100461 406.684800
   1530   1537   1539     1   108.0100461 406.684800
   1531   1530   1559     1   110.1100470 384.091200
   1531   1543   1544     1   109.8000471 387.438400
   1531   1543   1545     1   109.8000471 387.438400
   1532   1531   1543     1   110.5600475 386.601600
   1532   1531   1533     1   109.7500473 328.025600
   1533   1531   1543     1   110.5600475 386.601600
   1534   1530   1559     1   110.1100470 384.091200
   1534   1546   1547     1   109.8000471 387.438400
   1534   1546   1548     1   109.8000471 387.438400
   1535   1534   1546     1   110.5600475 386.601600
   1535   1534   1536     1   109.7500473 328.025600
   1536   1534   1546     1   110.5600475 386.601600
   1537   1530   1559     1   110.1100470 384.091200
   1537   1540   1541     1   109.8000471 387.438400
   1537   1540   1542     1   109.8000471 387.438400
   1538   1537   1540     1   110.5600475 386.601600
   1538   1537   1539     1   109.7500473 328.025600
   1539   1537   1540     1   110.5600475 386.601600
   1540   1549   1550     1   109.5600471 388.275200
   1540   1549   1551     1   109.5600471 388.275200
   1541   1540   1549     1   109.8000471 387.438400
   1541   1540   1542     1   107.5800459 329.699200
   1542   1540   1549     1   109.8000471 387.438400
   1543   1555   1556     1   109.5600471 388.275200
   1543   1555   1557     1   109.5600471 388.275200
   1544   1543   1555     1   109.8000471 387.438400
   1544   1543   1545     1   107.5800459 329.699200
   1545   1543   1555     1   109.8000471 387.438400
   1546   1552   1553     1   109.5600471 388.275200
   1546   1552   1554     1   109.5600471 388.275200
   1547   1546   1552     1   109.8000471 387.438400
   1547   1546   1548     1   107.5800459 329.699200
   1548   1546   1552     1   109.8000471 387.438400
   1550   1549   1558     1   109.7800468 425.094400
   1550   1549   1551     1   108.4600466 328.025600
   1551   1549   1558     1   109.7800468 425.094400
   1553   1552   2836     1   109.7800468 425.094400
   1553   1552   1554     1   108.4600466 328.025600
   1554   1552   2836     1   109.7800468 425.094400
   1556   1555   2859     1   109.7800468 425.094400
   1556   1555   1557     1   108.4600466 328.025600
   1557   1555   2859     1   109.7800468 425.094400
   1560   1561   1562     1   108.0100461 406.684800
   1560   1561   1563     1   108.0100461 406.684800
   1560   1564   1565     1   108.0100461 406.684800
   1560   1564   1566     1   108.0100461 406.684800
   1560   1567   1568     1   108.0100461 406.684800
   1560   1567   1569     1   108.0100461 406.684800
   1561   1560   1589     1   110.1100470 384.091200
   1561   1573   1574     1   109.8000471 387.438400
   1561   1573   1575     1   109.8000471 387.438400
   1562   1561   1573     1   110.5600475 386.601600
   1562   1561   1563     1   109.7500473 328.025600
   1563   1561   1573     1   110.5600475 386.601600
   1564   1560   1589     1   110.1100470 384.091200
   1564   1576   1577     1   109.8000471 387.438400
   1564   1576   1578     1   109.8000471 387.438400
   1565   1564   1576     1   110.5600475 386.601600
   1565   1564   1566     1   109.7500473 328.025600
   1566   1564   1576     1   110.5600475 386.601600
   1567   1560   1589     1   110.1100470 384.091200
   1567   1570   1571     1   109.8000471 387.438400
   1567   1570   1572     1   109.8000471 387.438400
   1568   1567   1570     1   110.5600475 386.601600
   1568   1567   1569     1   109.7500473 328.025600
   1569   1567   1570     1   110.5600475 386.601600
   1570   1579   1580     1   109.5600471 388.275200
   1570   1579   1581     1   109.5600471 388.275200
   1571   1570   1579     1   109.8000471 387.438400
   1571   1570   1572     1   107.5800459 329.699200
   1572   1570   1579     1   109.8000471 387.438400
   1573   1585   1586     1   109.5600471 388.275200
   1573   1585   1587     1   109.5600471 388.275200
   1574   1573   1585     1   109.8000471 387.438400
   1574   1573   1575     1   107.5800459 329.699200
   1575   1573   1585     1   109.8000471 387.438400
   1576   1582   1583     1   109.5600471 388.275200
   1576   1582   1584     1   109.5600471 388.275200
   1577   1576   1582     1   109.8000471 387.438400
   1577   1576   1578     1   107.5800459 329.699200
   1578   1576   1582     1   109.8000471 387.438400
   1580   1579   1588     1   109.7800468 425.094400
   1580   1579   1581     1   108.4600466 328.025600
   1581   1579   1588     1   109.7800468 425.094400
   1583   1582   2882     1   109.7800468 425.094400
   1583   1582   1584     1   108.4600466 328.025600
   1584   1582   2882     1   109.7800468 425.094400
   1586   1585   2905     1   109.7800468 425.094400
   1586   1585   1587     1   108.4600466 328.025600
   1587   1585   2905     1   109.7800468 425.094400
   1590   1591   1592     1   108.0100461 406.684800
   1590   1591   1593     1   108.0100461 406.684800
   1590   1594   1595     1   108.0100461 406.684800
   1590   1594   1596     1   108.0100461 406.684800
   1590   1597   1598     1   108.0100461 406.684800
   1590   1597   1599     1   108.0100461 406.684800
   1591   1590   1619     1   110.1100470 384.091200
   1591   1603   1604     1   109.8000471 387.438400
   1591   1603   1605     1   109.8000471 387.438400
   1592   1591   1603     1   110.5600475 386.601600
   1592   1591   1593     1   109.7500473 328.025600
   1593   1591   1603     1   110.5600475 386.601600
   1594   1590   1619     1   110.1100470 384.091200
   1594   1606   1607     1   109.8000471 387.438400
   1594   1606   1608     1   109.8000471 387.438400
   1595   1594   1606     1   110.5600475 386.601600
   1595   1594   1596     1   109.7500473 328.025600
   1596   1594   1606     1   110.5600475 386.601600
   1597   1590   1619     1   110.1100470 384.091200
   1597   1600   1601     1   109.8000471 387.438400
   1597   1600   1602     1   109.8000471 387.438400
   1598   1597   1600     1   110.5600475 386.601600
   1598   1597   1599     1   109.7500473 328.025600
   1599   1597   1600     1   110.5600475 386.601600
   1600   1609   1610     1   109.5600471 388.275200
   1600   1609   1611     1   109.5600471 388.275200
   1601   1600   1609     1   109.8000471 387.438400
   1601   1600   1602     1   107.5800459 329.699200
   1602   1600   1609     1   109.8000471 387.438400
   1603   1615   1616     1   109.5600471 388.275200
   1603   1615   1617     1   109.5600471 388.275200
   1604   1603   1615     1   109.8000471 387.438400
   1604   1603   1605     1   107.5800459 329.699200
   1605   1603   1615     1   109.8000471 387.438400
   1606   1612   1613     1   109.5600471 388.275200
   1606   1612   1614     1   109.5600471 388.275200
   1607   1606   1612     1   109.8000471 387.438400
   1607   1606   1608     1   107.5800459 329.699200
   1608   1606   1612     1   109.8000471 387.438400
   1610   1609   1618     1   109.7800468 425.094400
   1610   1609   1611     1   108.4600466 328.025600
   1611   1609   1618     1   109.7800468 425.094400
   1613   1612   2928     1   109.7800468 425.094400
   1613   1612   1614     1   108.4600466 328.025600
   1614   1612   2928     1   109.7800468 425.094400
   1616   1615   2951     1   109.7800468 425.094400
   1616   1615   1617     1   108.4600466 328.025600
   1617   1615   2951     1   109.7800468 425.094400
   1620   1621   1622     1   108.0100461 406.684800
   1620   1621   1623     1   108.0100461 406.684800
   1620   1624   1625     1   108.0100461 406.684800
   1620   1624   1626     1   108.0100461 406.684800
   1620   1627   1628     1   108.0100461 406.684800
   1620   1627   1629     1   108.0100461 406.684800
   1621   1620   1649     1   110.1100470 384.091200
   1621   1633   1634     1   109.8000471 387.438400
   1621   1633   1635     1   109.8000471 387.438400
   1622   1621   1633     1   110.5600475 386.601600
   1622   1621   1623     1   109.7500473 328.025600
   1623   1621   1633     1   110.5600475 386.601600
   1624   1620   1649     1   110.1100470 384.091200
   1624   1636   1637     1   109.8000471 387.438400
   1624   1636   1638     1   109.8000471 387.438400
   1625   1624   1636     1   110.5600475 386.601600
   1625   1624   1626     1   109.7500473 328.025600
   1626   1624   1636     1   110.5600475 386.601600
   1627   1620   1649     1   110.1100470 384.091200
   1627   1630   1631     1   109.8000471 387.438400
   1627   1630   1632     1   109.8000471 387.438400
   1628   1627   1630     1   110.5600475 386.601600
   1628   1627   1629     1   109.7500473 328.025600
   1629   1627   1630     1   110.5600475 386.601600
   1630   1639   1640     1   109.5600471 388.275200
   1630   1639   1641     1   109.5600471 388.275200
   1631   1630   1639     1   109.8000471 387.438400
   1631   1630   1632     1   107.5800459 329.699200
   1632   1630   1639     1   109.8000471 387.438400
   1633   1645   1646     1   109.5600471 388.275200
   1633   1645   1647     1   109.5600471 388.275200
   1634   1633   1645     1   109.8000471 387.438400
   1634   1633   1635     1   107.5800459 329.699200
   1635   1633   1645     1   109.8000471 387.438400
   1636   1642   1643     1   109.5600471 388.275200
   1636   1642   1644     1   109.5600471 388.275200
   1637   1636   1642     1   109.8000471 387.438400
   1637   1636   1638     1   107.5800459 329.699200
   1638   1636   1642     1   109.8000471 387.438400
   1640   1639   1648     1   109.7800468 425.094400
   1640   1639   1641     1   108.4600466 328.025600
   1641   1639   1648     1   109.7800468 425.094400
   1643   1642   2974     1   109.7800468 425.094400
   1643   1642   1644     1   108.4600466 328.025600
   1644   1642   2974     1   109.7800468 425.094400
   1646   1645   2997     1   109.7800468 425.094400
   1646   1645   1647     1   108.4600466 328.025600
   1647   1645   2997     1   109.7800468 425.094400
   1650   1651   1652     1   108.0100461 406.684800
   1650   1651   1653     1   108.0100461 406.684800
   1650   1654   1655     1   108.0100461 406.684800
   1650   1654   1656     1   108.0100461 406.684800
   1650   1657   1658     1   108.0100461 406.684800
   1650   1657   1659     1   108.0100461 406.684800
   1651   1650   1679     1   110.1100470 384.091200
   1651   1663   1664     1   109.8000471 387.438400
   1651   1663   1665     1   109.8000471 387.438400
   1652   1651   1663     1   110.5600475 386.601600
   1652   1651   1653     1   109.7500473 328.025600
   1653   1651   1663     1   110.5600475 386.601600
   1654   1650   1679     1   110.1100470 384.091200
   1654   1666   1667     1   109.8000471 387.438400
   1654   1666   1668     1   109.8000471 387.438400
   1655   1654   1666     1   110.5600475 386.601600
   1655   1654   1656     1   109.7500473 328.025600
   1656   1654   1666     1   110.5600475 386.601600
   1657   1650   1679     1   110.1100470 384.091200
   1657   1660   1661     1   109.8000471 387.438400
   1657   1660   1662     1   109.8000471 387.438400
   1658   1657   1660     1   110.5600475 386.601600
   1658   1657   1659     1   109.7500473 328.025600
   1659   1657   1660     1   110.5600475 386.601600
   1660   1669   1670     1   109.5600471 388.275200
   1660   1669   1671     1   109.5600471 388.275200
   1661   1660   1669     1   109.8000471 387.438400
   1661   1660   1662     1   107.5800459 329.699200
   1662   1660   1669     1   109.8000471 387.438400
   1663   1675   1676     1   109.5600471 388.275200
   1663   1675   1677     1   109.5600471 388.275200
   1664   1663   1675     1   109.8000471 387.438400
   1664   1663   1665     1   107.5800459 329.699200
   1665   1663   1675     1   109.8000471 387.438400
   1666   1672   1673     1   109.5600471 388.275200
   1666   1672   1674     1   109.5600471 388.275200
   1667   1666   1672     1   109.8000471 387.438400
   1667   1666   1668     1   107.5800459 329.699200
   1668   1666   1672     1   109.8000471 387.438400
   1670   1669   1678     1   109.7800468 425.094400
   1670   1669   1671     1   108.4600466 328.025600
   1671   1669   1678     1   109.7800468 425.094400
   1673   1672   3020     1   109.7800468 425.094400
   1673   1672   1674     1   108.4600466 328.025600
   1674   1672   3020     1   109.7800468 425.094400
   1676   1675   3043     1   109.7800468 425.094400
   1676   1675   1677     1   108.4600466 328.025600
   1677   1675   3043     1   109.7800468 425.094400
   1680   1681   1682     1   108.0100461 406.684800
   1680   1681   1683     1   108.0100461 406.684800
   1680   1684   1685     1   108.0100461 406.684800
   1680   1684   1686     1   108.0100461 406.684800
   1680   1687   1688     1   108.0100461 406.684800
   1680   1687   1689     1   108.0100461 406.684800
   1681   1680   1709     1   110.1100470 384.091200
   1681   1693   1694     1   109.8000471 387.438400
   1681   1693   1695     1   109.8000471 387.438400
   1682   1681   1693     1   110.5600475 386.601600
   1682   1681   1683     1   109.7500473 328.025600
   1683   1681   1693     1   110.5600475 386.601600
   1684   1680   1709     1   110.1100470 384.091200
   1684   1696   1697     1   109.8000471 387.438400
   1684   1696   1698     1   109.8000471 387.438400
   1685   1684   1696     1   110.5600475 386.601600
   1685   1684   1686     1   109.7500473 328.025600
   1686   1684   1696     1   110.5600475 386.601600
   1687   1680   1709     1   110.1100470 384.091200
   1687   1690   1691     1   109.8000471 387.438400
   1687   1690   1692     1   109.8000471 387.438400
   1688   1687   1690     1   110.5600475 386.601600
   1688   1687   1689     1   109.7500473 328.025600
   1689   1687   1690     1   110.5600475 386.601600
   1690   1699   1700     1   109.5600471 388.275200
   1690   1699   1701     1   109.5600471 388.275200
   1691   1690   1699     1   109.8000471 387.438400
   1691   1690   1692     1   107.5800459 329.699200
   1692   1690   1699     1   109.8000471 387.438400
   1693   1705   1706     1   109.5600471 388.275200
   1693   1705   1707     1   109.5600471 388.275200
   1694   1693   1705     1   109.8000471 387.438400
   1694   1693   1695     1   107.5800459 329.699200
   1695   1693   1705     1   109.8000471 387.438400
   1696   1702   1703     1   109.5600471 388.275200
   1696   1702   1704     1   109.5600471 388.275200
   1697   1696   1702     1   109.8000471 387.438400
   1697   1696   1698     1   107.5800459 329.699200
   1698   1696   1702     1   109.8000471 387.438400
   1700   1699   1708     1   109.7800468 425.094400
   1700   1699   1701     1   108.4600466 328.025600
   1701   1699   1708     1   109.7800468 425.094400
   1703   1702   3066     1   109.7800468 425.094400
   1703   1702   1704     1   108.4600466 328.025600
   1704   1702   3066     1   109.7800468 425.094400
   1706   1705   3089     1   109.7800468 425.094400
   1706   1705   1707     1   108.4600466 328.025600
   1707   1705   3089     1   109.7800468 425.094400
   1710   1711   1712     1   108.0100461 406.684800
   1710   1711   1713     1   108.0100461 406.684800
   1710   1714   1715     1   108.0100461 406.684800
   1710   1714   1716     1   108.0100461 406.684800
   1710   1717   1718     1   108.0100461 406.684800
   1710   1717   1719     1   108.0100461 406.684800
   1711   1710   1739     1   110.1100470 384.091200
   1711   1723   1724     1   109.8000471 387.438400
   1711   1723   1725     1   109.8000471 387.438400
   1712   1711   1723     1   110.5600475 386.601600
   1712   1711   1713     1   109.7500473 328.025600
   1713   1711   1723     1   110.5600475 386.601600
   1714   1710   1739     1   110.1100470 384.091200
   1714   1726   1727     1   109.8000471 387.438400
   1714   1726   1728     1   109.8000471 387.438400
   1715   1714   1726     1   110.5600475 386.601600
   1715   1714   1716     1   109.7500473 328.025600
   1716   1714   1726     1   110.5600475 386.601600
   1717   1710   1739     1   110.1100470 384.091200
   1717   1720   1721     1   109.8000471 387.438400
   1717   1720   1722     1   109.8000471 387.438400
   1718   1717   1720     1   110.5600475 386.601600
   1718   1717   1719     1   109.7500473 328.025600
   1719   1717   1720     1   110.5600475 386.601600
   1720   1729   1730     1   109.5600471 388.275200
   1720   1729   1731     1   109.5600471 388.275200
   1721   1720   1729     1   109.8000471 387.438400
   1721   1720   1722     1   107.5800459 329.699200
   1722   1720   1729     1   109.8000471 387.438400
   1723   1735   1736     1   109.5600471 388.275200
   1723   1735   1737     1   109.5600471 388.275200
   1724   1723   1735     1   109.8000471 387.438400
   1724   1723   1725     1   107.5800459 329.699200
   1725   1723   1735     1   109.8000471 387.438400
   1726   1732   1733     1   109.5600471 388.275200
   1726   1732   1734     1   109.5600471 388.275200
   1727   1726   1732     1   109.8000471 387.438400
   1727   1726   1728     1   107.5800459 329.699200
   1728   1726   1732     1   109.8000471 387.438400
   1730   1729   1738     1   109.7800468 425.094400
   1730   1729   1731     1   108.4600466 328.025600
   1731   1729   1738     1   109.7800468 425.094400
   1733   1732   3112     1   109.7800468 425.094400
   1733   1732   1734     1   108.4600466 328.025600
   1734   1732   3112     1   109.7800468 425.094400
   1736   1735   3135     1   109.7800468 425.094400
   1736   1735   1737     1   108.4600466 328.025600
   1737   1735   3135     1   109.7800468 425.094400
   1740   1741   1742     1   108.0100461 406.684800
   1740   1741   1743     1   108.0100461 406.684800
   1740   1744   1745     1   108.0100461 406.684800
   1740   1744   1746     1   108.0100461 406.684800
   1740   1747   1748     1   108.0100461 406.684800
   1740   1747   1749     1   108.0100461 406.684800
   1741   1740   1769     1   110.1100470 384.091200
   1741   1753   1754     1   109.8000471 387.438400
   1741   1753   1755     1   109.8000471 387.438400
   1742   1741   1753     1   110.5600475 386.601600
   1742   1741   1743     1   109.7500473 328.025600
   1743   1741   1753     1   110.5600475 386.601600
   1744   1740   1769     1   110.1100470 384.091200
   1744   1756   1757     1   109.8000471 387.438400
   1744   1756   1758     1   109.8000471 387.438400
   1745   1744   1756     1   110.5600475 386.601600
   1745   1744   1746     1   109.7500473 328.025600
   1746   1744   1756     1   110.5600475 386.601600
   1747   1740   1769     1   110.1100470 384.091200
   1747   1750   1751     1   109.8000471 387.438400
   1747   1750   1752     1   109.8000471 387.438400
   1748   1747   1750     1   110.5600475 386.601600
   1748   1747   1749     1   109.7500473 328.025600
   1749   1747   1750     1   110.5600475 386.601600
   1750   1759   1760     1   109.5600471 388.275200
   1750   1759   1761     1   109.5600471 388.275200
   1751   1750   1759     1   109.8000471 387.438400
   1751   1750   1752     1   107.5800459 329.699200
   1752   1750   1759     1   109.8000471 387.438400
   1753   1765   1766     1   109.5600471 388.275200
   1753   1765   1767     1   109.5600471 388.275200
   1754   1753   1765     1   109.8000471 387.438400
   1754   1753   1755     1   107.5800459 329.699200
   1755   1753   1765     1   109.8000471 387.438400
   1756   1762   1763     1   109.5600471 388.275200
   1756   1762   1764     1   109.5600471 388.275200
   1757   1756   1762     1   109.8000471 387.438400
   1757   1756   1758     1   107.5800459 329.699200
   1758   1756   1762     1   109.8000471 387.438400
   1760   1759   1768     1   109.7800468 425.094400
   1760   1759   1761     1   108.4600466 328.025600
   1761   1759   1768     1   109.7800468 425.094400
   1763   1762   3158     1   109.7800468 425.094400
   1763   1762   1764     1   108.4600466 328.025600
   1764   1762   3158     1   109.7800468 425.094400
   1766   1765   3181     1   109.7800468 425.094400
   1766   1765   1767     1   108.4600466 328.025600
   1767   1765   3181     1   109.7800468 425.094400
   1770   1771   1772     1   108.0100461 406.684800
   1770   1771   1773     1   108.0100461 406.684800
   1770   1774   1775     1   108.0100461 406.684800
   1770   1774   1776     1   108.0100461 406.684800
   1770   1777   1778     1   108.0100461 406.684800
   1770   1777   1779     1   108.0100461 406.684800
   1771   1770   1799     1   110.1100470 384.091200
   1771   1783   1784     1   109.8000471 387.438400
   1771   1783   1785     1   109.8000471 387.438400
   1772   1771   1783     1   110.5600475 386.601600
   1772   1771   1773     1   109.7500473 328.025600
   1773   1771   1783     1   110.5600475 386.601600
   1774   1770   1799     1   110.1100470 384.091200
   1774   1786   1787     1   109.8000471 387.438400
   1774   1786   1788     1   109.8000471 387.438400
   1775   1774   1786     1   110.5600475 386.601600
   1775   1774   1776     1   109.7500473 328.025600
   1776   1774   1786     1   110.5600475 386.601600
   1777   1770   1799     1   110.1100470 384.091200
   1777   1780   1781     1   109.8000471 387.438400
   1777   1780   1782     1   109.8000471 387.438400
   1778   1777   1780     1   110.5600475 386.601600
   1778   1777   1779     1   109.7500473 328.025600
   1779   1777   1780     1   110.5600475 386.601600
   1780   1789   1790     1   109.5600471 388.275200
   1780   1789   1791     1   109.5600471 388.275200
   1781   1780   1789     1   109.8000471 387.438400
   1781   1780   1782     1   107.5800459 329.699200
   1782   1780   1789     1   109.8000471 387.438400
   1783   1795   1796     1   109.5600471 388.275200
   1783   1795   1797     1   109.5600471 388.275200
   1784   1783   1795     1   109.8000471 387.438400
   1784   1783   1785     1   107.5800459 329.699200
   1785   1783   1795     1   109.8000471 387.438400
   1786   1792   1793     1   109.5600471 388.275200
   1786   1792   1794     1   109.5600471 388.275200
   1787   1786   1792     1   109.8000471 387.438400
   1787   1786   1788     1   107.5800459 329.699200
   1788   1786   1792     1   109.8000471 387.438400
   1790   1789   1798     1   109.7800468 425.094400
   1790   1789   1791     1   108.4600466 328.025600
   1791   1789   1798     1   109.7800468 425.094400
   1793   1792   3204     1   109.7800468 425.094400
   1793   1792   1794     1   108.4600466 328.025600
   1794   1792   3204     1   109.7800468 425.094400
   1796   1795   3227     1   109.7800468 425.094400
   1796   1795   1797     1   108.4600466 328.025600
   1797   1795   3227     1   109.7800468 425.094400
   1800   1801   1802     1   108.0100461 406.684800
   1800   1801   1803     1   108.0100461 406.684800
   1800   1804   1805     1   108.0100461 406.684800
   1800   1804   1806     1   108.0100461 406.684800
   1800   1807   1808     1   108.0100461 406.684800
   1800   1807   1809     1   108.0100461 406.684800
   1801   1800   1829     1   110.1100470 384.091200
   1801   1813   1814     1   109.8000471 387.438400
   1801   1813   1815     1   109.8000471 387.438400
   1802   1801   1813     1   110.5600475 386.601600
   1802   1801   1803     1   109.7500473 328.025600
   1803   1801   1813     1   110.5600475 386.601600
   1804   1800   1829     1   110.1100470 384.091200
   1804   1816   1817     1   109.8000471 387.438400
   1804   1816   1818     1   109.8000471 387.438400
   1805   1804   1816     1   110.5600475 386.601600
   1805   1804   1806     1   109.7500473 328.025600
   1806   1804   1816     1   110.5600475 386.601600
   1807   1800   1829     1   110.1100470 384.091200
   1807   1810   1811     1   109.8000471 387.438400
   1807   1810   1812     1   109.8000471 387.438400
   1808   1807   1810     1   110.5600475 386.601600
   1808   1807   1809     1   109.7500473 328.025600
   1809   1807   1810     1   110.5600475 386.601600
   1810   1819   1820     1   109.5600471 388.275200
   1810   1819   1821     1   109.5600471 388.275200
   1811   1810   1819     1   109.8000471 387.438400
   1811   1810   1812     1   107.5800459 329.699200
   1812   1810   1819     1   109.8000471 387.438400
   1813   1825   1826     1   109.5600471 388.275200
   1813   1825   1827     1   109.5600471 388.275200
   1814   1813   1825     1   109.8000471 387.438400
   1814   1813   1815     1   107.5800459 329.699200
   1815   1813   1825     1   109.8000471 387.438400
   1816   1822   1823     1   109.5600471 388.275200
   1816   1822   1824     1   109.5600471 388.275200
   1817   1816   1822     1   109.8000471 387.438400
   1817   1816   1818     1   107.5800459 329.699200
   1818   1816   1822     1   109.8000471 387.438400
   1820   1819   1828     1   109.7800468 425.094400
   1820   1819   1821     1   108.4600466 328.025600
   1821   1819   1828     1   109.7800468 425.094400
   1823   1822   3250     1   109.7800468 425.094400
   1823   1822   1824     1   108.4600466 328.025600
   1824   1822   3250     1   109.7800468 425.094400
   1826   1825   3273     1   109.7800468 425.094400
   1826   1825   1827     1   108.4600466 328.025600
   1827   1825   3273     1   109.7800468 425.094400
   1830   1831   1832     1   108.0100461 406.684800
   1830   1831   1833     1   108.0100461 406.684800
   1830   1834   1835     1   108.0100461 406.684800
   1830   1834   1836     1   108.0100461 406.684800
   1830   1837   1838     1   108.0100461 406.684800
   1830   1837   1839     1   108.0100461 406.684800
   1831   1830   1859     1   110.1100470 384.091200
   1831   1843   1844     1   109.8000471 387.438400
   1831   1843   1845     1   109.8000471 387.438400
   1832   1831   1843     1   110.5600475 386.601600
   1832   1831   1833     1   109.7500473 328.025600
   1833   1831   1843     1   110.5600475 386.601600
   1834   1830   1859     1   110.1100470 384.091200
   1834   1846   1847     1   109.8000471 387.438400
   1834   1846   1848     1   109.8000471 387.438400
   1835   1834   1846     1   110.5600475 386.601600
   1835   1834   1836     1   109.7500473 328.025600
   1836   1834   1846     1   110.5600475 386.601600
   1837   1830   1859     1   110.1100470 384.091200
   1837   1840   1841     1   109.8000471 387.438400
   1837   1840   1842     1   109.8000471 387.438400
   1838   1837   1840     1   110.5600475 386.601600
   1838   1837   1839     1   109.7500473 328.025600
   1839   1837   1840     1   110.5600475 386.601600
   1840   1849   1850     1   109.5600471 388.275200
   1840   1849   1851     1   109.5600471 388.275200
   1841   1840   1849     1   109.8000471 387.438400
   1841   1840   1842     1   107.5800459 329.699200
   1842   1840   1849     1   109.8000471 387.438400
   1843   1855   1856     1   109.5600471 388.275200
   1843   1855   1857     1   109.5600471 388.275200
   1844   1843   1855     1   109.8000471 387.438400
   1844   1843   1845     1   107.5800459 329.699200
   1845   1843   1855     1   109.8000471 387.438400
   1846   1852   1853     1   109.5600471 388.275200
   1846   1852   1854     1   109.5600471 388.275200
   1847   1846   1852     1   109.8000471 387.438400
   1847   1846   1848     1   107.5800459 329.699200
   1848   1846   1852     1   109.8000471 387.438400
   1850   1849   1858     1   109.7800468 425.094400
   1850   1849   1851     1   108.4600466 328.025600
   1851   1849   1858     1   109.7800468 425.094400
   1853   1852   3296     1   109.7800468 425.094400
   1853   1852   1854     1   108.4600466 328.025600
   1854   1852   3296     1   109.7800468 425.094400
   1856   1855   3319     1   109.7800468 425.094400
   1856   1855   1857     1   108.4600466 328.025600
   1857   1855   3319     1   109.7800468 425.094400
   1860   1861   1863     1   109.5600471 388.275200
   1860   1874   1878     1   109.5600471 388.275200
   1860   1874   1879     1   109.5600471 388.275200
   1861   1860   1862     1   109.5600471 388.275200
   1861   1864   1868     1   109.5600471 388.275200
   1861   1873   1876     1   107.2600461 396.643200
   1862   1860   1874     1   109.5600471 388.275200
   1862   1860   1882     1   109.7800468 425.094400
   1863   1861   1864     1   109.5600471 388.275200
   1863   1861   1873     1   110.2600474 425.931200
   1864   1865   1867     1   109.5600471 388.275200
   1864   1872   1875     1   107.2600461 396.643200
   1865   1864   1868     1   109.5600471 388.275200
   1865   1866   1869     1   110.2200475 386.601600
   1865   1871   1877     1   107.2600461 396.643200
   1866   1865   1867     1   109.5600471 388.275200
   1867   1865   1871     1   110.2600474 425.931200
   1868   1864   1872     1   110.2600474 425.931200
   1869   1866   1870     1   109.5800467 425.931200
   1869   1866   1882     1   109.5800467 425.931200
   1874   1880   1881     1   107.2600461 396.643200
   1878   1874   1880     1   110.2600474 425.931200
   1878   1874   1879     1   108.4600466 328.025600
   1879   1874   1880     1   110.2600474 425.931200
   1883   1884   1886     1   109.5600471 388.275200
   1883   1897   1901     1   109.5600471 388.275200
   1883   1897   1902     1   109.5600471 388.275200
   1884   1887   1891     1   109.5600471 388.275200
   1884   1896   1899     1   107.2600461 396.643200
   1884   1883   1885     1   109.5600471 388.275200
   1885   1883   1897     1   109.5600471 388.275200
   1885   1883   1905     1   109.7800468 425.094400
   1886   1884   1887     1   109.5600471 388.275200
   1886   1884   1896     1   110.2600474 425.931200
   1887   1888   1890     1   109.5600471 388.275200
   1887   1895   1898     1   107.2600461 396.643200
   1888   1889   1892     1   110.2200475 386.601600
   1888   1894   1900     1   107.2600461 396.643200
   1888   1887   1891     1   109.5600471 388.275200
   1889   1888   1890     1   109.5600471 388.275200
   1890   1888   1894     1   110.2600474 425.931200
   1891   1887   1895     1   110.2600474 425.931200
   1892   1889   1893     1   109.5800467 425.931200
   1892   1889   1905     1   109.5800467 425.931200
   1897   1903   1904     1   107.2600461 396.643200
   1901   1897   1903     1   110.2600474 425.931200
   1901   1897   1902     1   108.4600466 328.025600
   1902   1897   1903     1   110.2600474 425.931200
   1906   1907   1909     1   109.5600471 388.275200
   1906   1920   1924     1   109.5600471 388.275200
   1906   1920   1925     1   109.5600471 388.275200
   1907   1906   1908     1   109.5600471 388.275200
   1907   1910   1914     1   109.5600471 388.275200
   1907   1919   1922     1   107.2600461 396.643200
   1908   1906   1920     1   109.5600471 388.275200
   1908   1906   1928     1   109.7800468 425.094400
   1909   1907   1910     1   109.5600471 388.275200
   1909   1907   1919     1   110.2600474 425.931200
   1910   1911   1913     1   109.5600471 388.275200
   1910   1918   1921     1   107.2600461 396.643200
   1911   1910   1914     1   109.5600471 388.275200
   1911   1912   1915     1   110.2200475 386.601600
   1911   1917   1923     1   107.2600461 396.643200
   1912   1911   1913     1   109.5600471 388.275200
   1913   1911   1917     1   110.2600474 425.931200
   1914   1910   1918     1   110.2600474 425.931200
   1915   1912   1916     1   109.5800467 425.931200
   1915   1912   1928     1   109.5800467 425.931200
   1920   1926   1927     1   107.2600461 396.643200
   1924   1920   1926     1   110.2600474 425.931200
   1924   1920   1925     1   108.4600466 328.025600
   1925   1920   1926     1   110.2600474 425.931200
   1929   1930   1932     1   109.5600471 388.275200
   1929   1943   1947     1   109.5600471 388.275200
   1929   1943   1948     1   109.5600471 388.275200
   1930   1933   1937     1   109.5600471 388.275200
   1930   1942   1945     1   107.2600461 396.643200
   1930   1929   1931     1   109.5600471 388.275200
   1931   1929   1943     1   109.5600471 388.275200
   1931   1929   1951     1   109.7800468 425.094400
   1932   1930   1933     1   109.5600471 388.275200
   1932   1930   1942     1   110.2600474 425.931200
   1933   1934   1936     1   109.5600471 388.275200
   1933   1941   1944     1   107.2600461 396.643200
   1934   1935   1938     1   110.2200475 386.601600
   1934   1940   1946     1   107.2600461 396.643200
   1934   1933   1937     1   109.5600471 388.275200
   1935   1934   1936     1   109.5600471 388.275200
   1936   1934   1940     1   110.2600474 425.931200
   1937   1933   1941     1   110.2600474 425.931200
   1938   1935   1939     1   109.5800467 425.931200
   1938   1935   1951     1   109.5800467 425.931200
   1943   1949   1950     1   107.2600461 396.643200
   1947   1943   1949     1   110.2600474 425.931200
   1947   1943   1948     1   108.4600466 328.025600
   1948   1943   1949     1   110.2600474 425.931200
   1952   1953   1955     1   109.5600471 388.275200
   1952   1966   1970     1   109.5600471 388.275200
   1952   1966   1971     1   109.5600471 388.275200
   1953   1952   1954     1   109.5600471 388.275200
   1953   1956   1960     1   109.5600471 388.275200
   1953   1965   1968     1   107.2600461 396.643200
   1954   1952   1966     1   109.5600471 388.275200
   1954   1952   1974     1   109.7800468 425.094400
   1955   1953   1956     1   109.5600471 388.275200
   1955   1953   1965     1   110.2600474 425.931200
   1956   1957   1959     1   109.5600471 388.275200
   1956   1964   1967     1   107.2600461 396.643200
   1957   1956   1960     1   109.5600471 388.275200
   1957   1958   1961     1   110.2200475 386.601600
   1957   1963   1969     1   107.2600461 396.643200
   1958   1957   1959     1   109.5600471 388.275200
   1959   1957   1963     1   110.2600474 425.931200
   1960   1956   1964     1   110.2600474 425.931200
   1961   1958   1962     1   109.5800467 425.931200
   1961   1958   1974     1   109.5800467 425.931200
   1966   1972   1973     1   107.2600461 396.643200
   1970   1966   1972     1   110.2600474 425.931200
   1970   1966   1971     1   108.4600466 328.025600
   1971   1966   1972     1   110.2600474 425.931200
   1975   1976   1978     1   109.5600471 388.275200
   1975   1989   1993     1   109.5600471 388.275200
   1975   1989   1994     1   109.5600471 388.275200
   1976   1979   1983     1   109.5600471 388.275200
   1976   1988   1991     1   107.2600461 396.643200
   1976   1975   1977     1   109.5600471 388.275200
   1977   1975   1989     1   109.5600471 388.275200
   1977   1975   1997     1   109.7800468 425.094400
   1978   1976   1979     1   109.5600471 388.275200
   1978   1976   1988     1   110.2600474 425.931200
   1979   1980   1982     1   109.5600471 388.275200
   1979   1987   1990     1   107.2600461 396.643200
   1980   1981   1984     1   110.2200475 386.601600
   1980   1986   1992     1   107.2600461 396.643200
   1980   1979   1983     1   109.5600471 388.275200
   1981   1980   1982     1   109.5600471 388.275200
   1982   1980   1986     1   110.2600474 425.931200
   1983   1979   1987     1   110.2600474 425.931200
   1984   1981   1985     1   109.5800467 425.931200
   1984   1981   1997     1   109.5800467 425.931200
   1989   1995   1996     1   107.2600461 396.643200
   1993   1989   1995     1   110.2600474 425.931200
   1993   1989   1994     1   108.4600466 328.025600
   1994   1989   1995     1   110.2600474 425.931200
   1998   1999   2001     1   109.5600471 388.275200
   1998   2012   2016     1   109.5600471 388.275200
   1998   2012   2017     1   109.5600471 388.275200
   1999   1998   2000     1   109.5600471 388.275200
   1999   2002   2006     1   109.5600471 388.275200
   1999   2011   2014     1   107.2600461 396.643200
   2000   1998   2012     1   109.5600471 388.275200
   2000   1998   2020     1   109.7800468 425.094400
   2001   1999   2002     1   109.5600471 388.275200
   2001   1999   2011     1   110.2600474 425.931200
   2002   2003   2005     1   109.5600471 388.275200
   2002   2010   2013     1   107.2600461 396.643200
   2003   2002   2006     1   109.5600471 388.275200
   2003   2004   2007     1   110.2200475 386.601600
   2003   2009   2015     1   107.2600461 396.643200
   2004   2003   2005     1   109.5600471 388.275200
   2005   2003   2009     1   110.2600474 425.931200
   2006   2002   2010     1   110.2600474 425.931200
   2007   2004   2008     1   109.5800467 425.931200
   2007   2004   2020     1   109.5800467 425.931200
   2012   2018   2019     1   107.2600461 396.643200
   2016   2012   2018     1   110.2600474 425.931200
   2016   2012   2017     1   108.4600466 328.025600
   2017   2012   2018     1   110.2600474 425.931200
   2021   2022   2024     1   109.5600471 388.275200
   2021   2035   2039     1   109.5600471 388.275200
   2021   2035   2040     1   109.5600471 388.275200
   2022   2025   2029     1   109.5600471 388.275200
   2022   2034   2037     1   107.2600461 396.643200
   2022   2021   2023     1   109.5600471 388.275200
   2023   2021   2035     1   109.5600471 388.275200
   2023   2021   2043     1   109.7800468 425.094400
   2024   2022   2025     1   109.5600471 388.275200
   2024   2022   2034     1   110.2600474 425.931200
   2025   2026   2028     1   109.5600471 388.275200
   2025   2033   2036     1   107.2600461 396.643200
   2026   2027   2030     1   110.2200475 386.601600
   2026   2032   2038     1   107.2600461 396.643200
   2026   2025   2029     1   109.5600471 388.275200
   2027   2026   2028     1   109.5600471 388.275200
   2028   2026   2032     1   110.2600474 425.931200
   2029   2025   2033     1   110.2600474 425.931200
   2030   2027   2031     1   109.5800467 425.931200
   2030   2027   2043     1   109.5800467 425.931200
   2035   2041   2042     1   107.2600461 396.643200
   2039   2035   2041     1   110.2600474 425.931200
   2039   2035   2040     1   108.4600466 328.025600
   2040   2035   2041     1   110.2600474 425.931200
   2044   2045   2047     1   109.5600471 388.275200
   2044   2058   2062     1   109.5600471 388.275200
   2044   2058   2063     1   109.5600471 388.275200
   2045   2044   2046     1   109.5600471 388.275200
   2045   2048   2052     1   109.5600471 388.275200
   2045   2057   2060     1   107.2600461 396.643200
   2046   2044   2058     1   109.5600471 388.275200
   2046   2044   2066     1   109.7800468 425.094400
   2047   2045   2048     1   109.5600471 388.275200
   2047   2045   2057     1   110.2600474 425.931200
   2048   2049   2051     1   109.5600471 388.275200
   2048   2056   2059     1   107.2600461 396.643200
   2049   2048   2052     1   109.5600471 388.275200
   2049   2050   2053     1   110.2200475 386.601600
   2049   2055   2061     1   107.2600461 396.643200
   2050   2049   2051     1   109.5600471 388.275200
   2051   2049   2055     1   110.2600474 425.931200
   2052   2048   2056     1   110.2600474 425.931200
   2053   2050   2054     1   109.5800467 425.931200
   2053   2050   2066     1   109.5800467 425.931200
   2058   2064   2065     1   107.2600461 396.643200
   2062   2058   2064     1   110.2600474 425.931200
   2062   2058   2063     1   108.4600466 328.025600
   2063   2058   2064     1   110.2600474 425.931200
   2067   2068   2070     1   109.5600471 388.275200
   2067   2081   2085     1   109.5600471 388.275200
   2067   2081   2086     1   109.5600471 388.275200
   2068   2071   2075     1   109.5600471 388.275200
   2068   2080   2083     1   107.2600461 396.643200
   2068   2067   2069     1   109.5600471 388.275200
   2069   2067   2081     1   109.5600471 388.275200
   2069   2067   2089     1   109.7800468 425.094400
   2070   2068   2071     1   109.5600471 388.275200
   2070   2068   2080     1   110.2600474 425.931200
   2071   2072   2074     1   109.5600471 388.275200
   2071   2079   2082     1   107.2600461 396.643200
   2072   2073   2076     1   110.2200475 386.601600
   2072   2078   2084     1   107.2600461 396.643200
   2072   2071   2075     1   109.5600471 388.275200
   2073   2072   2074     1   109.5600471 388.275200
   2074   2072   2078     1   110.2600474 425.931200
   2075   2071   2079     1   110.2600474 425.931200
   2076   2073   2077     1   109.5800467 425.931200
   2076   2073   2089     1   109.5800467 425.931200
   2081   2087   2088     1   107.2600461 396.643200
   2085   2081   2087     1   110.2600474 425.931200
   2085   2081   2086     1   108.4600466 328.025600
   2086   2081   2087     1   110.2600474 425.931200
   2090   2091   2093     1   109.5600471 388.275200
   2090   2104   2108     1   109.5600471 388.275200
   2090   2104   2109     1   109.5600471 388.275200
   2091   2090   2092     1   109.5600471 388.275200
   2091   2094   2098     1   109.5600471 388.275200
   2091   2103   2106     1   107.2600461 396.643200
   2092   2090   2104     1   109.5600471 388.275200
   2092   2090   2112     1   109.7800468 425.094400
   2093   2091   2094     1   109.5600471 388.275200
   2093   2091   2103     1   110.2600474 425.931200
   2094   2095   2097     1   109.5600471 388.275200
   2094   2102   2105     1   107.2600461 396.643200
   2095   2094   2098     1   109.5600471 388.275200
   2095   2096   2099     1   110.2200475 386.601600
   2095   2101   2107     1   107.2600461 396.643200
   2096   2095   2097     1   109.5600471 388.275200
   2097   2095   2101     1   110.2600474 425.931200
   2098   2094   2102     1   110.2600474 425.931200
   2099   2096   2100     1   109.5800467 425.931200
   2099   2096   2112     1   109.5800467 425.931200
   2104   2110   2111     1   107.2600461 396.643200
   2108   2104   2110     1   110.2600474 425.931200
   2108   2104   2109     1   108.4600466 328.025600
   2109   2104   2110     1   110.2600474 425.931200
   2113   2114   2116     1   109.5600471 388.275200
   2113   2127   2131     1   109.5600471 388.275200
   2113   2127   2132     1   109.5600471 388.275200
   2114   2117   2121     1   109.5600471 388.275200
   2114   2126   2129     1   107.2600461 396.643200
   2114   2113   2115     1   109.5600471 388.275200
   2115   2113   2127     1   109.5600471 388.275200
   2115   2113   2135     1   109.7800468 425.094400
   2116   2114   2117     1   109.5600471 388.275200
   2116   2114   2126     1   110.2600474 425.931200
   2117   2118   2120     1   109.5600471 388.275200
   2117   2125   2128     1   107.2600461 396.643200
   2118   2119   2122     1   110.2200475 386.601600
   2118   2124   2130     1   107.2600461 396.643200
   2118   2117   2121     1   109.5600471 388.275200
   2119   2118   2120     1   109.5600471 388.275200
   2120   2118   2124     1   110.2600474 425.931200
   2121   2117   2125     1   110.2600474 425.931200
   2122   2119   2123     1   109.5800467 425.931200
   2122   2119   2135     1   109.5800467 425.931200
   2127   2133   2134     1   107.2600461 396.643200
   2131   2127   2133     1   110.2600474 425.931200
   2131   2127   2132     1   108.4600466 328.025600
   2132   2127   2133     1   110.2600474 425.931200
   2136   2137   2139     1   109.5600471 388.275200
   2136   2150   2154     1   109.5600471 388.275200
   2136   2150   2155     1   109.5600471 388.275200
   2137   2136   2138     1   109.5600471 388.275200
   2137   2140   2144     1   109.5600471 388.275200
   2137   2149   2152     1   107.2600461 396.643200
   2138   2136   2150     1   109.5600471 388.275200
   2138   2136   2158     1   109.7800468 425.094400
   2139   2137   2140     1   109.5600471 388.275200
   2139   2137   2149     1   110.2600474 425.931200
   2140   2141   2143     1   109.5600471 388.275200
   2140   2148   2151     1   107.2600461 396.643200
   2141   2140   2144     1   109.5600471 388.275200
   2141   2142   2145     1   110.2200475 386.601600
   2141   2147   2153     1   107.2600461 396.643200
   2142   2141   2143     1   109.5600471 388.275200
   2143   2141   2147     1   110.2600474 425.931200
   2144   2140   2148     1   110.2600474 425.931200
   2145   2142   2146     1   109.5800467 425.931200
   2145   2142   2158     1   109.5800467 425.931200
   2150   2156   2157     1   107.2600461 396.643200
   2154   2150   2156     1   110.2600474 425.931200
   2154   2150   2155     1   108.4600466 328.025600
   2155   2150   2156     1   110.2600474 425.931200
   2159   2160   2162     1   109.5600471 388.275200
   2159   2173   2177     1   109.5600471 388.275200
   2159   2173   2178     1   109.5600471 388.275200
   2160   2163   2167     1   109.5600471 388.275200
   2160   2172   2175     1   107.2600461 396.643200
   2160   2159   2161     1   109.5600471 388.275200
   2161   2159   2173     1   109.5600471 388.275200
   2161   2159   2181     1   109.7800468 425.094400
   2162   2160   2163     1   109.5600471 388.275200
   2162   2160   2172     1   110.2600474 425.931200
   2163   2164   2166     1   109.5600471 388.275200
   2163   2171   2174     1   107.2600461 396.643200
   2164   2165   2168     1   110.2200475 386.601600
   2164   2170   2176     1   107.2600461 396.643200
   2164   2163   2167     1   109.5600471 388.275200
   2165   2164   2166     1   109.5600471 388.275200
   2166   2164   2170     1   110.2600474 425.931200
   2167   2163   2171     1   110.2600474 425.931200
   2168   2165   2169     1   109.5800467 425.931200
   2168   2165   2181     1   109.5800467 425.931200
   2173   2179   2180     1   107.2600461 396.643200
   2177   2173   2179     1   110.2600474 425.931200
   2177   2173   2178     1   108.4600466 328.025600
   2178   2173   2179     1   110.2600474 425.931200
   2182   2183   2185     1   109.5600471 388.275200
   2182   2196   2200     1   109.5600471 388.275200
   2182   2196   2201     1   109.5600471 388.275200
   2183   2182   2184     1   109.5600471 388.275200
   2183   2186   2190     1   109.5600471 388.275200
   2183   2195   2198     1   107.2600461 396.643200
   2184   2182   2196     1   109.5600471 388.275200
   2184   2182   2204     1   109.7800468 425.094400
   2185   2183   2186     1   109.5600471 388.275200
   2185   2183   2195     1   110.2600474 425.931200
   2186   2187   2189     1   109.5600471 388.275200
   2186   2194   2197     1   107.2600461 396.643200
   2187   2186   2190     1   109.5600471 388.275200
   2187   2188   2191     1   110.2200475 386.601600
   2187   2193   2199     1   107.2600461 396.643200
   2188   2187   2189     1   109.5600471 388.275200
   2189   2187   2193     1   110.2600474 425.931200
   2190   2186   2194     1   110.2600474 425.931200
   2191   2188   2192     1   109.5800467 425.931200
   2191   2188   2204     1   109.5800467 425.931200
   2196   2202   2203     1   107.2600461 396.643200
   2200   2196   2202     1   110.2600474 425.931200
   2200   2196   2201     1   108.4600466 328.025600
   2201   2196   2202     1   110.2600474 425.931200
   2205   2206   2208     1   109.5600471 388.275200
   2205   2219   2223     1   109.5600471 388.275200
   2205   2219   2224     1   109.5600471 388.275200
   2206   2209   2213     1   109.5600471 388.275200
   2206   2218   2221     1   107.2600461 396.643200
   2206   2205   2207     1   109.5600471 388.275200
   2207   2205   2219     1   109.5600471 388.275200
   2207   2205   2227     1   109.7800468 425.094400
   2208   2206   2209     1   109.5600471 388.275200
   2208   2206   2218     1   110.2600474 425.931200
   2209   2210   2212     1   109.5600471 388.275200
   2209   2217   2220     1   107.2600461 396.643200
   2210   2211   2214     1   110.2200475 386.601600
   2210   2216   2222     1   107.2600461 396.643200
   2210   2209   2213     1   109.5600471 388.275200
   2211   2210   2212     1   109.5600471 388.275200
   2212   2210   2216     1   110.2600474 425.931200
   2213   2209   2217     1   110.2600474 425.931200
   2214   2211   2215     1   109.5800467 425.931200
   2214   2211   2227     1   109.5800467 425.931200
   2219   2225   2226     1   107.2600461 396.643200
   2223   2219   2225     1   110.2600474 425.931200
   2223   2219   2224     1   108.4600466 328.025600
   2224   2219   2225     1   110.2600474 425.931200
   2228   2229   2231     1   109.5600471 388.275200
   2228   2242   2246     1   109.5600471 388.275200
   2228   2242   2247     1   109.5600471 388.275200
   2229   2228   2230     1   109.5600471 388.275200
   2229   2232   2236     1   109.5600471 388.275200
   2229   2241   2244     1   107.2600461 396.643200
   2230   2228   2242     1   109.5600471 388.275200
   2230   2228   2250     1   109.7800468 425.094400
   2231   2229   2232     1   109.5600471 388.275200
   2231   2229   2241     1   110.2600474 425.931200
   2232   2233   2235     1   109.5600471 388.275200
   2232   2240   2243     1   107.2600461 396.643200
   2233   2232   2236     1   109.5600471 388.275200
   2233   2234   2237     1   110.2200475 386.601600
   2233   2239   2245     1   107.2600461 396.643200
   2234   2233   2235     1   109.5600471 388.275200
   2235   2233   2239     1   110.2600474 425.931200
   2236   2232   2240     1   110.2600474 425.931200
   2237   2234   2238     1   109.5800467 425.931200
   2237   2234   2250     1   109.5800467 425.931200
   2242   2248   2249     1   107.2600461 396.643200
   2246   2242   2248     1   110.2600474 425.931200
   2246   2242   2247     1   108.4600466 328.025600
   2247   2242   2248     1   110.2600474 425.931200
   2251   2252   2254     1   109.5600471 388.275200
   2251   2265   2269     1   109.5600471 388.275200
   2251   2265   2270     1   109.5600471 388.275200
   2252   2255   2259     1   109.5600471 388.275200
   2252   2264   2267     1   107.2600461 396.643200
   2252   2251   2253     1   109.5600471 388.275200
   2253   2251   2265     1   109.5600471 388.275200
   2253   2251   2273     1   109.7800468 425.094400
   2254   2252   2255     1   109.5600471 388.275200
   2254   2252   2264     1   110.2600474 425.931200
   2255   2256   2258     1   109.5600471 388.275200
   2255   2263   2266     1   107.2600461 396.643200
   2256   2257   2260     1   110.2200475 386.601600
   2256   2262   2268     1   107.2600461 396.643200
   2256   2255   2259     1   109.5600471 388.275200
   2257   2256   2258     1   109.5600471 388.275200
   2258   2256   2262     1   110.2600474 425.931200
   2259   2255   2263     1   110.2600474 425.931200
   2260   2257   2261     1   109.5800467 425.931200
   2260   2257   2273     1   109.5800467 425.931200
   2265   2271   2272     1   107.2600461 396.643200
   2269   2265   2271     1   110.2600474 425.931200
   2269   2265   2270     1   108.4600466 328.025600
   2270   2265   2271     1   110.2600474 425.931200
   2274   2275   2277     1   109.5600471 388.275200
   2274   2288   2292     1   109.5600471 388.275200
   2274   2288   2293     1   109.5600471 388.275200
   2275   2274   2276     1   109.5600471 388.275200
   2275   2278   2282     1   109.5600471 388.275200
   2275   2287   2290     1   107.2600461 396.643200
   2276   2274   2288     1   109.5600471 388.275200
   2276   2274   2296     1   109.7800468 425.094400
   2277   2275   2278     1   109.5600471 388.275200
   2277   2275   2287     1   110.2600474 425.931200
   2278   2279   2281     1   109.5600471 388.275200
   2278   2286   2289     1   107.2600461 396.643200
   2279   2278   2282     1   109.5600471 388.275200
   2279   2280   2283     1   110.2200475 386.601600
   2279   2285   2291     1   107.2600461 396.643200
   2280   2279   2281     1   109.5600471 388.275200
   2281   2279   2285     1   110.2600474 425.931200
   2282   2278   2286     1   110.2600474 425.931200
   2283   2280   2284     1   109.5800467 425.931200
   2283   2280   2296     1   109.5800467 425.931200
   2288   2294   2295     1   107.2600461 396.643200
   2292   2288   2294     1   110.2600474 425.931200
   2292   2288   2293     1   108.4600466 328.025600
   2293   2288   2294     1   110.2600474 425.931200
   2297   2298   2300     1   109.5600471 388.275200
   2297   2311   2315     1   109.5600471 388.275200
   2297   2311   2316     1   109.5600471 388.275200
   2298   2301   2305     1   109.5600471 388.275200
   2298   2310   2313     1   107.2600461 396.643200
   2298   2297   2299     1   109.5600471 388.275200
   2299   2297   2311     1   109.5600471 388.275200
   2299   2297   2319     1   109.7800468 425.094400
   2300   2298   2301     1   109.5600471 388.275200
   2300   2298   2310     1   110.2600474 425.931200
   2301   2302   2304     1   109.5600471 388.275200
   2301   2309   2312     1   107.2600461 396.643200
   2302   2303   2306     1   110.2200475 386.601600
   2302   2308   2314     1   107.2600461 396.643200
   2302   2301   2305     1   109.5600471 388.275200
   2303   2302   2304     1   109.5600471 388.275200
   2304   2302   2308     1   110.2600474 425.931200
   2305   2301   2309     1   110.2600474 425.931200
   2306   2303   2307     1   109.5800467 425.931200
   2306   2303   2319     1   109.5800467 425.931200
   2311   2317   2318     1   107.2600461 396.643200
   2315   2311   2317     1   110.2600474 425.931200
   2315   2311   2316     1   108.4600466 328.025600
   2316   2311   2317     1   110.2600474 425.931200
   2320   2321   2323     1   109.5600471 388.275200
   2320   2334   2338     1   109.5600471 388.275200
   2320   2334   2339     1   109.5600471 388.275200
   2321   2320   2322     1   109.5600471 388.275200
   2321   2324   2328     1   109.5600471 388.275200
   2321   2333   2336     1   107.2600461 396.643200
   2322   2320   2334     1   109.5600471 388.275200
   2322   2320   2342     1   109.7800468 425.094400
   2323   2321   2324     1   109.5600471 388.275200
   2323   2321   2333     1   110.2600474 425.931200
   2324   2325   2327     1   109.5600471 388.275200
   2324   2332   2335     1   107.2600461 396.643200
   2325   2324   2328     1   109.5600471 388.275200
   2325   2326   2329     1   110.2200475 386.601600
   2325   2331   2337     1   107.2600461 396.643200
   2326   2325   2327     1   109.5600471 388.275200
   2327   2325   2331     1   110.2600474 425.931200
   2328   2324   2332     1   110.2600474 425.931200
   2329   2326   2330     1   109.5800467 425.931200
   2329   2326   2342     1   109.5800467 425.931200
   2334   2340   2341     1   107.2600461 396.643200
   2338   2334   2340     1   110.2600474 425.931200
   2338   2334   2339     1   108.4600466 328.025600
   2339   2334   2340     1   110.2600474 425.931200
   2343   2344   2346     1   109.5600471 388.275200
   2343   2357   2361     1   109.5600471 388.275200
   2343   2357   2362     1   109.5600471 388.275200
   2344   2347   2351     1   109.5600471 388.275200
   2344   2356   2359     1   107.2600461 396.643200
   2344   2343   2345     1   109.5600471 388.275200
   2345   2343   2357     1   109.5600471 388.275200
   2345   2343   2365     1   109.7800468 425.094400
   2346   2344   2347     1   109.5600471 388.275200
   2346   2344   2356     1   110.2600474 425.931200
   2347   2348   2350     1   109.5600471 388.275200
   2347   2355   2358     1   107.2600461 396.643200
   2348   2349   2352     1   110.2200475 386.601600
   2348   2354   2360     1   107.2600461 396.643200
   2348   2347   2351     1   109.5600471 388.275200
   2349   2348   2350     1   109.5600471 388.275200
   2350   2348   2354     1   110.2600474 425.931200
   2351   2347   2355     1   110.2600474 425.931200
   2352   2349   2353     1   109.5800467 425.931200
   2352   2349   2365     1   109.5800467 425.931200
   2357   2363   2364     1   107.2600461 396.643200
   2361   2357   2363     1   110.2600474 425.931200
   2361   2357   2362     1   108.4600466 328.025600
   2362   2357   2363     1   110.2600474 425.931200
   2366   2367   2369     1   109.5600471 388.275200
   2366   2380   2384     1   109.5600471 388.275200
   2366   2380   2385     1   109.5600471 388.275200
   2367   2366   2368     1   109.5600471 388.275200
   2367   2370   2374     1   109.5600471 388.275200
   2367   2379   2382     1   107.2600461 396.643200
   2368   2366   2380     1   109.5600471 388.275200
   2368   2366   2388     1   109.7800468 425.094400
   2369   2367   2370     1   109.5600471 388.275200
   2369   2367   2379     1   110.2600474 425.931200
   2370   2371   2373     1   109.5600471 388.275200
   2370   2378   2381     1   107.2600461 396.643200
   2371   2370   2374     1   109.5600471 388.275200
   2371   2372   2375     1   110.2200475 386.601600
   2371   2377   2383     1   107.2600461 396.643200
   2372   2371   2373     1   109.5600471 388.275200
   2373   2371   2377     1   110.2600474 425.931200
   2374   2370   2378     1   110.2600474 425.931200
   2375   2372   2376     1   109.5800467 425.931200
   2375   2372   2388     1   109.5800467 425.931200
   2380   2386   2387     1   107.2600461 396.643200
   2384   2380   2386     1   110.2600474 425.931200
   2384   2380   2385     1   108.4600466 328.025600
   2385   2380   2386     1   110.2600474 425.931200
   2389   2390   2392     1   109.5600471 388.275200
   2389   2403   2407     1   109.5600471 388.275200
   2389   2403   2408     1   109.5600471 388.275200
   2390   2393   2397     1   109.5600471 388.275200
   2390   2402   2405     1   107.2600461 396.643200
   2390   2389   2391     1   109.5600471 388.275200
   2391   2389   2403     1   109.5600471 388.275200
   2391   2389   2411     1   109.7800468 425.094400
   2392   2390   2393     1   109.5600471 388.275200
   2392   2390   2402     1   110.2600474 425.931200
   2393   2394   2396     1   109.5600471 388.275200
   2393   2401   2404     1   107.2600461 396.643200
   2394   2395   2398     1   110.2200475 386.601600
   2394   2400   2406     1   107.2600461 396.643200
   2394   2393   2397     1   109.5600471 388.275200
   2395   2394   2396     1   109.5600471 388.275200
   2396   2394   2400     1   110.2600474 425.931200
   2397   2393   2401     1   110.2600474 425.931200
   2398   2395   2399     1   109.5800467 425.931200
   2398   2395   2411     1   109.5800467 425.931200
   2403   2409   2410     1   107.2600461 396.643200
   2407   2403   2409     1   110.2600474 425.931200
   2407   2403   2408     1   108.4600466 328.025600
   2408   2403   2409     1   110.2600474 425.931200
   2412   2413   2415     1   109.5600471 388.275200
   2412   2426   2430     1   109.5600471 388.275200
   2412   2426   2431     1   109.5600471 388.275200
   2413   2412   2414     1   109.5600471 388.275200
   2413   2416   2420     1   109.5600471 388.275200
   2413   2425   2428     1   107.2600461 396.643200
   2414   2412   2426     1   109.5600471 388.275200
   2414   2412   2434     1   109.7800468 425.094400
   2415   2413   2416     1   109.5600471 388.275200
   2415   2413   2425     1   110.2600474 425.931200
   2416   2417   2419     1   109.5600471 388.275200
   2416   2424   2427     1   107.2600461 396.643200
   2417   2416   2420     1   109.5600471 388.275200
   2417   2418   2421     1   110.2200475 386.601600
   2417   2423   2429     1   107.2600461 396.643200
   2418   2417   2419     1   109.5600471 388.275200
   2419   2417   2423     1   110.2600474 425.931200
   2420   2416   2424     1   110.2600474 425.931200
   2421   2418   2422     1   109.5800467 425.931200
   2421   2418   2434     1   109.5800467 425.931200
   2426   2432   2433     1   107.2600461 396.643200
   2430   2426   2432     1   110.2600474 425.931200
   2430   2426   2431     1   108.4600466 328.025600
   2431   2426   2432     1   110.2600474 425.931200
   2435   2436   2438     1   109.5600471 388.275200
   2435   2449   2453     1   109.5600471 388.275200
   2435   2449   2454     1   109.5600471 388.275200
   2436   2439   2443     1   109.5600471 388.275200
   2436   2448   2451     1   107.2600461 396.643200
   2436   2435   2437     1   109.5600471 388.275200
   2437   2435   2449     1   109.5600471 388.275200
   2437   2435   2457     1   109.7800468 425.094400
   2438   2436   2439     1   109.5600471 388.275200
   2438   2436   2448     1   110.2600474 425.931200
   2439   2440   2442     1   109.5600471 388.275200
   2439   2447   2450     1   107.2600461 396.643200
   2440   2441   2444     1   110.2200475 386.601600
   2440   2446   2452     1   107.2600461 396.643200
   2440   2439   2443     1   109.5600471 388.275200
   2441   2440   2442     1   109.5600471 388.275200
   2442   2440   2446     1   110.2600474 425.931200
   2443   2439   2447     1   110.2600474 425.931200
   2444   2441   2445     1   109.5800467 425.931200
   2444   2441   2457     1   109.5800467 425.931200
   2449   2455   2456     1   107.2600461 396.643200
   2453   2449   2455     1   110.2600474 425.931200
   2453   2449   2454     1   108.4600466 328.025600
   2454   2449   2455     1   110.2600474 425.931200
   2458   2459   2461     1   109.5600471 388.275200
   2458   2472   2476     1   109.5600471 388.275200
   2458   2472   2477     1   109.5600471 388.275200
   2459   2458   2460     1   109.5600471 388.275200
   2459   2462   2466     1   109.5600471 388.275200
   2459   2471   2474     1   107.2600461 396.643200
   2460   2458   2472     1   109.5600471 388.275200
   2460   2458   2480     1   109.7800468 425.094400
   2461   2459   2462     1   109.5600471 388.275200
   2461   2459   2471     1   110.2600474 425.931200
   2462   2463   2465     1   109.5600471 388.275200
   2462   2470   2473     1   107.2600461 396.643200
   2463   2462   2466     1   109.5600471 388.275200
   2463   2464   2467     1   110.2200475 386.601600
   2463   2469   2475     1   107.2600461 396.643200
   2464   2463   2465     1   109.5600471 388.275200
   2465   2463   2469     1   110.2600474 425.931200
   2466   2462   2470     1   110.2600474 425.931200
   2467   2464   2468     1   109.5800467 425.931200
   2467   2464   2480     1   109.5800467 425.931200
   2472   2478   2479     1   107.2600461 396.643200
   2476   2472   2478     1   110.2600474 425.931200
   2476   2472   2477     1   108.4600466 328.025600
   2477   2472   2478     1   110.2600474 425.931200
   2481   2482   2484     1   109.5600471 388.275200
   2481   2495   2499     1   109.5600471 388.275200
   2481   2495   2500     1   109.5600471 388.275200
   2482   2485   2489     1   109.5600471 388.275200
   2482   2494   2497     1   107.2600461 396.643200
   2482   2481   2483     1   109.5600471 388.275200
   2483   2481   2495     1   109.5600471 388.275200
   2483   2481   2503     1   109.7800468 425.094400
   2484   2482   2485     1   109.5600471 388.275200
   2484   2482   2494     1   110.2600474 425.931200
   2485   2486   2488     1   109.5600471 388.275200
   2485   2493   2496     1   107.2600461 396.643200
   2486   2487   2490     1   110.2200475 386.601600
   2486   2492   2498     1   107.2600461 396.643200
   2486   2485   2489     1   109.5600471 388.275200
   2487   2486   2488     1   109.5600471 388.275200
   2488   2486   2492     1   110.2600474 425.931200
   2489   2485   2493     1   110.2600474 425.931200
   2490   2487   2491     1   109.5800467 425.931200
   2490   2487   2503     1   109.5800467 425.931200
   2495   2501   2502     1   107.2600461 396.643200
   2499   2495   2501     1   110.2600474 425.931200
   2499   2495   2500     1   108.4600466 328.025600
   2500   2495   2501     1   110.2600474 425.931200
   2504   2505   2507     1   109.5600471 388.275200
   2504   2518   2522     1   109.5600471 388.275200
   2504   2518   2523     1   109.5600471 388.275200
   2505   2504   2506     1   109.5600471 388.275200
   2505   2508   2512     1   109.5600471 388.275200
   2505   2517   2520     1   107.2600461 396.643200
   2506   2504   2518     1   109.5600471 388.275200
   2506   2504   2526     1   109.7800468 425.094400
   2507   2505   2508     1   109.5600471 388.275200
   2507   2505   2517     1   110.2600474 425.931200
   2508   2509   2511     1   109.5600471 388.275200
   2508   2516   2519     1   107.2600461 396.643200
   2509   2508   2512     1   109.5600471 388.275200
   2509   2510   2513     1   110.2200475 386.601600
   2509   2515   2521     1   107.2600461 396.643200
   2510   2509   2511     1   109.5600471 388.275200
   2511   2509   2515     1   110.2600474 425.931200
   2512   2508   2516     1   110.2600474 425.931200
   2513   2510   2514     1   109.5800467 425.931200
   2513   2510   2526     1   109.5800467 425.931200
   2518   2524   2525     1   107.2600461 396.643200
   2522   2518   2524     1   110.2600474 425.931200
   2522   2518   2523     1   108.4600466 328.025600
   2523   2518   2524     1   110.2600474 425.931200
   2527   2528   2530     1   109.5600471 388.275200
   2527   2541   2545     1   109.5600471 388.275200
   2527   2541   2546     1   109.5600471 388.275200
   2528   2531   2535     1   109.5600471 388.275200
   2528   2540   2543     1   107.2600461 396.643200
   2528   2527   2529     1   109.5600471 388.275200
   2529   2527   2541     1   109.5600471 388.275200
   2529   2527   2549     1   109.7800468 425.094400
   2530   2528   2531     1   109.5600471 388.275200
   2530   2528   2540     1   110.2600474 425.931200
   2531   2532   2534     1   109.5600471 388.275200
   2531   2539   2542     1   107.2600461 396.643200
   2532   2533   2536     1   110.2200475 386.601600
   2532   2538   2544     1   107.2600461 396.643200
   2532   2531   2535     1   109.5600471 388.275200
   2533   2532   2534     1   109.5600471 388.275200
   2534   2532   2538     1   110.2600474 425.931200
   2535   2531   2539     1   110.2600474 425.931200
   2536   2533   2537     1   109.5800467 425.931200
   2536   2533   2549     1   109.5800467 425.931200
   2541   2547   2548     1   107.2600461 396.643200
   2545   2541   2547     1   110.2600474 425.931200
   2545   2541   2546     1   108.4600466 328.025600
   2546   2541   2547     1   110.2600474 425.931200
   2550   2551   2553     1   109.5600471 388.275200
   2550   2564   2568     1   109.5600471 388.275200
   2550   2564   2569     1   109.5600471 388.275200
   2551   2550   2552     1   109.5600471 388.275200
   2551   2554   2558     1   109.5600471 388.275200
   2551   2563   2566     1   107.2600461 396.643200
   2552   2550   2564     1   109.5600471 388.275200
   2552   2550   2572     1   109.7800468 425.094400
   2553   2551   2554     1   109.5600471 388.275200
   2553   2551   2563     1   110.2600474 425.931200
   2554   2555   2557     1   109.5600471 388.275200
   2554   2562   2565     1   107.2600461 396.643200
   2555   2554   2558     1   109.5600471 388.275200
   2555   2556   2559     1   110.2200475 386.601600
   2555   2561   2567     1   107.2600461 396.643200
   2556   2555   2557     1   109.5600471 388.275200
   2557   2555   2561     1   110.2600474 425.931200
   2558   2554   2562     1   110.2600474 425.931200
   2559   2556   2560     1   109.5800467 425.931200
   2559   2556   2572     1   109.5800467 425.931200
   2564   2570   2571     1   107.2600461 396.643200
   2568   2564   2570     1   110.2600474 425.931200
   2568   2564   2569     1   108.4600466 328.025600
   2569   2564   2570     1   110.2600474 425.931200
   2573   2574   2576     1   109.5600471 388.275200
   2573   2587   2591     1   109.5600471 388.275200
   2573   2587   2592     1   109.5600471 388.275200
   2574   2577   2581     1   109.5600471 388.275200
   2574   2586   2589     1   107.2600461 396.643200
   2574   2573   2575     1   109.5600471 388.275200
   2575   2573   2587     1   109.5600471 388.275200
   2575   2573   2595     1   109.7800468 425.094400
   2576   2574   2577     1   109.5600471 388.275200
   2576   2574   2586     1   110.2600474 425.931200
   2577   2578   2580     1   109.5600471 388.275200
   2577   2585   2588     1   107.2600461 396.643200
   2578   2579   2582     1   110.2200475 386.601600
   2578   2584   2590     1   107.2600461 396.643200
   2578   2577   2581     1   109.5600471 388.275200
   2579   2578   2580     1   109.5600471 388.275200
   2580   2578   2584     1   110.2600474 425.931200
   2581   2577   2585     1   110.2600474 425.931200
   2582   2579   2583     1   109.5800467 425.931200
   2582   2579   2595     1   109.5800467 425.931200
   2587   2593   2594     1   107.2600461 396.643200
   2591   2587   2593     1   110.2600474 425.931200
   2591   2587   2592     1   108.4600466 328.025600
   2592   2587   2593     1   110.2600474 425.931200
   2596   2597   2599     1   109.5600471 388.275200
   2596   2610   2614     1   109.5600471 388.275200
   2596   2610   2615     1   109.5600471 388.275200
   2597   2596   2598     1   109.5600471 388.275200
   2597   2600   2604     1   109.5600471 388.275200
   2597   2609   2612     1   107.2600461 396.643200
   2598   2596   2610     1   109.5600471 388.275200
   2598   2596   2618     1   109.7800468 425.094400
   2599   2597   2600     1   109.5600471 388.275200
   2599   2597   2609     1   110.2600474 425.931200
   2600   2601   2603     1   109.5600471 388.275200
   2600   2608   2611     1   107.2600461 396.643200
   2601   2600   2604     1   109.5600471 388.275200
   2601   2602   2605     1   110.2200475 386.601600
   2601   2607   2613     1   107.2600461 396.643200
   2602   2601   2603     1   109.5600471 388.275200
   2603   2601   2607     1   110.2600474 425.931200
   2604   2600   2608     1   110.2600474 425.931200
   2605   2602   2606     1   109.5800467 425.931200
   2605   2602   2618     1   109.5800467 425.931200
   2610   2616   2617     1   107.2600461 396.643200
   2614   2610   2616     1   110.2600474 425.931200
   2614   2610   2615     1   108.4600466 328.025600
   2615   2610   2616     1   110.2600474 425.931200
   2619   2620   2622     1   109.5600471 388.275200
   2619   2633   2637     1   109.5600471 388.275200
   2619   2633   2638     1   109.5600471 388.275200
   2620   2623   2627     1   109.5600471 388.275200
   2620   2632   2635     1   107.2600461 396.643200
   2620   2619   2621     1   109.5600471 388.275200
   2621   2619   2633     1   109.5600471 388.275200
   2621   2619   2641     1   109.7800468 425.094400
   2622   2620   2623     1   109.5600471 388.275200
   2622   2620   2632     1   110.2600474 425.931200
   2623   2624   2626     1   109.5600471 388.275200
   2623   2631   2634     1   107.2600461 396.643200
   2624   2625   2628     1   110.2200475 386.601600
   2624   2630   2636     1   107.2600461 396.643200
   2624   2623   2627     1   109.5600471 388.275200
   2625   2624   2626     1   109.5600471 388.275200
   2626   2624   2630     1   110.2600474 425.931200
   2627   2623   2631     1   110.2600474 425.931200
   2628   2625   2629     1   109.5800467 425.931200
   2628   2625   2641     1   109.5800467 425.931200
   2633   2639   2640     1   107.2600461 396.643200
   2637   2633   2639     1   110.2600474 425.931200
   2637   2633   2638     1   108.4600466 328.025600
   2638   2633   2639     1   110.2600474 425.931200
   2642   2643   2645     1   109.5600471 388.275200
   2642   2656   2660     1   109.5600471 388.275200
   2642   2656   2661     1   109.5600471 388.275200
   2643   2642   2644     1   109.5600471 388.275200
   2643   2646   2650     1   109.5600471 388.275200
   2643   2655   2658     1   107.2600461 396.643200
   2644   2642   2656     1   109.5600471 388.275200
   2644   2642   2664     1   109.7800468 425.094400
   2645   2643   2646     1   109.5600471 388.275200
   2645   2643   2655     1   110.2600474 425.931200
   2646   2647   2649     1   109.5600471 388.275200
   2646   2654   2657     1   107.2600461 396.643200
   2647   2646   2650     1   109.5600471 388.275200
   2647   2648   2651     1   110.2200475 386.601600
   2647   2653   2659     1   107.2600461 396.643200
   2648   2647   2649     1   109.5600471 388.275200
   2649   2647   2653     1   110.2600474 425.931200
   2650   2646   2654     1   110.2600474 425.931200
   2651   2648   2652     1   109.5800467 425.931200
   2651   2648   2664     1   109.5800467 425.931200
   2656   2662   2663     1   107.2600461 396.643200
   2660   2656   2662     1   110.2600474 425.931200
   2660   2656   2661     1   108.4600466 328.025600
   2661   2656   2662     1   110.2600474 425.931200
   2665   2666   2668     1   109.5600471 388.275200
   2665   2679   2683     1   109.5600471 388.275200
   2665   2679   2684     1   109.5600471 388.275200
   2666   2669   2673     1   109.5600471 388.275200
   2666   2678   2681     1   107.2600461 396.643200
   2666   2665   2667     1   109.5600471 388.275200
   2667   2665   2679     1   109.5600471 388.275200
   2667   2665   2687     1   109.7800468 425.094400
   2668   2666   2669     1   109.5600471 388.275200
   2668   2666   2678     1   110.2600474 425.931200
   2669   2670   2672     1   109.5600471 388.275200
   2669   2677   2680     1   107.2600461 396.643200
   2670   2671   2674     1   110.2200475 386.601600
   2670   2676   2682     1   107.2600461 396.643200
   2670   2669   2673     1   109.5600471 388.275200
   2671   2670   2672     1   109.5600471 388.275200
   2672   2670   2676     1   110.2600474 425.931200
   2673   2669   2677     1   110.2600474 425.931200
   2674   2671   2675     1   109.5800467 425.931200
   2674   2671   2687     1   109.5800467 425.931200
   2679   2685   2686     1   107.2600461 396.643200
   2683   2679   2685     1   110.2600474 425.931200
   2683   2679   2684     1   108.4600466 328.025600
   2684   2679   2685     1   110.2600474 425.931200
   2688   2689   2691     1   109.5600471 388.275200
   2688   2702   2706     1   109.5600471 388.275200
   2688   2702   2707     1   109.5600471 388.275200
   2689   2688   2690     1   109.5600471 388.275200
   2689   2692   2696     1   109.5600471 388.275200
   2689   2701   2704     1   107.2600461 396.643200
   2690   2688   2702     1   109.5600471 388.275200
   2690   2688   2710     1   109.7800468 425.094400
   2691   2689   2692     1   109.5600471 388.275200
   2691   2689   2701     1   110.2600474 425.931200
   2692   2693   2695     1   109.5600471 388.275200
   2692   2700   2703     1   107.2600461 396.643200
   2693   2692   2696     1   109.5600471 388.275200
   2693   2694   2697     1   110.2200475 386.601600
   2693   2699   2705     1   107.2600461 396.643200
   2694   2693   2695     1   109.5600471 388.275200
   2695   2693   2699     1   110.2600474 425.931200
   2696   2692   2700     1   110.2600474 425.931200
   2697   2694   2698     1   109.5800467 425.931200
   2697   2694   2710     1   109.5800467 425.931200
   2702   2708   2709     1   107.2600461 396.643200
   2706   2702   2708     1   110.2600474 425.931200
   2706   2702   2707     1   108.4600466 328.025600
   2707   2702   2708     1   110.2600474 425.931200
   2711   2712   2714     1   109.5600471 388.275200
   2711   2725   2729     1   109.5600471 388.275200
   2711   2725   2730     1   109.5600471 388.275200
   2712   2715   2719     1   109.5600471 388.275200
   2712   2724   2727     1   107.2600461 396.643200
   2712   2711   2713     1   109.5600471 388.275200
   2713   2711   2725     1   109.5600471 388.275200
   2713   2711   2733     1   109.7800468 425.094400
   2714   2712   2715     1   109.5600471 388.275200
   2714   2712   2724     1   110.2600474 425.931200
   2715   2716   2718     1   109.5600471 388.275200
   2715   2723   2726     1   107.2600461 396.643200
   2716   2717   2720     1   110.2200475 386.601600
   2716   2722   2728     1   107.2600461 396.643200
   2716   2715   2719     1   109.5600471 388.275200
   2717   2716   2718     1   109.5600471 388.275200
   2718   2716   2722     1   110.2600474 425.931200
   2719   2715   2723     1   110.2600474 425.931200
   2720   2717   2721     1   109.5800467 425.931200
   2720   2717   2733     1   109.5800467 425.931200
   2725   2731   2732     1   107.2600461 396.643200
   2729   2725   2731     1   110.2600474 425.931200
   2729   2725   2730     1   108.4600466 328.025600
   2730   2725   2731     1   110.2600474 425.931200
   2734   2735   2737     1   109.5600471 388.275200
   2734   2748   2752     1   109.5600471 388.275200
   2734   2748   2753     1   109.5600471 388.275200
   2735   2734   2736     1   109.5600471 388.275200
   2735   2738   2742     1   109.5600471 388.275200
   2735   2747   2750     1   107.2600461 396.643200
   2736   2734   2748     1   109.5600471 388.275200
   2736   2734   2756     1   109.7800468 425.094400
   2737   2735   2738     1   109.5600471 388.275200
   2737   2735   2747     1   110.2600474 425.931200
   2738   2739   2741     1   109.5600471 388.275200
   2738   2746   2749     1   107.2600461 396.643200
   2739   2738   2742     1   109.5600471 388.275200
   2739   2740   2743     1   110.2200475 386.601600
   2739   2745   2751     1   107.2600461 396.643200
   2740   2739   2741     1   109.5600471 388.275200
   2741   2739   2745     1   110.2600474 425.931200
   2742   2738   2746     1   110.2600474 425.931200
   2743   2740   2744     1   109.5800467 425.931200
   2743   2740   2756     1   109.5800467 425.931200
   2748   2754   2755     1   107.2600461 396.643200
   2752   2748   2754     1   110.2600474 425.931200
   2752   2748   2753     1   108.4600466 328.025600
   2753   2748   2754     1   110.2600474 425.931200
   2757   2758   2760     1   109.5600471 388.275200
   2757   2771   2775     1   109.5600471 388.275200
   2757   2771   2776     1   109.5600471 388.275200
   2758   2761   2765     1   109.5600471 388.275200
   2758   2770   2773     1   107.2600461 396.643200
   2758   2757   2759     1   109.5600471 388.275200
   2759   2757   2771     1   109.5600471 388.275200
   2759   2757   2779     1   109.7800468 425.094400
   2760   2758   2761     1   109.5600471 388.275200
   2760   2758   2770     1   110.2600474 425.931200
   2761   2762   2764     1   109.5600471 388.275200
   2761   2769   2772     1   107.2600461 396.643200
   2762   2763   2766     1   110.2200475 386.601600
   2762   2768   2774     1   107.2600461 396.643200
   2762   2761   2765     1   109.5600471 388.275200
   2763   2762   2764     1   109.5600471 388.275200
   2764   2762   2768     1   110.2600474 425.931200
   2765   2761   2769     1   110.2600474 425.931200
   2766   2763   2767     1   109.5800467 425.931200
   2766   2763   2779     1   109.5800467 425.931200
   2771   2777   2778     1   107.2600461 396.643200
   2775   2771   2777     1   110.2600474 425.931200
   2775   2771   2776     1   108.4600466 328.025600
   2776   2771   2777     1   110.2600474 425.931200
   2780   2781   2783     1   109.5600471 388.275200
   2780   2794   2798     1   109.5600471 388.275200
   2780   2794   2799     1   109.5600471 388.275200
   2781   2780   2782     1   109.5600471 388.275200
   2781   2784   2788     1   109.5600471 388.275200
   2781   2793   2796     1   107.2600461 396.643200
   2782   2780   2794     1   109.5600471 388.275200
   2782   2780   2802     1   109.7800468 425.094400
   2783   2781   2784     1   109.5600471 388.275200
   2783   2781   2793     1   110.2600474 425.931200
   2784   2785   2787     1   109.5600471 388.275200
   2784   2792   2795     1   107.2600461 396.643200
   2785   2784   2788     1   109.5600471 388.275200
   2785   2786   2789     1   110.2200475 386.601600
   2785   2791   2797     1   107.2600461 396.643200
   2786   2785   2787     1   109.5600471 388.275200
   2787   2785   2791     1   110.2600474 425.931200
   2788   2784   2792     1   110.2600474 425.931200
   2789   2786   2790     1   109.5800467 425.931200
   2789   2786   2802     1   109.5800467 425.931200
   2794   2800   2801     1   107.2600461 396.643200
   2798   2794   2800     1   110.2600474 425.931200
   2798   2794   2799     1   108.4600466 328.025600
   2799   2794   2800     1   110.2600474 425.931200
   2803   2804   2806     1   109.5600471 388.275200
   2803   2817   2821     1   109.5600471 388.275200
   2803   2817   2822     1   109.5600471 388.275200
   2804   2807   2811     1   109.5600471 388.275200
   2804   2816   2819     1   107.2600461 396.643200
   2804   2803   2805     1   109.5600471 388.275200
   2805   2803   2817     1   109.5600471 388.275200
   2805   2803   2825     1   109.7800468 425.094400
   2806   2804   2807     1   109.5600471 388.275200
   2806   2804   2816     1   110.2600474 425.931200
   2807   2808   2810     1   109.5600471 388.275200
   2807   2815   2818     1   107.2600461 396.643200
   2808   2809   2812     1   110.2200475 386.601600
   2808   2814   2820     1   107.2600461 396.643200
   2808   2807   2811     1   109.5600471 388.275200
   2809   2808   2810     1   109.5600471 388.275200
   2810   2808   2814     1   110.2600474 425.931200
   2811   2807   2815     1   110.2600474 425.931200
   2812   2809   2813     1   109.5800467 425.931200
   2812   2809   2825     1   109.5800467 425.931200
   2817   2823   2824     1   107.2600461 396.643200
   2821   2817   2823     1   110.2600474 425.931200
   2821   2817   2822     1   108.4600466 328.025600
   2822   2817   2823     1   110.2600474 425.931200
   2826   2827   2829     1   109.5600471 388.275200
   2826   2840   2844     1   109.5600471 388.275200
   2826   2840   2845     1   109.5600471 388.275200
   2827   2826   2828     1   109.5600471 388.275200
   2827   2830   2834     1   109.5600471 388.275200
   2827   2839   2842     1   107.2600461 396.643200
   2828   2826   2840     1   109.5600471 388.275200
   2828   2826   2848     1   109.7800468 425.094400
   2829   2827   2830     1   109.5600471 388.275200
   2829   2827   2839     1   110.2600474 425.931200
   2830   2831   2833     1   109.5600471 388.275200
   2830   2838   2841     1   107.2600461 396.643200
   2831   2830   2834     1   109.5600471 388.275200
   2831   2832   2835     1   110.2200475 386.601600
   2831   2837   2843     1   107.2600461 396.643200
   2832   2831   2833     1   109.5600471 388.275200
   2833   2831   2837     1   110.2600474 425.931200
   2834   2830   2838     1   110.2600474 425.931200
   2835   2832   2836     1   109.5800467 425.931200
   2835   2832   2848     1   109.5800467 425.931200
   2840   2846   2847     1   107.2600461 396.643200
   2844   2840   2846     1   110.2600474 425.931200
   2844   2840   2845     1   108.4600466 328.025600
   2845   2840   2846     1   110.2600474 425.931200
   2849   2850   2852     1   109.5600471 388.275200
   2849   2863   2867     1   109.5600471 388.275200
   2849   2863   2868     1   109.5600471 388.275200
   2850   2853   2857     1   109.5600471 388.275200
   2850   2862   2865     1   107.2600461 396.643200
   2850   2849   2851     1   109.5600471 388.275200
   2851   2849   2863     1   109.5600471 388.275200
   2851   2849   2871     1   109.7800468 425.094400
   2852   2850   2853     1   109.5600471 388.275200
   2852   2850   2862     1   110.2600474 425.931200
   2853   2854   2856     1   109.5600471 388.275200
   2853   2861   2864     1   107.2600461 396.643200
   2854   2855   2858     1   110.2200475 386.601600
   2854   2860   2866     1   107.2600461 396.643200
   2854   2853   2857     1   109.5600471 388.275200
   2855   2854   2856     1   109.5600471 388.275200
   2856   2854   2860     1   110.2600474 425.931200
   2857   2853   2861     1   110.2600474 425.931200
   2858   2855   2859     1   109.5800467 425.931200
   2858   2855   2871     1   109.5800467 425.931200
   2863   2869   2870     1   107.2600461 396.643200
   2867   2863   2869     1   110.2600474 425.931200
   2867   2863   2868     1   108.4600466 328.025600
   2868   2863   2869     1   110.2600474 425.931200
   2872   2873   2875     1   109.5600471 388.275200
   2872   2886   2890     1   109.5600471 388.275200
   2872   2886   2891     1   109.5600471 388.275200
   2873   2872   2874     1   109.5600471 388.275200
   2873   2876   2880     1   109.5600471 388.275200
   2873   2885   2888     1   107.2600461 396.643200
   2874   2872   2886     1   109.5600471 388.275200
   2874   2872   2894     1   109.7800468 425.094400
   2875   2873   2876     1   109.5600471 388.275200
   2875   2873   2885     1   110.2600474 425.931200
   2876   2877   2879     1   109.5600471 388.275200
   2876   2884   2887     1   107.2600461 396.643200
   2877   2876   2880     1   109.5600471 388.275200
   2877   2878   2881     1   110.2200475 386.601600
   2877   2883   2889     1   107.2600461 396.643200
   2878   2877   2879     1   109.5600471 388.275200
   2879   2877   2883     1   110.2600474 425.931200
   2880   2876   2884     1   110.2600474 425.931200
   2881   2878   2882     1   109.5800467 425.931200
   2881   2878   2894     1   109.5800467 425.931200
   2886   2892   2893     1   107.2600461 396.643200
   2890   2886   2892     1   110.2600474 425.931200
   2890   2886   2891     1   108.4600466 328.025600
   2891   2886   2892     1   110.2600474 425.931200
   2895   2896   2898     1   109.5600471 388.275200
   2895   2909   2913     1   109.5600471 388.275200
   2895   2909   2914     1   109.5600471 388.275200
   2896   2899   2903     1   109.5600471 388.275200
   2896   2908   2911     1   107.2600461 396.643200
   2896   2895   2897     1   109.5600471 388.275200
   2897   2895   2909     1   109.5600471 388.275200
   2897   2895   2917     1   109.7800468 425.094400
   2898   2896   2899     1   109.5600471 388.275200
   2898   2896   2908     1   110.2600474 425.931200
   2899   2900   2902     1   109.5600471 388.275200
   2899   2907   2910     1   107.2600461 396.643200
   2900   2901   2904     1   110.2200475 386.601600
   2900   2906   2912     1   107.2600461 396.643200
   2900   2899   2903     1   109.5600471 388.275200
   2901   2900   2902     1   109.5600471 388.275200
   2902   2900   2906     1   110.2600474 425.931200
   2903   2899   2907     1   110.2600474 425.931200
   2904   2901   2905     1   109.5800467 425.931200
   2904   2901   2917     1   109.5800467 425.931200
   2909   2915   2916     1   107.2600461 396.643200
   2913   2909   2915     1   110.2600474 425.931200
   2913   2909   2914     1   108.4600466 328.025600
   2914   2909   2915     1   110.2600474 425.931200
   2918   2919   2921     1   109.5600471 388.275200
   2918   2932   2936     1   109.5600471 388.275200
   2918   2932   2937     1   109.5600471 388.275200
   2919   2918   2920     1   109.5600471 388.275200
   2919   2922   2926     1   109.5600471 388.275200
   2919   2931   2934     1   107.2600461 396.643200
   2920   2918   2932     1   109.5600471 388.275200
   2920   2918   2940     1   109.7800468 425.094400
   2921   2919   2922     1   109.5600471 388.275200
   2921   2919   2931     1   110.2600474 425.931200
   2922   2923   2925     1   109.5600471 388.275200
   2922   2930   2933     1   107.2600461 396.643200
   2923   2922   2926     1   109.5600471 388.275200
   2923   2924   2927     1   110.2200475 386.601600
   2923   2929   2935     1   107.2600461 396.643200
   2924   2923   2925     1   109.5600471 388.275200
   2925   2923   2929     1   110.2600474 425.931200
   2926   2922   2930     1   110.2600474 425.931200
   2927   2924   2928     1   109.5800467 425.931200
   2927   2924   2940     1   109.5800467 425.931200
   2932   2938   2939     1   107.2600461 396.643200
   2936   2932   2938     1   110.2600474 425.931200
   2936   2932   2937     1   108.4600466 328.025600
   2937   2932   2938     1   110.2600474 425.931200
   2941   2942   2944     1   109.5600471 388.275200
   2941   2955   2959     1   109.5600471 388.275200
   2941   2955   2960     1   109.5600471 388.275200
   2942   2945   2949     1   109.5600471 388.275200
   2942   2954   2957     1   107.2600461 396.643200
   2942   2941   2943     1   109.5600471 388.275200
   2943   2941   2955     1   109.5600471 388.275200
   2943   2941   2963     1   109.7800468 425.094400
   2944   2942   2945     1   109.5600471 388.275200
   2944   2942   2954     1   110.2600474 425.931200
   2945   2946   2948     1   109.5600471 388.275200
   2945   2953   2956     1   107.2600461 396.643200
   2946   2947   2950     1   110.2200475 386.601600
   2946   2952   2958     1   107.2600461 396.643200
   2946   2945   2949     1   109.5600471 388.275200
   2947   2946   2948     1   109.5600471 388.275200
   2948   2946   2952     1   110.2600474 425.931200
   2949   2945   2953     1   110.2600474 425.931200
   2950   2947   2951     1   109.5800467 425.931200
   2950   2947   2963     1   109.5800467 425.931200
   2955   2961   2962     1   107.2600461 396.643200
   2959   2955   2961     1   110.2600474 425.931200
   2959   2955   2960     1   108.4600466 328.025600
   2960   2955   2961     1   110.2600474 425.931200
   2964   2965   2967     1   109.5600471 388.275200
   2964   2978   2982     1   109.5600471 388.275200
   2964   2978   2983     1   109.5600471 388.275200
   2965   2964   2966     1   109.5600471 388.275200
   2965   2968   2972     1   109.5600471 388.275200
   2965   2977   2980     1   107.2600461 396.643200
   2966   2964   2978     1   109.5600471 388.275200
   2966   2964   2986     1   109.7800468 425.094400
   2967   2965   2968     1   109.5600471 388.275200
   2967   2965   2977     1   110.2600474 425.931200
   2968   2969   2971     1   109.5600471 388.275200
   2968   2976   2979     1   107.2600461 396.643200
   2969   2968   2972     1   109.5600471 388.275200
   2969   2970   2973     1   110.2200475 386.601600
   2969   2975   2981     1   107.2600461 396.643200
   2970   2969   2971     1   109.5600471 388.275200
   2971   2969   2975     1   110.2600474 425.931200
   2972   2968   2976     1   110.2600474 425.931200
   2973   2970   2974     1   109.5800467 425.931200
   2973   2970   2986     1   109.5800467 425.931200
   2978   2984   2985     1   107.2600461 396.643200
   2982   2978   2984     1   110.2600474 425.931200
   2982   2978   2983     1   108.4600466 328.025600
   2983   2978   2984     1   110.2600474 425.931200
   2987   2988   2990     1   109.5600471 388.275200
   2987   3001   3005     1   109.5600471 388.275200
   2987   3001   3006     1   109.5600471 388.275200
   2988   2991   2995     1   109.5600471 388.275200
   2988   3000   3003     1   107.2600461 396.643200
   2988   2987   2989     1   109.5600471 388.275200
   2989   2987   3001     1   109.5600471 388.275200
   2989   2987   3009     1   109.7800468 425.094400
   2990   2988   2991     1   109.5600471 388.275200
   2990   2988   3000     1   110.2600474 425.931200
   2991   2992   2994     1   109.5600471 388.275200
   2991   2999   3002     1   107.2600461 396.643200
   2992   2993   2996     1   110.2200475 386.601600
   2992   2998   3004     1   107.2600461 396.643200
   2992   2991   2995     1   109.5600471 388.275200
   2993   2992   2994     1   109.5600471 388.275200
   2994   2992   2998     1   110.2600474 425.931200
   2995   2991   2999     1   110.2600474 425.931200
   2996   2993   2997     1   109.5800467 425.931200
   2996   2993   3009     1   109.5800467 425.931200
   3001   3007   3008     1   107.2600461 396.643200
   3005   3001   3007     1   110.2600474 425.931200
   3005   3001   3006     1   108.4600466 328.025600
   3006   3001   3007     1   110.2600474 425.931200
   3010   3011   3013     1   109.5600471 388.275200
   3010   3024   3028     1   109.5600471 388.275200
   3010   3024   3029     1   109.5600471 388.275200
   3011   3010   3012     1   109.5600471 388.275200
   3011   3014   3018     1   109.5600471 388.275200
   3011   3023   3026     1   107.2600461 396.643200
   3012   3010   3024     1   109.5600471 388.275200
   3012   3010   3032     1   109.7800468 425.094400
   3013   3011   3014     1   109.5600471 388.275200
   3013   3011   3023     1   110.2600474 425.931200
   3014   3015   3017     1   109.5600471 388.275200
   3014   3022   3025     1   107.2600461 396.643200
   3015   3014   3018     1   109.5600471 388.275200
   3015   3016   3019     1   110.2200475 386.601600
   3015   3021   3027     1   107.2600461 396.643200
   3016   3015   3017     1   109.5600471 388.275200
   3017   3015   3021     1   110.2600474 425.931200
   3018   3014   3022     1   110.2600474 425.931200
   3019   3016   3020     1   109.5800467 425.931200
   3019   3016   3032     1   109.5800467 425.931200
   3024   3030   3031     1   107.2600461 396.643200
   3028   3024   3030     1   110.2600474 425.931200
   3028   3024   3029     1   108.4600466 328.025600
   3029   3024   3030     1   110.2600474 425.931200
   3033   3034   3036     1   109.5600471 388.275200
   3033   3047   3051     1   109.5600471 388.275200
   3033   3047   3052     1   109.5600471 388.275200
   3034   3037   3041     1   109.5600471 388.275200
   3034   3046   3049     1   107.2600461 396.643200
   3034   3033   3035     1   109.5600471 388.275200
   3035   3033   3047     1   109.5600471 388.275200
   3035   3033   3055     1   109.7800468 425.094400
   3036   3034   3037     1   109.5600471 388.275200
   3036   3034   3046     1   110.2600474 425.931200
   3037   3038   3040     1   109.5600471 388.275200
   3037   3045   3048     1   107.2600461 396.643200
   3038   3039   3042     1   110.2200475 386.601600
   3038   3044   3050     1   107.2600461 396.643200
   3038   3037   3041     1   109.5600471 388.275200
   3039   3038   3040     1   109.5600471 388.275200
   3040   3038   3044     1   110.2600474 425.931200
   3041   3037   3045     1   110.2600474 425.931200
   3042   3039   3043     1   109.5800467 425.931200
   3042   3039   3055     1   109.5800467 425.931200
   3047   3053   3054     1   107.2600461 396.643200
   3051   3047   3053     1   110.2600474 425.931200
   3051   3047   3052     1   108.4600466 328.025600
   3052   3047   3053     1   110.2600474 425.931200
   3056   3057   3059     1   109.5600471 388.275200
   3056   3070   3074     1   109.5600471 388.275200
   3056   3070   3075     1   109.5600471 388.275200
   3057   3056   3058     1   109.5600471 388.275200
   3057   3060   3064     1   109.5600471 388.275200
   3057   3069   3072     1   107.2600461 396.643200
   3058   3056   3070     1   109.5600471 388.275200
   3058   3056   3078     1   109.7800468 425.094400
   3059   3057   3060     1   109.5600471 388.275200
   3059   3057   3069     1   110.2600474 425.931200
   3060   3061   3063     1   109.5600471 388.275200
   3060   3068   3071     1   107.2600461 396.643200
   3061   3060   3064     1   109.5600471 388.275200
   3061   3062   3065     1   110.2200475 386.601600
   3061   3067   3073     1   107.2600461 396.643200
   3062   3061   3063     1   109.5600471 388.275200
   3063   3061   3067     1   110.2600474 425.931200
   3064   3060   3068     1   110.2600474 425.931200
   3065   3062   3066     1   109.5800467 425.931200
   3065   3062   3078     1   109.5800467 425.931200
   3070   3076   3077     1   107.2600461 396.643200
   3074   3070   3076     1   110.2600474 425.931200
   3074   3070   3075     1   108.4600466 328.025600
   3075   3070   3076     1   110.2600474 425.931200
   3079   3080   3082     1   109.5600471 388.275200
   3079   3093   3097     1   109.5600471 388.275200
   3079   3093   3098     1   109.5600471 388.275200
   3080   3083   3087     1   109.5600471 388.275200
   3080   3092   3095     1   107.2600461 396.643200
   3080   3079   3081     1   109.5600471 388.275200
   3081   3079   3093     1   109.5600471 388.275200
   3081   3079   3101     1   109.7800468 425.094400
   3082   3080   3083     1   109.5600471 388.275200
   3082   3080   3092     1   110.2600474 425.931200
   3083   3084   3086     1   109.5600471 388.275200
   3083   3091   3094     1   107.2600461 396.643200
   3084   3085   3088     1   110.2200475 386.601600
   3084   3090   3096     1   107.2600461 396.643200
   3084   3083   3087     1   109.5600471 388.275200
   3085   3084   3086     1   109.5600471 388.275200
   3086   3084   3090     1   110.2600474 425.931200
   3087   3083   3091     1   110.2600474 425.931200
   3088   3085   3089     1   109.5800467 425.931200
   3088   3085   3101     1   109.5800467 425.931200
   3093   3099   3100     1   107.2600461 396.643200
   3097   3093   3099     1   110.2600474 425.931200
   3097   3093   3098     1   108.4600466 328.025600
   3098   3093   3099     1   110.2600474 425.931200
   3102   3103   3105     1   109.5600471 388.275200
   3102   3116   3120     1   109.5600471 388.275200
   3102   3116   3121     1   109.5600471 388.275200
   3103   3102   3104     1   109.5600471 388.275200
   3103   3106   3110     1   109.5600471 388.275200
   3103   3115   3118     1   107.2600461 396.643200
   3104   3102   3116     1   109.5600471 388.275200
   3104   3102   3124     1   109.7800468 425.094400
   3105   3103   3106     1   109.5600471 388.275200
   3105   3103   3115     1   110.2600474 425.931200
   3106   3107   3109     1   109.5600471 388.275200
   3106   3114   3117     1   107.2600461 396.643200
   3107   3106   3110     1   109.5600471 388.275200
   3107   3108   3111     1   110.2200475 386.601600
   3107   3113   3119     1   107.2600461 396.643200
   3108   3107   3109     1   109.5600471 388.275200
   3109   3107   3113     1   110.2600474 425.931200
   3110   3106   3114     1   110.2600474 425.931200
   3111   3108   3112     1   109.5800467 425.931200
   3111   3108   3124     1   109.5800467 425.931200
   3116   3122   3123     1   107.2600461 396.643200
   3120   3116   3122     1   110.2600474 425.931200
   3120   3116   3121     1   108.4600466 328.025600
   3121   3116   3122     1   110.2600474 425.931200
   3125   3126   3128     1   109.5600471 388.275200
   3125   3139   3143     1   109.5600471 388.275200
   3125   3139   3144     1   109.5600471 388.275200
   3126   3129   3133     1   109.5600471 388.275200
   3126   3138   3141     1   107.2600461 396.643200
   3126   3125   3127     1   109.5600471 388.275200
   3127   3125   3139     1   109.5600471 388.275200
   3127   3125   3147     1   109.7800468 425.094400
   3128   3126   3129     1   109.5600471 388.275200
   3128   3126   3138     1   110.2600474 425.931200
   3129   3130   3132     1   109.5600471 388.275200
   3129   3137   3140     1   107.2600461 396.643200
   3130   3131   3134     1   110.2200475 386.601600
   3130   3136   3142     1   107.2600461 396.643200
   3130   3129   3133     1   109.5600471 388.275200
   3131   3130   3132     1   109.5600471 388.275200
   3132   3130   3136     1   110.2600474 425.931200
   3133   3129   3137     1   110.2600474 425.931200
   3134   3131   3135     1   109.5800467 425.931200
   3134   3131   3147     1   109.5800467 425.931200
   3139   3145   3146     1   107.2600461 396.643200
   3143   3139   3145     1   110.2600474 425.931200
   3143   3139   3144     1   108.4600466 328.025600
   3144   3139   3145     1   110.2600474 425.931200
   3148   3149   3151     1   109.5600471 388.275200
   3148   3162   3166     1   109.5600471 388.275200
   3148   3162   3167     1   109.5600471 388.275200
   3149   3148   3150     1   109.5600471 388.275200
   3149   3152   3156     1   109.5600471 388.275200
   3149   3161   3164     1   107.2600461 396.643200
   3150   3148   3162     1   109.5600471 388.275200
   3150   3148   3170     1   109.7800468 425.094400
   3151   3149   3152     1   109.5600471 388.275200
   3151   3149   3161     1   110.2600474 425.931200
   3152   3153   3155     1   109.5600471 388.275200
   3152   3160   3163     1   107.2600461 396.643200
   3153   3152   3156     1   109.5600471 388.275200
   3153   3154   3157     1   110.2200475 386.601600
   3153   3159   3165     1   107.2600461 396.643200
   3154   3153   3155     1   109.5600471 388.275200
   3155   3153   3159     1   110.2600474 425.931200
   3156   3152   3160     1   110.2600474 425.931200
   3157   3154   3158     1   109.5800467 425.931200
   3157   3154   3170     1   109.5800467 425.931200
   3162   3168   3169     1   107.2600461 396.643200
   3166   3162   3168     1   110.2600474 425.931200
   3166   3162   3167     1   108.4600466 328.025600
   3167   3162   3168     1   110.2600474 425.931200
   3171   3172   3174     1   109.5600471 388.275200
   3171   3185   3189     1   109.5600471 388.275200
   3171   3185   3190     1   109.5600471 388.275200
   3172   3175   3179     1   109.5600471 388.275200
   3172   3184   3187     1   107.2600461 396.643200
   3172   3171   3173     1   109.5600471 388.275200
   3173   3171   3185     1   109.5600471 388.275200
   3173   3171   3193     1   109.7800468 425.094400
   3174   3172   3175     1   109.5600471 388.275200
   3174   3172   3184     1   110.2600474 425.931200
   3175   3176   3178     1   109.5600471 388.275200
   3175   3183   3186     1   107.2600461 396.643200
   3176   3177   3180     1   110.2200475 386.601600
   3176   3182   3188     1   107.2600461 396.643200
   3176   3175   3179     1   109.5600471 388.275200
   3177   3176   3178     1   109.5600471 388.275200
   3178   3176   3182     1   110.2600474 425.931200
   3179   3175   3183     1   110.2600474 425.931200
   3180   3177   3181     1   109.5800467 425.931200
   3180   3177   3193     1   109.5800467 425.931200
   3185   3191   3192     1   107.2600461 396.643200
   3189   3185   3191     1   110.2600474 425.931200
   3189   3185   3190     1   108.4600466 328.025600
   3190   3185   3191     1   110.2600474 425.931200
   3194   3195   3197     1   109.5600471 388.275200
   3194   3208   3212     1   109.5600471 388.275200
   3194   3208   3213     1   109.5600471 388.275200
   3195   3194   3196     1   109.5600471 388.275200
   3195   3198   3202     1   109.5600471 388.275200
   3195   3207   3210     1   107.2600461 396.643200
   3196   3194   3208     1   109.5600471 388.275200
   3196   3194   3216     1   109.7800468 425.094400
   3197   3195   3198     1   109.5600471 388.275200
   3197   3195   3207     1   110.2600474 425.931200
   3198   3199   3201     1   109.5600471 388.275200
   3198   3206   3209     1   107.2600461 396.643200
   3199   3198   3202     1   109.5600471 388.275200
   3199   3200   3203     1   110.2200475 386.601600
   3199   3205   3211     1   107.2600461 396.643200
   3200   3199   3201     1   109.5600471 388.275200
   3201   3199   3205     1   110.2600474 425.931200
   3202   3198   3206     1   110.2600474 425.931200
   3203   3200   3204     1   109.5800467 425.931200
   3203   3200   3216     1   109.5800467 425.931200
   3208   3214   3215     1   107.2600461 396.643200
   3212   3208   3214     1   110.2600474 425.931200
   3212   3208   3213     1   108.4600466 328.025600
   3213   3208   3214     1   110.2600474 425.931200
   3217   3218   3220     1   109.5600471 388.275200
   3217   3231   3235     1   109.5600471 388.275200
   3217   3231   3236     1   109.5600471 388.275200
   3218   3221   3225     1   109.5600471 388.275200
   3218   3230   3233     1   107.2600461 396.643200
   3218   3217   3219     1   109.5600471 388.275200
   3219   3217   3231     1   109.5600471 388.275200
   3219   3217   3239     1   109.7800468 425.094400
   3220   3218   3221     1   109.5600471 388.275200
   3220   3218   3230     1   110.2600474 425.931200
   3221   3222   3224     1   109.5600471 388.275200
   3221   3229   3232     1   107.2600461 396.643200
   3222   3223   3226     1   110.2200475 386.601600
   3222   3228   3234     1   107.2600461 396.643200
   3222   3221   3225     1   109.5600471 388.275200
   3223   3222   3224     1   109.5600471 388.275200
   3224   3222   3228     1   110.2600474 425.931200
   3225   3221   3229     1   110.2600474 425.931200
   3226   3223   3227     1   109.5800467 425.931200
   3226   3223   3239     1   109.5800467 425.931200
   3231   3237   3238     1   107.2600461 396.643200
   3235   3231   3237     1   110.2600474 425.931200
   3235   3231   3236     1   108.4600466 328.025600
   3236   3231   3237     1   110.2600474 425.931200
   3240   3241   3243     1   109.5600471 388.275200
   3240   3254   3258     1   109.5600471 388.275200
   3240   3254   3259     1   109.5600471 388.275200
   3241   3240   3242     1   109.5600471 388.275200
   3241   3244   3248     1   109.5600471 388.275200
   3241   3253   3256     1   107.2600461 396.643200
   3242   3240   3254     1   109.5600471 388.275200
   3242   3240   3262     1   109.7800468 425.094400
   3243   3241   3244     1   109.5600471 388.275200
   3243   3241   3253     1   110.2600474 425.931200
   3244   3245   3247     1   109.5600471 388.275200
   3244   3252   3255     1   107.2600461 396.643200
   3245   3244   3248     1   109.5600471 388.275200
   3245   3246   3249     1   110.2200475 386.601600
   3245   3251   3257     1   107.2600461 396.643200
   3246   3245   3247     1   109.5600471 388.275200
   3247   3245   3251     1   110.2600474 425.931200
   3248   3244   3252     1   110.2600474 425.931200
   3249   3246   3250     1   109.5800467 425.931200
   3249   3246   3262     1   109.5800467 425.931200
   3254   3260   3261     1   107.2600461 396.643200
   3258   3254   3260     1   110.2600474 425.931200
   3258   3254   3259     1   108.4600466 328.025600
   3259   3254   3260     1   110.2600474 425.931200
   3263   3264   3266     1   109.5600471 388.275200
   3263   3277   3281     1   109.5600471 388.275200
   3263   3277   3282     1   109.5600471 388.275200
   3264   3267   3271     1   109.5600471 388.275200
   3264   3276   3279     1   107.2600461 396.643200
   3264   3263   3265     1   109.5600471 388.275200
   3265   3263   3277     1   109.5600471 388.275200
   3265   3263   3285     1   109.7800468 425.094400
   3266   3264   3267     1   109.5600471 388.275200
   3266   3264   3276     1   110.2600474 425.931200
   3267   3268   3270     1   109.5600471 388.275200
   3267   3275   3278     1   107.2600461 396.643200
   3268   3269   3272     1   110.2200475 386.601600
   3268   3274   3280     1   107.2600461 396.643200
   3268   3267   3271     1   109.5600471 388.275200
   3269   3268   3270     1   109.5600471 388.275200
   3270   3268   3274     1   110.2600474 425.931200
   3271   3267   3275     1   110.2600474 425.931200
   3272   3269   3273     1   109.5800467 425.931200
   3272   3269   3285     1   109.5800467 425.931200
   3277   3283   3284     1   107.2600461 396.643200
   3281   3277   3283     1   110.2600474 425.931200
   3281   3277   3282     1   108.4600466 328.025600
   3282   3277   3283     1   110.2600474 425.931200
   3286   3287   3289     1   109.5600471 388.275200
   3286   3300   3304     1   109.5600471 388.275200
   3286   3300   3305     1   109.5600471 388.275200
   3287   3286   3288     1   109.5600471 388.275200
   3287   3290   3294     1   109.5600471 388.275200
   3287   3299   3302     1   107.2600461 396.643200
   3288   3286   3300     1   109.5600471 388.275200
   3288   3286   3308     1   109.7800468 425.094400
   3289   3287   3290     1   109.5600471 388.275200
   3289   3287   3299     1   110.2600474 425.931200
   3290   3291   3293     1   109.5600471 388.275200
   3290   3298   3301     1   107.2600461 396.643200
   3291   3290   3294     1   109.5600471 388.275200
   3291   3292   3295     1   110.2200475 386.601600
   3291   3297   3303     1   107.2600461 396.643200
   3292   3291   3293     1   109.5600471 388.275200
   3293   3291   3297     1   110.2600474 425.931200
   3294   3290   3298     1   110.2600474 425.931200
   3295   3292   3296     1   109.5800467 425.931200
   3295   3292   3308     1   109.5800467 425.931200
   3300   3306   3307     1   107.2600461 396.643200
   3304   3300   3306     1   110.2600474 425.931200
   3304   3300   3305     1   108.4600466 328.025600
   3305   3300   3306     1   110.2600474 425.931200
   3309   3310   3312     1   109.5600471 388.275200
   3309   3323   3327     1   109.5600471 388.275200
   3309   3323   3328     1   109.5600471 388.275200
   3310   3313   3317     1   109.5600471 388.275200
   3310   3322   3325     1   107.2600461 396.643200
   3310   3309   3311     1   109.5600471 388.275200
   3311   3309   3323     1   109.5600471 388.275200
   3311   3309   3331     1   109.7800468 425.094400
   3312   3310   3313     1   109.5600471 388.275200
   3312   3310   3322     1   110.2600474 425.931200
   3313   3314   3316     1   109.5600471 388.275200
   3313   3321   3324     1   107.2600461 396.643200
   3314   3315   3318     1   110.2200475 386.601600
   3314   3320   3326     1   107.2600461 396.643200
   3314   3313   3317     1   109.5600471 388.275200
   3315   3314   3316     1   109.5600471 388.275200
   3316   3314   3320     1   110.2600474 425.931200
   3317   3313   3321     1   110.2600474 425.931200
   3318   3315   3319     1   109.5800467 425.931200
   3318   3315   3331     1   109.5800467 425.931200
   3323   3329   3330     1   107.2600461 396.643200
   3327   3323   3329     1   110.2600474 425.931200
   3327   3323   3328     1   108.4600466 328.025600
   3328   3323   3329     1   110.2600474 425.931200

[ dihedrals ]
;    ai     aj     ak     al funct         c0         c1         c2         c3         c4         c5
      1      2      8     14     1  0.0000000  0.6508444  3
      1      5     11     17     1  0.0000000  0.6508444  3
      2      1      5     11     1  180.0000771  0.4184000  2
      2      1      5     11     1  0.0000000  1.6024720  3
      2      8     14     20     1  0.0000000  0.6508444  3
      5      1      2      8     1  180.0000771  0.4184000  2
      5      1      2      8     1  0.0000000  1.6024720  3
      5     11     17     21     1  0.0000000  0.6508444  3
      8     14     20     28     1  0.0000000  0.6508444  3
      8     14     20     31     1  0.0000000  0.6508444  3
     11     17     21     22     1  0.0000000  0.6508444  3
     11     17     21     25     1  0.0000000  0.6508444  3
     14     20     28     40     1  0.0000000  0.6508444  3
     14     20     31     43     1  0.0000000  0.6508444  3
     17     21     22     34     1  0.0000000  0.6508444  3
     17     21     25     37     1  0.0000000  0.6508444  3
     20     28     40     49     1  0.0000000  0.6508444  3
     20     31     43     46     1  0.0000000  0.6508444  3
     21     22     34     55     1  0.0000000  0.6508444  3
     21     25     37     52     1  0.0000000  0.6508444  3
     22     21     25     37     1  0.0000000  0.6508444  3
     22     34     55    178     1  0.0000000  0.6508444  3
     25     21     22     34     1  0.0000000  0.6508444  3
     25     37     52    148     1  0.0000000  0.6508444  3
     28     20     31     43     1  0.0000000  0.6508444  3
     28     40     49    118     1  0.0000000  0.6508444  3
     31     20     28     40     1  0.0000000  0.6508444  3
     31     43     46     88     1  0.0000000  0.6508444  3
     34     55    178    169     1  180.0000771  0.4184000  2
     34     55    178    169     1  0.0000000  1.6024720  3
     37     52    148    139     1  180.0000771  0.4184000  2
     37     52    148    139     1  0.0000000  1.6024720  3
     40     49    118    109     1  180.0000771  0.4184000  2
     40     49    118    109     1  0.0000000  1.6024720  3
     43     46     88     79     1  180.0000771  0.4184000  2
     43     46     88     79     1  0.0000000  1.6024720  3
     46     88     79     70     1  180.0000771  0.4184000  2
     46     88     79     70     1  0.0000000  1.6024720  3
     49    118    109    100     1  180.0000771  0.4184000  2
     49    118    109    100     1  0.0000000  1.6024720  3
     52    148    139    130     1  180.0000771  0.4184000  2
     52    148    139    130     1  0.0000000  1.6024720  3
     55    178    169    160     1  180.0000771  0.4184000  2
     55    178    169    160     1  0.0000000  1.6024720  3
     60     61     73     85     1  0.0000000  0.6508444  3
     60     64     76     82     1  0.0000000  0.6508444  3
     60     67     70     79     1  0.0000000  0.6508444  3
     61     60     64     76     1  0.0000000  0.6508444  3
     61     60     67     70     1  0.0000000  0.6508444  3
     61     73     85    238     1  0.0000000  0.6508444  3
     64     60     61     73     1  0.0000000  0.6508444  3
     64     60     67     70     1  0.0000000  0.6508444  3
     64     76     82    208     1  0.0000000  0.6508444  3
     67     60     61     73     1  0.0000000  0.6508444  3
     67     60     64     76     1  0.0000000  0.6508444  3
     67     70     79     88     1  0.0000000  0.6508444  3
     73     85    238    229     1  180.0000771  0.4184000  2
     73     85    238    229     1  0.0000000  1.6024720  3
     76     82    208    199     1  180.0000771  0.4184000  2
     76     82    208    199     1  0.0000000  1.6024720  3
     82    208    199    190     1  180.0000771  0.4184000  2
     82    208    199    190     1  0.0000000  1.6024720  3
     85    238    229    220     1  180.0000771  0.4184000  2
     85    238    229    220     1  0.0000000  1.6024720  3
     90     91    103    115     1  0.0000000  0.6508444  3
     90     94    106    112     1  0.0000000  0.6508444  3
     90     97    100    109     1  0.0000000  0.6508444  3
     91     90     94    106     1  0.0000000  0.6508444  3
     91     90     97    100     1  0.0000000  0.6508444  3
     91    103    115    298     1  0.0000000  0.6508444  3
     94     90     91    103     1  0.0000000  0.6508444  3
     94     90     97    100     1  0.0000000  0.6508444  3
     94    106    112    268     1  0.0000000  0.6508444  3
     97     90     91    103     1  0.0000000  0.6508444  3
     97     90     94    106     1  0.0000000  0.6508444  3
     97    100    109    118     1  0.0000000  0.6508444  3
    103    115    298    289     1  180.0000771  0.4184000  2
    103    115    298    289     1  0.0000000  1.6024720  3
    106    112    268    259     1  180.0000771  0.4184000  2
    106    112    268    259     1  0.0000000  1.6024720  3
    112    268    259    250     1  180.0000771  0.4184000  2
    112    268    259    250     1  0.0000000  1.6024720  3
    115    298    289    280     1  180.0000771  0.4184000  2
    115    298    289    280     1  0.0000000  1.6024720  3
    120    121    133    145     1  0.0000000  0.6508444  3
    120    124    136    142     1  0.0000000  0.6508444  3
    120    127    130    139     1  0.0000000  0.6508444  3
    121    120    124    136     1  0.0000000  0.6508444  3
    121    120    127    130     1  0.0000000  0.6508444  3
    121    133    145    358     1  0.0000000  0.6508444  3
    124    120    121    133     1  0.0000000  0.6508444  3
    124    120    127    130     1  0.0000000  0.6508444  3
    124    136    142    328     1  0.0000000  0.6508444  3
    127    120    121    133     1  0.0000000  0.6508444  3
    127    120    124    136     1  0.0000000  0.6508444  3
    127    130    139    148     1  0.0000000  0.6508444  3
    133    145    358    349     1  180.0000771  0.4184000  2
    133    145    358    349     1  0.0000000  1.6024720  3
    136    142    328    319     1  180.0000771  0.4184000  2
    136    142    328    319     1  0.0000000  1.6024720  3
    142    328    319    310     1  180.0000771  0.4184000  2
    142    328    319    310     1  0.0000000  1.6024720  3
    145    358    349    340     1  180.0000771  0.4184000  2
    145    358    349    340     1  0.0000000  1.6024720  3
    150    151    163    175     1  0.0000000  0.6508444  3
    150    154    166    172     1  0.0000000  0.6508444  3
    150    157    160    169     1  0.0000000  0.6508444  3
    151    150    154    166     1  0.0000000  0.6508444  3
    151    150    157    160     1  0.0000000  0.6508444  3
    151    163    175    418     1  0.0000000  0.6508444  3
    154    150    151    163     1  0.0000000  0.6508444  3
    154    150    157    160     1  0.0000000  0.6508444  3
    154    166    172    388     1  0.0000000  0.6508444  3
    157    150    151    163     1  0.0000000  0.6508444  3
    157    150    154    166     1  0.0000000  0.6508444  3
    157    160    169    178     1  0.0000000  0.6508444  3
    163    175    418    409     1  180.0000771  0.4184000  2
    163    175    418    409     1  0.0000000  1.6024720  3
    166    172    388    379     1  180.0000771  0.4184000  2
    166    172    388    379     1  0.0000000  1.6024720  3
    172    388    379    370     1  180.0000771  0.4184000  2
    172    388    379    370     1  0.0000000  1.6024720  3
    175    418    409    400     1  180.0000771  0.4184000  2
    175    418    409    400     1  0.0000000  1.6024720  3
    180    181    193    205     1  0.0000000  0.6508444  3
    180    184    196    202     1  0.0000000  0.6508444  3
    180    187    190    199     1  0.0000000  0.6508444  3
    181    180    184    196     1  0.0000000  0.6508444  3
    181    180    187    190     1  0.0000000  0.6508444  3
    181    193    205    478     1  0.0000000  0.6508444  3
    184    180    181    193     1  0.0000000  0.6508444  3
    184    180    187    190     1  0.0000000  0.6508444  3
    184    196    202    448     1  0.0000000  0.6508444  3
    187    180    181    193     1  0.0000000  0.6508444  3
    187    180    184    196     1  0.0000000  0.6508444  3
    187    190    199    208     1  0.0000000  0.6508444  3
    193    205    478    469     1  180.0000771  0.4184000  2
    193    205    478    469     1  0.0000000  1.6024720  3
    196    202    448    439     1  180.0000771  0.4184000  2
    196    202    448    439     1  0.0000000  1.6024720  3
    202    448    439    430     1  180.0000771  0.4184000  2
    202    448    439    430     1  0.0000000  1.6024720  3
    205    478    469    460     1  180.0000771  0.4184000  2
    205    478    469    460     1  0.0000000  1.6024720  3
    210    211    223    235     1  0.0000000  0.6508444  3
    210    214    226    232     1  0.0000000  0.6508444  3
    210    217    220    229     1  0.0000000  0.6508444  3
    211    210    214    226     1  0.0000000  0.6508444  3
    211    210    217    220     1  0.0000000  0.6508444  3
    211    223    235    538     1  0.0000000  0.6508444  3
    214    210    211    223     1  0.0000000  0.6508444  3
    214    210    217    220     1  0.0000000  0.6508444  3
    214    226    232    508     1  0.0000000  0.6508444  3
    217    210    211    223     1  0.0000000  0.6508444  3
    217    210    214    226     1  0.0000000  0.6508444  3
    217    220    229    238     1  0.0000000  0.6508444  3
    223    235    538    529     1  180.0000771  0.4184000  2
    223    235    538    529     1  0.0000000  1.6024720  3
    226    232    508    499     1  180.0000771  0.4184000  2
    226    232    508    499     1  0.0000000  1.6024720  3
    232    508    499    490     1  180.0000771  0.4184000  2
    232    508    499    490     1  0.0000000  1.6024720  3
    235    538    529    520     1  180.0000771  0.4184000  2
    235    538    529    520     1  0.0000000  1.6024720  3
    240    241    253    265     1  0.0000000  0.6508444  3
    240    244    256    262     1  0.0000000  0.6508444  3
    240    247    250    259     1  0.0000000  0.6508444  3
    241    240    244    256     1  0.0000000  0.6508444  3
    241    240    247    250     1  0.0000000  0.6508444  3
    241    253    265    598     1  0.0000000  0.6508444  3
    244    240    241    253     1  0.0000000  0.6508444  3
    244    240    247    250     1  0.0000000  0.6508444  3
    244    256    262    568     1  0.0000000  0.6508444  3
    247    240    241    253     1  0.0000000  0.6508444  3
    247    240    244    256     1  0.0000000  0.6508444  3
    247    250    259    268     1  0.0000000  0.6508444  3
    253    265    598    589     1  180.0000771  0.4184000  2
    253    265    598    589     1  0.0000000  1.6024720  3
    256    262    568    559     1  180.0000771  0.4184000  2
    256    262    568    559     1  0.0000000  1.6024720  3
    262    568    559    550     1  180.0000771  0.4184000  2
    262    568    559    550     1  0.0000000  1.6024720  3
    265    598    589    580     1  180.0000771  0.4184000  2
    265    598    589    580     1  0.0000000  1.6024720  3
    270    271    283    295     1  0.0000000  0.6508444  3
    270    274    286    292     1  0.0000000  0.6508444  3
    270    277    280    289     1  0.0000000  0.6508444  3
    271    270    274    286     1  0.0000000  0.6508444  3
    271    270    277    280     1  0.0000000  0.6508444  3
    271    283    295    658     1  0.0000000  0.6508444  3
    274    270    271    283     1  0.0000000  0.6508444  3
    274    270    277    280     1  0.0000000  0.6508444  3
    274    286    292    628     1  0.0000000  0.6508444  3
    277    270    271    283     1  0.0000000  0.6508444  3
    277    270    274    286     1  0.0000000  0.6508444  3
    277    280    289    298     1  0.0000000  0.6508444  3
    283    295    658    649     1  180.0000771  0.4184000  2
    283    295    658    649     1  0.0000000  1.6024720  3
    286    292    628    619     1  180.0000771  0.4184000  2
    286    292    628    619     1  0.0000000  1.6024720  3
    292    628    619    610     1  180.0000771  0.4184000  2
    292    628    619    610     1  0.0000000  1.6024720  3
    295    658    649    640     1  180.0000771  0.4184000  2
    295    658    649    640     1  0.0000000  1.6024720  3
    300    301    313    325     1  0.0000000  0.6508444  3
    300    304    316    322     1  0.0000000  0.6508444  3
    300    307    310    319     1  0.0000000  0.6508444  3
    301    300    304    316     1  0.0000000  0.6508444  3
    301    300    307    310     1  0.0000000  0.6508444  3
    301    313    325    718     1  0.0000000  0.6508444  3
    304    300    301    313     1  0.0000000  0.6508444  3
    304    300    307    310     1  0.0000000  0.6508444  3
    304    316    322    688     1  0.0000000  0.6508444  3
    307    300    301    313     1  0.0000000  0.6508444  3
    307    300    304    316     1  0.0000000  0.6508444  3
    307    310    319    328     1  0.0000000  0.6508444  3
    313    325    718    709     1  180.0000771  0.4184000  2
    313    325    718    709     1  0.0000000  1.6024720  3
    316    322    688    679     1  180.0000771  0.4184000  2
    316    322    688    679     1  0.0000000  1.6024720  3
    322    688    679    670     1  180.0000771  0.4184000  2
    322    688    679    670     1  0.0000000  1.6024720  3
    325    718    709    700     1  180.0000771  0.4184000  2
    325    718    709    700     1  0.0000000  1.6024720  3
    330    331    343    355     1  0.0000000  0.6508444  3
    330    334    346    352     1  0.0000000  0.6508444  3
    330    337    340    349     1  0.0000000  0.6508444  3
    331    330    334    346     1  0.0000000  0.6508444  3
    331    330    337    340     1  0.0000000  0.6508444  3
    331    343    355    778     1  0.0000000  0.6508444  3
    334    330    331    343     1  0.0000000  0.6508444  3
    334    330    337    340     1  0.0000000  0.6508444  3
    334    346    352    748     1  0.0000000  0.6508444  3
    337    330    331    343     1  0.0000000  0.6508444  3
    337    330    334    346     1  0.0000000  0.6508444  3
    337    340    349    358     1  0.0000000  0.6508444  3
    343    355    778    769     1  180.0000771  0.4184000  2
    343    355    778    769     1  0.0000000  1.6024720  3
    346    352    748    739     1  180.0000771  0.4184000  2
    346    352    748    739     1  0.0000000  1.6024720  3
    352    748    739    730     1  180.0000771  0.4184000  2
    352    748    739    730     1  0.0000000  1.6024720  3
    355    778    769    760     1  180.0000771  0.4184000  2
    355    778    769    760     1  0.0000000  1.6024720  3
    360    361    373    385     1  0.0000000  0.6508444  3
    360    364    376    382     1  0.0000000  0.6508444  3
    360    367    370    379     1  0.0000000  0.6508444  3
    361    360    364    376     1  0.0000000  0.6508444  3
    361    360    367    370     1  0.0000000  0.6508444  3
    361    373    385    838     1  0.0000000  0.6508444  3
    364    360    361    373     1  0.0000000  0.6508444  3
    364    360    367    370     1  0.0000000  0.6508444  3
    364    376    382    808     1  0.0000000  0.6508444  3
    367    360    361    373     1  0.0000000  0.6508444  3
    367    360    364    376     1  0.0000000  0.6508444  3
    367    370    379    388     1  0.0000000  0.6508444  3
    373    385    838    829     1  180.0000771  0.4184000  2
    373    385    838    829     1  0.0000000  1.6024720  3
    376    382    808    799     1  180.0000771  0.4184000  2
    376    382    808    799     1  0.0000000  1.6024720  3
    382    808    799    790     1  180.0000771  0.4184000  2
    382    808    799    790     1  0.0000000  1.6024720  3
    385    838    829    820     1  180.0000771  0.4184000  2
    385    838    829    820     1  0.0000000  1.6024720  3
    390    391    403    415     1  0.0000000  0.6508444  3
    390    394    406    412     1  0.0000000  0.6508444  3
    390    397    400    409     1  0.0000000  0.6508444  3
    391    390    394    406     1  0.0000000  0.6508444  3
    391    390    397    400     1  0.0000000  0.6508444  3
    391    403    415    898     1  0.0000000  0.6508444  3
    394    390    391    403     1  0.0000000  0.6508444  3
    394    390    397    400     1  0.0000000  0.6508444  3
    394    406    412    868     1  0.0000000  0.6508444  3
    397    390    391    403     1  0.0000000  0.6508444  3
    397    390    394    406     1  0.0000000  0.6508444  3
    397    400    409    418     1  0.0000000  0.6508444  3
    403    415    898    889     1  180.0000771  0.4184000  2
    403    415    898    889     1  0.0000000  1.6024720  3
    406    412    868    859     1  180.0000771  0.4184000  2
    406    412    868    859     1  0.0000000  1.6024720  3
    412    868    859    850     1  180.0000771  0.4184000  2
    412    868    859    850     1  0.0000000  1.6024720  3
    415    898    889    880     1  180.0000771  0.4184000  2
    415    898    889    880     1  0.0000000  1.6024720  3
    420    421    433    445     1  0.0000000  0.6508444  3
    420    424    436    442     1  0.0000000  0.6508444  3
    420    427    430    439     1  0.0000000  0.6508444  3
    421    420    424    436     1  0.0000000  0.6508444  3
    421    420    427    430     1  0.0000000  0.6508444  3
    421    433    445    958     1  0.0000000  0.6508444  3
    424    420    421    433     1  0.0000000  0.6508444  3
    424    420    427    430     1  0.0000000  0.6508444  3
    424    436    442    928     1  0.0000000  0.6508444  3
    427    420    421    433     1  0.0000000  0.6508444  3
    427    420    424    436     1  0.0000000  0.6508444  3
    427    430    439    448     1  0.0000000  0.6508444  3
    433    445    958    949     1  180.0000771  0.4184000  2
    433    445    958    949     1  0.0000000  1.6024720  3
    436    442    928    919     1  180.0000771  0.4184000  2
    436    442    928    919     1  0.0000000  1.6024720  3
    442    928    919    910     1  180.0000771  0.4184000  2
    442    928    919    910     1  0.0000000  1.6024720  3
    445    958    949    940     1  180.0000771  0.4184000  2
    445    958    949    940     1  0.0000000  1.6024720  3
    450    451    463    475     1  0.0000000  0.6508444  3
    450    454    466    472     1  0.0000000  0.6508444  3
    450    457    460    469     1  0.0000000  0.6508444  3
    451    450    454    466     1  0.0000000  0.6508444  3
    451    450    457    460     1  0.0000000  0.6508444  3
    451    463    475   1018     1  0.0000000  0.6508444  3
    454    450    451    463     1  0.0000000  0.6508444  3
    454    450    457    460     1  0.0000000  0.6508444  3
    454    466    472    988     1  0.0000000  0.6508444  3
    457    450    451    463     1  0.0000000  0.6508444  3
    457    450    454    466     1  0.0000000  0.6508444  3
    457    460    469    478     1  0.0000000  0.6508444  3
    463    475   1018   1009     1  180.0000771  0.4184000  2
    463    475   1018   1009     1  0.0000000  1.6024720  3
    466    472    988    979     1  180.0000771  0.4184000  2
    466    472    988    979     1  0.0000000  1.6024720  3
    472    988    979    970     1  180.0000771  0.4184000  2
    472    988    979    970     1  0.0000000  1.6024720  3
    475   1018   1009   1000     1  180.0000771  0.4184000  2
    475   1018   1009   1000     1  0.0000000  1.6024720  3
    480    481    493    505     1  0.0000000  0.6508444  3
    480    484    496    502     1  0.0000000  0.6508444  3
    480    487    490    499     1  0.0000000  0.6508444  3
    481    480    484    496     1  0.0000000  0.6508444  3
    481    480    487    490     1  0.0000000  0.6508444  3
    481    493    505   1078     1  0.0000000  0.6508444  3
    484    480    481    493     1  0.0000000  0.6508444  3
    484    480    487    490     1  0.0000000  0.6508444  3
    484    496    502   1048     1  0.0000000  0.6508444  3
    487    480    481    493     1  0.0000000  0.6508444  3
    487    480    484    496     1  0.0000000  0.6508444  3
    487    490    499    508     1  0.0000000  0.6508444  3
    493    505   1078   1069     1  180.0000771  0.4184000  2
    493    505   1078   1069     1  0.0000000  1.6024720  3
    496    502   1048   1039     1  180.0000771  0.4184000  2
    496    502   1048   1039     1  0.0000000  1.6024720  3
    502   1048   1039   1030     1  180.0000771  0.4184000  2
    502   1048   1039   1030     1  0.0000000  1.6024720  3
    505   1078   1069   1060     1  180.0000771  0.4184000  2
    505   1078   1069   1060     1  0.0000000  1.6024720  3
    510    511    523    535     1  0.0000000  0.6508444  3
    510    514    526    532     1  0.0000000  0.6508444  3
    510    517    520    529     1  0.0000000  0.6508444  3
    511    510    514    526     1  0.0000000  0.6508444  3
    511    510    517    520     1  0.0000000  0.6508444  3
    511    523    535   1138     1  0.0000000  0.6508444  3
    514    510    511    523     1  0.0000000  0.6508444  3
    514    510    517    520     1  0.0000000  0.6508444  3
    514    526    532   1108     1  0.0000000  0.6508444  3
    517    510    511    523     1  0.0000000  0.6508444  3
    517    510    514    526     1  0.0000000  0.6508444  3
    517    520    529    538     1  0.0000000  0.6508444  3
    523    535   1138   1129     1  180.0000771  0.4184000  2
    523    535   1138   1129     1  0.0000000  1.6024720  3
    526    532   1108   1099     1  180.0000771  0.4184000  2
    526    532   1108   1099     1  0.0000000  1.6024720  3
    532   1108   1099   1090     1  180.0000771  0.4184000  2
    532   1108   1099   1090     1  0.0000000  1.6024720  3
    535   1138   1129   1120     1  180.0000771  0.4184000  2
    535   1138   1129   1120     1  0.0000000  1.6024720  3
    540    541    553    565     1  0.0000000  0.6508444  3
    540    544    556    562     1  0.0000000  0.6508444  3
    540    547    550    559     1  0.0000000  0.6508444  3
    541    540    544    556     1  0.0000000  0.6508444  3
    541    540    547    550     1  0.0000000  0.6508444  3
    541    553    565   1198     1  0.0000000  0.6508444  3
    544    540    541    553     1  0.0000000  0.6508444  3
    544    540    547    550     1  0.0000000  0.6508444  3
    544    556    562   1168     1  0.0000000  0.6508444  3
    547    540    541    553     1  0.0000000  0.6508444  3
    547    540    544    556     1  0.0000000  0.6508444  3
    547    550    559    568     1  0.0000000  0.6508444  3
    553    565   1198   1189     1  180.0000771  0.4184000  2
    553    565   1198   1189     1  0.0000000  1.6024720  3
    556    562   1168   1159     1  180.0000771  0.4184000  2
    556    562   1168   1159     1  0.0000000  1.6024720  3
    562   1168   1159   1150     1  180.0000771  0.4184000  2
    562   1168   1159   1150     1  0.0000000  1.6024720  3
    565   1198   1189   1180     1  180.0000771  0.4184000  2
    565   1198   1189   1180     1  0.0000000  1.6024720  3
    570    571    583    595     1  0.0000000  0.6508444  3
    570    574    586    592     1  0.0000000  0.6508444  3
    570    577    580    589     1  0.0000000  0.6508444  3
    571    570    574    586     1  0.0000000  0.6508444  3
    571    570    577    580     1  0.0000000  0.6508444  3
    571    583    595   1258     1  0.0000000  0.6508444  3
    574    570    571    583     1  0.0000000  0.6508444  3
    574    570    577    580     1  0.0000000  0.6508444  3
    574    586    592   1228     1  0.0000000  0.6508444  3
    577    570    571    583     1  0.0000000  0.6508444  3
    577    570    574    586     1  0.0000000  0.6508444  3
    577    580    589    598     1  0.0000000  0.6508444  3
    583    595   1258   1249     1  180.0000771  0.4184000  2
    583    595   1258   1249     1  0.0000000  1.6024720  3
    586    592   1228   1219     1  180.0000771  0.4184000  2
    586    592   1228   1219     1  0.0000000  1.6024720  3
    592   1228   1219   1210     1  180.0000771  0.4184000  2
    592   1228   1219   1210     1  0.0000000  1.6024720  3
    595   1258   1249   1240     1  180.0000771  0.4184000  2
    595   1258   1249   1240     1  0.0000000  1.6024720  3
    600    601    613    625     1  0.0000000  0.6508444  3
    600    604    616    622     1  0.0000000  0.6508444  3
    600    607    610    619     1  0.0000000  0.6508444  3
    601    600    604    616     1  0.0000000  0.6508444  3
    601    600    607    610     1  0.0000000  0.6508444  3
    601    613    625   1318     1  0.0000000  0.6508444  3
    604    600    601    613     1  0.0000000  0.6508444  3
    604    600    607    610     1  0.0000000  0.6508444  3
    604    616    622   1288     1  0.0000000  0.6508444  3
    607    600    601    613     1  0.0000000  0.6508444  3
    607    600    604    616     1  0.0000000  0.6508444  3
    607    610    619    628     1  0.0000000  0.6508444  3
    613    625   1318   1309     1  180.0000771  0.4184000  2
    613    625   1318   1309     1  0.0000000  1.6024720  3
    616    622   1288   1279     1  180.0000771  0.4184000  2
    616    622   1288   1279     1  0.0000000  1.6024720  3
    622   1288   1279   1270     1  180.0000771  0.4184000  2
    622   1288   1279   1270     1  0.0000000  1.6024720  3
    625   1318   1309   1300     1  180.0000771  0.4184000  2
    625   1318   1309   1300     1  0.0000000  1.6024720  3
    630    631    643    655     1  0.0000000  0.6508444  3
    630    634    646    652     1  0.0000000  0.6508444  3
    630    637    640    649     1  0.0000000  0.6508444  3
    631    630    634    646     1  0.0000000  0.6508444  3
    631    630    637    640     1  0.0000000  0.6508444  3
    631    643    655   1378     1  0.0000000  0.6508444  3
    634    630    631    643     1  0.0000000  0.6508444  3
    634    630    637    640     1  0.0000000  0.6508444  3
    634    646    652   1348     1  0.0000000  0.6508444  3
    637    630    631    643     1  0.0000000  0.6508444  3
    637    630    634    646     1  0.0000000  0.6508444  3
    637    640    649    658     1  0.0000000  0.6508444  3
    643    655   1378   1369     1  180.0000771  0.4184000  2
    643    655   1378   1369     1  0.0000000  1.6024720  3
    646    652   1348   1339     1  180.0000771  0.4184000  2
    646    652   1348   1339     1  0.0000000  1.6024720  3
    652   1348   1339   1330     1  180.0000771  0.4184000  2
    652   1348   1339   1330     1  0.0000000  1.6024720  3
    655   1378   1369   1360     1  180.0000771  0.4184000  2
    655   1378   1369   1360     1  0.0000000  1.6024720  3
    660    661    673    685     1  0.0000000  0.6508444  3
    660    664    676    682     1  0.0000000  0.6508444  3
    660    667    670    679     1  0.0000000  0.6508444  3
    661    660    664    676     1  0.0000000  0.6508444  3
    661    660    667    670     1  0.0000000  0.6508444  3
    661    673    685   1438     1  0.0000000  0.6508444  3
    664    660    661    673     1  0.0000000  0.6508444  3
    664    660    667    670     1  0.0000000  0.6508444  3
    664    676    682   1408     1  0.0000000  0.6508444  3
    667    660    661    673     1  0.0000000  0.6508444  3
    667    660    664    676     1  0.0000000  0.6508444  3
    667    670    679    688     1  0.0000000  0.6508444  3
    673    685   1438   1429     1  180.0000771  0.4184000  2
    673    685   1438   1429     1  0.0000000  1.6024720  3
    676    682   1408   1399     1  180.0000771  0.4184000  2
    676    682   1408   1399     1  0.0000000  1.6024720  3
    682   1408   1399   1390     1  180.0000771  0.4184000  2
    682   1408   1399   1390     1  0.0000000  1.6024720  3
    685   1438   1429   1420     1  180.0000771  0.4184000  2
    685   1438   1429   1420     1  0.0000000  1.6024720  3
    690    691    703    715     1  0.0000000  0.6508444  3
    690    694    706    712     1  0.0000000  0.6508444  3
    690    697    700    709     1  0.0000000  0.6508444  3
    691    690    694    706     1  0.0000000  0.6508444  3
    691    690    697    700     1  0.0000000  0.6508444  3
    691    703    715   1498     1  0.0000000  0.6508444  3
    694    690    691    703     1  0.0000000  0.6508444  3
    694    690    697    700     1  0.0000000  0.6508444  3
    694    706    712   1468     1  0.0000000  0.6508444  3
    697    690    691    703     1  0.0000000  0.6508444  3
    697    690    694    706     1  0.0000000  0.6508444  3
    697    700    709    718     1  0.0000000  0.6508444  3
    703    715   1498   1489     1  180.0000771  0.4184000  2
    703    715   1498   1489     1  0.0000000  1.6024720  3
    706    712   1468   1459     1  180.0000771  0.4184000  2
    706    712   1468   1459     1  0.0000000  1.6024720  3
    712   1468   1459   1450     1  180.0000771  0.4184000  2
    712   1468   1459   1450     1  0.0000000  1.6024720  3
    715   1498   1489   1480     1  180.0000771  0.4184000  2
    715   1498   1489   1480     1  0.0000000  1.6024720  3
    720    721    733    745     1  0.0000000  0.6508444  3
    720    724    736    742     1  0.0000000  0.6508444  3
    720    727    730    739     1  0.0000000  0.6508444  3
    721    720    724    736     1  0.0000000  0.6508444  3
    721    720    727    730     1  0.0000000  0.6508444  3
    721    733    745   1558     1  0.0000000  0.6508444  3
    724    720    721    733     1  0.0000000  0.6508444  3
    724    720    727    730     1  0.0000000  0.6508444  3
    724    736    742   1528     1  0.0000000  0.6508444  3
    727    720    721    733     1  0.0000000  0.6508444  3
    727    720    724    736     1  0.0000000  0.6508444  3
    727    730    739    748     1  0.0000000  0.6508444  3
    733    745   1558   1549     1  180.0000771  0.4184000  2
    733    745   1558   1549     1  0.0000000  1.6024720  3
    736    742   1528   1519     1  180.0000771  0.4184000  2
    736    742   1528   1519     1  0.0000000  1.6024720  3
    742   1528   1519   1510     1  180.0000771  0.4184000  2
    742   1528   1519   1510     1  0.0000000  1.6024720  3
    745   1558   1549   1540     1  180.0000771  0.4184000  2
    745   1558   1549   1540     1  0.0000000  1.6024720  3
    750    751    763    775     1  0.0000000  0.6508444  3
    750    754    766    772     1  0.0000000  0.6508444  3
    750    757    760    769     1  0.0000000  0.6508444  3
    751    750    754    766     1  0.0000000  0.6508444  3
    751    750    757    760     1  0.0000000  0.6508444  3
    751    763    775   1618     1  0.0000000  0.6508444  3
    754    750    751    763     1  0.0000000  0.6508444  3
    754    750    757    760     1  0.0000000  0.6508444  3
    754    766    772   1588     1  0.0000000  0.6508444  3
    757    750    751    763     1  0.0000000  0.6508444  3
    757    750    754    766     1  0.0000000  0.6508444  3
    757    760    769    778     1  0.0000000  0.6508444  3
    763    775   1618   1609     1  180.0000771  0.4184000  2
    763    775   1618   1609     1  0.0000000  1.6024720  3
    766    772   1588   1579     1  180.0000771  0.4184000  2
    766    772   1588   1579     1  0.0000000  1.6024720  3
    772   1588   1579   1570     1  180.0000771  0.4184000  2
    772   1588   1579   1570     1  0.0000000  1.6024720  3
    775   1618   1609   1600     1  180.0000771  0.4184000  2
    775   1618   1609   1600     1  0.0000000  1.6024720  3
    780    781    793    805     1  0.0000000  0.6508444  3
    780    784    796    802     1  0.0000000  0.6508444  3
    780    787    790    799     1  0.0000000  0.6508444  3
    781    780    784    796     1  0.0000000  0.6508444  3
    781    780    787    790     1  0.0000000  0.6508444  3
    781    793    805   1678     1  0.0000000  0.6508444  3
    784    780    781    793     1  0.0000000  0.6508444  3
    784    780    787    790     1  0.0000000  0.6508444  3
    784    796    802   1648     1  0.0000000  0.6508444  3
    787    780    781    793     1  0.0000000  0.6508444  3
    787    780    784    796     1  0.0000000  0.6508444  3
    787    790    799    808     1  0.0000000  0.6508444  3
    793    805   1678   1669     1  180.0000771  0.4184000  2
    793    805   1678   1669     1  0.0000000  1.6024720  3
    796    802   1648   1639     1  180.0000771  0.4184000  2
    796    802   1648   1639     1  0.0000000  1.6024720  3
    802   1648   1639   1630     1  180.0000771  0.4184000  2
    802   1648   1639   1630     1  0.0000000  1.6024720  3
    805   1678   1669   1660     1  180.0000771  0.4184000  2
    805   1678   1669   1660     1  0.0000000  1.6024720  3
    810    811    823    835     1  0.0000000  0.6508444  3
    810    814    826    832     1  0.0000000  0.6508444  3
    810    817    820    829     1  0.0000000  0.6508444  3
    811    810    814    826     1  0.0000000  0.6508444  3
    811    810    817    820     1  0.0000000  0.6508444  3
    811    823    835   1738     1  0.0000000  0.6508444  3
    814    810    811    823     1  0.0000000  0.6508444  3
    814    810    817    820     1  0.0000000  0.6508444  3
    814    826    832   1708     1  0.0000000  0.6508444  3
    817    810    811    823     1  0.0000000  0.6508444  3
    817    810    814    826     1  0.0000000  0.6508444  3
    817    820    829    838     1  0.0000000  0.6508444  3
    823    835   1738   1729     1  180.0000771  0.4184000  2
    823    835   1738   1729     1  0.0000000  1.6024720  3
    826    832   1708   1699     1  180.0000771  0.4184000  2
    826    832   1708   1699     1  0.0000000  1.6024720  3
    832   1708   1699   1690     1  180.0000771  0.4184000  2
    832   1708   1699   1690     1  0.0000000  1.6024720  3
    835   1738   1729   1720     1  180.0000771  0.4184000  2
    835   1738   1729   1720     1  0.0000000  1.6024720  3
    840    841    853    865     1  0.0000000  0.6508444  3
    840    844    856    862     1  0.0000000  0.6508444  3
    840    847    850    859     1  0.0000000  0.6508444  3
    841    840    844    856     1  0.0000000  0.6508444  3
    841    840    847    850     1  0.0000000  0.6508444  3
    841    853    865   1798     1  0.0000000  0.6508444  3
    844    840    841    853     1  0.0000000  0.6508444  3
    844    840    847    850     1  0.0000000  0.6508444  3
    844    856    862   1768     1  0.0000000  0.6508444  3
    847    840    841    853     1  0.0000000  0.6508444  3
    847    840    844    856     1  0.0000000  0.6508444  3
    847    850    859    868     1  0.0000000  0.6508444  3
    853    865   1798   1789     1  180.0000771  0.4184000  2
    853    865   1798   1789     1  0.0000000  1.6024720  3
    856    862   1768   1759     1  180.0000771  0.4184000  2
    856    862   1768   1759     1  0.0000000  1.6024720  3
    862   1768   1759   1750     1  180.0000771  0.4184000  2
    862   1768   1759   1750     1  0.0000000  1.6024720  3
    865   1798   1789   1780     1  180.0000771  0.4184000  2
    865   1798   1789   1780     1  0.0000000  1.6024720  3
    870    871    883    895     1  0.0000000  0.6508444  3
    870    874    886    892     1  0.0000000  0.6508444  3
    870    877    880    889     1  0.0000000  0.6508444  3
    871    870    874    886     1  0.0000000  0.6508444  3
    871    870    877    880     1  0.0000000  0.6508444  3
    871    883    895   1858     1  0.0000000  0.6508444  3
    874    870    871    883     1  0.0000000  0.6508444  3
    874    870    877    880     1  0.0000000  0.6508444  3
    874    886    892   1828     1  0.0000000  0.6508444  3
    877    870    871    883     1  0.0000000  0.6508444  3
    877    870    874    886     1  0.0000000  0.6508444  3
    877    880    889    898     1  0.0000000  0.6508444  3
    883    895   1858   1849     1  180.0000771  0.4184000  2
    883    895   1858   1849     1  0.0000000  1.6024720  3
    886    892   1828   1819     1  180.0000771  0.4184000  2
    886    892   1828   1819     1  0.0000000  1.6024720  3
    892   1828   1819   1810     1  180.0000771  0.4184000  2
    892   1828   1819   1810     1  0.0000000  1.6024720  3
    895   1858   1849   1840     1  180.0000771  0.4184000  2
    895   1858   1849   1840     1  0.0000000  1.6024720  3
    900    901    913    925     1  0.0000000  0.6508444  3
    900    904    916    922     1  0.0000000  0.6508444  3
    900    907    910    919     1  0.0000000  0.6508444  3
    901    900    904    916     1  0.0000000  0.6508444  3
    901    900    907    910     1  0.0000000  0.6508444  3
    901    913    925   1893     1  0.0000000  0.6508444  3
    904    900    901    913     1  0.0000000  0.6508444  3
    904    900    907    910     1  0.0000000  0.6508444  3
    904    916    922   1870     1  0.0000000  0.6508444  3
    907    900    901    913     1  0.0000000  0.6508444  3
    907    900    904    916     1  0.0000000  0.6508444  3
    907    910    919    928     1  0.0000000  0.6508444  3
    913    925   1893   1889     1  180.0000771  0.4184000  2
    913    925   1893   1889     1  0.0000000  1.6024720  3
    916    922   1870   1866     1  180.0000771  0.4184000  2
    916    922   1870   1866     1  0.0000000  1.6024720  3
    922   1870   1866   1865     1  180.0000771  0.4184000  2
    922   1870   1866   1865     1  0.0000000  1.6024720  3
    922   1870   1866   1882     1  180.0000771  5.6484000  1
    922   1870   1866   1882     1  180.0000771  3.5564000  2
    922   1870   1866   1882     1  0.0000000  0.4184000  3
    925   1893   1889   1905     1  180.0000771  5.6484000  1
    925   1893   1889   1905     1  180.0000771  3.5564000  2
    925   1893   1889   1905     1  0.0000000  0.4184000  3
    925   1893   1889   1888     1  180.0000771  0.4184000  2
    925   1893   1889   1888     1  0.0000000  1.6024720  3
    930    931    943    955     1  0.0000000  0.6508444  3
    930    934    946    952     1  0.0000000  0.6508444  3
    930    937    940    949     1  0.0000000  0.6508444  3
    931    930    934    946     1  0.0000000  0.6508444  3
    931    930    937    940     1  0.0000000  0.6508444  3
    931    943    955   1939     1  0.0000000  0.6508444  3
    934    930    931    943     1  0.0000000  0.6508444  3
    934    930    937    940     1  0.0000000  0.6508444  3
    934    946    952   1916     1  0.0000000  0.6508444  3
    937    930    931    943     1  0.0000000  0.6508444  3
    937    930    934    946     1  0.0000000  0.6508444  3
    937    940    949    958     1  0.0000000  0.6508444  3
    943    955   1939   1935     1  180.0000771  0.4184000  2
    943    955   1939   1935     1  0.0000000  1.6024720  3
    946    952   1916   1912     1  180.0000771  0.4184000  2
    946    952   1916   1912     1  0.0000000  1.6024720  3
    952   1916   1912   1911     1  180.0000771  0.4184000  2
    952   1916   1912   1911     1  0.0000000  1.6024720  3
    952   1916   1912   1928     1  180.0000771  5.6484000  1
    952   1916   1912   1928     1  180.0000771  3.5564000  2
    952   1916   1912   1928     1  0.0000000  0.4184000  3
    955   1939   1935   1951     1  180.0000771  5.6484000  1
    955   1939   1935   1951     1  180.0000771  3.5564000  2
    955   1939   1935   1951     1  0.0000000  0.4184000  3
    955   1939   1935   1934     1  180.0000771  0.4184000  2
    955   1939   1935   1934     1  0.0000000  1.6024720  3
    960    961    973    985     1  0.0000000  0.6508444  3
    960    964    976    982     1  0.0000000  0.6508444  3
    960    967    970    979     1  0.0000000  0.6508444  3
    961    960    964    976     1  0.0000000  0.6508444  3
    961    960    967    970     1  0.0000000  0.6508444  3
    961    973    985   1985     1  0.0000000  0.6508444  3
    964    960    961    973     1  0.0000000  0.6508444  3
    964    960    967    970     1  0.0000000  0.6508444  3
    964    976    982   1962     1  0.0000000  0.6508444  3
    967    960    961    973     1  0.0000000  0.6508444  3
    967    960    964    976     1  0.0000000  0.6508444  3
    967    970    979    988     1  0.0000000  0.6508444  3
    973    985   1985   1981     1  180.0000771  0.4184000  2
    973    985   1985   1981     1  0.0000000  1.6024720  3
    976    982   1962   1958     1  180.0000771  0.4184000  2
    976    982   1962   1958     1  0.0000000  1.6024720  3
    982   1962   1958   1957     1  180.0000771  0.4184000  2
    982   1962   1958   1957     1  0.0000000  1.6024720  3
    982   1962   1958   1974     1  180.0000771  5.6484000  1
    982   1962   1958   1974     1  180.0000771  3.5564000  2
    982   1962   1958   1974     1  0.0000000  0.4184000  3
    985   1985   1981   1997     1  180.0000771  5.6484000  1
    985   1985   1981   1997     1  180.0000771  3.5564000  2
    985   1985   1981   1997     1  0.0000000  0.4184000  3
    985   1985   1981   1980     1  180.0000771  0.4184000  2
    985   1985   1981   1980     1  0.0000000  1.6024720  3
    990    991   1003   1015     1  0.0000000  0.6508444  3
    990    994   1006   1012     1  0.0000000  0.6508444  3
    990    997   1000   1009     1  0.0000000  0.6508444  3
    991    990    994   1006     1  0.0000000  0.6508444  3
    991    990    997   1000     1  0.0000000  0.6508444  3
    991   1003   1015   2031     1  0.0000000  0.6508444  3
    994    990    991   1003     1  0.0000000  0.6508444  3
    994    990    997   1000     1  0.0000000  0.6508444  3
    994   1006   1012   2008     1  0.0000000  0.6508444  3
    997    990    991   1003     1  0.0000000  0.6508444  3
    997    990    994   1006     1  0.0000000  0.6508444  3
    997   1000   1009   1018     1  0.0000000  0.6508444  3
   1003   1015   2031   2027     1  180.0000771  0.4184000  2
   1003   1015   2031   2027     1  0.0000000  1.6024720  3
   1006   1012   2008   2004     1  180.0000771  0.4184000  2
   1006   1012   2008   2004     1  0.0000000  1.6024720  3
   1012   2008   2004   2003     1  180.0000771  0.4184000  2
   1012   2008   2004   2003     1  0.0000000  1.6024720  3
   1012   2008   2004   2020     1  180.0000771  5.6484000  1
   1012   2008   2004   2020     1  180.0000771  3.5564000  2
   1012   2008   2004   2020     1  0.0000000  0.4184000  3
   1015   2031   2027   2043     1  180.0000771  5.6484000  1
   1015   2031   2027   2043     1  180.0000771  3.5564000  2
   1015   2031   2027   2043     1  0.0000000  0.4184000  3
   1015   2031   2027   2026     1  180.0000771  0.4184000  2
   1015   2031   2027   2026     1  0.0000000  1.6024720  3
   1020   1021   1033   1045     1  0.0000000  0.6508444  3
   1020   1024   1036   1042     1  0.0000000  0.6508444  3
   1020   1027   1030   1039     1  0.0000000  0.6508444  3
   1021   1020   1024   1036     1  0.0000000  0.6508444  3
   1021   1020   1027   1030     1  0.0000000  0.6508444  3
   1021   1033   1045   2077     1  0.0000000  0.6508444  3
   1024   1020   1021   1033     1  0.0000000  0.6508444  3
   1024   1020   1027   1030     1  0.0000000  0.6508444  3
   1024   1036   1042   2054     1  0.0000000  0.6508444  3
   1027   1020   1021   1033     1  0.0000000  0.6508444  3
   1027   1020   1024   1036     1  0.0000000  0.6508444  3
   1027   1030   1039   1048     1  0.0000000  0.6508444  3
   1033   1045   2077   2073     1  180.0000771  0.4184000  2
   1033   1045   2077   2073     1  0.0000000  1.6024720  3
   1036   1042   2054   2050     1  180.0000771  0.4184000  2
   1036   1042   2054   2050     1  0.0000000  1.6024720  3
   1042   2054   2050   2049     1  180.0000771  0.4184000  2
   1042   2054   2050   2049     1  0.0000000  1.6024720  3
   1042   2054   2050   2066     1  180.0000771  5.6484000  1
   1042   2054   2050   2066     1  180.0000771  3.5564000  2
   1042   2054   2050   2066     1  0.0000000  0.4184000  3
   1045   2077   2073   2089     1  180.0000771  5.6484000  1
   1045   2077   2073   2089     1  180.0000771  3.5564000  2
   1045   2077   2073   2089     1  0.0000000  0.4184000  3
   1045   2077   2073   2072     1  180.0000771  0.4184000  2
   1045   2077   2073   2072     1  0.0000000  1.6024720  3
   1050   1051   1063   1075     1  0.0000000  0.6508444  3
   1050   1054   1066   1072     1  0.0000000  0.6508444  3
   1050   1057   1060   1069     1  0.0000000  0.6508444  3
   1051   1050   1054   1066     1  0.0000000  0.6508444  3
   1051   1050   1057   1060     1  0.0000000  0.6508444  3
   1051   1063   1075   2123     1  0.0000000  0.6508444  3
   1054   1050   1051   1063     1  0.0000000  0.6508444  3
   1054   1050   1057   1060     1  0.0000000  0.6508444  3
   1054   1066   1072   2100     1  0.0000000  0.6508444  3
   1057   1050   1051   1063     1  0.0000000  0.6508444  3
   1057   1050   1054   1066     1  0.0000000  0.6508444  3
   1057   1060   1069   1078     1  0.0000000  0.6508444  3
   1063   1075   2123   2119     1  180.0000771  0.4184000  2
   1063   1075   2123   2119     1  0.0000000  1.6024720  3
   1066   1072   2100   2096     1  180.0000771  0.4184000  2
   1066   1072   2100   2096     1  0.0000000  1.6024720  3
   1072   2100   2096   2095     1  180.0000771  0.4184000  2
   1072   2100   2096   2095     1  0.0000000  1.6024720  3
   1072   2100   2096   2112     1  180.0000771  5.6484000  1
   1072   2100   2096   2112     1  180.0000771  3.5564000  2
   1072   2100   2096   2112     1  0.0000000  0.4184000  3
   1075   2123   2119   2135     1  180.0000771  5.6484000  1
   1075   2123   2119   2135     1  180.0000771  3.5564000  2
   1075   2123   2119   2135     1  0.0000000  0.4184000  3
   1075   2123   2119   2118     1  180.0000771  0.4184000  2
   1075   2123   2119   2118     1  0.0000000  1.6024720  3
   1080   1081   1093   1105     1  0.0000000  0.6508444  3
   1080   1084   1096   1102     1  0.0000000  0.6508444  3
   1080   1087   1090   1099     1  0.0000000  0.6508444  3
   1081   1080   1084   1096     1  0.0000000  0.6508444  3
   1081   1080   1087   1090     1  0.0000000  0.6508444  3
   1081   1093   1105   2169     1  0.0000000  0.6508444  3
   1084   1080   1081   1093     1  0.0000000  0.6508444  3
   1084   1080   1087   1090     1  0.0000000  0.6508444  3
   1084   1096   1102   2146     1  0.0000000  0.6508444  3
   1087   1080   1081   1093     1  0.0000000  0.6508444  3
   1087   1080   1084   1096     1  0.0000000  0.6508444  3
   1087   1090   1099   1108     1  0.0000000  0.6508444  3
   1093   1105   2169   2165     1  180.0000771  0.4184000  2
   1093   1105   2169   2165     1  0.0000000  1.6024720  3
   1096   1102   2146   2142     1  180.0000771  0.4184000  2
   1096   1102   2146   2142     1  0.0000000  1.6024720  3
   1102   2146   2142   2141     1  180.0000771  0.4184000  2
   1102   2146   2142   2141     1  0.0000000  1.6024720  3
   1102   2146   2142   2158     1  180.0000771  5.6484000  1
   1102   2146   2142   2158     1  180.0000771  3.5564000  2
   1102   2146   2142   2158     1  0.0000000  0.4184000  3
   1105   2169   2165   2181     1  180.0000771  5.6484000  1
   1105   2169   2165   2181     1  180.0000771  3.5564000  2
   1105   2169   2165   2181     1  0.0000000  0.4184000  3
   1105   2169   2165   2164     1  180.0000771  0.4184000  2
   1105   2169   2165   2164     1  0.0000000  1.6024720  3
   1110   1111   1123   1135     1  0.0000000  0.6508444  3
   1110   1114   1126   1132     1  0.0000000  0.6508444  3
   1110   1117   1120   1129     1  0.0000000  0.6508444  3
   1111   1110   1114   1126     1  0.0000000  0.6508444  3
   1111   1110   1117   1120     1  0.0000000  0.6508444  3
   1111   1123   1135   2215     1  0.0000000  0.6508444  3
   1114   1110   1111   1123     1  0.0000000  0.6508444  3
   1114   1110   1117   1120     1  0.0000000  0.6508444  3
   1114   1126   1132   2192     1  0.0000000  0.6508444  3
   1117   1110   1111   1123     1  0.0000000  0.6508444  3
   1117   1110   1114   1126     1  0.0000000  0.6508444  3
   1117   1120   1129   1138     1  0.0000000  0.6508444  3
   1123   1135   2215   2211     1  180.0000771  0.4184000  2
   1123   1135   2215   2211     1  0.0000000  1.6024720  3
   1126   1132   2192   2188     1  180.0000771  0.4184000  2
   1126   1132   2192   2188     1  0.0000000  1.6024720  3
   1132   2192   2188   2187     1  180.0000771  0.4184000  2
   1132   2192   2188   2187     1  0.0000000  1.6024720  3
   1132   2192   2188   2204     1  180.0000771  5.6484000  1
   1132   2192   2188   2204     1  180.0000771  3.5564000  2
   1132   2192   2188   2204     1  0.0000000  0.4184000  3
   1135   2215   2211   2227     1  180.0000771  5.6484000  1
   1135   2215   2211   2227     1  180.0000771  3.5564000  2
   1135   2215   2211   2227     1  0.0000000  0.4184000  3
   1135   2215   2211   2210     1  180.0000771  0.4184000  2
   1135   2215   2211   2210     1  0.0000000  1.6024720  3
   1140   1141   1153   1165     1  0.0000000  0.6508444  3
   1140   1144   1156   1162     1  0.0000000  0.6508444  3
   1140   1147   1150   1159     1  0.0000000  0.6508444  3
   1141   1140   1144   1156     1  0.0000000  0.6508444  3
   1141   1140   1147   1150     1  0.0000000  0.6508444  3
   1141   1153   1165   2261     1  0.0000000  0.6508444  3
   1144   1140   1141   1153     1  0.0000000  0.6508444  3
   1144   1140   1147   1150     1  0.0000000  0.6508444  3
   1144   1156   1162   2238     1  0.0000000  0.6508444  3
   1147   1140   1141   1153     1  0.0000000  0.6508444  3
   1147   1140   1144   1156     1  0.0000000  0.6508444  3
   1147   1150   1159   1168     1  0.0000000  0.6508444  3
   1153   1165   2261   2257     1  180.0000771  0.4184000  2
   1153   1165   2261   2257     1  0.0000000  1.6024720  3
   1156   1162   2238   2234     1  180.0000771  0.4184000  2
   1156   1162   2238   2234     1  0.0000000  1.6024720  3
   1162   2238   2234   2233     1  180.0000771  0.4184000  2
   1162   2238   2234   2233     1  0.0000000  1.6024720  3
   1162   2238   2234   2250     1  180.0000771  5.6484000  1
   1162   2238   2234   2250     1  180.0000771  3.5564000  2
   1162   2238   2234   2250     1  0.0000000  0.4184000  3
   1165   2261   2257   2273     1  180.0000771  5.6484000  1
   1165   2261   2257   2273     1  180.0000771  3.5564000  2
   1165   2261   2257   2273     1  0.0000000  0.4184000  3
   1165   2261   2257   2256     1  180.0000771  0.4184000  2
   1165   2261   2257   2256     1  0.0000000  1.6024720  3
   1170   1171   1183   1195     1  0.0000000  0.6508444  3
   1170   1174   1186   1192     1  0.0000000  0.6508444  3
   1170   1177   1180   1189     1  0.0000000  0.6508444  3
   1171   1170   1174   1186     1  0.0000000  0.6508444  3
   1171   1170   1177   1180     1  0.0000000  0.6508444  3
   1171   1183   1195   2307     1  0.0000000  0.6508444  3
   1174   1170   1171   1183     1  0.0000000  0.6508444  3
   1174   1170   1177   1180     1  0.0000000  0.6508444  3
   1174   1186   1192   2284     1  0.0000000  0.6508444  3
   1177   1170   1171   1183     1  0.0000000  0.6508444  3
   1177   1170   1174   1186     1  0.0000000  0.6508444  3
   1177   1180   1189   1198     1  0.0000000  0.6508444  3
   1183   1195   2307   2303     1  180.0000771  0.4184000  2
   1183   1195   2307   2303     1  0.0000000  1.6024720  3
   1186   1192   2284   2280     1  180.0000771  0.4184000  2
   1186   1192   2284   2280     1  0.0000000  1.6024720  3
   1192   2284   2280   2279     1  180.0000771  0.4184000  2
   1192   2284   2280   2279     1  0.0000000  1.6024720  3
   1192   2284   2280   2296     1  180.0000771  5.6484000  1
   1192   2284   2280   2296     1  180.0000771  3.5564000  2
   1192   2284   2280   2296     1  0.0000000  0.4184000  3
   1195   2307   2303   2319     1  180.0000771  5.6484000  1
   1195   2307   2303   2319     1  180.0000771  3.5564000  2
   1195   2307   2303   2319     1  0.0000000  0.4184000  3
   1195   2307   2303   2302     1  180.0000771  0.4184000  2
   1195   2307   2303   2302     1  0.0000000  1.6024720  3
   1200   1201   1213   1225     1  0.0000000  0.6508444  3
   1200   1204   1216   1222     1  0.0000000  0.6508444  3
   1200   1207   1210   1219     1  0.0000000  0.6508444  3
   1201   1200   1204   1216     1  0.0000000  0.6508444  3
   1201   1200   1207   1210     1  0.0000000  0.6508444  3
   1201   1213   1225   2353     1  0.0000000  0.6508444  3
   1204   1200   1201   1213     1  0.0000000  0.6508444  3
   1204   1200   1207   1210     1  0.0000000  0.6508444  3
   1204   1216   1222   2330     1  0.0000000  0.6508444  3
   1207   1200   1201   1213     1  0.0000000  0.6508444  3
   1207   1200   1204   1216     1  0.0000000  0.6508444  3
   1207   1210   1219   1228     1  0.0000000  0.6508444  3
   1213   1225   2353   2349     1  180.0000771  0.4184000  2
   1213   1225   2353   2349     1  0.0000000  1.6024720  3
   1216   1222   2330   2326     1  180.0000771  0.4184000  2
   1216   1222   2330   2326     1  0.0000000  1.6024720  3
   1222   2330   2326   2325     1  180.0000771  0.4184000  2
   1222   2330   2326   2325     1  0.0000000  1.6024720  3
   1222   2330   2326   2342     1  180.0000771  5.6484000  1
   1222   2330   2326   2342     1  180.0000771  3.5564000  2
   1222   2330   2326   2342     1  0.0000000  0.4184000  3
   1225   2353   2349   2365     1  180.0000771  5.6484000  1
   1225   2353   2349   2365     1  180.0000771  3.5564000  2
   1225   2353   2349   2365     1  0.0000000  0.4184000  3
   1225   2353   2349   2348     1  180.0000771  0.4184000  2
   1225   2353   2349   2348     1  0.0000000  1.6024720  3
   1230   1231   1243   1255     1  0.0000000  0.6508444  3
   1230   1234   1246   1252     1  0.0000000  0.6508444  3
   1230   1237   1240   1249     1  0.0000000  0.6508444  3
   1231   1230   1234   1246     1  0.0000000  0.6508444  3
   1231   1230   1237   1240     1  0.0000000  0.6508444  3
   1231   1243   1255   2399     1  0.0000000  0.6508444  3
   1234   1230   1231   1243     1  0.0000000  0.6508444  3
   1234   1230   1237   1240     1  0.0000000  0.6508444  3
   1234   1246   1252   2376     1  0.0000000  0.6508444  3
   1237   1230   1231   1243     1  0.0000000  0.6508444  3
   1237   1230   1234   1246     1  0.0000000  0.6508444  3
   1237   1240   1249   1258     1  0.0000000  0.6508444  3
   1243   1255   2399   2395     1  180.0000771  0.4184000  2
   1243   1255   2399   2395     1  0.0000000  1.6024720  3
   1246   1252   2376   2372     1  180.0000771  0.4184000  2
   1246   1252   2376   2372     1  0.0000000  1.6024720  3
   1252   2376   2372   2371     1  180.0000771  0.4184000  2
   1252   2376   2372   2371     1  0.0000000  1.6024720  3
   1252   2376   2372   2388     1  180.0000771  5.6484000  1
   1252   2376   2372   2388     1  180.0000771  3.5564000  2
   1252   2376   2372   2388     1  0.0000000  0.4184000  3
   1255   2399   2395   2411     1  180.0000771  5.6484000  1
   1255   2399   2395   2411     1  180.0000771  3.5564000  2
   1255   2399   2395   2411     1  0.0000000  0.4184000  3
   1255   2399   2395   2394     1  180.0000771  0.4184000  2
   1255   2399   2395   2394     1  0.0000000  1.6024720  3
   1260   1261   1273   1285     1  0.0000000  0.6508444  3
   1260   1264   1276   1282     1  0.0000000  0.6508444  3
   1260   1267   1270   1279     1  0.0000000  0.6508444  3
   1261   1260   1264   1276     1  0.0000000  0.6508444  3
   1261   1260   1267   1270     1  0.0000000  0.6508444  3
   1261   1273   1285   2445     1  0.0000000  0.6508444  3
   1264   1260   1261   1273     1  0.0000000  0.6508444  3
   1264   1260   1267   1270     1  0.0000000  0.6508444  3
   1264   1276   1282   2422     1  0.0000000  0.6508444  3
   1267   1260   1261   1273     1  0.0000000  0.6508444  3
   1267   1260   1264   1276     1  0.0000000  0.6508444  3
   1267   1270   1279   1288     1  0.0000000  0.6508444  3
   1273   1285   2445   2441     1  180.0000771  0.4184000  2
   1273   1285   2445   2441     1  0.0000000  1.6024720  3
   1276   1282   2422   2418     1  180.0000771  0.4184000  2
   1276   1282   2422   2418     1  0.0000000  1.6024720  3
   1282   2422   2418   2417     1  180.0000771  0.4184000  2
   1282   2422   2418   2417     1  0.0000000  1.6024720  3
   1282   2422   2418   2434     1  180.0000771  5.6484000  1
   1282   2422   2418   2434     1  180.0000771  3.5564000  2
   1282   2422   2418   2434     1  0.0000000  0.4184000  3
   1285   2445   2441   2457     1  180.0000771  5.6484000  1
   1285   2445   2441   2457     1  180.0000771  3.5564000  2
   1285   2445   2441   2457     1  0.0000000  0.4184000  3
   1285   2445   2441   2440     1  180.0000771  0.4184000  2
   1285   2445   2441   2440     1  0.0000000  1.6024720  3
   1290   1291   1303   1315     1  0.0000000  0.6508444  3
   1290   1294   1306   1312     1  0.0000000  0.6508444  3
   1290   1297   1300   1309     1  0.0000000  0.6508444  3
   1291   1290   1294   1306     1  0.0000000  0.6508444  3
   1291   1290   1297   1300     1  0.0000000  0.6508444  3
   1291   1303   1315   2491     1  0.0000000  0.6508444  3
   1294   1290   1291   1303     1  0.0000000  0.6508444  3
   1294   1290   1297   1300     1  0.0000000  0.6508444  3
   1294   1306   1312   2468     1  0.0000000  0.6508444  3
   1297   1290   1291   1303     1  0.0000000  0.6508444  3
   1297   1290   1294   1306     1  0.0000000  0.6508444  3
   1297   1300   1309   1318     1  0.0000000  0.6508444  3
   1303   1315   2491   2487     1  180.0000771  0.4184000  2
   1303   1315   2491   2487     1  0.0000000  1.6024720  3
   1306   1312   2468   2464     1  180.0000771  0.4184000  2
   1306   1312   2468   2464     1  0.0000000  1.6024720  3
   1312   2468   2464   2463     1  180.0000771  0.4184000  2
   1312   2468   2464   2463     1  0.0000000  1.6024720  3
   1312   2468   2464   2480     1  180.0000771  5.6484000  1
   1312   2468   2464   2480     1  180.0000771  3.5564000  2
   1312   2468   2464   2480     1  0.0000000  0.4184000  3
   1315   2491   2487   2503     1  180.0000771  5.6484000  1
   1315   2491   2487   2503     1  180.0000771  3.5564000  2
   1315   2491   2487   2503     1  0.0000000  0.4184000  3
   1315   2491   2487   2486     1  180.0000771  0.4184000  2
   1315   2491   2487   2486     1  0.0000000  1.6024720  3
   1320   1321   1333   1345     1  0.0000000  0.6508444  3
   1320   1324   1336   1342     1  0.0000000  0.6508444  3
   1320   1327   1330   1339     1  0.0000000  0.6508444  3
   1321   1320   1324   1336     1  0.0000000  0.6508444  3
   1321   1320   1327   1330     1  0.0000000  0.6508444  3
   1321   1333   1345   2537     1  0.0000000  0.6508444  3
   1324   1320   1321   1333     1  0.0000000  0.6508444  3
   1324   1320   1327   1330     1  0.0000000  0.6508444  3
   1324   1336   1342   2514     1  0.0000000  0.6508444  3
   1327   1320   1321   1333     1  0.0000000  0.6508444  3
   1327   1320   1324   1336     1  0.0000000  0.6508444  3
   1327   1330   1339   1348     1  0.0000000  0.6508444  3
   1333   1345   2537   2533     1  180.0000771  0.4184000  2
   1333   1345   2537   2533     1  0.0000000  1.6024720  3
   1336   1342   2514   2510     1  180.0000771  0.4184000  2
   1336   1342   2514   2510     1  0.0000000  1.6024720  3
   1342   2514   2510   2509     1  180.0000771  0.4184000  2
   1342   2514   2510   2509     1  0.0000000  1.6024720  3
   1342   2514   2510   2526     1  180.0000771  5.6484000  1
   1342   2514   2510   2526     1  180.0000771  3.5564000  2
   1342   2514   2510   2526     1  0.0000000  0.4184000  3
   1345   2537   2533   2549     1  180.0000771  5.6484000  1
   1345   2537   2533   2549     1  180.0000771  3.5564000  2
   1345   2537   2533   2549     1  0.0000000  0.4184000  3
   1345   2537   2533   2532     1  180.0000771  0.4184000  2
   1345   2537   2533   2532     1  0.0000000  1.6024720  3
   1350   1351   1363   1375     1  0.0000000  0.6508444  3
   1350   1354   1366   1372     1  0.0000000  0.6508444  3
   1350   1357   1360   1369     1  0.0000000  0.6508444  3
   1351   1350   1354   1366     1  0.0000000  0.6508444  3
   1351   1350   1357   1360     1  0.0000000  0.6508444  3
   1351   1363   1375   2583     1  0.0000000  0.6508444  3
   1354   1350   1351   1363     1  0.0000000  0.6508444  3
   1354   1350   1357   1360     1  0.0000000  0.6508444  3
   1354   1366   1372   2560     1  0.0000000  0.6508444  3
   1357   1350   1351   1363     1  0.0000000  0.6508444  3
   1357   1350   1354   1366     1  0.0000000  0.6508444  3
   1357   1360   1369   1378     1  0.0000000  0.6508444  3
   1363   1375   2583   2579     1  180.0000771  0.4184000  2
   1363   1375   2583   2579     1  0.0000000  1.6024720  3
   1366   1372   2560   2556     1  180.0000771  0.4184000  2
   1366   1372   2560   2556     1  0.0000000  1.6024720  3
   1372   2560   2556   2555     1  180.0000771  0.4184000  2
   1372   2560   2556   2555     1  0.0000000  1.6024720  3
   1372   2560   2556   2572     1  180.0000771  5.6484000  1
   1372   2560   2556   2572     1  180.0000771  3.5564000  2
   1372   2560   2556   2572     1  0.0000000  0.4184000  3
   1375   2583   2579   2595     1  180.0000771  5.6484000  1
   1375   2583   2579   2595     1  180.0000771  3.5564000  2
   1375   2583   2579   2595     1  0.0000000  0.4184000  3
   1375   2583   2579   2578     1  180.0000771  0.4184000  2
   1375   2583   2579   2578     1  0.0000000  1.6024720  3
   1380   1381   1393   1405     1  0.0000000  0.6508444  3
   1380   1384   1396   1402     1  0.0000000  0.6508444  3
   1380   1387   1390   1399     1  0.0000000  0.6508444  3
   1381   1380   1384   1396     1  0.0000000  0.6508444  3
   1381   1380   1387   1390     1  0.0000000  0.6508444  3
   1381   1393   1405   2629     1  0.0000000  0.6508444  3
   1384   1380   1381   1393     1  0.0000000  0.6508444  3
   1384   1380   1387   1390     1  0.0000000  0.6508444  3
   1384   1396   1402   2606     1  0.0000000  0.6508444  3
   1387   1380   1381   1393     1  0.0000000  0.6508444  3
   1387   1380   1384   1396     1  0.0000000  0.6508444  3
   1387   1390   1399   1408     1  0.0000000  0.6508444  3
   1393   1405   2629   2625     1  180.0000771  0.4184000  2
   1393   1405   2629   2625     1  0.0000000  1.6024720  3
   1396   1402   2606   2602     1  180.0000771  0.4184000  2
   1396   1402   2606   2602     1  0.0000000  1.6024720  3
   1402   2606   2602   2601     1  180.0000771  0.4184000  2
   1402   2606   2602   2601     1  0.0000000  1.6024720  3
   1402   2606   2602   2618     1  180.0000771  5.6484000  1
   1402   2606   2602   2618     1  180.0000771  3.5564000  2
   1402   2606   2602   2618     1  0.0000000  0.4184000  3
   1405   2629   2625   2641     1  180.0000771  5.6484000  1
   1405   2629   2625   2641     1  180.0000771  3.5564000  2
   1405   2629   2625   2641     1  0.0000000  0.4184000  3
   1405   2629   2625   2624     1  180.0000771  0.4184000  2
   1405   2629   2625   2624     1  0.0000000  1.6024720  3
   1410   1411   1423   1435     1  0.0000000  0.6508444  3
   1410   1414   1426   1432     1  0.0000000  0.6508444  3
   1410   1417   1420   1429     1  0.0000000  0.6508444  3
   1411   1410   1414   1426     1  0.0000000  0.6508444  3
   1411   1410   1417   1420     1  0.0000000  0.6508444  3
   1411   1423   1435   2675     1  0.0000000  0.6508444  3
   1414   1410   1411   1423     1  0.0000000  0.6508444  3
   1414   1410   1417   1420     1  0.0000000  0.6508444  3
   1414   1426   1432   2652     1  0.0000000  0.6508444  3
   1417   1410   1411   1423     1  0.0000000  0.6508444  3
   1417   1410   1414   1426     1  0.0000000  0.6508444  3
   1417   1420   1429   1438     1  0.0000000  0.6508444  3
   1423   1435   2675   2671     1  180.0000771  0.4184000  2
   1423   1435   2675   2671     1  0.0000000  1.6024720  3
   1426   1432   2652   2648     1  180.0000771  0.4184000  2
   1426   1432   2652   2648     1  0.0000000  1.6024720  3
   1432   2652   2648   2647     1  180.0000771  0.4184000  2
   1432   2652   2648   2647     1  0.0000000  1.6024720  3
   1432   2652   2648   2664     1  180.0000771  5.6484000  1
   1432   2652   2648   2664     1  180.0000771  3.5564000  2
   1432   2652   2648   2664     1  0.0000000  0.4184000  3
   1435   2675   2671   2687     1  180.0000771  5.6484000  1
   1435   2675   2671   2687     1  180.0000771  3.5564000  2
   1435   2675   2671   2687     1  0.0000000  0.4184000  3
   1435   2675   2671   2670     1  180.0000771  0.4184000  2
   1435   2675   2671   2670     1  0.0000000  1.6024720  3
   1440   1441   1453   1465     1  0.0000000  0.6508444  3
   1440   1444   1456   1462     1  0.0000000  0.6508444  3
   1440   1447   1450   1459     1  0.0000000  0.6508444  3
   1441   1440   1444   1456     1  0.0000000  0.6508444  3
   1441   1440   1447   1450     1  0.0000000  0.6508444  3
   1441   1453   1465   2721     1  0.0000000  0.6508444  3
   1444   1440   1441   1453     1  0.0000000  0.6508444  3
   1444   1440   1447   1450     1  0.0000000  0.6508444  3
   1444   1456   1462   2698     1  0.0000000  0.6508444  3
   1447   1440   1441   1453     1  0.0000000  0.6508444  3
   1447   1440   1444   1456     1  0.0000000  0.6508444  3
   1447   1450   1459   1468     1  0.0000000  0.6508444  3
   1453   1465   2721   2717     1  180.0000771  0.4184000  2
   1453   1465   2721   2717     1  0.0000000  1.6024720  3
   1456   1462   2698   2694     1  180.0000771  0.4184000  2
   1456   1462   2698   2694     1  0.0000000  1.6024720  3
   1462   2698   2694   2693     1  180.0000771  0.4184000  2
   1462   2698   2694   2693     1  0.0000000  1.6024720  3
   1462   2698   2694   2710     1  180.0000771  5.6484000  1
   1462   2698   2694   2710     1  180.0000771  3.5564000  2
   1462   2698   2694   2710     1  0.0000000  0.4184000  3
   1465   2721   2717   2733     1  180.0000771  5.6484000  1
   1465   2721   2717   2733     1  180.0000771  3.5564000  2
   1465   2721   2717   2733     1  0.0000000  0.4184000  3
   1465   2721   2717   2716     1  180.0000771  0.4184000  2
   1465   2721   2717   2716     1  0.0000000  1.6024720  3
   1470   1471   1483   1495     1  0.0000000  0.6508444  3
   1470   1474   1486   1492     1  0.0000000  0.6508444  3
   1470   1477   1480   1489     1  0.0000000  0.6508444  3
   1471   1470   1474   1486     1  0.0000000  0.6508444  3
   1471   1470   1477   1480     1  0.0000000  0.6508444  3
   1471   1483   1495   2767     1  0.0000000  0.6508444  3
   1474   1470   1471   1483     1  0.0000000  0.6508444  3
   1474   1470   1477   1480     1  0.0000000  0.6508444  3
   1474   1486   1492   2744     1  0.0000000  0.6508444  3
   1477   1470   1471   1483     1  0.0000000  0.6508444  3
   1477   1470   1474   1486     1  0.0000000  0.6508444  3
   1477   1480   1489   1498     1  0.0000000  0.6508444  3
   1483   1495   2767   2763     1  180.0000771  0.4184000  2
   1483   1495   2767   2763     1  0.0000000  1.6024720  3
   1486   1492   2744   2740     1  180.0000771  0.4184000  2
   1486   1492   2744   2740     1  0.0000000  1.6024720  3
   1492   2744   2740   2739     1  180.0000771  0.4184000  2
   1492   2744   2740   2739     1  0.0000000  1.6024720  3
   1492   2744   2740   2756     1  180.0000771  5.6484000  1
   1492   2744   2740   2756     1  180.0000771  3.5564000  2
   1492   2744   2740   2756     1  0.0000000  0.4184000  3
   1495   2767   2763   2779     1  180.0000771  5.6484000  1
   1495   2767   2763   2779     1  180.0000771  3.5564000  2
   1495   2767   2763   2779     1  0.0000000  0.4184000  3
   1495   2767   2763   2762     1  180.0000771  0.4184000  2
   1495   2767   2763   2762     1  0.0000000  1.6024720  3
   1500   1501   1513   1525     1  0.0000000  0.6508444  3
   1500   1504   1516   1522     1  0.0000000  0.6508444  3
   1500   1507   1510   1519     1  0.0000000  0.6508444  3
   1501   1500   1504   1516     1  0.0000000  0.6508444  3
   1501   1500   1507   1510     1  0.0000000  0.6508444  3
   1501   1513   1525   2813     1  0.0000000  0.6508444  3
   1504   1500   1501   1513     1  0.0000000  0.6508444  3
   1504   1500   1507   1510     1  0.0000000  0.6508444  3
   1504   1516   1522   2790     1  0.0000000  0.6508444  3
   1507   1500   1501   1513     1  0.0000000  0.6508444  3
   1507   1500   1504   1516     1  0.0000000  0.6508444  3
   1507   1510   1519   1528     1  0.0000000  0.6508444  3
   1513   1525   2813   2809     1  180.0000771  0.4184000  2
   1513   1525   2813   2809     1  0.0000000  1.6024720  3
   1516   1522   2790   2786     1  180.0000771  0.4184000  2
   1516   1522   2790   2786     1  0.0000000  1.6024720  3
   1522   2790   2786   2785     1  180.0000771  0.4184000  2
   1522   2790   2786   2785     1  0.0000000  1.6024720  3
   1522   2790   2786   2802     1  180.0000771  5.6484000  1
   1522   2790   2786   2802     1  180.0000771  3.5564000  2
   1522   2790   2786   2802     1  0.0000000  0.4184000  3
   1525   2813   2809   2825     1  180.0000771  5.6484000  1
   1525   2813   2809   2825     1  180.0000771  3.5564000  2
   1525   2813   2809   2825     1  0.0000000  0.4184000  3
   1525   2813   2809   2808     1  180.0000771  0.4184000  2
   1525   2813   2809   2808     1  0.0000000  1.6024720  3
   1530   1531   1543   1555     1  0.0000000  0.6508444  3
   1530   1534   1546   1552     1  0.0000000  0.6508444  3
   1530   1537   1540   1549     1  0.0000000  0.6508444  3
   1531   1530   1534   1546     1  0.0000000  0.6508444  3
   1531   1530   1537   1540     1  0.0000000  0.6508444  3
   1531   1543   1555   2859     1  0.0000000  0.6508444  3
   1534   1530   1531   1543     1  0.0000000  0.6508444  3
   1534   1530   1537   1540     1  0.0000000  0.6508444  3
   1534   1546   1552   2836     1  0.0000000  0.6508444  3
   1537   1530   1531   1543     1  0.0000000  0.6508444  3
   1537   1530   1534   1546     1  0.0000000  0.6508444  3
   1537   1540   1549   1558     1  0.0000000  0.6508444  3
   1543   1555   2859   2855     1  180.0000771  0.4184000  2
   1543   1555   2859   2855     1  0.0000000  1.6024720  3
   1546   1552   2836   2832     1  180.0000771  0.4184000  2
   1546   1552   2836   2832     1  0.0000000  1.6024720  3
   1552   2836   2832   2831     1  180.0000771  0.4184000  2
   1552   2836   2832   2831     1  0.0000000  1.6024720  3
   1552   2836   2832   2848     1  180.0000771  5.6484000  1
   1552   2836   2832   2848     1  180.0000771  3.5564000  2
   1552   2836   2832   2848     1  0.0000000  0.4184000  3
   1555   2859   2855   2871     1  180.0000771  5.6484000  1
   1555   2859   2855   2871     1  180.0000771  3.5564000  2
   1555   2859   2855   2871     1  0.0000000  0.4184000  3
   1555   2859   2855   2854     1  180.0000771  0.4184000  2
   1555   2859   2855   2854     1  0.0000000  1.6024720  3
   1560   1561   1573   1585     1  0.0000000  0.6508444  3
   1560   1564   1576   1582     1  0.0000000  0.6508444  3
   1560   1567   1570   1579     1  0.0000000  0.6508444  3
   1561   1560   1564   1576     1  0.0000000  0.6508444  3
   1561   1560   1567   1570     1  0.0000000  0.6508444  3
   1561   1573   1585   2905     1  0.0000000  0.6508444  3
   1564   1560   1561   1573     1  0.0000000  0.6508444  3
   1564   1560   1567   1570     1  0.0000000  0.6508444  3
   1564   1576   1582   2882     1  0.0000000  0.6508444  3
   1567   1560   1561   1573     1  0.0000000  0.6508444  3
   1567   1560   1564   1576     1  0.0000000  0.6508444  3
   1567   1570   1579   1588     1  0.0000000  0.6508444  3
   1573   1585   2905   2901     1  180.0000771  0.4184000  2
   1573   1585   2905   2901     1  0.0000000  1.6024720  3
   1576   1582   2882   2878     1  180.0000771  0.4184000  2
   1576   1582   2882   2878     1  0.0000000  1.6024720  3
   1582   2882   2878   2877     1  180.0000771  0.4184000  2
   1582   2882   2878   2877     1  0.0000000  1.6024720  3
   1582   2882   2878   2894     1  180.0000771  5.6484000  1
   1582   2882   2878   2894     1  180.0000771  3.5564000  2
   1582   2882   2878   2894     1  0.0000000  0.4184000  3
   1585   2905   2901   2917     1  180.0000771  5.6484000  1
   1585   2905   2901   2917     1  180.0000771  3.5564000  2
   1585   2905   2901   2917     1  0.0000000  0.4184000  3
   1585   2905   2901   2900     1  180.0000771  0.4184000  2
   1585   2905   2901   2900     1  0.0000000  1.6024720  3
   1590   1591   1603   1615     1  0.0000000  0.6508444  3
   1590   1594   1606   1612     1  0.0000000  0.6508444  3
   1590   1597   1600   1609     1  0.0000000  0.6508444  3
   1591   1590   1594   1606     1  0.0000000  0.6508444  3
   1591   1590   1597   1600     1  0.0000000  0.6508444  3
   1591   1603   1615   2951     1  0.0000000  0.6508444  3
   1594   1590   1591   1603     1  0.0000000  0.6508444  3
   1594   1590   1597   1600     1  0.0000000  0.6508444  3
   1594   1606   1612   2928     1  0.0000000  0.6508444  3
   1597   1590   1591   1603     1  0.0000000  0.6508444  3
   1597   1590   1594   1606     1  0.0000000  0.6508444  3
   1597   1600   1609   1618     1  0.0000000  0.6508444  3
   1603   1615   2951   2947     1  180.0000771  0.4184000  2
   1603   1615   2951   2947     1  0.0000000  1.6024720  3
   1606   1612   2928   2924     1  180.0000771  0.4184000  2
   1606   1612   2928   2924     1  0.0000000  1.6024720  3
   1612   2928   2924   2923     1  180.0000771  0.4184000  2
   1612   2928   2924   2923     1  0.0000000  1.6024720  3
   1612   2928   2924   2940     1  180.0000771  5.6484000  1
   1612   2928   2924   2940     1  180.0000771  3.5564000  2
   1612   2928   2924   2940     1  0.0000000  0.4184000  3
   1615   2951   2947   2963     1  180.0000771  5.6484000  1
   1615   2951   2947   2963     1  180.0000771  3.5564000  2
   1615   2951   2947   2963     1  0.0000000  0.4184000  3
   1615   2951   2947   2946     1  180.0000771  0.4184000  2
   1615   2951   2947   2946     1  0.0000000  1.6024720  3
   1620   1621   1633   1645     1  0.0000000  0.6508444  3
   1620   1624   1636   1642     1  0.0000000  0.6508444  3
   1620   1627   1630   1639     1  0.0000000  0.6508444  3
   1621   1620   1624   1636     1  0.0000000  0.6508444  3
   1621   1620   1627   1630     1  0.0000000  0.6508444  3
   1621   1633   1645   2997     1  0.0000000  0.6508444  3
   1624   1620   1621   1633     1  0.0000000  0.6508444  3
   1624   1620   1627   1630     1  0.0000000  0.6508444  3
   1624   1636   1642   2974     1  0.0000000  0.6508444  3
   1627   1620   1621   1633     1  0.0000000  0.6508444  3
   1627   1620   1624   1636     1  0.0000000  0.6508444  3
   1627   1630   1639   1648     1  0.0000000  0.6508444  3
   1633   1645   2997   2993     1  180.0000771  0.4184000  2
   1633   1645   2997   2993     1  0.0000000  1.6024720  3
   1636   1642   2974   2970     1  180.0000771  0.4184000  2
   1636   1642   2974   2970     1  0.0000000  1.6024720  3
   1642   2974   2970   2969     1  180.0000771  0.4184000  2
   1642   2974   2970   2969     1  0.0000000  1.6024720  3
   1642   2974   2970   2986     1  180.0000771  5.6484000  1
   1642   2974   2970   2986     1  180.0000771  3.5564000  2
   1642   2974   2970   2986     1  0.0000000  0.4184000  3
   1645   2997   2993   3009     1  180.0000771  5.6484000  1
   1645   2997   2993   3009     1  180.0000771  3.5564000  2
   1645   2997   2993   3009     1  0.0000000  0.4184000  3
   1645   2997   2993   2992     1  180.0000771  0.4184000  2
   1645   2997   2993   2992     1  0.0000000  1.6024720  3
   1650   1651   1663   1675     1  0.0000000  0.6508444  3
   1650   1654   1666   1672     1  0.0000000  0.6508444  3
   1650   1657   1660   1669     1  0.0000000  0.6508444  3
   1651   1650   1654   1666     1  0.0000000  0.6508444  3
   1651   1650   1657   1660     1  0.0000000  0.6508444  3
   1651   1663   1675   3043     1  0.0000000  0.6508444  3
   1654   1650   1651   1663     1  0.0000000  0.6508444  3
   1654   1650   1657   1660     1  0.0000000  0.6508444  3
   1654   1666   1672   3020     1  0.0000000  0.6508444  3
   1657   1650   1651   1663     1  0.0000000  0.6508444  3
   1657   1650   1654   1666     1  0.0000000  0.6508444  3
   1657   1660   1669   1678     1  0.0000000  0.6508444  3
   1663   1675   3043   3039     1  180.0000771  0.4184000  2
   1663   1675   3043   3039     1  0.0000000  1.6024720  3
   1666   1672   3020   3016     1  180.0000771  0.4184000  2
   1666   1672   3020   3016     1  0.0000000  1.6024720  3
   1672   3020   3016   3015     1  180.0000771  0.4184000  2
   1672   3020   3016   3015     1  0.0000000  1.6024720  3
   1672   3020   3016   3032     1  180.0000771  5.6484000  1
   1672   3020   3016   3032     1  180.0000771  3.5564000  2
   1672   3020   3016   3032     1  0.0000000  0.4184000  3
   1675   3043   3039   3055     1  180.0000771  5.6484000  1
   1675   3043   3039   3055     1  180.0000771  3.5564000  2
   1675   3043   3039   3055     1  0.0000000  0.4184000  3
   1675   3043   3039   3038     1  180.0000771  0.4184000  2
   1675   3043   3039   3038     1  0.0000000  1.6024720  3
   1680   1681   1693   1705     1  0.0000000  0.6508444  3
   1680   1684   1696   1702     1  0.0000000  0.6508444  3
   1680   1687   1690   1699     1  0.0000000  0.6508444  3
   1681   1680   1684   1696     1  0.0000000  0.6508444  3
   1681   1680   1687   1690     1  0.0000000  0.6508444  3
   1681   1693   1705   3089     1  0.0000000  0.6508444  3
   1684   1680   1681   1693     1  0.0000000  0.6508444  3
   1684   1680   1687   1690     1  0.0000000  0.6508444  3
   1684   1696   1702   3066     1  0.0000000  0.6508444  3
   1687   1680   1681   1693     1  0.0000000  0.6508444  3
   1687   1680   1684   1696     1  0.0000000  0.6508444  3
   1687   1690   1699   1708     1  0.0000000  0.6508444  3
   1693   1705   3089   3085     1  180.0000771  0.4184000  2
   1693   1705   3089   3085     1  0.0000000  1.6024720  3
   1696   1702   3066   3062     1  180.0000771  0.4184000  2
   1696   1702   3066   3062     1  0.0000000  1.6024720  3
   1702   3066   3062   3061     1  180.0000771  0.4184000  2
   1702   3066   3062   3061     1  0.0000000  1.6024720  3
   1702   3066   3062   3078     1  180.0000771  5.6484000  1
   1702   3066   3062   3078     1  180.0000771  3.5564000  2
   1702   3066   3062   3078     1  0.0000000  0.4184000  3
   1705   3089   3085   3101     1  180.0000771  5.6484000  1
   1705   3089   3085   3101     1  180.0000771  3.5564000  2
   1705   3089   3085   3101     1  0.0000000  0.4184000  3
   1705   3089   3085   3084     1  180.0000771  0.4184000  2
   1705   3089   3085   3084     1  0.0000000  1.6024720  3
   1710   1711   1723   1735     1  0.0000000  0.6508444  3
   1710   1714   1726   1732     1  0.0000000  0.6508444  3
   1710   1717   1720   1729     1  0.0000000  0.6508444  3
   1711   1710   1714   1726     1  0.0000000  0.6508444  3
   1711   1710   1717   1720     1  0.0000000  0.6508444  3
   1711   1723   1735   3135     1  0.0000000  0.6508444  3
   1714   1710   1711   1723     1  0.0000000  0.6508444  3
   1714   1710   1717   1720     1  0.0000000  0.6508444  3
   1714   1726   1732   3112     1  0.0000000  0.6508444  3
   1717   1710   1711   1723     1  0.0000000  0.6508444  3
   1717   1710   1714   1726     1  0.0000000  0.6508444  3
   1717   1720   1729   1738     1  0.0000000  0.6508444  3
   1723   1735   3135   3131     1  180.0000771  0.4184000  2
   1723   1735   3135   3131     1  0.0000000  1.6024720  3
   1726   1732   3112   3108     1  180.0000771  0.4184000  2
   1726   1732   3112   3108     1  0.0000000  1.6024720  3
   1732   3112   3108   3107     1  180.0000771  0.4184000  2
   1732   3112   3108   3107     1  0.0000000  1.6024720  3
   1732   3112   3108   3124     1  180.0000771  5.6484000  1
   1732   3112   3108   3124     1  180.0000771  3.5564000  2
   1732   3112   3108   3124     1  0.0000000  0.4184000  3
   1735   3135   3131   3147     1  180.0000771  5.6484000  1
   1735   3135   3131   3147     1  180.0000771  3.5564000  2
   1735   3135   3131   3147     1  0.0000000  0.4184000  3
   1735   3135   3131   3130     1  180.0000771  0.4184000  2
   1735   3135   3131   3130     1  0.0000000  1.6024720  3
   1740   1741   1753   1765     1  0.0000000  0.6508444  3
   1740   1744   1756   1762     1  0.0000000  0.6508444  3
   1740   1747   1750   1759     1  0.0000000  0.6508444  3
   1741   1740   1744   1756     1  0.0000000  0.6508444  3
   1741   1740   1747   1750     1  0.0000000  0.6508444  3
   1741   1753   1765   3181     1  0.0000000  0.6508444  3
   1744   1740   1741   1753     1  0.0000000  0.6508444  3
   1744   1740   1747   1750     1  0.0000000  0.6508444  3
   1744   1756   1762   3158     1  0.0000000  0.6508444  3
   1747   1740   1741   1753     1  0.0000000  0.6508444  3
   1747   1740   1744   1756     1  0.0000000  0.6508444  3
   1747   1750   1759   1768     1  0.0000000  0.6508444  3
   1753   1765   3181   3177     1  180.0000771  0.4184000  2
   1753   1765   3181   3177     1  0.0000000  1.6024720  3
   1756   1762   3158   3154     1  180.0000771  0.4184000  2
   1756   1762   3158   3154     1  0.0000000  1.6024720  3
   1762   3158   3154   3153     1  180.0000771  0.4184000  2
   1762   3158   3154   3153     1  0.0000000  1.6024720  3
   1762   3158   3154   3170     1  180.0000771  5.6484000  1
   1762   3158   3154   3170     1  180.0000771  3.5564000  2
   1762   3158   3154   3170     1  0.0000000  0.4184000  3
   1765   3181   3177   3193     1  180.0000771  5.6484000  1
   1765   3181   3177   3193     1  180.0000771  3.5564000  2
   1765   3181   3177   3193     1  0.0000000  0.4184000  3
   1765   3181   3177   3176     1  180.0000771  0.4184000  2
   1765   3181   3177   3176     1  0.0000000  1.6024720  3
   1770   1771   1783   1795     1  0.0000000  0.6508444  3
   1770   1774   1786   1792     1  0.0000000  0.6508444  3
   1770   1777   1780   1789     1  0.0000000  0.6508444  3
   1771   1770   1774   1786     1  0.0000000  0.6508444  3
   1771   1770   1777   1780     1  0.0000000  0.6508444  3
   1771   1783   1795   3227     1  0.0000000  0.6508444  3
   1774   1770   1771   1783     1  0.0000000  0.6508444  3
   1774   1770   1777   1780     1  0.0000000  0.6508444  3
   1774   1786   1792   3204     1  0.0000000  0.6508444  3
   1777   1770   1771   1783     1  0.0000000  0.6508444  3
   1777   1770   1774   1786     1  0.0000000  0.6508444  3
   1777   1780   1789   1798     1  0.0000000  0.6508444  3
   1783   1795   3227   3223     1  180.0000771  0.4184000  2
   1783   1795   3227   3223     1  0.0000000  1.6024720  3
   1786   1792   3204   3200     1  180.0000771  0.4184000  2
   1786   1792   3204   3200     1  0.0000000  1.6024720  3
   1792   3204   3200   3199     1  180.0000771  0.4184000  2
   1792   3204   3200   3199     1  0.0000000  1.6024720  3
   1792   3204   3200   3216     1  180.0000771  5.6484000  1
   1792   3204   3200   3216     1  180.0000771  3.5564000  2
   1792   3204   3200   3216     1  0.0000000  0.4184000  3
   1795   3227   3223   3239     1  180.0000771  5.6484000  1
   1795   3227   3223   3239     1  180.0000771  3.5564000  2
   1795   3227   3223   3239     1  0.0000000  0.4184000  3
   1795   3227   3223   3222     1  180.0000771  0.4184000  2
   1795   3227   3223   3222     1  0.0000000  1.6024720  3
   1800   1801   1813   1825     1  0.0000000  0.6508444  3
   1800   1804   1816   1822     1  0.0000000  0.6508444  3
   1800   1807   1810   1819     1  0.0000000  0.6508444  3
   1801   1800   1804   1816     1  0.0000000  0.6508444  3
   1801   1800   1807   1810     1  0.0000000  0.6508444  3
   1801   1813   1825   3273     1  0.0000000  0.6508444  3
   1804   1800   1801   1813     1  0.0000000  0.6508444  3
   1804   1800   1807   1810     1  0.0000000  0.6508444  3
   1804   1816   1822   3250     1  0.0000000  0.6508444  3
   1807   1800   1801   1813     1  0.0000000  0.6508444  3
   1807   1800   1804   1816     1  0.0000000  0.6508444  3
   1807   1810   1819   1828     1  0.0000000  0.6508444  3
   1813   1825   3273   3269     1  180.0000771  0.4184000  2
   1813   1825   3273   3269     1  0.0000000  1.6024720  3
   1816   1822   3250   3246     1  180.0000771  0.4184000  2
   1816   1822   3250   3246     1  0.0000000  1.6024720  3
   1822   3250   3246   3245     1  180.0000771  0.4184000  2
   1822   3250   3246   3245     1  0.0000000  1.6024720  3
   1822   3250   3246   3262     1  180.0000771  5.6484000  1
   1822   3250   3246   3262     1  180.0000771  3.5564000  2
   1822   3250   3246   3262     1  0.0000000  0.4184000  3
   1825   3273   3269   3285     1  180.0000771  5.6484000  1
   1825   3273   3269   3285     1  180.0000771  3.5564000  2
   1825   3273   3269   3285     1  0.0000000  0.4184000  3
   1825   3273   3269   3268     1  180.0000771  0.4184000  2
   1825   3273   3269   3268     1  0.0000000  1.6024720  3
   1830   1831   1843   1855     1  0.0000000  0.6508444  3
   1830   1834   1846   1852     1  0.0000000  0.6508444  3
   1830   1837   1840   1849     1  0.0000000  0.6508444  3
   1831   1830   1834   1846     1  0.0000000  0.6508444  3
   1831   1830   1837   1840     1  0.0000000  0.6508444  3
   1831   1843   1855   3319     1  0.0000000  0.6508444  3
   1834   1830   1831   1843     1  0.0000000  0.6508444  3
   1834   1830   1837   1840     1  0.0000000  0.6508444  3
   1834   1846   1852   3296     1  0.0000000  0.6508444  3
   1837   1830   1831   1843     1  0.0000000  0.6508444  3
   1837   1830   1834   1846     1  0.0000000  0.6508444  3
   1837   1840   1849   1858     1  0.0000000  0.6508444  3
   1843   1855   3319   3315     1  180.0000771  0.4184000  2
   1843   1855   3319   3315     1  0.0000000  1.6024720  3
   1846   1852   3296   3292     1  180.0000771  0.4184000  2
   1846   1852   3296   3292     1  0.0000000  1.6024720  3
   1852   3296   3292   3291     1  180.0000771  0.4184000  2
   1852   3296   3292   3291     1  0.0000000  1.6024720  3
   1852   3296   3292   3308     1  180.0000771  5.6484000  1
   1852   3296   3292   3308     1  180.0000771  3.5564000  2
   1852   3296   3292   3308     1  0.0000000  0.4184000  3
   1855   3319   3315   3331     1  180.0000771  5.6484000  1
   1855   3319   3315   3331     1  180.0000771  3.5564000  2
   1855   3319   3315   3331     1  0.0000000  0.4184000  3
   1855   3319   3315   3314     1  180.0000771  0.4184000  2
   1855   3319   3315   3314     1  0.0000000  1.6024720  3
   1860   1861   1864   1865     1  180.0000771  0.8368000  1
   1860   1861   1864   1865     1  180.0000771  1.0460000  2
   1860   1861   1864   1865     1  0.0000000  0.7531200  3
   1860   1861   1864   1872     1  0.0000000  0.6508444  3
   1860   1882   1866   1865     1  180.0000771  0.4184000  2
   1860   1882   1866   1865     1  0.0000000  1.6024720  3
   1860   1882   1866   1870     1  180.0000771  5.6484000  1
   1860   1882   1866   1870     1  180.0000771  3.5564000  2
   1860   1882   1866   1870     1  0.0000000  0.4184000  3
   1861   1860   1874   1880     1  0.0000000  0.6508444  3
   1861   1860   1882   1866     1  180.0000771  0.4184000  2
   1861   1860   1882   1866     1  0.0000000  1.6024720  3
   1861   1864   1865   1866     1  180.0000771  0.8368000  1
   1861   1864   1865   1866     1  180.0000771  1.0460000  2
   1861   1864   1865   1866     1  0.0000000  0.7531200  3
   1861   1864   1865   1871     1  0.0000000  0.6508444  3
   1864   1861   1860   1874     1  180.0000771  0.8368000  1
   1864   1861   1860   1874     1  180.0000771  1.0460000  2
   1864   1861   1860   1874     1  0.0000000  0.7531200  3
   1864   1861   1860   1882     1  0.0000000  0.6508444  3
   1864   1865   1866   1870     1  0.0000000  0.6508444  3
   1864   1865   1866   1882     1  0.0000000  0.6508444  3
   1865   1864   1861   1873     1  0.0000000  0.6508444  3
   1866   1865   1864   1872     1  0.0000000  0.6508444  3
   1866   1882   1860   1874     1  180.0000771  0.4184000  2
   1866   1882   1860   1874     1  0.0000000  1.6024720  3
   1870   1866   1865   1871     1  0.0000000  4.9162000  2
   1870   1866   1865   1871     1  0.0000000  0.6024960  3
   1871   1865   1864   1872     1  0.0000000  4.9162000  2
   1871   1865   1864   1872     1  0.0000000  0.6024960  3
   1871   1865   1866   1882     1  0.0000000  4.9162000  2
   1871   1865   1866   1882     1  0.0000000  0.6024960  3
   1872   1864   1861   1873     1  0.0000000  4.9162000  2
   1872   1864   1861   1873     1  0.0000000  0.6024960  3
   1873   1861   1860   1874     1  0.0000000  0.6508444  3
   1873   1861   1860   1882     1  0.0000000  4.9162000  2
   1873   1861   1860   1882     1  0.0000000  0.6024960  3
   1880   1874   1860   1882     1  0.0000000  4.9162000  2
   1880   1874   1860   1882     1  0.0000000  0.6024960  3
   1883   1884   1887   1888     1  180.0000771  0.8368000  1
   1883   1884   1887   1888     1  180.0000771  1.0460000  2
   1883   1884   1887   1888     1  0.0000000  0.7531200  3
   1883   1884   1887   1895     1  0.0000000  0.6508444  3
   1883   1905   1889   1893     1  180.0000771  5.6484000  1
   1883   1905   1889   1893     1  180.0000771  3.5564000  2
   1883   1905   1889   1893     1  0.0000000  0.4184000  3
   1883   1905   1889   1888     1  180.0000771  0.4184000  2
   1883   1905   1889   1888     1  0.0000000  1.6024720  3
   1884   1887   1888   1889     1  180.0000771  0.8368000  1
   1884   1887   1888   1889     1  180.0000771  1.0460000  2
   1884   1887   1888   1889     1  0.0000000  0.7531200  3
   1884   1887   1888   1894     1  0.0000000  0.6508444  3
   1884   1883   1897   1903     1  0.0000000  0.6508444  3
   1884   1883   1905   1889     1  180.0000771  0.4184000  2
   1884   1883   1905   1889     1  0.0000000  1.6024720  3
   1887   1888   1889   1893     1  0.0000000  0.6508444  3
   1887   1888   1889   1905     1  0.0000000  0.6508444  3
   1887   1884   1883   1897     1  180.0000771  0.8368000  1
   1887   1884   1883   1897     1  180.0000771  1.0460000  2
   1887   1884   1883   1897     1  0.0000000  0.7531200  3
   1887   1884   1883   1905     1  0.0000000  0.6508444  3
   1888   1887   1884   1896     1  0.0000000  0.6508444  3
   1889   1905   1883   1897     1  180.0000771  0.4184000  2
   1889   1905   1883   1897     1  0.0000000  1.6024720  3
   1889   1888   1887   1895     1  0.0000000  0.6508444  3
   1893   1889   1888   1894     1  0.0000000  4.9162000  2
   1893   1889   1888   1894     1  0.0000000  0.6024960  3
   1894   1888   1889   1905     1  0.0000000  4.9162000  2
   1894   1888   1889   1905     1  0.0000000  0.6024960  3
   1894   1888   1887   1895     1  0.0000000  4.9162000  2
   1894   1888   1887   1895     1  0.0000000  0.6024960  3
   1895   1887   1884   1896     1  0.0000000  4.9162000  2
   1895   1887   1884   1896     1  0.0000000  0.6024960  3
   1896   1884   1883   1897     1  0.0000000  0.6508444  3
   1896   1884   1883   1905     1  0.0000000  4.9162000  2
   1896   1884   1883   1905     1  0.0000000  0.6024960  3
   1903   1897   1883   1905     1  0.0000000  4.9162000  2
   1903   1897   1883   1905     1  0.0000000  0.6024960  3
   1906   1907   1910   1911     1  180.0000771  0.8368000  1
   1906   1907   1910   1911     1  180.0000771  1.0460000  2
   1906   1907   1910   1911     1  0.0000000  0.7531200  3
   1906   1907   1910   1918     1  0.0000000  0.6508444  3
   1906   1928   1912   1911     1  180.0000771  0.4184000  2
   1906   1928   1912   1911     1  0.0000000  1.6024720  3
   1906   1928   1912   1916     1  180.0000771  5.6484000  1
   1906   1928   1912   1916     1  180.0000771  3.5564000  2
   1906   1928   1912   1916     1  0.0000000  0.4184000  3
   1907   1906   1920   1926     1  0.0000000  0.6508444  3
   1907   1906   1928   1912     1  180.0000771  0.4184000  2
   1907   1906   1928   1912     1  0.0000000  1.6024720  3
   1907   1910   1911   1912     1  180.0000771  0.8368000  1
   1907   1910   1911   1912     1  180.0000771  1.0460000  2
   1907   1910   1911   1912     1  0.0000000  0.7531200  3
   1907   1910   1911   1917     1  0.0000000  0.6508444  3
   1910   1907   1906   1920     1  180.0000771  0.8368000  1
   1910   1907   1906   1920     1  180.0000771  1.0460000  2
   1910   1907   1906   1920     1  0.0000000  0.7531200  3
   1910   1907   1906   1928     1  0.0000000  0.6508444  3
   1910   1911   1912   1916     1  0.0000000  0.6508444  3
   1910   1911   1912   1928     1  0.0000000  0.6508444  3
   1911   1910   1907   1919     1  0.0000000  0.6508444  3
   1912   1911   1910   1918     1  0.0000000  0.6508444  3
   1912   1928   1906   1920     1  180.0000771  0.4184000  2
   1912   1928   1906   1920     1  0.0000000  1.6024720  3
   1916   1912   1911   1917     1  0.0000000  4.9162000  2
   1916   1912   1911   1917     1  0.0000000  0.6024960  3
   1917   1911   1910   1918     1  0.0000000  4.9162000  2
   1917   1911   1910   1918     1  0.0000000  0.6024960  3
   1917   1911   1912   1928     1  0.0000000  4.9162000  2
   1917   1911   1912   1928     1  0.0000000  0.6024960  3
   1918   1910   1907   1919     1  0.0000000  4.9162000  2
   1918   1910   1907   1919     1  0.0000000  0.6024960  3
   1919   1907   1906   1920     1  0.0000000  0.6508444  3
   1919   1907   1906   1928     1  0.0000000  4.9162000  2
   1919   1907   1906   1928     1  0.0000000  0.6024960  3
   1926   1920   1906   1928     1  0.0000000  4.9162000  2
   1926   1920   1906   1928     1  0.0000000  0.6024960  3
   1929   1930   1933   1934     1  180.0000771  0.8368000  1
   1929   1930   1933   1934     1  180.0000771  1.0460000  2
   1929   1930   1933   1934     1  0.0000000  0.7531200  3
   1929   1930   1933   1941     1  0.0000000  0.6508444  3
   1929   1951   1935   1939     1  180.0000771  5.6484000  1
   1929   1951   1935   1939     1  180.0000771  3.5564000  2
   1929   1951   1935   1939     1  0.0000000  0.4184000  3
   1929   1951   1935   1934     1  180.0000771  0.4184000  2
   1929   1951   1935   1934     1  0.0000000  1.6024720  3
   1930   1933   1934   1935     1  180.0000771  0.8368000  1
   1930   1933   1934   1935     1  180.0000771  1.0460000  2
   1930   1933   1934   1935     1  0.0000000  0.7531200  3
   1930   1933   1934   1940     1  0.0000000  0.6508444  3
   1930   1929   1943   1949     1  0.0000000  0.6508444  3
   1930   1929   1951   1935     1  180.0000771  0.4184000  2
   1930   1929   1951   1935     1  0.0000000  1.6024720  3
   1933   1934   1935   1939     1  0.0000000  0.6508444  3
   1933   1934   1935   1951     1  0.0000000  0.6508444  3
   1933   1930   1929   1943     1  180.0000771  0.8368000  1
   1933   1930   1929   1943     1  180.0000771  1.0460000  2
   1933   1930   1929   1943     1  0.0000000  0.7531200  3
   1933   1930   1929   1951     1  0.0000000  0.6508444  3
   1934   1933   1930   1942     1  0.0000000  0.6508444  3
   1935   1951   1929   1943     1  180.0000771  0.4184000  2
   1935   1951   1929   1943     1  0.0000000  1.6024720  3
   1935   1934   1933   1941     1  0.0000000  0.6508444  3
   1939   1935   1934   1940     1  0.0000000  4.9162000  2
   1939   1935   1934   1940     1  0.0000000  0.6024960  3
   1940   1934   1935   1951     1  0.0000000  4.9162000  2
   1940   1934   1935   1951     1  0.0000000  0.6024960  3
   1940   1934   1933   1941     1  0.0000000  4.9162000  2
   1940   1934   1933   1941     1  0.0000000  0.6024960  3
   1941   1933   1930   1942     1  0.0000000  4.9162000  2
   1941   1933   1930   1942     1  0.0000000  0.6024960  3
   1942   1930   1929   1943     1  0.0000000  0.6508444  3
   1942   1930   1929   1951     1  0.0000000  4.9162000  2
   1942   1930   1929   1951     1  0.0000000  0.6024960  3
   1949   1943   1929   1951     1  0.0000000  4.9162000  2
   1949   1943   1929   1951     1  0.0000000  0.6024960  3
   1952   1953   1956   1957     1  180.0000771  0.8368000  1
   1952   1953   1956   1957     1  180.0000771  1.0460000  2
   1952   1953   1956   1957     1  0.0000000  0.7531200  3
   1952   1953   1956   1964     1  0.0000000  0.6508444  3
   1952   1974   1958   1957     1  180.0000771  0.4184000  2
   1952   1974   1958   1957     1  0.0000000  1.6024720  3
   1952   1974   1958   1962     1  180.0000771  5.6484000  1
   1952   1974   1958   1962     1  180.0000771  3.5564000  2
   1952   1974   1958   1962     1  0.0000000  0.4184000  3
   1953   1952   1966   1972     1  0.0000000  0.6508444  3
   1953   1952   1974   1958     1  180.0000771  0.4184000  2
   1953   1952   1974   1958     1  0.0000000  1.6024720  3
   1953   1956   1957   1958     1  180.0000771  0.8368000  1
   1953   1956   1957   1958     1  180.0000771  1.0460000  2
   1953   1956   1957   1958     1  0.0000000  0.7531200  3
   1953   1956   1957   1963     1  0.0000000  0.6508444  3
   1956   1953   1952   1966     1  180.0000771  0.8368000  1
   1956   1953   1952   1966     1  180.0000771  1.0460000  2
   1956   1953   1952   1966     1  0.0000000  0.7531200  3
   1956   1953   1952   1974     1  0.0000000  0.6508444  3
   1956   1957   1958   1962     1  0.0000000  0.6508444  3
   1956   1957   1958   1974     1  0.0000000  0.6508444  3
   1957   1956   1953   1965     1  0.0000000  0.6508444  3
   1958   1957   1956   1964     1  0.0000000  0.6508444  3
   1958   1974   1952   1966     1  180.0000771  0.4184000  2
   1958   1974   1952   1966     1  0.0000000  1.6024720  3
   1962   1958   1957   1963     1  0.0000000  4.9162000  2
   1962   1958   1957   1963     1  0.0000000  0.6024960  3
   1963   1957   1956   1964     1  0.0000000  4.9162000  2
   1963   1957   1956   1964     1  0.0000000  0.6024960  3
   1963   1957   1958   1974     1  0.0000000  4.9162000  2
   1963   1957   1958   1974     1  0.0000000  0.6024960  3
   1964   1956   1953   1965     1  0.0000000  4.9162000  2
   1964   1956   1953   1965     1  0.0000000  0.6024960  3
   1965   1953   1952   1966     1  0.0000000  0.6508444  3
   1965   1953   1952   1974     1  0.0000000  4.9162000  2
   1965   1953   1952   1974     1  0.0000000  0.6024960  3
   1972   1966   1952   1974     1  0.0000000  4.9162000  2
   1972   1966   1952   1974     1  0.0000000  0.6024960  3
   1975   1976   1979   1980     1  180.0000771  0.8368000  1
   1975   1976   1979   1980     1  180.0000771  1.0460000  2
   1975   1976   1979   1980     1  0.0000000  0.7531200  3
   1975   1976   1979   1987     1  0.0000000  0.6508444  3
   1975   1997   1981   1985     1  180.0000771  5.6484000  1
   1975   1997   1981   1985     1  180.0000771  3.5564000  2
   1975   1997   1981   1985     1  0.0000000  0.4184000  3
   1975   1997   1981   1980     1  180.0000771  0.4184000  2
   1975   1997   1981   1980     1  0.0000000  1.6024720  3
   1976   1979   1980   1981     1  180.0000771  0.8368000  1
   1976   1979   1980   1981     1  180.0000771  1.0460000  2
   1976   1979   1980   1981     1  0.0000000  0.7531200  3
   1976   1979   1980   1986     1  0.0000000  0.6508444  3
   1976   1975   1989   1995     1  0.0000000  0.6508444  3
   1976   1975   1997   1981     1  180.0000771  0.4184000  2
   1976   1975   1997   1981     1  0.0000000  1.6024720  3
   1979   1980   1981   1985     1  0.0000000  0.6508444  3
   1979   1980   1981   1997     1  0.0000000  0.6508444  3
   1979   1976   1975   1989     1  180.0000771  0.8368000  1
   1979   1976   1975   1989     1  180.0000771  1.0460000  2
   1979   1976   1975   1989     1  0.0000000  0.7531200  3
   1979   1976   1975   1997     1  0.0000000  0.6508444  3
   1980   1979   1976   1988     1  0.0000000  0.6508444  3
   1981   1997   1975   1989     1  180.0000771  0.4184000  2
   1981   1997   1975   1989     1  0.0000000  1.6024720  3
   1981   1980   1979   1987     1  0.0000000  0.6508444  3
   1985   1981   1980   1986     1  0.0000000  4.9162000  2
   1985   1981   1980   1986     1  0.0000000  0.6024960  3
   1986   1980   1981   1997     1  0.0000000  4.9162000  2
   1986   1980   1981   1997     1  0.0000000  0.6024960  3
   1986   1980   1979   1987     1  0.0000000  4.9162000  2
   1986   1980   1979   1987     1  0.0000000  0.6024960  3
   1987   1979   1976   1988     1  0.0000000  4.9162000  2
   1987   1979   1976   1988     1  0.0000000  0.6024960  3
   1988   1976   1975   1989     1  0.0000000  0.6508444  3
   1988   1976   1975   1997     1  0.0000000  4.9162000  2
   1988   1976   1975   1997     1  0.0000000  0.6024960  3
   1995   1989   1975   1997     1  0.0000000  4.9162000  2
   1995   1989   1975   1997     1  0.0000000  0.6024960  3
   1998   1999   2002   2003     1  180.0000771  0.8368000  1
   1998   1999   2002   2003     1  180.0000771  1.0460000  2
   1998   1999   2002   2003     1  0.0000000  0.7531200  3
   1998   1999   2002   2010     1  0.0000000  0.6508444  3
   1998   2020   2004   2003     1  180.0000771  0.4184000  2
   1998   2020   2004   2003     1  0.0000000  1.6024720  3
   1998   2020   2004   2008     1  180.0000771  5.6484000  1
   1998   2020   2004   2008     1  180.0000771  3.5564000  2
   1998   2020   2004   2008     1  0.0000000  0.4184000  3
   1999   1998   2012   2018     1  0.0000000  0.6508444  3
   1999   1998   2020   2004     1  180.0000771  0.4184000  2
   1999   1998   2020   2004     1  0.0000000  1.6024720  3
   1999   2002   2003   2004     1  180.0000771  0.8368000  1
   1999   2002   2003   2004     1  180.0000771  1.0460000  2
   1999   2002   2003   2004     1  0.0000000  0.7531200  3
   1999   2002   2003   2009     1  0.0000000  0.6508444  3
   2002   1999   1998   2012     1  180.0000771  0.8368000  1
   2002   1999   1998   2012     1  180.0000771  1.0460000  2
   2002   1999   1998   2012     1  0.0000000  0.7531200  3
   2002   1999   1998   2020     1  0.0000000  0.6508444  3
   2002   2003   2004   2008     1  0.0000000  0.6508444  3
   2002   2003   2004   2020     1  0.0000000  0.6508444  3
   2003   2002   1999   2011     1  0.0000000  0.6508444  3
   2004   2003   2002   2010     1  0.0000000  0.6508444  3
   2004   2020   1998   2012     1  180.0000771  0.4184000  2
   2004   2020   1998   2012     1  0.0000000  1.6024720  3
   2008   2004   2003   2009     1  0.0000000  4.9162000  2
   2008   2004   2003   2009     1  0.0000000  0.6024960  3
   2009   2003   2002   2010     1  0.0000000  4.9162000  2
   2009   2003   2002   2010     1  0.0000000  0.6024960  3
   2009   2003   2004   2020     1  0.0000000  4.9162000  2
   2009   2003   2004   2020     1  0.0000000  0.6024960  3
   2010   2002   1999   2011     1  0.0000000  4.9162000  2
   2010   2002   1999   2011     1  0.0000000  0.6024960  3
   2011   1999   1998   2012     1  0.0000000  0.6508444  3
   2011   1999   1998   2020     1  0.0000000  4.9162000  2
   2011   1999   1998   2020     1  0.0000000  0.6024960  3
   2018   2012   1998   2020     1  0.0000000  4.9162000  2
   2018   2012   1998   2020     1  0.0000000  0.6024960  3
   2021   2022   2025   2026     1  180.0000771  0.8368000  1
   2021   2022   2025   2026     1  180.0000771  1.0460000  2
   2021   2022   2025   2026     1  0.0000000  0.7531200  3
   2021   2022   2025   2033     1  0.0000000  0.6508444  3
   2021   2043   2027   2031     1  180.0000771  5.6484000  1
   2021   2043   2027   2031     1  180.0000771  3.5564000  2
   2021   2043   2027   2031     1  0.0000000  0.4184000  3
   2021   2043   2027   2026     1  180.0000771  0.4184000  2
   2021   2043   2027   2026     1  0.0000000  1.6024720  3
   2022   2025   2026   2027     1  180.0000771  0.8368000  1
   2022   2025   2026   2027     1  180.0000771  1.0460000  2
   2022   2025   2026   2027     1  0.0000000  0.7531200  3
   2022   2025   2026   2032     1  0.0000000  0.6508444  3
   2022   2021   2035   2041     1  0.0000000  0.6508444  3
   2022   2021   2043   2027     1  180.0000771  0.4184000  2
   2022   2021   2043   2027     1  0.0000000  1.6024720  3
   2025   2026   2027   2031     1  0.0000000  0.6508444  3
   2025   2026   2027   2043     1  0.0000000  0.6508444  3
   2025   2022   2021   2035     1  180.0000771  0.8368000  1
   2025   2022   2021   2035     1  180.0000771  1.0460000  2
   2025   2022   2021   2035     1  0.0000000  0.7531200  3
   2025   2022   2021   2043     1  0.0000000  0.6508444  3
   2026   2025   2022   2034     1  0.0000000  0.6508444  3
   2027   2043   2021   2035     1  180.0000771  0.4184000  2
   2027   2043   2021   2035     1  0.0000000  1.6024720  3
   2027   2026   2025   2033     1  0.0000000  0.6508444  3
   2031   2027   2026   2032     1  0.0000000  4.9162000  2
   2031   2027   2026   2032     1  0.0000000  0.6024960  3
   2032   2026   2027   2043     1  0.0000000  4.9162000  2
   2032   2026   2027   2043     1  0.0000000  0.6024960  3
   2032   2026   2025   2033     1  0.0000000  4.9162000  2
   2032   2026   2025   2033     1  0.0000000  0.6024960  3
   2033   2025   2022   2034     1  0.0000000  4.9162000  2
   2033   2025   2022   2034     1  0.0000000  0.6024960  3
   2034   2022   2021   2035     1  0.0000000  0.6508444  3
   2034   2022   2021   2043     1  0.0000000  4.9162000  2
   2034   2022   2021   2043     1  0.0000000  0.6024960  3
   2041   2035   2021   2043     1  0.0000000  4.9162000  2
   2041   2035   2021   2043     1  0.0000000  0.6024960  3
   2044   2045   2048   2049     1  180.0000771  0.8368000  1
   2044   2045   2048   2049     1  180.0000771  1.0460000  2
   2044   2045   2048   2049     1  0.0000000  0.7531200  3
   2044   2045   2048   2056     1  0.0000000  0.6508444  3
   2044   2066   2050   2049     1  180.0000771  0.4184000  2
   2044   2066   2050   2049     1  0.0000000  1.6024720  3
   2044   2066   2050   2054     1  180.0000771  5.6484000  1
   2044   2066   2050   2054     1  180.0000771  3.5564000  2
   2044   2066   2050   2054     1  0.0000000  0.4184000  3
   2045   2044   2058   2064     1  0.0000000  0.6508444  3
   2045   2044   2066   2050     1  180.0000771  0.4184000  2
   2045   2044   2066   2050     1  0.0000000  1.6024720  3
   2045   2048   2049   2050     1  180.0000771  0.8368000  1
   2045   2048   2049   2050     1  180.0000771  1.0460000  2
   2045   2048   2049   2050     1  0.0000000  0.7531200  3
   2045   2048   2049   2055     1  0.0000000  0.6508444  3
   2048   2045   2044   2058     1  180.0000771  0.8368000  1
   2048   2045   2044   2058     1  180.0000771  1.0460000  2
   2048   2045   2044   2058     1  0.0000000  0.7531200  3
   2048   2045   2044   2066     1  0.0000000  0.6508444  3
   2048   2049   2050   2054     1  0.0000000  0.6508444  3
   2048   2049   2050   2066     1  0.0000000  0.6508444  3
   2049   2048   2045   2057     1  0.0000000  0.6508444  3
   2050   2049   2048   2056     1  0.0000000  0.6508444  3
   2050   2066   2044   2058     1  180.0000771  0.4184000  2
   2050   2066   2044   2058     1  0.0000000  1.6024720  3
   2054   2050   2049   2055     1  0.0000000  4.9162000  2
   2054   2050   2049   2055     1  0.0000000  0.6024960  3
   2055   2049   2048   2056     1  0.0000000  4.9162000  2
   2055   2049   2048   2056     1  0.0000000  0.6024960  3
   2055   2049   2050   2066     1  0.0000000  4.9162000  2
   2055   2049   2050   2066     1  0.0000000  0.6024960  3
   2056   2048   2045   2057     1  0.0000000  4.9162000  2
   2056   2048   2045   2057     1  0.0000000  0.6024960  3
   2057   2045   2044   2058     1  0.0000000  0.6508444  3
   2057   2045   2044   2066     1  0.0000000  4.9162000  2
   2057   2045   2044   2066     1  0.0000000  0.6024960  3
   2064   2058   2044   2066     1  0.0000000  4.9162000  2
   2064   2058   2044   2066     1  0.0000000  0.6024960  3
   2067   2068   2071   2072     1  180.0000771  0.8368000  1
   2067   2068   2071   2072     1  180.0000771  1.0460000  2
   2067   2068   2071   2072     1  0.0000000  0.7531200  3
   2067   2068   2071   2079     1  0.0000000  0.6508444  3
   2067   2089   2073   2077     1  180.0000771  5.6484000  1
   2067   2089   2073   2077     1  180.0000771  3.5564000  2
   2067   2089   2073   2077     1  0.0000000  0.4184000  3
   2067   2089   2073   2072     1  180.0000771  0.4184000  2
   2067   2089   2073   2072     1  0.0000000  1.6024720  3
   2068   2071   2072   2073     1  180.0000771  0.8368000  1
   2068   2071   2072   2073     1  180.0000771  1.0460000  2
   2068   2071   2072   2073     1  0.0000000  0.7531200  3
   2068   2071   2072   2078     1  0.0000000  0.6508444  3
   2068   2067   2081   2087     1  0.0000000  0.6508444  3
   2068   2067   2089   2073     1  180.0000771  0.4184000  2
   2068   2067   2089   2073     1  0.0000000  1.6024720  3
   2071   2072   2073   2077     1  0.0000000  0.6508444  3
   2071   2072   2073   2089     1  0.0000000  0.6508444  3
   2071   2068   2067   2081     1  180.0000771  0.8368000  1
   2071   2068   2067   2081     1  180.0000771  1.0460000  2
   2071   2068   2067   2081     1  0.0000000  0.7531200  3
   2071   2068   2067   2089     1  0.0000000  0.6508444  3
   2072   2071   2068   2080     1  0.0000000  0.6508444  3
   2073   2089   2067   2081     1  180.0000771  0.4184000  2
   2073   2089   2067   2081     1  0.0000000  1.6024720  3
   2073   2072   2071   2079     1  0.0000000  0.6508444  3
   2077   2073   2072   2078     1  0.0000000  4.9162000  2
   2077   2073   2072   2078     1  0.0000000  0.6024960  3
   2078   2072   2073   2089     1  0.0000000  4.9162000  2
   2078   2072   2073   2089     1  0.0000000  0.6024960  3
   2078   2072   2071   2079     1  0.0000000  4.9162000  2
   2078   2072   2071   2079     1  0.0000000  0.6024960  3
   2079   2071   2068   2080     1  0.0000000  4.9162000  2
   2079   2071   2068   2080     1  0.0000000  0.6024960  3
   2080   2068   2067   2081     1  0.0000000  0.6508444  3
   2080   2068   2067   2089     1  0.0000000  4.9162000  2
   2080   2068   2067   2089     1  0.0000000  0.6024960  3
   2087   2081   2067   2089     1  0.0000000  4.9162000  2
   2087   2081   2067   2089     1  0.0000000  0.6024960  3
   2090   2091   2094   2095     1  180.0000771  0.8368000  1
   2090   2091   2094   2095     1  180.0000771  1.0460000  2
   2090   2091   2094   2095     1  0.0000000  0.7531200  3
   2090   2091   2094   2102     1  0.0000000  0.6508444  3
   2090   2112   2096   2095     1  180.0000771  0.4184000  2
   2090   2112   2096   2095     1  0.0000000  1.6024720  3
   2090   2112   2096   2100     1  180.0000771  5.6484000  1
   2090   2112   2096   2100     1  180.0000771  3.5564000  2
   2090   2112   2096   2100     1  0.0000000  0.4184000  3
   2091   2090   2104   2110     1  0.0000000  0.6508444  3
   2091   2090   2112   2096     1  180.0000771  0.4184000  2
   2091   2090   2112   2096     1  0.0000000  1.6024720  3
   2091   2094   2095   2096     1  180.0000771  0.8368000  1
   2091   2094   2095   2096     1  180.0000771  1.0460000  2
   2091   2094   2095   2096     1  0.0000000  0.7531200  3
   2091   2094   2095   2101     1  0.0000000  0.6508444  3
   2094   2091   2090   2104     1  180.0000771  0.8368000  1
   2094   2091   2090   2104     1  180.0000771  1.0460000  2
   2094   2091   2090   2104     1  0.0000000  0.7531200  3
   2094   2091   2090   2112     1  0.0000000  0.6508444  3
   2094   2095   2096   2100     1  0.0000000  0.6508444  3
   2094   2095   2096   2112     1  0.0000000  0.6508444  3
   2095   2094   2091   2103     1  0.0000000  0.6508444  3
   2096   2095   2094   2102     1  0.0000000  0.6508444  3
   2096   2112   2090   2104     1  180.0000771  0.4184000  2
   2096   2112   2090   2104     1  0.0000000  1.6024720  3
   2100   2096   2095   2101     1  0.0000000  4.9162000  2
   2100   2096   2095   2101     1  0.0000000  0.6024960  3
   2101   2095   2094   2102     1  0.0000000  4.9162000  2
   2101   2095   2094   2102     1  0.0000000  0.6024960  3
   2101   2095   2096   2112     1  0.0000000  4.9162000  2
   2101   2095   2096   2112     1  0.0000000  0.6024960  3
   2102   2094   2091   2103     1  0.0000000  4.9162000  2
   2102   2094   2091   2103     1  0.0000000  0.6024960  3
   2103   2091   2090   2104     1  0.0000000  0.6508444  3
   2103   2091   2090   2112     1  0.0000000  4.9162000  2
   2103   2091   2090   2112     1  0.0000000  0.6024960  3
   2110   2104   2090   2112     1  0.0000000  4.9162000  2
   2110   2104   2090   2112     1  0.0000000  0.6024960  3
   2113   2114   2117   2118     1  180.0000771  0.8368000  1
   2113   2114   2117   2118     1  180.0000771  1.0460000  2
   2113   2114   2117   2118     1  0.0000000  0.7531200  3
   2113   2114   2117   2125     1  0.0000000  0.6508444  3
   2113   2135   2119   2123     1  180.0000771  5.6484000  1
   2113   2135   2119   2123     1  180.0000771  3.5564000  2
   2113   2135   2119   2123     1  0.0000000  0.4184000  3
   2113   2135   2119   2118     1  180.0000771  0.4184000  2
   2113   2135   2119   2118     1  0.0000000  1.6024720  3
   2114   2117   2118   2119     1  180.0000771  0.8368000  1
   2114   2117   2118   2119     1  180.0000771  1.0460000  2
   2114   2117   2118   2119     1  0.0000000  0.7531200  3
   2114   2117   2118   2124     1  0.0000000  0.6508444  3
   2114   2113   2127   2133     1  0.0000000  0.6508444  3
   2114   2113   2135   2119     1  180.0000771  0.4184000  2
   2114   2113   2135   2119     1  0.0000000  1.6024720  3
   2117   2118   2119   2123     1  0.0000000  0.6508444  3
   2117   2118   2119   2135     1  0.0000000  0.6508444  3
   2117   2114   2113   2127     1  180.0000771  0.8368000  1
   2117   2114   2113   2127     1  180.0000771  1.0460000  2
   2117   2114   2113   2127     1  0.0000000  0.7531200  3
   2117   2114   2113   2135     1  0.0000000  0.6508444  3
   2118   2117   2114   2126     1  0.0000000  0.6508444  3
   2119   2135   2113   2127     1  180.0000771  0.4184000  2
   2119   2135   2113   2127     1  0.0000000  1.6024720  3
   2119   2118   2117   2125     1  0.0000000  0.6508444  3
   2123   2119   2118   2124     1  0.0000000  4.9162000  2
   2123   2119   2118   2124     1  0.0000000  0.6024960  3
   2124   2118   2119   2135     1  0.0000000  4.9162000  2
   2124   2118   2119   2135     1  0.0000000  0.6024960  3
   2124   2118   2117   2125     1  0.0000000  4.9162000  2
   2124   2118   2117   2125     1  0.0000000  0.6024960  3
   2125   2117   2114   2126     1  0.0000000  4.9162000  2
   2125   2117   2114   2126     1  0.0000000  0.6024960  3
   2126   2114   2113   2127     1  0.0000000  0.6508444  3
   2126   2114   2113   2135     1  0.0000000  4.9162000  2
   2126   2114   2113   2135     1  0.0000000  0.6024960  3
   2133   2127   2113   2135     1  0.0000000  4.9162000  2
   2133   2127   2113   2135     1  0.0000000  0.6024960  3
   2136   2137   2140   2141     1  180.0000771  0.8368000  1
   2136   2137   2140   2141     1  180.0000771  1.0460000  2
   2136   2137   2140   2141     1  0.0000000  0.7531200  3
   2136   2137   2140   2148     1  0.0000000  0.6508444  3
   2136   2158   2142   2141     1  180.0000771  0.4184000  2
   2136   2158   2142   2141     1  0.0000000  1.6024720  3
   2136   2158   2142   2146     1  180.0000771  5.6484000  1
   2136   2158   2142   2146     1  180.0000771  3.5564000  2
   2136   2158   2142   2146     1  0.0000000  0.4184000  3
   2137   2136   2150   2156     1  0.0000000  0.6508444  3
   2137   2136   2158   2142     1  180.0000771  0.4184000  2
   2137   2136   2158   2142     1  0.0000000  1.6024720  3
   2137   2140   2141   2142     1  180.0000771  0.8368000  1
   2137   2140   2141   2142     1  180.0000771  1.0460000  2
   2137   2140   2141   2142     1  0.0000000  0.7531200  3
   2137   2140   2141   2147     1  0.0000000  0.6508444  3
   2140   2137   2136   2150     1  180.0000771  0.8368000  1
   2140   2137   2136   2150     1  180.0000771  1.0460000  2
   2140   2137   2136   2150     1  0.0000000  0.7531200  3
   2140   2137   2136   2158     1  0.0000000  0.6508444  3
   2140   2141   2142   2146     1  0.0000000  0.6508444  3
   2140   2141   2142   2158     1  0.0000000  0.6508444  3
   2141   2140   2137   2149     1  0.0000000  0.6508444  3
   2142   2141   2140   2148     1  0.0000000  0.6508444  3
   2142   2158   2136   2150     1  180.0000771  0.4184000  2
   2142   2158   2136   2150     1  0.0000000  1.6024720  3
   2146   2142   2141   2147     1  0.0000000  4.9162000  2
   2146   2142   2141   2147     1  0.0000000  0.6024960  3
   2147   2141   2140   2148     1  0.0000000  4.9162000  2
   2147   2141   2140   2148     1  0.0000000  0.6024960  3
   2147   2141   2142   2158     1  0.0000000  4.9162000  2
   2147   2141   2142   2158     1  0.0000000  0.6024960  3
   2148   2140   2137   2149     1  0.0000000  4.9162000  2
   2148   2140   2137   2149     1  0.0000000  0.6024960  3
   2149   2137   2136   2150     1  0.0000000  0.6508444  3
   2149   2137   2136   2158     1  0.0000000  4.9162000  2
   2149   2137   2136   2158     1  0.0000000  0.6024960  3
   2156   2150   2136   2158     1  0.0000000  4.9162000  2
   2156   2150   2136   2158     1  0.0000000  0.6024960  3
   2159   2160   2163   2164     1  180.0000771  0.8368000  1
   2159   2160   2163   2164     1  180.0000771  1.0460000  2
   2159   2160   2163   2164     1  0.0000000  0.7531200  3
   2159   2160   2163   2171     1  0.0000000  0.6508444  3
   2159   2181   2165   2169     1  180.0000771  5.6484000  1
   2159   2181   2165   2169     1  180.0000771  3.5564000  2
   2159   2181   2165   2169     1  0.0000000  0.4184000  3
   2159   2181   2165   2164     1  180.0000771  0.4184000  2
   2159   2181   2165   2164     1  0.0000000  1.6024720  3
   2160   2163   2164   2165     1  180.0000771  0.8368000  1
   2160   2163   2164   2165     1  180.0000771  1.0460000  2
   2160   2163   2164   2165     1  0.0000000  0.7531200  3
   2160   2163   2164   2170     1  0.0000000  0.6508444  3
   2160   2159   2173   2179     1  0.0000000  0.6508444  3
   2160   2159   2181   2165     1  180.0000771  0.4184000  2
   2160   2159   2181   2165     1  0.0000000  1.6024720  3
   2163   2164   2165   2169     1  0.0000000  0.6508444  3
   2163   2164   2165   2181     1  0.0000000  0.6508444  3
   2163   2160   2159   2173     1  180.0000771  0.8368000  1
   2163   2160   2159   2173     1  180.0000771  1.0460000  2
   2163   2160   2159   2173     1  0.0000000  0.7531200  3
   2163   2160   2159   2181     1  0.0000000  0.6508444  3
   2164   2163   2160   2172     1  0.0000000  0.6508444  3
   2165   2181   2159   2173     1  180.0000771  0.4184000  2
   2165   2181   2159   2173     1  0.0000000  1.6024720  3
   2165   2164   2163   2171     1  0.0000000  0.6508444  3
   2169   2165   2164   2170     1  0.0000000  4.9162000  2
   2169   2165   2164   2170     1  0.0000000  0.6024960  3
   2170   2164   2165   2181     1  0.0000000  4.9162000  2
   2170   2164   2165   2181     1  0.0000000  0.6024960  3
   2170   2164   2163   2171     1  0.0000000  4.9162000  2
   2170   2164   2163   2171     1  0.0000000  0.6024960  3
   2171   2163   2160   2172     1  0.0000000  4.9162000  2
   2171   2163   2160   2172     1  0.0000000  0.6024960  3
   2172   2160   2159   2173     1  0.0000000  0.6508444  3
   2172   2160   2159   2181     1  0.0000000  4.9162000  2
   2172   2160   2159   2181     1  0.0000000  0.6024960  3
   2179   2173   2159   2181     1  0.0000000  4.9162000  2
   2179   2173   2159   2181     1  0.0000000  0.6024960  3
   2182   2183   2186   2187     1  180.0000771  0.8368000  1
   2182   2183   2186   2187     1  180.0000771  1.0460000  2
   2182   2183   2186   2187     1  0.0000000  0.7531200  3
   2182   2183   2186   2194     1  0.0000000  0.6508444  3
   2182   2204   2188   2187     1  180.0000771  0.4184000  2
   2182   2204   2188   2187     1  0.0000000  1.6024720  3
   2182   2204   2188   2192     1  180.0000771  5.6484000  1
   2182   2204   2188   2192     1  180.0000771  3.5564000  2
   2182   2204   2188   2192     1  0.0000000  0.4184000  3
   2183   2182   2196   2202     1  0.0000000  0.6508444  3
   2183   2182   2204   2188     1  180.0000771  0.4184000  2
   2183   2182   2204   2188     1  0.0000000  1.6024720  3
   2183   2186   2187   2188     1  180.0000771  0.8368000  1
   2183   2186   2187   2188     1  180.0000771  1.0460000  2
   2183   2186   2187   2188     1  0.0000000  0.7531200  3
   2183   2186   2187   2193     1  0.0000000  0.6508444  3
   2186   2183   2182   2196     1  180.0000771  0.8368000  1
   2186   2183   2182   2196     1  180.0000771  1.0460000  2
   2186   2183   2182   2196     1  0.0000000  0.7531200  3
   2186   2183   2182   2204     1  0.0000000  0.6508444  3
   2186   2187   2188   2192     1  0.0000000  0.6508444  3
   2186   2187   2188   2204     1  0.0000000  0.6508444  3
   2187   2186   2183   2195     1  0.0000000  0.6508444  3
   2188   2187   2186   2194     1  0.0000000  0.6508444  3
   2188   2204   2182   2196     1  180.0000771  0.4184000  2
   2188   2204   2182   2196     1  0.0000000  1.6024720  3
   2192   2188   2187   2193     1  0.0000000  4.9162000  2
   2192   2188   2187   2193     1  0.0000000  0.6024960  3
   2193   2187   2186   2194     1  0.0000000  4.9162000  2
   2193   2187   2186   2194     1  0.0000000  0.6024960  3
   2193   2187   2188   2204     1  0.0000000  4.9162000  2
   2193   2187   2188   2204     1  0.0000000  0.6024960  3
   2194   2186   2183   2195     1  0.0000000  4.9162000  2
   2194   2186   2183   2195     1  0.0000000  0.6024960  3
   2195   2183   2182   2196     1  0.0000000  0.6508444  3
   2195   2183   2182   2204     1  0.0000000  4.9162000  2
   2195   2183   2182   2204     1  0.0000000  0.6024960  3
   2202   2196   2182   2204     1  0.0000000  4.9162000  2
   2202   2196   2182   2204     1  0.0000000  0.6024960  3
   2205   2206   2209   2210     1  180.0000771  0.8368000  1
   2205   2206   2209   2210     1  180.0000771  1.0460000  2
   2205   2206   2209   2210     1  0.0000000  0.7531200  3
   2205   2206   2209   2217     1  0.0000000  0.6508444  3
   2205   2227   2211   2215     1  180.0000771  5.6484000  1
   2205   2227   2211   2215     1  180.0000771  3.5564000  2
   2205   2227   2211   2215     1  0.0000000  0.4184000  3
   2205   2227   2211   2210     1  180.0000771  0.4184000  2
   2205   2227   2211   2210     1  0.0000000  1.6024720  3
   2206   2209   2210   2211     1  180.0000771  0.8368000  1
   2206   2209   2210   2211     1  180.0000771  1.0460000  2
   2206   2209   2210   2211     1  0.0000000  0.7531200  3
   2206   2209   2210   2216     1  0.0000000  0.6508444  3
   2206   2205   2219   2225     1  0.0000000  0.6508444  3
   2206   2205   2227   2211     1  180.0000771  0.4184000  2
   2206   2205   2227   2211     1  0.0000000  1.6024720  3
   2209   2210   2211   2215     1  0.0000000  0.6508444  3
   2209   2210   2211   2227     1  0.0000000  0.6508444  3
   2209   2206   2205   2219     1  180.0000771  0.8368000  1
   2209   2206   2205   2219     1  180.0000771  1.0460000  2
   2209   2206   2205   2219     1  0.0000000  0.7531200  3
   2209   2206   2205   2227     1  0.0000000  0.6508444  3
   2210   2209   2206   2218     1  0.0000000  0.6508444  3
   2211   2227   2205   2219     1  180.0000771  0.4184000  2
   2211   2227   2205   2219     1  0.0000000  1.6024720  3
   2211   2210   2209   2217     1  0.0000000  0.6508444  3
   2215   2211   2210   2216     1  0.0000000  4.9162000  2
   2215   2211   2210   2216     1  0.0000000  0.6024960  3
   2216   2210   2211   2227     1  0.0000000  4.9162000  2
   2216   2210   2211   2227     1  0.0000000  0.6024960  3
   2216   2210   2209   2217     1  0.0000000  4.9162000  2
   2216   2210   2209   2217     1  0.0000000  0.6024960  3
   2217   2209   2206   2218     1  0.0000000  4.9162000  2
   2217   2209   2206   2218     1  0.0000000  0.6024960  3
   2218   2206   2205   2219     1  0.0000000  0.6508444  3
   2218   2206   2205   2227     1  0.0000000  4.9162000  2
   2218   2206   2205   2227     1  0.0000000  0.6024960  3
   2225   2219   2205   2227     1  0.0000000  4.9162000  2
   2225   2219   2205   2227     1  0.0000000  0.6024960  3
   2228   2229   2232   2233     1  180.0000771  0.8368000  1
   2228   2229   2232   2233     1  180.0000771  1.0460000  2
   2228   2229   2232   2233     1  0.0000000  0.7531200  3
   2228   2229   2232   2240     1  0.0000000  0.6508444  3
   2228   2250   2234   2233     1  180.0000771  0.4184000  2
   2228   2250   2234   2233     1  0.0000000  1.6024720  3
   2228   2250   2234   2238     1  180.0000771  5.6484000  1
   2228   2250   2234   2238     1  180.0000771  3.5564000  2
   2228   2250   2234   2238     1  0.0000000  0.4184000  3
   2229   2228   2242   2248     1  0.0000000  0.6508444  3
   2229   2228   2250   2234     1  180.0000771  0.4184000  2
   2229   2228   2250   2234     1  0.0000000  1.6024720  3
   2229   2232   2233   2234     1  180.0000771  0.8368000  1
   2229   2232   2233   2234     1  180.0000771  1.0460000  2
   2229   2232   2233   2234     1  0.0000000  0.7531200  3
   2229   2232   2233   2239     1  0.0000000  0.6508444  3
   2232   2229   2228   2242     1  180.0000771  0.8368000  1
   2232   2229   2228   2242     1  180.0000771  1.0460000  2
   2232   2229   2228   2242     1  0.0000000  0.7531200  3
   2232   2229   2228   2250     1  0.0000000  0.6508444  3
   2232   2233   2234   2238     1  0.0000000  0.6508444  3
   2232   2233   2234   2250     1  0.0000000  0.6508444  3
   2233   2232   2229   2241     1  0.0000000  0.6508444  3
   2234   2233   2232   2240     1  0.0000000  0.6508444  3
   2234   2250   2228   2242     1  180.0000771  0.4184000  2
   2234   2250   2228   2242     1  0.0000000  1.6024720  3
   2238   2234   2233   2239     1  0.0000000  4.9162000  2
   2238   2234   2233   2239     1  0.0000000  0.6024960  3
   2239   2233   2232   2240     1  0.0000000  4.9162000  2
   2239   2233   2232   2240     1  0.0000000  0.6024960  3
   2239   2233   2234   2250     1  0.0000000  4.9162000  2
   2239   2233   2234   2250     1  0.0000000  0.6024960  3
   2240   2232   2229   2241     1  0.0000000  4.9162000  2
   2240   2232   2229   2241     1  0.0000000  0.6024960  3
   2241   2229   2228   2242     1  0.0000000  0.6508444  3
   2241   2229   2228   2250     1  0.0000000  4.9162000  2
   2241   2229   2228   2250     1  0.0000000  0.6024960  3
   2248   2242   2228   2250     1  0.0000000  4.9162000  2
   2248   2242   2228   2250     1  0.0000000  0.6024960  3
   2251   2252   2255   2256     1  180.0000771  0.8368000  1
   2251   2252   2255   2256     1  180.0000771  1.0460000  2
   2251   2252   2255   2256     1  0.0000000  0.7531200  3
   2251   2252   2255   2263     1  0.0000000  0.6508444  3
   2251   2273   2257   2261     1  180.0000771  5.6484000  1
   2251   2273   2257   2261     1  180.0000771  3.5564000  2
   2251   2273   2257   2261     1  0.0000000  0.4184000  3
   2251   2273   2257   2256     1  180.0000771  0.4184000  2
   2251   2273   2257   2256     1  0.0000000  1.6024720  3
   2252   2255   2256   2257     1  180.0000771  0.8368000  1
   2252   2255   2256   2257     1  180.0000771  1.0460000  2
   2252   2255   2256   2257     1  0.0000000  0.7531200  3
   2252   2255   2256   2262     1  0.0000000  0.6508444  3
   2252   2251   2265   2271     1  0.0000000  0.6508444  3
   2252   2251   2273   2257     1  180.0000771  0.4184000  2
   2252   2251   2273   2257     1  0.0000000  1.6024720  3
   2255   2256   2257   2261     1  0.0000000  0.6508444  3
   2255   2256   2257   2273     1  0.0000000  0.6508444  3
   2255   2252   2251   2265     1  180.0000771  0.8368000  1
   2255   2252   2251   2265     1  180.0000771  1.0460000  2
   2255   2252   2251   2265     1  0.0000000  0.7531200  3
   2255   2252   2251   2273     1  0.0000000  0.6508444  3
   2256   2255   2252   2264     1  0.0000000  0.6508444  3
   2257   2273   2251   2265     1  180.0000771  0.4184000  2
   2257   2273   2251   2265     1  0.0000000  1.6024720  3
   2257   2256   2255   2263     1  0.0000000  0.6508444  3
   2261   2257   2256   2262     1  0.0000000  4.9162000  2
   2261   2257   2256   2262     1  0.0000000  0.6024960  3
   2262   2256   2257   2273     1  0.0000000  4.9162000  2
   2262   2256   2257   2273     1  0.0000000  0.6024960  3
   2262   2256   2255   2263     1  0.0000000  4.9162000  2
   2262   2256   2255   2263     1  0.0000000  0.6024960  3
   2263   2255   2252   2264     1  0.0000000  4.9162000  2
   2263   2255   2252   2264     1  0.0000000  0.6024960  3
   2264   2252   2251   2265     1  0.0000000  0.6508444  3
   2264   2252   2251   2273     1  0.0000000  4.9162000  2
   2264   2252   2251   2273     1  0.0000000  0.6024960  3
   2271   2265   2251   2273     1  0.0000000  4.9162000  2
   2271   2265   2251   2273     1  0.0000000  0.6024960  3
   2274   2275   2278   2279     1  180.0000771  0.8368000  1
   2274   2275   2278   2279     1  180.0000771  1.0460000  2
   2274   2275   2278   2279     1  0.0000000  0.7531200  3
   2274   2275   2278   2286     1  0.0000000  0.6508444  3
   2274   2296   2280   2279     1  180.0000771  0.4184000  2
   2274   2296   2280   2279     1  0.0000000  1.6024720  3
   2274   2296   2280   2284     1  180.0000771  5.6484000  1
   2274   2296   2280   2284     1  180.0000771  3.5564000  2
   2274   2296   2280   2284     1  0.0000000  0.4184000  3
   2275   2274   2288   2294     1  0.0000000  0.6508444  3
   2275   2274   2296   2280     1  180.0000771  0.4184000  2
   2275   2274   2296   2280     1  0.0000000  1.6024720  3
   2275   2278   2279   2280     1  180.0000771  0.8368000  1
   2275   2278   2279   2280     1  180.0000771  1.0460000  2
   2275   2278   2279   2280     1  0.0000000  0.7531200  3
   2275   2278   2279   2285     1  0.0000000  0.6508444  3
   2278   2275   2274   2288     1  180.0000771  0.8368000  1
   2278   2275   2274   2288     1  180.0000771  1.0460000  2
   2278   2275   2274   2288     1  0.0000000  0.7531200  3
   2278   2275   2274   2296     1  0.0000000  0.6508444  3
   2278   2279   2280   2284     1  0.0000000  0.6508444  3
   2278   2279   2280   2296     1  0.0000000  0.6508444  3
   2279   2278   2275   2287     1  0.0000000  0.6508444  3
   2280   2279   2278   2286     1  0.0000000  0.6508444  3
   2280   2296   2274   2288     1  180.0000771  0.4184000  2
   2280   2296   2274   2288     1  0.0000000  1.6024720  3
   2284   2280   2279   2285     1  0.0000000  4.9162000  2
   2284   2280   2279   2285     1  0.0000000  0.6024960  3
   2285   2279   2278   2286     1  0.0000000  4.9162000  2
   2285   2279   2278   2286     1  0.0000000  0.6024960  3
   2285   2279   2280   2296     1  0.0000000  4.9162000  2
   2285   2279   2280   2296     1  0.0000000  0.6024960  3
   2286   2278   2275   2287     1  0.0000000  4.9162000  2
   2286   2278   2275   2287     1  0.0000000  0.6024960  3
   2287   2275   2274   2288     1  0.0000000  0.6508444  3
   2287   2275   2274   2296     1  0.0000000  4.9162000  2
   2287   2275   2274   2296     1  0.0000000  0.6024960  3
   2294   2288   2274   2296     1  0.0000000  4.9162000  2
   2294   2288   2274   2296     1  0.0000000  0.6024960  3
   2297   2298   2301   2302     1  180.0000771  0.8368000  1
   2297   2298   2301   2302     1  180.0000771  1.0460000  2
   2297   2298   2301   2302     1  0.0000000  0.7531200  3
   2297   2298   2301   2309     1  0.0000000  0.6508444  3
   2297   2319   2303   2307     1  180.0000771  5.6484000  1
   2297   2319   2303   2307     1  180.0000771  3.5564000  2
   2297   2319   2303   2307     1  0.0000000  0.4184000  3
   2297   2319   2303   2302     1  180.0000771  0.4184000  2
   2297   2319   2303   2302     1  0.0000000  1.6024720  3
   2298   2301   2302   2303     1  180.0000771  0.8368000  1
   2298   2301   2302   2303     1  180.0000771  1.0460000  2
   2298   2301   2302   2303     1  0.0000000  0.7531200  3
   2298   2301   2302   2308     1  0.0000000  0.6508444  3
   2298   2297   2311   2317     1  0.0000000  0.6508444  3
   2298   2297   2319   2303     1  180.0000771  0.4184000  2
   2298   2297   2319   2303     1  0.0000000  1.6024720  3
   2301   2302   2303   2307     1  0.0000000  0.6508444  3
   2301   2302   2303   2319     1  0.0000000  0.6508444  3
   2301   2298   2297   2311     1  180.0000771  0.8368000  1
   2301   2298   2297   2311     1  180.0000771  1.0460000  2
   2301   2298   2297   2311     1  0.0000000  0.7531200  3
   2301   2298   2297   2319     1  0.0000000  0.6508444  3
   2302   2301   2298   2310     1  0.0000000  0.6508444  3
   2303   2319   2297   2311     1  180.0000771  0.4184000  2
   2303   2319   2297   2311     1  0.0000000  1.6024720  3
   2303   2302   2301   2309     1  0.0000000  0.6508444  3
   2307   2303   2302   2308     1  0.0000000  4.9162000  2
   2307   2303   2302   2308     1  0.0000000  0.6024960  3
   2308   2302   2303   2319     1  0.0000000  4.9162000  2
   2308   2302   2303   2319     1  0.0000000  0.6024960  3
   2308   2302   2301   2309     1  0.0000000  4.9162000  2
   2308   2302   2301   2309     1  0.0000000  0.6024960  3
   2309   2301   2298   2310     1  0.0000000  4.9162000  2
   2309   2301   2298   2310     1  0.0000000  0.6024960  3
   2310   2298   2297   2311     1  0.0000000  0.6508444  3
   2310   2298   2297   2319     1  0.0000000  4.9162000  2
   2310   2298   2297   2319     1  0.0000000  0.6024960  3
   2317   2311   2297   2319     1  0.0000000  4.9162000  2
   2317   2311   2297   2319     1  0.0000000  0.6024960  3
   2320   2321   2324   2325     1  180.0000771  0.8368000  1
   2320   2321   2324   2325     1  180.0000771  1.0460000  2
   2320   2321   2324   2325     1  0.0000000  0.7531200  3
   2320   2321   2324   2332     1  0.0000000  0.6508444  3
   2320   2342   2326   2325     1  180.0000771  0.4184000  2
   2320   2342   2326   2325     1  0.0000000  1.6024720  3
   2320   2342   2326   2330     1  180.0000771  5.6484000  1
   2320   2342   2326   2330     1  180.0000771  3.5564000  2
   2320   2342   2326   2330     1  0.0000000  0.4184000  3
   2321   2320   2334   2340     1  0.0000000  0.6508444  3
   2321   2320   2342   2326     1  180.0000771  0.4184000  2
   2321   2320   2342   2326     1  0.0000000  1.6024720  3
   2321   2324   2325   2326     1  180.0000771  0.8368000  1
   2321   2324   2325   2326     1  180.0000771  1.0460000  2
   2321   2324   2325   2326     1  0.0000000  0.7531200  3
   2321   2324   2325   2331     1  0.0000000  0.6508444  3
   2324   2321   2320   2334     1  180.0000771  0.8368000  1
   2324   2321   2320   2334     1  180.0000771  1.0460000  2
   2324   2321   2320   2334     1  0.0000000  0.7531200  3
   2324   2321   2320   2342     1  0.0000000  0.6508444  3
   2324   2325   2326   2330     1  0.0000000  0.6508444  3
   2324   2325   2326   2342     1  0.0000000  0.6508444  3
   2325   2324   2321   2333     1  0.0000000  0.6508444  3
   2326   2325   2324   2332     1  0.0000000  0.6508444  3
   2326   2342   2320   2334     1  180.0000771  0.4184000  2
   2326   2342   2320   2334     1  0.0000000  1.6024720  3
   2330   2326   2325   2331     1  0.0000000  4.9162000  2
   2330   2326   2325   2331     1  0.0000000  0.6024960  3
   2331   2325   2324   2332     1  0.0000000  4.9162000  2
   2331   2325   2324   2332     1  0.0000000  0.6024960  3
   2331   2325   2326   2342     1  0.0000000  4.9162000  2
   2331   2325   2326   2342     1  0.0000000  0.6024960  3
   2332   2324   2321   2333     1  0.0000000  4.9162000  2
   2332   2324   2321   2333     1  0.0000000  0.6024960  3
   2333   2321   2320   2334     1  0.0000000  0.6508444  3
   2333   2321   2320   2342     1  0.0000000  4.9162000  2
   2333   2321   2320   2342     1  0.0000000  0.6024960  3
   2340   2334   2320   2342     1  0.0000000  4.9162000  2
   2340   2334   2320   2342     1  0.0000000  0.6024960  3
   2343   2344   2347   2348     1  180.0000771  0.8368000  1
   2343   2344   2347   2348     1  180.0000771  1.0460000  2
   2343   2344   2347   2348     1  0.0000000  0.7531200  3
   2343   2344   2347   2355     1  0.0000000  0.6508444  3
   2343   2365   2349   2353     1  180.0000771  5.6484000  1
   2343   2365   2349   2353     1  180.0000771  3.5564000  2
   2343   2365   2349   2353     1  0.0000000  0.4184000  3
   2343   2365   2349   2348     1  180.0000771  0.4184000  2
   2343   2365   2349   2348     1  0.0000000  1.6024720  3
   2344   2347   2348   2349     1  180.0000771  0.8368000  1
   2344   2347   2348   2349     1  180.0000771  1.0460000  2
   2344   2347   2348   2349     1  0.0000000  0.7531200  3
   2344   2347   2348   2354     1  0.0000000  0.6508444  3
   2344   2343   2357   2363     1  0.0000000  0.6508444  3
   2344   2343   2365   2349     1  180.0000771  0.4184000  2
   2344   2343   2365   2349     1  0.0000000  1.6024720  3
   2347   2348   2349   2353     1  0.0000000  0.6508444  3
   2347   2348   2349   2365     1  0.0000000  0.6508444  3
   2347   2344   2343   2357     1  180.0000771  0.8368000  1
   2347   2344   2343   2357     1  180.0000771  1.0460000  2
   2347   2344   2343   2357     1  0.0000000  0.7531200  3
   2347   2344   2343   2365     1  0.0000000  0.6508444  3
   2348   2347   2344   2356     1  0.0000000  0.6508444  3
   2349   2365   2343   2357     1  180.0000771  0.4184000  2
   2349   2365   2343   2357     1  0.0000000  1.6024720  3
   2349   2348   2347   2355     1  0.0000000  0.6508444  3
   2353   2349   2348   2354     1  0.0000000  4.9162000  2
   2353   2349   2348   2354     1  0.0000000  0.6024960  3
   2354   2348   2349   2365     1  0.0000000  4.9162000  2
   2354   2348   2349   2365     1  0.0000000  0.6024960  3
   2354   2348   2347   2355     1  0.0000000  4.9162000  2
   2354   2348   2347   2355     1  0.0000000  0.6024960  3
   2355   2347   2344   2356     1  0.0000000  4.9162000  2
   2355   2347   2344   2356     1  0.0000000  0.6024960  3
   2356   2344   2343   2357     1  0.0000000  0.6508444  3
   2356   2344   2343   2365     1  0.0000000  4.9162000  2
   2356   2344   2343   2365     1  0.0000000  0.6024960  3
   2363   2357   2343   2365     1  0.0000000  4.9162000  2
   2363   2357   2343   2365     1  0.0000000  0.6024960  3
   2366   2367   2370   2371     1  180.0000771  0.8368000  1
   2366   2367   2370   2371     1  180.0000771  1.0460000  2
   2366   2367   2370   2371     1  0.0000000  0.7531200  3
   2366   2367   2370   2378     1  0.0000000  0.6508444  3
   2366   2388   2372   2371     1  180.0000771  0.4184000  2
   2366   2388   2372   2371     1  0.0000000  1.6024720  3
   2366   2388   2372   2376     1  180.0000771  5.6484000  1
   2366   2388   2372   2376     1  180.0000771  3.5564000  2
   2366   2388   2372   2376     1  0.0000000  0.4184000  3
   2367   2366   2380   2386     1  0.0000000  0.6508444  3
   2367   2366   2388   2372     1  180.0000771  0.4184000  2
   2367   2366   2388   2372     1  0.0000000  1.6024720  3
   2367   2370   2371   2372     1  180.0000771  0.8368000  1
   2367   2370   2371   2372     1  180.0000771  1.0460000  2
   2367   2370   2371   2372     1  0.0000000  0.7531200  3
   2367   2370   2371   2377     1  0.0000000  0.6508444  3
   2370   2367   2366   2380     1  180.0000771  0.8368000  1
   2370   2367   2366   2380     1  180.0000771  1.0460000  2
   2370   2367   2366   2380     1  0.0000000  0.7531200  3
   2370   2367   2366   2388     1  0.0000000  0.6508444  3
   2370   2371   2372   2376     1  0.0000000  0.6508444  3
   2370   2371   2372   2388     1  0.0000000  0.6508444  3
   2371   2370   2367   2379     1  0.0000000  0.6508444  3
   2372   2371   2370   2378     1  0.0000000  0.6508444  3
   2372   2388   2366   2380     1  180.0000771  0.4184000  2
   2372   2388   2366   2380     1  0.0000000  1.6024720  3
   2376   2372   2371   2377     1  0.0000000  4.9162000  2
   2376   2372   2371   2377     1  0.0000000  0.6024960  3
   2377   2371   2370   2378     1  0.0000000  4.9162000  2
   2377   2371   2370   2378     1  0.0000000  0.6024960  3
   2377   2371   2372   2388     1  0.0000000  4.9162000  2
   2377   2371   2372   2388     1  0.0000000  0.6024960  3
   2378   2370   2367   2379     1  0.0000000  4.9162000  2
   2378   2370   2367   2379     1  0.0000000  0.6024960  3
   2379   2367   2366   2380     1  0.0000000  0.6508444  3
   2379   2367   2366   2388     1  0.0000000  4.9162000  2
   2379   2367   2366   2388     1  0.0000000  0.6024960  3
   2386   2380   2366   2388     1  0.0000000  4.9162000  2
   2386   2380   2366   2388     1  0.0000000  0.6024960  3
   2389   2390   2393   2394     1  180.0000771  0.8368000  1
   2389   2390   2393   2394     1  180.0000771  1.0460000  2
   2389   2390   2393   2394     1  0.0000000  0.7531200  3
   2389   2390   2393   2401     1  0.0000000  0.6508444  3
   2389   2411   2395   2399     1  180.0000771  5.6484000  1
   2389   2411   2395   2399     1  180.0000771  3.5564000  2
   2389   2411   2395   2399     1  0.0000000  0.4184000  3
   2389   2411   2395   2394     1  180.0000771  0.4184000  2
   2389   2411   2395   2394     1  0.0000000  1.6024720  3
   2390   2393   2394   2395     1  180.0000771  0.8368000  1
   2390   2393   2394   2395     1  180.0000771  1.0460000  2
   2390   2393   2394   2395     1  0.0000000  0.7531200  3
   2390   2393   2394   2400     1  0.0000000  0.6508444  3
   2390   2389   2403   2409     1  0.0000000  0.6508444  3
   2390   2389   2411   2395     1  180.0000771  0.4184000  2
   2390   2389   2411   2395     1  0.0000000  1.6024720  3
   2393   2394   2395   2399     1  0.0000000  0.6508444  3
   2393   2394   2395   2411     1  0.0000000  0.6508444  3
   2393   2390   2389   2403     1  180.0000771  0.8368000  1
   2393   2390   2389   2403     1  180.0000771  1.0460000  2
   2393   2390   2389   2403     1  0.0000000  0.7531200  3
   2393   2390   2389   2411     1  0.0000000  0.6508444  3
   2394   2393   2390   2402     1  0.0000000  0.6508444  3
   2395   2411   2389   2403     1  180.0000771  0.4184000  2
   2395   2411   2389   2403     1  0.0000000  1.6024720  3
   2395   2394   2393   2401     1  0.0000000  0.6508444  3
   2399   2395   2394   2400     1  0.0000000  4.9162000  2
   2399   2395   2394   2400     1  0.0000000  0.6024960  3
   2400   2394   2395   2411     1  0.0000000  4.9162000  2
   2400   2394   2395   2411     1  0.0000000  0.6024960  3
   2400   2394   2393   2401     1  0.0000000  4.9162000  2
   2400   2394   2393   2401     1  0.0000000  0.6024960  3
   2401   2393   2390   2402     1  0.0000000  4.9162000  2
   2401   2393   2390   2402     1  0.0000000  0.6024960  3
   2402   2390   2389   2403     1  0.0000000  0.6508444  3
   2402   2390   2389   2411     1  0.0000000  4.9162000  2
   2402   2390   2389   2411     1  0.0000000  0.6024960  3
   2409   2403   2389   2411     1  0.0000000  4.9162000  2
   2409   2403   2389   2411     1  0.0000000  0.6024960  3
   2412   2413   2416   2417     1  180.0000771  0.8368000  1
   2412   2413   2416   2417     1  180.0000771  1.0460000  2
   2412   2413   2416   2417     1  0.0000000  0.7531200  3
   2412   2413   2416   2424     1  0.0000000  0.6508444  3
   2412   2434   2418   2417     1  180.0000771  0.4184000  2
   2412   2434   2418   2417     1  0.0000000  1.6024720  3
   2412   2434   2418   2422     1  180.0000771  5.6484000  1
   2412   2434   2418   2422     1  180.0000771  3.5564000  2
   2412   2434   2418   2422     1  0.0000000  0.4184000  3
   2413   2412   2426   2432     1  0.0000000  0.6508444  3
   2413   2412   2434   2418     1  180.0000771  0.4184000  2
   2413   2412   2434   2418     1  0.0000000  1.6024720  3
   2413   2416   2417   2418     1  180.0000771  0.8368000  1
   2413   2416   2417   2418     1  180.0000771  1.0460000  2
   2413   2416   2417   2418     1  0.0000000  0.7531200  3
   2413   2416   2417   2423     1  0.0000000  0.6508444  3
   2416   2413   2412   2426     1  180.0000771  0.8368000  1
   2416   2413   2412   2426     1  180.0000771  1.0460000  2
   2416   2413   2412   2426     1  0.0000000  0.7531200  3
   2416   2413   2412   2434     1  0.0000000  0.6508444  3
   2416   2417   2418   2422     1  0.0000000  0.6508444  3
   2416   2417   2418   2434     1  0.0000000  0.6508444  3
   2417   2416   2413   2425     1  0.0000000  0.6508444  3
   2418   2417   2416   2424     1  0.0000000  0.6508444  3
   2418   2434   2412   2426     1  180.0000771  0.4184000  2
   2418   2434   2412   2426     1  0.0000000  1.6024720  3
   2422   2418   2417   2423     1  0.0000000  4.9162000  2
   2422   2418   2417   2423     1  0.0000000  0.6024960  3
   2423   2417   2416   2424     1  0.0000000  4.9162000  2
   2423   2417   2416   2424     1  0.0000000  0.6024960  3
   2423   2417   2418   2434     1  0.0000000  4.9162000  2
   2423   2417   2418   2434     1  0.0000000  0.6024960  3
   2424   2416   2413   2425     1  0.0000000  4.9162000  2
   2424   2416   2413   2425     1  0.0000000  0.6024960  3
   2425   2413   2412   2426     1  0.0000000  0.6508444  3
   2425   2413   2412   2434     1  0.0000000  4.9162000  2
   2425   2413   2412   2434     1  0.0000000  0.6024960  3
   2432   2426   2412   2434     1  0.0000000  4.9162000  2
   2432   2426   2412   2434     1  0.0000000  0.6024960  3
   2435   2436   2439   2440     1  180.0000771  0.8368000  1
   2435   2436   2439   2440     1  180.0000771  1.0460000  2
   2435   2436   2439   2440     1  0.0000000  0.7531200  3
   2435   2436   2439   2447     1  0.0000000  0.6508444  3
   2435   2457   2441   2445     1  180.0000771  5.6484000  1
   2435   2457   2441   2445     1  180.0000771  3.5564000  2
   2435   2457   2441   2445     1  0.0000000  0.4184000  3
   2435   2457   2441   2440     1  180.0000771  0.4184000  2
   2435   2457   2441   2440     1  0.0000000  1.6024720  3
   2436   2439   2440   2441     1  180.0000771  0.8368000  1
   2436   2439   2440   2441     1  180.0000771  1.0460000  2
   2436   2439   2440   2441     1  0.0000000  0.7531200  3
   2436   2439   2440   2446     1  0.0000000  0.6508444  3
   2436   2435   2449   2455     1  0.0000000  0.6508444  3
   2436   2435   2457   2441     1  180.0000771  0.4184000  2
   2436   2435   2457   2441     1  0.0000000  1.6024720  3
   2439   2440   2441   2445     1  0.0000000  0.6508444  3
   2439   2440   2441   2457     1  0.0000000  0.6508444  3
   2439   2436   2435   2449     1  180.0000771  0.8368000  1
   2439   2436   2435   2449     1  180.0000771  1.0460000  2
   2439   2436   2435   2449     1  0.0000000  0.7531200  3
   2439   2436   2435   2457     1  0.0000000  0.6508444  3
   2440   2439   2436   2448     1  0.0000000  0.6508444  3
   2441   2457   2435   2449     1  180.0000771  0.4184000  2
   2441   2457   2435   2449     1  0.0000000  1.6024720  3
   2441   2440   2439   2447     1  0.0000000  0.6508444  3
   2445   2441   2440   2446     1  0.0000000  4.9162000  2
   2445   2441   2440   2446     1  0.0000000  0.6024960  3
   2446   2440   2441   2457     1  0.0000000  4.9162000  2
   2446   2440   2441   2457     1  0.0000000  0.6024960  3
   2446   2440   2439   2447     1  0.0000000  4.9162000  2
   2446   2440   2439   2447     1  0.0000000  0.6024960  3
   2447   2439   2436   2448     1  0.0000000  4.9162000  2
   2447   2439   2436   2448     1  0.0000000  0.6024960  3
   2448   2436   2435   2449     1  0.0000000  0.6508444  3
   2448   2436   2435   2457     1  0.0000000  4.9162000  2
   2448   2436   2435   2457     1  0.0000000  0.6024960  3
   2455   2449   2435   2457     1  0.0000000  4.9162000  2
   2455   2449   2435   2457     1  0.0000000  0.6024960  3
   2458   2459   2462   2463     1  180.0000771  0.8368000  1
   2458   2459   2462   2463     1  180.0000771  1.0460000  2
   2458   2459   2462   2463     1  0.0000000  0.7531200  3
   2458   2459   2462   2470     1  0.0000000  0.6508444  3
   2458   2480   2464   2463     1  180.0000771  0.4184000  2
   2458   2480   2464   2463     1  0.0000000  1.6024720  3
   2458   2480   2464   2468     1  180.0000771  5.6484000  1
   2458   2480   2464   2468     1  180.0000771  3.5564000  2
   2458   2480   2464   2468     1  0.0000000  0.4184000  3
   2459   2458   2472   2478     1  0.0000000  0.6508444  3
   2459   2458   2480   2464     1  180.0000771  0.4184000  2
   2459   2458   2480   2464     1  0.0000000  1.6024720  3
   2459   2462   2463   2464     1  180.0000771  0.8368000  1
   2459   2462   2463   2464     1  180.0000771  1.0460000  2
   2459   2462   2463   2464     1  0.0000000  0.7531200  3
   2459   2462   2463   2469     1  0.0000000  0.6508444  3
   2462   2459   2458   2472     1  180.0000771  0.8368000  1
   2462   2459   2458   2472     1  180.0000771  1.0460000  2
   2462   2459   2458   2472     1  0.0000000  0.7531200  3
   2462   2459   2458   2480     1  0.0000000  0.6508444  3
   2462   2463   2464   2468     1  0.0000000  0.6508444  3
   2462   2463   2464   2480     1  0.0000000  0.6508444  3
   2463   2462   2459   2471     1  0.0000000  0.6508444  3
   2464   2463   2462   2470     1  0.0000000  0.6508444  3
   2464   2480   2458   2472     1  180.0000771  0.4184000  2
   2464   2480   2458   2472     1  0.0000000  1.6024720  3
   2468   2464   2463   2469     1  0.0000000  4.9162000  2
   2468   2464   2463   2469     1  0.0000000  0.6024960  3
   2469   2463   2462   2470     1  0.0000000  4.9162000  2
   2469   2463   2462   2470     1  0.0000000  0.6024960  3
   2469   2463   2464   2480     1  0.0000000  4.9162000  2
   2469   2463   2464   2480     1  0.0000000  0.6024960  3
   2470   2462   2459   2471     1  0.0000000  4.9162000  2
   2470   2462   2459   2471     1  0.0000000  0.6024960  3
   2471   2459   2458   2472     1  0.0000000  0.6508444  3
   2471   2459   2458   2480     1  0.0000000  4.9162000  2
   2471   2459   2458   2480     1  0.0000000  0.6024960  3
   2478   2472   2458   2480     1  0.0000000  4.9162000  2
   2478   2472   2458   2480     1  0.0000000  0.6024960  3
   2481   2482   2485   2486     1  180.0000771  0.8368000  1
   2481   2482   2485   2486     1  180.0000771  1.0460000  2
   2481   2482   2485   2486     1  0.0000000  0.7531200  3
   2481   2482   2485   2493     1  0.0000000  0.6508444  3
   2481   2503   2487   2491     1  180.0000771  5.6484000  1
   2481   2503   2487   2491     1  180.0000771  3.5564000  2
   2481   2503   2487   2491     1  0.0000000  0.4184000  3
   2481   2503   2487   2486     1  180.0000771  0.4184000  2
   2481   2503   2487   2486     1  0.0000000  1.6024720  3
   2482   2485   2486   2487     1  180.0000771  0.8368000  1
   2482   2485   2486   2487     1  180.0000771  1.0460000  2
   2482   2485   2486   2487     1  0.0000000  0.7531200  3
   2482   2485   2486   2492     1  0.0000000  0.6508444  3
   2482   2481   2495   2501     1  0.0000000  0.6508444  3
   2482   2481   2503   2487     1  180.0000771  0.4184000  2
   2482   2481   2503   2487     1  0.0000000  1.6024720  3
   2485   2486   2487   2491     1  0.0000000  0.6508444  3
   2485   2486   2487   2503     1  0.0000000  0.6508444  3
   2485   2482   2481   2495     1  180.0000771  0.8368000  1
   2485   2482   2481   2495     1  180.0000771  1.0460000  2
   2485   2482   2481   2495     1  0.0000000  0.7531200  3
   2485   2482   2481   2503     1  0.0000000  0.6508444  3
   2486   2485   2482   2494     1  0.0000000  0.6508444  3
   2487   2503   2481   2495     1  180.0000771  0.4184000  2
   2487   2503   2481   2495     1  0.0000000  1.6024720  3
   2487   2486   2485   2493     1  0.0000000  0.6508444  3
   2491   2487   2486   2492     1  0.0000000  4.9162000  2
   2491   2487   2486   2492     1  0.0000000  0.6024960  3
   2492   2486   2487   2503     1  0.0000000  4.9162000  2
   2492   2486   2487   2503     1  0.0000000  0.6024960  3
   2492   2486   2485   2493     1  0.0000000  4.9162000  2
   2492   2486   2485   2493     1  0.0000000  0.6024960  3
   2493   2485   2482   2494     1  0.0000000  4.9162000  2
   2493   2485   2482   2494     1  0.0000000  0.6024960  3
   2494   2482   2481   2495     1  0.0000000  0.6508444  3
   2494   2482   2481   2503     1  0.0000000  4.9162000  2
   2494   2482   2481   2503     1  0.0000000  0.6024960  3
   2501   2495   2481   2503     1  0.0000000  4.9162000  2
   2501   2495   2481   2503     1  0.0000000  0.6024960  3
   2504   2505   2508   2509     1  180.0000771  0.8368000  1
   2504   2505   2508   2509     1  180.0000771  1.0460000  2
   2504   2505   2508   2509     1  0.0000000  0.7531200  3
   2504   2505   2508   2516     1  0.0000000  0.6508444  3
   2504   2526   2510   2509     1  180.0000771  0.4184000  2
   2504   2526   2510   2509     1  0.0000000  1.6024720  3
   2504   2526   2510   2514     1  180.0000771  5.6484000  1
   2504   2526   2510   2514     1  180.0000771  3.5564000  2
   2504   2526   2510   2514     1  0.0000000  0.4184000  3
   2505   2504   2518   2524     1  0.0000000  0.6508444  3
   2505   2504   2526   2510     1  180.0000771  0.4184000  2
   2505   2504   2526   2510     1  0.0000000  1.6024720  3
   2505   2508   2509   2510     1  180.0000771  0.8368000  1
   2505   2508   2509   2510     1  180.0000771  1.0460000  2
   2505   2508   2509   2510     1  0.0000000  0.7531200  3
   2505   2508   2509   2515     1  0.0000000  0.6508444  3
   2508   2505   2504   2518     1  180.0000771  0.8368000  1
   2508   2505   2504   2518     1  180.0000771  1.0460000  2
   2508   2505   2504   2518     1  0.0000000  0.7531200  3
   2508   2505   2504   2526     1  0.0000000  0.6508444  3
   2508   2509   2510   2514     1  0.0000000  0.6508444  3
   2508   2509   2510   2526     1  0.0000000  0.6508444  3
   2509   2508   2505   2517     1  0.0000000  0.6508444  3
   2510   2509   2508   2516     1  0.0000000  0.6508444  3
   2510   2526   2504   2518     1  180.0000771  0.4184000  2
   2510   2526   2504   2518     1  0.0000000  1.6024720  3
   2514   2510   2509   2515     1  0.0000000  4.9162000  2
   2514   2510   2509   2515     1  0.0000000  0.6024960  3
   2515   2509   2508   2516     1  0.0000000  4.9162000  2
   2515   2509   2508   2516     1  0.0000000  0.6024960  3
   2515   2509   2510   2526     1  0.0000000  4.9162000  2
   2515   2509   2510   2526     1  0.0000000  0.6024960  3
   2516   2508   2505   2517     1  0.0000000  4.9162000  2
   2516   2508   2505   2517     1  0.0000000  0.6024960  3
   2517   2505   2504   2518     1  0.0000000  0.6508444  3
   2517   2505   2504   2526     1  0.0000000  4.9162000  2
   2517   2505   2504   2526     1  0.0000000  0.6024960  3
   2524   2518   2504   2526     1  0.0000000  4.9162000  2
   2524   2518   2504   2526     1  0.0000000  0.6024960  3
   2527   2528   2531   2532     1  180.0000771  0.8368000  1
   2527   2528   2531   2532     1  180.0000771  1.0460000  2
   2527   2528   2531   2532     1  0.0000000  0.7531200  3
   2527   2528   2531   2539     1  0.0000000  0.6508444  3
   2527   2549   2533   2537     1  180.0000771  5.6484000  1
   2527   2549   2533   2537     1  180.0000771  3.5564000  2
   2527   2549   2533   2537     1  0.0000000  0.4184000  3
   2527   2549   2533   2532     1  180.0000771  0.4184000  2
   2527   2549   2533   2532     1  0.0000000  1.6024720  3
   2528   2531   2532   2533     1  180.0000771  0.8368000  1
   2528   2531   2532   2533     1  180.0000771  1.0460000  2
   2528   2531   2532   2533     1  0.0000000  0.7531200  3
   2528   2531   2532   2538     1  0.0000000  0.6508444  3
   2528   2527   2541   2547     1  0.0000000  0.6508444  3
   2528   2527   2549   2533     1  180.0000771  0.4184000  2
   2528   2527   2549   2533     1  0.0000000  1.6024720  3
   2531   2532   2533   2537     1  0.0000000  0.6508444  3
   2531   2532   2533   2549     1  0.0000000  0.6508444  3
   2531   2528   2527   2541     1  180.0000771  0.8368000  1
   2531   2528   2527   2541     1  180.0000771  1.0460000  2
   2531   2528   2527   2541     1  0.0000000  0.7531200  3
   2531   2528   2527   2549     1  0.0000000  0.6508444  3
   2532   2531   2528   2540     1  0.0000000  0.6508444  3
   2533   2549   2527   2541     1  180.0000771  0.4184000  2
   2533   2549   2527   2541     1  0.0000000  1.6024720  3
   2533   2532   2531   2539     1  0.0000000  0.6508444  3
   2537   2533   2532   2538     1  0.0000000  4.9162000  2
   2537   2533   2532   2538     1  0.0000000  0.6024960  3
   2538   2532   2533   2549     1  0.0000000  4.9162000  2
   2538   2532   2533   2549     1  0.0000000  0.6024960  3
   2538   2532   2531   2539     1  0.0000000  4.9162000  2
   2538   2532   2531   2539     1  0.0000000  0.6024960  3
   2539   2531   2528   2540     1  0.0000000  4.9162000  2
   2539   2531   2528   2540     1  0.0000000  0.6024960  3
   2540   2528   2527   2541     1  0.0000000  0.6508444  3
   2540   2528   2527   2549     1  0.0000000  4.9162000  2
   2540   2528   2527   2549     1  0.0000000  0.6024960  3
   2547   2541   2527   2549     1  0.0000000  4.9162000  2
   2547   2541   2527   2549     1  0.0000000  0.6024960  3
   2550   2551   2554   2555     1  180.0000771  0.8368000  1
   2550   2551   2554   2555     1  180.0000771  1.0460000  2
   2550   2551   2554   2555     1  0.0000000  0.7531200  3
   2550   2551   2554   2562     1  0.0000000  0.6508444  3
   2550   2572   2556   2555     1  180.0000771  0.4184000  2
   2550   2572   2556   2555     1  0.0000000  1.6024720  3
   2550   2572   2556   2560     1  180.0000771  5.6484000  1
   2550   2572   2556   2560     1  180.0000771  3.5564000  2
   2550   2572   2556   2560     1  0.0000000  0.4184000  3
   2551   2550   2564   2570     1  0.0000000  0.6508444  3
   2551   2550   2572   2556     1  180.0000771  0.4184000  2
   2551   2550   2572   2556     1  0.0000000  1.6024720  3
   2551   2554   2555   2556     1  180.0000771  0.8368000  1
   2551   2554   2555   2556     1  180.0000771  1.0460000  2
   2551   2554   2555   2556     1  0.0000000  0.7531200  3
   2551   2554   2555   2561     1  0.0000000  0.6508444  3
   2554   2551   2550   2564     1  180.0000771  0.8368000  1
   2554   2551   2550   2564     1  180.0000771  1.0460000  2
   2554   2551   2550   2564     1  0.0000000  0.7531200  3
   2554   2551   2550   2572     1  0.0000000  0.6508444  3
   2554   2555   2556   2560     1  0.0000000  0.6508444  3
   2554   2555   2556   2572     1  0.0000000  0.6508444  3
   2555   2554   2551   2563     1  0.0000000  0.6508444  3
   2556   2555   2554   2562     1  0.0000000  0.6508444  3
   2556   2572   2550   2564     1  180.0000771  0.4184000  2
   2556   2572   2550   2564     1  0.0000000  1.6024720  3
   2560   2556   2555   2561     1  0.0000000  4.9162000  2
   2560   2556   2555   2561     1  0.0000000  0.6024960  3
   2561   2555   2554   2562     1  0.0000000  4.9162000  2
   2561   2555   2554   2562     1  0.0000000  0.6024960  3
   2561   2555   2556   2572     1  0.0000000  4.9162000  2
   2561   2555   2556   2572     1  0.0000000  0.6024960  3
   2562   2554   2551   2563     1  0.0000000  4.9162000  2
   2562   2554   2551   2563     1  0.0000000  0.6024960  3
   2563   2551   2550   2564     1  0.0000000  0.6508444  3
   2563   2551   2550   2572     1  0.0000000  4.9162000  2
   2563   2551   2550   2572     1  0.0000000  0.6024960  3
   2570   2564   2550   2572     1  0.0000000  4.9162000  2
   2570   2564   2550   2572     1  0.0000000  0.6024960  3
   2573   2574   2577   2578     1  180.0000771  0.8368000  1
   2573   2574   2577   2578     1  180.0000771  1.0460000  2
   2573   2574   2577   2578     1  0.0000000  0.7531200  3
   2573   2574   2577   2585     1  0.0000000  0.6508444  3
   2573   2595   2579   2583     1  180.0000771  5.6484000  1
   2573   2595   2579   2583     1  180.0000771  3.5564000  2
   2573   2595   2579   2583     1  0.0000000  0.4184000  3
   2573   2595   2579   2578     1  180.0000771  0.4184000  2
   2573   2595   2579   2578     1  0.0000000  1.6024720  3
   2574   2577   2578   2579     1  180.0000771  0.8368000  1
   2574   2577   2578   2579     1  180.0000771  1.0460000  2
   2574   2577   2578   2579     1  0.0000000  0.7531200  3
   2574   2577   2578   2584     1  0.0000000  0.6508444  3
   2574   2573   2587   2593     1  0.0000000  0.6508444  3
   2574   2573   2595   2579     1  180.0000771  0.4184000  2
   2574   2573   2595   2579     1  0.0000000  1.6024720  3
   2577   2578   2579   2583     1  0.0000000  0.6508444  3
   2577   2578   2579   2595     1  0.0000000  0.6508444  3
   2577   2574   2573   2587     1  180.0000771  0.8368000  1
   2577   2574   2573   2587     1  180.0000771  1.0460000  2
   2577   2574   2573   2587     1  0.0000000  0.7531200  3
   2577   2574   2573   2595     1  0.0000000  0.6508444  3
   2578   2577   2574   2586     1  0.0000000  0.6508444  3
   2579   2595   2573   2587     1  180.0000771  0.4184000  2
   2579   2595   2573   2587     1  0.0000000  1.6024720  3
   2579   2578   2577   2585     1  0.0000000  0.6508444  3
   2583   2579   2578   2584     1  0.0000000  4.9162000  2
   2583   2579   2578   2584     1  0.0000000  0.6024960  3
   2584   2578   2579   2595     1  0.0000000  4.9162000  2
   2584   2578   2579   2595     1  0.0000000  0.6024960  3
   2584   2578   2577   2585     1  0.0000000  4.9162000  2
   2584   2578   2577   2585     1  0.0000000  0.6024960  3
   2585   2577   2574   2586     1  0.0000000  4.9162000  2
   2585   2577   2574   2586     1  0.0000000  0.6024960  3
   2586   2574   2573   2587     1  0.0000000  0.6508444  3
   2586   2574   2573   2595     1  0.0000000  4.9162000  2
   2586   2574   2573   2595     1  0.0000000  0.6024960  3
   2593   2587   2573   2595     1  0.0000000  4.9162000  2
   2593   2587   2573   2595     1  0.0000000  0.6024960  3
   2596   2597   2600   2601     1  180.0000771  0.8368000  1
   2596   2597   2600   2601     1  180.0000771  1.0460000  2
   2596   2597   2600   2601     1  0.0000000  0.7531200  3
   2596   2597   2600   2608     1  0.0000000  0.6508444  3
   2596   2618   2602   2601     1  180.0000771  0.4184000  2
   2596   2618   2602   2601     1  0.0000000  1.6024720  3
   2596   2618   2602   2606     1  180.0000771  5.6484000  1
   2596   2618   2602   2606     1  180.0000771  3.5564000  2
   2596   2618   2602   2606     1  0.0000000  0.4184000  3
   2597   2596   2610   2616     1  0.0000000  0.6508444  3
   2597   2596   2618   2602     1  180.0000771  0.4184000  2
   2597   2596   2618   2602     1  0.0000000  1.6024720  3
   2597   2600   2601   2602     1  180.0000771  0.8368000  1
   2597   2600   2601   2602     1  180.0000771  1.0460000  2
   2597   2600   2601   2602     1  0.0000000  0.7531200  3
   2597   2600   2601   2607     1  0.0000000  0.6508444  3
   2600   2597   2596   2610     1  180.0000771  0.8368000  1
   2600   2597   2596   2610     1  180.0000771  1.0460000  2
   2600   2597   2596   2610     1  0.0000000  0.7531200  3
   2600   2597   2596   2618     1  0.0000000  0.6508444  3
   2600   2601   2602   2606     1  0.0000000  0.6508444  3
   2600   2601   2602   2618     1  0.0000000  0.6508444  3
   2601   2600   2597   2609     1  0.0000000  0.6508444  3
   2602   2601   2600   2608     1  0.0000000  0.6508444  3
   2602   2618   2596   2610     1  180.0000771  0.4184000  2
   2602   2618   2596   2610     1  0.0000000  1.6024720  3
   2606   2602   2601   2607     1  0.0000000  4.9162000  2
   2606   2602   2601   2607     1  0.0000000  0.6024960  3
   2607   2601   2600   2608     1  0.0000000  4.9162000  2
   2607   2601   2600   2608     1  0.0000000  0.6024960  3
   2607   2601   2602   2618     1  0.0000000  4.9162000  2
   2607   2601   2602   2618     1  0.0000000  0.6024960  3
   2608   2600   2597   2609     1  0.0000000  4.9162000  2
   2608   2600   2597   2609     1  0.0000000  0.6024960  3
   2609   2597   2596   2610     1  0.0000000  0.6508444  3
   2609   2597   2596   2618     1  0.0000000  4.9162000  2
   2609   2597   2596   2618     1  0.0000000  0.6024960  3
   2616   2610   2596   2618     1  0.0000000  4.9162000  2
   2616   2610   2596   2618     1  0.0000000  0.6024960  3
   2619   2620   2623   2624     1  180.0000771  0.8368000  1
   2619   2620   2623   2624     1  180.0000771  1.0460000  2
   2619   2620   2623   2624     1  0.0000000  0.7531200  3
   2619   2620   2623   2631     1  0.0000000  0.6508444  3
   2619   2641   2625   2629     1  180.0000771  5.6484000  1
   2619   2641   2625   2629     1  180.0000771  3.5564000  2
   2619   2641   2625   2629     1  0.0000000  0.4184000  3
   2619   2641   2625   2624     1  180.0000771  0.4184000  2
   2619   2641   2625   2624     1  0.0000000  1.6024720  3
   2620   2623   2624   2625     1  180.0000771  0.8368000  1
   2620   2623   2624   2625     1  180.0000771  1.0460000  2
   2620   2623   2624   2625     1  0.0000000  0.7531200  3
   2620   2623   2624   2630     1  0.0000000  0.6508444  3
   2620   2619   2633   2639     1  0.0000000  0.6508444  3
   2620   2619   2641   2625     1  180.0000771  0.4184000  2
   2620   2619   2641   2625     1  0.0000000  1.6024720  3
   2623   2624   2625   2629     1  0.0000000  0.6508444  3
   2623   2624   2625   2641     1  0.0000000  0.6508444  3
   2623   2620   2619   2633     1  180.0000771  0.8368000  1
   2623   2620   2619   2633     1  180.0000771  1.0460000  2
   2623   2620   2619   2633     1  0.0000000  0.7531200  3
   2623   2620   2619   2641     1  0.0000000  0.6508444  3
   2624   2623   2620   2632     1  0.0000000  0.6508444  3
   2625   2641   2619   2633     1  180.0000771  0.4184000  2
   2625   2641   2619   2633     1  0.0000000  1.6024720  3
   2625   2624   2623   2631     1  0.0000000  0.6508444  3
   2629   2625   2624   2630     1  0.0000000  4.9162000  2
   2629   2625   2624   2630     1  0.0000000  0.6024960  3
   2630   2624   2625   2641     1  0.0000000  4.9162000  2
   2630   2624   2625   2641     1  0.0000000  0.6024960  3
   2630   2624   2623   2631     1  0.0000000  4.9162000  2
   2630   2624   2623   2631     1  0.0000000  0.6024960  3
   2631   2623   2620   2632     1  0.0000000  4.9162000  2
   2631   2623   2620   2632     1  0.0000000  0.6024960  3
   2632   2620   2619   2633     1  0.0000000  0.6508444  3
   2632   2620   2619   2641     1  0.0000000  4.9162000  2
   2632   2620   2619   2641     1  0.0000000  0.6024960  3
   2639   2633   2619   2641     1  0.0000000  4.9162000  2
   2639   2633   2619   2641     1  0.0000000  0.6024960  3
   2642   2643   2646   2647     1  180.0000771  0.8368000  1
   2642   2643   2646   2647     1  180.0000771  1.0460000  2
   2642   2643   2646   2647     1  0.0000000  0.7531200  3
   2642   2643   2646   2654     1  0.0000000  0.6508444  3
   2642   2664   2648   2647     1  180.0000771  0.4184000  2
   2642   2664   2648   2647     1  0.0000000  1.6024720  3
   2642   2664   2648   2652     1  180.0000771  5.6484000  1
   2642   2664   2648   2652     1  180.0000771  3.5564000  2
   2642   2664   2648   2652     1  0.0000000  0.4184000  3
   2643   2642   2656   2662     1  0.0000000  0.6508444  3
   2643   2642   2664   2648     1  180.0000771  0.4184000  2
   2643   2642   2664   2648     1  0.0000000  1.6024720  3
   2643   2646   2647   2648     1  180.0000771  0.8368000  1
   2643   2646   2647   2648     1  180.0000771  1.0460000  2
   2643   2646   2647   2648     1  0.0000000  0.7531200  3
   2643   2646   2647   2653     1  0.0000000  0.6508444  3
   2646   2643   2642   2656     1  180.0000771  0.8368000  1
   2646   2643   2642   2656     1  180.0000771  1.0460000  2
   2646   2643   2642   2656     1  0.0000000  0.7531200  3
   2646   2643   2642   2664     1  0.0000000  0.6508444  3
   2646   2647   2648   2652     1  0.0000000  0.6508444  3
   2646   2647   2648   2664     1  0.0000000  0.6508444  3
   2647   2646   2643   2655     1  0.0000000  0.6508444  3
   2648   2647   2646   2654     1  0.0000000  0.6508444  3
   2648   2664   2642   2656     1  180.0000771  0.4184000  2
   2648   2664   2642   2656     1  0.0000000  1.6024720  3
   2652   2648   2647   2653     1  0.0000000  4.9162000  2
   2652   2648   2647   2653     1  0.0000000  0.6024960  3
   2653   2647   2646   2654     1  0.0000000  4.9162000  2
   2653   2647   2646   2654     1  0.0000000  0.6024960  3
   2653   2647   2648   2664     1  0.0000000  4.9162000  2
   2653   2647   2648   2664     1  0.0000000  0.6024960  3
   2654   2646   2643   2655     1  0.0000000  4.9162000  2
   2654   2646   2643   2655     1  0.0000000  0.6024960  3
   2655   2643   2642   2656     1  0.0000000  0.6508444  3
   2655   2643   2642   2664     1  0.0000000  4.9162000  2
   2655   2643   2642   2664     1  0.0000000  0.6024960  3
   2662   2656   2642   2664     1  0.0000000  4.9162000  2
   2662   2656   2642   2664     1  0.0000000  0.6024960  3
   2665   2666   2669   2670     1  180.0000771  0.8368000  1
   2665   2666   2669   2670     1  180.0000771  1.0460000  2
   2665   2666   2669   2670     1  0.0000000  0.7531200  3
   2665   2666   2669   2677     1  0.0000000  0.6508444  3
   2665   2687   2671   2675     1  180.0000771  5.6484000  1
   2665   2687   2671   2675     1  180.0000771  3.5564000  2
   2665   2687   2671   2675     1  0.0000000  0.4184000  3
   2665   2687   2671   2670     1  180.0000771  0.4184000  2
   2665   2687   2671   2670     1  0.0000000  1.6024720  3
   2666   2669   2670   2671     1  180.0000771  0.8368000  1
   2666   2669   2670   2671     1  180.0000771  1.0460000  2
   2666   2669   2670   2671     1  0.0000000  0.7531200  3
   2666   2669   2670   2676     1  0.0000000  0.6508444  3
   2666   2665   2679   2685     1  0.0000000  0.6508444  3
   2666   2665   2687   2671     1  180.0000771  0.4184000  2
   2666   2665   2687   2671     1  0.0000000  1.6024720  3
   2669   2670   2671   2675     1  0.0000000  0.6508444  3
   2669   2670   2671   2687     1  0.0000000  0.6508444  3
   2669   2666   2665   2679     1  180.0000771  0.8368000  1
   2669   2666   2665   2679     1  180.0000771  1.0460000  2
   2669   2666   2665   2679     1  0.0000000  0.7531200  3
   2669   2666   2665   2687     1  0.0000000  0.6508444  3
   2670   2669   2666   2678     1  0.0000000  0.6508444  3
   2671   2687   2665   2679     1  180.0000771  0.4184000  2
   2671   2687   2665   2679     1  0.0000000  1.6024720  3
   2671   2670   2669   2677     1  0.0000000  0.6508444  3
   2675   2671   2670   2676     1  0.0000000  4.9162000  2
   2675   2671   2670   2676     1  0.0000000  0.6024960  3
   2676   2670   2671   2687     1  0.0000000  4.9162000  2
   2676   2670   2671   2687     1  0.0000000  0.6024960  3
   2676   2670   2669   2677     1  0.0000000  4.9162000  2
   2676   2670   2669   2677     1  0.0000000  0.6024960  3
   2677   2669   2666   2678     1  0.0000000  4.9162000  2
   2677   2669   2666   2678     1  0.0000000  0.6024960  3
   2678   2666   2665   2679     1  0.0000000  0.6508444  3
   2678   2666   2665   2687     1  0.0000000  4.9162000  2
   2678   2666   2665   2687     1  0.0000000  0.6024960  3
   2685   2679   2665   2687     1  0.0000000  4.9162000  2
   2685   2679   2665   2687     1  0.0000000  0.6024960  3
   2688   2689   2692   2693     1  180.0000771  0.8368000  1
   2688   2689   2692   2693     1  180.0000771  1.0460000  2
   2688   2689   2692   2693     1  0.0000000  0.7531200  3
   2688   2689   2692   2700     1  0.0000000  0.6508444  3
   2688   2710   2694   2693     1  180.0000771  0.4184000  2
   2688   2710   2694   2693     1  0.0000000  1.6024720  3
   2688   2710   2694   2698     1  180.0000771  5.6484000  1
   2688   2710   2694   2698     1  180.0000771  3.5564000  2
   2688   2710   2694   2698     1  0.0000000  0.4184000  3
   2689   2688   2702   2708     1  0.0000000  0.6508444  3
   2689   2688   2710   2694     1  180.0000771  0.4184000  2
   2689   2688   2710   2694     1  0.0000000  1.6024720  3
   2689   2692   2693   2694     1  180.0000771  0.8368000  1
   2689   2692   2693   2694     1  180.0000771  1.0460000  2
   2689   2692   2693   2694     1  0.0000000  0.7531200  3
   2689   2692   2693   2699     1  0.0000000  0.6508444  3
   2692   2689   2688   2702     1  180.0000771  0.8368000  1
   2692   2689   2688   2702     1  180.0000771  1.0460000  2
   2692   2689   2688   2702     1  0.0000000  0.7531200  3
   2692   2689   2688   2710     1  0.0000000  0.6508444  3
   2692   2693   2694   2698     1  0.0000000  0.6508444  3
   2692   2693   2694   2710     1  0.0000000  0.6508444  3
   2693   2692   2689   2701     1  0.0000000  0.6508444  3
   2694   2693   2692   2700     1  0.0000000  0.6508444  3
   2694   2710   2688   2702     1  180.0000771  0.4184000  2
   2694   2710   2688   2702     1  0.0000000  1.6024720  3
   2698   2694   2693   2699     1  0.0000000  4.9162000  2
   2698   2694   2693   2699     1  0.0000000  0.6024960  3
   2699   2693   2692   2700     1  0.0000000  4.9162000  2
   2699   2693   2692   2700     1  0.0000000  0.6024960  3
   2699   2693   2694   2710     1  0.0000000  4.9162000  2
   2699   2693   2694   2710     1  0.0000000  0.6024960  3
   2700   2692   2689   2701     1  0.0000000  4.9162000  2
   2700   2692   2689   2701     1  0.0000000  0.6024960  3
   2701   2689   2688   2702     1  0.0000000  0.6508444  3
   2701   2689   2688   2710     1  0.0000000  4.9162000  2
   2701   2689   2688   2710     1  0.0000000  0.6024960  3
   2708   2702   2688   2710     1  0.0000000  4.9162000  2
   2708   2702   2688   2710     1  0.0000000  0.6024960  3
   2711   2712   2715   2716     1  180.0000771  0.8368000  1
   2711   2712   2715   2716     1  180.0000771  1.0460000  2
   2711   2712   2715   2716     1  0.0000000  0.7531200  3
   2711   2712   2715   2723     1  0.0000000  0.6508444  3
   2711   2733   2717   2721     1  180.0000771  5.6484000  1
   2711   2733   2717   2721     1  180.0000771  3.5564000  2
   2711   2733   2717   2721     1  0.0000000  0.4184000  3
   2711   2733   2717   2716     1  180.0000771  0.4184000  2
   2711   2733   2717   2716     1  0.0000000  1.6024720  3
   2712   2715   2716   2717     1  180.0000771  0.8368000  1
   2712   2715   2716   2717     1  180.0000771  1.0460000  2
   2712   2715   2716   2717     1  0.0000000  0.7531200  3
   2712   2715   2716   2722     1  0.0000000  0.6508444  3
   2712   2711   2725   2731     1  0.0000000  0.6508444  3
   2712   2711   2733   2717     1  180.0000771  0.4184000  2
   2712   2711   2733   2717     1  0.0000000  1.6024720  3
   2715   2716   2717   2721     1  0.0000000  0.6508444  3
   2715   2716   2717   2733     1  0.0000000  0.6508444  3
   2715   2712   2711   2725     1  180.0000771  0.8368000  1
   2715   2712   2711   2725     1  180.0000771  1.0460000  2
   2715   2712   2711   2725     1  0.0000000  0.7531200  3
   2715   2712   2711   2733     1  0.0000000  0.6508444  3
   2716   2715   2712   2724     1  0.0000000  0.6508444  3
   2717   2733   2711   2725     1  180.0000771  0.4184000  2
   2717   2733   2711   2725     1  0.0000000  1.6024720  3
   2717   2716   2715   2723     1  0.0000000  0.6508444  3
   2721   2717   2716   2722     1  0.0000000  4.9162000  2
   2721   2717   2716   2722     1  0.0000000  0.6024960  3
   2722   2716   2717   2733     1  0.0000000  4.9162000  2
   2722   2716   2717   2733     1  0.0000000  0.6024960  3
   2722   2716   2715   2723     1  0.0000000  4.9162000  2
   2722   2716   2715   2723     1  0.0000000  0.6024960  3
   2723   2715   2712   2724     1  0.0000000  4.9162000  2
   2723   2715   2712   2724     1  0.0000000  0.6024960  3
   2724   2712   2711   2725     1  0.0000000  0.6508444  3
   2724   2712   2711   2733     1  0.0000000  4.9162000  2
   2724   2712   2711   2733     1  0.0000000  0.6024960  3
   2731   2725   2711   2733     1  0.0000000  4.9162000  2
   2731   2725   2711   2733     1  0.0000000  0.6024960  3
   2734   2735   2738   2739     1  180.0000771  0.8368000  1
   2734   2735   2738   2739     1  180.0000771  1.0460000  2
   2734   2735   2738   2739     1  0.0000000  0.7531200  3
   2734   2735   2738   2746     1  0.0000000  0.6508444  3
   2734   2756   2740   2739     1  180.0000771  0.4184000  2
   2734   2756   2740   2739     1  0.0000000  1.6024720  3
   2734   2756   2740   2744     1  180.0000771  5.6484000  1
   2734   2756   2740   2744     1  180.0000771  3.5564000  2
   2734   2756   2740   2744     1  0.0000000  0.4184000  3
   2735   2734   2748   2754     1  0.0000000  0.6508444  3
   2735   2734   2756   2740     1  180.0000771  0.4184000  2
   2735   2734   2756   2740     1  0.0000000  1.6024720  3
   2735   2738   2739   2740     1  180.0000771  0.8368000  1
   2735   2738   2739   2740     1  180.0000771  1.0460000  2
   2735   2738   2739   2740     1  0.0000000  0.7531200  3
   2735   2738   2739   2745     1  0.0000000  0.6508444  3
   2738   2735   2734   2748     1  180.0000771  0.8368000  1
   2738   2735   2734   2748     1  180.0000771  1.0460000  2
   2738   2735   2734   2748     1  0.0000000  0.7531200  3
   2738   2735   2734   2756     1  0.0000000  0.6508444  3
   2738   2739   2740   2744     1  0.0000000  0.6508444  3
   2738   2739   2740   2756     1  0.0000000  0.6508444  3
   2739   2738   2735   2747     1  0.0000000  0.6508444  3
   2740   2739   2738   2746     1  0.0000000  0.6508444  3
   2740   2756   2734   2748     1  180.0000771  0.4184000  2
   2740   2756   2734   2748     1  0.0000000  1.6024720  3
   2744   2740   2739   2745     1  0.0000000  4.9162000  2
   2744   2740   2739   2745     1  0.0000000  0.6024960  3
   2745   2739   2738   2746     1  0.0000000  4.9162000  2
   2745   2739   2738   2746     1  0.0000000  0.6024960  3
   2745   2739   2740   2756     1  0.0000000  4.9162000  2
   2745   2739   2740   2756     1  0.0000000  0.6024960  3
   2746   2738   2735   2747     1  0.0000000  4.9162000  2
   2746   2738   2735   2747     1  0.0000000  0.6024960  3
   2747   2735   2734   2748     1  0.0000000  0.6508444  3
   2747   2735   2734   2756     1  0.0000000  4.9162000  2
   2747   2735   2734   2756     1  0.0000000  0.6024960  3
   2754   2748   2734   2756     1  0.0000000  4.9162000  2
   2754   2748   2734   2756     1  0.0000000  0.6024960  3
   2757   2758   2761   2762     1  180.0000771  0.8368000  1
   2757   2758   2761   2762     1  180.0000771  1.0460000  2
   2757   2758   2761   2762     1  0.0000000  0.7531200  3
   2757   2758   2761   2769     1  0.0000000  0.6508444  3
   2757   2779   2763   2767     1  180.0000771  5.6484000  1
   2757   2779   2763   2767     1  180.0000771  3.5564000  2
   2757   2779   2763   2767     1  0.0000000  0.4184000  3
   2757   2779   2763   2762     1  180.0000771  0.4184000  2
   2757   2779   2763   2762     1  0.0000000  1.6024720  3
   2758   2761   2762   2763     1  180.0000771  0.8368000  1
   2758   2761   2762   2763     1  180.0000771  1.0460000  2
   2758   2761   2762   2763     1  0.0000000  0.7531200  3
   2758   2761   2762   2768     1  0.0000000  0.6508444  3
   2758   2757   2771   2777     1  0.0000000  0.6508444  3
   2758   2757   2779   2763     1  180.0000771  0.4184000  2
   2758   2757   2779   2763     1  0.0000000  1.6024720  3
   2761   2762   2763   2767     1  0.0000000  0.6508444  3
   2761   2762   2763   2779     1  0.0000000  0.6508444  3
   2761   2758   2757   2771     1  180.0000771  0.8368000  1
   2761   2758   2757   2771     1  180.0000771  1.0460000  2
   2761   2758   2757   2771     1  0.0000000  0.7531200  3
   2761   2758   2757   2779     1  0.0000000  0.6508444  3
   2762   2761   2758   2770     1  0.0000000  0.6508444  3
   2763   2779   2757   2771     1  180.0000771  0.4184000  2
   2763   2779   2757   2771     1  0.0000000  1.6024720  3
   2763   2762   2761   2769     1  0.0000000  0.6508444  3
   2767   2763   2762   2768     1  0.0000000  4.9162000  2
   2767   2763   2762   2768     1  0.0000000  0.6024960  3
   2768   2762   2763   2779     1  0.0000000  4.9162000  2
   2768   2762   2763   2779     1  0.0000000  0.6024960  3
   2768   2762   2761   2769     1  0.0000000  4.9162000  2
   2768   2762   2761   2769     1  0.0000000  0.6024960  3
   2769   2761   2758   2770     1  0.0000000  4.9162000  2
   2769   2761   2758   2770     1  0.0000000  0.6024960  3
   2770   2758   2757   2771     1  0.0000000  0.6508444  3
   2770   2758   2757   2779     1  0.0000000  4.9162000  2
   2770   2758   2757   2779     1  0.0000000  0.6024960  3
   2777   2771   2757   2779     1  0.0000000  4.9162000  2
   2777   2771   2757   2779     1  0.0000000  0.6024960  3
   2780   2781   2784   2785     1  180.0000771  0.8368000  1
   2780   2781   2784   2785     1  180.0000771  1.0460000  2
   2780   2781   2784   2785     1  0.0000000  0.7531200  3
   2780   2781   2784   2792     1  0.0000000  0.6508444  3
   2780   2802   2786   2785     1  180.0000771  0.4184000  2
   2780   2802   2786   2785     1  0.0000000  1.6024720  3
   2780   2802   2786   2790     1  180.0000771  5.6484000  1
   2780   2802   2786   2790     1  180.0000771  3.5564000  2
   2780   2802   2786   2790     1  0.0000000  0.4184000  3
   2781   2780   2794   2800     1  0.0000000  0.6508444  3
   2781   2780   2802   2786     1  180.0000771  0.4184000  2
   2781   2780   2802   2786     1  0.0000000  1.6024720  3
   2781   2784   2785   2786     1  180.0000771  0.8368000  1
   2781   2784   2785   2786     1  180.0000771  1.0460000  2
   2781   2784   2785   2786     1  0.0000000  0.7531200  3
   2781   2784   2785   2791     1  0.0000000  0.6508444  3
   2784   2781   2780   2794     1  180.0000771  0.8368000  1
   2784   2781   2780   2794     1  180.0000771  1.0460000  2
   2784   2781   2780   2794     1  0.0000000  0.7531200  3
   2784   2781   2780   2802     1  0.0000000  0.6508444  3
   2784   2785   2786   2790     1  0.0000000  0.6508444  3
   2784   2785   2786   2802     1  0.0000000  0.6508444  3
   2785   2784   2781   2793     1  0.0000000  0.6508444  3
   2786   2785   2784   2792     1  0.0000000  0.6508444  3
   2786   2802   2780   2794     1  180.0000771  0.4184000  2
   2786   2802   2780   2794     1  0.0000000  1.6024720  3
   2790   2786   2785   2791     1  0.0000000  4.9162000  2
   2790   2786   2785   2791     1  0.0000000  0.6024960  3
   2791   2785   2784   2792     1  0.0000000  4.9162000  2
   2791   2785   2784   2792     1  0.0000000  0.6024960  3
   2791   2785   2786   2802     1  0.0000000  4.9162000  2
   2791   2785   2786   2802     1  0.0000000  0.6024960  3
   2792   2784   2781   2793     1  0.0000000  4.9162000  2
   2792   2784   2781   2793     1  0.0000000  0.6024960  3
   2793   2781   2780   2794     1  0.0000000  0.6508444  3
   2793   2781   2780   2802     1  0.0000000  4.9162000  2
   2793   2781   2780   2802     1  0.0000000  0.6024960  3
   2800   2794   2780   2802     1  0.0000000  4.9162000  2
   2800   2794   2780   2802     1  0.0000000  0.6024960  3
   2803   2804   2807   2808     1  180.0000771  0.8368000  1
   2803   2804   2807   2808     1  180.0000771  1.0460000  2
   2803   2804   2807   2808     1  0.0000000  0.7531200  3
   2803   2804   2807   2815     1  0.0000000  0.6508444  3
   2803   2825   2809   2813     1  180.0000771  5.6484000  1
   2803   2825   2809   2813     1  180.0000771  3.5564000  2
   2803   2825   2809   2813     1  0.0000000  0.4184000  3
   2803   2825   2809   2808     1  180.0000771  0.4184000  2
   2803   2825   2809   2808     1  0.0000000  1.6024720  3
   2804   2807   2808   2809     1  180.0000771  0.8368000  1
   2804   2807   2808   2809     1  180.0000771  1.0460000  2
   2804   2807   2808   2809     1  0.0000000  0.7531200  3
   2804   2807   2808   2814     1  0.0000000  0.6508444  3
   2804   2803   2817   2823     1  0.0000000  0.6508444  3
   2804   2803   2825   2809     1  180.0000771  0.4184000  2
   2804   2803   2825   2809     1  0.0000000  1.6024720  3
   2807   2808   2809   2813     1  0.0000000  0.6508444  3
   2807   2808   2809   2825     1  0.0000000  0.6508444  3
   2807   2804   2803   2817     1  180.0000771  0.8368000  1
   2807   2804   2803   2817     1  180.0000771  1.0460000  2
   2807   2804   2803   2817     1  0.0000000  0.7531200  3
   2807   2804   2803   2825     1  0.0000000  0.6508444  3
   2808   2807   2804   2816     1  0.0000000  0.6508444  3
   2809   2825   2803   2817     1  180.0000771  0.4184000  2
   2809   2825   2803   2817     1  0.0000000  1.6024720  3
   2809   2808   2807   2815     1  0.0000000  0.6508444  3
   2813   2809   2808   2814     1  0.0000000  4.9162000  2
   2813   2809   2808   2814     1  0.0000000  0.6024960  3
   2814   2808   2809   2825     1  0.0000000  4.9162000  2
   2814   2808   2809   2825     1  0.0000000  0.6024960  3
   2814   2808   2807   2815     1  0.0000000  4.9162000  2
   2814   2808   2807   2815     1  0.0000000  0.6024960  3
   2815   2807   2804   2816     1  0.0000000  4.9162000  2
   2815   2807   2804   2816     1  0.0000000  0.6024960  3
   2816   2804   2803   2817     1  0.0000000  0.6508444  3
   2816   2804   2803   2825     1  0.0000000  4.9162000  2
   2816   2804   2803   2825     1  0.0000000  0.6024960  3
   2823   2817   2803   2825     1  0.0000000  4.9162000  2
   2823   2817   2803   2825     1  0.0000000  0.6024960  3
   2826   2827   2830   2831     1  180.0000771  0.8368000  1
   2826   2827   2830   2831     1  180.0000771  1.0460000  2
   2826   2827   2830   2831     1  0.0000000  0.7531200  3
   2826   2827   2830   2838     1  0.0000000  0.6508444  3
   2826   2848   2832   2831     1  180.0000771  0.4184000  2
   2826   2848   2832   2831     1  0.0000000  1.6024720  3
   2826   2848   2832   2836     1  180.0000771  5.6484000  1
   2826   2848   2832   2836     1  180.0000771  3.5564000  2
   2826   2848   2832   2836     1  0.0000000  0.4184000  3
   2827   2826   2840   2846     1  0.0000000  0.6508444  3
   2827   2826   2848   2832     1  180.0000771  0.4184000  2
   2827   2826   2848   2832     1  0.0000000  1.6024720  3
   2827   2830   2831   2832     1  180.0000771  0.8368000  1
   2827   2830   2831   2832     1  180.0000771  1.0460000  2
   2827   2830   2831   2832     1  0.0000000  0.7531200  3
   2827   2830   2831   2837     1  0.0000000  0.6508444  3
   2830   2827   2826   2840     1  180.0000771  0.8368000  1
   2830   2827   2826   2840     1  180.0000771  1.0460000  2
   2830   2827   2826   2840     1  0.0000000  0.7531200  3
   2830   2827   2826   2848     1  0.0000000  0.6508444  3
   2830   2831   2832   2836     1  0.0000000  0.6508444  3
   2830   2831   2832   2848     1  0.0000000  0.6508444  3
   2831   2830   2827   2839     1  0.0000000  0.6508444  3
   2832   2831   2830   2838     1  0.0000000  0.6508444  3
   2832   2848   2826   2840     1  180.0000771  0.4184000  2
   2832   2848   2826   2840     1  0.0000000  1.6024720  3
   2836   2832   2831   2837     1  0.0000000  4.9162000  2
   2836   2832   2831   2837     1  0.0000000  0.6024960  3
   2837   2831   2830   2838     1  0.0000000  4.9162000  2
   2837   2831   2830   2838     1  0.0000000  0.6024960  3
   2837   2831   2832   2848     1  0.0000000  4.9162000  2
   2837   2831   2832   2848     1  0.0000000  0.6024960  3
   2838   2830   2827   2839     1  0.0000000  4.9162000  2
   2838   2830   2827   2839     1  0.0000000  0.6024960  3
   2839   2827   2826   2840     1  0.0000000  0.6508444  3
   2839   2827   2826   2848     1  0.0000000  4.9162000  2
   2839   2827   2826   2848     1  0.0000000  0.6024960  3
   2846   2840   2826   2848     1  0.0000000  4.9162000  2
   2846   2840   2826   2848     1  0.0000000  0.6024960  3
   2849   2850   2853   2854     1  180.0000771  0.8368000  1
   2849   2850   2853   2854     1  180.0000771  1.0460000  2
   2849   2850   2853   2854     1  0.0000000  0.7531200  3
   2849   2850   2853   2861     1  0.0000000  0.6508444  3
   2849   2871   2855   2859     1  180.0000771  5.6484000  1
   2849   2871   2855   2859     1  180.0000771  3.5564000  2
   2849   2871   2855   2859     1  0.0000000  0.4184000  3
   2849   2871   2855   2854     1  180.0000771  0.4184000  2
   2849   2871   2855   2854     1  0.0000000  1.6024720  3
   2850   2853   2854   2855     1  180.0000771  0.8368000  1
   2850   2853   2854   2855     1  180.0000771  1.0460000  2
   2850   2853   2854   2855     1  0.0000000  0.7531200  3
   2850   2853   2854   2860     1  0.0000000  0.6508444  3
   2850   2849   2863   2869     1  0.0000000  0.6508444  3
   2850   2849   2871   2855     1  180.0000771  0.4184000  2
   2850   2849   2871   2855     1  0.0000000  1.6024720  3
   2853   2854   2855   2859     1  0.0000000  0.6508444  3
   2853   2854   2855   2871     1  0.0000000  0.6508444  3
   2853   2850   2849   2863     1  180.0000771  0.8368000  1
   2853   2850   2849   2863     1  180.0000771  1.0460000  2
   2853   2850   2849   2863     1  0.0000000  0.7531200  3
   2853   2850   2849   2871     1  0.0000000  0.6508444  3
   2854   2853   2850   2862     1  0.0000000  0.6508444  3
   2855   2871   2849   2863     1  180.0000771  0.4184000  2
   2855   2871   2849   2863     1  0.0000000  1.6024720  3
   2855   2854   2853   2861     1  0.0000000  0.6508444  3
   2859   2855   2854   2860     1  0.0000000  4.9162000  2
   2859   2855   2854   2860     1  0.0000000  0.6024960  3
   2860   2854   2855   2871     1  0.0000000  4.9162000  2
   2860   2854   2855   2871     1  0.0000000  0.6024960  3
   2860   2854   2853   2861     1  0.0000000  4.9162000  2
   2860   2854   2853   2861     1  0.0000000  0.6024960  3
   2861   2853   2850   2862     1  0.0000000  4.9162000  2
   2861   2853   2850   2862     1  0.0000000  0.6024960  3
   2862   2850   2849   2863     1  0.0000000  0.6508444  3
   2862   2850   2849   2871     1  0.0000000  4.9162000  2
   2862   2850   2849   2871     1  0.0000000  0.6024960  3
   2869   2863   2849   2871     1  0.0000000  4.9162000  2
   2869   2863   2849   2871     1  0.0000000  0.6024960  3
   2872   2873   2876   2877     1  180.0000771  0.8368000  1
   2872   2873   2876   2877     1  180.0000771  1.0460000  2
   2872   2873   2876   2877     1  0.0000000  0.7531200  3
   2872   2873   2876   2884     1  0.0000000  0.6508444  3
   2872   2894   2878   2877     1  180.0000771  0.4184000  2
   2872   2894   2878   2877     1  0.0000000  1.6024720  3
   2872   2894   2878   2882     1  180.0000771  5.6484000  1
   2872   2894   2878   2882     1  180.0000771  3.5564000  2
   2872   2894   2878   2882     1  0.0000000  0.4184000  3
   2873   2872   2886   2892     1  0.0000000  0.6508444  3
   2873   2872   2894   2878     1  180.0000771  0.4184000  2
   2873   2872   2894   2878     1  0.0000000  1.6024720  3
   2873   2876   2877   2878     1  180.0000771  0.8368000  1
   2873   2876   2877   2878     1  180.0000771  1.0460000  2
   2873   2876   2877   2878     1  0.0000000  0.7531200  3
   2873   2876   2877   2883     1  0.0000000  0.6508444  3
   2876   2873   2872   2886     1  180.0000771  0.8368000  1
   2876   2873   2872   2886     1  180.0000771  1.0460000  2
   2876   2873   2872   2886     1  0.0000000  0.7531200  3
   2876   2873   2872   2894     1  0.0000000  0.6508444  3
   2876   2877   2878   2882     1  0.0000000  0.6508444  3
   2876   2877   2878   2894     1  0.0000000  0.6508444  3
   2877   2876   2873   2885     1  0.0000000  0.6508444  3
   2878   2877   2876   2884     1  0.0000000  0.6508444  3
   2878   2894   2872   2886     1  180.0000771  0.4184000  2
   2878   2894   2872   2886     1  0.0000000  1.6024720  3
   2882   2878   2877   2883     1  0.0000000  4.9162000  2
   2882   2878   2877   2883     1  0.0000000  0.6024960  3
   2883   2877   2876   2884     1  0.0000000  4.9162000  2
   2883   2877   2876   2884     1  0.0000000  0.6024960  3
   2883   2877   2878   2894     1  0.0000000  4.9162000  2
   2883   2877   2878   2894     1  0.0000000  0.6024960  3
   2884   2876   2873   2885     1  0.0000000  4.9162000  2
   2884   2876   2873   2885     1  0.0000000  0.6024960  3
   2885   2873   2872   2886     1  0.0000000  0.6508444  3
   2885   2873   2872   2894     1  0.0000000  4.9162000  2
   2885   2873   2872   2894     1  0.0000000  0.6024960  3
   2892   2886   2872   2894     1  0.0000000  4.9162000  2
   2892   2886   2872   2894     1  0.0000000  0.6024960  3
   2895   2896   2899   2900     1  180.0000771  0.8368000  1
   2895   2896   2899   2900     1  180.0000771  1.0460000  2
   2895   2896   2899   2900     1  0.0000000  0.7531200  3
   2895   2896   2899   2907     1  0.0000000  0.6508444  3
   2895   2917   2901   2905     1  180.0000771  5.6484000  1
   2895   2917   2901   2905     1  180.0000771  3.5564000  2
   2895   2917   2901   2905     1  0.0000000  0.4184000  3
   2895   2917   2901   2900     1  180.0000771  0.4184000  2
   2895   2917   2901   2900     1  0.0000000  1.6024720  3
   2896   2899   2900   2901     1  180.0000771  0.8368000  1
   2896   2899   2900   2901     1  180.0000771  1.0460000  2
   2896   2899   2900   2901     1  0.0000000  0.7531200  3
   2896   2899   2900   2906     1  0.0000000  0.6508444  3
   2896   2895   2909   2915     1  0.0000000  0.6508444  3
   2896   2895   2917   2901     1  180.0000771  0.4184000  2
   2896   2895   2917   2901     1  0.0000000  1.6024720  3
   2899   2900   2901   2905     1  0.0000000  0.6508444  3
   2899   2900   2901   2917     1  0.0000000  0.6508444  3
   2899   2896   2895   2909     1  180.0000771  0.8368000  1
   2899   2896   2895   2909     1  180.0000771  1.0460000  2
   2899   2896   2895   2909     1  0.0000000  0.7531200  3
   2899   2896   2895   2917     1  0.0000000  0.6508444  3
   2900   2899   2896   2908     1  0.0000000  0.6508444  3
   2901   2917   2895   2909     1  180.0000771  0.4184000  2
   2901   2917   2895   2909     1  0.0000000  1.6024720  3
   2901   2900   2899   2907     1  0.0000000  0.6508444  3
   2905   2901   2900   2906     1  0.0000000  4.9162000  2
   2905   2901   2900   2906     1  0.0000000  0.6024960  3
   2906   2900   2901   2917     1  0.0000000  4.9162000  2
   2906   2900   2901   2917     1  0.0000000  0.6024960  3
   2906   2900   2899   2907     1  0.0000000  4.9162000  2
   2906   2900   2899   2907     1  0.0000000  0.6024960  3
   2907   2899   2896   2908     1  0.0000000  4.9162000  2
   2907   2899   2896   2908     1  0.0000000  0.6024960  3
   2908   2896   2895   2909     1  0.0000000  0.6508444  3
   2908   2896   2895   2917     1  0.0000000  4.9162000  2
   2908   2896   2895   2917     1  0.0000000  0.6024960  3
   2915   2909   2895   2917     1  0.0000000  4.9162000  2
   2915   2909   2895   2917     1  0.0000000  0.6024960  3
   2918   2919   2922   2923     1  180.0000771  0.8368000  1
   2918   2919   2922   2923     1  180.0000771  1.0460000  2
   2918   2919   2922   2923     1  0.0000000  0.7531200  3
   2918   2919   2922   2930     1  0.0000000  0.6508444  3
   2918   2940   2924   2923     1  180.0000771  0.4184000  2
   2918   2940   2924   2923     1  0.0000000  1.6024720  3
   2918   2940   2924   2928     1  180.0000771  5.6484000  1
   2918   2940   2924   2928     1  180.0000771  3.5564000  2
   2918   2940   2924   2928     1  0.0000000  0.4184000  3
   2919   2918   2932   2938     1  0.0000000  0.6508444  3
   2919   2918   2940   2924     1  180.0000771  0.4184000  2
   2919   2918   2940   2924     1  0.0000000  1.6024720  3
   2919   2922   2923   2924     1  180.0000771  0.8368000  1
   2919   2922   2923   2924     1  180.0000771  1.0460000  2
   2919   2922   2923   2924     1  0.0000000  0.7531200  3
   2919   2922   2923   2929     1  0.0000000  0.6508444  3
   2922   2919   2918   2932     1  180.0000771  0.8368000  1
   2922   2919   2918   2932     1  180.0000771  1.0460000  2
   2922   2919   2918   2932     1  0.0000000  0.7531200  3
   2922   2919   2918   2940     1  0.0000000  0.6508444  3
   2922   2923   2924   2928     1  0.0000000  0.6508444  3
   2922   2923   2924   2940     1  0.0000000  0.6508444  3
   2923   2922   2919   2931     1  0.0000000  0.6508444  3
   2924   2923   2922   2930     1  0.0000000  0.6508444  3
   2924   2940   2918   2932     1  180.0000771  0.4184000  2
   2924   2940   2918   2932     1  0.0000000  1.6024720  3
   2928   2924   2923   2929     1  0.0000000  4.9162000  2
   2928   2924   2923   2929     1  0.0000000  0.6024960  3
   2929   2923   2922   2930     1  0.0000000  4.9162000  2
   2929   2923   2922   2930     1  0.0000000  0.6024960  3
   2929   2923   2924   2940     1  0.0000000  4.9162000  2
   2929   2923   2924   2940     1  0.0000000  0.6024960  3
   2930   2922   2919   2931     1  0.0000000  4.9162000  2
   2930   2922   2919   2931     1  0.0000000  0.6024960  3
   2931   2919   2918   2932     1  0.0000000  0.6508444  3
   2931   2919   2918   2940     1  0.0000000  4.9162000  2
   2931   2919   2918   2940     1  0.0000000  0.6024960  3
   2938   2932   2918   2940     1  0.0000000  4.9162000  2
   2938   2932   2918   2940     1  0.0000000  0.6024960  3
   2941   2942   2945   2946     1  180.0000771  0.8368000  1
   2941   2942   2945   2946     1  180.0000771  1.0460000  2
   2941   2942   2945   2946     1  0.0000000  0.7531200  3
   2941   2942   2945   2953     1  0.0000000  0.6508444  3
   2941   2963   2947   2951     1  180.0000771  5.6484000  1
   2941   2963   2947   2951     1  180.0000771  3.5564000  2
   2941   2963   2947   2951     1  0.0000000  0.4184000  3
   2941   2963   2947   2946     1  180.0000771  0.4184000  2
   2941   2963   2947   2946     1  0.0000000  1.6024720  3
   2942   2945   2946   2947     1  180.0000771  0.8368000  1
   2942   2945   2946   2947     1  180.0000771  1.0460000  2
   2942   2945   2946   2947     1  0.0000000  0.7531200  3
   2942   2945   2946   2952     1  0.0000000  0.6508444  3
   2942   2941   2955   2961     1  0.0000000  0.6508444  3
   2942   2941   2963   2947     1  180.0000771  0.4184000  2
   2942   2941   2963   2947     1  0.0000000  1.6024720  3
   2945   2946   2947   2951     1  0.0000000  0.6508444  3
   2945   2946   2947   2963     1  0.0000000  0.6508444  3
   2945   2942   2941   2955     1  180.0000771  0.8368000  1
   2945   2942   2941   2955     1  180.0000771  1.0460000  2
   2945   2942   2941   2955     1  0.0000000  0.7531200  3
   2945   2942   2941   2963     1  0.0000000  0.6508444  3
   2946   2945   2942   2954     1  0.0000000  0.6508444  3
   2947   2963   2941   2955     1  180.0000771  0.4184000  2
   2947   2963   2941   2955     1  0.0000000  1.6024720  3
   2947   2946   2945   2953     1  0.0000000  0.6508444  3
   2951   2947   2946   2952     1  0.0000000  4.9162000  2
   2951   2947   2946   2952     1  0.0000000  0.6024960  3
   2952   2946   2947   2963     1  0.0000000  4.9162000  2
   2952   2946   2947   2963     1  0.0000000  0.6024960  3
   2952   2946   2945   2953     1  0.0000000  4.9162000  2
   2952   2946   2945   2953     1  0.0000000  0.6024960  3
   2953   2945   2942   2954     1  0.0000000  4.9162000  2
   2953   2945   2942   2954     1  0.0000000  0.6024960  3
   2954   2942   2941   2955     1  0.0000000  0.6508444  3
   2954   2942   2941   2963     1  0.0000000  4.9162000  2
   2954   2942   2941   2963     1  0.0000000  0.6024960  3
   2961   2955   2941   2963     1  0.0000000  4.9162000  2
   2961   2955   2941   2963     1  0.0000000  0.6024960  3
   2964   2965   2968   2969     1  180.0000771  0.8368000  1
   2964   2965   2968   2969     1  180.0000771  1.0460000  2
   2964   2965   2968   2969     1  0.0000000  0.7531200  3
   2964   2965   2968   2976     1  0.0000000  0.6508444  3
   2964   2986   2970   2969     1  180.0000771  0.4184000  2
   2964   2986   2970   2969     1  0.0000000  1.6024720  3
   2964   2986   2970   2974     1  180.0000771  5.6484000  1
   2964   2986   2970   2974     1  180.0000771  3.5564000  2
   2964   2986   2970   2974     1  0.0000000  0.4184000  3
   2965   2964   2978   2984     1  0.0000000  0.6508444  3
   2965   2964   2986   2970     1  180.0000771  0.4184000  2
   2965   2964   2986   2970     1  0.0000000  1.6024720  3
   2965   2968   2969   2970     1  180.0000771  0.8368000  1
   2965   2968   2969   2970     1  180.0000771  1.0460000  2
   2965   2968   2969   2970     1  0.0000000  0.7531200  3
   2965   2968   2969   2975     1  0.0000000  0.6508444  3
   2968   2965   2964   2978     1  180.0000771  0.8368000  1
   2968   2965   2964   2978     1  180.0000771  1.0460000  2
   2968   2965   2964   2978     1  0.0000000  0.7531200  3
   2968   2965   2964   2986     1  0.0000000  0.6508444  3
   2968   2969   2970   2974     1  0.0000000  0.6508444  3
   2968   2969   2970   2986     1  0.0000000  0.6508444  3
   2969   2968   2965   2977     1  0.0000000  0.6508444  3
   2970   2969   2968   2976     1  0.0000000  0.6508444  3
   2970   2986   2964   2978     1  180.0000771  0.4184000  2
   2970   2986   2964   2978     1  0.0000000  1.6024720  3
   2974   2970   2969   2975     1  0.0000000  4.9162000  2
   2974   2970   2969   2975     1  0.0000000  0.6024960  3
   2975   2969   2968   2976     1  0.0000000  4.9162000  2
   2975   2969   2968   2976     1  0.0000000  0.6024960  3
   2975   2969   2970   2986     1  0.0000000  4.9162000  2
   2975   2969   2970   2986     1  0.0000000  0.6024960  3
   2976   2968   2965   2977     1  0.0000000  4.9162000  2
   2976   2968   2965   2977     1  0.0000000  0.6024960  3
   2977   2965   2964   2978     1  0.0000000  0.6508444  3
   2977   2965   2964   2986     1  0.0000000  4.9162000  2
   2977   2965   2964   2986     1  0.0000000  0.6024960  3
   2984   2978   2964   2986     1  0.0000000  4.9162000  2
   2984   2978   2964   2986     1  0.0000000  0.6024960  3
   2987   2988   2991   2992     1  180.0000771  0.8368000  1
   2987   2988   2991   2992     1  180.0000771  1.0460000  2
   2987   2988   2991   2992     1  0.0000000  0.7531200  3
   2987   2988   2991   2999     1  0.0000000  0.6508444  3
   2987   3009   2993   2997     1  180.0000771  5.6484000  1
   2987   3009   2993   2997     1  180.0000771  3.5564000  2
   2987   3009   2993   2997     1  0.0000000  0.4184000  3
   2987   3009   2993   2992     1  180.0000771  0.4184000  2
   2987   3009   2993   2992     1  0.0000000  1.6024720  3
   2988   2991   2992   2993     1  180.0000771  0.8368000  1
   2988   2991   2992   2993     1  180.0000771  1.0460000  2
   2988   2991   2992   2993     1  0.0000000  0.7531200  3
   2988   2991   2992   2998     1  0.0000000  0.6508444  3
   2988   2987   3001   3007     1  0.0000000  0.6508444  3
   2988   2987   3009   2993     1  180.0000771  0.4184000  2
   2988   2987   3009   2993     1  0.0000000  1.6024720  3
   2991   2992   2993   2997     1  0.0000000  0.6508444  3
   2991   2992   2993   3009     1  0.0000000  0.6508444  3
   2991   2988   2987   3001     1  180.0000771  0.8368000  1
   2991   2988   2987   3001     1  180.0000771  1.0460000  2
   2991   2988   2987   3001     1  0.0000000  0.7531200  3
   2991   2988   2987   3009     1  0.0000000  0.6508444  3
   2992   2991   2988   3000     1  0.0000000  0.6508444  3
   2993   3009   2987   3001     1  180.0000771  0.4184000  2
   2993   3009   2987   3001     1  0.0000000  1.6024720  3
   2993   2992   2991   2999     1  0.0000000  0.6508444  3
   2997   2993   2992   2998     1  0.0000000  4.9162000  2
   2997   2993   2992   2998     1  0.0000000  0.6024960  3
   2998   2992   2993   3009     1  0.0000000  4.9162000  2
   2998   2992   2993   3009     1  0.0000000  0.6024960  3
   2998   2992   2991   2999     1  0.0000000  4.9162000  2
   2998   2992   2991   2999     1  0.0000000  0.6024960  3
   2999   2991   2988   3000     1  0.0000000  4.9162000  2
   2999   2991   2988   3000     1  0.0000000  0.6024960  3
   3000   2988   2987   3001     1  0.0000000  0.6508444  3
   3000   2988   2987   3009     1  0.0000000  4.9162000  2
   3000   2988   2987   3009     1  0.0000000  0.6024960  3
   3007   3001   2987   3009     1  0.0000000  4.9162000  2
   3007   3001   2987   3009     1  0.0000000  0.6024960  3
   3010   3011   3014   3015     1  180.0000771  0.8368000  1
   3010   3011   3014   3015     1  180.0000771  1.0460000  2
   3010   3011   3014   3015     1  0.0000000  0.7531200  3
   3010   3011   3014   3022     1  0.0000000  0.6508444  3
   3010   3032   3016   3015     1  180.0000771  0.4184000  2
   3010   3032   3016   3015     1  0.0000000  1.6024720  3
   3010   3032   3016   3020     1  180.0000771  5.6484000  1
   3010   3032   3016   3020     1  180.0000771  3.5564000  2
   3010   3032   3016   3020     1  0.0000000  0.4184000  3
   3011   3010   3024   3030     1  0.0000000  0.6508444  3
   3011   3010   3032   3016     1  180.0000771  0.4184000  2
   3011   3010   3032   3016     1  0.0000000  1.6024720  3
   3011   3014   3015   3016     1  180.0000771  0.8368000  1
   3011   3014   3015   3016     1  180.0000771  1.0460000  2
   3011   3014   3015   3016     1  0.0000000  0.7531200  3
   3011   3014   3015   3021     1  0.0000000  0.6508444  3
   3014   3011   3010   3024     1  180.0000771  0.8368000  1
   3014   3011   3010   3024     1  180.0000771  1.0460000  2
   3014   3011   3010   3024     1  0.0000000  0.7531200  3
   3014   3011   3010   3032     1  0.0000000  0.6508444  3
   3014   3015   3016   3020     1  0.0000000  0.6508444  3
   3014   3015   3016   3032     1  0.0000000  0.6508444  3
   3015   3014   3011   3023     1  0.0000000  0.6508444  3
   3016   3015   3014   3022     1  0.0000000  0.6508444  3
   3016   3032   3010   3024     1  180.0000771  0.4184000  2
   3016   3032   3010   3024     1  0.0000000  1.6024720  3
   3020   3016   3015   3021     1  0.0000000  4.9162000  2
   3020   3016   3015   3021     1  0.0000000  0.6024960  3
   3021   3015   3014   3022     1  0.0000000  4.9162000  2
   3021   3015   3014   3022     1  0.0000000  0.6024960  3
   3021   3015   3016   3032     1  0.0000000  4.9162000  2
   3021   3015   3016   3032     1  0.0000000  0.6024960  3
   3022   3014   3011   3023     1  0.0000000  4.9162000  2
   3022   3014   3011   3023     1  0.0000000  0.6024960  3
   3023   3011   3010   3024     1  0.0000000  0.6508444  3
   3023   3011   3010   3032     1  0.0000000  4.9162000  2
   3023   3011   3010   3032     1  0.0000000  0.6024960  3
   3030   3024   3010   3032     1  0.0000000  4.9162000  2
   3030   3024   3010   3032     1  0.0000000  0.6024960  3
   3033   3034   3037   3038     1  180.0000771  0.8368000  1
   3033   3034   3037   3038     1  180.0000771  1.0460000  2
   3033   3034   3037   3038     1  0.0000000  0.7531200  3
   3033   3034   3037   3045     1  0.0000000  0.6508444  3
   3033   3055   3039   3043     1  180.0000771  5.6484000  1
   3033   3055   3039   3043     1  180.0000771  3.5564000  2
   3033   3055   3039   3043     1  0.0000000  0.4184000  3
   3033   3055   3039   3038     1  180.0000771  0.4184000  2
   3033   3055   3039   3038     1  0.0000000  1.6024720  3
   3034   3037   3038   3039     1  180.0000771  0.8368000  1
   3034   3037   3038   3039     1  180.0000771  1.0460000  2
   3034   3037   3038   3039     1  0.0000000  0.7531200  3
   3034   3037   3038   3044     1  0.0000000  0.6508444  3
   3034   3033   3047   3053     1  0.0000000  0.6508444  3
   3034   3033   3055   3039     1  180.0000771  0.4184000  2
   3034   3033   3055   3039     1  0.0000000  1.6024720  3
   3037   3038   3039   3043     1  0.0000000  0.6508444  3
   3037   3038   3039   3055     1  0.0000000  0.6508444  3
   3037   3034   3033   3047     1  180.0000771  0.8368000  1
   3037   3034   3033   3047     1  180.0000771  1.0460000  2
   3037   3034   3033   3047     1  0.0000000  0.7531200  3
   3037   3034   3033   3055     1  0.0000000  0.6508444  3
   3038   3037   3034   3046     1  0.0000000  0.6508444  3
   3039   3055   3033   3047     1  180.0000771  0.4184000  2
   3039   3055   3033   3047     1  0.0000000  1.6024720  3
   3039   3038   3037   3045     1  0.0000000  0.6508444  3
   3043   3039   3038   3044     1  0.0000000  4.9162000  2
   3043   3039   3038   3044     1  0.0000000  0.6024960  3
   3044   3038   3039   3055     1  0.0000000  4.9162000  2
   3044   3038   3039   3055     1  0.0000000  0.6024960  3
   3044   3038   3037   3045     1  0.0000000  4.9162000  2
   3044   3038   3037   3045     1  0.0000000  0.6024960  3
   3045   3037   3034   3046     1  0.0000000  4.9162000  2
   3045   3037   3034   3046     1  0.0000000  0.6024960  3
   3046   3034   3033   3047     1  0.0000000  0.6508444  3
   3046   3034   3033   3055     1  0.0000000  4.9162000  2
   3046   3034   3033   3055     1  0.0000000  0.6024960  3
   3053   3047   3033   3055     1  0.0000000  4.9162000  2
   3053   3047   3033   3055     1  0.0000000  0.6024960  3
   3056   3057   3060   3061     1  180.0000771  0.8368000  1
   3056   3057   3060   3061     1  180.0000771  1.0460000  2
   3056   3057   3060   3061     1  0.0000000  0.7531200  3
   3056   3057   3060   3068     1  0.0000000  0.6508444  3
   3056   3078   3062   3061     1  180.0000771  0.4184000  2
   3056   3078   3062   3061     1  0.0000000  1.6024720  3
   3056   3078   3062   3066     1  180.0000771  5.6484000  1
   3056   3078   3062   3066     1  180.0000771  3.5564000  2
   3056   3078   3062   3066     1  0.0000000  0.4184000  3
   3057   3056   3070   3076     1  0.0000000  0.6508444  3
   3057   3056   3078   3062     1  180.0000771  0.4184000  2
   3057   3056   3078   3062     1  0.0000000  1.6024720  3
   3057   3060   3061   3062     1  180.0000771  0.8368000  1
   3057   3060   3061   3062     1  180.0000771  1.0460000  2
   3057   3060   3061   3062     1  0.0000000  0.7531200  3
   3057   3060   3061   3067     1  0.0000000  0.6508444  3
   3060   3057   3056   3070     1  180.0000771  0.8368000  1
   3060   3057   3056   3070     1  180.0000771  1.0460000  2
   3060   3057   3056   3070     1  0.0000000  0.7531200  3
   3060   3057   3056   3078     1  0.0000000  0.6508444  3
   3060   3061   3062   3066     1  0.0000000  0.6508444  3
   3060   3061   3062   3078     1  0.0000000  0.6508444  3
   3061   3060   3057   3069     1  0.0000000  0.6508444  3
   3062   3061   3060   3068     1  0.0000000  0.6508444  3
   3062   3078   3056   3070     1  180.0000771  0.4184000  2
   3062   3078   3056   3070     1  0.0000000  1.6024720  3
   3066   3062   3061   3067     1  0.0000000  4.9162000  2
   3066   3062   3061   3067     1  0.0000000  0.6024960  3
   3067   3061   3060   3068     1  0.0000000  4.9162000  2
   3067   3061   3060   3068     1  0.0000000  0.6024960  3
   3067   3061   3062   3078     1  0.0000000  4.9162000  2
   3067   3061   3062   3078     1  0.0000000  0.6024960  3
   3068   3060   3057   3069     1  0.0000000  4.9162000  2
   3068   3060   3057   3069     1  0.0000000  0.6024960  3
   3069   3057   3056   3070     1  0.0000000  0.6508444  3
   3069   3057   3056   3078     1  0.0000000  4.9162000  2
   3069   3057   3056   3078     1  0.0000000  0.6024960  3
   3076   3070   3056   3078     1  0.0000000  4.9162000  2
   3076   3070   3056   3078     1  0.0000000  0.6024960  3
   3079   3080   3083   3084     1  180.0000771  0.8368000  1
   3079   3080   3083   3084     1  180.0000771  1.0460000  2
   3079   3080   3083   3084     1  0.0000000  0.7531200  3
   3079   3080   3083   3091     1  0.0000000  0.6508444  3
   3079   3101   3085   3089     1  180.0000771  5.6484000  1
   3079   3101   3085   3089     1  180.0000771  3.5564000  2
   3079   3101   3085   3089     1  0.0000000  0.4184000  3
   3079   3101   3085   3084     1  180.0000771  0.4184000  2
   3079   3101   3085   3084     1  0.0000000  1.6024720  3
   3080   3083   3084   3085     1  180.0000771  0.8368000  1
   3080   3083   3084   3085     1  180.0000771  1.0460000  2
   3080   3083   3084   3085     1  0.0000000  0.7531200  3
   3080   3083   3084   3090     1  0.0000000  0.6508444  3
   3080   3079   3093   3099     1  0.0000000  0.6508444  3
   3080   3079   3101   3085     1  180.0000771  0.4184000  2
   3080   3079   3101   3085     1  0.0000000  1.6024720  3
   3083   3084   3085   3089     1  0.0000000  0.6508444  3
   3083   3084   3085   3101     1  0.0000000  0.6508444  3
   3083   3080   3079   3093     1  180.0000771  0.8368000  1
   3083   3080   3079   3093     1  180.0000771  1.0460000  2
   3083   3080   3079   3093     1  0.0000000  0.7531200  3
   3083   3080   3079   3101     1  0.0000000  0.6508444  3
   3084   3083   3080   3092     1  0.0000000  0.6508444  3
   3085   3101   3079   3093     1  180.0000771  0.4184000  2
   3085   3101   3079   3093     1  0.0000000  1.6024720  3
   3085   3084   3083   3091     1  0.0000000  0.6508444  3
   3089   3085   3084   3090     1  0.0000000  4.9162000  2
   3089   3085   3084   3090     1  0.0000000  0.6024960  3
   3090   3084   3085   3101     1  0.0000000  4.9162000  2
   3090   3084   3085   3101     1  0.0000000  0.6024960  3
   3090   3084   3083   3091     1  0.0000000  4.9162000  2
   3090   3084   3083   3091     1  0.0000000  0.6024960  3
   3091   3083   3080   3092     1  0.0000000  4.9162000  2
   3091   3083   3080   3092     1  0.0000000  0.6024960  3
   3092   3080   3079   3093     1  0.0000000  0.6508444  3
   3092   3080   3079   3101     1  0.0000000  4.9162000  2
   3092   3080   3079   3101     1  0.0000000  0.6024960  3
   3099   3093   3079   3101     1  0.0000000  4.9162000  2
   3099   3093   3079   3101     1  0.0000000  0.6024960  3
   3102   3103   3106   3107     1  180.0000771  0.8368000  1
   3102   3103   3106   3107     1  180.0000771  1.0460000  2
   3102   3103   3106   3107     1  0.0000000  0.7531200  3
   3102   3103   3106   3114     1  0.0000000  0.6508444  3
   3102   3124   3108   3107     1  180.0000771  0.4184000  2
   3102   3124   3108   3107     1  0.0000000  1.6024720  3
   3102   3124   3108   3112     1  180.0000771  5.6484000  1
   3102   3124   3108   3112     1  180.0000771  3.5564000  2
   3102   3124   3108   3112     1  0.0000000  0.4184000  3
   3103   3102   3116   3122     1  0.0000000  0.6508444  3
   3103   3102   3124   3108     1  180.0000771  0.4184000  2
   3103   3102   3124   3108     1  0.0000000  1.6024720  3
   3103   3106   3107   3108     1  180.0000771  0.8368000  1
   3103   3106   3107   3108     1  180.0000771  1.0460000  2
   3103   3106   3107   3108     1  0.0000000  0.7531200  3
   3103   3106   3107   3113     1  0.0000000  0.6508444  3
   3106   3103   3102   3116     1  180.0000771  0.8368000  1
   3106   3103   3102   3116     1  180.0000771  1.0460000  2
   3106   3103   3102   3116     1  0.0000000  0.7531200  3
   3106   3103   3102   3124     1  0.0000000  0.6508444  3
   3106   3107   3108   3112     1  0.0000000  0.6508444  3
   3106   3107   3108   3124     1  0.0000000  0.6508444  3
   3107   3106   3103   3115     1  0.0000000  0.6508444  3
   3108   3107   3106   3114     1  0.0000000  0.6508444  3
   3108   3124   3102   3116     1  180.0000771  0.4184000  2
   3108   3124   3102   3116     1  0.0000000  1.6024720  3
   3112   3108   3107   3113     1  0.0000000  4.9162000  2
   3112   3108   3107   3113     1  0.0000000  0.6024960  3
   3113   3107   3106   3114     1  0.0000000  4.9162000  2
   3113   3107   3106   3114     1  0.0000000  0.6024960  3
   3113   3107   3108   3124     1  0.0000000  4.9162000  2
   3113   3107   3108   3124     1  0.0000000  0.6024960  3
   3114   3106   3103   3115     1  0.0000000  4.9162000  2
   3114   3106   3103   3115     1  0.0000000  0.6024960  3
   3115   3103   3102   3116     1  0.0000000  0.6508444  3
   3115   3103   3102   3124     1  0.0000000  4.9162000  2
   3115   3103   3102   3124     1  0.0000000  0.6024960  3
   3122   3116   3102   3124     1  0.0000000  4.9162000  2
   3122   3116   3102   3124     1  0.0000000  0.6024960  3
   3125   3126   3129   3130     1  180.0000771  0.8368000  1
   3125   3126   3129   3130     1  180.0000771  1.0460000  2
   3125   3126   3129   3130     1  0.0000000  0.7531200  3
   3125   3126   3129   3137     1  0.0000000  0.6508444  3
   3125   3147   3131   3135     1  180.0000771  5.6484000  1
   3125   3147   3131   3135     1  180.0000771  3.5564000  2
   3125   3147   3131   3135     1  0.0000000  0.4184000  3
   3125   3147   3131   3130     1  180.0000771  0.4184000  2
   3125   3147   3131   3130     1  0.0000000  1.6024720  3
   3126   3129   3130   3131     1  180.0000771  0.8368000  1
   3126   3129   3130   3131     1  180.0000771  1.0460000  2
   3126   3129   3130   3131     1  0.0000000  0.7531200  3
   3126   3129   3130   3136     1  0.0000000  0.6508444  3
   3126   3125   3139   3145     1  0.0000000  0.6508444  3
   3126   3125   3147   3131     1  180.0000771  0.4184000  2
   3126   3125   3147   3131     1  0.0000000  1.6024720  3
   3129   3130   3131   3135     1  0.0000000  0.6508444  3
   3129   3130   3131   3147     1  0.0000000  0.6508444  3
   3129   3126   3125   3139     1  180.0000771  0.8368000  1
   3129   3126   3125   3139     1  180.0000771  1.0460000  2
   3129   3126   3125   3139     1  0.0000000  0.7531200  3
   3129   3126   3125   3147     1  0.0000000  0.6508444  3
   3130   3129   3126   3138     1  0.0000000  0.6508444  3
   3131   3147   3125   3139     1  180.0000771  0.4184000  2
   3131   3147   3125   3139     1  0.0000000  1.6024720  3
   3131   3130   3129   3137     1  0.0000000  0.6508444  3
   3135   3131   3130   3136     1  0.0000000  4.9162000  2
   3135   3131   3130   3136     1  0.0000000  0.6024960  3
   3136   3130   3131   3147     1  0.0000000  4.9162000  2
   3136   3130   3131   3147     1  0.0000000  0.6024960  3
   3136   3130   3129   3137     1  0.0000000  4.9162000  2
   3136   3130   3129   3137     1  0.0000000  0.6024960  3
   3137   3129   3126   3138     1  0.0000000  4.9162000  2
   3137   3129   3126   3138     1  0.0000000  0.6024960  3
   3138   3126   3125   3139     1  0.0000000  0.6508444  3
   3138   3126   3125   3147     1  0.0000000  4.9162000  2
   3138   3126   3125   3147     1  0.0000000  0.6024960  3
   3145   3139   3125   3147     1  0.0000000  4.9162000  2
   3145   3139   3125   3147     1  0.0000000  0.6024960  3
   3148   3149   3152   3153     1  180.0000771  0.8368000  1
   3148   3149   3152   3153     1  180.0000771  1.0460000  2
   3148   3149   3152   3153     1  0.0000000  0.7531200  3
   3148   3149   3152   3160     1  0.0000000  0.6508444  3
   3148   3170   3154   3153     1  180.0000771  0.4184000  2
   3148   3170   3154   3153     1  0.0000000  1.6024720  3
   3148   3170   3154   3158     1  180.0000771  5.6484000  1
   3148   3170   3154   3158     1  180.0000771  3.5564000  2
   3148   3170   3154   3158     1  0.0000000  0.4184000  3
   3149   3148   3162   3168     1  0.0000000  0.6508444  3
   3149   3148   3170   3154     1  180.0000771  0.4184000  2
   3149   3148   3170   3154     1  0.0000000  1.6024720  3
   3149   3152   3153   3154     1  180.0000771  0.8368000  1
   3149   3152   3153   3154     1  180.0000771  1.0460000  2
   3149   3152   3153   3154     1  0.0000000  0.7531200  3
   3149   3152   3153   3159     1  0.0000000  0.6508444  3
   3152   3149   3148   3162     1  180.0000771  0.8368000  1
   3152   3149   3148   3162     1  180.0000771  1.0460000  2
   3152   3149   3148   3162     1  0.0000000  0.7531200  3
   3152   3149   3148   3170     1  0.0000000  0.6508444  3
   3152   3153   3154   3158     1  0.0000000  0.6508444  3
   3152   3153   3154   3170     1  0.0000000  0.6508444  3
   3153   3152   3149   3161     1  0.0000000  0.6508444  3
   3154   3153   3152   3160     1  0.0000000  0.6508444  3
   3154   3170   3148   3162     1  180.0000771  0.4184000  2
   3154   3170   3148   3162     1  0.0000000  1.6024720  3
   3158   3154   3153   3159     1  0.0000000  4.9162000  2
   3158   3154   3153   3159     1  0.0000000  0.6024960  3
   3159   3153   3152   3160     1  0.0000000  4.9162000  2
   3159   3153   3152   3160     1  0.0000000  0.6024960  3
   3159   3153   3154   3170     1  0.0000000  4.9162000  2
   3159   3153   3154   3170     1  0.0000000  0.6024960  3
   3160   3152   3149   3161     1  0.0000000  4.9162000  2
   3160   3152   3149   3161     1  0.0000000  0.6024960  3
   3161   3149   3148   3162     1  0.0000000  0.6508444  3
   3161   3149   3148   3170     1  0.0000000  4.9162000  2
   3161   3149   3148   3170     1  0.0000000  0.6024960  3
   3168   3162   3148   3170     1  0.0000000  4.9162000  2
   3168   3162   3148   3170     1  0.0000000  0.6024960  3
   3171   3172   3175   3176     1  180.0000771  0.8368000  1
   3171   3172   3175   3176     1  180.0000771  1.0460000  2
   3171   3172   3175   3176     1  0.0000000  0.7531200  3
   3171   3172   3175   3183     1  0.0000000  0.6508444  3
   3171   3193   3177   3181     1  180.0000771  5.6484000  1
   3171   3193   3177   3181     1  180.0000771  3.5564000  2
   3171   3193   3177   3181     1  0.0000000  0.4184000  3
   3171   3193   3177   3176     1  180.0000771  0.4184000  2
   3171   3193   3177   3176     1  0.0000000  1.6024720  3
   3172   3175   3176   3177     1  180.0000771  0.8368000  1
   3172   3175   3176   3177     1  180.0000771  1.0460000  2
   3172   3175   3176   3177     1  0.0000000  0.7531200  3
   3172   3175   3176   3182     1  0.0000000  0.6508444  3
   3172   3171   3185   3191     1  0.0000000  0.6508444  3
   3172   3171   3193   3177     1  180.0000771  0.4184000  2
   3172   3171   3193   3177     1  0.0000000  1.6024720  3
   3175   3176   3177   3181     1  0.0000000  0.6508444  3
   3175   3176   3177   3193     1  0.0000000  0.6508444  3
   3175   3172   3171   3185     1  180.0000771  0.8368000  1
   3175   3172   3171   3185     1  180.0000771  1.0460000  2
   3175   3172   3171   3185     1  0.0000000  0.7531200  3
   3175   3172   3171   3193     1  0.0000000  0.6508444  3
   3176   3175   3172   3184     1  0.0000000  0.6508444  3
   3177   3193   3171   3185     1  180.0000771  0.4184000  2
   3177   3193   3171   3185     1  0.0000000  1.6024720  3
   3177   3176   3175   3183     1  0.0000000  0.6508444  3
   3181   3177   3176   3182     1  0.0000000  4.9162000  2
   3181   3177   3176   3182     1  0.0000000  0.6024960  3
   3182   3176   3177   3193     1  0.0000000  4.9162000  2
   3182   3176   3177   3193     1  0.0000000  0.6024960  3
   3182   3176   3175   3183     1  0.0000000  4.9162000  2
   3182   3176   3175   3183     1  0.0000000  0.6024960  3
   3183   3175   3172   3184     1  0.0000000  4.9162000  2
   3183   3175   3172   3184     1  0.0000000  0.6024960  3
   3184   3172   3171   3185     1  0.0000000  0.6508444  3
   3184   3172   3171   3193     1  0.0000000  4.9162000  2
   3184   3172   3171   3193     1  0.0000000  0.6024960  3
   3191   3185   3171   3193     1  0.0000000  4.9162000  2
   3191   3185   3171   3193     1  0.0000000  0.6024960  3
   3194   3195   3198   3199     1  180.0000771  0.8368000  1
   3194   3195   3198   3199     1  180.0000771  1.0460000  2
   3194   3195   3198   3199     1  0.0000000  0.7531200  3
   3194   3195   3198   3206     1  0.0000000  0.6508444  3
   3194   3216   3200   3199     1  180.0000771  0.4184000  2
   3194   3216   3200   3199     1  0.0000000  1.6024720  3
   3194   3216   3200   3204     1  180.0000771  5.6484000  1
   3194   3216   3200   3204     1  180.0000771  3.5564000  2
   3194   3216   3200   3204     1  0.0000000  0.4184000  3
   3195   3194   3208   3214     1  0.0000000  0.6508444  3
   3195   3194   3216   3200     1  180.0000771  0.4184000  2
   3195   3194   3216   3200     1  0.0000000  1.6024720  3
   3195   3198   3199   3200     1  180.0000771  0.8368000  1
   3195   3198   3199   3200     1  180.0000771  1.0460000  2
   3195   3198   3199   3200     1  0.0000000  0.7531200  3
   3195   3198   3199   3205     1  0.0000000  0.6508444  3
   3198   3195   3194   3208     1  180.0000771  0.8368000  1
   3198   3195   3194   3208     1  180.0000771  1.0460000  2
   3198   3195   3194   3208     1  0.0000000  0.7531200  3
   3198   3195   3194   3216     1  0.0000000  0.6508444  3
   3198   3199   3200   3204     1  0.0000000  0.6508444  3
   3198   3199   3200   3216     1  0.0000000  0.6508444  3
   3199   3198   3195   3207     1  0.0000000  0.6508444  3
   3200   3199   3198   3206     1  0.0000000  0.6508444  3
   3200   3216   3194   3208     1  180.0000771  0.4184000  2
   3200   3216   3194   3208     1  0.0000000  1.6024720  3
   3204   3200   3199   3205     1  0.0000000  4.9162000  2
   3204   3200   3199   3205     1  0.0000000  0.6024960  3
   3205   3199   3198   3206     1  0.0000000  4.9162000  2
   3205   3199   3198   3206     1  0.0000000  0.6024960  3
   3205   3199   3200   3216     1  0.0000000  4.9162000  2
   3205   3199   3200   3216     1  0.0000000  0.6024960  3
   3206   3198   3195   3207     1  0.0000000  4.9162000  2
   3206   3198   3195   3207     1  0.0000000  0.6024960  3
   3207   3195   3194   3208     1  0.0000000  0.6508444  3
   3207   3195   3194   3216     1  0.0000000  4.9162000  2
   3207   3195   3194   3216     1  0.0000000  0.6024960  3
   3214   3208   3194   3216     1  0.0000000  4.9162000  2
   3214   3208   3194   3216     1  0.0000000  0.6024960  3
   3217   3218   3221   3222     1  180.0000771  0.8368000  1
   3217   3218   3221   3222     1  180.0000771  1.0460000  2
   3217   3218   3221   3222     1  0.0000000  0.7531200  3
   3217   3218   3221   3229     1  0.0000000  0.6508444  3
   3217   3239   3223   3227     1  180.0000771  5.6484000  1
   3217   3239   3223   3227     1  180.0000771  3.5564000  2
   3217   3239   3223   3227     1  0.0000000  0.4184000  3
   3217   3239   3223   3222     1  180.0000771  0.4184000  2
   3217   3239   3223   3222     1  0.0000000  1.6024720  3
   3218   3221   3222   3223     1  180.0000771  0.8368000  1
   3218   3221   3222   3223     1  180.0000771  1.0460000  2
   3218   3221   3222   3223     1  0.0000000  0.7531200  3
   3218   3221   3222   3228     1  0.0000000  0.6508444  3
   3218   3217   3231   3237     1  0.0000000  0.6508444  3
   3218   3217   3239   3223     1  180.0000771  0.4184000  2
   3218   3217   3239   3223     1  0.0000000  1.6024720  3
   3221   3222   3223   3227     1  0.0000000  0.6508444  3
   3221   3222   3223   3239     1  0.0000000  0.6508444  3
   3221   3218   3217   3231     1  180.0000771  0.8368000  1
   3221   3218   3217   3231     1  180.0000771  1.0460000  2
   3221   3218   3217   3231     1  0.0000000  0.7531200  3
   3221   3218   3217   3239     1  0.0000000  0.6508444  3
   3222   3221   3218   3230     1  0.0000000  0.6508444  3
   3223   3239   3217   3231     1  180.0000771  0.4184000  2
   3223   3239   3217   3231     1  0.0000000  1.6024720  3
   3223   3222   3221   3229     1  0.0000000  0.6508444  3
   3227   3223   3222   3228     1  0.0000000  4.9162000  2
   3227   3223   3222   3228     1  0.0000000  0.6024960  3
   3228   3222   3223   3239     1  0.0000000  4.9162000  2
   3228   3222   3223   3239     1  0.0000000  0.6024960  3
   3228   3222   3221   3229     1  0.0000000  4.9162000  2
   3228   3222   3221   3229     1  0.0000000  0.6024960  3
   3229   3221   3218   3230     1  0.0000000  4.9162000  2
   3229   3221   3218   3230     1  0.0000000  0.6024960  3
   3230   3218   3217   3231     1  0.0000000  0.6508444  3
   3230   3218   3217   3239     1  0.0000000  4.9162000  2
   3230   3218   3217   3239     1  0.0000000  0.6024960  3
   3237   3231   3217   3239     1  0.0000000  4.9162000  2
   3237   3231   3217   3239     1  0.0000000  0.6024960  3
   3240   3241   3244   3245     1  180.0000771  0.8368000  1
   3240   3241   3244   3245     1  180.0000771  1.0460000  2
   3240   3241   3244   3245     1  0.0000000  0.7531200  3
   3240   3241   3244   3252     1  0.0000000  0.6508444  3
   3240   3262   3246   3245     1  180.0000771  0.4184000  2
   3240   3262   3246   3245     1  0.0000000  1.6024720  3
   3240   3262   3246   3250     1  180.0000771  5.6484000  1
   3240   3262   3246   3250     1  180.0000771  3.5564000  2
   3240   3262   3246   3250     1  0.0000000  0.4184000  3
   3241   3240   3254   3260     1  0.0000000  0.6508444  3
   3241   3240   3262   3246     1  180.0000771  0.4184000  2
   3241   3240   3262   3246     1  0.0000000  1.6024720  3
   3241   3244   3245   3246     1  180.0000771  0.8368000  1
   3241   3244   3245   3246     1  180.0000771  1.0460000  2
   3241   3244   3245   3246     1  0.0000000  0.7531200  3
   3241   3244   3245   3251     1  0.0000000  0.6508444  3
   3244   3241   3240   3254     1  180.0000771  0.8368000  1
   3244   3241   3240   3254     1  180.0000771  1.0460000  2
   3244   3241   3240   3254     1  0.0000000  0.7531200  3
   3244   3241   3240   3262     1  0.0000000  0.6508444  3
   3244   3245   3246   3250     1  0.0000000  0.6508444  3
   3244   3245   3246   3262     1  0.0000000  0.6508444  3
   3245   3244   3241   3253     1  0.0000000  0.6508444  3
   3246   3245   3244   3252     1  0.0000000  0.6508444  3
   3246   3262   3240   3254     1  180.0000771  0.4184000  2
   3246   3262   3240   3254     1  0.0000000  1.6024720  3
   3250   3246   3245   3251     1  0.0000000  4.9162000  2
   3250   3246   3245   3251     1  0.0000000  0.6024960  3
   3251   3245   3244   3252     1  0.0000000  4.9162000  2
   3251   3245   3244   3252     1  0.0000000  0.6024960  3
   3251   3245   3246   3262     1  0.0000000  4.9162000  2
   3251   3245   3246   3262     1  0.0000000  0.6024960  3
   3252   3244   3241   3253     1  0.0000000  4.9162000  2
   3252   3244   3241   3253     1  0.0000000  0.6024960  3
   3253   3241   3240   3254     1  0.0000000  0.6508444  3
   3253   3241   3240   3262     1  0.0000000  4.9162000  2
   3253   3241   3240   3262     1  0.0000000  0.6024960  3
   3260   3254   3240   3262     1  0.0000000  4.9162000  2
   3260   3254   3240   3262     1  0.0000000  0.6024960  3
   3263   3264   3267   3268     1  180.0000771  0.8368000  1
   3263   3264   3267   3268     1  180.0000771  1.0460000  2
   3263   3264   3267   3268     1  0.0000000  0.7531200  3
   3263   3264   3267   3275     1  0.0000000  0.6508444  3
   3263   3285   3269   3273     1  180.0000771  5.6484000  1
   3263   3285   3269   3273     1  180.0000771  3.5564000  2
   3263   3285   3269   3273     1  0.0000000  0.4184000  3
   3263   3285   3269   3268     1  180.0000771  0.4184000  2
   3263   3285   3269   3268     1  0.0000000  1.6024720  3
   3264   3267   3268   3269     1  180.0000771  0.8368000  1
   3264   3267   3268   3269     1  180.0000771  1.0460000  2
   3264   3267   3268   3269     1  0.0000000  0.7531200  3
   3264   3267   3268   3274     1  0.0000000  0.6508444  3
   3264   3263   3277   3283     1  0.0000000  0.6508444  3
   3264   3263   3285   3269     1  180.0000771  0.4184000  2
   3264   3263   3285   3269     1  0.0000000  1.6024720  3
   3267   3268   3269   3273     1  0.0000000  0.6508444  3
   3267   3268   3269   3285     1  0.0000000  0.6508444  3
   3267   3264   3263   3277     1  180.0000771  0.8368000  1
   3267   3264   3263   3277     1  180.0000771  1.0460000  2
   3267   3264   3263   3277     1  0.0000000  0.7531200  3
   3267   3264   3263   3285     1  0.0000000  0.6508444  3
   3268   3267   3264   3276     1  0.0000000  0.6508444  3
   3269   3285   3263   3277     1  180.0000771  0.4184000  2
   3269   3285   3263   3277     1  0.0000000  1.6024720  3
   3269   3268   3267   3275     1  0.0000000  0.6508444  3
   3273   3269   3268   3274     1  0.0000000  4.9162000  2
   3273   3269   3268   3274     1  0.0000000  0.6024960  3
   3274   3268   3269   3285     1  0.0000000  4.9162000  2
   3274   3268   3269   3285     1  0.0000000  0.6024960  3
   3274   3268   3267   3275     1  0.0000000  4.9162000  2
   3274   3268   3267   3275     1  0.0000000  0.6024960  3
   3275   3267   3264   3276     1  0.0000000  4.9162000  2
   3275   3267   3264   3276     1  0.0000000  0.6024960  3
   3276   3264   3263   3277     1  0.0000000  0.6508444  3
   3276   3264   3263   3285     1  0.0000000  4.9162000  2
   3276   3264   3263   3285     1  0.0000000  0.6024960  3
   3283   3277   3263   3285     1  0.0000000  4.9162000  2
   3283   3277   3263   3285     1  0.0000000  0.6024960  3
   3286   3287   3290   3291     1  180.0000771  0.8368000  1
   3286   3287   3290   3291     1  180.0000771  1.0460000  2
   3286   3287   3290   3291     1  0.0000000  0.7531200  3
   3286   3287   3290   3298     1  0.0000000  0.6508444  3
   3286   3308   3292   3291     1  180.0000771  0.4184000  2
   3286   3308   3292   3291     1  0.0000000  1.6024720  3
   3286   3308   3292   3296     1  180.0000771  5.6484000  1
   3286   3308   3292   3296     1  180.0000771  3.5564000  2
   3286   3308   3292   3296     1  0.0000000  0.4184000  3
   3287   3286   3300   3306     1  0.0000000  0.6508444  3
   3287   3286   3308   3292     1  180.0000771  0.4184000  2
   3287   3286   3308   3292     1  0.0000000  1.6024720  3
   3287   3290   3291   3292     1  180.0000771  0.8368000  1
   3287   3290   3291   3292     1  180.0000771  1.0460000  2
   3287   3290   3291   3292     1  0.0000000  0.7531200  3
   3287   3290   3291   3297     1  0.0000000  0.6508444  3
   3290   3287   3286   3300     1  180.0000771  0.8368000  1
   3290   3287   3286   3300     1  180.0000771  1.0460000  2
   3290   3287   3286   3300     1  0.0000000  0.7531200  3
   3290   3287   3286   3308     1  0.0000000  0.6508444  3
   3290   3291   3292   3296     1  0.0000000  0.6508444  3
   3290   3291   3292   3308     1  0.0000000  0.6508444  3
   3291   3290   3287   3299     1  0.0000000  0.6508444  3
   3292   3291   3290   3298     1  0.0000000  0.6508444  3
   3292   3308   3286   3300     1  180.0000771  0.4184000  2
   3292   3308   3286   3300     1  0.0000000  1.6024720  3
   3296   3292   3291   3297     1  0.0000000  4.9162000  2
   3296   3292   3291   3297     1  0.0000000  0.6024960  3
   3297   3291   3290   3298     1  0.0000000  4.9162000  2
   3297   3291   3290   3298     1  0.0000000  0.6024960  3
   3297   3291   3292   3308     1  0.0000000  4.9162000  2
   3297   3291   3292   3308     1  0.0000000  0.6024960  3
   3298   3290   3287   3299     1  0.0000000  4.9162000  2
   3298   3290   3287   3299     1  0.0000000  0.6024960  3
   3299   3287   3286   3300     1  0.0000000  0.6508444  3
   3299   3287   3286   3308     1  0.0000000  4.9162000  2
   3299   3287   3286   3308     1  0.0000000  0.6024960  3
   3306   3300   3286   3308     1  0.0000000  4.9162000  2
   3306   3300   3286   3308     1  0.0000000  0.6024960  3
   3309   3310   3313   3314     1  180.0000771  0.8368000  1
   3309   3310   3313   3314     1  180.0000771  1.0460000  2
   3309   3310   3313   3314     1  0.0000000  0.7531200  3
   3309   3310   3313   3321     1  0.0000000  0.6508444  3
   3309   3331   3315   3319     1  180.0000771  5.6484000  1
   3309   3331   3315   3319     1  180.0000771  3.5564000  2
   3309   3331   3315   3319     1  0.0000000  0.4184000  3
   3309   3331   3315   3314     1  180.0000771  0.4184000  2
   3309   3331   3315   3314     1  0.0000000  1.6024720  3
   3310   3313   3314   3315     1  180.0000771  0.8368000  1
   3310   3313   3314   3315     1  180.0000771  1.0460000  2
   3310   3313   3314   3315     1  0.0000000  0.7531200  3
   3310   3313   3314   3320     1  0.0000000  0.6508444  3
   3310   3309   3323   3329     1  0.0000000  0.6508444  3
   3310   3309   3331   3315     1  180.0000771  0.4184000  2
   3310   3309   3331   3315     1  0.0000000  1.6024720  3
   3313   3314   3315   3319     1  0.0000000  0.6508444  3
   3313   3314   3315   3331     1  0.0000000  0.6508444  3
   3313   3310   3309   3323     1  180.0000771  0.8368000  1
   3313   3310   3309   3323     1  180.0000771  1.0460000  2
   3313   3310   3309   3323     1  0.0000000  0.7531200  3
   3313   3310   3309   3331     1  0.0000000  0.6508444  3
   3314   3313   3310   3322     1  0.0000000  0.6508444  3
   3315   3331   3309   3323     1  180.0000771  0.4184000  2
   3315   3331   3309   3323     1  0.0000000  1.6024720  3
   3315   3314   3313   3321     1  0.0000000  0.6508444  3
   3319   3315   3314   3320     1  0.0000000  4.9162000  2
   3319   3315   3314   3320     1  0.0000000  0.6024960  3
   3320   3314   3315   3331     1  0.0000000  4.9162000  2
   3320   3314   3315   3331     1  0.0000000  0.6024960  3
   3320   3314   3313   3321     1  0.0000000  4.9162000  2
   3320   3314   3313   3321     1  0.0000000  0.6024960  3
   3321   3313   3310   3322     1  0.0000000  4.9162000  2
   3321   3313   3310   3322     1  0.0000000  0.6024960  3
   3322   3310   3309   3323     1  0.0000000  0.6508444  3
   3322   3310   3309   3331     1  0.0000000  4.9162000  2
   3322   3310   3309   3331     1  0.0000000  0.6024960  3
   3329   3323   3309   3331     1  0.0000000  4.9162000  2
   3329   3323   3309   3331     1  0.0000000  0.6024960  3
      1      2      8      9     1  0.0000000  1.0460000  1
      1      2      8      9     1  0.0000000  0.0000000  3
      1      2      8     10     1  0.0000000  1.0460000  1
      1      2      8     10     1  0.0000000  0.0000000  3
      1      5     11     12     1  0.0000000  1.0460000  1
      1      5     11     12     1  0.0000000  0.0000000  3
      1      5     11     13     1  0.0000000  1.0460000  1
      1      5     11     13     1  0.0000000  0.0000000  3
      2      1      5      6     1  0.0000000  1.6038667  3
      2      1      5      7     1  0.0000000  1.6038667  3
      2      8     14     15     1  0.0000000  0.6508444  3
      2      8     14     16     1  0.0000000  0.6508444  3
      5      1      2      3     1  0.0000000  1.6038667  3
      3      2      8     14     1  0.0000000  0.6508444  3
      3      2      8      9     1  0.0000000  0.6508444  3
      3      2      8     10     1  0.0000000  0.6508444  3
      5      1      2      4     1  0.0000000  1.6038667  3
      4      2      8     14     1  0.0000000  0.6508444  3
      4      2      8      9     1  0.0000000  0.6508444  3
      4      2      8     10     1  0.0000000  0.6508444  3
      5     11     17     18     1  0.0000000  0.6508444  3
      5     11     17     19     1  0.0000000  0.6508444  3
      6      5     11     17     1  0.0000000  0.6508444  3
      6      5     11     12     1  0.0000000  0.6508444  3
      6      5     11     13     1  0.0000000  0.6508444  3
      7      5     11     17     1  0.0000000  0.6508444  3
      7      5     11     12     1  0.0000000  0.6508444  3
      7      5     11     13     1  0.0000000  0.6508444  3
      8     14     20     58     1  0.0000000  0.6508444  3
      9      8     14     20     1  0.0000000  0.6508444  3
      9      8     14     15     1  0.0000000  0.6508444  3
      9      8     14     16     1  0.0000000  0.6508444  3
     10      8     14     20     1  0.0000000  0.6508444  3
     10      8     14     15     1  0.0000000  0.6508444  3
     10      8     14     16     1  0.0000000  0.6508444  3
     11     17     21     59     1  0.0000000  0.6508444  3
     12     11     17     21     1  0.0000000  0.6508444  3
     12     11     17     18     1  0.0000000  0.6508444  3
     12     11     17     19     1  0.0000000  0.6508444  3
     13     11     17     21     1  0.0000000  0.6508444  3
     13     11     17     18     1  0.0000000  0.6508444  3
     13     11     17     19     1  0.0000000  0.6508444  3
     14     20     28     29     1  0.0000000  0.6508444  3
     14     20     28     30     1  0.0000000  0.6508444  3
     14     20     31     32     1  0.0000000  0.6508444  3
     14     20     31     33     1  0.0000000  0.6508444  3
     15     14     20     28     1  0.0000000  0.6508444  3
     15     14     20     31     1  0.0000000  0.6508444  3
     15     14     20     58     1  0.0000000  0.6508444  3
     16     14     20     28     1  0.0000000  0.6508444  3
     16     14     20     31     1  0.0000000  0.6508444  3
     16     14     20     58     1  0.0000000  0.6508444  3
     17     21     22     23     1  0.0000000  0.6508444  3
     17     21     22     24     1  0.0000000  0.6508444  3
     17     21     25     26     1  0.0000000  0.6508444  3
     17     21     25     27     1  0.0000000  0.6508444  3
     18     17     21     22     1  0.0000000  0.6508444  3
     18     17     21     25     1  0.0000000  0.6508444  3
     18     17     21     59     1  0.0000000  0.6508444  3
     19     17     21     22     1  0.0000000  0.6508444  3
     19     17     21     25     1  0.0000000  0.6508444  3
     19     17     21     59     1  0.0000000  0.6508444  3
     20     28     40     41     1  0.0000000  0.6508444  3
     20     28     40     42     1  0.0000000  0.6508444  3
     20     31     43     44     1  0.0000000  0.6508444  3
     20     31     43     45     1  0.0000000  0.6508444  3
     21     22     34     35     1  0.0000000  0.6508444  3
     21     22     34     36     1  0.0000000  0.6508444  3
     21     25     37     38     1  0.0000000  0.6508444  3
     21     25     37     39     1  0.0000000  0.6508444  3
     22     21     25     26     1  0.0000000  0.6508444  3
     22     21     25     27     1  0.0000000  0.6508444  3
     22     34     55     56     1  0.0000000  0.6694400  3
     22     34     55     57     1  0.0000000  0.6694400  3
     23     22     21     25     1  0.0000000  0.6508444  3
     23     22     21     59     1  0.0000000  0.6508444  3
     23     22     34     55     1  0.0000000  0.6508444  3
     23     22     34     35     1  0.0000000  0.6508444  3
     23     22     34     36     1  0.0000000  0.6508444  3
     24     22     21     25     1  0.0000000  0.6508444  3
     24     22     21     59     1  0.0000000  0.6508444  3
     24     22     34     55     1  0.0000000  0.6508444  3
     24     22     34     35     1  0.0000000  0.6508444  3
     24     22     34     36     1  0.0000000  0.6508444  3
     25     37     52     53     1  0.0000000  0.6694400  3
     25     37     52     54     1  0.0000000  0.6694400  3
     26     25     21     59     1  0.0000000  0.6508444  3
     26     25     37     52     1  0.0000000  0.6508444  3
     26     25     37     38     1  0.0000000  0.6508444  3
     26     25     37     39     1  0.0000000  0.6508444  3
     27     25     21     59     1  0.0000000  0.6508444  3
     27     25     37     52     1  0.0000000  0.6508444  3
     27     25     37     38     1  0.0000000  0.6508444  3
     27     25     37     39     1  0.0000000  0.6508444  3
     28     20     31     32     1  0.0000000  0.6508444  3
     28     20     31     33     1  0.0000000  0.6508444  3
     28     40     49     50     1  0.0000000  0.6694400  3
     28     40     49     51     1  0.0000000  0.6694400  3
     29     28     20     31     1  0.0000000  0.6508444  3
     29     28     20     58     1  0.0000000  0.6508444  3
     29     28     40     49     1  0.0000000  0.6508444  3
     29     28     40     41     1  0.0000000  0.6508444  3
     29     28     40     42     1  0.0000000  0.6508444  3
     30     28     20     31     1  0.0000000  0.6508444  3
     30     28     20     58     1  0.0000000  0.6508444  3
     30     28     40     49     1  0.0000000  0.6508444  3
     30     28     40     41     1  0.0000000  0.6508444  3
     30     28     40     42     1  0.0000000  0.6508444  3
     31     43     46     47     1  0.0000000  0.6694400  3
     31     43     46     48     1  0.0000000  0.6694400  3
     32     31     20     58     1  0.0000000  0.6508444  3
     32     31     43     46     1  0.0000000  0.6508444  3
     32     31     43     44     1  0.0000000  0.6508444  3
     32     31     43     45     1  0.0000000  0.6508444  3
     33     31     20     58     1  0.0000000  0.6508444  3
     33     31     43     46     1  0.0000000  0.6508444  3
     33     31     43     44     1  0.0000000  0.6508444  3
     33     31     43     45     1  0.0000000  0.6508444  3
     34     22     21     59     1  0.0000000  0.6508444  3
     35     34     55    178     1  0.0000000  1.0460000  1
     35     34     55    178     1  0.0000000  0.0000000  3
     35     34     55     56     1  0.0000000  0.6276000  3
     35     34     55     57     1  0.0000000  0.6276000  3
     36     34     55    178     1  0.0000000  1.0460000  1
     36     34     55    178     1  0.0000000  0.0000000  3
     36     34     55     56     1  0.0000000  0.6276000  3
     36     34     55     57     1  0.0000000  0.6276000  3
     37     25     21     59     1  0.0000000  0.6508444  3
     38     37     52    148     1  0.0000000  1.0460000  1
     38     37     52    148     1  0.0000000  0.0000000  3
     38     37     52     53     1  0.0000000  0.6276000  3
     38     37     52     54     1  0.0000000  0.6276000  3
     39     37     52    148     1  0.0000000  1.0460000  1
     39     37     52    148     1  0.0000000  0.0000000  3
     39     37     52     53     1  0.0000000  0.6276000  3
     39     37     52     54     1  0.0000000  0.6276000  3
     40     28     20     58     1  0.0000000  0.6508444  3
     41     40     49    118     1  0.0000000  1.0460000  1
     41     40     49    118     1  0.0000000  0.0000000  3
     41     40     49     50     1  0.0000000  0.6276000  3
     41     40     49     51     1  0.0000000  0.6276000  3
     42     40     49    118     1  0.0000000  1.0460000  1
     42     40     49    118     1  0.0000000  0.0000000  3
     42     40     49     50     1  0.0000000  0.6276000  3
     42     40     49     51     1  0.0000000  0.6276000  3
     43     31     20     58     1  0.0000000  0.6508444  3
     44     43     46     88     1  0.0000000  1.0460000  1
     44     43     46     88     1  0.0000000  0.0000000  3
     44     43     46     47     1  0.0000000  0.6276000  3
     44     43     46     48     1  0.0000000  0.6276000  3
     45     43     46     88     1  0.0000000  1.0460000  1
     45     43     46     88     1  0.0000000  0.0000000  3
     45     43     46     47     1  0.0000000  0.6276000  3
     45     43     46     48     1  0.0000000  0.6276000  3
     46     88     79     80     1  0.0000000  1.6038667  3
     46     88     79     81     1  0.0000000  1.6038667  3
     47     46     88     79     1  0.0000000  1.6038667  3
     48     46     88     79     1  0.0000000  1.6038667  3
     49    118    109    110     1  0.0000000  1.6038667  3
     49    118    109    111     1  0.0000000  1.6038667  3
     50     49    118    109     1  0.0000000  1.6038667  3
     51     49    118    109     1  0.0000000  1.6038667  3
     52    148    139    140     1  0.0000000  1.6038667  3
     52    148    139    141     1  0.0000000  1.6038667  3
     53     52    148    139     1  0.0000000  1.6038667  3
     54     52    148    139     1  0.0000000  1.6038667  3
     55    178    169    170     1  0.0000000  1.6038667  3
     55    178    169    171     1  0.0000000  1.6038667  3
     56     55    178    169     1  0.0000000  1.6038667  3
     57     55    178    169     1  0.0000000  1.6038667  3
     60     61     73     74     1  0.0000000  0.6508444  3
     60     61     73     75     1  0.0000000  0.6508444  3
     60     64     76     77     1  0.0000000  0.6508444  3
     60     64     76     78     1  0.0000000  0.6508444  3
     60     67     70     71     1  0.0000000  0.6508444  3
     60     67     70     72     1  0.0000000  0.6508444  3
     61     60     64     65     1  0.0000000  0.6508444  3
     61     60     64     66     1  0.0000000  0.6508444  3
     61     60     67     68     1  0.0000000  0.6508444  3
     61     60     67     69     1  0.0000000  0.6508444  3
     61     73     85     86     1  0.0000000  0.6508444  3
     61     73     85     87     1  0.0000000  0.6508444  3
     62     61     60     64     1  0.0000000  0.6508444  3
     62     61     60     67     1  0.0000000  0.6508444  3
     62     61     60     89     1  0.0000000  0.6508444  3
     62     61     73     85     1  0.0000000  0.6508444  3
     62     61     73     74     1  0.0000000  0.6508444  3
     62     61     73     75     1  0.0000000  0.6508444  3
     63     61     60     64     1  0.0000000  0.6508444  3
     63     61     60     67     1  0.0000000  0.6508444  3
     63     61     60     89     1  0.0000000  0.6508444  3
     63     61     73     85     1  0.0000000  0.6508444  3
     63     61     73     74     1  0.0000000  0.6508444  3
     63     61     73     75     1  0.0000000  0.6508444  3
     64     60     67     68     1  0.0000000  0.6508444  3
     64     60     67     69     1  0.0000000  0.6508444  3
     64     76     82     83     1  0.0000000  0.6508444  3
     64     76     82     84     1  0.0000000  0.6508444  3
     65     64     60     67     1  0.0000000  0.6508444  3
     65     64     60     89     1  0.0000000  0.6508444  3
     65     64     76     82     1  0.0000000  0.6508444  3
     65     64     76     77     1  0.0000000  0.6508444  3
     65     64     76     78     1  0.0000000  0.6508444  3
     66     64     60     67     1  0.0000000  0.6508444  3
     66     64     60     89     1  0.0000000  0.6508444  3
     66     64     76     82     1  0.0000000  0.6508444  3
     66     64     76     77     1  0.0000000  0.6508444  3
     66     64     76     78     1  0.0000000  0.6508444  3
     67     70     79     80     1  0.0000000  0.6508444  3
     67     70     79     81     1  0.0000000  0.6508444  3
     68     67     60     89     1  0.0000000  0.6508444  3
     68     67     70     79     1  0.0000000  0.6508444  3
     68     67     70     71     1  0.0000000  0.6508444  3
     68     67     70     72     1  0.0000000  0.6508444  3
     69     67     60     89     1  0.0000000  0.6508444  3
     69     67     70     79     1  0.0000000  0.6508444  3
     69     67     70     71     1  0.0000000  0.6508444  3
     69     67     70     72     1  0.0000000  0.6508444  3
     70     67     60     89     1  0.0000000  0.6508444  3
     71     70     79     88     1  0.0000000  1.0460000  1
     71     70     79     88     1  0.0000000  0.0000000  3
     71     70     79     80     1  0.0000000  0.6508444  3
     71     70     79     81     1  0.0000000  0.6508444  3
     72     70     79     88     1  0.0000000  1.0460000  1
     72     70     79     88     1  0.0000000  0.0000000  3
     72     70     79     80     1  0.0000000  0.6508444  3
     72     70     79     81     1  0.0000000  0.6508444  3
     73     61     60     89     1  0.0000000  0.6508444  3
     74     73     85    238     1  0.0000000  1.0460000  1
     74     73     85    238     1  0.0000000  0.0000000  3
     74     73     85     86     1  0.0000000  0.6508444  3
     74     73     85     87     1  0.0000000  0.6508444  3
     75     73     85    238     1  0.0000000  1.0460000  1
     75     73     85    238     1  0.0000000  0.0000000  3
     75     73     85     86     1  0.0000000  0.6508444  3
     75     73     85     87     1  0.0000000  0.6508444  3
     76     64     60     89     1  0.0000000  0.6508444  3
     77     76     82    208     1  0.0000000  1.0460000  1
     77     76     82    208     1  0.0000000  0.0000000  3
     77     76     82     83     1  0.0000000  0.6508444  3
     77     76     82     84     1  0.0000000  0.6508444  3
     78     76     82    208     1  0.0000000  1.0460000  1
     78     76     82    208     1  0.0000000  0.0000000  3
     78     76     82     83     1  0.0000000  0.6508444  3
     78     76     82     84     1  0.0000000  0.6508444  3
     82    208    199    200     1  0.0000000  1.6038667  3
     82    208    199    201     1  0.0000000  1.6038667  3
     83     82    208    199     1  0.0000000  1.6038667  3
     84     82    208    199     1  0.0000000  1.6038667  3
     85    238    229    230     1  0.0000000  1.6038667  3
     85    238    229    231     1  0.0000000  1.6038667  3
     86     85    238    229     1  0.0000000  1.6038667  3
     87     85    238    229     1  0.0000000  1.6038667  3
     90     91    103    104     1  0.0000000  0.6508444  3
     90     91    103    105     1  0.0000000  0.6508444  3
     90     94    106    107     1  0.0000000  0.6508444  3
     90     94    106    108     1  0.0000000  0.6508444  3
     90     97    100    101     1  0.0000000  0.6508444  3
     90     97    100    102     1  0.0000000  0.6508444  3
     91     90     94     95     1  0.0000000  0.6508444  3
     91     90     94     96     1  0.0000000  0.6508444  3
     91     90     97     98     1  0.0000000  0.6508444  3
     91     90     97     99     1  0.0000000  0.6508444  3
     91    103    115    116     1  0.0000000  0.6508444  3
     91    103    115    117     1  0.0000000  0.6508444  3
     92     91     90     94     1  0.0000000  0.6508444  3
     92     91     90     97     1  0.0000000  0.6508444  3
     92     91     90    119     1  0.0000000  0.6508444  3
     92     91    103    115     1  0.0000000  0.6508444  3
     92     91    103    104     1  0.0000000  0.6508444  3
     92     91    103    105     1  0.0000000  0.6508444  3
     93     91     90     94     1  0.0000000  0.6508444  3
     93     91     90     97     1  0.0000000  0.6508444  3
     93     91     90    119     1  0.0000000  0.6508444  3
     93     91    103    115     1  0.0000000  0.6508444  3
     93     91    103    104     1  0.0000000  0.6508444  3
     93     91    103    105     1  0.0000000  0.6508444  3
     94     90     97     98     1  0.0000000  0.6508444  3
     94     90     97     99     1  0.0000000  0.6508444  3
     94    106    112    113     1  0.0000000  0.6508444  3
     94    106    112    114     1  0.0000000  0.6508444  3
     95     94     90     97     1  0.0000000  0.6508444  3
     95     94     90    119     1  0.0000000  0.6508444  3
     95     94    106    112     1  0.0000000  0.6508444  3
     95     94    106    107     1  0.0000000  0.6508444  3
     95     94    106    108     1  0.0000000  0.6508444  3
     96     94     90     97     1  0.0000000  0.6508444  3
     96     94     90    119     1  0.0000000  0.6508444  3
     96     94    106    112     1  0.0000000  0.6508444  3
     96     94    106    107     1  0.0000000  0.6508444  3
     96     94    106    108     1  0.0000000  0.6508444  3
     97    100    109    110     1  0.0000000  0.6508444  3
     97    100    109    111     1  0.0000000  0.6508444  3
     98     97     90    119     1  0.0000000  0.6508444  3
     98     97    100    109     1  0.0000000  0.6508444  3
     98     97    100    101     1  0.0000000  0.6508444  3
     98     97    100    102     1  0.0000000  0.6508444  3
     99     97     90    119     1  0.0000000  0.6508444  3
     99     97    100    109     1  0.0000000  0.6508444  3
     99     97    100    101     1  0.0000000  0.6508444  3
     99     97    100    102     1  0.0000000  0.6508444  3
    100     97     90    119     1  0.0000000  0.6508444  3
    101    100    109    118     1  0.0000000  1.0460000  1
    101    100    109    118     1  0.0000000  0.0000000  3
    101    100    109    110     1  0.0000000  0.6508444  3
    101    100    109    111     1  0.0000000  0.6508444  3
    102    100    109    118     1  0.0000000  1.0460000  1
    102    100    109    118     1  0.0000000  0.0000000  3
    102    100    109    110     1  0.0000000  0.6508444  3
    102    100    109    111     1  0.0000000  0.6508444  3
    103     91     90    119     1  0.0000000  0.6508444  3
    104    103    115    298     1  0.0000000  1.0460000  1
    104    103    115    298     1  0.0000000  0.0000000  3
    104    103    115    116     1  0.0000000  0.6508444  3
    104    103    115    117     1  0.0000000  0.6508444  3
    105    103    115    298     1  0.0000000  1.0460000  1
    105    103    115    298     1  0.0000000  0.0000000  3
    105    103    115    116     1  0.0000000  0.6508444  3
    105    103    115    117     1  0.0000000  0.6508444  3
    106     94     90    119     1  0.0000000  0.6508444  3
    107    106    112    268     1  0.0000000  1.0460000  1
    107    106    112    268     1  0.0000000  0.0000000  3
    107    106    112    113     1  0.0000000  0.6508444  3
    107    106    112    114     1  0.0000000  0.6508444  3
    108    106    112    268     1  0.0000000  1.0460000  1
    108    106    112    268     1  0.0000000  0.0000000  3
    108    106    112    113     1  0.0000000  0.6508444  3
    108    106    112    114     1  0.0000000  0.6508444  3
    112    268    259    260     1  0.0000000  1.6038667  3
    112    268    259    261     1  0.0000000  1.6038667  3
    113    112    268    259     1  0.0000000  1.6038667  3
    114    112    268    259     1  0.0000000  1.6038667  3
    115    298    289    290     1  0.0000000  1.6038667  3
    115    298    289    291     1  0.0000000  1.6038667  3
    116    115    298    289     1  0.0000000  1.6038667  3
    117    115    298    289     1  0.0000000  1.6038667  3
    120    121    133    134     1  0.0000000  0.6508444  3
    120    121    133    135     1  0.0000000  0.6508444  3
    120    124    136    137     1  0.0000000  0.6508444  3
    120    124    136    138     1  0.0000000  0.6508444  3
    120    127    130    131     1  0.0000000  0.6508444  3
    120    127    130    132     1  0.0000000  0.6508444  3
    121    120    124    125     1  0.0000000  0.6508444  3
    121    120    124    126     1  0.0000000  0.6508444  3
    121    120    127    128     1  0.0000000  0.6508444  3
    121    120    127    129     1  0.0000000  0.6508444  3
    121    133    145    146     1  0.0000000  0.6508444  3
    121    133    145    147     1  0.0000000  0.6508444  3
    122    121    120    124     1  0.0000000  0.6508444  3
    122    121    120    127     1  0.0000000  0.6508444  3
    122    121    120    149     1  0.0000000  0.6508444  3
    122    121    133    145     1  0.0000000  0.6508444  3
    122    121    133    134     1  0.0000000  0.6508444  3
    122    121    133    135     1  0.0000000  0.6508444  3
    123    121    120    124     1  0.0000000  0.6508444  3
    123    121    120    127     1  0.0000000  0.6508444  3
    123    121    120    149     1  0.0000000  0.6508444  3
    123    121    133    145     1  0.0000000  0.6508444  3
    123    121    133    134     1  0.0000000  0.6508444  3
    123    121    133    135     1  0.0000000  0.6508444  3
    124    120    127    128     1  0.0000000  0.6508444  3
    124    120    127    129     1  0.0000000  0.6508444  3
    124    136    142    143     1  0.0000000  0.6508444  3
    124    136    142    144     1  0.0000000  0.6508444  3
    125    124    120    127     1  0.0000000  0.6508444  3
    125    124    120    149     1  0.0000000  0.6508444  3
    125    124    136    142     1  0.0000000  0.6508444  3
    125    124    136    137     1  0.0000000  0.6508444  3
    125    124    136    138     1  0.0000000  0.6508444  3
    126    124    120    127     1  0.0000000  0.6508444  3
    126    124    120    149     1  0.0000000  0.6508444  3
    126    124    136    142     1  0.0000000  0.6508444  3
    126    124    136    137     1  0.0000000  0.6508444  3
    126    124    136    138     1  0.0000000  0.6508444  3
    127    130    139    140     1  0.0000000  0.6508444  3
    127    130    139    141     1  0.0000000  0.6508444  3
    128    127    120    149     1  0.0000000  0.6508444  3
    128    127    130    139     1  0.0000000  0.6508444  3
    128    127    130    131     1  0.0000000  0.6508444  3
    128    127    130    132     1  0.0000000  0.6508444  3
    129    127    120    149     1  0.0000000  0.6508444  3
    129    127    130    139     1  0.0000000  0.6508444  3
    129    127    130    131     1  0.0000000  0.6508444  3
    129    127    130    132     1  0.0000000  0.6508444  3
    130    127    120    149     1  0.0000000  0.6508444  3
    131    130    139    148     1  0.0000000  1.0460000  1
    131    130    139    148     1  0.0000000  0.0000000  3
    131    130    139    140     1  0.0000000  0.6508444  3
    131    130    139    141     1  0.0000000  0.6508444  3
    132    130    139    148     1  0.0000000  1.0460000  1
    132    130    139    148     1  0.0000000  0.0000000  3
    132    130    139    140     1  0.0000000  0.6508444  3
    132    130    139    141     1  0.0000000  0.6508444  3
    133    121    120    149     1  0.0000000  0.6508444  3
    134    133    145    358     1  0.0000000  1.0460000  1
    134    133    145    358     1  0.0000000  0.0000000  3
    134    133    145    146     1  0.0000000  0.6508444  3
    134    133    145    147     1  0.0000000  0.6508444  3
    135    133    145    358     1  0.0000000  1.0460000  1
    135    133    145    358     1  0.0000000  0.0000000  3
    135    133    145    146     1  0.0000000  0.6508444  3
    135    133    145    147     1  0.0000000  0.6508444  3
    136    124    120    149     1  0.0000000  0.6508444  3
    137    136    142    328     1  0.0000000  1.0460000  1
    137    136    142    328     1  0.0000000  0.0000000  3
    137    136    142    143     1  0.0000000  0.6508444  3
    137    136    142    144     1  0.0000000  0.6508444  3
    138    136    142    328     1  0.0000000  1.0460000  1
    138    136    142    328     1  0.0000000  0.0000000  3
    138    136    142    143     1  0.0000000  0.6508444  3
    138    136    142    144     1  0.0000000  0.6508444  3
    142    328    319    320     1  0.0000000  1.6038667  3
    142    328    319    321     1  0.0000000  1.6038667  3
    143    142    328    319     1  0.0000000  1.6038667  3
    144    142    328    319     1  0.0000000  1.6038667  3
    145    358    349    350     1  0.0000000  1.6038667  3
    145    358    349    351     1  0.0000000  1.6038667  3
    146    145    358    349     1  0.0000000  1.6038667  3
    147    145    358    349     1  0.0000000  1.6038667  3
    150    151    163    164     1  0.0000000  0.6508444  3
    150    151    163    165     1  0.0000000  0.6508444  3
    150    154    166    167     1  0.0000000  0.6508444  3
    150    154    166    168     1  0.0000000  0.6508444  3
    150    157    160    161     1  0.0000000  0.6508444  3
    150    157    160    162     1  0.0000000  0.6508444  3
    151    150    154    155     1  0.0000000  0.6508444  3
    151    150    154    156     1  0.0000000  0.6508444  3
    151    150    157    158     1  0.0000000  0.6508444  3
    151    150    157    159     1  0.0000000  0.6508444  3
    151    163    175    176     1  0.0000000  0.6508444  3
    151    163    175    177     1  0.0000000  0.6508444  3
    152    151    150    154     1  0.0000000  0.6508444  3
    152    151    150    157     1  0.0000000  0.6508444  3
    152    151    150    179     1  0.0000000  0.6508444  3
    152    151    163    175     1  0.0000000  0.6508444  3
    152    151    163    164     1  0.0000000  0.6508444  3
    152    151    163    165     1  0.0000000  0.6508444  3
    153    151    150    154     1  0.0000000  0.6508444  3
    153    151    150    157     1  0.0000000  0.6508444  3
    153    151    150    179     1  0.0000000  0.6508444  3
    153    151    163    175     1  0.0000000  0.6508444  3
    153    151    163    164     1  0.0000000  0.6508444  3
    153    151    163    165     1  0.0000000  0.6508444  3
    154    150    157    158     1  0.0000000  0.6508444  3
    154    150    157    159     1  0.0000000  0.6508444  3
    154    166    172    173     1  0.0000000  0.6508444  3
    154    166    172    174     1  0.0000000  0.6508444  3
    155    154    150    157     1  0.0000000  0.6508444  3
    155    154    150    179     1  0.0000000  0.6508444  3
    155    154    166    172     1  0.0000000  0.6508444  3
    155    154    166    167     1  0.0000000  0.6508444  3
    155    154    166    168     1  0.0000000  0.6508444  3
    156    154    150    157     1  0.0000000  0.6508444  3
    156    154    150    179     1  0.0000000  0.6508444  3
    156    154    166    172     1  0.0000000  0.6508444  3
    156    154    166    167     1  0.0000000  0.6508444  3
    156    154    166    168     1  0.0000000  0.6508444  3
    157    160    169    170     1  0.0000000  0.6508444  3
    157    160    169    171     1  0.0000000  0.6508444  3
    158    157    150    179     1  0.0000000  0.6508444  3
    158    157    160    169     1  0.0000000  0.6508444  3
    158    157    160    161     1  0.0000000  0.6508444  3
    158    157    160    162     1  0.0000000  0.6508444  3
    159    157    150    179     1  0.0000000  0.6508444  3
    159    157    160    169     1  0.0000000  0.6508444  3
    159    157    160    161     1  0.0000000  0.6508444  3
    159    157    160    162     1  0.0000000  0.6508444  3
    160    157    150    179     1  0.0000000  0.6508444  3
    161    160    169    178     1  0.0000000  1.0460000  1
    161    160    169    178     1  0.0000000  0.0000000  3
    161    160    169    170     1  0.0000000  0.6508444  3
    161    160    169    171     1  0.0000000  0.6508444  3
    162    160    169    178     1  0.0000000  1.0460000  1
    162    160    169    178     1  0.0000000  0.0000000  3
    162    160    169    170     1  0.0000000  0.6508444  3
    162    160    169    171     1  0.0000000  0.6508444  3
    163    151    150    179     1  0.0000000  0.6508444  3
    164    163    175    418     1  0.0000000  1.0460000  1
    164    163    175    418     1  0.0000000  0.0000000  3
    164    163    175    176     1  0.0000000  0.6508444  3
    164    163    175    177     1  0.0000000  0.6508444  3
    165    163    175    418     1  0.0000000  1.0460000  1
    165    163    175    418     1  0.0000000  0.0000000  3
    165    163    175    176     1  0.0000000  0.6508444  3
    165    163    175    177     1  0.0000000  0.6508444  3
    166    154    150    179     1  0.0000000  0.6508444  3
    167    166    172    388     1  0.0000000  1.0460000  1
    167    166    172    388     1  0.0000000  0.0000000  3
    167    166    172    173     1  0.0000000  0.6508444  3
    167    166    172    174     1  0.0000000  0.6508444  3
    168    166    172    388     1  0.0000000  1.0460000  1
    168    166    172    388     1  0.0000000  0.0000000  3
    168    166    172    173     1  0.0000000  0.6508444  3
    168    166    172    174     1  0.0000000  0.6508444  3
    172    388    379    380     1  0.0000000  1.6038667  3
    172    388    379    381     1  0.0000000  1.6038667  3
    173    172    388    379     1  0.0000000  1.6038667  3
    174    172    388    379     1  0.0000000  1.6038667  3
    175    418    409    410     1  0.0000000  1.6038667  3
    175    418    409    411     1  0.0000000  1.6038667  3
    176    175    418    409     1  0.0000000  1.6038667  3
    177    175    418    409     1  0.0000000  1.6038667  3
    180    181    193    194     1  0.0000000  0.6508444  3
    180    181    193    195     1  0.0000000  0.6508444  3
    180    184    196    197     1  0.0000000  0.6508444  3
    180    184    196    198     1  0.0000000  0.6508444  3
    180    187    190    191     1  0.0000000  0.6508444  3
    180    187    190    192     1  0.0000000  0.6508444  3
    181    180    184    185     1  0.0000000  0.6508444  3
    181    180    184    186     1  0.0000000  0.6508444  3
    181    180    187    188     1  0.0000000  0.6508444  3
    181    180    187    189     1  0.0000000  0.6508444  3
    181    193    205    206     1  0.0000000  0.6508444  3
    181    193    205    207     1  0.0000000  0.6508444  3
    182    181    180    184     1  0.0000000  0.6508444  3
    182    181    180    187     1  0.0000000  0.6508444  3
    182    181    180    209     1  0.0000000  0.6508444  3
    182    181    193    205     1  0.0000000  0.6508444  3
    182    181    193    194     1  0.0000000  0.6508444  3
    182    181    193    195     1  0.0000000  0.6508444  3
    183    181    180    184     1  0.0000000  0.6508444  3
    183    181    180    187     1  0.0000000  0.6508444  3
    183    181    180    209     1  0.0000000  0.6508444  3
    183    181    193    205     1  0.0000000  0.6508444  3
    183    181    193    194     1  0.0000000  0.6508444  3
    183    181    193    195     1  0.0000000  0.6508444  3
    184    180    187    188     1  0.0000000  0.6508444  3
    184    180    187    189     1  0.0000000  0.6508444  3
    184    196    202    203     1  0.0000000  0.6508444  3
    184    196    202    204     1  0.0000000  0.6508444  3
    185    184    180    187     1  0.0000000  0.6508444  3
    185    184    180    209     1  0.0000000  0.6508444  3
    185    184    196    202     1  0.0000000  0.6508444  3
    185    184    196    197     1  0.0000000  0.6508444  3
    185    184    196    198     1  0.0000000  0.6508444  3
    186    184    180    187     1  0.0000000  0.6508444  3
    186    184    180    209     1  0.0000000  0.6508444  3
    186    184    196    202     1  0.0000000  0.6508444  3
    186    184    196    197     1  0.0000000  0.6508444  3
    186    184    196    198     1  0.0000000  0.6508444  3
    187    190    199    200     1  0.0000000  0.6508444  3
    187    190    199    201     1  0.0000000  0.6508444  3
    188    187    180    209     1  0.0000000  0.6508444  3
    188    187    190    199     1  0.0000000  0.6508444  3
    188    187    190    191     1  0.0000000  0.6508444  3
    188    187    190    192     1  0.0000000  0.6508444  3
    189    187    180    209     1  0.0000000  0.6508444  3
    189    187    190    199     1  0.0000000  0.6508444  3
    189    187    190    191     1  0.0000000  0.6508444  3
    189    187    190    192     1  0.0000000  0.6508444  3
    190    187    180    209     1  0.0000000  0.6508444  3
    191    190    199    208     1  0.0000000  1.0460000  1
    191    190    199    208     1  0.0000000  0.0000000  3
    191    190    199    200     1  0.0000000  0.6508444  3
    191    190    199    201     1  0.0000000  0.6508444  3
    192    190    199    208     1  0.0000000  1.0460000  1
    192    190    199    208     1  0.0000000  0.0000000  3
    192    190    199    200     1  0.0000000  0.6508444  3
    192    190    199    201     1  0.0000000  0.6508444  3
    193    181    180    209     1  0.0000000  0.6508444  3
    194    193    205    478     1  0.0000000  1.0460000  1
    194    193    205    478     1  0.0000000  0.0000000  3
    194    193    205    206     1  0.0000000  0.6508444  3
    194    193    205    207     1  0.0000000  0.6508444  3
    195    193    205    478     1  0.0000000  1.0460000  1
    195    193    205    478     1  0.0000000  0.0000000  3
    195    193    205    206     1  0.0000000  0.6508444  3
    195    193    205    207     1  0.0000000  0.6508444  3
    196    184    180    209     1  0.0000000  0.6508444  3
    197    196    202    448     1  0.0000000  1.0460000  1
    197    196    202    448     1  0.0000000  0.0000000  3
    197    196    202    203     1  0.0000000  0.6508444  3
    197    196    202    204     1  0.0000000  0.6508444  3
    198    196    202    448     1  0.0000000  1.0460000  1
    198    196    202    448     1  0.0000000  0.0000000  3
    198    196    202    203     1  0.0000000  0.6508444  3
    198    196    202    204     1  0.0000000  0.6508444  3
    202    448    439    440     1  0.0000000  1.6038667  3
    202    448    439    441     1  0.0000000  1.6038667  3
    203    202    448    439     1  0.0000000  1.6038667  3
    204    202    448    439     1  0.0000000  1.6038667  3
    205    478    469    470     1  0.0000000  1.6038667  3
    205    478    469    471     1  0.0000000  1.6038667  3
    206    205    478    469     1  0.0000000  1.6038667  3
    207    205    478    469     1  0.0000000  1.6038667  3
    210    211    223    224     1  0.0000000  0.6508444  3
    210    211    223    225     1  0.0000000  0.6508444  3
    210    214    226    227     1  0.0000000  0.6508444  3
    210    214    226    228     1  0.0000000  0.6508444  3
    210    217    220    221     1  0.0000000  0.6508444  3
    210    217    220    222     1  0.0000000  0.6508444  3
    211    210    214    215     1  0.0000000  0.6508444  3
    211    210    214    216     1  0.0000000  0.6508444  3
    211    210    217    218     1  0.0000000  0.6508444  3
    211    210    217    219     1  0.0000000  0.6508444  3
    211    223    235    236     1  0.0000000  0.6508444  3
    211    223    235    237     1  0.0000000  0.6508444  3
    212    211    210    214     1  0.0000000  0.6508444  3
    212    211    210    217     1  0.0000000  0.6508444  3
    212    211    210    239     1  0.0000000  0.6508444  3
    212    211    223    235     1  0.0000000  0.6508444  3
    212    211    223    224     1  0.0000000  0.6508444  3
    212    211    223    225     1  0.0000000  0.6508444  3
    213    211    210    214     1  0.0000000  0.6508444  3
    213    211    210    217     1  0.0000000  0.6508444  3
    213    211    210    239     1  0.0000000  0.6508444  3
    213    211    223    235     1  0.0000000  0.6508444  3
    213    211    223    224     1  0.0000000  0.6508444  3
    213    211    223    225     1  0.0000000  0.6508444  3
    214    210    217    218     1  0.0000000  0.6508444  3
    214    210    217    219     1  0.0000000  0.6508444  3
    214    226    232    233     1  0.0000000  0.6508444  3
    214    226    232    234     1  0.0000000  0.6508444  3
    215    214    210    217     1  0.0000000  0.6508444  3
    215    214    210    239     1  0.0000000  0.6508444  3
    215    214    226    232     1  0.0000000  0.6508444  3
    215    214    226    227     1  0.0000000  0.6508444  3
    215    214    226    228     1  0.0000000  0.6508444  3
    216    214    210    217     1  0.0000000  0.6508444  3
    216    214    210    239     1  0.0000000  0.6508444  3
    216    214    226    232     1  0.0000000  0.6508444  3
    216    214    226    227     1  0.0000000  0.6508444  3
    216    214    226    228     1  0.0000000  0.6508444  3
    217    220    229    230     1  0.0000000  0.6508444  3
    217    220    229    231     1  0.0000000  0.6508444  3
    218    217    210    239     1  0.0000000  0.6508444  3
    218    217    220    229     1  0.0000000  0.6508444  3
    218    217    220    221     1  0.0000000  0.6508444  3
    218    217    220    222     1  0.0000000  0.6508444  3
    219    217    210    239     1  0.0000000  0.6508444  3
    219    217    220    229     1  0.0000000  0.6508444  3
    219    217    220    221     1  0.0000000  0.6508444  3
    219    217    220    222     1  0.0000000  0.6508444  3
    220    217    210    239     1  0.0000000  0.6508444  3
    221    220    229    238     1  0.0000000  1.0460000  1
    221    220    229    238     1  0.0000000  0.0000000  3
    221    220    229    230     1  0.0000000  0.6508444  3
    221    220    229    231     1  0.0000000  0.6508444  3
    222    220    229    238     1  0.0000000  1.0460000  1
    222    220    229    238     1  0.0000000  0.0000000  3
    222    220    229    230     1  0.0000000  0.6508444  3
    222    220    229    231     1  0.0000000  0.6508444  3
    223    211    210    239     1  0.0000000  0.6508444  3
    224    223    235    538     1  0.0000000  1.0460000  1
    224    223    235    538     1  0.0000000  0.0000000  3
    224    223    235    236     1  0.0000000  0.6508444  3
    224    223    235    237     1  0.0000000  0.6508444  3
    225    223    235    538     1  0.0000000  1.0460000  1
    225    223    235    538     1  0.0000000  0.0000000  3
    225    223    235    236     1  0.0000000  0.6508444  3
    225    223    235    237     1  0.0000000  0.6508444  3
    226    214    210    239     1  0.0000000  0.6508444  3
    227    226    232    508     1  0.0000000  1.0460000  1
    227    226    232    508     1  0.0000000  0.0000000  3
    227    226    232    233     1  0.0000000  0.6508444  3
    227    226    232    234     1  0.0000000  0.6508444  3
    228    226    232    508     1  0.0000000  1.0460000  1
    228    226    232    508     1  0.0000000  0.0000000  3
    228    226    232    233     1  0.0000000  0.6508444  3
    228    226    232    234     1  0.0000000  0.6508444  3
    232    508    499    500     1  0.0000000  1.6038667  3
    232    508    499    501     1  0.0000000  1.6038667  3
    233    232    508    499     1  0.0000000  1.6038667  3
    234    232    508    499     1  0.0000000  1.6038667  3
    235    538    529    530     1  0.0000000  1.6038667  3
    235    538    529    531     1  0.0000000  1.6038667  3
    236    235    538    529     1  0.0000000  1.6038667  3
    237    235    538    529     1  0.0000000  1.6038667  3
    240    241    253    254     1  0.0000000  0.6508444  3
    240    241    253    255     1  0.0000000  0.6508444  3
    240    244    256    257     1  0.0000000  0.6508444  3
    240    244    256    258     1  0.0000000  0.6508444  3
    240    247    250    251     1  0.0000000  0.6508444  3
    240    247    250    252     1  0.0000000  0.6508444  3
    241    240    244    245     1  0.0000000  0.6508444  3
    241    240    244    246     1  0.0000000  0.6508444  3
    241    240    247    248     1  0.0000000  0.6508444  3
    241    240    247    249     1  0.0000000  0.6508444  3
    241    253    265    266     1  0.0000000  0.6508444  3
    241    253    265    267     1  0.0000000  0.6508444  3
    242    241    240    244     1  0.0000000  0.6508444  3
    242    241    240    247     1  0.0000000  0.6508444  3
    242    241    240    269     1  0.0000000  0.6508444  3
    242    241    253    265     1  0.0000000  0.6508444  3
    242    241    253    254     1  0.0000000  0.6508444  3
    242    241    253    255     1  0.0000000  0.6508444  3
    243    241    240    244     1  0.0000000  0.6508444  3
    243    241    240    247     1  0.0000000  0.6508444  3
    243    241    240    269     1  0.0000000  0.6508444  3
    243    241    253    265     1  0.0000000  0.6508444  3
    243    241    253    254     1  0.0000000  0.6508444  3
    243    241    253    255     1  0.0000000  0.6508444  3
    244    240    247    248     1  0.0000000  0.6508444  3
    244    240    247    249     1  0.0000000  0.6508444  3
    244    256    262    263     1  0.0000000  0.6508444  3
    244    256    262    264     1  0.0000000  0.6508444  3
    245    244    240    247     1  0.0000000  0.6508444  3
    245    244    240    269     1  0.0000000  0.6508444  3
    245    244    256    262     1  0.0000000  0.6508444  3
    245    244    256    257     1  0.0000000  0.6508444  3
    245    244    256    258     1  0.0000000  0.6508444  3
    246    244    240    247     1  0.0000000  0.6508444  3
    246    244    240    269     1  0.0000000  0.6508444  3
    246    244    256    262     1  0.0000000  0.6508444  3
    246    244    256    257     1  0.0000000  0.6508444  3
    246    244    256    258     1  0.0000000  0.6508444  3
    247    250    259    260     1  0.0000000  0.6508444  3
    247    250    259    261     1  0.0000000  0.6508444  3
    248    247    240    269     1  0.0000000  0.6508444  3
    248    247    250    259     1  0.0000000  0.6508444  3
    248    247    250    251     1  0.0000000  0.6508444  3
    248    247    250    252     1  0.0000000  0.6508444  3
    249    247    240    269     1  0.0000000  0.6508444  3
    249    247    250    259     1  0.0000000  0.6508444  3
    249    247    250    251     1  0.0000000  0.6508444  3
    249    247    250    252     1  0.0000000  0.6508444  3
    250    247    240    269     1  0.0000000  0.6508444  3
    251    250    259    268     1  0.0000000  1.0460000  1
    251    250    259    268     1  0.0000000  0.0000000  3
    251    250    259    260     1  0.0000000  0.6508444  3
    251    250    259    261     1  0.0000000  0.6508444  3
    252    250    259    268     1  0.0000000  1.0460000  1
    252    250    259    268     1  0.0000000  0.0000000  3
    252    250    259    260     1  0.0000000  0.6508444  3
    252    250    259    261     1  0.0000000  0.6508444  3
    253    241    240    269     1  0.0000000  0.6508444  3
    254    253    265    598     1  0.0000000  1.0460000  1
    254    253    265    598     1  0.0000000  0.0000000  3
    254    253    265    266     1  0.0000000  0.6508444  3
    254    253    265    267     1  0.0000000  0.6508444  3
    255    253    265    598     1  0.0000000  1.0460000  1
    255    253    265    598     1  0.0000000  0.0000000  3
    255    253    265    266     1  0.0000000  0.6508444  3
    255    253    265    267     1  0.0000000  0.6508444  3
    256    244    240    269     1  0.0000000  0.6508444  3
    257    256    262    568     1  0.0000000  1.0460000  1
    257    256    262    568     1  0.0000000  0.0000000  3
    257    256    262    263     1  0.0000000  0.6508444  3
    257    256    262    264     1  0.0000000  0.6508444  3
    258    256    262    568     1  0.0000000  1.0460000  1
    258    256    262    568     1  0.0000000  0.0000000  3
    258    256    262    263     1  0.0000000  0.6508444  3
    258    256    262    264     1  0.0000000  0.6508444  3
    262    568    559    560     1  0.0000000  1.6038667  3
    262    568    559    561     1  0.0000000  1.6038667  3
    263    262    568    559     1  0.0000000  1.6038667  3
    264    262    568    559     1  0.0000000  1.6038667  3
    265    598    589    590     1  0.0000000  1.6038667  3
    265    598    589    591     1  0.0000000  1.6038667  3
    266    265    598    589     1  0.0000000  1.6038667  3
    267    265    598    589     1  0.0000000  1.6038667  3
    270    271    283    284     1  0.0000000  0.6508444  3
    270    271    283    285     1  0.0000000  0.6508444  3
    270    274    286    287     1  0.0000000  0.6508444  3
    270    274    286    288     1  0.0000000  0.6508444  3
    270    277    280    281     1  0.0000000  0.6508444  3
    270    277    280    282     1  0.0000000  0.6508444  3
    271    270    274    275     1  0.0000000  0.6508444  3
    271    270    274    276     1  0.0000000  0.6508444  3
    271    270    277    278     1  0.0000000  0.6508444  3
    271    270    277    279     1  0.0000000  0.6508444  3
    271    283    295    296     1  0.0000000  0.6508444  3
    271    283    295    297     1  0.0000000  0.6508444  3
    272    271    270    274     1  0.0000000  0.6508444  3
    272    271    270    277     1  0.0000000  0.6508444  3
    272    271    270    299     1  0.0000000  0.6508444  3
    272    271    283    295     1  0.0000000  0.6508444  3
    272    271    283    284     1  0.0000000  0.6508444  3
    272    271    283    285     1  0.0000000  0.6508444  3
    273    271    270    274     1  0.0000000  0.6508444  3
    273    271    270    277     1  0.0000000  0.6508444  3
    273    271    270    299     1  0.0000000  0.6508444  3
    273    271    283    295     1  0.0000000  0.6508444  3
    273    271    283    284     1  0.0000000  0.6508444  3
    273    271    283    285     1  0.0000000  0.6508444  3
    274    270    277    278     1  0.0000000  0.6508444  3
    274    270    277    279     1  0.0000000  0.6508444  3
    274    286    292    293     1  0.0000000  0.6508444  3
    274    286    292    294     1  0.0000000  0.6508444  3
    275    274    270    277     1  0.0000000  0.6508444  3
    275    274    270    299     1  0.0000000  0.6508444  3
    275    274    286    292     1  0.0000000  0.6508444  3
    275    274    286    287     1  0.0000000  0.6508444  3
    275    274    286    288     1  0.0000000  0.6508444  3
    276    274    270    277     1  0.0000000  0.6508444  3
    276    274    270    299     1  0.0000000  0.6508444  3
    276    274    286    292     1  0.0000000  0.6508444  3
    276    274    286    287     1  0.0000000  0.6508444  3
    276    274    286    288     1  0.0000000  0.6508444  3
    277    280    289    290     1  0.0000000  0.6508444  3
    277    280    289    291     1  0.0000000  0.6508444  3
    278    277    270    299     1  0.0000000  0.6508444  3
    278    277    280    289     1  0.0000000  0.6508444  3
    278    277    280    281     1  0.0000000  0.6508444  3
    278    277    280    282     1  0.0000000  0.6508444  3
    279    277    270    299     1  0.0000000  0.6508444  3
    279    277    280    289     1  0.0000000  0.6508444  3
    279    277    280    281     1  0.0000000  0.6508444  3
    279    277    280    282     1  0.0000000  0.6508444  3
    280    277    270    299     1  0.0000000  0.6508444  3
    281    280    289    298     1  0.0000000  1.0460000  1
    281    280    289    298     1  0.0000000  0.0000000  3
    281    280    289    290     1  0.0000000  0.6508444  3
    281    280    289    291     1  0.0000000  0.6508444  3
    282    280    289    298     1  0.0000000  1.0460000  1
    282    280    289    298     1  0.0000000  0.0000000  3
    282    280    289    290     1  0.0000000  0.6508444  3
    282    280    289    291     1  0.0000000  0.6508444  3
    283    271    270    299     1  0.0000000  0.6508444  3
    284    283    295    658     1  0.0000000  1.0460000  1
    284    283    295    658     1  0.0000000  0.0000000  3
    284    283    295    296     1  0.0000000  0.6508444  3
    284    283    295    297     1  0.0000000  0.6508444  3
    285    283    295    658     1  0.0000000  1.0460000  1
    285    283    295    658     1  0.0000000  0.0000000  3
    285    283    295    296     1  0.0000000  0.6508444  3
    285    283    295    297     1  0.0000000  0.6508444  3
    286    274    270    299     1  0.0000000  0.6508444  3
    287    286    292    628     1  0.0000000  1.0460000  1
    287    286    292    628     1  0.0000000  0.0000000  3
    287    286    292    293     1  0.0000000  0.6508444  3
    287    286    292    294     1  0.0000000  0.6508444  3
    288    286    292    628     1  0.0000000  1.0460000  1
    288    286    292    628     1  0.0000000  0.0000000  3
    288    286    292    293     1  0.0000000  0.6508444  3
    288    286    292    294     1  0.0000000  0.6508444  3
    292    628    619    620     1  0.0000000  1.6038667  3
    292    628    619    621     1  0.0000000  1.6038667  3
    293    292    628    619     1  0.0000000  1.6038667  3
    294    292    628    619     1  0.0000000  1.6038667  3
    295    658    649    650     1  0.0000000  1.6038667  3
    295    658    649    651     1  0.0000000  1.6038667  3
    296    295    658    649     1  0.0000000  1.6038667  3
    297    295    658    649     1  0.0000000  1.6038667  3
    300    301    313    314     1  0.0000000  0.6508444  3
    300    301    313    315     1  0.0000000  0.6508444  3
    300    304    316    317     1  0.0000000  0.6508444  3
    300    304    316    318     1  0.0000000  0.6508444  3
    300    307    310    311     1  0.0000000  0.6508444  3
    300    307    310    312     1  0.0000000  0.6508444  3
    301    300    304    305     1  0.0000000  0.6508444  3
    301    300    304    306     1  0.0000000  0.6508444  3
    301    300    307    308     1  0.0000000  0.6508444  3
    301    300    307    309     1  0.0000000  0.6508444  3
    301    313    325    326     1  0.0000000  0.6508444  3
    301    313    325    327     1  0.0000000  0.6508444  3
    302    301    300    304     1  0.0000000  0.6508444  3
    302    301    300    307     1  0.0000000  0.6508444  3
    302    301    300    329     1  0.0000000  0.6508444  3
    302    301    313    325     1  0.0000000  0.6508444  3
    302    301    313    314     1  0.0000000  0.6508444  3
    302    301    313    315     1  0.0000000  0.6508444  3
    303    301    300    304     1  0.0000000  0.6508444  3
    303    301    300    307     1  0.0000000  0.6508444  3
    303    301    300    329     1  0.0000000  0.6508444  3
    303    301    313    325     1  0.0000000  0.6508444  3
    303    301    313    314     1  0.0000000  0.6508444  3
    303    301    313    315     1  0.0000000  0.6508444  3
    304    300    307    308     1  0.0000000  0.6508444  3
    304    300    307    309     1  0.0000000  0.6508444  3
    304    316    322    323     1  0.0000000  0.6508444  3
    304    316    322    324     1  0.0000000  0.6508444  3
    305    304    300    307     1  0.0000000  0.6508444  3
    305    304    300    329     1  0.0000000  0.6508444  3
    305    304    316    322     1  0.0000000  0.6508444  3
    305    304    316    317     1  0.0000000  0.6508444  3
    305    304    316    318     1  0.0000000  0.6508444  3
    306    304    300    307     1  0.0000000  0.6508444  3
    306    304    300    329     1  0.0000000  0.6508444  3
    306    304    316    322     1  0.0000000  0.6508444  3
    306    304    316    317     1  0.0000000  0.6508444  3
    306    304    316    318     1  0.0000000  0.6508444  3
    307    310    319    320     1  0.0000000  0.6508444  3
    307    310    319    321     1  0.0000000  0.6508444  3
    308    307    300    329     1  0.0000000  0.6508444  3
    308    307    310    319     1  0.0000000  0.6508444  3
    308    307    310    311     1  0.0000000  0.6508444  3
    308    307    310    312     1  0.0000000  0.6508444  3
    309    307    300    329     1  0.0000000  0.6508444  3
    309    307    310    319     1  0.0000000  0.6508444  3
    309    307    310    311     1  0.0000000  0.6508444  3
    309    307    310    312     1  0.0000000  0.6508444  3
    310    307    300    329     1  0.0000000  0.6508444  3
    311    310    319    328     1  0.0000000  1.0460000  1
    311    310    319    328     1  0.0000000  0.0000000  3
    311    310    319    320     1  0.0000000  0.6508444  3
    311    310    319    321     1  0.0000000  0.6508444  3
    312    310    319    328     1  0.0000000  1.0460000  1
    312    310    319    328     1  0.0000000  0.0000000  3
    312    310    319    320     1  0.0000000  0.6508444  3
    312    310    319    321     1  0.0000000  0.6508444  3
    313    301    300    329     1  0.0000000  0.6508444  3
    314    313    325    718     1  0.0000000  1.0460000  1
    314    313    325    718     1  0.0000000  0.0000000  3
    314    313    325    326     1  0.0000000  0.6508444  3
    314    313    325    327     1  0.0000000  0.6508444  3
    315    313    325    718     1  0.0000000  1.0460000  1
    315    313    325    718     1  0.0000000  0.0000000  3
    315    313    325    326     1  0.0000000  0.6508444  3
    315    313    325    327     1  0.0000000  0.6508444  3
    316    304    300    329     1  0.0000000  0.6508444  3
    317    316    322    688     1  0.0000000  1.0460000  1
    317    316    322    688     1  0.0000000  0.0000000  3
    317    316    322    323     1  0.0000000  0.6508444  3
    317    316    322    324     1  0.0000000  0.6508444  3
    318    316    322    688     1  0.0000000  1.0460000  1
    318    316    322    688     1  0.0000000  0.0000000  3
    318    316    322    323     1  0.0000000  0.6508444  3
    318    316    322    324     1  0.0000000  0.6508444  3
    322    688    679    680     1  0.0000000  1.6038667  3
    322    688    679    681     1  0.0000000  1.6038667  3
    323    322    688    679     1  0.0000000  1.6038667  3
    324    322    688    679     1  0.0000000  1.6038667  3
    325    718    709    710     1  0.0000000  1.6038667  3
    325    718    709    711     1  0.0000000  1.6038667  3
    326    325    718    709     1  0.0000000  1.6038667  3
    327    325    718    709     1  0.0000000  1.6038667  3
    330    331    343    344     1  0.0000000  0.6508444  3
    330    331    343    345     1  0.0000000  0.6508444  3
    330    334    346    347     1  0.0000000  0.6508444  3
    330    334    346    348     1  0.0000000  0.6508444  3
    330    337    340    341     1  0.0000000  0.6508444  3
    330    337    340    342     1  0.0000000  0.6508444  3
    331    330    334    335     1  0.0000000  0.6508444  3
    331    330    334    336     1  0.0000000  0.6508444  3
    331    330    337    338     1  0.0000000  0.6508444  3
    331    330    337    339     1  0.0000000  0.6508444  3
    331    343    355    356     1  0.0000000  0.6508444  3
    331    343    355    357     1  0.0000000  0.6508444  3
    332    331    330    334     1  0.0000000  0.6508444  3
    332    331    330    337     1  0.0000000  0.6508444  3
    332    331    330    359     1  0.0000000  0.6508444  3
    332    331    343    355     1  0.0000000  0.6508444  3
    332    331    343    344     1  0.0000000  0.6508444  3
    332    331    343    345     1  0.0000000  0.6508444  3
    333    331    330    334     1  0.0000000  0.6508444  3
    333    331    330    337     1  0.0000000  0.6508444  3
    333    331    330    359     1  0.0000000  0.6508444  3
    333    331    343    355     1  0.0000000  0.6508444  3
    333    331    343    344     1  0.0000000  0.6508444  3
    333    331    343    345     1  0.0000000  0.6508444  3
    334    330    337    338     1  0.0000000  0.6508444  3
    334    330    337    339     1  0.0000000  0.6508444  3
    334    346    352    353     1  0.0000000  0.6508444  3
    334    346    352    354     1  0.0000000  0.6508444  3
    335    334    330    337     1  0.0000000  0.6508444  3
    335    334    330    359     1  0.0000000  0.6508444  3
    335    334    346    352     1  0.0000000  0.6508444  3
    335    334    346    347     1  0.0000000  0.6508444  3
    335    334    346    348     1  0.0000000  0.6508444  3
    336    334    330    337     1  0.0000000  0.6508444  3
    336    334    330    359     1  0.0000000  0.6508444  3
    336    334    346    352     1  0.0000000  0.6508444  3
    336    334    346    347     1  0.0000000  0.6508444  3
    336    334    346    348     1  0.0000000  0.6508444  3
    337    340    349    350     1  0.0000000  0.6508444  3
    337    340    349    351     1  0.0000000  0.6508444  3
    338    337    330    359     1  0.0000000  0.6508444  3
    338    337    340    349     1  0.0000000  0.6508444  3
    338    337    340    341     1  0.0000000  0.6508444  3
    338    337    340    342     1  0.0000000  0.6508444  3
    339    337    330    359     1  0.0000000  0.6508444  3
    339    337    340    349     1  0.0000000  0.6508444  3
    339    337    340    341     1  0.0000000  0.6508444  3
    339    337    340    342     1  0.0000000  0.6508444  3
    340    337    330    359     1  0.0000000  0.6508444  3
    341    340    349    358     1  0.0000000  1.0460000  1
    341    340    349    358     1  0.0000000  0.0000000  3
    341    340    349    350     1  0.0000000  0.6508444  3
    341    340    349    351     1  0.0000000  0.6508444  3
    342    340    349    358     1  0.0000000  1.0460000  1
    342    340    349    358     1  0.0000000  0.0000000  3
    342    340    349    350     1  0.0000000  0.6508444  3
    342    340    349    351     1  0.0000000  0.6508444  3
    343    331    330    359     1  0.0000000  0.6508444  3
    344    343    355    778     1  0.0000000  1.0460000  1
    344    343    355    778     1  0.0000000  0.0000000  3
    344    343    355    356     1  0.0000000  0.6508444  3
    344    343    355    357     1  0.0000000  0.6508444  3
    345    343    355    778     1  0.0000000  1.0460000  1
    345    343    355    778     1  0.0000000  0.0000000  3
    345    343    355    356     1  0.0000000  0.6508444  3
    345    343    355    357     1  0.0000000  0.6508444  3
    346    334    330    359     1  0.0000000  0.6508444  3
    347    346    352    748     1  0.0000000  1.0460000  1
    347    346    352    748     1  0.0000000  0.0000000  3
    347    346    352    353     1  0.0000000  0.6508444  3
    347    346    352    354     1  0.0000000  0.6508444  3
    348    346    352    748     1  0.0000000  1.0460000  1
    348    346    352    748     1  0.0000000  0.0000000  3
    348    346    352    353     1  0.0000000  0.6508444  3
    348    346    352    354     1  0.0000000  0.6508444  3
    352    748    739    740     1  0.0000000  1.6038667  3
    352    748    739    741     1  0.0000000  1.6038667  3
    353    352    748    739     1  0.0000000  1.6038667  3
    354    352    748    739     1  0.0000000  1.6038667  3
    355    778    769    770     1  0.0000000  1.6038667  3
    355    778    769    771     1  0.0000000  1.6038667  3
    356    355    778    769     1  0.0000000  1.6038667  3
    357    355    778    769     1  0.0000000  1.6038667  3
    360    361    373    374     1  0.0000000  0.6508444  3
    360    361    373    375     1  0.0000000  0.6508444  3
    360    364    376    377     1  0.0000000  0.6508444  3
    360    364    376    378     1  0.0000000  0.6508444  3
    360    367    370    371     1  0.0000000  0.6508444  3
    360    367    370    372     1  0.0000000  0.6508444  3
    361    360    364    365     1  0.0000000  0.6508444  3
    361    360    364    366     1  0.0000000  0.6508444  3
    361    360    367    368     1  0.0000000  0.6508444  3
    361    360    367    369     1  0.0000000  0.6508444  3
    361    373    385    386     1  0.0000000  0.6508444  3
    361    373    385    387     1  0.0000000  0.6508444  3
    362    361    360    364     1  0.0000000  0.6508444  3
    362    361    360    367     1  0.0000000  0.6508444  3
    362    361    360    389     1  0.0000000  0.6508444  3
    362    361    373    385     1  0.0000000  0.6508444  3
    362    361    373    374     1  0.0000000  0.6508444  3
    362    361    373    375     1  0.0000000  0.6508444  3
    363    361    360    364     1  0.0000000  0.6508444  3
    363    361    360    367     1  0.0000000  0.6508444  3
    363    361    360    389     1  0.0000000  0.6508444  3
    363    361    373    385     1  0.0000000  0.6508444  3
    363    361    373    374     1  0.0000000  0.6508444  3
    363    361    373    375     1  0.0000000  0.6508444  3
    364    360    367    368     1  0.0000000  0.6508444  3
    364    360    367    369     1  0.0000000  0.6508444  3
    364    376    382    383     1  0.0000000  0.6508444  3
    364    376    382    384     1  0.0000000  0.6508444  3
    365    364    360    367     1  0.0000000  0.6508444  3
    365    364    360    389     1  0.0000000  0.6508444  3
    365    364    376    382     1  0.0000000  0.6508444  3
    365    364    376    377     1  0.0000000  0.6508444  3
    365    364    376    378     1  0.0000000  0.6508444  3
    366    364    360    367     1  0.0000000  0.6508444  3
    366    364    360    389     1  0.0000000  0.6508444  3
    366    364    376    382     1  0.0000000  0.6508444  3
    366    364    376    377     1  0.0000000  0.6508444  3
    366    364    376    378     1  0.0000000  0.6508444  3
    367    370    379    380     1  0.0000000  0.6508444  3
    367    370    379    381     1  0.0000000  0.6508444  3
    368    367    360    389     1  0.0000000  0.6508444  3
    368    367    370    379     1  0.0000000  0.6508444  3
    368    367    370    371     1  0.0000000  0.6508444  3
    368    367    370    372     1  0.0000000  0.6508444  3
    369    367    360    389     1  0.0000000  0.6508444  3
    369    367    370    379     1  0.0000000  0.6508444  3
    369    367    370    371     1  0.0000000  0.6508444  3
    369    367    370    372     1  0.0000000  0.6508444  3
    370    367    360    389     1  0.0000000  0.6508444  3
    371    370    379    388     1  0.0000000  1.0460000  1
    371    370    379    388     1  0.0000000  0.0000000  3
    371    370    379    380     1  0.0000000  0.6508444  3
    371    370    379    381     1  0.0000000  0.6508444  3
    372    370    379    388     1  0.0000000  1.0460000  1
    372    370    379    388     1  0.0000000  0.0000000  3
    372    370    379    380     1  0.0000000  0.6508444  3
    372    370    379    381     1  0.0000000  0.6508444  3
    373    361    360    389     1  0.0000000  0.6508444  3
    374    373    385    838     1  0.0000000  1.0460000  1
    374    373    385    838     1  0.0000000  0.0000000  3
    374    373    385    386     1  0.0000000  0.6508444  3
    374    373    385    387     1  0.0000000  0.6508444  3
    375    373    385    838     1  0.0000000  1.0460000  1
    375    373    385    838     1  0.0000000  0.0000000  3
    375    373    385    386     1  0.0000000  0.6508444  3
    375    373    385    387     1  0.0000000  0.6508444  3
    376    364    360    389     1  0.0000000  0.6508444  3
    377    376    382    808     1  0.0000000  1.0460000  1
    377    376    382    808     1  0.0000000  0.0000000  3
    377    376    382    383     1  0.0000000  0.6508444  3
    377    376    382    384     1  0.0000000  0.6508444  3
    378    376    382    808     1  0.0000000  1.0460000  1
    378    376    382    808     1  0.0000000  0.0000000  3
    378    376    382    383     1  0.0000000  0.6508444  3
    378    376    382    384     1  0.0000000  0.6508444  3
    382    808    799    800     1  0.0000000  1.6038667  3
    382    808    799    801     1  0.0000000  1.6038667  3
    383    382    808    799     1  0.0000000  1.6038667  3
    384    382    808    799     1  0.0000000  1.6038667  3
    385    838    829    830     1  0.0000000  1.6038667  3
    385    838    829    831     1  0.0000000  1.6038667  3
    386    385    838    829     1  0.0000000  1.6038667  3
    387    385    838    829     1  0.0000000  1.6038667  3
    390    391    403    404     1  0.0000000  0.6508444  3
    390    391    403    405     1  0.0000000  0.6508444  3
    390    394    406    407     1  0.0000000  0.6508444  3
    390    394    406    408     1  0.0000000  0.6508444  3
    390    397    400    401     1  0.0000000  0.6508444  3
    390    397    400    402     1  0.0000000  0.6508444  3
    391    390    394    395     1  0.0000000  0.6508444  3
    391    390    394    396     1  0.0000000  0.6508444  3
    391    390    397    398     1  0.0000000  0.6508444  3
    391    390    397    399     1  0.0000000  0.6508444  3
    391    403    415    416     1  0.0000000  0.6508444  3
    391    403    415    417     1  0.0000000  0.6508444  3
    392    391    390    394     1  0.0000000  0.6508444  3
    392    391    390    397     1  0.0000000  0.6508444  3
    392    391    390    419     1  0.0000000  0.6508444  3
    392    391    403    415     1  0.0000000  0.6508444  3
    392    391    403    404     1  0.0000000  0.6508444  3
    392    391    403    405     1  0.0000000  0.6508444  3
    393    391    390    394     1  0.0000000  0.6508444  3
    393    391    390    397     1  0.0000000  0.6508444  3
    393    391    390    419     1  0.0000000  0.6508444  3
    393    391    403    415     1  0.0000000  0.6508444  3
    393    391    403    404     1  0.0000000  0.6508444  3
    393    391    403    405     1  0.0000000  0.6508444  3
    394    390    397    398     1  0.0000000  0.6508444  3
    394    390    397    399     1  0.0000000  0.6508444  3
    394    406    412    413     1  0.0000000  0.6508444  3
    394    406    412    414     1  0.0000000  0.6508444  3
    395    394    390    397     1  0.0000000  0.6508444  3
    395    394    390    419     1  0.0000000  0.6508444  3
    395    394    406    412     1  0.0000000  0.6508444  3
    395    394    406    407     1  0.0000000  0.6508444  3
    395    394    406    408     1  0.0000000  0.6508444  3
    396    394    390    397     1  0.0000000  0.6508444  3
    396    394    390    419     1  0.0000000  0.6508444  3
    396    394    406    412     1  0.0000000  0.6508444  3
    396    394    406    407     1  0.0000000  0.6508444  3
    396    394    406    408     1  0.0000000  0.6508444  3
    397    400    409    410     1  0.0000000  0.6508444  3
    397    400    409    411     1  0.0000000  0.6508444  3
    398    397    390    419     1  0.0000000  0.6508444  3
    398    397    400    409     1  0.0000000  0.6508444  3
    398    397    400    401     1  0.0000000  0.6508444  3
    398    397    400    402     1  0.0000000  0.6508444  3
    399    397    390    419     1  0.0000000  0.6508444  3
    399    397    400    409     1  0.0000000  0.6508444  3
    399    397    400    401     1  0.0000000  0.6508444  3
    399    397    400    402     1  0.0000000  0.6508444  3
    400    397    390    419     1  0.0000000  0.6508444  3
    401    400    409    418     1  0.0000000  1.0460000  1
    401    400    409    418     1  0.0000000  0.0000000  3
    401    400    409    410     1  0.0000000  0.6508444  3
    401    400    409    411     1  0.0000000  0.6508444  3
    402    400    409    418     1  0.0000000  1.0460000  1
    402    400    409    418     1  0.0000000  0.0000000  3
    402    400    409    410     1  0.0000000  0.6508444  3
    402    400    409    411     1  0.0000000  0.6508444  3
    403    391    390    419     1  0.0000000  0.6508444  3
    404    403    415    898     1  0.0000000  1.0460000  1
    404    403    415    898     1  0.0000000  0.0000000  3
    404    403    415    416     1  0.0000000  0.6508444  3
    404    403    415    417     1  0.0000000  0.6508444  3
    405    403    415    898     1  0.0000000  1.0460000  1
    405    403    415    898     1  0.0000000  0.0000000  3
    405    403    415    416     1  0.0000000  0.6508444  3
    405    403    415    417     1  0.0000000  0.6508444  3
    406    394    390    419     1  0.0000000  0.6508444  3
    407    406    412    868     1  0.0000000  1.0460000  1
    407    406    412    868     1  0.0000000  0.0000000  3
    407    406    412    413     1  0.0000000  0.6508444  3
    407    406    412    414     1  0.0000000  0.6508444  3
    408    406    412    868     1  0.0000000  1.0460000  1
    408    406    412    868     1  0.0000000  0.0000000  3
    408    406    412    413     1  0.0000000  0.6508444  3
    408    406    412    414     1  0.0000000  0.6508444  3
    412    868    859    860     1  0.0000000  1.6038667  3
    412    868    859    861     1  0.0000000  1.6038667  3
    413    412    868    859     1  0.0000000  1.6038667  3
    414    412    868    859     1  0.0000000  1.6038667  3
    415    898    889    890     1  0.0000000  1.6038667  3
    415    898    889    891     1  0.0000000  1.6038667  3
    416    415    898    889     1  0.0000000  1.6038667  3
    417    415    898    889     1  0.0000000  1.6038667  3
    420    421    433    434     1  0.0000000  0.6508444  3
    420    421    433    435     1  0.0000000  0.6508444  3
    420    424    436    437     1  0.0000000  0.6508444  3
    420    424    436    438     1  0.0000000  0.6508444  3
    420    427    430    431     1  0.0000000  0.6508444  3
    420    427    430    432     1  0.0000000  0.6508444  3
    421    420    424    425     1  0.0000000  0.6508444  3
    421    420    424    426     1  0.0000000  0.6508444  3
    421    420    427    428     1  0.0000000  0.6508444  3
    421    420    427    429     1  0.0000000  0.6508444  3
    421    433    445    446     1  0.0000000  0.6508444  3
    421    433    445    447     1  0.0000000  0.6508444  3
    422    421    420    424     1  0.0000000  0.6508444  3
    422    421    420    427     1  0.0000000  0.6508444  3
    422    421    420    449     1  0.0000000  0.6508444  3
    422    421    433    445     1  0.0000000  0.6508444  3
    422    421    433    434     1  0.0000000  0.6508444  3
    422    421    433    435     1  0.0000000  0.6508444  3
    423    421    420    424     1  0.0000000  0.6508444  3
    423    421    420    427     1  0.0000000  0.6508444  3
    423    421    420    449     1  0.0000000  0.6508444  3
    423    421    433    445     1  0.0000000  0.6508444  3
    423    421    433    434     1  0.0000000  0.6508444  3
    423    421    433    435     1  0.0000000  0.6508444  3
    424    420    427    428     1  0.0000000  0.6508444  3
    424    420    427    429     1  0.0000000  0.6508444  3
    424    436    442    443     1  0.0000000  0.6508444  3
    424    436    442    444     1  0.0000000  0.6508444  3
    425    424    420    427     1  0.0000000  0.6508444  3
    425    424    420    449     1  0.0000000  0.6508444  3
    425    424    436    442     1  0.0000000  0.6508444  3
    425    424    436    437     1  0.0000000  0.6508444  3
    425    424    436    438     1  0.0000000  0.6508444  3
    426    424    420    427     1  0.0000000  0.6508444  3
    426    424    420    449     1  0.0000000  0.6508444  3
    426    424    436    442     1  0.0000000  0.6508444  3
    426    424    436    437     1  0.0000000  0.6508444  3
    426    424    436    438     1  0.0000000  0.6508444  3
    427    430    439    440     1  0.0000000  0.6508444  3
    427    430    439    441     1  0.0000000  0.6508444  3
    428    427    420    449     1  0.0000000  0.6508444  3
    428    427    430    439     1  0.0000000  0.6508444  3
    428    427    430    431     1  0.0000000  0.6508444  3
    428    427    430    432     1  0.0000000  0.6508444  3
    429    427    420    449     1  0.0000000  0.6508444  3
    429    427    430    439     1  0.0000000  0.6508444  3
    429    427    430    431     1  0.0000000  0.6508444  3
    429    427    430    432     1  0.0000000  0.6508444  3
    430    427    420    449     1  0.0000000  0.6508444  3
    431    430    439    448     1  0.0000000  1.0460000  1
    431    430    439    448     1  0.0000000  0.0000000  3
    431    430    439    440     1  0.0000000  0.6508444  3
    431    430    439    441     1  0.0000000  0.6508444  3
    432    430    439    448     1  0.0000000  1.0460000  1
    432    430    439    448     1  0.0000000  0.0000000  3
    432    430    439    440     1  0.0000000  0.6508444  3
    432    430    439    441     1  0.0000000  0.6508444  3
    433    421    420    449     1  0.0000000  0.6508444  3
    434    433    445    958     1  0.0000000  1.0460000  1
    434    433    445    958     1  0.0000000  0.0000000  3
    434    433    445    446     1  0.0000000  0.6508444  3
    434    433    445    447     1  0.0000000  0.6508444  3
    435    433    445    958     1  0.0000000  1.0460000  1
    435    433    445    958     1  0.0000000  0.0000000  3
    435    433    445    446     1  0.0000000  0.6508444  3
    435    433    445    447     1  0.0000000  0.6508444  3
    436    424    420    449     1  0.0000000  0.6508444  3
    437    436    442    928     1  0.0000000  1.0460000  1
    437    436    442    928     1  0.0000000  0.0000000  3
    437    436    442    443     1  0.0000000  0.6508444  3
    437    436    442    444     1  0.0000000  0.6508444  3
    438    436    442    928     1  0.0000000  1.0460000  1
    438    436    442    928     1  0.0000000  0.0000000  3
    438    436    442    443     1  0.0000000  0.6508444  3
    438    436    442    444     1  0.0000000  0.6508444  3
    442    928    919    920     1  0.0000000  1.6038667  3
    442    928    919    921     1  0.0000000  1.6038667  3
    443    442    928    919     1  0.0000000  1.6038667  3
    444    442    928    919     1  0.0000000  1.6038667  3
    445    958    949    950     1  0.0000000  1.6038667  3
    445    958    949    951     1  0.0000000  1.6038667  3
    446    445    958    949     1  0.0000000  1.6038667  3
    447    445    958    949     1  0.0000000  1.6038667  3
    450    451    463    464     1  0.0000000  0.6508444  3
    450    451    463    465     1  0.0000000  0.6508444  3
    450    454    466    467     1  0.0000000  0.6508444  3
    450    454    466    468     1  0.0000000  0.6508444  3
    450    457    460    461     1  0.0000000  0.6508444  3
    450    457    460    462     1  0.0000000  0.6508444  3
    451    450    454    455     1  0.0000000  0.6508444  3
    451    450    454    456     1  0.0000000  0.6508444  3
    451    450    457    458     1  0.0000000  0.6508444  3
    451    450    457    459     1  0.0000000  0.6508444  3
    451    463    475    476     1  0.0000000  0.6508444  3
    451    463    475    477     1  0.0000000  0.6508444  3
    452    451    450    454     1  0.0000000  0.6508444  3
    452    451    450    457     1  0.0000000  0.6508444  3
    452    451    450    479     1  0.0000000  0.6508444  3
    452    451    463    475     1  0.0000000  0.6508444  3
    452    451    463    464     1  0.0000000  0.6508444  3
    452    451    463    465     1  0.0000000  0.6508444  3
    453    451    450    454     1  0.0000000  0.6508444  3
    453    451    450    457     1  0.0000000  0.6508444  3
    453    451    450    479     1  0.0000000  0.6508444  3
    453    451    463    475     1  0.0000000  0.6508444  3
    453    451    463    464     1  0.0000000  0.6508444  3
    453    451    463    465     1  0.0000000  0.6508444  3
    454    450    457    458     1  0.0000000  0.6508444  3
    454    450    457    459     1  0.0000000  0.6508444  3
    454    466    472    473     1  0.0000000  0.6508444  3
    454    466    472    474     1  0.0000000  0.6508444  3
    455    454    450    457     1  0.0000000  0.6508444  3
    455    454    450    479     1  0.0000000  0.6508444  3
    455    454    466    472     1  0.0000000  0.6508444  3
    455    454    466    467     1  0.0000000  0.6508444  3
    455    454    466    468     1  0.0000000  0.6508444  3
    456    454    450    457     1  0.0000000  0.6508444  3
    456    454    450    479     1  0.0000000  0.6508444  3
    456    454    466    472     1  0.0000000  0.6508444  3
    456    454    466    467     1  0.0000000  0.6508444  3
    456    454    466    468     1  0.0000000  0.6508444  3
    457    460    469    470     1  0.0000000  0.6508444  3
    457    460    469    471     1  0.0000000  0.6508444  3
    458    457    450    479     1  0.0000000  0.6508444  3
    458    457    460    469     1  0.0000000  0.6508444  3
    458    457    460    461     1  0.0000000  0.6508444  3
    458    457    460    462     1  0.0000000  0.6508444  3
    459    457    450    479     1  0.0000000  0.6508444  3
    459    457    460    469     1  0.0000000  0.6508444  3
    459    457    460    461     1  0.0000000  0.6508444  3
    459    457    460    462     1  0.0000000  0.6508444  3
    460    457    450    479     1  0.0000000  0.6508444  3
    461    460    469    478     1  0.0000000  1.0460000  1
    461    460    469    478     1  0.0000000  0.0000000  3
    461    460    469    470     1  0.0000000  0.6508444  3
    461    460    469    471     1  0.0000000  0.6508444  3
    462    460    469    478     1  0.0000000  1.0460000  1
    462    460    469    478     1  0.0000000  0.0000000  3
    462    460    469    470     1  0.0000000  0.6508444  3
    462    460    469    471     1  0.0000000  0.6508444  3
    463    451    450    479     1  0.0000000  0.6508444  3
    464    463    475   1018     1  0.0000000  1.0460000  1
    464    463    475   1018     1  0.0000000  0.0000000  3
    464    463    475    476     1  0.0000000  0.6508444  3
    464    463    475    477     1  0.0000000  0.6508444  3
    465    463    475   1018     1  0.0000000  1.0460000  1
    465    463    475   1018     1  0.0000000  0.0000000  3
    465    463    475    476     1  0.0000000  0.6508444  3
    465    463    475    477     1  0.0000000  0.6508444  3
    466    454    450    479     1  0.0000000  0.6508444  3
    467    466    472    988     1  0.0000000  1.0460000  1
    467    466    472    988     1  0.0000000  0.0000000  3
    467    466    472    473     1  0.0000000  0.6508444  3
    467    466    472    474     1  0.0000000  0.6508444  3
    468    466    472    988     1  0.0000000  1.0460000  1
    468    466    472    988     1  0.0000000  0.0000000  3
    468    466    472    473     1  0.0000000  0.6508444  3
    468    466    472    474     1  0.0000000  0.6508444  3
    472    988    979    980     1  0.0000000  1.6038667  3
    472    988    979    981     1  0.0000000  1.6038667  3
    473    472    988    979     1  0.0000000  1.6038667  3
    474    472    988    979     1  0.0000000  1.6038667  3
    475   1018   1009   1010     1  0.0000000  1.6038667  3
    475   1018   1009   1011     1  0.0000000  1.6038667  3
    476    475   1018   1009     1  0.0000000  1.6038667  3
    477    475   1018   1009     1  0.0000000  1.6038667  3
    480    481    493    494     1  0.0000000  0.6508444  3
    480    481    493    495     1  0.0000000  0.6508444  3
    480    484    496    497     1  0.0000000  0.6508444  3
    480    484    496    498     1  0.0000000  0.6508444  3
    480    487    490    491     1  0.0000000  0.6508444  3
    480    487    490    492     1  0.0000000  0.6508444  3
    481    480    484    485     1  0.0000000  0.6508444  3
    481    480    484    486     1  0.0000000  0.6508444  3
    481    480    487    488     1  0.0000000  0.6508444  3
    481    480    487    489     1  0.0000000  0.6508444  3
    481    493    505    506     1  0.0000000  0.6508444  3
    481    493    505    507     1  0.0000000  0.6508444  3
    482    481    480    484     1  0.0000000  0.6508444  3
    482    481    480    487     1  0.0000000  0.6508444  3
    482    481    480    509     1  0.0000000  0.6508444  3
    482    481    493    505     1  0.0000000  0.6508444  3
    482    481    493    494     1  0.0000000  0.6508444  3
    482    481    493    495     1  0.0000000  0.6508444  3
    483    481    480    484     1  0.0000000  0.6508444  3
    483    481    480    487     1  0.0000000  0.6508444  3
    483    481    480    509     1  0.0000000  0.6508444  3
    483    481    493    505     1  0.0000000  0.6508444  3
    483    481    493    494     1  0.0000000  0.6508444  3
    483    481    493    495     1  0.0000000  0.6508444  3
    484    480    487    488     1  0.0000000  0.6508444  3
    484    480    487    489     1  0.0000000  0.6508444  3
    484    496    502    503     1  0.0000000  0.6508444  3
    484    496    502    504     1  0.0000000  0.6508444  3
    485    484    480    487     1  0.0000000  0.6508444  3
    485    484    480    509     1  0.0000000  0.6508444  3
    485    484    496    502     1  0.0000000  0.6508444  3
    485    484    496    497     1  0.0000000  0.6508444  3
    485    484    496    498     1  0.0000000  0.6508444  3
    486    484    480    487     1  0.0000000  0.6508444  3
    486    484    480    509     1  0.0000000  0.6508444  3
    486    484    496    502     1  0.0000000  0.6508444  3
    486    484    496    497     1  0.0000000  0.6508444  3
    486    484    496    498     1  0.0000000  0.6508444  3
    487    490    499    500     1  0.0000000  0.6508444  3
    487    490    499    501     1  0.0000000  0.6508444  3
    488    487    480    509     1  0.0000000  0.6508444  3
    488    487    490    499     1  0.0000000  0.6508444  3
    488    487    490    491     1  0.0000000  0.6508444  3
    488    487    490    492     1  0.0000000  0.6508444  3
    489    487    480    509     1  0.0000000  0.6508444  3
    489    487    490    499     1  0.0000000  0.6508444  3
    489    487    490    491     1  0.0000000  0.6508444  3
    489    487    490    492     1  0.0000000  0.6508444  3
    490    487    480    509     1  0.0000000  0.6508444  3
    491    490    499    508     1  0.0000000  1.0460000  1
    491    490    499    508     1  0.0000000  0.0000000  3
    491    490    499    500     1  0.0000000  0.6508444  3
    491    490    499    501     1  0.0000000  0.6508444  3
    492    490    499    508     1  0.0000000  1.0460000  1
    492    490    499    508     1  0.0000000  0.0000000  3
    492    490    499    500     1  0.0000000  0.6508444  3
    492    490    499    501     1  0.0000000  0.6508444  3
    493    481    480    509     1  0.0000000  0.6508444  3
    494    493    505   1078     1  0.0000000  1.0460000  1
    494    493    505   1078     1  0.0000000  0.0000000  3
    494    493    505    506     1  0.0000000  0.6508444  3
    494    493    505    507     1  0.0000000  0.6508444  3
    495    493    505   1078     1  0.0000000  1.0460000  1
    495    493    505   1078     1  0.0000000  0.0000000  3
    495    493    505    506     1  0.0000000  0.6508444  3
    495    493    505    507     1  0.0000000  0.6508444  3
    496    484    480    509     1  0.0000000  0.6508444  3
    497    496    502   1048     1  0.0000000  1.0460000  1
    497    496    502   1048     1  0.0000000  0.0000000  3
    497    496    502    503     1  0.0000000  0.6508444  3
    497    496    502    504     1  0.0000000  0.6508444  3
    498    496    502   1048     1  0.0000000  1.0460000  1
    498    496    502   1048     1  0.0000000  0.0000000  3
    498    496    502    503     1  0.0000000  0.6508444  3
    498    496    502    504     1  0.0000000  0.6508444  3
    502   1048   1039   1040     1  0.0000000  1.6038667  3
    502   1048   1039   1041     1  0.0000000  1.6038667  3
    503    502   1048   1039     1  0.0000000  1.6038667  3
    504    502   1048   1039     1  0.0000000  1.6038667  3
    505   1078   1069   1070     1  0.0000000  1.6038667  3
    505   1078   1069   1071     1  0.0000000  1.6038667  3
    506    505   1078   1069     1  0.0000000  1.6038667  3
    507    505   1078   1069     1  0.0000000  1.6038667  3
    510    511    523    524     1  0.0000000  0.6508444  3
    510    511    523    525     1  0.0000000  0.6508444  3
    510    514    526    527     1  0.0000000  0.6508444  3
    510    514    526    528     1  0.0000000  0.6508444  3
    510    517    520    521     1  0.0000000  0.6508444  3
    510    517    520    522     1  0.0000000  0.6508444  3
    511    510    514    515     1  0.0000000  0.6508444  3
    511    510    514    516     1  0.0000000  0.6508444  3
    511    510    517    518     1  0.0000000  0.6508444  3
    511    510    517    519     1  0.0000000  0.6508444  3
    511    523    535    536     1  0.0000000  0.6508444  3
    511    523    535    537     1  0.0000000  0.6508444  3
    512    511    510    514     1  0.0000000  0.6508444  3
    512    511    510    517     1  0.0000000  0.6508444  3
    512    511    510    539     1  0.0000000  0.6508444  3
    512    511    523    535     1  0.0000000  0.6508444  3
    512    511    523    524     1  0.0000000  0.6508444  3
    512    511    523    525     1  0.0000000  0.6508444  3
    513    511    510    514     1  0.0000000  0.6508444  3
    513    511    510    517     1  0.0000000  0.6508444  3
    513    511    510    539     1  0.0000000  0.6508444  3
    513    511    523    535     1  0.0000000  0.6508444  3
    513    511    523    524     1  0.0000000  0.6508444  3
    513    511    523    525     1  0.0000000  0.6508444  3
    514    510    517    518     1  0.0000000  0.6508444  3
    514    510    517    519     1  0.0000000  0.6508444  3
    514    526    532    533     1  0.0000000  0.6508444  3
    514    526    532    534     1  0.0000000  0.6508444  3
    515    514    510    517     1  0.0000000  0.6508444  3
    515    514    510    539     1  0.0000000  0.6508444  3
    515    514    526    532     1  0.0000000  0.6508444  3
    515    514    526    527     1  0.0000000  0.6508444  3
    515    514    526    528     1  0.0000000  0.6508444  3
    516    514    510    517     1  0.0000000  0.6508444  3
    516    514    510    539     1  0.0000000  0.6508444  3
    516    514    526    532     1  0.0000000  0.6508444  3
    516    514    526    527     1  0.0000000  0.6508444  3
    516    514    526    528     1  0.0000000  0.6508444  3
    517    520    529    530     1  0.0000000  0.6508444  3
    517    520    529    531     1  0.0000000  0.6508444  3
    518    517    510    539     1  0.0000000  0.6508444  3
    518    517    520    529     1  0.0000000  0.6508444  3
    518    517    520    521     1  0.0000000  0.6508444  3
    518    517    520    522     1  0.0000000  0.6508444  3
    519    517    510    539     1  0.0000000  0.6508444  3
    519    517    520    529     1  0.0000000  0.6508444  3
    519    517    520    521     1  0.0000000  0.6508444  3
    519    517    520    522     1  0.0000000  0.6508444  3
    520    517    510    539     1  0.0000000  0.6508444  3
    521    520    529    538     1  0.0000000  1.0460000  1
    521    520    529    538     1  0.0000000  0.0000000  3
    521    520    529    530     1  0.0000000  0.6508444  3
    521    520    529    531     1  0.0000000  0.6508444  3
    522    520    529    538     1  0.0000000  1.0460000  1
    522    520    529    538     1  0.0000000  0.0000000  3
    522    520    529    530     1  0.0000000  0.6508444  3
    522    520    529    531     1  0.0000000  0.6508444  3
    523    511    510    539     1  0.0000000  0.6508444  3
    524    523    535   1138     1  0.0000000  1.0460000  1
    524    523    535   1138     1  0.0000000  0.0000000  3
    524    523    535    536     1  0.0000000  0.6508444  3
    524    523    535    537     1  0.0000000  0.6508444  3
    525    523    535   1138     1  0.0000000  1.0460000  1
    525    523    535   1138     1  0.0000000  0.0000000  3
    525    523    535    536     1  0.0000000  0.6508444  3
    525    523    535    537     1  0.0000000  0.6508444  3
    526    514    510    539     1  0.0000000  0.6508444  3
    527    526    532   1108     1  0.0000000  1.0460000  1
    527    526    532   1108     1  0.0000000  0.0000000  3
    527    526    532    533     1  0.0000000  0.6508444  3
    527    526    532    534     1  0.0000000  0.6508444  3
    528    526    532   1108     1  0.0000000  1.0460000  1
    528    526    532   1108     1  0.0000000  0.0000000  3
    528    526    532    533     1  0.0000000  0.6508444  3
    528    526    532    534     1  0.0000000  0.6508444  3
    532   1108   1099   1100     1  0.0000000  1.6038667  3
    532   1108   1099   1101     1  0.0000000  1.6038667  3
    533    532   1108   1099     1  0.0000000  1.6038667  3
    534    532   1108   1099     1  0.0000000  1.6038667  3
    535   1138   1129   1130     1  0.0000000  1.6038667  3
    535   1138   1129   1131     1  0.0000000  1.6038667  3
    536    535   1138   1129     1  0.0000000  1.6038667  3
    537    535   1138   1129     1  0.0000000  1.6038667  3
    540    541    553    554     1  0.0000000  0.6508444  3
    540    541    553    555     1  0.0000000  0.6508444  3
    540    544    556    557     1  0.0000000  0.6508444  3
    540    544    556    558     1  0.0000000  0.6508444  3
    540    547    550    551     1  0.0000000  0.6508444  3
    540    547    550    552     1  0.0000000  0.6508444  3
    541    540    544    545     1  0.0000000  0.6508444  3
    541    540    544    546     1  0.0000000  0.6508444  3
    541    540    547    548     1  0.0000000  0.6508444  3
    541    540    547    549     1  0.0000000  0.6508444  3
    541    553    565    566     1  0.0000000  0.6508444  3
    541    553    565    567     1  0.0000000  0.6508444  3
    542    541    540    544     1  0.0000000  0.6508444  3
    542    541    540    547     1  0.0000000  0.6508444  3
    542    541    540    569     1  0.0000000  0.6508444  3
    542    541    553    565     1  0.0000000  0.6508444  3
    542    541    553    554     1  0.0000000  0.6508444  3
    542    541    553    555     1  0.0000000  0.6508444  3
    543    541    540    544     1  0.0000000  0.6508444  3
    543    541    540    547     1  0.0000000  0.6508444  3
    543    541    540    569     1  0.0000000  0.6508444  3
    543    541    553    565     1  0.0000000  0.6508444  3
    543    541    553    554     1  0.0000000  0.6508444  3
    543    541    553    555     1  0.0000000  0.6508444  3
    544    540    547    548     1  0.0000000  0.6508444  3
    544    540    547    549     1  0.0000000  0.6508444  3
    544    556    562    563     1  0.0000000  0.6508444  3
    544    556    562    564     1  0.0000000  0.6508444  3
    545    544    540    547     1  0.0000000  0.6508444  3
    545    544    540    569     1  0.0000000  0.6508444  3
    545    544    556    562     1  0.0000000  0.6508444  3
    545    544    556    557     1  0.0000000  0.6508444  3
    545    544    556    558     1  0.0000000  0.6508444  3
    546    544    540    547     1  0.0000000  0.6508444  3
    546    544    540    569     1  0.0000000  0.6508444  3
    546    544    556    562     1  0.0000000  0.6508444  3
    546    544    556    557     1  0.0000000  0.6508444  3
    546    544    556    558     1  0.0000000  0.6508444  3
    547    550    559    560     1  0.0000000  0.6508444  3
    547    550    559    561     1  0.0000000  0.6508444  3
    548    547    540    569     1  0.0000000  0.6508444  3
    548    547    550    559     1  0.0000000  0.6508444  3
    548    547    550    551     1  0.0000000  0.6508444  3
    548    547    550    552     1  0.0000000  0.6508444  3
    549    547    540    569     1  0.0000000  0.6508444  3
    549    547    550    559     1  0.0000000  0.6508444  3
    549    547    550    551     1  0.0000000  0.6508444  3
    549    547    550    552     1  0.0000000  0.6508444  3
    550    547    540    569     1  0.0000000  0.6508444  3
    551    550    559    568     1  0.0000000  1.0460000  1
    551    550    559    568     1  0.0000000  0.0000000  3
    551    550    559    560     1  0.0000000  0.6508444  3
    551    550    559    561     1  0.0000000  0.6508444  3
    552    550    559    568     1  0.0000000  1.0460000  1
    552    550    559    568     1  0.0000000  0.0000000  3
    552    550    559    560     1  0.0000000  0.6508444  3
    552    550    559    561     1  0.0000000  0.6508444  3
    553    541    540    569     1  0.0000000  0.6508444  3
    554    553    565   1198     1  0.0000000  1.0460000  1
    554    553    565   1198     1  0.0000000  0.0000000  3
    554    553    565    566     1  0.0000000  0.6508444  3
    554    553    565    567     1  0.0000000  0.6508444  3
    555    553    565   1198     1  0.0000000  1.0460000  1
    555    553    565   1198     1  0.0000000  0.0000000  3
    555    553    565    566     1  0.0000000  0.6508444  3
    555    553    565    567     1  0.0000000  0.6508444  3
    556    544    540    569     1  0.0000000  0.6508444  3
    557    556    562   1168     1  0.0000000  1.0460000  1
    557    556    562   1168     1  0.0000000  0.0000000  3
    557    556    562    563     1  0.0000000  0.6508444  3
    557    556    562    564     1  0.0000000  0.6508444  3
    558    556    562   1168     1  0.0000000  1.0460000  1
    558    556    562   1168     1  0.0000000  0.0000000  3
    558    556    562    563     1  0.0000000  0.6508444  3
    558    556    562    564     1  0.0000000  0.6508444  3
    562   1168   1159   1160     1  0.0000000  1.6038667  3
    562   1168   1159   1161     1  0.0000000  1.6038667  3
    563    562   1168   1159     1  0.0000000  1.6038667  3
    564    562   1168   1159     1  0.0000000  1.6038667  3
    565   1198   1189   1190     1  0.0000000  1.6038667  3
    565   1198   1189   1191     1  0.0000000  1.6038667  3
    566    565   1198   1189     1  0.0000000  1.6038667  3
    567    565   1198   1189     1  0.0000000  1.6038667  3
    570    571    583    584     1  0.0000000  0.6508444  3
    570    571    583    585     1  0.0000000  0.6508444  3
    570    574    586    587     1  0.0000000  0.6508444  3
    570    574    586    588     1  0.0000000  0.6508444  3
    570    577    580    581     1  0.0000000  0.6508444  3
    570    577    580    582     1  0.0000000  0.6508444  3
    571    570    574    575     1  0.0000000  0.6508444  3
    571    570    574    576     1  0.0000000  0.6508444  3
    571    570    577    578     1  0.0000000  0.6508444  3
    571    570    577    579     1  0.0000000  0.6508444  3
    571    583    595    596     1  0.0000000  0.6508444  3
    571    583    595    597     1  0.0000000  0.6508444  3
    572    571    570    574     1  0.0000000  0.6508444  3
    572    571    570    577     1  0.0000000  0.6508444  3
    572    571    570    599     1  0.0000000  0.6508444  3
    572    571    583    595     1  0.0000000  0.6508444  3
    572    571    583    584     1  0.0000000  0.6508444  3
    572    571    583    585     1  0.0000000  0.6508444  3
    573    571    570    574     1  0.0000000  0.6508444  3
    573    571    570    577     1  0.0000000  0.6508444  3
    573    571    570    599     1  0.0000000  0.6508444  3
    573    571    583    595     1  0.0000000  0.6508444  3
    573    571    583    584     1  0.0000000  0.6508444  3
    573    571    583    585     1  0.0000000  0.6508444  3
    574    570    577    578     1  0.0000000  0.6508444  3
    574    570    577    579     1  0.0000000  0.6508444  3
    574    586    592    593     1  0.0000000  0.6508444  3
    574    586    592    594     1  0.0000000  0.6508444  3
    575    574    570    577     1  0.0000000  0.6508444  3
    575    574    570    599     1  0.0000000  0.6508444  3
    575    574    586    592     1  0.0000000  0.6508444  3
    575    574    586    587     1  0.0000000  0.6508444  3
    575    574    586    588     1  0.0000000  0.6508444  3
    576    574    570    577     1  0.0000000  0.6508444  3
    576    574    570    599     1  0.0000000  0.6508444  3
    576    574    586    592     1  0.0000000  0.6508444  3
    576    574    586    587     1  0.0000000  0.6508444  3
    576    574    586    588     1  0.0000000  0.6508444  3
    577    580    589    590     1  0.0000000  0.6508444  3
    577    580    589    591     1  0.0000000  0.6508444  3
    578    577    570    599     1  0.0000000  0.6508444  3
    578    577    580    589     1  0.0000000  0.6508444  3
    578    577    580    581     1  0.0000000  0.6508444  3
    578    577    580    582     1  0.0000000  0.6508444  3
    579    577    570    599     1  0.0000000  0.6508444  3
    579    577    580    589     1  0.0000000  0.6508444  3
    579    577    580    581     1  0.0000000  0.6508444  3
    579    577    580    582     1  0.0000000  0.6508444  3
    580    577    570    599     1  0.0000000  0.6508444  3
    581    580    589    598     1  0.0000000  1.0460000  1
    581    580    589    598     1  0.0000000  0.0000000  3
    581    580    589    590     1  0.0000000  0.6508444  3
    581    580    589    591     1  0.0000000  0.6508444  3
    582    580    589    598     1  0.0000000  1.0460000  1
    582    580    589    598     1  0.0000000  0.0000000  3
    582    580    589    590     1  0.0000000  0.6508444  3
    582    580    589    591     1  0.0000000  0.6508444  3
    583    571    570    599     1  0.0000000  0.6508444  3
    584    583    595   1258     1  0.0000000  1.0460000  1
    584    583    595   1258     1  0.0000000  0.0000000  3
    584    583    595    596     1  0.0000000  0.6508444  3
    584    583    595    597     1  0.0000000  0.6508444  3
    585    583    595   1258     1  0.0000000  1.0460000  1
    585    583    595   1258     1  0.0000000  0.0000000  3
    585    583    595    596     1  0.0000000  0.6508444  3
    585    583    595    597     1  0.0000000  0.6508444  3
    586    574    570    599     1  0.0000000  0.6508444  3
    587    586    592   1228     1  0.0000000  1.0460000  1
    587    586    592   1228     1  0.0000000  0.0000000  3
    587    586    592    593     1  0.0000000  0.6508444  3
    587    586    592    594     1  0.0000000  0.6508444  3
    588    586    592   1228     1  0.0000000  1.0460000  1
    588    586    592   1228     1  0.0000000  0.0000000  3
    588    586    592    593     1  0.0000000  0.6508444  3
    588    586    592    594     1  0.0000000  0.6508444  3
    592   1228   1219   1220     1  0.0000000  1.6038667  3
    592   1228   1219   1221     1  0.0000000  1.6038667  3
    593    592   1228   1219     1  0.0000000  1.6038667  3
    594    592   1228   1219     1  0.0000000  1.6038667  3
    595   1258   1249   1250     1  0.0000000  1.6038667  3
    595   1258   1249   1251     1  0.0000000  1.6038667  3
    596    595   1258   1249     1  0.0000000  1.6038667  3
    597    595   1258   1249     1  0.0000000  1.6038667  3
    600    601    613    614     1  0.0000000  0.6508444  3
    600    601    613    615     1  0.0000000  0.6508444  3
    600    604    616    617     1  0.0000000  0.6508444  3
    600    604    616    618     1  0.0000000  0.6508444  3
    600    607    610    611     1  0.0000000  0.6508444  3
    600    607    610    612     1  0.0000000  0.6508444  3
    601    600    604    605     1  0.0000000  0.6508444  3
    601    600    604    606     1  0.0000000  0.6508444  3
    601    600    607    608     1  0.0000000  0.6508444  3
    601    600    607    609     1  0.0000000  0.6508444  3
    601    613    625    626     1  0.0000000  0.6508444  3
    601    613    625    627     1  0.0000000  0.6508444  3
    602    601    600    604     1  0.0000000  0.6508444  3
    602    601    600    607     1  0.0000000  0.6508444  3
    602    601    600    629     1  0.0000000  0.6508444  3
    602    601    613    625     1  0.0000000  0.6508444  3
    602    601    613    614     1  0.0000000  0.6508444  3
    602    601    613    615     1  0.0000000  0.6508444  3
    603    601    600    604     1  0.0000000  0.6508444  3
    603    601    600    607     1  0.0000000  0.6508444  3
    603    601    600    629     1  0.0000000  0.6508444  3
    603    601    613    625     1  0.0000000  0.6508444  3
    603    601    613    614     1  0.0000000  0.6508444  3
    603    601    613    615     1  0.0000000  0.6508444  3
    604    600    607    608     1  0.0000000  0.6508444  3
    604    600    607    609     1  0.0000000  0.6508444  3
    604    616    622    623     1  0.0000000  0.6508444  3
    604    616    622    624     1  0.0000000  0.6508444  3
    605    604    600    607     1  0.0000000  0.6508444  3
    605    604    600    629     1  0.0000000  0.6508444  3
    605    604    616    622     1  0.0000000  0.6508444  3
    605    604    616    617     1  0.0000000  0.6508444  3
    605    604    616    618     1  0.0000000  0.6508444  3
    606    604    600    607     1  0.0000000  0.6508444  3
    606    604    600    629     1  0.0000000  0.6508444  3
    606    604    616    622     1  0.0000000  0.6508444  3
    606    604    616    617     1  0.0000000  0.6508444  3
    606    604    616    618     1  0.0000000  0.6508444  3
    607    610    619    620     1  0.0000000  0.6508444  3
    607    610    619    621     1  0.0000000  0.6508444  3
    608    607    600    629     1  0.0000000  0.6508444  3
    608    607    610    619     1  0.0000000  0.6508444  3
    608    607    610    611     1  0.0000000  0.6508444  3
    608    607    610    612     1  0.0000000  0.6508444  3
    609    607    600    629     1  0.0000000  0.6508444  3
    609    607    610    619     1  0.0000000  0.6508444  3
    609    607    610    611     1  0.0000000  0.6508444  3
    609    607    610    612     1  0.0000000  0.6508444  3
    610    607    600    629     1  0.0000000  0.6508444  3
    611    610    619    628     1  0.0000000  1.0460000  1
    611    610    619    628     1  0.0000000  0.0000000  3
    611    610    619    620     1  0.0000000  0.6508444  3
    611    610    619    621     1  0.0000000  0.6508444  3
    612    610    619    628     1  0.0000000  1.0460000  1
    612    610    619    628     1  0.0000000  0.0000000  3
    612    610    619    620     1  0.0000000  0.6508444  3
    612    610    619    621     1  0.0000000  0.6508444  3
    613    601    600    629     1  0.0000000  0.6508444  3
    614    613    625   1318     1  0.0000000  1.0460000  1
    614    613    625   1318     1  0.0000000  0.0000000  3
    614    613    625    626     1  0.0000000  0.6508444  3
    614    613    625    627     1  0.0000000  0.6508444  3
    615    613    625   1318     1  0.0000000  1.0460000  1
    615    613    625   1318     1  0.0000000  0.0000000  3
    615    613    625    626     1  0.0000000  0.6508444  3
    615    613    625    627     1  0.0000000  0.6508444  3
    616    604    600    629     1  0.0000000  0.6508444  3
    617    616    622   1288     1  0.0000000  1.0460000  1
    617    616    622   1288     1  0.0000000  0.0000000  3
    617    616    622    623     1  0.0000000  0.6508444  3
    617    616    622    624     1  0.0000000  0.6508444  3
    618    616    622   1288     1  0.0000000  1.0460000  1
    618    616    622   1288     1  0.0000000  0.0000000  3
    618    616    622    623     1  0.0000000  0.6508444  3
    618    616    622    624     1  0.0000000  0.6508444  3
    622   1288   1279   1280     1  0.0000000  1.6038667  3
    622   1288   1279   1281     1  0.0000000  1.6038667  3
    623    622   1288   1279     1  0.0000000  1.6038667  3
    624    622   1288   1279     1  0.0000000  1.6038667  3
    625   1318   1309   1310     1  0.0000000  1.6038667  3
    625   1318   1309   1311     1  0.0000000  1.6038667  3
    626    625   1318   1309     1  0.0000000  1.6038667  3
    627    625   1318   1309     1  0.0000000  1.6038667  3
    630    631    643    644     1  0.0000000  0.6508444  3
    630    631    643    645     1  0.0000000  0.6508444  3
    630    634    646    647     1  0.0000000  0.6508444  3
    630    634    646    648     1  0.0000000  0.6508444  3
    630    637    640    641     1  0.0000000  0.6508444  3
    630    637    640    642     1  0.0000000  0.6508444  3
    631    630    634    635     1  0.0000000  0.6508444  3
    631    630    634    636     1  0.0000000  0.6508444  3
    631    630    637    638     1  0.0000000  0.6508444  3
    631    630    637    639     1  0.0000000  0.6508444  3
    631    643    655    656     1  0.0000000  0.6508444  3
    631    643    655    657     1  0.0000000  0.6508444  3
    632    631    630    634     1  0.0000000  0.6508444  3
    632    631    630    637     1  0.0000000  0.6508444  3
    632    631    630    659     1  0.0000000  0.6508444  3
    632    631    643    655     1  0.0000000  0.6508444  3
    632    631    643    644     1  0.0000000  0.6508444  3
    632    631    643    645     1  0.0000000  0.6508444  3
    633    631    630    634     1  0.0000000  0.6508444  3
    633    631    630    637     1  0.0000000  0.6508444  3
    633    631    630    659     1  0.0000000  0.6508444  3
    633    631    643    655     1  0.0000000  0.6508444  3
    633    631    643    644     1  0.0000000  0.6508444  3
    633    631    643    645     1  0.0000000  0.6508444  3
    634    630    637    638     1  0.0000000  0.6508444  3
    634    630    637    639     1  0.0000000  0.6508444  3
    634    646    652    653     1  0.0000000  0.6508444  3
    634    646    652    654     1  0.0000000  0.6508444  3
    635    634    630    637     1  0.0000000  0.6508444  3
    635    634    630    659     1  0.0000000  0.6508444  3
    635    634    646    652     1  0.0000000  0.6508444  3
    635    634    646    647     1  0.0000000  0.6508444  3
    635    634    646    648     1  0.0000000  0.6508444  3
    636    634    630    637     1  0.0000000  0.6508444  3
    636    634    630    659     1  0.0000000  0.6508444  3
    636    634    646    652     1  0.0000000  0.6508444  3
    636    634    646    647     1  0.0000000  0.6508444  3
    636    634    646    648     1  0.0000000  0.6508444  3
    637    640    649    650     1  0.0000000  0.6508444  3
    637    640    649    651     1  0.0000000  0.6508444  3
    638    637    630    659     1  0.0000000  0.6508444  3
    638    637    640    649     1  0.0000000  0.6508444  3
    638    637    640    641     1  0.0000000  0.6508444  3
    638    637    640    642     1  0.0000000  0.6508444  3
    639    637    630    659     1  0.0000000  0.6508444  3
    639    637    640    649     1  0.0000000  0.6508444  3
    639    637    640    641     1  0.0000000  0.6508444  3
    639    637    640    642     1  0.0000000  0.6508444  3
    640    637    630    659     1  0.0000000  0.6508444  3
    641    640    649    658     1  0.0000000  1.0460000  1
    641    640    649    658     1  0.0000000  0.0000000  3
    641    640    649    650     1  0.0000000  0.6508444  3
    641    640    649    651     1  0.0000000  0.6508444  3
    642    640    649    658     1  0.0000000  1.0460000  1
    642    640    649    658     1  0.0000000  0.0000000  3
    642    640    649    650     1  0.0000000  0.6508444  3
    642    640    649    651     1  0.0000000  0.6508444  3
    643    631    630    659     1  0.0000000  0.6508444  3
    644    643    655   1378     1  0.0000000  1.0460000  1
    644    643    655   1378     1  0.0000000  0.0000000  3
    644    643    655    656     1  0.0000000  0.6508444  3
    644    643    655    657     1  0.0000000  0.6508444  3
    645    643    655   1378     1  0.0000000  1.0460000  1
    645    643    655   1378     1  0.0000000  0.0000000  3
    645    643    655    656     1  0.0000000  0.6508444  3
    645    643    655    657     1  0.0000000  0.6508444  3
    646    634    630    659     1  0.0000000  0.6508444  3
    647    646    652   1348     1  0.0000000  1.0460000  1
    647    646    652   1348     1  0.0000000  0.0000000  3
    647    646    652    653     1  0.0000000  0.6508444  3
    647    646    652    654     1  0.0000000  0.6508444  3
    648    646    652   1348     1  0.0000000  1.0460000  1
    648    646    652   1348     1  0.0000000  0.0000000  3
    648    646    652    653     1  0.0000000  0.6508444  3
    648    646    652    654     1  0.0000000  0.6508444  3
    652   1348   1339   1340     1  0.0000000  1.6038667  3
    652   1348   1339   1341     1  0.0000000  1.6038667  3
    653    652   1348   1339     1  0.0000000  1.6038667  3
    654    652   1348   1339     1  0.0000000  1.6038667  3
    655   1378   1369   1370     1  0.0000000  1.6038667  3
    655   1378   1369   1371     1  0.0000000  1.6038667  3
    656    655   1378   1369     1  0.0000000  1.6038667  3
    657    655   1378   1369     1  0.0000000  1.6038667  3
    660    661    673    674     1  0.0000000  0.6508444  3
    660    661    673    675     1  0.0000000  0.6508444  3
    660    664    676    677     1  0.0000000  0.6508444  3
    660    664    676    678     1  0.0000000  0.6508444  3
    660    667    670    671     1  0.0000000  0.6508444  3
    660    667    670    672     1  0.0000000  0.6508444  3
    661    660    664    665     1  0.0000000  0.6508444  3
    661    660    664    666     1  0.0000000  0.6508444  3
    661    660    667    668     1  0.0000000  0.6508444  3
    661    660    667    669     1  0.0000000  0.6508444  3
    661    673    685    686     1  0.0000000  0.6508444  3
    661    673    685    687     1  0.0000000  0.6508444  3
    662    661    660    664     1  0.0000000  0.6508444  3
    662    661    660    667     1  0.0000000  0.6508444  3
    662    661    660    689     1  0.0000000  0.6508444  3
    662    661    673    685     1  0.0000000  0.6508444  3
    662    661    673    674     1  0.0000000  0.6508444  3
    662    661    673    675     1  0.0000000  0.6508444  3
    663    661    660    664     1  0.0000000  0.6508444  3
    663    661    660    667     1  0.0000000  0.6508444  3
    663    661    660    689     1  0.0000000  0.6508444  3
    663    661    673    685     1  0.0000000  0.6508444  3
    663    661    673    674     1  0.0000000  0.6508444  3
    663    661    673    675     1  0.0000000  0.6508444  3
    664    660    667    668     1  0.0000000  0.6508444  3
    664    660    667    669     1  0.0000000  0.6508444  3
    664    676    682    683     1  0.0000000  0.6508444  3
    664    676    682    684     1  0.0000000  0.6508444  3
    665    664    660    667     1  0.0000000  0.6508444  3
    665    664    660    689     1  0.0000000  0.6508444  3
    665    664    676    682     1  0.0000000  0.6508444  3
    665    664    676    677     1  0.0000000  0.6508444  3
    665    664    676    678     1  0.0000000  0.6508444  3
    666    664    660    667     1  0.0000000  0.6508444  3
    666    664    660    689     1  0.0000000  0.6508444  3
    666    664    676    682     1  0.0000000  0.6508444  3
    666    664    676    677     1  0.0000000  0.6508444  3
    666    664    676    678     1  0.0000000  0.6508444  3
    667    670    679    680     1  0.0000000  0.6508444  3
    667    670    679    681     1  0.0000000  0.6508444  3
    668    667    660    689     1  0.0000000  0.6508444  3
    668    667    670    679     1  0.0000000  0.6508444  3
    668    667    670    671     1  0.0000000  0.6508444  3
    668    667    670    672     1  0.0000000  0.6508444  3
    669    667    660    689     1  0.0000000  0.6508444  3
    669    667    670    679     1  0.0000000  0.6508444  3
    669    667    670    671     1  0.0000000  0.6508444  3
    669    667    670    672     1  0.0000000  0.6508444  3
    670    667    660    689     1  0.0000000  0.6508444  3
    671    670    679    688     1  0.0000000  1.0460000  1
    671    670    679    688     1  0.0000000  0.0000000  3
    671    670    679    680     1  0.0000000  0.6508444  3
    671    670    679    681     1  0.0000000  0.6508444  3
    672    670    679    688     1  0.0000000  1.0460000  1
    672    670    679    688     1  0.0000000  0.0000000  3
    672    670    679    680     1  0.0000000  0.6508444  3
    672    670    679    681     1  0.0000000  0.6508444  3
    673    661    660    689     1  0.0000000  0.6508444  3
    674    673    685   1438     1  0.0000000  1.0460000  1
    674    673    685   1438     1  0.0000000  0.0000000  3
    674    673    685    686     1  0.0000000  0.6508444  3
    674    673    685    687     1  0.0000000  0.6508444  3
    675    673    685   1438     1  0.0000000  1.0460000  1
    675    673    685   1438     1  0.0000000  0.0000000  3
    675    673    685    686     1  0.0000000  0.6508444  3
    675    673    685    687     1  0.0000000  0.6508444  3
    676    664    660    689     1  0.0000000  0.6508444  3
    677    676    682   1408     1  0.0000000  1.0460000  1
    677    676    682   1408     1  0.0000000  0.0000000  3
    677    676    682    683     1  0.0000000  0.6508444  3
    677    676    682    684     1  0.0000000  0.6508444  3
    678    676    682   1408     1  0.0000000  1.0460000  1
    678    676    682   1408     1  0.0000000  0.0000000  3
    678    676    682    683     1  0.0000000  0.6508444  3
    678    676    682    684     1  0.0000000  0.6508444  3
    682   1408   1399   1400     1  0.0000000  1.6038667  3
    682   1408   1399   1401     1  0.0000000  1.6038667  3
    683    682   1408   1399     1  0.0000000  1.6038667  3
    684    682   1408   1399     1  0.0000000  1.6038667  3
    685   1438   1429   1430     1  0.0000000  1.6038667  3
    685   1438   1429   1431     1  0.0000000  1.6038667  3
    686    685   1438   1429     1  0.0000000  1.6038667  3
    687    685   1438   1429     1  0.0000000  1.6038667  3
    690    691    703    704     1  0.0000000  0.6508444  3
    690    691    703    705     1  0.0000000  0.6508444  3
    690    694    706    707     1  0.0000000  0.6508444  3
    690    694    706    708     1  0.0000000  0.6508444  3
    690    697    700    701     1  0.0000000  0.6508444  3
    690    697    700    702     1  0.0000000  0.6508444  3
    691    690    694    695     1  0.0000000  0.6508444  3
    691    690    694    696     1  0.0000000  0.6508444  3
    691    690    697    698     1  0.0000000  0.6508444  3
    691    690    697    699     1  0.0000000  0.6508444  3
    691    703    715    716     1  0.0000000  0.6508444  3
    691    703    715    717     1  0.0000000  0.6508444  3
    692    691    690    694     1  0.0000000  0.6508444  3
    692    691    690    697     1  0.0000000  0.6508444  3
    692    691    690    719     1  0.0000000  0.6508444  3
    692    691    703    715     1  0.0000000  0.6508444  3
    692    691    703    704     1  0.0000000  0.6508444  3
    692    691    703    705     1  0.0000000  0.6508444  3
    693    691    690    694     1  0.0000000  0.6508444  3
    693    691    690    697     1  0.0000000  0.6508444  3
    693    691    690    719     1  0.0000000  0.6508444  3
    693    691    703    715     1  0.0000000  0.6508444  3
    693    691    703    704     1  0.0000000  0.6508444  3
    693    691    703    705     1  0.0000000  0.6508444  3
    694    690    697    698     1  0.0000000  0.6508444  3
    694    690    697    699     1  0.0000000  0.6508444  3
    694    706    712    713     1  0.0000000  0.6508444  3
    694    706    712    714     1  0.0000000  0.6508444  3
    695    694    690    697     1  0.0000000  0.6508444  3
    695    694    690    719     1  0.0000000  0.6508444  3
    695    694    706    712     1  0.0000000  0.6508444  3
    695    694    706    707     1  0.0000000  0.6508444  3
    695    694    706    708     1  0.0000000  0.6508444  3
    696    694    690    697     1  0.0000000  0.6508444  3
    696    694    690    719     1  0.0000000  0.6508444  3
    696    694    706    712     1  0.0000000  0.6508444  3
    696    694    706    707     1  0.0000000  0.6508444  3
    696    694    706    708     1  0.0000000  0.6508444  3
    697    700    709    710     1  0.0000000  0.6508444  3
    697    700    709    711     1  0.0000000  0.6508444  3
    698    697    690    719     1  0.0000000  0.6508444  3
    698    697    700    709     1  0.0000000  0.6508444  3
    698    697    700    701     1  0.0000000  0.6508444  3
    698    697    700    702     1  0.0000000  0.6508444  3
    699    697    690    719     1  0.0000000  0.6508444  3
    699    697    700    709     1  0.0000000  0.6508444  3
    699    697    700    701     1  0.0000000  0.6508444  3
    699    697    700    702     1  0.0000000  0.6508444  3
    700    697    690    719     1  0.0000000  0.6508444  3
    701    700    709    718     1  0.0000000  1.0460000  1
    701    700    709    718     1  0.0000000  0.0000000  3
    701    700    709    710     1  0.0000000  0.6508444  3
    701    700    709    711     1  0.0000000  0.6508444  3
    702    700    709    718     1  0.0000000  1.0460000  1
    702    700    709    718     1  0.0000000  0.0000000  3
    702    700    709    710     1  0.0000000  0.6508444  3
    702    700    709    711     1  0.0000000  0.6508444  3
    703    691    690    719     1  0.0000000  0.6508444  3
    704    703    715   1498     1  0.0000000  1.0460000  1
    704    703    715   1498     1  0.0000000  0.0000000  3
    704    703    715    716     1  0.0000000  0.6508444  3
    704    703    715    717     1  0.0000000  0.6508444  3
    705    703    715   1498     1  0.0000000  1.0460000  1
    705    703    715   1498     1  0.0000000  0.0000000  3
    705    703    715    716     1  0.0000000  0.6508444  3
    705    703    715    717     1  0.0000000  0.6508444  3
    706    694    690    719     1  0.0000000  0.6508444  3
    707    706    712   1468     1  0.0000000  1.0460000  1
    707    706    712   1468     1  0.0000000  0.0000000  3
    707    706    712    713     1  0.0000000  0.6508444  3
    707    706    712    714     1  0.0000000  0.6508444  3
    708    706    712   1468     1  0.0000000  1.0460000  1
    708    706    712   1468     1  0.0000000  0.0000000  3
    708    706    712    713     1  0.0000000  0.6508444  3
    708    706    712    714     1  0.0000000  0.6508444  3
    712   1468   1459   1460     1  0.0000000  1.6038667  3
    712   1468   1459   1461     1  0.0000000  1.6038667  3
    713    712   1468   1459     1  0.0000000  1.6038667  3
    714    712   1468   1459     1  0.0000000  1.6038667  3
    715   1498   1489   1490     1  0.0000000  1.6038667  3
    715   1498   1489   1491     1  0.0000000  1.6038667  3
    716    715   1498   1489     1  0.0000000  1.6038667  3
    717    715   1498   1489     1  0.0000000  1.6038667  3
    720    721    733    734     1  0.0000000  0.6508444  3
    720    721    733    735     1  0.0000000  0.6508444  3
    720    724    736    737     1  0.0000000  0.6508444  3
    720    724    736    738     1  0.0000000  0.6508444  3
    720    727    730    731     1  0.0000000  0.6508444  3
    720    727    730    732     1  0.0000000  0.6508444  3
    721    720    724    725     1  0.0000000  0.6508444  3
    721    720    724    726     1  0.0000000  0.6508444  3
    721    720    727    728     1  0.0000000  0.6508444  3
    721    720    727    729     1  0.0000000  0.6508444  3
    721    733    745    746     1  0.0000000  0.6508444  3
    721    733    745    747     1  0.0000000  0.6508444  3
    722    721    720    724     1  0.0000000  0.6508444  3
    722    721    720    727     1  0.0000000  0.6508444  3
    722    721    720    749     1  0.0000000  0.6508444  3
    722    721    733    745     1  0.0000000  0.6508444  3
    722    721    733    734     1  0.0000000  0.6508444  3
    722    721    733    735     1  0.0000000  0.6508444  3
    723    721    720    724     1  0.0000000  0.6508444  3
    723    721    720    727     1  0.0000000  0.6508444  3
    723    721    720    749     1  0.0000000  0.6508444  3
    723    721    733    745     1  0.0000000  0.6508444  3
    723    721    733    734     1  0.0000000  0.6508444  3
    723    721    733    735     1  0.0000000  0.6508444  3
    724    720    727    728     1  0.0000000  0.6508444  3
    724    720    727    729     1  0.0000000  0.6508444  3
    724    736    742    743     1  0.0000000  0.6508444  3
    724    736    742    744     1  0.0000000  0.6508444  3
    725    724    720    727     1  0.0000000  0.6508444  3
    725    724    720    749     1  0.0000000  0.6508444  3
    725    724    736    742     1  0.0000000  0.6508444  3
    725    724    736    737     1  0.0000000  0.6508444  3
    725    724    736    738     1  0.0000000  0.6508444  3
    726    724    720    727     1  0.0000000  0.6508444  3
    726    724    720    749     1  0.0000000  0.6508444  3
    726    724    736    742     1  0.0000000  0.6508444  3
    726    724    736    737     1  0.0000000  0.6508444  3
    726    724    736    738     1  0.0000000  0.6508444  3
    727    730    739    740     1  0.0000000  0.6508444  3
    727    730    739    741     1  0.0000000  0.6508444  3
    728    727    720    749     1  0.0000000  0.6508444  3
    728    727    730    739     1  0.0000000  0.6508444  3
    728    727    730    731     1  0.0000000  0.6508444  3
    728    727    730    732     1  0.0000000  0.6508444  3
    729    727    720    749     1  0.0000000  0.6508444  3
    729    727    730    739     1  0.0000000  0.6508444  3
    729    727    730    731     1  0.0000000  0.6508444  3
    729    727    730    732     1  0.0000000  0.6508444  3
    730    727    720    749     1  0.0000000  0.6508444  3
    731    730    739    748     1  0.0000000  1.0460000  1
    731    730    739    748     1  0.0000000  0.0000000  3
    731    730    739    740     1  0.0000000  0.6508444  3
    731    730    739    741     1  0.0000000  0.6508444  3
    732    730    739    748     1  0.0000000  1.0460000  1
    732    730    739    748     1  0.0000000  0.0000000  3
    732    730    739    740     1  0.0000000  0.6508444  3
    732    730    739    741     1  0.0000000  0.6508444  3
    733    721    720    749     1  0.0000000  0.6508444  3
    734    733    745   1558     1  0.0000000  1.0460000  1
    734    733    745   1558     1  0.0000000  0.0000000  3
    734    733    745    746     1  0.0000000  0.6508444  3
    734    733    745    747     1  0.0000000  0.6508444  3
    735    733    745   1558     1  0.0000000  1.0460000  1
    735    733    745   1558     1  0.0000000  0.0000000  3
    735    733    745    746     1  0.0000000  0.6508444  3
    735    733    745    747     1  0.0000000  0.6508444  3
    736    724    720    749     1  0.0000000  0.6508444  3
    737    736    742   1528     1  0.0000000  1.0460000  1
    737    736    742   1528     1  0.0000000  0.0000000  3
    737    736    742    743     1  0.0000000  0.6508444  3
    737    736    742    744     1  0.0000000  0.6508444  3
    738    736    742   1528     1  0.0000000  1.0460000  1
    738    736    742   1528     1  0.0000000  0.0000000  3
    738    736    742    743     1  0.0000000  0.6508444  3
    738    736    742    744     1  0.0000000  0.6508444  3
    742   1528   1519   1520     1  0.0000000  1.6038667  3
    742   1528   1519   1521     1  0.0000000  1.6038667  3
    743    742   1528   1519     1  0.0000000  1.6038667  3
    744    742   1528   1519     1  0.0000000  1.6038667  3
    745   1558   1549   1550     1  0.0000000  1.6038667  3
    745   1558   1549   1551     1  0.0000000  1.6038667  3
    746    745   1558   1549     1  0.0000000  1.6038667  3
    747    745   1558   1549     1  0.0000000  1.6038667  3
    750    751    763    764     1  0.0000000  0.6508444  3
    750    751    763    765     1  0.0000000  0.6508444  3
    750    754    766    767     1  0.0000000  0.6508444  3
    750    754    766    768     1  0.0000000  0.6508444  3
    750    757    760    761     1  0.0000000  0.6508444  3
    750    757    760    762     1  0.0000000  0.6508444  3
    751    750    754    755     1  0.0000000  0.6508444  3
    751    750    754    756     1  0.0000000  0.6508444  3
    751    750    757    758     1  0.0000000  0.6508444  3
    751    750    757    759     1  0.0000000  0.6508444  3
    751    763    775    776     1  0.0000000  0.6508444  3
    751    763    775    777     1  0.0000000  0.6508444  3
    752    751    750    754     1  0.0000000  0.6508444  3
    752    751    750    757     1  0.0000000  0.6508444  3
    752    751    750    779     1  0.0000000  0.6508444  3
    752    751    763    775     1  0.0000000  0.6508444  3
    752    751    763    764     1  0.0000000  0.6508444  3
    752    751    763    765     1  0.0000000  0.6508444  3
    753    751    750    754     1  0.0000000  0.6508444  3
    753    751    750    757     1  0.0000000  0.6508444  3
    753    751    750    779     1  0.0000000  0.6508444  3
    753    751    763    775     1  0.0000000  0.6508444  3
    753    751    763    764     1  0.0000000  0.6508444  3
    753    751    763    765     1  0.0000000  0.6508444  3
    754    750    757    758     1  0.0000000  0.6508444  3
    754    750    757    759     1  0.0000000  0.6508444  3
    754    766    772    773     1  0.0000000  0.6508444  3
    754    766    772    774     1  0.0000000  0.6508444  3
    755    754    750    757     1  0.0000000  0.6508444  3
    755    754    750    779     1  0.0000000  0.6508444  3
    755    754    766    772     1  0.0000000  0.6508444  3
    755    754    766    767     1  0.0000000  0.6508444  3
    755    754    766    768     1  0.0000000  0.6508444  3
    756    754    750    757     1  0.0000000  0.6508444  3
    756    754    750    779     1  0.0000000  0.6508444  3
    756    754    766    772     1  0.0000000  0.6508444  3
    756    754    766    767     1  0.0000000  0.6508444  3
    756    754    766    768     1  0.0000000  0.6508444  3
    757    760    769    770     1  0.0000000  0.6508444  3
    757    760    769    771     1  0.0000000  0.6508444  3
    758    757    750    779     1  0.0000000  0.6508444  3
    758    757    760    769     1  0.0000000  0.6508444  3
    758    757    760    761     1  0.0000000  0.6508444  3
    758    757    760    762     1  0.0000000  0.6508444  3
    759    757    750    779     1  0.0000000  0.6508444  3
    759    757    760    769     1  0.0000000  0.6508444  3
    759    757    760    761     1  0.0000000  0.6508444  3
    759    757    760    762     1  0.0000000  0.6508444  3
    760    757    750    779     1  0.0000000  0.6508444  3
    761    760    769    778     1  0.0000000  1.0460000  1
    761    760    769    778     1  0.0000000  0.0000000  3
    761    760    769    770     1  0.0000000  0.6508444  3
    761    760    769    771     1  0.0000000  0.6508444  3
    762    760    769    778     1  0.0000000  1.0460000  1
    762    760    769    778     1  0.0000000  0.0000000  3
    762    760    769    770     1  0.0000000  0.6508444  3
    762    760    769    771     1  0.0000000  0.6508444  3
    763    751    750    779     1  0.0000000  0.6508444  3
    764    763    775   1618     1  0.0000000  1.0460000  1
    764    763    775   1618     1  0.0000000  0.0000000  3
    764    763    775    776     1  0.0000000  0.6508444  3
    764    763    775    777     1  0.0000000  0.6508444  3
    765    763    775   1618     1  0.0000000  1.0460000  1
    765    763    775   1618     1  0.0000000  0.0000000  3
    765    763    775    776     1  0.0000000  0.6508444  3
    765    763    775    777     1  0.0000000  0.6508444  3
    766    754    750    779     1  0.0000000  0.6508444  3
    767    766    772   1588     1  0.0000000  1.0460000  1
    767    766    772   1588     1  0.0000000  0.0000000  3
    767    766    772    773     1  0.0000000  0.6508444  3
    767    766    772    774     1  0.0000000  0.6508444  3
    768    766    772   1588     1  0.0000000  1.0460000  1
    768    766    772   1588     1  0.0000000  0.0000000  3
    768    766    772    773     1  0.0000000  0.6508444  3
    768    766    772    774     1  0.0000000  0.6508444  3
    772   1588   1579   1580     1  0.0000000  1.6038667  3
    772   1588   1579   1581     1  0.0000000  1.6038667  3
    773    772   1588   1579     1  0.0000000  1.6038667  3
    774    772   1588   1579     1  0.0000000  1.6038667  3
    775   1618   1609   1610     1  0.0000000  1.6038667  3
    775   1618   1609   1611     1  0.0000000  1.6038667  3
    776    775   1618   1609     1  0.0000000  1.6038667  3
    777    775   1618   1609     1  0.0000000  1.6038667  3
    780    781    793    794     1  0.0000000  0.6508444  3
    780    781    793    795     1  0.0000000  0.6508444  3
    780    784    796    797     1  0.0000000  0.6508444  3
    780    784    796    798     1  0.0000000  0.6508444  3
    780    787    790    791     1  0.0000000  0.6508444  3
    780    787    790    792     1  0.0000000  0.6508444  3
    781    780    784    785     1  0.0000000  0.6508444  3
    781    780    784    786     1  0.0000000  0.6508444  3
    781    780    787    788     1  0.0000000  0.6508444  3
    781    780    787    789     1  0.0000000  0.6508444  3
    781    793    805    806     1  0.0000000  0.6508444  3
    781    793    805    807     1  0.0000000  0.6508444  3
    782    781    780    784     1  0.0000000  0.6508444  3
    782    781    780    787     1  0.0000000  0.6508444  3
    782    781    780    809     1  0.0000000  0.6508444  3
    782    781    793    805     1  0.0000000  0.6508444  3
    782    781    793    794     1  0.0000000  0.6508444  3
    782    781    793    795     1  0.0000000  0.6508444  3
    783    781    780    784     1  0.0000000  0.6508444  3
    783    781    780    787     1  0.0000000  0.6508444  3
    783    781    780    809     1  0.0000000  0.6508444  3
    783    781    793    805     1  0.0000000  0.6508444  3
    783    781    793    794     1  0.0000000  0.6508444  3
    783    781    793    795     1  0.0000000  0.6508444  3
    784    780    787    788     1  0.0000000  0.6508444  3
    784    780    787    789     1  0.0000000  0.6508444  3
    784    796    802    803     1  0.0000000  0.6508444  3
    784    796    802    804     1  0.0000000  0.6508444  3
    785    784    780    787     1  0.0000000  0.6508444  3
    785    784    780    809     1  0.0000000  0.6508444  3
    785    784    796    802     1  0.0000000  0.6508444  3
    785    784    796    797     1  0.0000000  0.6508444  3
    785    784    796    798     1  0.0000000  0.6508444  3
    786    784    780    787     1  0.0000000  0.6508444  3
    786    784    780    809     1  0.0000000  0.6508444  3
    786    784    796    802     1  0.0000000  0.6508444  3
    786    784    796    797     1  0.0000000  0.6508444  3
    786    784    796    798     1  0.0000000  0.6508444  3
    787    790    799    800     1  0.0000000  0.6508444  3
    787    790    799    801     1  0.0000000  0.6508444  3
    788    787    780    809     1  0.0000000  0.6508444  3
    788    787    790    799     1  0.0000000  0.6508444  3
    788    787    790    791     1  0.0000000  0.6508444  3
    788    787    790    792     1  0.0000000  0.6508444  3
    789    787    780    809     1  0.0000000  0.6508444  3
    789    787    790    799     1  0.0000000  0.6508444  3
    789    787    790    791     1  0.0000000  0.6508444  3
    789    787    790    792     1  0.0000000  0.6508444  3
    790    787    780    809     1  0.0000000  0.6508444  3
    791    790    799    808     1  0.0000000  1.0460000  1
    791    790    799    808     1  0.0000000  0.0000000  3
    791    790    799    800     1  0.0000000  0.6508444  3
    791    790    799    801     1  0.0000000  0.6508444  3
    792    790    799    808     1  0.0000000  1.0460000  1
    792    790    799    808     1  0.0000000  0.0000000  3
    792    790    799    800     1  0.0000000  0.6508444  3
    792    790    799    801     1  0.0000000  0.6508444  3
    793    781    780    809     1  0.0000000  0.6508444  3
    794    793    805   1678     1  0.0000000  1.0460000  1
    794    793    805   1678     1  0.0000000  0.0000000  3
    794    793    805    806     1  0.0000000  0.6508444  3
    794    793    805    807     1  0.0000000  0.6508444  3
    795    793    805   1678     1  0.0000000  1.0460000  1
    795    793    805   1678     1  0.0000000  0.0000000  3
    795    793    805    806     1  0.0000000  0.6508444  3
    795    793    805    807     1  0.0000000  0.6508444  3
    796    784    780    809     1  0.0000000  0.6508444  3
    797    796    802   1648     1  0.0000000  1.0460000  1
    797    796    802   1648     1  0.0000000  0.0000000  3
    797    796    802    803     1  0.0000000  0.6508444  3
    797    796    802    804     1  0.0000000  0.6508444  3
    798    796    802   1648     1  0.0000000  1.0460000  1
    798    796    802   1648     1  0.0000000  0.0000000  3
    798    796    802    803     1  0.0000000  0.6508444  3
    798    796    802    804     1  0.0000000  0.6508444  3
    802   1648   1639   1640     1  0.0000000  1.6038667  3
    802   1648   1639   1641     1  0.0000000  1.6038667  3
    803    802   1648   1639     1  0.0000000  1.6038667  3
    804    802   1648   1639     1  0.0000000  1.6038667  3
    805   1678   1669   1670     1  0.0000000  1.6038667  3
    805   1678   1669   1671     1  0.0000000  1.6038667  3
    806    805   1678   1669     1  0.0000000  1.6038667  3
    807    805   1678   1669     1  0.0000000  1.6038667  3
    810    811    823    824     1  0.0000000  0.6508444  3
    810    811    823    825     1  0.0000000  0.6508444  3
    810    814    826    827     1  0.0000000  0.6508444  3
    810    814    826    828     1  0.0000000  0.6508444  3
    810    817    820    821     1  0.0000000  0.6508444  3
    810    817    820    822     1  0.0000000  0.6508444  3
    811    810    814    815     1  0.0000000  0.6508444  3
    811    810    814    816     1  0.0000000  0.6508444  3
    811    810    817    818     1  0.0000000  0.6508444  3
    811    810    817    819     1  0.0000000  0.6508444  3
    811    823    835    836     1  0.0000000  0.6508444  3
    811    823    835    837     1  0.0000000  0.6508444  3
    812    811    810    814     1  0.0000000  0.6508444  3
    812    811    810    817     1  0.0000000  0.6508444  3
    812    811    810    839     1  0.0000000  0.6508444  3
    812    811    823    835     1  0.0000000  0.6508444  3
    812    811    823    824     1  0.0000000  0.6508444  3
    812    811    823    825     1  0.0000000  0.6508444  3
    813    811    810    814     1  0.0000000  0.6508444  3
    813    811    810    817     1  0.0000000  0.6508444  3
    813    811    810    839     1  0.0000000  0.6508444  3
    813    811    823    835     1  0.0000000  0.6508444  3
    813    811    823    824     1  0.0000000  0.6508444  3
    813    811    823    825     1  0.0000000  0.6508444  3
    814    810    817    818     1  0.0000000  0.6508444  3
    814    810    817    819     1  0.0000000  0.6508444  3
    814    826    832    833     1  0.0000000  0.6508444  3
    814    826    832    834     1  0.0000000  0.6508444  3
    815    814    810    817     1  0.0000000  0.6508444  3
    815    814    810    839     1  0.0000000  0.6508444  3
    815    814    826    832     1  0.0000000  0.6508444  3
    815    814    826    827     1  0.0000000  0.6508444  3
    815    814    826    828     1  0.0000000  0.6508444  3
    816    814    810    817     1  0.0000000  0.6508444  3
    816    814    810    839     1  0.0000000  0.6508444  3
    816    814    826    832     1  0.0000000  0.6508444  3
    816    814    826    827     1  0.0000000  0.6508444  3
    816    814    826    828     1  0.0000000  0.6508444  3
    817    820    829    830     1  0.0000000  0.6508444  3
    817    820    829    831     1  0.0000000  0.6508444  3
    818    817    810    839     1  0.0000000  0.6508444  3
    818    817    820    829     1  0.0000000  0.6508444  3
    818    817    820    821     1  0.0000000  0.6508444  3
    818    817    820    822     1  0.0000000  0.6508444  3
    819    817    810    839     1  0.0000000  0.6508444  3
    819    817    820    829     1  0.0000000  0.6508444  3
    819    817    820    821     1  0.0000000  0.6508444  3
    819    817    820    822     1  0.0000000  0.6508444  3
    820    817    810    839     1  0.0000000  0.6508444  3
    821    820    829    838     1  0.0000000  1.0460000  1
    821    820    829    838     1  0.0000000  0.0000000  3
    821    820    829    830     1  0.0000000  0.6508444  3
    821    820    829    831     1  0.0000000  0.6508444  3
    822    820    829    838     1  0.0000000  1.0460000  1
    822    820    829    838     1  0.0000000  0.0000000  3
    822    820    829    830     1  0.0000000  0.6508444  3
    822    820    829    831     1  0.0000000  0.6508444  3
    823    811    810    839     1  0.0000000  0.6508444  3
    824    823    835   1738     1  0.0000000  1.0460000  1
    824    823    835   1738     1  0.0000000  0.0000000  3
    824    823    835    836     1  0.0000000  0.6508444  3
    824    823    835    837     1  0.0000000  0.6508444  3
    825    823    835   1738     1  0.0000000  1.0460000  1
    825    823    835   1738     1  0.0000000  0.0000000  3
    825    823    835    836     1  0.0000000  0.6508444  3
    825    823    835    837     1  0.0000000  0.6508444  3
    826    814    810    839     1  0.0000000  0.6508444  3
    827    826    832   1708     1  0.0000000  1.0460000  1
    827    826    832   1708     1  0.0000000  0.0000000  3
    827    826    832    833     1  0.0000000  0.6508444  3
    827    826    832    834     1  0.0000000  0.6508444  3
    828    826    832   1708     1  0.0000000  1.0460000  1
    828    826    832   1708     1  0.0000000  0.0000000  3
    828    826    832    833     1  0.0000000  0.6508444  3
    828    826    832    834     1  0.0000000  0.6508444  3
    832   1708   1699   1700     1  0.0000000  1.6038667  3
    832   1708   1699   1701     1  0.0000000  1.6038667  3
    833    832   1708   1699     1  0.0000000  1.6038667  3
    834    832   1708   1699     1  0.0000000  1.6038667  3
    835   1738   1729   1730     1  0.0000000  1.6038667  3
    835   1738   1729   1731     1  0.0000000  1.6038667  3
    836    835   1738   1729     1  0.0000000  1.6038667  3
    837    835   1738   1729     1  0.0000000  1.6038667  3
    840    841    853    854     1  0.0000000  0.6508444  3
    840    841    853    855     1  0.0000000  0.6508444  3
    840    844    856    857     1  0.0000000  0.6508444  3
    840    844    856    858     1  0.0000000  0.6508444  3
    840    847    850    851     1  0.0000000  0.6508444  3
    840    847    850    852     1  0.0000000  0.6508444  3
    841    840    844    845     1  0.0000000  0.6508444  3
    841    840    844    846     1  0.0000000  0.6508444  3
    841    840    847    848     1  0.0000000  0.6508444  3
    841    840    847    849     1  0.0000000  0.6508444  3
    841    853    865    866     1  0.0000000  0.6508444  3
    841    853    865    867     1  0.0000000  0.6508444  3
    842    841    840    844     1  0.0000000  0.6508444  3
    842    841    840    847     1  0.0000000  0.6508444  3
    842    841    840    869     1  0.0000000  0.6508444  3
    842    841    853    865     1  0.0000000  0.6508444  3
    842    841    853    854     1  0.0000000  0.6508444  3
    842    841    853    855     1  0.0000000  0.6508444  3
    843    841    840    844     1  0.0000000  0.6508444  3
    843    841    840    847     1  0.0000000  0.6508444  3
    843    841    840    869     1  0.0000000  0.6508444  3
    843    841    853    865     1  0.0000000  0.6508444  3
    843    841    853    854     1  0.0000000  0.6508444  3
    843    841    853    855     1  0.0000000  0.6508444  3
    844    840    847    848     1  0.0000000  0.6508444  3
    844    840    847    849     1  0.0000000  0.6508444  3
    844    856    862    863     1  0.0000000  0.6508444  3
    844    856    862    864     1  0.0000000  0.6508444  3
    845    844    840    847     1  0.0000000  0.6508444  3
    845    844    840    869     1  0.0000000  0.6508444  3
    845    844    856    862     1  0.0000000  0.6508444  3
    845    844    856    857     1  0.0000000  0.6508444  3
    845    844    856    858     1  0.0000000  0.6508444  3
    846    844    840    847     1  0.0000000  0.6508444  3
    846    844    840    869     1  0.0000000  0.6508444  3
    846    844    856    862     1  0.0000000  0.6508444  3
    846    844    856    857     1  0.0000000  0.6508444  3
    846    844    856    858     1  0.0000000  0.6508444  3
    847    850    859    860     1  0.0000000  0.6508444  3
    847    850    859    861     1  0.0000000  0.6508444  3
    848    847    840    869     1  0.0000000  0.6508444  3
    848    847    850    859     1  0.0000000  0.6508444  3
    848    847    850    851     1  0.0000000  0.6508444  3
    848    847    850    852     1  0.0000000  0.6508444  3
    849    847    840    869     1  0.0000000  0.6508444  3
    849    847    850    859     1  0.0000000  0.6508444  3
    849    847    850    851     1  0.0000000  0.6508444  3
    849    847    850    852     1  0.0000000  0.6508444  3
    850    847    840    869     1  0.0000000  0.6508444  3
    851    850    859    868     1  0.0000000  1.0460000  1
    851    850    859    868     1  0.0000000  0.0000000  3
    851    850    859    860     1  0.0000000  0.6508444  3
    851    850    859    861     1  0.0000000  0.6508444  3
    852    850    859    868     1  0.0000000  1.0460000  1
    852    850    859    868     1  0.0000000  0.0000000  3
    852    850    859    860     1  0.0000000  0.6508444  3
    852    850    859    861     1  0.0000000  0.6508444  3
    853    841    840    869     1  0.0000000  0.6508444  3
    854    853    865   1798     1  0.0000000  1.0460000  1
    854    853    865   1798     1  0.0000000  0.0000000  3
    854    853    865    866     1  0.0000000  0.6508444  3
    854    853    865    867     1  0.0000000  0.6508444  3
    855    853    865   1798     1  0.0000000  1.0460000  1
    855    853    865   1798     1  0.0000000  0.0000000  3
    855    853    865    866     1  0.0000000  0.6508444  3
    855    853    865    867     1  0.0000000  0.6508444  3
    856    844    840    869     1  0.0000000  0.6508444  3
    857    856    862   1768     1  0.0000000  1.0460000  1
    857    856    862   1768     1  0.0000000  0.0000000  3
    857    856    862    863     1  0.0000000  0.6508444  3
    857    856    862    864     1  0.0000000  0.6508444  3
    858    856    862   1768     1  0.0000000  1.0460000  1
    858    856    862   1768     1  0.0000000  0.0000000  3
    858    856    862    863     1  0.0000000  0.6508444  3
    858    856    862    864     1  0.0000000  0.6508444  3
    862   1768   1759   1760     1  0.0000000  1.6038667  3
    862   1768   1759   1761     1  0.0000000  1.6038667  3
    863    862   1768   1759     1  0.0000000  1.6038667  3
    864    862   1768   1759     1  0.0000000  1.6038667  3
    865   1798   1789   1790     1  0.0000000  1.6038667  3
    865   1798   1789   1791     1  0.0000000  1.6038667  3
    866    865   1798   1789     1  0.0000000  1.6038667  3
    867    865   1798   1789     1  0.0000000  1.6038667  3
    870    871    883    884     1  0.0000000  0.6508444  3
    870    871    883    885     1  0.0000000  0.6508444  3
    870    874    886    887     1  0.0000000  0.6508444  3
    870    874    886    888     1  0.0000000  0.6508444  3
    870    877    880    881     1  0.0000000  0.6508444  3
    870    877    880    882     1  0.0000000  0.6508444  3
    871    870    874    875     1  0.0000000  0.6508444  3
    871    870    874    876     1  0.0000000  0.6508444  3
    871    870    877    878     1  0.0000000  0.6508444  3
    871    870    877    879     1  0.0000000  0.6508444  3
    871    883    895    896     1  0.0000000  0.6508444  3
    871    883    895    897     1  0.0000000  0.6508444  3
    872    871    870    874     1  0.0000000  0.6508444  3
    872    871    870    877     1  0.0000000  0.6508444  3
    872    871    870    899     1  0.0000000  0.6508444  3
    872    871    883    895     1  0.0000000  0.6508444  3
    872    871    883    884     1  0.0000000  0.6508444  3
    872    871    883    885     1  0.0000000  0.6508444  3
    873    871    870    874     1  0.0000000  0.6508444  3
    873    871    870    877     1  0.0000000  0.6508444  3
    873    871    870    899     1  0.0000000  0.6508444  3
    873    871    883    895     1  0.0000000  0.6508444  3
    873    871    883    884     1  0.0000000  0.6508444  3
    873    871    883    885     1  0.0000000  0.6508444  3
    874    870    877    878     1  0.0000000  0.6508444  3
    874    870    877    879     1  0.0000000  0.6508444  3
    874    886    892    893     1  0.0000000  0.6508444  3
    874    886    892    894     1  0.0000000  0.6508444  3
    875    874    870    877     1  0.0000000  0.6508444  3
    875    874    870    899     1  0.0000000  0.6508444  3
    875    874    886    892     1  0.0000000  0.6508444  3
    875    874    886    887     1  0.0000000  0.6508444  3
    875    874    886    888     1  0.0000000  0.6508444  3
    876    874    870    877     1  0.0000000  0.6508444  3
    876    874    870    899     1  0.0000000  0.6508444  3
    876    874    886    892     1  0.0000000  0.6508444  3
    876    874    886    887     1  0.0000000  0.6508444  3
    876    874    886    888     1  0.0000000  0.6508444  3
    877    880    889    890     1  0.0000000  0.6508444  3
    877    880    889    891     1  0.0000000  0.6508444  3
    878    877    870    899     1  0.0000000  0.6508444  3
    878    877    880    889     1  0.0000000  0.6508444  3
    878    877    880    881     1  0.0000000  0.6508444  3
    878    877    880    882     1  0.0000000  0.6508444  3
    879    877    870    899     1  0.0000000  0.6508444  3
    879    877    880    889     1  0.0000000  0.6508444  3
    879    877    880    881     1  0.0000000  0.6508444  3
    879    877    880    882     1  0.0000000  0.6508444  3
    880    877    870    899     1  0.0000000  0.6508444  3
    881    880    889    898     1  0.0000000  1.0460000  1
    881    880    889    898     1  0.0000000  0.0000000  3
    881    880    889    890     1  0.0000000  0.6508444  3
    881    880    889    891     1  0.0000000  0.6508444  3
    882    880    889    898     1  0.0000000  1.0460000  1
    882    880    889    898     1  0.0000000  0.0000000  3
    882    880    889    890     1  0.0000000  0.6508444  3
    882    880    889    891     1  0.0000000  0.6508444  3
    883    871    870    899     1  0.0000000  0.6508444  3
    884    883    895   1858     1  0.0000000  1.0460000  1
    884    883    895   1858     1  0.0000000  0.0000000  3
    884    883    895    896     1  0.0000000  0.6508444  3
    884    883    895    897     1  0.0000000  0.6508444  3
    885    883    895   1858     1  0.0000000  1.0460000  1
    885    883    895   1858     1  0.0000000  0.0000000  3
    885    883    895    896     1  0.0000000  0.6508444  3
    885    883    895    897     1  0.0000000  0.6508444  3
    886    874    870    899     1  0.0000000  0.6508444  3
    887    886    892   1828     1  0.0000000  1.0460000  1
    887    886    892   1828     1  0.0000000  0.0000000  3
    887    886    892    893     1  0.0000000  0.6508444  3
    887    886    892    894     1  0.0000000  0.6508444  3
    888    886    892   1828     1  0.0000000  1.0460000  1
    888    886    892   1828     1  0.0000000  0.0000000  3
    888    886    892    893     1  0.0000000  0.6508444  3
    888    886    892    894     1  0.0000000  0.6508444  3
    892   1828   1819   1820     1  0.0000000  1.6038667  3
    892   1828   1819   1821     1  0.0000000  1.6038667  3
    893    892   1828   1819     1  0.0000000  1.6038667  3
    894    892   1828   1819     1  0.0000000  1.6038667  3
    895   1858   1849   1850     1  0.0000000  1.6038667  3
    895   1858   1849   1851     1  0.0000000  1.6038667  3
    896    895   1858   1849     1  0.0000000  1.6038667  3
    897    895   1858   1849     1  0.0000000  1.6038667  3
    900    901    913    914     1  0.0000000  0.6508444  3
    900    901    913    915     1  0.0000000  0.6508444  3
    900    904    916    917     1  0.0000000  0.6508444  3
    900    904    916    918     1  0.0000000  0.6508444  3
    900    907    910    911     1  0.0000000  0.6508444  3
    900    907    910    912     1  0.0000000  0.6508444  3
    901    900    904    905     1  0.0000000  0.6508444  3
    901    900    904    906     1  0.0000000  0.6508444  3
    901    900    907    908     1  0.0000000  0.6508444  3
    901    900    907    909     1  0.0000000  0.6508444  3
    901    913    925    926     1  0.0000000  0.6508444  3
    901    913    925    927     1  0.0000000  0.6508444  3
    902    901    900    904     1  0.0000000  0.6508444  3
    902    901    900    907     1  0.0000000  0.6508444  3
    902    901    900    929     1  0.0000000  0.6508444  3
    902    901    913    925     1  0.0000000  0.6508444  3
    902    901    913    914     1  0.0000000  0.6508444  3
    902    901    913    915     1  0.0000000  0.6508444  3
    903    901    900    904     1  0.0000000  0.6508444  3
    903    901    900    907     1  0.0000000  0.6508444  3
    903    901    900    929     1  0.0000000  0.6508444  3
    903    901    913    925     1  0.0000000  0.6508444  3
    903    901    913    914     1  0.0000000  0.6508444  3
    903    901    913    915     1  0.0000000  0.6508444  3
    904    900    907    908     1  0.0000000  0.6508444  3
    904    900    907    909     1  0.0000000  0.6508444  3
    904    916    922    923     1  0.0000000  0.6508444  3
    904    916    922    924     1  0.0000000  0.6508444  3
    905    904    900    907     1  0.0000000  0.6508444  3
    905    904    900    929     1  0.0000000  0.6508444  3
    905    904    916    922     1  0.0000000  0.6508444  3
    905    904    916    917     1  0.0000000  0.6508444  3
    905    904    916    918     1  0.0000000  0.6508444  3
    906    904    900    907     1  0.0000000  0.6508444  3
    906    904    900    929     1  0.0000000  0.6508444  3
    906    904    916    922     1  0.0000000  0.6508444  3
    906    904    916    917     1  0.0000000  0.6508444  3
    906    904    916    918     1  0.0000000  0.6508444  3
    907    910    919    920     1  0.0000000  0.6508444  3
    907    910    919    921     1  0.0000000  0.6508444  3
    908    907    900    929     1  0.0000000  0.6508444  3
    908    907    910    919     1  0.0000000  0.6508444  3
    908    907    910    911     1  0.0000000  0.6508444  3
    908    907    910    912     1  0.0000000  0.6508444  3
    909    907    900    929     1  0.0000000  0.6508444  3
    909    907    910    919     1  0.0000000  0.6508444  3
    909    907    910    911     1  0.0000000  0.6508444  3
    909    907    910    912     1  0.0000000  0.6508444  3
    910    907    900    929     1  0.0000000  0.6508444  3
    911    910    919    928     1  0.0000000  1.0460000  1
    911    910    919    928     1  0.0000000  0.0000000  3
    911    910    919    920     1  0.0000000  0.6508444  3
    911    910    919    921     1  0.0000000  0.6508444  3
    912    910    919    928     1  0.0000000  1.0460000  1
    912    910    919    928     1  0.0000000  0.0000000  3
    912    910    919    920     1  0.0000000  0.6508444  3
    912    910    919    921     1  0.0000000  0.6508444  3
    913    901    900    929     1  0.0000000  0.6508444  3
    914    913    925   1893     1  0.0000000  1.0460000  1
    914    913    925   1893     1  0.0000000  0.0000000  3
    914    913    925    926     1  0.0000000  0.6508444  3
    914    913    925    927     1  0.0000000  0.6508444  3
    915    913    925   1893     1  0.0000000  1.0460000  1
    915    913    925   1893     1  0.0000000  0.0000000  3
    915    913    925    926     1  0.0000000  0.6508444  3
    915    913    925    927     1  0.0000000  0.6508444  3
    916    904    900    929     1  0.0000000  0.6508444  3
    917    916    922   1870     1  0.0000000  1.0460000  1
    917    916    922   1870     1  0.0000000  0.0000000  3
    917    916    922    923     1  0.0000000  0.6508444  3
    917    916    922    924     1  0.0000000  0.6508444  3
    918    916    922   1870     1  0.0000000  1.0460000  1
    918    916    922   1870     1  0.0000000  0.0000000  3
    918    916    922    923     1  0.0000000  0.6508444  3
    918    916    922    924     1  0.0000000  0.6508444  3
    922   1870   1866   1869     1  0.0000000  1.6038667  3
    923    922   1870   1866     1  0.0000000  1.6038667  3
    924    922   1870   1866     1  0.0000000  1.6038667  3
    925   1893   1889   1892     1  0.0000000  1.6038667  3
    926    925   1893   1889     1  0.0000000  1.6038667  3
    927    925   1893   1889     1  0.0000000  1.6038667  3
    930    931    943    944     1  0.0000000  0.6508444  3
    930    931    943    945     1  0.0000000  0.6508444  3
    930    934    946    947     1  0.0000000  0.6508444  3
    930    934    946    948     1  0.0000000  0.6508444  3
    930    937    940    941     1  0.0000000  0.6508444  3
    930    937    940    942     1  0.0000000  0.6508444  3
    931    930    934    935     1  0.0000000  0.6508444  3
    931    930    934    936     1  0.0000000  0.6508444  3
    931    930    937    938     1  0.0000000  0.6508444  3
    931    930    937    939     1  0.0000000  0.6508444  3
    931    943    955    956     1  0.0000000  0.6508444  3
    931    943    955    957     1  0.0000000  0.6508444  3
    932    931    930    934     1  0.0000000  0.6508444  3
    932    931    930    937     1  0.0000000  0.6508444  3
    932    931    930    959     1  0.0000000  0.6508444  3
    932    931    943    955     1  0.0000000  0.6508444  3
    932    931    943    944     1  0.0000000  0.6508444  3
    932    931    943    945     1  0.0000000  0.6508444  3
    933    931    930    934     1  0.0000000  0.6508444  3
    933    931    930    937     1  0.0000000  0.6508444  3
    933    931    930    959     1  0.0000000  0.6508444  3
    933    931    943    955     1  0.0000000  0.6508444  3
    933    931    943    944     1  0.0000000  0.6508444  3
    933    931    943    945     1  0.0000000  0.6508444  3
    934    930    937    938     1  0.0000000  0.6508444  3
    934    930    937    939     1  0.0000000  0.6508444  3
    934    946    952    953     1  0.0000000  0.6508444  3
    934    946    952    954     1  0.0000000  0.6508444  3
    935    934    930    937     1  0.0000000  0.6508444  3
    935    934    930    959     1  0.0000000  0.6508444  3
    935    934    946    952     1  0.0000000  0.6508444  3
    935    934    946    947     1  0.0000000  0.6508444  3
    935    934    946    948     1  0.0000000  0.6508444  3
    936    934    930    937     1  0.0000000  0.6508444  3
    936    934    930    959     1  0.0000000  0.6508444  3
    936    934    946    952     1  0.0000000  0.6508444  3
    936    934    946    947     1  0.0000000  0.6508444  3
    936    934    946    948     1  0.0000000  0.6508444  3
    937    940    949    950     1  0.0000000  0.6508444  3
    937    940    949    951     1  0.0000000  0.6508444  3
    938    937    930    959     1  0.0000000  0.6508444  3
    938    937    940    949     1  0.0000000  0.6508444  3
    938    937    940    941     1  0.0000000  0.6508444  3
    938    937    940    942     1  0.0000000  0.6508444  3
    939    937    930    959     1  0.0000000  0.6508444  3
    939    937    940    949     1  0.0000000  0.6508444  3
    939    937    940    941     1  0.0000000  0.6508444  3
    939    937    940    942     1  0.0000000  0.6508444  3
    940    937    930    959     1  0.0000000  0.6508444  3
    941    940    949    958     1  0.0000000  1.0460000  1
    941    940    949    958     1  0.0000000  0.0000000  3
    941    940    949    950     1  0.0000000  0.6508444  3
    941    940    949    951     1  0.0000000  0.6508444  3
    942    940    949    958     1  0.0000000  1.0460000  1
    942    940    949    958     1  0.0000000  0.0000000  3
    942    940    949    950     1  0.0000000  0.6508444  3
    942    940    949    951     1  0.0000000  0.6508444  3
    943    931    930    959     1  0.0000000  0.6508444  3
    944    943    955   1939     1  0.0000000  1.0460000  1
    944    943    955   1939     1  0.0000000  0.0000000  3
    944    943    955    956     1  0.0000000  0.6508444  3
    944    943    955    957     1  0.0000000  0.6508444  3
    945    943    955   1939     1  0.0000000  1.0460000  1
    945    943    955   1939     1  0.0000000  0.0000000  3
    945    943    955    956     1  0.0000000  0.6508444  3
    945    943    955    957     1  0.0000000  0.6508444  3
    946    934    930    959     1  0.0000000  0.6508444  3
    947    946    952   1916     1  0.0000000  1.0460000  1
    947    946    952   1916     1  0.0000000  0.0000000  3
    947    946    952    953     1  0.0000000  0.6508444  3
    947    946    952    954     1  0.0000000  0.6508444  3
    948    946    952   1916     1  0.0000000  1.0460000  1
    948    946    952   1916     1  0.0000000  0.0000000  3
    948    946    952    953     1  0.0000000  0.6508444  3
    948    946    952    954     1  0.0000000  0.6508444  3
    952   1916   1912   1915     1  0.0000000  1.6038667  3
    953    952   1916   1912     1  0.0000000  1.6038667  3
    954    952   1916   1912     1  0.0000000  1.6038667  3
    955   1939   1935   1938     1  0.0000000  1.6038667  3
    956    955   1939   1935     1  0.0000000  1.6038667  3
    957    955   1939   1935     1  0.0000000  1.6038667  3
    960    961    973    974     1  0.0000000  0.6508444  3
    960    961    973    975     1  0.0000000  0.6508444  3
    960    964    976    977     1  0.0000000  0.6508444  3
    960    964    976    978     1  0.0000000  0.6508444  3
    960    967    970    971     1  0.0000000  0.6508444  3
    960    967    970    972     1  0.0000000  0.6508444  3
    961    960    964    965     1  0.0000000  0.6508444  3
    961    960    964    966     1  0.0000000  0.6508444  3
    961    960    967    968     1  0.0000000  0.6508444  3
    961    960    967    969     1  0.0000000  0.6508444  3
    961    973    985    986     1  0.0000000  0.6508444  3
    961    973    985    987     1  0.0000000  0.6508444  3
    962    961    960    964     1  0.0000000  0.6508444  3
    962    961    960    967     1  0.0000000  0.6508444  3
    962    961    960    989     1  0.0000000  0.6508444  3
    962    961    973    985     1  0.0000000  0.6508444  3
    962    961    973    974     1  0.0000000  0.6508444  3
    962    961    973    975     1  0.0000000  0.6508444  3
    963    961    960    964     1  0.0000000  0.6508444  3
    963    961    960    967     1  0.0000000  0.6508444  3
    963    961    960    989     1  0.0000000  0.6508444  3
    963    961    973    985     1  0.0000000  0.6508444  3
    963    961    973    974     1  0.0000000  0.6508444  3
    963    961    973    975     1  0.0000000  0.6508444  3
    964    960    967    968     1  0.0000000  0.6508444  3
    964    960    967    969     1  0.0000000  0.6508444  3
    964    976    982    983     1  0.0000000  0.6508444  3
    964    976    982    984     1  0.0000000  0.6508444  3
    965    964    960    967     1  0.0000000  0.6508444  3
    965    964    960    989     1  0.0000000  0.6508444  3
    965    964    976    982     1  0.0000000  0.6508444  3
    965    964    976    977     1  0.0000000  0.6508444  3
    965    964    976    978     1  0.0000000  0.6508444  3
    966    964    960    967     1  0.0000000  0.6508444  3
    966    964    960    989     1  0.0000000  0.6508444  3
    966    964    976    982     1  0.0000000  0.6508444  3
    966    964    976    977     1  0.0000000  0.6508444  3
    966    964    976    978     1  0.0000000  0.6508444  3
    967    970    979    980     1  0.0000000  0.6508444  3
    967    970    979    981     1  0.0000000  0.6508444  3
    968    967    960    989     1  0.0000000  0.6508444  3
    968    967    970    979     1  0.0000000  0.6508444  3
    968    967    970    971     1  0.0000000  0.6508444  3
    968    967    970    972     1  0.0000000  0.6508444  3
    969    967    960    989     1  0.0000000  0.6508444  3
    969    967    970    979     1  0.0000000  0.6508444  3
    969    967    970    971     1  0.0000000  0.6508444  3
    969    967    970    972     1  0.0000000  0.6508444  3
    970    967    960    989     1  0.0000000  0.6508444  3
    971    970    979    988     1  0.0000000  1.0460000  1
    971    970    979    988     1  0.0000000  0.0000000  3
    971    970    979    980     1  0.0000000  0.6508444  3
    971    970    979    981     1  0.0000000  0.6508444  3
    972    970    979    988     1  0.0000000  1.0460000  1
    972    970    979    988     1  0.0000000  0.0000000  3
    972    970    979    980     1  0.0000000  0.6508444  3
    972    970    979    981     1  0.0000000  0.6508444  3
    973    961    960    989     1  0.0000000  0.6508444  3
    974    973    985   1985     1  0.0000000  1.0460000  1
    974    973    985   1985     1  0.0000000  0.0000000  3
    974    973    985    986     1  0.0000000  0.6508444  3
    974    973    985    987     1  0.0000000  0.6508444  3
    975    973    985   1985     1  0.0000000  1.0460000  1
    975    973    985   1985     1  0.0000000  0.0000000  3
    975    973    985    986     1  0.0000000  0.6508444  3
    975    973    985    987     1  0.0000000  0.6508444  3
    976    964    960    989     1  0.0000000  0.6508444  3
    977    976    982   1962     1  0.0000000  1.0460000  1
    977    976    982   1962     1  0.0000000  0.0000000  3
    977    976    982    983     1  0.0000000  0.6508444  3
    977    976    982    984     1  0.0000000  0.6508444  3
    978    976    982   1962     1  0.0000000  1.0460000  1
    978    976    982   1962     1  0.0000000  0.0000000  3
    978    976    982    983     1  0.0000000  0.6508444  3
    978    976    982    984     1  0.0000000  0.6508444  3
    982   1962   1958   1961     1  0.0000000  1.6038667  3
    983    982   1962   1958     1  0.0000000  1.6038667  3
    984    982   1962   1958     1  0.0000000  1.6038667  3
    985   1985   1981   1984     1  0.0000000  1.6038667  3
    986    985   1985   1981     1  0.0000000  1.6038667  3
    987    985   1985   1981     1  0.0000000  1.6038667  3
    990    991   1003   1004     1  0.0000000  0.6508444  3
    990    991   1003   1005     1  0.0000000  0.6508444  3
    990    994   1006   1007     1  0.0000000  0.6508444  3
    990    994   1006   1008     1  0.0000000  0.6508444  3
    990    997   1000   1001     1  0.0000000  0.6508444  3
    990    997   1000   1002     1  0.0000000  0.6508444  3
    991    990    994    995     1  0.0000000  0.6508444  3
    991    990    994    996     1  0.0000000  0.6508444  3
    991    990    997    998     1  0.0000000  0.6508444  3
    991    990    997    999     1  0.0000000  0.6508444  3
    991   1003   1015   1016     1  0.0000000  0.6508444  3
    991   1003   1015   1017     1  0.0000000  0.6508444  3
    992    991    990    994     1  0.0000000  0.6508444  3
    992    991    990    997     1  0.0000000  0.6508444  3
    992    991    990   1019     1  0.0000000  0.6508444  3
    992    991   1003   1015     1  0.0000000  0.6508444  3
    992    991   1003   1004     1  0.0000000  0.6508444  3
    992    991   1003   1005     1  0.0000000  0.6508444  3
    993    991    990    994     1  0.0000000  0.6508444  3
    993    991    990    997     1  0.0000000  0.6508444  3
    993    991    990   1019     1  0.0000000  0.6508444  3
    993    991   1003   1015     1  0.0000000  0.6508444  3
    993    991   1003   1004     1  0.0000000  0.6508444  3
    993    991   1003   1005     1  0.0000000  0.6508444  3
    994    990    997    998     1  0.0000000  0.6508444  3
    994    990    997    999     1  0.0000000  0.6508444  3
    994   1006   1012   1013     1  0.0000000  0.6508444  3
    994   1006   1012   1014     1  0.0000000  0.6508444  3
    995    994    990    997     1  0.0000000  0.6508444  3
    995    994    990   1019     1  0.0000000  0.6508444  3
    995    994   1006   1012     1  0.0000000  0.6508444  3
    995    994   1006   1007     1  0.0000000  0.6508444  3
    995    994   1006   1008     1  0.0000000  0.6508444  3
    996    994    990    997     1  0.0000000  0.6508444  3
    996    994    990   1019     1  0.0000000  0.6508444  3
    996    994   1006   1012     1  0.0000000  0.6508444  3
    996    994   1006   1007     1  0.0000000  0.6508444  3
    996    994   1006   1008     1  0.0000000  0.6508444  3
    997   1000   1009   1010     1  0.0000000  0.6508444  3
    997   1000   1009   1011     1  0.0000000  0.6508444  3
    998    997    990   1019     1  0.0000000  0.6508444  3
    998    997   1000   1009     1  0.0000000  0.6508444  3
    998    997   1000   1001     1  0.0000000  0.6508444  3
    998    997   1000   1002     1  0.0000000  0.6508444  3
    999    997    990   1019     1  0.0000000  0.6508444  3
    999    997   1000   1009     1  0.0000000  0.6508444  3
    999    997   1000   1001     1  0.0000000  0.6508444  3
    999    997   1000   1002     1  0.0000000  0.6508444  3
   1000    997    990   1019     1  0.0000000  0.6508444  3
   1001   1000   1009   1018     1  0.0000000  1.0460000  1
   1001   1000   1009   1018     1  0.0000000  0.0000000  3
   1001   1000   1009   1010     1  0.0000000  0.6508444  3
   1001   1000   1009   1011     1  0.0000000  0.6508444  3
   1002   1000   1009   1018     1  0.0000000  1.0460000  1
   1002   1000   1009   1018     1  0.0000000  0.0000000  3
   1002   1000   1009   1010     1  0.0000000  0.6508444  3
   1002   1000   1009   1011     1  0.0000000  0.6508444  3
   1003    991    990   1019     1  0.0000000  0.6508444  3
   1004   1003   1015   2031     1  0.0000000  1.0460000  1
   1004   1003   1015   2031     1  0.0000000  0.0000000  3
   1004   1003   1015   1016     1  0.0000000  0.6508444  3
   1004   1003   1015   1017     1  0.0000000  0.6508444  3
   1005   1003   1015   2031     1  0.0000000  1.0460000  1
   1005   1003   1015   2031     1  0.0000000  0.0000000  3
   1005   1003   1015   1016     1  0.0000000  0.6508444  3
   1005   1003   1015   1017     1  0.0000000  0.6508444  3
   1006    994    990   1019     1  0.0000000  0.6508444  3
   1007   1006   1012   2008     1  0.0000000  1.0460000  1
   1007   1006   1012   2008     1  0.0000000  0.0000000  3
   1007   1006   1012   1013     1  0.0000000  0.6508444  3
   1007   1006   1012   1014     1  0.0000000  0.6508444  3
   1008   1006   1012   2008     1  0.0000000  1.0460000  1
   1008   1006   1012   2008     1  0.0000000  0.0000000  3
   1008   1006   1012   1013     1  0.0000000  0.6508444  3
   1008   1006   1012   1014     1  0.0000000  0.6508444  3
   1012   2008   2004   2007     1  0.0000000  1.6038667  3
   1013   1012   2008   2004     1  0.0000000  1.6038667  3
   1014   1012   2008   2004     1  0.0000000  1.6038667  3
   1015   2031   2027   2030     1  0.0000000  1.6038667  3
   1016   1015   2031   2027     1  0.0000000  1.6038667  3
   1017   1015   2031   2027     1  0.0000000  1.6038667  3
   1020   1021   1033   1034     1  0.0000000  0.6508444  3
   1020   1021   1033   1035     1  0.0000000  0.6508444  3
   1020   1024   1036   1037     1  0.0000000  0.6508444  3
   1020   1024   1036   1038     1  0.0000000  0.6508444  3
   1020   1027   1030   1031     1  0.0000000  0.6508444  3
   1020   1027   1030   1032     1  0.0000000  0.6508444  3
   1021   1020   1024   1025     1  0.0000000  0.6508444  3
   1021   1020   1024   1026     1  0.0000000  0.6508444  3
   1021   1020   1027   1028     1  0.0000000  0.6508444  3
   1021   1020   1027   1029     1  0.0000000  0.6508444  3
   1021   1033   1045   1046     1  0.0000000  0.6508444  3
   1021   1033   1045   1047     1  0.0000000  0.6508444  3
   1022   1021   1020   1024     1  0.0000000  0.6508444  3
   1022   1021   1020   1027     1  0.0000000  0.6508444  3
   1022   1021   1020   1049     1  0.0000000  0.6508444  3
   1022   1021   1033   1045     1  0.0000000  0.6508444  3
   1022   1021   1033   1034     1  0.0000000  0.6508444  3
   1022   1021   1033   1035     1  0.0000000  0.6508444  3
   1023   1021   1020   1024     1  0.0000000  0.6508444  3
   1023   1021   1020   1027     1  0.0000000  0.6508444  3
   1023   1021   1020   1049     1  0.0000000  0.6508444  3
   1023   1021   1033   1045     1  0.0000000  0.6508444  3
   1023   1021   1033   1034     1  0.0000000  0.6508444  3
   1023   1021   1033   1035     1  0.0000000  0.6508444  3
   1024   1020   1027   1028     1  0.0000000  0.6508444  3
   1024   1020   1027   1029     1  0.0000000  0.6508444  3
   1024   1036   1042   1043     1  0.0000000  0.6508444  3
   1024   1036   1042   1044     1  0.0000000  0.6508444  3
   1025   1024   1020   1027     1  0.0000000  0.6508444  3
   1025   1024   1020   1049     1  0.0000000  0.6508444  3
   1025   1024   1036   1042     1  0.0000000  0.6508444  3
   1025   1024   1036   1037     1  0.0000000  0.6508444  3
   1025   1024   1036   1038     1  0.0000000  0.6508444  3
   1026   1024   1020   1027     1  0.0000000  0.6508444  3
   1026   1024   1020   1049     1  0.0000000  0.6508444  3
   1026   1024   1036   1042     1  0.0000000  0.6508444  3
   1026   1024   1036   1037     1  0.0000000  0.6508444  3
   1026   1024   1036   1038     1  0.0000000  0.6508444  3
   1027   1030   1039   1040     1  0.0000000  0.6508444  3
   1027   1030   1039   1041     1  0.0000000  0.6508444  3
   1028   1027   1020   1049     1  0.0000000  0.6508444  3
   1028   1027   1030   1039     1  0.0000000  0.6508444  3
   1028   1027   1030   1031     1  0.0000000  0.6508444  3
   1028   1027   1030   1032     1  0.0000000  0.6508444  3
   1029   1027   1020   1049     1  0.0000000  0.6508444  3
   1029   1027   1030   1039     1  0.0000000  0.6508444  3
   1029   1027   1030   1031     1  0.0000000  0.6508444  3
   1029   1027   1030   1032     1  0.0000000  0.6508444  3
   1030   1027   1020   1049     1  0.0000000  0.6508444  3
   1031   1030   1039   1048     1  0.0000000  1.0460000  1
   1031   1030   1039   1048     1  0.0000000  0.0000000  3
   1031   1030   1039   1040     1  0.0000000  0.6508444  3
   1031   1030   1039   1041     1  0.0000000  0.6508444  3
   1032   1030   1039   1048     1  0.0000000  1.0460000  1
   1032   1030   1039   1048     1  0.0000000  0.0000000  3
   1032   1030   1039   1040     1  0.0000000  0.6508444  3
   1032   1030   1039   1041     1  0.0000000  0.6508444  3
   1033   1021   1020   1049     1  0.0000000  0.6508444  3
   1034   1033   1045   2077     1  0.0000000  1.0460000  1
   1034   1033   1045   2077     1  0.0000000  0.0000000  3
   1034   1033   1045   1046     1  0.0000000  0.6508444  3
   1034   1033   1045   1047     1  0.0000000  0.6508444  3
   1035   1033   1045   2077     1  0.0000000  1.0460000  1
   1035   1033   1045   2077     1  0.0000000  0.0000000  3
   1035   1033   1045   1046     1  0.0000000  0.6508444  3
   1035   1033   1045   1047     1  0.0000000  0.6508444  3
   1036   1024   1020   1049     1  0.0000000  0.6508444  3
   1037   1036   1042   2054     1  0.0000000  1.0460000  1
   1037   1036   1042   2054     1  0.0000000  0.0000000  3
   1037   1036   1042   1043     1  0.0000000  0.6508444  3
   1037   1036   1042   1044     1  0.0000000  0.6508444  3
   1038   1036   1042   2054     1  0.0000000  1.0460000  1
   1038   1036   1042   2054     1  0.0000000  0.0000000  3
   1038   1036   1042   1043     1  0.0000000  0.6508444  3
   1038   1036   1042   1044     1  0.0000000  0.6508444  3
   1042   2054   2050   2053     1  0.0000000  1.6038667  3
   1043   1042   2054   2050     1  0.0000000  1.6038667  3
   1044   1042   2054   2050     1  0.0000000  1.6038667  3
   1045   2077   2073   2076     1  0.0000000  1.6038667  3
   1046   1045   2077   2073     1  0.0000000  1.6038667  3
   1047   1045   2077   2073     1  0.0000000  1.6038667  3
   1050   1051   1063   1064     1  0.0000000  0.6508444  3
   1050   1051   1063   1065     1  0.0000000  0.6508444  3
   1050   1054   1066   1067     1  0.0000000  0.6508444  3
   1050   1054   1066   1068     1  0.0000000  0.6508444  3
   1050   1057   1060   1061     1  0.0000000  0.6508444  3
   1050   1057   1060   1062     1  0.0000000  0.6508444  3
   1051   1050   1054   1055     1  0.0000000  0.6508444  3
   1051   1050   1054   1056     1  0.0000000  0.6508444  3
   1051   1050   1057   1058     1  0.0000000  0.6508444  3
   1051   1050   1057   1059     1  0.0000000  0.6508444  3
   1051   1063   1075   1076     1  0.0000000  0.6508444  3
   1051   1063   1075   1077     1  0.0000000  0.6508444  3
   1052   1051   1050   1054     1  0.0000000  0.6508444  3
   1052   1051   1050   1057     1  0.0000000  0.6508444  3
   1052   1051   1050   1079     1  0.0000000  0.6508444  3
   1052   1051   1063   1075     1  0.0000000  0.6508444  3
   1052   1051   1063   1064     1  0.0000000  0.6508444  3
   1052   1051   1063   1065     1  0.0000000  0.6508444  3
   1053   1051   1050   1054     1  0.0000000  0.6508444  3
   1053   1051   1050   1057     1  0.0000000  0.6508444  3
   1053   1051   1050   1079     1  0.0000000  0.6508444  3
   1053   1051   1063   1075     1  0.0000000  0.6508444  3
   1053   1051   1063   1064     1  0.0000000  0.6508444  3
   1053   1051   1063   1065     1  0.0000000  0.6508444  3
   1054   1050   1057   1058     1  0.0000000  0.6508444  3
   1054   1050   1057   1059     1  0.0000000  0.6508444  3
   1054   1066   1072   1073     1  0.0000000  0.6508444  3
   1054   1066   1072   1074     1  0.0000000  0.6508444  3
   1055   1054   1050   1057     1  0.0000000  0.6508444  3
   1055   1054   1050   1079     1  0.0000000  0.6508444  3
   1055   1054   1066   1072     1  0.0000000  0.6508444  3
   1055   1054   1066   1067     1  0.0000000  0.6508444  3
   1055   1054   1066   1068     1  0.0000000  0.6508444  3
   1056   1054   1050   1057     1  0.0000000  0.6508444  3
   1056   1054   1050   1079     1  0.0000000  0.6508444  3
   1056   1054   1066   1072     1  0.0000000  0.6508444  3
   1056   1054   1066   1067     1  0.0000000  0.6508444  3
   1056   1054   1066   1068     1  0.0000000  0.6508444  3
   1057   1060   1069   1070     1  0.0000000  0.6508444  3
   1057   1060   1069   1071     1  0.0000000  0.6508444  3
   1058   1057   1050   1079     1  0.0000000  0.6508444  3
   1058   1057   1060   1069     1  0.0000000  0.6508444  3
   1058   1057   1060   1061     1  0.0000000  0.6508444  3
   1058   1057   1060   1062     1  0.0000000  0.6508444  3
   1059   1057   1050   1079     1  0.0000000  0.6508444  3
   1059   1057   1060   1069     1  0.0000000  0.6508444  3
   1059   1057   1060   1061     1  0.0000000  0.6508444  3
   1059   1057   1060   1062     1  0.0000000  0.6508444  3
   1060   1057   1050   1079     1  0.0000000  0.6508444  3
   1061   1060   1069   1078     1  0.0000000  1.0460000  1
   1061   1060   1069   1078     1  0.0000000  0.0000000  3
   1061   1060   1069   1070     1  0.0000000  0.6508444  3
   1061   1060   1069   1071     1  0.0000000  0.6508444  3
   1062   1060   1069   1078     1  0.0000000  1.0460000  1
   1062   1060   1069   1078     1  0.0000000  0.0000000  3
   1062   1060   1069   1070     1  0.0000000  0.6508444  3
   1062   1060   1069   1071     1  0.0000000  0.6508444  3
   1063   1051   1050   1079     1  0.0000000  0.6508444  3
   1064   1063   1075   2123     1  0.0000000  1.0460000  1
   1064   1063   1075   2123     1  0.0000000  0.0000000  3
   1064   1063   1075   1076     1  0.0000000  0.6508444  3
   1064   1063   1075   1077     1  0.0000000  0.6508444  3
   1065   1063   1075   2123     1  0.0000000  1.0460000  1
   1065   1063   1075   2123     1  0.0000000  0.0000000  3
   1065   1063   1075   1076     1  0.0000000  0.6508444  3
   1065   1063   1075   1077     1  0.0000000  0.6508444  3
   1066   1054   1050   1079     1  0.0000000  0.6508444  3
   1067   1066   1072   2100     1  0.0000000  1.0460000  1
   1067   1066   1072   2100     1  0.0000000  0.0000000  3
   1067   1066   1072   1073     1  0.0000000  0.6508444  3
   1067   1066   1072   1074     1  0.0000000  0.6508444  3
   1068   1066   1072   2100     1  0.0000000  1.0460000  1
   1068   1066   1072   2100     1  0.0000000  0.0000000  3
   1068   1066   1072   1073     1  0.0000000  0.6508444  3
   1068   1066   1072   1074     1  0.0000000  0.6508444  3
   1072   2100   2096   2099     1  0.0000000  1.6038667  3
   1073   1072   2100   2096     1  0.0000000  1.6038667  3
   1074   1072   2100   2096     1  0.0000000  1.6038667  3
   1075   2123   2119   2122     1  0.0000000  1.6038667  3
   1076   1075   2123   2119     1  0.0000000  1.6038667  3
   1077   1075   2123   2119     1  0.0000000  1.6038667  3
   1080   1081   1093   1094     1  0.0000000  0.6508444  3
   1080   1081   1093   1095     1  0.0000000  0.6508444  3
   1080   1084   1096   1097     1  0.0000000  0.6508444  3
   1080   1084   1096   1098     1  0.0000000  0.6508444  3
   1080   1087   1090   1091     1  0.0000000  0.6508444  3
   1080   1087   1090   1092     1  0.0000000  0.6508444  3
   1081   1080   1084   1085     1  0.0000000  0.6508444  3
   1081   1080   1084   1086     1  0.0000000  0.6508444  3
   1081   1080   1087   1088     1  0.0000000  0.6508444  3
   1081   1080   1087   1089     1  0.0000000  0.6508444  3
   1081   1093   1105   1106     1  0.0000000  0.6508444  3
   1081   1093   1105   1107     1  0.0000000  0.6508444  3
   1082   1081   1080   1084     1  0.0000000  0.6508444  3
   1082   1081   1080   1087     1  0.0000000  0.6508444  3
   1082   1081   1080   1109     1  0.0000000  0.6508444  3
   1082   1081   1093   1105     1  0.0000000  0.6508444  3
   1082   1081   1093   1094     1  0.0000000  0.6508444  3
   1082   1081   1093   1095     1  0.0000000  0.6508444  3
   1083   1081   1080   1084     1  0.0000000  0.6508444  3
   1083   1081   1080   1087     1  0.0000000  0.6508444  3
   1083   1081   1080   1109     1  0.0000000  0.6508444  3
   1083   1081   1093   1105     1  0.0000000  0.6508444  3
   1083   1081   1093   1094     1  0.0000000  0.6508444  3
   1083   1081   1093   1095     1  0.0000000  0.6508444  3
   1084   1080   1087   1088     1  0.0000000  0.6508444  3
   1084   1080   1087   1089     1  0.0000000  0.6508444  3
   1084   1096   1102   1103     1  0.0000000  0.6508444  3
   1084   1096   1102   1104     1  0.0000000  0.6508444  3
   1085   1084   1080   1087     1  0.0000000  0.6508444  3
   1085   1084   1080   1109     1  0.0000000  0.6508444  3
   1085   1084   1096   1102     1  0.0000000  0.6508444  3
   1085   1084   1096   1097     1  0.0000000  0.6508444  3
   1085   1084   1096   1098     1  0.0000000  0.6508444  3
   1086   1084   1080   1087     1  0.0000000  0.6508444  3
   1086   1084   1080   1109     1  0.0000000  0.6508444  3
   1086   1084   1096   1102     1  0.0000000  0.6508444  3
   1086   1084   1096   1097     1  0.0000000  0.6508444  3
   1086   1084   1096   1098     1  0.0000000  0.6508444  3
   1087   1090   1099   1100     1  0.0000000  0.6508444  3
   1087   1090   1099   1101     1  0.0000000  0.6508444  3
   1088   1087   1080   1109     1  0.0000000  0.6508444  3
   1088   1087   1090   1099     1  0.0000000  0.6508444  3
   1088   1087   1090   1091     1  0.0000000  0.6508444  3
   1088   1087   1090   1092     1  0.0000000  0.6508444  3
   1089   1087   1080   1109     1  0.0000000  0.6508444  3
   1089   1087   1090   1099     1  0.0000000  0.6508444  3
   1089   1087   1090   1091     1  0.0000000  0.6508444  3
   1089   1087   1090   1092     1  0.0000000  0.6508444  3
   1090   1087   1080   1109     1  0.0000000  0.6508444  3
   1091   1090   1099   1108     1  0.0000000  1.0460000  1
   1091   1090   1099   1108     1  0.0000000  0.0000000  3
   1091   1090   1099   1100     1  0.0000000  0.6508444  3
   1091   1090   1099   1101     1  0.0000000  0.6508444  3
   1092   1090   1099   1108     1  0.0000000  1.0460000  1
   1092   1090   1099   1108     1  0.0000000  0.0000000  3
   1092   1090   1099   1100     1  0.0000000  0.6508444  3
   1092   1090   1099   1101     1  0.0000000  0.6508444  3
   1093   1081   1080   1109     1  0.0000000  0.6508444  3
   1094   1093   1105   2169     1  0.0000000  1.0460000  1
   1094   1093   1105   2169     1  0.0000000  0.0000000  3
   1094   1093   1105   1106     1  0.0000000  0.6508444  3
   1094   1093   1105   1107     1  0.0000000  0.6508444  3
   1095   1093   1105   2169     1  0.0000000  1.0460000  1
   1095   1093   1105   2169     1  0.0000000  0.0000000  3
   1095   1093   1105   1106     1  0.0000000  0.6508444  3
   1095   1093   1105   1107     1  0.0000000  0.6508444  3
   1096   1084   1080   1109     1  0.0000000  0.6508444  3
   1097   1096   1102   2146     1  0.0000000  1.0460000  1
   1097   1096   1102   2146     1  0.0000000  0.0000000  3
   1097   1096   1102   1103     1  0.0000000  0.6508444  3
   1097   1096   1102   1104     1  0.0000000  0.6508444  3
   1098   1096   1102   2146     1  0.0000000  1.0460000  1
   1098   1096   1102   2146     1  0.0000000  0.0000000  3
   1098   1096   1102   1103     1  0.0000000  0.6508444  3
   1098   1096   1102   1104     1  0.0000000  0.6508444  3
   1102   2146   2142   2145     1  0.0000000  1.6038667  3
   1103   1102   2146   2142     1  0.0000000  1.6038667  3
   1104   1102   2146   2142     1  0.0000000  1.6038667  3
   1105   2169   2165   2168     1  0.0000000  1.6038667  3
   1106   1105   2169   2165     1  0.0000000  1.6038667  3
   1107   1105   2169   2165     1  0.0000000  1.6038667  3
   1110   1111   1123   1124     1  0.0000000  0.6508444  3
   1110   1111   1123   1125     1  0.0000000  0.6508444  3
   1110   1114   1126   1127     1  0.0000000  0.6508444  3
   1110   1114   1126   1128     1  0.0000000  0.6508444  3
   1110   1117   1120   1121     1  0.0000000  0.6508444  3
   1110   1117   1120   1122     1  0.0000000  0.6508444  3
   1111   1110   1114   1115     1  0.0000000  0.6508444  3
   1111   1110   1114   1116     1  0.0000000  0.6508444  3
   1111   1110   1117   1118     1  0.0000000  0.6508444  3
   1111   1110   1117   1119     1  0.0000000  0.6508444  3
   1111   1123   1135   1136     1  0.0000000  0.6508444  3
   1111   1123   1135   1137     1  0.0000000  0.6508444  3
   1112   1111   1110   1114     1  0.0000000  0.6508444  3
   1112   1111   1110   1117     1  0.0000000  0.6508444  3
   1112   1111   1110   1139     1  0.0000000  0.6508444  3
   1112   1111   1123   1135     1  0.0000000  0.6508444  3
   1112   1111   1123   1124     1  0.0000000  0.6508444  3
   1112   1111   1123   1125     1  0.0000000  0.6508444  3
   1113   1111   1110   1114     1  0.0000000  0.6508444  3
   1113   1111   1110   1117     1  0.0000000  0.6508444  3
   1113   1111   1110   1139     1  0.0000000  0.6508444  3
   1113   1111   1123   1135     1  0.0000000  0.6508444  3
   1113   1111   1123   1124     1  0.0000000  0.6508444  3
   1113   1111   1123   1125     1  0.0000000  0.6508444  3
   1114   1110   1117   1118     1  0.0000000  0.6508444  3
   1114   1110   1117   1119     1  0.0000000  0.6508444  3
   1114   1126   1132   1133     1  0.0000000  0.6508444  3
   1114   1126   1132   1134     1  0.0000000  0.6508444  3
   1115   1114   1110   1117     1  0.0000000  0.6508444  3
   1115   1114   1110   1139     1  0.0000000  0.6508444  3
   1115   1114   1126   1132     1  0.0000000  0.6508444  3
   1115   1114   1126   1127     1  0.0000000  0.6508444  3
   1115   1114   1126   1128     1  0.0000000  0.6508444  3
   1116   1114   1110   1117     1  0.0000000  0.6508444  3
   1116   1114   1110   1139     1  0.0000000  0.6508444  3
   1116   1114   1126   1132     1  0.0000000  0.6508444  3
   1116   1114   1126   1127     1  0.0000000  0.6508444  3
   1116   1114   1126   1128     1  0.0000000  0.6508444  3
   1117   1120   1129   1130     1  0.0000000  0.6508444  3
   1117   1120   1129   1131     1  0.0000000  0.6508444  3
   1118   1117   1110   1139     1  0.0000000  0.6508444  3
   1118   1117   1120   1129     1  0.0000000  0.6508444  3
   1118   1117   1120   1121     1  0.0000000  0.6508444  3
   1118   1117   1120   1122     1  0.0000000  0.6508444  3
   1119   1117   1110   1139     1  0.0000000  0.6508444  3
   1119   1117   1120   1129     1  0.0000000  0.6508444  3
   1119   1117   1120   1121     1  0.0000000  0.6508444  3
   1119   1117   1120   1122     1  0.0000000  0.6508444  3
   1120   1117   1110   1139     1  0.0000000  0.6508444  3
   1121   1120   1129   1138     1  0.0000000  1.0460000  1
   1121   1120   1129   1138     1  0.0000000  0.0000000  3
   1121   1120   1129   1130     1  0.0000000  0.6508444  3
   1121   1120   1129   1131     1  0.0000000  0.6508444  3
   1122   1120   1129   1138     1  0.0000000  1.0460000  1
   1122   1120   1129   1138     1  0.0000000  0.0000000  3
   1122   1120   1129   1130     1  0.0000000  0.6508444  3
   1122   1120   1129   1131     1  0.0000000  0.6508444  3
   1123   1111   1110   1139     1  0.0000000  0.6508444  3
   1124   1123   1135   2215     1  0.0000000  1.0460000  1
   1124   1123   1135   2215     1  0.0000000  0.0000000  3
   1124   1123   1135   1136     1  0.0000000  0.6508444  3
   1124   1123   1135   1137     1  0.0000000  0.6508444  3
   1125   1123   1135   2215     1  0.0000000  1.0460000  1
   1125   1123   1135   2215     1  0.0000000  0.0000000  3
   1125   1123   1135   1136     1  0.0000000  0.6508444  3
   1125   1123   1135   1137     1  0.0000000  0.6508444  3
   1126   1114   1110   1139     1  0.0000000  0.6508444  3
   1127   1126   1132   2192     1  0.0000000  1.0460000  1
   1127   1126   1132   2192     1  0.0000000  0.0000000  3
   1127   1126   1132   1133     1  0.0000000  0.6508444  3
   1127   1126   1132   1134     1  0.0000000  0.6508444  3
   1128   1126   1132   2192     1  0.0000000  1.0460000  1
   1128   1126   1132   2192     1  0.0000000  0.0000000  3
   1128   1126   1132   1133     1  0.0000000  0.6508444  3
   1128   1126   1132   1134     1  0.0000000  0.6508444  3
   1132   2192   2188   2191     1  0.0000000  1.6038667  3
   1133   1132   2192   2188     1  0.0000000  1.6038667  3
   1134   1132   2192   2188     1  0.0000000  1.6038667  3
   1135   2215   2211   2214     1  0.0000000  1.6038667  3
   1136   1135   2215   2211     1  0.0000000  1.6038667  3
   1137   1135   2215   2211     1  0.0000000  1.6038667  3
   1140   1141   1153   1154     1  0.0000000  0.6508444  3
   1140   1141   1153   1155     1  0.0000000  0.6508444  3
   1140   1144   1156   1157     1  0.0000000  0.6508444  3
   1140   1144   1156   1158     1  0.0000000  0.6508444  3
   1140   1147   1150   1151     1  0.0000000  0.6508444  3
   1140   1147   1150   1152     1  0.0000000  0.6508444  3
   1141   1140   1144   1145     1  0.0000000  0.6508444  3
   1141   1140   1144   1146     1  0.0000000  0.6508444  3
   1141   1140   1147   1148     1  0.0000000  0.6508444  3
   1141   1140   1147   1149     1  0.0000000  0.6508444  3
   1141   1153   1165   1166     1  0.0000000  0.6508444  3
   1141   1153   1165   1167     1  0.0000000  0.6508444  3
   1142   1141   1140   1144     1  0.0000000  0.6508444  3
   1142   1141   1140   1147     1  0.0000000  0.6508444  3
   1142   1141   1140   1169     1  0.0000000  0.6508444  3
   1142   1141   1153   1165     1  0.0000000  0.6508444  3
   1142   1141   1153   1154     1  0.0000000  0.6508444  3
   1142   1141   1153   1155     1  0.0000000  0.6508444  3
   1143   1141   1140   1144     1  0.0000000  0.6508444  3
   1143   1141   1140   1147     1  0.0000000  0.6508444  3
   1143   1141   1140   1169     1  0.0000000  0.6508444  3
   1143   1141   1153   1165     1  0.0000000  0.6508444  3
   1143   1141   1153   1154     1  0.0000000  0.6508444  3
   1143   1141   1153   1155     1  0.0000000  0.6508444  3
   1144   1140   1147   1148     1  0.0000000  0.6508444  3
   1144   1140   1147   1149     1  0.0000000  0.6508444  3
   1144   1156   1162   1163     1  0.0000000  0.6508444  3
   1144   1156   1162   1164     1  0.0000000  0.6508444  3
   1145   1144   1140   1147     1  0.0000000  0.6508444  3
   1145   1144   1140   1169     1  0.0000000  0.6508444  3
   1145   1144   1156   1162     1  0.0000000  0.6508444  3
   1145   1144   1156   1157     1  0.0000000  0.6508444  3
   1145   1144   1156   1158     1  0.0000000  0.6508444  3
   1146   1144   1140   1147     1  0.0000000  0.6508444  3
   1146   1144   1140   1169     1  0.0000000  0.6508444  3
   1146   1144   1156   1162     1  0.0000000  0.6508444  3
   1146   1144   1156   1157     1  0.0000000  0.6508444  3
   1146   1144   1156   1158     1  0.0000000  0.6508444  3
   1147   1150   1159   1160     1  0.0000000  0.6508444  3
   1147   1150   1159   1161     1  0.0000000  0.6508444  3
   1148   1147   1140   1169     1  0.0000000  0.6508444  3
   1148   1147   1150   1159     1  0.0000000  0.6508444  3
   1148   1147   1150   1151     1  0.0000000  0.6508444  3
   1148   1147   1150   1152     1  0.0000000  0.6508444  3
   1149   1147   1140   1169     1  0.0000000  0.6508444  3
   1149   1147   1150   1159     1  0.0000000  0.6508444  3
   1149   1147   1150   1151     1  0.0000000  0.6508444  3
   1149   1147   1150   1152     1  0.0000000  0.6508444  3
   1150   1147   1140   1169     1  0.0000000  0.6508444  3
   1151   1150   1159   1168     1  0.0000000  1.0460000  1
   1151   1150   1159   1168     1  0.0000000  0.0000000  3
   1151   1150   1159   1160     1  0.0000000  0.6508444  3
   1151   1150   1159   1161     1  0.0000000  0.6508444  3
   1152   1150   1159   1168     1  0.0000000  1.0460000  1
   1152   1150   1159   1168     1  0.0000000  0.0000000  3
   1152   1150   1159   1160     1  0.0000000  0.6508444  3
   1152   1150   1159   1161     1  0.0000000  0.6508444  3
   1153   1141   1140   1169     1  0.0000000  0.6508444  3
   1154   1153   1165   2261     1  0.0000000  1.0460000  1
   1154   1153   1165   2261     1  0.0000000  0.0000000  3
   1154   1153   1165   1166     1  0.0000000  0.6508444  3
   1154   1153   1165   1167     1  0.0000000  0.6508444  3
   1155   1153   1165   2261     1  0.0000000  1.0460000  1
   1155   1153   1165   2261     1  0.0000000  0.0000000  3
   1155   1153   1165   1166     1  0.0000000  0.6508444  3
   1155   1153   1165   1167     1  0.0000000  0.6508444  3
   1156   1144   1140   1169     1  0.0000000  0.6508444  3
   1157   1156   1162   2238     1  0.0000000  1.0460000  1
   1157   1156   1162   2238     1  0.0000000  0.0000000  3
   1157   1156   1162   1163     1  0.0000000  0.6508444  3
   1157   1156   1162   1164     1  0.0000000  0.6508444  3
   1158   1156   1162   2238     1  0.0000000  1.0460000  1
   1158   1156   1162   2238     1  0.0000000  0.0000000  3
   1158   1156   1162   1163     1  0.0000000  0.6508444  3
   1158   1156   1162   1164     1  0.0000000  0.6508444  3
   1162   2238   2234   2237     1  0.0000000  1.6038667  3
   1163   1162   2238   2234     1  0.0000000  1.6038667  3
   1164   1162   2238   2234     1  0.0000000  1.6038667  3
   1165   2261   2257   2260     1  0.0000000  1.6038667  3
   1166   1165   2261   2257     1  0.0000000  1.6038667  3
   1167   1165   2261   2257     1  0.0000000  1.6038667  3
   1170   1171   1183   1184     1  0.0000000  0.6508444  3
   1170   1171   1183   1185     1  0.0000000  0.6508444  3
   1170   1174   1186   1187     1  0.0000000  0.6508444  3
   1170   1174   1186   1188     1  0.0000000  0.6508444  3
   1170   1177   1180   1181     1  0.0000000  0.6508444  3
   1170   1177   1180   1182     1  0.0000000  0.6508444  3
   1171   1170   1174   1175     1  0.0000000  0.6508444  3
   1171   1170   1174   1176     1  0.0000000  0.6508444  3
   1171   1170   1177   1178     1  0.0000000  0.6508444  3
   1171   1170   1177   1179     1  0.0000000  0.6508444  3
   1171   1183   1195   1196     1  0.0000000  0.6508444  3
   1171   1183   1195   1197     1  0.0000000  0.6508444  3
   1172   1171   1170   1174     1  0.0000000  0.6508444  3
   1172   1171   1170   1177     1  0.0000000  0.6508444  3
   1172   1171   1170   1199     1  0.0000000  0.6508444  3
   1172   1171   1183   1195     1  0.0000000  0.6508444  3
   1172   1171   1183   1184     1  0.0000000  0.6508444  3
   1172   1171   1183   1185     1  0.0000000  0.6508444  3
   1173   1171   1170   1174     1  0.0000000  0.6508444  3
   1173   1171   1170   1177     1  0.0000000  0.6508444  3
   1173   1171   1170   1199     1  0.0000000  0.6508444  3
   1173   1171   1183   1195     1  0.0000000  0.6508444  3
   1173   1171   1183   1184     1  0.0000000  0.6508444  3
   1173   1171   1183   1185     1  0.0000000  0.6508444  3
   1174   1170   1177   1178     1  0.0000000  0.6508444  3
   1174   1170   1177   1179     1  0.0000000  0.6508444  3
   1174   1186   1192   1193     1  0.0000000  0.6508444  3
   1174   1186   1192   1194     1  0.0000000  0.6508444  3
   1175   1174   1170   1177     1  0.0000000  0.6508444  3
   1175   1174   1170   1199     1  0.0000000  0.6508444  3
   1175   1174   1186   1192     1  0.0000000  0.6508444  3
   1175   1174   1186   1187     1  0.0000000  0.6508444  3
   1175   1174   1186   1188     1  0.0000000  0.6508444  3
   1176   1174   1170   1177     1  0.0000000  0.6508444  3
   1176   1174   1170   1199     1  0.0000000  0.6508444  3
   1176   1174   1186   1192     1  0.0000000  0.6508444  3
   1176   1174   1186   1187     1  0.0000000  0.6508444  3
   1176   1174   1186   1188     1  0.0000000  0.6508444  3
   1177   1180   1189   1190     1  0.0000000  0.6508444  3
   1177   1180   1189   1191     1  0.0000000  0.6508444  3
   1178   1177   1170   1199     1  0.0000000  0.6508444  3
   1178   1177   1180   1189     1  0.0000000  0.6508444  3
   1178   1177   1180   1181     1  0.0000000  0.6508444  3
   1178   1177   1180   1182     1  0.0000000  0.6508444  3
   1179   1177   1170   1199     1  0.0000000  0.6508444  3
   1179   1177   1180   1189     1  0.0000000  0.6508444  3
   1179   1177   1180   1181     1  0.0000000  0.6508444  3
   1179   1177   1180   1182     1  0.0000000  0.6508444  3
   1180   1177   1170   1199     1  0.0000000  0.6508444  3
   1181   1180   1189   1198     1  0.0000000  1.0460000  1
   1181   1180   1189   1198     1  0.0000000  0.0000000  3
   1181   1180   1189   1190     1  0.0000000  0.6508444  3
   1181   1180   1189   1191     1  0.0000000  0.6508444  3
   1182   1180   1189   1198     1  0.0000000  1.0460000  1
   1182   1180   1189   1198     1  0.0000000  0.0000000  3
   1182   1180   1189   1190     1  0.0000000  0.6508444  3
   1182   1180   1189   1191     1  0.0000000  0.6508444  3
   1183   1171   1170   1199     1  0.0000000  0.6508444  3
   1184   1183   1195   2307     1  0.0000000  1.0460000  1
   1184   1183   1195   2307     1  0.0000000  0.0000000  3
   1184   1183   1195   1196     1  0.0000000  0.6508444  3
   1184   1183   1195   1197     1  0.0000000  0.6508444  3
   1185   1183   1195   2307     1  0.0000000  1.0460000  1
   1185   1183   1195   2307     1  0.0000000  0.0000000  3
   1185   1183   1195   1196     1  0.0000000  0.6508444  3
   1185   1183   1195   1197     1  0.0000000  0.6508444  3
   1186   1174   1170   1199     1  0.0000000  0.6508444  3
   1187   1186   1192   2284     1  0.0000000  1.0460000  1
   1187   1186   1192   2284     1  0.0000000  0.0000000  3
   1187   1186   1192   1193     1  0.0000000  0.6508444  3
   1187   1186   1192   1194     1  0.0000000  0.6508444  3
   1188   1186   1192   2284     1  0.0000000  1.0460000  1
   1188   1186   1192   2284     1  0.0000000  0.0000000  3
   1188   1186   1192   1193     1  0.0000000  0.6508444  3
   1188   1186   1192   1194     1  0.0000000  0.6508444  3
   1192   2284   2280   2283     1  0.0000000  1.6038667  3
   1193   1192   2284   2280     1  0.0000000  1.6038667  3
   1194   1192   2284   2280     1  0.0000000  1.6038667  3
   1195   2307   2303   2306     1  0.0000000  1.6038667  3
   1196   1195   2307   2303     1  0.0000000  1.6038667  3
   1197   1195   2307   2303     1  0.0000000  1.6038667  3
   1200   1201   1213   1214     1  0.0000000  0.6508444  3
   1200   1201   1213   1215     1  0.0000000  0.6508444  3
   1200   1204   1216   1217     1  0.0000000  0.6508444  3
   1200   1204   1216   1218     1  0.0000000  0.6508444  3
   1200   1207   1210   1211     1  0.0000000  0.6508444  3
   1200   1207   1210   1212     1  0.0000000  0.6508444  3
   1201   1200   1204   1205     1  0.0000000  0.6508444  3
   1201   1200   1204   1206     1  0.0000000  0.6508444  3
   1201   1200   1207   1208     1  0.0000000  0.6508444  3
   1201   1200   1207   1209     1  0.0000000  0.6508444  3
   1201   1213   1225   1226     1  0.0000000  0.6508444  3
   1201   1213   1225   1227     1  0.0000000  0.6508444  3
   1202   1201   1200   1204     1  0.0000000  0.6508444  3
   1202   1201   1200   1207     1  0.0000000  0.6508444  3
   1202   1201   1200   1229     1  0.0000000  0.6508444  3
   1202   1201   1213   1225     1  0.0000000  0.6508444  3
   1202   1201   1213   1214     1  0.0000000  0.6508444  3
   1202   1201   1213   1215     1  0.0000000  0.6508444  3
   1203   1201   1200   1204     1  0.0000000  0.6508444  3
   1203   1201   1200   1207     1  0.0000000  0.6508444  3
   1203   1201   1200   1229     1  0.0000000  0.6508444  3
   1203   1201   1213   1225     1  0.0000000  0.6508444  3
   1203   1201   1213   1214     1  0.0000000  0.6508444  3
   1203   1201   1213   1215     1  0.0000000  0.6508444  3
   1204   1200   1207   1208     1  0.0000000  0.6508444  3
   1204   1200   1207   1209     1  0.0000000  0.6508444  3
   1204   1216   1222   1223     1  0.0000000  0.6508444  3
   1204   1216   1222   1224     1  0.0000000  0.6508444  3
   1205   1204   1200   1207     1  0.0000000  0.6508444  3
   1205   1204   1200   1229     1  0.0000000  0.6508444  3
   1205   1204   1216   1222     1  0.0000000  0.6508444  3
   1205   1204   1216   1217     1  0.0000000  0.6508444  3
   1205   1204   1216   1218     1  0.0000000  0.6508444  3
   1206   1204   1200   1207     1  0.0000000  0.6508444  3
   1206   1204   1200   1229     1  0.0000000  0.6508444  3
   1206   1204   1216   1222     1  0.0000000  0.6508444  3
   1206   1204   1216   1217     1  0.0000000  0.6508444  3
   1206   1204   1216   1218     1  0.0000000  0.6508444  3
   1207   1210   1219   1220     1  0.0000000  0.6508444  3
   1207   1210   1219   1221     1  0.0000000  0.6508444  3
   1208   1207   1200   1229     1  0.0000000  0.6508444  3
   1208   1207   1210   1219     1  0.0000000  0.6508444  3
   1208   1207   1210   1211     1  0.0000000  0.6508444  3
   1208   1207   1210   1212     1  0.0000000  0.6508444  3
   1209   1207   1200   1229     1  0.0000000  0.6508444  3
   1209   1207   1210   1219     1  0.0000000  0.6508444  3
   1209   1207   1210   1211     1  0.0000000  0.6508444  3
   1209   1207   1210   1212     1  0.0000000  0.6508444  3
   1210   1207   1200   1229     1  0.0000000  0.6508444  3
   1211   1210   1219   1228     1  0.0000000  1.0460000  1
   1211   1210   1219   1228     1  0.0000000  0.0000000  3
   1211   1210   1219   1220     1  0.0000000  0.6508444  3
   1211   1210   1219   1221     1  0.0000000  0.6508444  3
   1212   1210   1219   1228     1  0.0000000  1.0460000  1
   1212   1210   1219   1228     1  0.0000000  0.0000000  3
   1212   1210   1219   1220     1  0.0000000  0.6508444  3
   1212   1210   1219   1221     1  0.0000000  0.6508444  3
   1213   1201   1200   1229     1  0.0000000  0.6508444  3
   1214   1213   1225   2353     1  0.0000000  1.0460000  1
   1214   1213   1225   2353     1  0.0000000  0.0000000  3
   1214   1213   1225   1226     1  0.0000000  0.6508444  3
   1214   1213   1225   1227     1  0.0000000  0.6508444  3
   1215   1213   1225   2353     1  0.0000000  1.0460000  1
   1215   1213   1225   2353     1  0.0000000  0.0000000  3
   1215   1213   1225   1226     1  0.0000000  0.6508444  3
   1215   1213   1225   1227     1  0.0000000  0.6508444  3
   1216   1204   1200   1229     1  0.0000000  0.6508444  3
   1217   1216   1222   2330     1  0.0000000  1.0460000  1
   1217   1216   1222   2330     1  0.0000000  0.0000000  3
   1217   1216   1222   1223     1  0.0000000  0.6508444  3
   1217   1216   1222   1224     1  0.0000000  0.6508444  3
   1218   1216   1222   2330     1  0.0000000  1.0460000  1
   1218   1216   1222   2330     1  0.0000000  0.0000000  3
   1218   1216   1222   1223     1  0.0000000  0.6508444  3
   1218   1216   1222   1224     1  0.0000000  0.6508444  3
   1222   2330   2326   2329     1  0.0000000  1.6038667  3
   1223   1222   2330   2326     1  0.0000000  1.6038667  3
   1224   1222   2330   2326     1  0.0000000  1.6038667  3
   1225   2353   2349   2352     1  0.0000000  1.6038667  3
   1226   1225   2353   2349     1  0.0000000  1.6038667  3
   1227   1225   2353   2349     1  0.0000000  1.6038667  3
   1230   1231   1243   1244     1  0.0000000  0.6508444  3
   1230   1231   1243   1245     1  0.0000000  0.6508444  3
   1230   1234   1246   1247     1  0.0000000  0.6508444  3
   1230   1234   1246   1248     1  0.0000000  0.6508444  3
   1230   1237   1240   1241     1  0.0000000  0.6508444  3
   1230   1237   1240   1242     1  0.0000000  0.6508444  3
   1231   1230   1234   1235     1  0.0000000  0.6508444  3
   1231   1230   1234   1236     1  0.0000000  0.6508444  3
   1231   1230   1237   1238     1  0.0000000  0.6508444  3
   1231   1230   1237   1239     1  0.0000000  0.6508444  3
   1231   1243   1255   1256     1  0.0000000  0.6508444  3
   1231   1243   1255   1257     1  0.0000000  0.6508444  3
   1232   1231   1230   1234     1  0.0000000  0.6508444  3
   1232   1231   1230   1237     1  0.0000000  0.6508444  3
   1232   1231   1230   1259     1  0.0000000  0.6508444  3
   1232   1231   1243   1255     1  0.0000000  0.6508444  3
   1232   1231   1243   1244     1  0.0000000  0.6508444  3
   1232   1231   1243   1245     1  0.0000000  0.6508444  3
   1233   1231   1230   1234     1  0.0000000  0.6508444  3
   1233   1231   1230   1237     1  0.0000000  0.6508444  3
   1233   1231   1230   1259     1  0.0000000  0.6508444  3
   1233   1231   1243   1255     1  0.0000000  0.6508444  3
   1233   1231   1243   1244     1  0.0000000  0.6508444  3
   1233   1231   1243   1245     1  0.0000000  0.6508444  3
   1234   1230   1237   1238     1  0.0000000  0.6508444  3
   1234   1230   1237   1239     1  0.0000000  0.6508444  3
   1234   1246   1252   1253     1  0.0000000  0.6508444  3
   1234   1246   1252   1254     1  0.0000000  0.6508444  3
   1235   1234   1230   1237     1  0.0000000  0.6508444  3
   1235   1234   1230   1259     1  0.0000000  0.6508444  3
   1235   1234   1246   1252     1  0.0000000  0.6508444  3
   1235   1234   1246   1247     1  0.0000000  0.6508444  3
   1235   1234   1246   1248     1  0.0000000  0.6508444  3
   1236   1234   1230   1237     1  0.0000000  0.6508444  3
   1236   1234   1230   1259     1  0.0000000  0.6508444  3
   1236   1234   1246   1252     1  0.0000000  0.6508444  3
   1236   1234   1246   1247     1  0.0000000  0.6508444  3
   1236   1234   1246   1248     1  0.0000000  0.6508444  3
   1237   1240   1249   1250     1  0.0000000  0.6508444  3
   1237   1240   1249   1251     1  0.0000000  0.6508444  3
   1238   1237   1230   1259     1  0.0000000  0.6508444  3
   1238   1237   1240   1249     1  0.0000000  0.6508444  3
   1238   1237   1240   1241     1  0.0000000  0.6508444  3
   1238   1237   1240   1242     1  0.0000000  0.6508444  3
   1239   1237   1230   1259     1  0.0000000  0.6508444  3
   1239   1237   1240   1249     1  0.0000000  0.6508444  3
   1239   1237   1240   1241     1  0.0000000  0.6508444  3
   1239   1237   1240   1242     1  0.0000000  0.6508444  3
   1240   1237   1230   1259     1  0.0000000  0.6508444  3
   1241   1240   1249   1258     1  0.0000000  1.0460000  1
   1241   1240   1249   1258     1  0.0000000  0.0000000  3
   1241   1240   1249   1250     1  0.0000000  0.6508444  3
   1241   1240   1249   1251     1  0.0000000  0.6508444  3
   1242   1240   1249   1258     1  0.0000000  1.0460000  1
   1242   1240   1249   1258     1  0.0000000  0.0000000  3
   1242   1240   1249   1250     1  0.0000000  0.6508444  3
   1242   1240   1249   1251     1  0.0000000  0.6508444  3
   1243   1231   1230   1259     1  0.0000000  0.6508444  3
   1244   1243   1255   2399     1  0.0000000  1.0460000  1
   1244   1243   1255   2399     1  0.0000000  0.0000000  3
   1244   1243   1255   1256     1  0.0000000  0.6508444  3
   1244   1243   1255   1257     1  0.0000000  0.6508444  3
   1245   1243   1255   2399     1  0.0000000  1.0460000  1
   1245   1243   1255   2399     1  0.0000000  0.0000000  3
   1245   1243   1255   1256     1  0.0000000  0.6508444  3
   1245   1243   1255   1257     1  0.0000000  0.6508444  3
   1246   1234   1230   1259     1  0.0000000  0.6508444  3
   1247   1246   1252   2376     1  0.0000000  1.0460000  1
   1247   1246   1252   2376     1  0.0000000  0.0000000  3
   1247   1246   1252   1253     1  0.0000000  0.6508444  3
   1247   1246   1252   1254     1  0.0000000  0.6508444  3
   1248   1246   1252   2376     1  0.0000000  1.0460000  1
   1248   1246   1252   2376     1  0.0000000  0.0000000  3
   1248   1246   1252   1253     1  0.0000000  0.6508444  3
   1248   1246   1252   1254     1  0.0000000  0.6508444  3
   1252   2376   2372   2375     1  0.0000000  1.6038667  3
   1253   1252   2376   2372     1  0.0000000  1.6038667  3
   1254   1252   2376   2372     1  0.0000000  1.6038667  3
   1255   2399   2395   2398     1  0.0000000  1.6038667  3
   1256   1255   2399   2395     1  0.0000000  1.6038667  3
   1257   1255   2399   2395     1  0.0000000  1.6038667  3
   1260   1261   1273   1274     1  0.0000000  0.6508444  3
   1260   1261   1273   1275     1  0.0000000  0.6508444  3
   1260   1264   1276   1277     1  0.0000000  0.6508444  3
   1260   1264   1276   1278     1  0.0000000  0.6508444  3
   1260   1267   1270   1271     1  0.0000000  0.6508444  3
   1260   1267   1270   1272     1  0.0000000  0.6508444  3
   1261   1260   1264   1265     1  0.0000000  0.6508444  3
   1261   1260   1264   1266     1  0.0000000  0.6508444  3
   1261   1260   1267   1268     1  0.0000000  0.6508444  3
   1261   1260   1267   1269     1  0.0000000  0.6508444  3
   1261   1273   1285   1286     1  0.0000000  0.6508444  3
   1261   1273   1285   1287     1  0.0000000  0.6508444  3
   1262   1261   1260   1264     1  0.0000000  0.6508444  3
   1262   1261   1260   1267     1  0.0000000  0.6508444  3
   1262   1261   1260   1289     1  0.0000000  0.6508444  3
   1262   1261   1273   1285     1  0.0000000  0.6508444  3
   1262   1261   1273   1274     1  0.0000000  0.6508444  3
   1262   1261   1273   1275     1  0.0000000  0.6508444  3
   1263   1261   1260   1264     1  0.0000000  0.6508444  3
   1263   1261   1260   1267     1  0.0000000  0.6508444  3
   1263   1261   1260   1289     1  0.0000000  0.6508444  3
   1263   1261   1273   1285     1  0.0000000  0.6508444  3
   1263   1261   1273   1274     1  0.0000000  0.6508444  3
   1263   1261   1273   1275     1  0.0000000  0.6508444  3
   1264   1260   1267   1268     1  0.0000000  0.6508444  3
   1264   1260   1267   1269     1  0.0000000  0.6508444  3
   1264   1276   1282   1283     1  0.0000000  0.6508444  3
   1264   1276   1282   1284     1  0.0000000  0.6508444  3
   1265   1264   1260   1267     1  0.0000000  0.6508444  3
   1265   1264   1260   1289     1  0.0000000  0.6508444  3
   1265   1264   1276   1282     1  0.0000000  0.6508444  3
   1265   1264   1276   1277     1  0.0000000  0.6508444  3
   1265   1264   1276   1278     1  0.0000000  0.6508444  3
   1266   1264   1260   1267     1  0.0000000  0.6508444  3
   1266   1264   1260   1289     1  0.0000000  0.6508444  3
   1266   1264   1276   1282     1  0.0000000  0.6508444  3
   1266   1264   1276   1277     1  0.0000000  0.6508444  3
   1266   1264   1276   1278     1  0.0000000  0.6508444  3
   1267   1270   1279   1280     1  0.0000000  0.6508444  3
   1267   1270   1279   1281     1  0.0000000  0.6508444  3
   1268   1267   1260   1289     1  0.0000000  0.6508444  3
   1268   1267   1270   1279     1  0.0000000  0.6508444  3
   1268   1267   1270   1271     1  0.0000000  0.6508444  3
   1268   1267   1270   1272     1  0.0000000  0.6508444  3
   1269   1267   1260   1289     1  0.0000000  0.6508444  3
   1269   1267   1270   1279     1  0.0000000  0.6508444  3
   1269   1267   1270   1271     1  0.0000000  0.6508444  3
   1269   1267   1270   1272     1  0.0000000  0.6508444  3
   1270   1267   1260   1289     1  0.0000000  0.6508444  3
   1271   1270   1279   1288     1  0.0000000  1.0460000  1
   1271   1270   1279   1288     1  0.0000000  0.0000000  3
   1271   1270   1279   1280     1  0.0000000  0.6508444  3
   1271   1270   1279   1281     1  0.0000000  0.6508444  3
   1272   1270   1279   1288     1  0.0000000  1.0460000  1
   1272   1270   1279   1288     1  0.0000000  0.0000000  3
   1272   1270   1279   1280     1  0.0000000  0.6508444  3
   1272   1270   1279   1281     1  0.0000000  0.6508444  3
   1273   1261   1260   1289     1  0.0000000  0.6508444  3
   1274   1273   1285   2445     1  0.0000000  1.0460000  1
   1274   1273   1285   2445     1  0.0000000  0.0000000  3
   1274   1273   1285   1286     1  0.0000000  0.6508444  3
   1274   1273   1285   1287     1  0.0000000  0.6508444  3
   1275   1273   1285   2445     1  0.0000000  1.0460000  1
   1275   1273   1285   2445     1  0.0000000  0.0000000  3
   1275   1273   1285   1286     1  0.0000000  0.6508444  3
   1275   1273   1285   1287     1  0.0000000  0.6508444  3
   1276   1264   1260   1289     1  0.0000000  0.6508444  3
   1277   1276   1282   2422     1  0.0000000  1.0460000  1
   1277   1276   1282   2422     1  0.0000000  0.0000000  3
   1277   1276   1282   1283     1  0.0000000  0.6508444  3
   1277   1276   1282   1284     1  0.0000000  0.6508444  3
   1278   1276   1282   2422     1  0.0000000  1.0460000  1
   1278   1276   1282   2422     1  0.0000000  0.0000000  3
   1278   1276   1282   1283     1  0.0000000  0.6508444  3
   1278   1276   1282   1284     1  0.0000000  0.6508444  3
   1282   2422   2418   2421     1  0.0000000  1.6038667  3
   1283   1282   2422   2418     1  0.0000000  1.6038667  3
   1284   1282   2422   2418     1  0.0000000  1.6038667  3
   1285   2445   2441   2444     1  0.0000000  1.6038667  3
   1286   1285   2445   2441     1  0.0000000  1.6038667  3
   1287   1285   2445   2441     1  0.0000000  1.6038667  3
   1290   1291   1303   1304     1  0.0000000  0.6508444  3
   1290   1291   1303   1305     1  0.0000000  0.6508444  3
   1290   1294   1306   1307     1  0.0000000  0.6508444  3
   1290   1294   1306   1308     1  0.0000000  0.6508444  3
   1290   1297   1300   1301     1  0.0000000  0.6508444  3
   1290   1297   1300   1302     1  0.0000000  0.6508444  3
   1291   1290   1294   1295     1  0.0000000  0.6508444  3
   1291   1290   1294   1296     1  0.0000000  0.6508444  3
   1291   1290   1297   1298     1  0.0000000  0.6508444  3
   1291   1290   1297   1299     1  0.0000000  0.6508444  3
   1291   1303   1315   1316     1  0.0000000  0.6508444  3
   1291   1303   1315   1317     1  0.0000000  0.6508444  3
   1292   1291   1290   1294     1  0.0000000  0.6508444  3
   1292   1291   1290   1297     1  0.0000000  0.6508444  3
   1292   1291   1290   1319     1  0.0000000  0.6508444  3
   1292   1291   1303   1315     1  0.0000000  0.6508444  3
   1292   1291   1303   1304     1  0.0000000  0.6508444  3
   1292   1291   1303   1305     1  0.0000000  0.6508444  3
   1293   1291   1290   1294     1  0.0000000  0.6508444  3
   1293   1291   1290   1297     1  0.0000000  0.6508444  3
   1293   1291   1290   1319     1  0.0000000  0.6508444  3
   1293   1291   1303   1315     1  0.0000000  0.6508444  3
   1293   1291   1303   1304     1  0.0000000  0.6508444  3
   1293   1291   1303   1305     1  0.0000000  0.6508444  3
   1294   1290   1297   1298     1  0.0000000  0.6508444  3
   1294   1290   1297   1299     1  0.0000000  0.6508444  3
   1294   1306   1312   1313     1  0.0000000  0.6508444  3
   1294   1306   1312   1314     1  0.0000000  0.6508444  3
   1295   1294   1290   1297     1  0.0000000  0.6508444  3
   1295   1294   1290   1319     1  0.0000000  0.6508444  3
   1295   1294   1306   1312     1  0.0000000  0.6508444  3
   1295   1294   1306   1307     1  0.0000000  0.6508444  3
   1295   1294   1306   1308     1  0.0000000  0.6508444  3
   1296   1294   1290   1297     1  0.0000000  0.6508444  3
   1296   1294   1290   1319     1  0.0000000  0.6508444  3
   1296   1294   1306   1312     1  0.0000000  0.6508444  3
   1296   1294   1306   1307     1  0.0000000  0.6508444  3
   1296   1294   1306   1308     1  0.0000000  0.6508444  3
   1297   1300   1309   1310     1  0.0000000  0.6508444  3
   1297   1300   1309   1311     1  0.0000000  0.6508444  3
   1298   1297   1290   1319     1  0.0000000  0.6508444  3
   1298   1297   1300   1309     1  0.0000000  0.6508444  3
   1298   1297   1300   1301     1  0.0000000  0.6508444  3
   1298   1297   1300   1302     1  0.0000000  0.6508444  3
   1299   1297   1290   1319     1  0.0000000  0.6508444  3
   1299   1297   1300   1309     1  0.0000000  0.6508444  3
   1299   1297   1300   1301     1  0.0000000  0.6508444  3
   1299   1297   1300   1302     1  0.0000000  0.6508444  3
   1300   1297   1290   1319     1  0.0000000  0.6508444  3
   1301   1300   1309   1318     1  0.0000000  1.0460000  1
   1301   1300   1309   1318     1  0.0000000  0.0000000  3
   1301   1300   1309   1310     1  0.0000000  0.6508444  3
   1301   1300   1309   1311     1  0.0000000  0.6508444  3
   1302   1300   1309   1318     1  0.0000000  1.0460000  1
   1302   1300   1309   1318     1  0.0000000  0.0000000  3
   1302   1300   1309   1310     1  0.0000000  0.6508444  3
   1302   1300   1309   1311     1  0.0000000  0.6508444  3
   1303   1291   1290   1319     1  0.0000000  0.6508444  3
   1304   1303   1315   2491     1  0.0000000  1.0460000  1
   1304   1303   1315   2491     1  0.0000000  0.0000000  3
   1304   1303   1315   1316     1  0.0000000  0.6508444  3
   1304   1303   1315   1317     1  0.0000000  0.6508444  3
   1305   1303   1315   2491     1  0.0000000  1.0460000  1
   1305   1303   1315   2491     1  0.0000000  0.0000000  3
   1305   1303   1315   1316     1  0.0000000  0.6508444  3
   1305   1303   1315   1317     1  0.0000000  0.6508444  3
   1306   1294   1290   1319     1  0.0000000  0.6508444  3
   1307   1306   1312   2468     1  0.0000000  1.0460000  1
   1307   1306   1312   2468     1  0.0000000  0.0000000  3
   1307   1306   1312   1313     1  0.0000000  0.6508444  3
   1307   1306   1312   1314     1  0.0000000  0.6508444  3
   1308   1306   1312   2468     1  0.0000000  1.0460000  1
   1308   1306   1312   2468     1  0.0000000  0.0000000  3
   1308   1306   1312   1313     1  0.0000000  0.6508444  3
   1308   1306   1312   1314     1  0.0000000  0.6508444  3
   1312   2468   2464   2467     1  0.0000000  1.6038667  3
   1313   1312   2468   2464     1  0.0000000  1.6038667  3
   1314   1312   2468   2464     1  0.0000000  1.6038667  3
   1315   2491   2487   2490     1  0.0000000  1.6038667  3
   1316   1315   2491   2487     1  0.0000000  1.6038667  3
   1317   1315   2491   2487     1  0.0000000  1.6038667  3
   1320   1321   1333   1334     1  0.0000000  0.6508444  3
   1320   1321   1333   1335     1  0.0000000  0.6508444  3
   1320   1324   1336   1337     1  0.0000000  0.6508444  3
   1320   1324   1336   1338     1  0.0000000  0.6508444  3
   1320   1327   1330   1331     1  0.0000000  0.6508444  3
   1320   1327   1330   1332     1  0.0000000  0.6508444  3
   1321   1320   1324   1325     1  0.0000000  0.6508444  3
   1321   1320   1324   1326     1  0.0000000  0.6508444  3
   1321   1320   1327   1328     1  0.0000000  0.6508444  3
   1321   1320   1327   1329     1  0.0000000  0.6508444  3
   1321   1333   1345   1346     1  0.0000000  0.6508444  3
   1321   1333   1345   1347     1  0.0000000  0.6508444  3
   1322   1321   1320   1324     1  0.0000000  0.6508444  3
   1322   1321   1320   1327     1  0.0000000  0.6508444  3
   1322   1321   1320   1349     1  0.0000000  0.6508444  3
   1322   1321   1333   1345     1  0.0000000  0.6508444  3
   1322   1321   1333   1334     1  0.0000000  0.6508444  3
   1322   1321   1333   1335     1  0.0000000  0.6508444  3
   1323   1321   1320   1324     1  0.0000000  0.6508444  3
   1323   1321   1320   1327     1  0.0000000  0.6508444  3
   1323   1321   1320   1349     1  0.0000000  0.6508444  3
   1323   1321   1333   1345     1  0.0000000  0.6508444  3
   1323   1321   1333   1334     1  0.0000000  0.6508444  3
   1323   1321   1333   1335     1  0.0000000  0.6508444  3
   1324   1320   1327   1328     1  0.0000000  0.6508444  3
   1324   1320   1327   1329     1  0.0000000  0.6508444  3
   1324   1336   1342   1343     1  0.0000000  0.6508444  3
   1324   1336   1342   1344     1  0.0000000  0.6508444  3
   1325   1324   1320   1327     1  0.0000000  0.6508444  3
   1325   1324   1320   1349     1  0.0000000  0.6508444  3
   1325   1324   1336   1342     1  0.0000000  0.6508444  3
   1325   1324   1336   1337     1  0.0000000  0.6508444  3
   1325   1324   1336   1338     1  0.0000000  0.6508444  3
   1326   1324   1320   1327     1  0.0000000  0.6508444  3
   1326   1324   1320   1349     1  0.0000000  0.6508444  3
   1326   1324   1336   1342     1  0.0000000  0.6508444  3
   1326   1324   1336   1337     1  0.0000000  0.6508444  3
   1326   1324   1336   1338     1  0.0000000  0.6508444  3
   1327   1330   1339   1340     1  0.0000000  0.6508444  3
   1327   1330   1339   1341     1  0.0000000  0.6508444  3
   1328   1327   1320   1349     1  0.0000000  0.6508444  3
   1328   1327   1330   1339     1  0.0000000  0.6508444  3
   1328   1327   1330   1331     1  0.0000000  0.6508444  3
   1328   1327   1330   1332     1  0.0000000  0.6508444  3
   1329   1327   1320   1349     1  0.0000000  0.6508444  3
   1329   1327   1330   1339     1  0.0000000  0.6508444  3
   1329   1327   1330   1331     1  0.0000000  0.6508444  3
   1329   1327   1330   1332     1  0.0000000  0.6508444  3
   1330   1327   1320   1349     1  0.0000000  0.6508444  3
   1331   1330   1339   1348     1  0.0000000  1.0460000  1
   1331   1330   1339   1348     1  0.0000000  0.0000000  3
   1331   1330   1339   1340     1  0.0000000  0.6508444  3
   1331   1330   1339   1341     1  0.0000000  0.6508444  3
   1332   1330   1339   1348     1  0.0000000  1.0460000  1
   1332   1330   1339   1348     1  0.0000000  0.0000000  3
   1332   1330   1339   1340     1  0.0000000  0.6508444  3
   1332   1330   1339   1341     1  0.0000000  0.6508444  3
   1333   1321   1320   1349     1  0.0000000  0.6508444  3
   1334   1333   1345   2537     1  0.0000000  1.0460000  1
   1334   1333   1345   2537     1  0.0000000  0.0000000  3
   1334   1333   1345   1346     1  0.0000000  0.6508444  3
   1334   1333   1345   1347     1  0.0000000  0.6508444  3
   1335   1333   1345   2537     1  0.0000000  1.0460000  1
   1335   1333   1345   2537     1  0.0000000  0.0000000  3
   1335   1333   1345   1346     1  0.0000000  0.6508444  3
   1335   1333   1345   1347     1  0.0000000  0.6508444  3
   1336   1324   1320   1349     1  0.0000000  0.6508444  3
   1337   1336   1342   2514     1  0.0000000  1.0460000  1
   1337   1336   1342   2514     1  0.0000000  0.0000000  3
   1337   1336   1342   1343     1  0.0000000  0.6508444  3
   1337   1336   1342   1344     1  0.0000000  0.6508444  3
   1338   1336   1342   2514     1  0.0000000  1.0460000  1
   1338   1336   1342   2514     1  0.0000000  0.0000000  3
   1338   1336   1342   1343     1  0.0000000  0.6508444  3
   1338   1336   1342   1344     1  0.0000000  0.6508444  3
   1342   2514   2510   2513     1  0.0000000  1.6038667  3
   1343   1342   2514   2510     1  0.0000000  1.6038667  3
   1344   1342   2514   2510     1  0.0000000  1.6038667  3
   1345   2537   2533   2536     1  0.0000000  1.6038667  3
   1346   1345   2537   2533     1  0.0000000  1.6038667  3
   1347   1345   2537   2533     1  0.0000000  1.6038667  3
   1350   1351   1363   1364     1  0.0000000  0.6508444  3
   1350   1351   1363   1365     1  0.0000000  0.6508444  3
   1350   1354   1366   1367     1  0.0000000  0.6508444  3
   1350   1354   1366   1368     1  0.0000000  0.6508444  3
   1350   1357   1360   1361     1  0.0000000  0.6508444  3
   1350   1357   1360   1362     1  0.0000000  0.6508444  3
   1351   1350   1354   1355     1  0.0000000  0.6508444  3
   1351   1350   1354   1356     1  0.0000000  0.6508444  3
   1351   1350   1357   1358     1  0.0000000  0.6508444  3
   1351   1350   1357   1359     1  0.0000000  0.6508444  3
   1351   1363   1375   1376     1  0.0000000  0.6508444  3
   1351   1363   1375   1377     1  0.0000000  0.6508444  3
   1352   1351   1350   1354     1  0.0000000  0.6508444  3
   1352   1351   1350   1357     1  0.0000000  0.6508444  3
   1352   1351   1350   1379     1  0.0000000  0.6508444  3
   1352   1351   1363   1375     1  0.0000000  0.6508444  3
   1352   1351   1363   1364     1  0.0000000  0.6508444  3
   1352   1351   1363   1365     1  0.0000000  0.6508444  3
   1353   1351   1350   1354     1  0.0000000  0.6508444  3
   1353   1351   1350   1357     1  0.0000000  0.6508444  3
   1353   1351   1350   1379     1  0.0000000  0.6508444  3
   1353   1351   1363   1375     1  0.0000000  0.6508444  3
   1353   1351   1363   1364     1  0.0000000  0.6508444  3
   1353   1351   1363   1365     1  0.0000000  0.6508444  3
   1354   1350   1357   1358     1  0.0000000  0.6508444  3
   1354   1350   1357   1359     1  0.0000000  0.6508444  3
   1354   1366   1372   1373     1  0.0000000  0.6508444  3
   1354   1366   1372   1374     1  0.0000000  0.6508444  3
   1355   1354   1350   1357     1  0.0000000  0.6508444  3
   1355   1354   1350   1379     1  0.0000000  0.6508444  3
   1355   1354   1366   1372     1  0.0000000  0.6508444  3
   1355   1354   1366   1367     1  0.0000000  0.6508444  3
   1355   1354   1366   1368     1  0.0000000  0.6508444  3
   1356   1354   1350   1357     1  0.0000000  0.6508444  3
   1356   1354   1350   1379     1  0.0000000  0.6508444  3
   1356   1354   1366   1372     1  0.0000000  0.6508444  3
   1356   1354   1366   1367     1  0.0000000  0.6508444  3
   1356   1354   1366   1368     1  0.0000000  0.6508444  3
   1357   1360   1369   1370     1  0.0000000  0.6508444  3
   1357   1360   1369   1371     1  0.0000000  0.6508444  3
   1358   1357   1350   1379     1  0.0000000  0.6508444  3
   1358   1357   1360   1369     1  0.0000000  0.6508444  3
   1358   1357   1360   1361     1  0.0000000  0.6508444  3
   1358   1357   1360   1362     1  0.0000000  0.6508444  3
   1359   1357   1350   1379     1  0.0000000  0.6508444  3
   1359   1357   1360   1369     1  0.0000000  0.6508444  3
   1359   1357   1360   1361     1  0.0000000  0.6508444  3
   1359   1357   1360   1362     1  0.0000000  0.6508444  3
   1360   1357   1350   1379     1  0.0000000  0.6508444  3
   1361   1360   1369   1378     1  0.0000000  1.0460000  1
   1361   1360   1369   1378     1  0.0000000  0.0000000  3
   1361   1360   1369   1370     1  0.0000000  0.6508444  3
   1361   1360   1369   1371     1  0.0000000  0.6508444  3
   1362   1360   1369   1378     1  0.0000000  1.0460000  1
   1362   1360   1369   1378     1  0.0000000  0.0000000  3
   1362   1360   1369   1370     1  0.0000000  0.6508444  3
   1362   1360   1369   1371     1  0.0000000  0.6508444  3
   1363   1351   1350   1379     1  0.0000000  0.6508444  3
   1364   1363   1375   2583     1  0.0000000  1.0460000  1
   1364   1363   1375   2583     1  0.0000000  0.0000000  3
   1364   1363   1375   1376     1  0.0000000  0.6508444  3
   1364   1363   1375   1377     1  0.0000000  0.6508444  3
   1365   1363   1375   2583     1  0.0000000  1.0460000  1
   1365   1363   1375   2583     1  0.0000000  0.0000000  3
   1365   1363   1375   1376     1  0.0000000  0.6508444  3
   1365   1363   1375   1377     1  0.0000000  0.6508444  3
   1366   1354   1350   1379     1  0.0000000  0.6508444  3
   1367   1366   1372   2560     1  0.0000000  1.0460000  1
   1367   1366   1372   2560     1  0.0000000  0.0000000  3
   1367   1366   1372   1373     1  0.0000000  0.6508444  3
   1367   1366   1372   1374     1  0.0000000  0.6508444  3
   1368   1366   1372   2560     1  0.0000000  1.0460000  1
   1368   1366   1372   2560     1  0.0000000  0.0000000  3
   1368   1366   1372   1373     1  0.0000000  0.6508444  3
   1368   1366   1372   1374     1  0.0000000  0.6508444  3
   1372   2560   2556   2559     1  0.0000000  1.6038667  3
   1373   1372   2560   2556     1  0.0000000  1.6038667  3
   1374   1372   2560   2556     1  0.0000000  1.6038667  3
   1375   2583   2579   2582     1  0.0000000  1.6038667  3
   1376   1375   2583   2579     1  0.0000000  1.6038667  3
   1377   1375   2583   2579     1  0.0000000  1.6038667  3
   1380   1381   1393   1394     1  0.0000000  0.6508444  3
   1380   1381   1393   1395     1  0.0000000  0.6508444  3
   1380   1384   1396   1397     1  0.0000000  0.6508444  3
   1380   1384   1396   1398     1  0.0000000  0.6508444  3
   1380   1387   1390   1391     1  0.0000000  0.6508444  3
   1380   1387   1390   1392     1  0.0000000  0.6508444  3
   1381   1380   1384   1385     1  0.0000000  0.6508444  3
   1381   1380   1384   1386     1  0.0000000  0.6508444  3
   1381   1380   1387   1388     1  0.0000000  0.6508444  3
   1381   1380   1387   1389     1  0.0000000  0.6508444  3
   1381   1393   1405   1406     1  0.0000000  0.6508444  3
   1381   1393   1405   1407     1  0.0000000  0.6508444  3
   1382   1381   1380   1384     1  0.0000000  0.6508444  3
   1382   1381   1380   1387     1  0.0000000  0.6508444  3
   1382   1381   1380   1409     1  0.0000000  0.6508444  3
   1382   1381   1393   1405     1  0.0000000  0.6508444  3
   1382   1381   1393   1394     1  0.0000000  0.6508444  3
   1382   1381   1393   1395     1  0.0000000  0.6508444  3
   1383   1381   1380   1384     1  0.0000000  0.6508444  3
   1383   1381   1380   1387     1  0.0000000  0.6508444  3
   1383   1381   1380   1409     1  0.0000000  0.6508444  3
   1383   1381   1393   1405     1  0.0000000  0.6508444  3
   1383   1381   1393   1394     1  0.0000000  0.6508444  3
   1383   1381   1393   1395     1  0.0000000  0.6508444  3
   1384   1380   1387   1388     1  0.0000000  0.6508444  3
   1384   1380   1387   1389     1  0.0000000  0.6508444  3
   1384   1396   1402   1403     1  0.0000000  0.6508444  3
   1384   1396   1402   1404     1  0.0000000  0.6508444  3
   1385   1384   1380   1387     1  0.0000000  0.6508444  3
   1385   1384   1380   1409     1  0.0000000  0.6508444  3
   1385   1384   1396   1402     1  0.0000000  0.6508444  3
   1385   1384   1396   1397     1  0.0000000  0.6508444  3
   1385   1384   1396   1398     1  0.0000000  0.6508444  3
   1386   1384   1380   1387     1  0.0000000  0.6508444  3
   1386   1384   1380   1409     1  0.0000000  0.6508444  3
   1386   1384   1396   1402     1  0.0000000  0.6508444  3
   1386   1384   1396   1397     1  0.0000000  0.6508444  3
   1386   1384   1396   1398     1  0.0000000  0.6508444  3
   1387   1390   1399   1400     1  0.0000000  0.6508444  3
   1387   1390   1399   1401     1  0.0000000  0.6508444  3
   1388   1387   1380   1409     1  0.0000000  0.6508444  3
   1388   1387   1390   1399     1  0.0000000  0.6508444  3
   1388   1387   1390   1391     1  0.0000000  0.6508444  3
   1388   1387   1390   1392     1  0.0000000  0.6508444  3
   1389   1387   1380   1409     1  0.0000000  0.6508444  3
   1389   1387   1390   1399     1  0.0000000  0.6508444  3
   1389   1387   1390   1391     1  0.0000000  0.6508444  3
   1389   1387   1390   1392     1  0.0000000  0.6508444  3
   1390   1387   1380   1409     1  0.0000000  0.6508444  3
   1391   1390   1399   1408     1  0.0000000  1.0460000  1
   1391   1390   1399   1408     1  0.0000000  0.0000000  3
   1391   1390   1399   1400     1  0.0000000  0.6508444  3
   1391   1390   1399   1401     1  0.0000000  0.6508444  3
   1392   1390   1399   1408     1  0.0000000  1.0460000  1
   1392   1390   1399   1408     1  0.0000000  0.0000000  3
   1392   1390   1399   1400     1  0.0000000  0.6508444  3
   1392   1390   1399   1401     1  0.0000000  0.6508444  3
   1393   1381   1380   1409     1  0.0000000  0.6508444  3
   1394   1393   1405   2629     1  0.0000000  1.0460000  1
   1394   1393   1405   2629     1  0.0000000  0.0000000  3
   1394   1393   1405   1406     1  0.0000000  0.6508444  3
   1394   1393   1405   1407     1  0.0000000  0.6508444  3
   1395   1393   1405   2629     1  0.0000000  1.0460000  1
   1395   1393   1405   2629     1  0.0000000  0.0000000  3
   1395   1393   1405   1406     1  0.0000000  0.6508444  3
   1395   1393   1405   1407     1  0.0000000  0.6508444  3
   1396   1384   1380   1409     1  0.0000000  0.6508444  3
   1397   1396   1402   2606     1  0.0000000  1.0460000  1
   1397   1396   1402   2606     1  0.0000000  0.0000000  3
   1397   1396   1402   1403     1  0.0000000  0.6508444  3
   1397   1396   1402   1404     1  0.0000000  0.6508444  3
   1398   1396   1402   2606     1  0.0000000  1.0460000  1
   1398   1396   1402   2606     1  0.0000000  0.0000000  3
   1398   1396   1402   1403     1  0.0000000  0.6508444  3
   1398   1396   1402   1404     1  0.0000000  0.6508444  3
   1402   2606   2602   2605     1  0.0000000  1.6038667  3
   1403   1402   2606   2602     1  0.0000000  1.6038667  3
   1404   1402   2606   2602     1  0.0000000  1.6038667  3
   1405   2629   2625   2628     1  0.0000000  1.6038667  3
   1406   1405   2629   2625     1  0.0000000  1.6038667  3
   1407   1405   2629   2625     1  0.0000000  1.6038667  3
   1410   1411   1423   1424     1  0.0000000  0.6508444  3
   1410   1411   1423   1425     1  0.0000000  0.6508444  3
   1410   1414   1426   1427     1  0.0000000  0.6508444  3
   1410   1414   1426   1428     1  0.0000000  0.6508444  3
   1410   1417   1420   1421     1  0.0000000  0.6508444  3
   1410   1417   1420   1422     1  0.0000000  0.6508444  3
   1411   1410   1414   1415     1  0.0000000  0.6508444  3
   1411   1410   1414   1416     1  0.0000000  0.6508444  3
   1411   1410   1417   1418     1  0.0000000  0.6508444  3
   1411   1410   1417   1419     1  0.0000000  0.6508444  3
   1411   1423   1435   1436     1  0.0000000  0.6508444  3
   1411   1423   1435   1437     1  0.0000000  0.6508444  3
   1412   1411   1410   1414     1  0.0000000  0.6508444  3
   1412   1411   1410   1417     1  0.0000000  0.6508444  3
   1412   1411   1410   1439     1  0.0000000  0.6508444  3
   1412   1411   1423   1435     1  0.0000000  0.6508444  3
   1412   1411   1423   1424     1  0.0000000  0.6508444  3
   1412   1411   1423   1425     1  0.0000000  0.6508444  3
   1413   1411   1410   1414     1  0.0000000  0.6508444  3
   1413   1411   1410   1417     1  0.0000000  0.6508444  3
   1413   1411   1410   1439     1  0.0000000  0.6508444  3
   1413   1411   1423   1435     1  0.0000000  0.6508444  3
   1413   1411   1423   1424     1  0.0000000  0.6508444  3
   1413   1411   1423   1425     1  0.0000000  0.6508444  3
   1414   1410   1417   1418     1  0.0000000  0.6508444  3
   1414   1410   1417   1419     1  0.0000000  0.6508444  3
   1414   1426   1432   1433     1  0.0000000  0.6508444  3
   1414   1426   1432   1434     1  0.0000000  0.6508444  3
   1415   1414   1410   1417     1  0.0000000  0.6508444  3
   1415   1414   1410   1439     1  0.0000000  0.6508444  3
   1415   1414   1426   1432     1  0.0000000  0.6508444  3
   1415   1414   1426   1427     1  0.0000000  0.6508444  3
   1415   1414   1426   1428     1  0.0000000  0.6508444  3
   1416   1414   1410   1417     1  0.0000000  0.6508444  3
   1416   1414   1410   1439     1  0.0000000  0.6508444  3
   1416   1414   1426   1432     1  0.0000000  0.6508444  3
   1416   1414   1426   1427     1  0.0000000  0.6508444  3
   1416   1414   1426   1428     1  0.0000000  0.6508444  3
   1417   1420   1429   1430     1  0.0000000  0.6508444  3
   1417   1420   1429   1431     1  0.0000000  0.6508444  3
   1418   1417   1410   1439     1  0.0000000  0.6508444  3
   1418   1417   1420   1429     1  0.0000000  0.6508444  3
   1418   1417   1420   1421     1  0.0000000  0.6508444  3
   1418   1417   1420   1422     1  0.0000000  0.6508444  3
   1419   1417   1410   1439     1  0.0000000  0.6508444  3
   1419   1417   1420   1429     1  0.0000000  0.6508444  3
   1419   1417   1420   1421     1  0.0000000  0.6508444  3
   1419   1417   1420   1422     1  0.0000000  0.6508444  3
   1420   1417   1410   1439     1  0.0000000  0.6508444  3
   1421   1420   1429   1438     1  0.0000000  1.0460000  1
   1421   1420   1429   1438     1  0.0000000  0.0000000  3
   1421   1420   1429   1430     1  0.0000000  0.6508444  3
   1421   1420   1429   1431     1  0.0000000  0.6508444  3
   1422   1420   1429   1438     1  0.0000000  1.0460000  1
   1422   1420   1429   1438     1  0.0000000  0.0000000  3
   1422   1420   1429   1430     1  0.0000000  0.6508444  3
   1422   1420   1429   1431     1  0.0000000  0.6508444  3
   1423   1411   1410   1439     1  0.0000000  0.6508444  3
   1424   1423   1435   2675     1  0.0000000  1.0460000  1
   1424   1423   1435   2675     1  0.0000000  0.0000000  3
   1424   1423   1435   1436     1  0.0000000  0.6508444  3
   1424   1423   1435   1437     1  0.0000000  0.6508444  3
   1425   1423   1435   2675     1  0.0000000  1.0460000  1
   1425   1423   1435   2675     1  0.0000000  0.0000000  3
   1425   1423   1435   1436     1  0.0000000  0.6508444  3
   1425   1423   1435   1437     1  0.0000000  0.6508444  3
   1426   1414   1410   1439     1  0.0000000  0.6508444  3
   1427   1426   1432   2652     1  0.0000000  1.0460000  1
   1427   1426   1432   2652     1  0.0000000  0.0000000  3
   1427   1426   1432   1433     1  0.0000000  0.6508444  3
   1427   1426   1432   1434     1  0.0000000  0.6508444  3
   1428   1426   1432   2652     1  0.0000000  1.0460000  1
   1428   1426   1432   2652     1  0.0000000  0.0000000  3
   1428   1426   1432   1433     1  0.0000000  0.6508444  3
   1428   1426   1432   1434     1  0.0000000  0.6508444  3
   1432   2652   2648   2651     1  0.0000000  1.6038667  3
   1433   1432   2652   2648     1  0.0000000  1.6038667  3
   1434   1432   2652   2648     1  0.0000000  1.6038667  3
   1435   2675   2671   2674     1  0.0000000  1.6038667  3
   1436   1435   2675   2671     1  0.0000000  1.6038667  3
   1437   1435   2675   2671     1  0.0000000  1.6038667  3
   1440   1441   1453   1454     1  0.0000000  0.6508444  3
   1440   1441   1453   1455     1  0.0000000  0.6508444  3
   1440   1444   1456   1457     1  0.0000000  0.6508444  3
   1440   1444   1456   1458     1  0.0000000  0.6508444  3
   1440   1447   1450   1451     1  0.0000000  0.6508444  3
   1440   1447   1450   1452     1  0.0000000  0.6508444  3
   1441   1440   1444   1445     1  0.0000000  0.6508444  3
   1441   1440   1444   1446     1  0.0000000  0.6508444  3
   1441   1440   1447   1448     1  0.0000000  0.6508444  3
   1441   1440   1447   1449     1  0.0000000  0.6508444  3
   1441   1453   1465   1466     1  0.0000000  0.6508444  3
   1441   1453   1465   1467     1  0.0000000  0.6508444  3
   1442   1441   1440   1444     1  0.0000000  0.6508444  3
   1442   1441   1440   1447     1  0.0000000  0.6508444  3
   1442   1441   1440   1469     1  0.0000000  0.6508444  3
   1442   1441   1453   1465     1  0.0000000  0.6508444  3
   1442   1441   1453   1454     1  0.0000000  0.6508444  3
   1442   1441   1453   1455     1  0.0000000  0.6508444  3
   1443   1441   1440   1444     1  0.0000000  0.6508444  3
   1443   1441   1440   1447     1  0.0000000  0.6508444  3
   1443   1441   1440   1469     1  0.0000000  0.6508444  3
   1443   1441   1453   1465     1  0.0000000  0.6508444  3
   1443   1441   1453   1454     1  0.0000000  0.6508444  3
   1443   1441   1453   1455     1  0.0000000  0.6508444  3
   1444   1440   1447   1448     1  0.0000000  0.6508444  3
   1444   1440   1447   1449     1  0.0000000  0.6508444  3
   1444   1456   1462   1463     1  0.0000000  0.6508444  3
   1444   1456   1462   1464     1  0.0000000  0.6508444  3
   1445   1444   1440   1447     1  0.0000000  0.6508444  3
   1445   1444   1440   1469     1  0.0000000  0.6508444  3
   1445   1444   1456   1462     1  0.0000000  0.6508444  3
   1445   1444   1456   1457     1  0.0000000  0.6508444  3
   1445   1444   1456   1458     1  0.0000000  0.6508444  3
   1446   1444   1440   1447     1  0.0000000  0.6508444  3
   1446   1444   1440   1469     1  0.0000000  0.6508444  3
   1446   1444   1456   1462     1  0.0000000  0.6508444  3
   1446   1444   1456   1457     1  0.0000000  0.6508444  3
   1446   1444   1456   1458     1  0.0000000  0.6508444  3
   1447   1450   1459   1460     1  0.0000000  0.6508444  3
   1447   1450   1459   1461     1  0.0000000  0.6508444  3
   1448   1447   1440   1469     1  0.0000000  0.6508444  3
   1448   1447   1450   1459     1  0.0000000  0.6508444  3
   1448   1447   1450   1451     1  0.0000000  0.6508444  3
   1448   1447   1450   1452     1  0.0000000  0.6508444  3
   1449   1447   1440   1469     1  0.0000000  0.6508444  3
   1449   1447   1450   1459     1  0.0000000  0.6508444  3
   1449   1447   1450   1451     1  0.0000000  0.6508444  3
   1449   1447   1450   1452     1  0.0000000  0.6508444  3
   1450   1447   1440   1469     1  0.0000000  0.6508444  3
   1451   1450   1459   1468     1  0.0000000  1.0460000  1
   1451   1450   1459   1468     1  0.0000000  0.0000000  3
   1451   1450   1459   1460     1  0.0000000  0.6508444  3
   1451   1450   1459   1461     1  0.0000000  0.6508444  3
   1452   1450   1459   1468     1  0.0000000  1.0460000  1
   1452   1450   1459   1468     1  0.0000000  0.0000000  3
   1452   1450   1459   1460     1  0.0000000  0.6508444  3
   1452   1450   1459   1461     1  0.0000000  0.6508444  3
   1453   1441   1440   1469     1  0.0000000  0.6508444  3
   1454   1453   1465   2721     1  0.0000000  1.0460000  1
   1454   1453   1465   2721     1  0.0000000  0.0000000  3
   1454   1453   1465   1466     1  0.0000000  0.6508444  3
   1454   1453   1465   1467     1  0.0000000  0.6508444  3
   1455   1453   1465   2721     1  0.0000000  1.0460000  1
   1455   1453   1465   2721     1  0.0000000  0.0000000  3
   1455   1453   1465   1466     1  0.0000000  0.6508444  3
   1455   1453   1465   1467     1  0.0000000  0.6508444  3
   1456   1444   1440   1469     1  0.0000000  0.6508444  3
   1457   1456   1462   2698     1  0.0000000  1.0460000  1
   1457   1456   1462   2698     1  0.0000000  0.0000000  3
   1457   1456   1462   1463     1  0.0000000  0.6508444  3
   1457   1456   1462   1464     1  0.0000000  0.6508444  3
   1458   1456   1462   2698     1  0.0000000  1.0460000  1
   1458   1456   1462   2698     1  0.0000000  0.0000000  3
   1458   1456   1462   1463     1  0.0000000  0.6508444  3
   1458   1456   1462   1464     1  0.0000000  0.6508444  3
   1462   2698   2694   2697     1  0.0000000  1.6038667  3
   1463   1462   2698   2694     1  0.0000000  1.6038667  3
   1464   1462   2698   2694     1  0.0000000  1.6038667  3
   1465   2721   2717   2720     1  0.0000000  1.6038667  3
   1466   1465   2721   2717     1  0.0000000  1.6038667  3
   1467   1465   2721   2717     1  0.0000000  1.6038667  3
   1470   1471   1483   1484     1  0.0000000  0.6508444  3
   1470   1471   1483   1485     1  0.0000000  0.6508444  3
   1470   1474   1486   1487     1  0.0000000  0.6508444  3
   1470   1474   1486   1488     1  0.0000000  0.6508444  3
   1470   1477   1480   1481     1  0.0000000  0.6508444  3
   1470   1477   1480   1482     1  0.0000000  0.6508444  3
   1471   1470   1474   1475     1  0.0000000  0.6508444  3
   1471   1470   1474   1476     1  0.0000000  0.6508444  3
   1471   1470   1477   1478     1  0.0000000  0.6508444  3
   1471   1470   1477   1479     1  0.0000000  0.6508444  3
   1471   1483   1495   1496     1  0.0000000  0.6508444  3
   1471   1483   1495   1497     1  0.0000000  0.6508444  3
   1472   1471   1470   1474     1  0.0000000  0.6508444  3
   1472   1471   1470   1477     1  0.0000000  0.6508444  3
   1472   1471   1470   1499     1  0.0000000  0.6508444  3
   1472   1471   1483   1495     1  0.0000000  0.6508444  3
   1472   1471   1483   1484     1  0.0000000  0.6508444  3
   1472   1471   1483   1485     1  0.0000000  0.6508444  3
   1473   1471   1470   1474     1  0.0000000  0.6508444  3
   1473   1471   1470   1477     1  0.0000000  0.6508444  3
   1473   1471   1470   1499     1  0.0000000  0.6508444  3
   1473   1471   1483   1495     1  0.0000000  0.6508444  3
   1473   1471   1483   1484     1  0.0000000  0.6508444  3
   1473   1471   1483   1485     1  0.0000000  0.6508444  3
   1474   1470   1477   1478     1  0.0000000  0.6508444  3
   1474   1470   1477   1479     1  0.0000000  0.6508444  3
   1474   1486   1492   1493     1  0.0000000  0.6508444  3
   1474   1486   1492   1494     1  0.0000000  0.6508444  3
   1475   1474   1470   1477     1  0.0000000  0.6508444  3
   1475   1474   1470   1499     1  0.0000000  0.6508444  3
   1475   1474   1486   1492     1  0.0000000  0.6508444  3
   1475   1474   1486   1487     1  0.0000000  0.6508444  3
   1475   1474   1486   1488     1  0.0000000  0.6508444  3
   1476   1474   1470   1477     1  0.0000000  0.6508444  3
   1476   1474   1470   1499     1  0.0000000  0.6508444  3
   1476   1474   1486   1492     1  0.0000000  0.6508444  3
   1476   1474   1486   1487     1  0.0000000  0.6508444  3
   1476   1474   1486   1488     1  0.0000000  0.6508444  3
   1477   1480   1489   1490     1  0.0000000  0.6508444  3
   1477   1480   1489   1491     1  0.0000000  0.6508444  3
   1478   1477   1470   1499     1  0.0000000  0.6508444  3
   1478   1477   1480   1489     1  0.0000000  0.6508444  3
   1478   1477   1480   1481     1  0.0000000  0.6508444  3
   1478   1477   1480   1482     1  0.0000000  0.6508444  3
   1479   1477   1470   1499     1  0.0000000  0.6508444  3
   1479   1477   1480   1489     1  0.0000000  0.6508444  3
   1479   1477   1480   1481     1  0.0000000  0.6508444  3
   1479   1477   1480   1482     1  0.0000000  0.6508444  3
   1480   1477   1470   1499     1  0.0000000  0.6508444  3
   1481   1480   1489   1498     1  0.0000000  1.0460000  1
   1481   1480   1489   1498     1  0.0000000  0.0000000  3
   1481   1480   1489   1490     1  0.0000000  0.6508444  3
   1481   1480   1489   1491     1  0.0000000  0.6508444  3
   1482   1480   1489   1498     1  0.0000000  1.0460000  1
   1482   1480   1489   1498     1  0.0000000  0.0000000  3
   1482   1480   1489   1490     1  0.0000000  0.6508444  3
   1482   1480   1489   1491     1  0.0000000  0.6508444  3
   1483   1471   1470   1499     1  0.0000000  0.6508444  3
   1484   1483   1495   2767     1  0.0000000  1.0460000  1
   1484   1483   1495   2767     1  0.0000000  0.0000000  3
   1484   1483   1495   1496     1  0.0000000  0.6508444  3
   1484   1483   1495   1497     1  0.0000000  0.6508444  3
   1485   1483   1495   2767     1  0.0000000  1.0460000  1
   1485   1483   1495   2767     1  0.0000000  0.0000000  3
   1485   1483   1495   1496     1  0.0000000  0.6508444  3
   1485   1483   1495   1497     1  0.0000000  0.6508444  3
   1486   1474   1470   1499     1  0.0000000  0.6508444  3
   1487   1486   1492   2744     1  0.0000000  1.0460000  1
   1487   1486   1492   2744     1  0.0000000  0.0000000  3
   1487   1486   1492   1493     1  0.0000000  0.6508444  3
   1487   1486   1492   1494     1  0.0000000  0.6508444  3
   1488   1486   1492   2744     1  0.0000000  1.0460000  1
   1488   1486   1492   2744     1  0.0000000  0.0000000  3
   1488   1486   1492   1493     1  0.0000000  0.6508444  3
   1488   1486   1492   1494     1  0.0000000  0.6508444  3
   1492   2744   2740   2743     1  0.0000000  1.6038667  3
   1493   1492   2744   2740     1  0.0000000  1.6038667  3
   1494   1492   2744   2740     1  0.0000000  1.6038667  3
   1495   2767   2763   2766     1  0.0000000  1.6038667  3
   1496   1495   2767   2763     1  0.0000000  1.6038667  3
   1497   1495   2767   2763     1  0.0000000  1.6038667  3
   1500   1501   1513   1514     1  0.0000000  0.6508444  3
   1500   1501   1513   1515     1  0.0000000  0.6508444  3
   1500   1504   1516   1517     1  0.0000000  0.6508444  3
   1500   1504   1516   1518     1  0.0000000  0.6508444  3
   1500   1507   1510   1511     1  0.0000000  0.6508444  3
   1500   1507   1510   1512     1  0.0000000  0.6508444  3
   1501   1500   1504   1505     1  0.0000000  0.6508444  3
   1501   1500   1504   1506     1  0.0000000  0.6508444  3
   1501   1500   1507   1508     1  0.0000000  0.6508444  3
   1501   1500   1507   1509     1  0.0000000  0.6508444  3
   1501   1513   1525   1526     1  0.0000000  0.6508444  3
   1501   1513   1525   1527     1  0.0000000  0.6508444  3
   1502   1501   1500   1504     1  0.0000000  0.6508444  3
   1502   1501   1500   1507     1  0.0000000  0.6508444  3
   1502   1501   1500   1529     1  0.0000000  0.6508444  3
   1502   1501   1513   1525     1  0.0000000  0.6508444  3
   1502   1501   1513   1514     1  0.0000000  0.6508444  3
   1502   1501   1513   1515     1  0.0000000  0.6508444  3
   1503   1501   1500   1504     1  0.0000000  0.6508444  3
   1503   1501   1500   1507     1  0.0000000  0.6508444  3
   1503   1501   1500   1529     1  0.0000000  0.6508444  3
   1503   1501   1513   1525     1  0.0000000  0.6508444  3
   1503   1501   1513   1514     1  0.0000000  0.6508444  3
   1503   1501   1513   1515     1  0.0000000  0.6508444  3
   1504   1500   1507   1508     1  0.0000000  0.6508444  3
   1504   1500   1507   1509     1  0.0000000  0.6508444  3
   1504   1516   1522   1523     1  0.0000000  0.6508444  3
   1504   1516   1522   1524     1  0.0000000  0.6508444  3
   1505   1504   1500   1507     1  0.0000000  0.6508444  3
   1505   1504   1500   1529     1  0.0000000  0.6508444  3
   1505   1504   1516   1522     1  0.0000000  0.6508444  3
   1505   1504   1516   1517     1  0.0000000  0.6508444  3
   1505   1504   1516   1518     1  0.0000000  0.6508444  3
   1506   1504   1500   1507     1  0.0000000  0.6508444  3
   1506   1504   1500   1529     1  0.0000000  0.6508444  3
   1506   1504   1516   1522     1  0.0000000  0.6508444  3
   1506   1504   1516   1517     1  0.0000000  0.6508444  3
   1506   1504   1516   1518     1  0.0000000  0.6508444  3
   1507   1510   1519   1520     1  0.0000000  0.6508444  3
   1507   1510   1519   1521     1  0.0000000  0.6508444  3
   1508   1507   1500   1529     1  0.0000000  0.6508444  3
   1508   1507   1510   1519     1  0.0000000  0.6508444  3
   1508   1507   1510   1511     1  0.0000000  0.6508444  3
   1508   1507   1510   1512     1  0.0000000  0.6508444  3
   1509   1507   1500   1529     1  0.0000000  0.6508444  3
   1509   1507   1510   1519     1  0.0000000  0.6508444  3
   1509   1507   1510   1511     1  0.0000000  0.6508444  3
   1509   1507   1510   1512     1  0.0000000  0.6508444  3
   1510   1507   1500   1529     1  0.0000000  0.6508444  3
   1511   1510   1519   1528     1  0.0000000  1.0460000  1
   1511   1510   1519   1528     1  0.0000000  0.0000000  3
   1511   1510   1519   1520     1  0.0000000  0.6508444  3
   1511   1510   1519   1521     1  0.0000000  0.6508444  3
   1512   1510   1519   1528     1  0.0000000  1.0460000  1
   1512   1510   1519   1528     1  0.0000000  0.0000000  3
   1512   1510   1519   1520     1  0.0000000  0.6508444  3
   1512   1510   1519   1521     1  0.0000000  0.6508444  3
   1513   1501   1500   1529     1  0.0000000  0.6508444  3
   1514   1513   1525   2813     1  0.0000000  1.0460000  1
   1514   1513   1525   2813     1  0.0000000  0.0000000  3
   1514   1513   1525   1526     1  0.0000000  0.6508444  3
   1514   1513   1525   1527     1  0.0000000  0.6508444  3
   1515   1513   1525   2813     1  0.0000000  1.0460000  1
   1515   1513   1525   2813     1  0.0000000  0.0000000  3
   1515   1513   1525   1526     1  0.0000000  0.6508444  3
   1515   1513   1525   1527     1  0.0000000  0.6508444  3
   1516   1504   1500   1529     1  0.0000000  0.6508444  3
   1517   1516   1522   2790     1  0.0000000  1.0460000  1
   1517   1516   1522   2790     1  0.0000000  0.0000000  3
   1517   1516   1522   1523     1  0.0000000  0.6508444  3
   1517   1516   1522   1524     1  0.0000000  0.6508444  3
   1518   1516   1522   2790     1  0.0000000  1.0460000  1
   1518   1516   1522   2790     1  0.0000000  0.0000000  3
   1518   1516   1522   1523     1  0.0000000  0.6508444  3
   1518   1516   1522   1524     1  0.0000000  0.6508444  3
   1522   2790   2786   2789     1  0.0000000  1.6038667  3
   1523   1522   2790   2786     1  0.0000000  1.6038667  3
   1524   1522   2790   2786     1  0.0000000  1.6038667  3
   1525   2813   2809   2812     1  0.0000000  1.6038667  3
   1526   1525   2813   2809     1  0.0000000  1.6038667  3
   1527   1525   2813   2809     1  0.0000000  1.6038667  3
   1530   1531   1543   1544     1  0.0000000  0.6508444  3
   1530   1531   1543   1545     1  0.0000000  0.6508444  3
   1530   1534   1546   1547     1  0.0000000  0.6508444  3
   1530   1534   1546   1548     1  0.0000000  0.6508444  3
   1530   1537   1540   1541     1  0.0000000  0.6508444  3
   1530   1537   1540   1542     1  0.0000000  0.6508444  3
   1531   1530   1534   1535     1  0.0000000  0.6508444  3
   1531   1530   1534   1536     1  0.0000000  0.6508444  3
   1531   1530   1537   1538     1  0.0000000  0.6508444  3
   1531   1530   1537   1539     1  0.0000000  0.6508444  3
   1531   1543   1555   1556     1  0.0000000  0.6508444  3
   1531   1543   1555   1557     1  0.0000000  0.6508444  3
   1532   1531   1530   1534     1  0.0000000  0.6508444  3
   1532   1531   1530   1537     1  0.0000000  0.6508444  3
   1532   1531   1530   1559     1  0.0000000  0.6508444  3
   1532   1531   1543   1555     1  0.0000000  0.6508444  3
   1532   1531   1543   1544     1  0.0000000  0.6508444  3
   1532   1531   1543   1545     1  0.0000000  0.6508444  3
   1533   1531   1530   1534     1  0.0000000  0.6508444  3
   1533   1531   1530   1537     1  0.0000000  0.6508444  3
   1533   1531   1530   1559     1  0.0000000  0.6508444  3
   1533   1531   1543   1555     1  0.0000000  0.6508444  3
   1533   1531   1543   1544     1  0.0000000  0.6508444  3
   1533   1531   1543   1545     1  0.0000000  0.6508444  3
   1534   1530   1537   1538     1  0.0000000  0.6508444  3
   1534   1530   1537   1539     1  0.0000000  0.6508444  3
   1534   1546   1552   1553     1  0.0000000  0.6508444  3
   1534   1546   1552   1554     1  0.0000000  0.6508444  3
   1535   1534   1530   1537     1  0.0000000  0.6508444  3
   1535   1534   1530   1559     1  0.0000000  0.6508444  3
   1535   1534   1546   1552     1  0.0000000  0.6508444  3
   1535   1534   1546   1547     1  0.0000000  0.6508444  3
   1535   1534   1546   1548     1  0.0000000  0.6508444  3
   1536   1534   1530   1537     1  0.0000000  0.6508444  3
   1536   1534   1530   1559     1  0.0000000  0.6508444  3
   1536   1534   1546   1552     1  0.0000000  0.6508444  3
   1536   1534   1546   1547     1  0.0000000  0.6508444  3
   1536   1534   1546   1548     1  0.0000000  0.6508444  3
   1537   1540   1549   1550     1  0.0000000  0.6508444  3
   1537   1540   1549   1551     1  0.0000000  0.6508444  3
   1538   1537   1530   1559     1  0.0000000  0.6508444  3
   1538   1537   1540   1549     1  0.0000000  0.6508444  3
   1538   1537   1540   1541     1  0.0000000  0.6508444  3
   1538   1537   1540   1542     1  0.0000000  0.6508444  3
   1539   1537   1530   1559     1  0.0000000  0.6508444  3
   1539   1537   1540   1549     1  0.0000000  0.6508444  3
   1539   1537   1540   1541     1  0.0000000  0.6508444  3
   1539   1537   1540   1542     1  0.0000000  0.6508444  3
   1540   1537   1530   1559     1  0.0000000  0.6508444  3
   1541   1540   1549   1558     1  0.0000000  1.0460000  1
   1541   1540   1549   1558     1  0.0000000  0.0000000  3
   1541   1540   1549   1550     1  0.0000000  0.6508444  3
   1541   1540   1549   1551     1  0.0000000  0.6508444  3
   1542   1540   1549   1558     1  0.0000000  1.0460000  1
   1542   1540   1549   1558     1  0.0000000  0.0000000  3
   1542   1540   1549   1550     1  0.0000000  0.6508444  3
   1542   1540   1549   1551     1  0.0000000  0.6508444  3
   1543   1531   1530   1559     1  0.0000000  0.6508444  3
   1544   1543   1555   2859     1  0.0000000  1.0460000  1
   1544   1543   1555   2859     1  0.0000000  0.0000000  3
   1544   1543   1555   1556     1  0.0000000  0.6508444  3
   1544   1543   1555   1557     1  0.0000000  0.6508444  3
   1545   1543   1555   2859     1  0.0000000  1.0460000  1
   1545   1543   1555   2859     1  0.0000000  0.0000000  3
   1545   1543   1555   1556     1  0.0000000  0.6508444  3
   1545   1543   1555   1557     1  0.0000000  0.6508444  3
   1546   1534   1530   1559     1  0.0000000  0.6508444  3
   1547   1546   1552   2836     1  0.0000000  1.0460000  1
   1547   1546   1552   2836     1  0.0000000  0.0000000  3
   1547   1546   1552   1553     1  0.0000000  0.6508444  3
   1547   1546   1552   1554     1  0.0000000  0.6508444  3
   1548   1546   1552   2836     1  0.0000000  1.0460000  1
   1548   1546   1552   2836     1  0.0000000  0.0000000  3
   1548   1546   1552   1553     1  0.0000000  0.6508444  3
   1548   1546   1552   1554     1  0.0000000  0.6508444  3
   1552   2836   2832   2835     1  0.0000000  1.6038667  3
   1553   1552   2836   2832     1  0.0000000  1.6038667  3
   1554   1552   2836   2832     1  0.0000000  1.6038667  3
   1555   2859   2855   2858     1  0.0000000  1.6038667  3
   1556   1555   2859   2855     1  0.0000000  1.6038667  3
   1557   1555   2859   2855     1  0.0000000  1.6038667  3
   1560   1561   1573   1574     1  0.0000000  0.6508444  3
   1560   1561   1573   1575     1  0.0000000  0.6508444  3
   1560   1564   1576   1577     1  0.0000000  0.6508444  3
   1560   1564   1576   1578     1  0.0000000  0.6508444  3
   1560   1567   1570   1571     1  0.0000000  0.6508444  3
   1560   1567   1570   1572     1  0.0000000  0.6508444  3
   1561   1560   1564   1565     1  0.0000000  0.6508444  3
   1561   1560   1564   1566     1  0.0000000  0.6508444  3
   1561   1560   1567   1568     1  0.0000000  0.6508444  3
   1561   1560   1567   1569     1  0.0000000  0.6508444  3
   1561   1573   1585   1586     1  0.0000000  0.6508444  3
   1561   1573   1585   1587     1  0.0000000  0.6508444  3
   1562   1561   1560   1564     1  0.0000000  0.6508444  3
   1562   1561   1560   1567     1  0.0000000  0.6508444  3
   1562   1561   1560   1589     1  0.0000000  0.6508444  3
   1562   1561   1573   1585     1  0.0000000  0.6508444  3
   1562   1561   1573   1574     1  0.0000000  0.6508444  3
   1562   1561   1573   1575     1  0.0000000  0.6508444  3
   1563   1561   1560   1564     1  0.0000000  0.6508444  3
   1563   1561   1560   1567     1  0.0000000  0.6508444  3
   1563   1561   1560   1589     1  0.0000000  0.6508444  3
   1563   1561   1573   1585     1  0.0000000  0.6508444  3
   1563   1561   1573   1574     1  0.0000000  0.6508444  3
   1563   1561   1573   1575     1  0.0000000  0.6508444  3
   1564   1560   1567   1568     1  0.0000000  0.6508444  3
   1564   1560   1567   1569     1  0.0000000  0.6508444  3
   1564   1576   1582   1583     1  0.0000000  0.6508444  3
   1564   1576   1582   1584     1  0.0000000  0.6508444  3
   1565   1564   1560   1567     1  0.0000000  0.6508444  3
   1565   1564   1560   1589     1  0.0000000  0.6508444  3
   1565   1564   1576   1582     1  0.0000000  0.6508444  3
   1565   1564   1576   1577     1  0.0000000  0.6508444  3
   1565   1564   1576   1578     1  0.0000000  0.6508444  3
   1566   1564   1560   1567     1  0.0000000  0.6508444  3
   1566   1564   1560   1589     1  0.0000000  0.6508444  3
   1566   1564   1576   1582     1  0.0000000  0.6508444  3
   1566   1564   1576   1577     1  0.0000000  0.6508444  3
   1566   1564   1576   1578     1  0.0000000  0.6508444  3
   1567   1570   1579   1580     1  0.0000000  0.6508444  3
   1567   1570   1579   1581     1  0.0000000  0.6508444  3
   1568   1567   1560   1589     1  0.0000000  0.6508444  3
   1568   1567   1570   1579     1  0.0000000  0.6508444  3
   1568   1567   1570   1571     1  0.0000000  0.6508444  3
   1568   1567   1570   1572     1  0.0000000  0.6508444  3
   1569   1567   1560   1589     1  0.0000000  0.6508444  3
   1569   1567   1570   1579     1  0.0000000  0.6508444  3
   1569   1567   1570   1571     1  0.0000000  0.6508444  3
   1569   1567   1570   1572     1  0.0000000  0.6508444  3
   1570   1567   1560   1589     1  0.0000000  0.6508444  3
   1571   1570   1579   1588     1  0.0000000  1.0460000  1
   1571   1570   1579   1588     1  0.0000000  0.0000000  3
   1571   1570   1579   1580     1  0.0000000  0.6508444  3
   1571   1570   1579   1581     1  0.0000000  0.6508444  3
   1572   1570   1579   1588     1  0.0000000  1.0460000  1
   1572   1570   1579   1588     1  0.0000000  0.0000000  3
   1572   1570   1579   1580     1  0.0000000  0.6508444  3
   1572   1570   1579   1581     1  0.0000000  0.6508444  3
   1573   1561   1560   1589     1  0.0000000  0.6508444  3
   1574   1573   1585   2905     1  0.0000000  1.0460000  1
   1574   1573   1585   2905     1  0.0000000  0.0000000  3
   1574   1573   1585   1586     1  0.0000000  0.6508444  3
   1574   1573   1585   1587     1  0.0000000  0.6508444  3
   1575   1573   1585   2905     1  0.0000000  1.0460000  1
   1575   1573   1585   2905     1  0.0000000  0.0000000  3
   1575   1573   1585   1586     1  0.0000000  0.6508444  3
   1575   1573   1585   1587     1  0.0000000  0.6508444  3
   1576   1564   1560   1589     1  0.0000000  0.6508444  3
   1577   1576   1582   2882     1  0.0000000  1.0460000  1
   1577   1576   1582   2882     1  0.0000000  0.0000000  3
   1577   1576   1582   1583     1  0.0000000  0.6508444  3
   1577   1576   1582   1584     1  0.0000000  0.6508444  3
   1578   1576   1582   2882     1  0.0000000  1.0460000  1
   1578   1576   1582   2882     1  0.0000000  0.0000000  3
   1578   1576   1582   1583     1  0.0000000  0.6508444  3
   1578   1576   1582   1584     1  0.0000000  0.6508444  3
   1582   2882   2878   2881     1  0.0000000  1.6038667  3
   1583   1582   2882   2878     1  0.0000000  1.6038667  3
   1584   1582   2882   2878     1  0.0000000  1.6038667  3
   1585   2905   2901   2904     1  0.0000000  1.6038667  3
   1586   1585   2905   2901     1  0.0000000  1.6038667  3
   1587   1585   2905   2901     1  0.0000000  1.6038667  3
   1590   1591   1603   1604     1  0.0000000  0.6508444  3
   1590   1591   1603   1605     1  0.0000000  0.6508444  3
   1590   1594   1606   1607     1  0.0000000  0.6508444  3
   1590   1594   1606   1608     1  0.0000000  0.6508444  3
   1590   1597   1600   1601     1  0.0000000  0.6508444  3
   1590   1597   1600   1602     1  0.0000000  0.6508444  3
   1591   1590   1594   1595     1  0.0000000  0.6508444  3
   1591   1590   1594   1596     1  0.0000000  0.6508444  3
   1591   1590   1597   1598     1  0.0000000  0.6508444  3
   1591   1590   1597   1599     1  0.0000000  0.6508444  3
   1591   1603   1615   1616     1  0.0000000  0.6508444  3
   1591   1603   1615   1617     1  0.0000000  0.6508444  3
   1592   1591   1590   1594     1  0.0000000  0.6508444  3
   1592   1591   1590   1597     1  0.0000000  0.6508444  3
   1592   1591   1590   1619     1  0.0000000  0.6508444  3
   1592   1591   1603   1615     1  0.0000000  0.6508444  3
   1592   1591   1603   1604     1  0.0000000  0.6508444  3
   1592   1591   1603   1605     1  0.0000000  0.6508444  3
   1593   1591   1590   1594     1  0.0000000  0.6508444  3
   1593   1591   1590   1597     1  0.0000000  0.6508444  3
   1593   1591   1590   1619     1  0.0000000  0.6508444  3
   1593   1591   1603   1615     1  0.0000000  0.6508444  3
   1593   1591   1603   1604     1  0.0000000  0.6508444  3
   1593   1591   1603   1605     1  0.0000000  0.6508444  3
   1594   1590   1597   1598     1  0.0000000  0.6508444  3
   1594   1590   1597   1599     1  0.0000000  0.6508444  3
   1594   1606   1612   1613     1  0.0000000  0.6508444  3
   1594   1606   1612   1614     1  0.0000000  0.6508444  3
   1595   1594   1590   1597     1  0.0000000  0.6508444  3
   1595   1594   1590   1619     1  0.0000000  0.6508444  3
   1595   1594   1606   1612     1  0.0000000  0.6508444  3
   1595   1594   1606   1607     1  0.0000000  0.6508444  3
   1595   1594   1606   1608     1  0.0000000  0.6508444  3
   1596   1594   1590   1597     1  0.0000000  0.6508444  3
   1596   1594   1590   1619     1  0.0000000  0.6508444  3
   1596   1594   1606   1612     1  0.0000000  0.6508444  3
   1596   1594   1606   1607     1  0.0000000  0.6508444  3
   1596   1594   1606   1608     1  0.0000000  0.6508444  3
   1597   1600   1609   1610     1  0.0000000  0.6508444  3
   1597   1600   1609   1611     1  0.0000000  0.6508444  3
   1598   1597   1590   1619     1  0.0000000  0.6508444  3
   1598   1597   1600   1609     1  0.0000000  0.6508444  3
   1598   1597   1600   1601     1  0.0000000  0.6508444  3
   1598   1597   1600   1602     1  0.0000000  0.6508444  3
   1599   1597   1590   1619     1  0.0000000  0.6508444  3
   1599   1597   1600   1609     1  0.0000000  0.6508444  3
   1599   1597   1600   1601     1  0.0000000  0.6508444  3
   1599   1597   1600   1602     1  0.0000000  0.6508444  3
   1600   1597   1590   1619     1  0.0000000  0.6508444  3
   1601   1600   1609   1618     1  0.0000000  1.0460000  1
   1601   1600   1609   1618     1  0.0000000  0.0000000  3
   1601   1600   1609   1610     1  0.0000000  0.6508444  3
   1601   1600   1609   1611     1  0.0000000  0.6508444  3
   1602   1600   1609   1618     1  0.0000000  1.0460000  1
   1602   1600   1609   1618     1  0.0000000  0.0000000  3
   1602   1600   1609   1610     1  0.0000000  0.6508444  3
   1602   1600   1609   1611     1  0.0000000  0.6508444  3
   1603   1591   1590   1619     1  0.0000000  0.6508444  3
   1604   1603   1615   2951     1  0.0000000  1.0460000  1
   1604   1603   1615   2951     1  0.0000000  0.0000000  3
   1604   1603   1615   1616     1  0.0000000  0.6508444  3
   1604   1603   1615   1617     1  0.0000000  0.6508444  3
   1605   1603   1615   2951     1  0.0000000  1.0460000  1
   1605   1603   1615   2951     1  0.0000000  0.0000000  3
   1605   1603   1615   1616     1  0.0000000  0.6508444  3
   1605   1603   1615   1617     1  0.0000000  0.6508444  3
   1606   1594   1590   1619     1  0.0000000  0.6508444  3
   1607   1606   1612   2928     1  0.0000000  1.0460000  1
   1607   1606   1612   2928     1  0.0000000  0.0000000  3
   1607   1606   1612   1613     1  0.0000000  0.6508444  3
   1607   1606   1612   1614     1  0.0000000  0.6508444  3
   1608   1606   1612   2928     1  0.0000000  1.0460000  1
   1608   1606   1612   2928     1  0.0000000  0.0000000  3
   1608   1606   1612   1613     1  0.0000000  0.6508444  3
   1608   1606   1612   1614     1  0.0000000  0.6508444  3
   1612   2928   2924   2927     1  0.0000000  1.6038667  3
   1613   1612   2928   2924     1  0.0000000  1.6038667  3
   1614   1612   2928   2924     1  0.0000000  1.6038667  3
   1615   2951   2947   2950     1  0.0000000  1.6038667  3
   1616   1615   2951   2947     1  0.0000000  1.6038667  3
   1617   1615   2951   2947     1  0.0000000  1.6038667  3
   1620   1621   1633   1634     1  0.0000000  0.6508444  3
   1620   1621   1633   1635     1  0.0000000  0.6508444  3
   1620   1624   1636   1637     1  0.0000000  0.6508444  3
   1620   1624   1636   1638     1  0.0000000  0.6508444  3
   1620   1627   1630   1631     1  0.0000000  0.6508444  3
   1620   1627   1630   1632     1  0.0000000  0.6508444  3
   1621   1620   1624   1625     1  0.0000000  0.6508444  3
   1621   1620   1624   1626     1  0.0000000  0.6508444  3
   1621   1620   1627   1628     1  0.0000000  0.6508444  3
   1621   1620   1627   1629     1  0.0000000  0.6508444  3
   1621   1633   1645   1646     1  0.0000000  0.6508444  3
   1621   1633   1645   1647     1  0.0000000  0.6508444  3
   1622   1621   1620   1624     1  0.0000000  0.6508444  3
   1622   1621   1620   1627     1  0.0000000  0.6508444  3
   1622   1621   1620   1649     1  0.0000000  0.6508444  3
   1622   1621   1633   1645     1  0.0000000  0.6508444  3
   1622   1621   1633   1634     1  0.0000000  0.6508444  3
   1622   1621   1633   1635     1  0.0000000  0.6508444  3
   1623   1621   1620   1624     1  0.0000000  0.6508444  3
   1623   1621   1620   1627     1  0.0000000  0.6508444  3
   1623   1621   1620   1649     1  0.0000000  0.6508444  3
   1623   1621   1633   1645     1  0.0000000  0.6508444  3
   1623   1621   1633   1634     1  0.0000000  0.6508444  3
   1623   1621   1633   1635     1  0.0000000  0.6508444  3
   1624   1620   1627   1628     1  0.0000000  0.6508444  3
   1624   1620   1627   1629     1  0.0000000  0.6508444  3
   1624   1636   1642   1643     1  0.0000000  0.6508444  3
   1624   1636   1642   1644     1  0.0000000  0.6508444  3
   1625   1624   1620   1627     1  0.0000000  0.6508444  3
   1625   1624   1620   1649     1  0.0000000  0.6508444  3
   1625   1624   1636   1642     1  0.0000000  0.6508444  3
   1625   1624   1636   1637     1  0.0000000  0.6508444  3
   1625   1624   1636   1638     1  0.0000000  0.6508444  3
   1626   1624   1620   1627     1  0.0000000  0.6508444  3
   1626   1624   1620   1649     1  0.0000000  0.6508444  3
   1626   1624   1636   1642     1  0.0000000  0.6508444  3
   1626   1624   1636   1637     1  0.0000000  0.6508444  3
   1626   1624   1636   1638     1  0.0000000  0.6508444  3
   1627   1630   1639   1640     1  0.0000000  0.6508444  3
   1627   1630   1639   1641     1  0.0000000  0.6508444  3
   1628   1627   1620   1649     1  0.0000000  0.6508444  3
   1628   1627   1630   1639     1  0.0000000  0.6508444  3
   1628   1627   1630   1631     1  0.0000000  0.6508444  3
   1628   1627   1630   1632     1  0.0000000  0.6508444  3
   1629   1627   1620   1649     1  0.0000000  0.6508444  3
   1629   1627   1630   1639     1  0.0000000  0.6508444  3
   1629   1627   1630   1631     1  0.0000000  0.6508444  3
   1629   1627   1630   1632     1  0.0000000  0.6508444  3
   1630   1627   1620   1649     1  0.0000000  0.6508444  3
   1631   1630   1639   1648     1  0.0000000  1.0460000  1
   1631   1630   1639   1648     1  0.0000000  0.0000000  3
   1631   1630   1639   1640     1  0.0000000  0.6508444  3
   1631   1630   1639   1641     1  0.0000000  0.6508444  3
   1632   1630   1639   1648     1  0.0000000  1.0460000  1
   1632   1630   1639   1648     1  0.0000000  0.0000000  3
   1632   1630   1639   1640     1  0.0000000  0.6508444  3
   1632   1630   1639   1641     1  0.0000000  0.6508444  3
   1633   1621   1620   1649     1  0.0000000  0.6508444  3
   1634   1633   1645   2997     1  0.0000000  1.0460000  1
   1634   1633   1645   2997     1  0.0000000  0.0000000  3
   1634   1633   1645   1646     1  0.0000000  0.6508444  3
   1634   1633   1645   1647     1  0.0000000  0.6508444  3
   1635   1633   1645   2997     1  0.0000000  1.0460000  1
   1635   1633   1645   2997     1  0.0000000  0.0000000  3
   1635   1633   1645   1646     1  0.0000000  0.6508444  3
   1635   1633   1645   1647     1  0.0000000  0.6508444  3
   1636   1624   1620   1649     1  0.0000000  0.6508444  3
   1637   1636   1642   2974     1  0.0000000  1.0460000  1
   1637   1636   1642   2974     1  0.0000000  0.0000000  3
   1637   1636   1642   1643     1  0.0000000  0.6508444  3
   1637   1636   1642   1644     1  0.0000000  0.6508444  3
   1638   1636   1642   2974     1  0.0000000  1.0460000  1
   1638   1636   1642   2974     1  0.0000000  0.0000000  3
   1638   1636   1642   1643     1  0.0000000  0.6508444  3
   1638   1636   1642   1644     1  0.0000000  0.6508444  3
   1642   2974   2970   2973     1  0.0000000  1.6038667  3
   1643   1642   2974   2970     1  0.0000000  1.6038667  3
   1644   1642   2974   2970     1  0.0000000  1.6038667  3
   1645   2997   2993   2996     1  0.0000000  1.6038667  3
   1646   1645   2997   2993     1  0.0000000  1.6038667  3
   1647   1645   2997   2993     1  0.0000000  1.6038667  3
   1650   1651   1663   1664     1  0.0000000  0.6508444  3
   1650   1651   1663   1665     1  0.0000000  0.6508444  3
   1650   1654   1666   1667     1  0.0000000  0.6508444  3
   1650   1654   1666   1668     1  0.0000000  0.6508444  3
   1650   1657   1660   1661     1  0.0000000  0.6508444  3
   1650   1657   1660   1662     1  0.0000000  0.6508444  3
   1651   1650   1654   1655     1  0.0000000  0.6508444  3
   1651   1650   1654   1656     1  0.0000000  0.6508444  3
   1651   1650   1657   1658     1  0.0000000  0.6508444  3
   1651   1650   1657   1659     1  0.0000000  0.6508444  3
   1651   1663   1675   1676     1  0.0000000  0.6508444  3
   1651   1663   1675   1677     1  0.0000000  0.6508444  3
   1652   1651   1650   1654     1  0.0000000  0.6508444  3
   1652   1651   1650   1657     1  0.0000000  0.6508444  3
   1652   1651   1650   1679     1  0.0000000  0.6508444  3
   1652   1651   1663   1675     1  0.0000000  0.6508444  3
   1652   1651   1663   1664     1  0.0000000  0.6508444  3
   1652   1651   1663   1665     1  0.0000000  0.6508444  3
   1653   1651   1650   1654     1  0.0000000  0.6508444  3
   1653   1651   1650   1657     1  0.0000000  0.6508444  3
   1653   1651   1650   1679     1  0.0000000  0.6508444  3
   1653   1651   1663   1675     1  0.0000000  0.6508444  3
   1653   1651   1663   1664     1  0.0000000  0.6508444  3
   1653   1651   1663   1665     1  0.0000000  0.6508444  3
   1654   1650   1657   1658     1  0.0000000  0.6508444  3
   1654   1650   1657   1659     1  0.0000000  0.6508444  3
   1654   1666   1672   1673     1  0.0000000  0.6508444  3
   1654   1666   1672   1674     1  0.0000000  0.6508444  3
   1655   1654   1650   1657     1  0.0000000  0.6508444  3
   1655   1654   1650   1679     1  0.0000000  0.6508444  3
   1655   1654   1666   1672     1  0.0000000  0.6508444  3
   1655   1654   1666   1667     1  0.0000000  0.6508444  3
   1655   1654   1666   1668     1  0.0000000  0.6508444  3
   1656   1654   1650   1657     1  0.0000000  0.6508444  3
   1656   1654   1650   1679     1  0.0000000  0.6508444  3
   1656   1654   1666   1672     1  0.0000000  0.6508444  3
   1656   1654   1666   1667     1  0.0000000  0.6508444  3
   1656   1654   1666   1668     1  0.0000000  0.6508444  3
   1657   1660   1669   1670     1  0.0000000  0.6508444  3
   1657   1660   1669   1671     1  0.0000000  0.6508444  3
   1658   1657   1650   1679     1  0.0000000  0.6508444  3
   1658   1657   1660   1669     1  0.0000000  0.6508444  3
   1658   1657   1660   1661     1  0.0000000  0.6508444  3
   1658   1657   1660   1662     1  0.0000000  0.6508444  3
   1659   1657   1650   1679     1  0.0000000  0.6508444  3
   1659   1657   1660   1669     1  0.0000000  0.6508444  3
   1659   1657   1660   1661     1  0.0000000  0.6508444  3
   1659   1657   1660   1662     1  0.0000000  0.6508444  3
   1660   1657   1650   1679     1  0.0000000  0.6508444  3
   1661   1660   1669   1678     1  0.0000000  1.0460000  1
   1661   1660   1669   1678     1  0.0000000  0.0000000  3
   1661   1660   1669   1670     1  0.0000000  0.6508444  3
   1661   1660   1669   1671     1  0.0000000  0.6508444  3
   1662   1660   1669   1678     1  0.0000000  1.0460000  1
   1662   1660   1669   1678     1  0.0000000  0.0000000  3
   1662   1660   1669   1670     1  0.0000000  0.6508444  3
   1662   1660   1669   1671     1  0.0000000  0.6508444  3
   1663   1651   1650   1679     1  0.0000000  0.6508444  3
   1664   1663   1675   3043     1  0.0000000  1.0460000  1
   1664   1663   1675   3043     1  0.0000000  0.0000000  3
   1664   1663   1675   1676     1  0.0000000  0.6508444  3
   1664   1663   1675   1677     1  0.0000000  0.6508444  3
   1665   1663   1675   3043     1  0.0000000  1.0460000  1
   1665   1663   1675   3043     1  0.0000000  0.0000000  3
   1665   1663   1675   1676     1  0.0000000  0.6508444  3
   1665   1663   1675   1677     1  0.0000000  0.6508444  3
   1666   1654   1650   1679     1  0.0000000  0.6508444  3
   1667   1666   1672   3020     1  0.0000000  1.0460000  1
   1667   1666   1672   3020     1  0.0000000  0.0000000  3
   1667   1666   1672   1673     1  0.0000000  0.6508444  3
   1667   1666   1672   1674     1  0.0000000  0.6508444  3
   1668   1666   1672   3020     1  0.0000000  1.0460000  1
   1668   1666   1672   3020     1  0.0000000  0.0000000  3
   1668   1666   1672   1673     1  0.0000000  0.6508444  3
   1668   1666   1672   1674     1  0.0000000  0.6508444  3
   1672   3020   3016   3019     1  0.0000000  1.6038667  3
   1673   1672   3020   3016     1  0.0000000  1.6038667  3
   1674   1672   3020   3016     1  0.0000000  1.6038667  3
   1675   3043   3039   3042     1  0.0000000  1.6038667  3
   1676   1675   3043   3039     1  0.0000000  1.6038667  3
   1677   1675   3043   3039     1  0.0000000  1.6038667  3
   1680   1681   1693   1694     1  0.0000000  0.6508444  3
   1680   1681   1693   1695     1  0.0000000  0.6508444  3
   1680   1684   1696   1697     1  0.0000000  0.6508444  3
   1680   1684   1696   1698     1  0.0000000  0.6508444  3
   1680   1687   1690   1691     1  0.0000000  0.6508444  3
   1680   1687   1690   1692     1  0.0000000  0.6508444  3
   1681   1680   1684   1685     1  0.0000000  0.6508444  3
   1681   1680   1684   1686     1  0.0000000  0.6508444  3
   1681   1680   1687   1688     1  0.0000000  0.6508444  3
   1681   1680   1687   1689     1  0.0000000  0.6508444  3
   1681   1693   1705   1706     1  0.0000000  0.6508444  3
   1681   1693   1705   1707     1  0.0000000  0.6508444  3
   1682   1681   1680   1684     1  0.0000000  0.6508444  3
   1682   1681   1680   1687     1  0.0000000  0.6508444  3
   1682   1681   1680   1709     1  0.0000000  0.6508444  3
   1682   1681   1693   1705     1  0.0000000  0.6508444  3
   1682   1681   1693   1694     1  0.0000000  0.6508444  3
   1682   1681   1693   1695     1  0.0000000  0.6508444  3
   1683   1681   1680   1684     1  0.0000000  0.6508444  3
   1683   1681   1680   1687     1  0.0000000  0.6508444  3
   1683   1681   1680   1709     1  0.0000000  0.6508444  3
   1683   1681   1693   1705     1  0.0000000  0.6508444  3
   1683   1681   1693   1694     1  0.0000000  0.6508444  3
   1683   1681   1693   1695     1  0.0000000  0.6508444  3
   1684   1680   1687   1688     1  0.0000000  0.6508444  3
   1684   1680   1687   1689     1  0.0000000  0.6508444  3
   1684   1696   1702   1703     1  0.0000000  0.6508444  3
   1684   1696   1702   1704     1  0.0000000  0.6508444  3
   1685   1684   1680   1687     1  0.0000000  0.6508444  3
   1685   1684   1680   1709     1  0.0000000  0.6508444  3
   1685   1684   1696   1702     1  0.0000000  0.6508444  3
   1685   1684   1696   1697     1  0.0000000  0.6508444  3
   1685   1684   1696   1698     1  0.0000000  0.6508444  3
   1686   1684   1680   1687     1  0.0000000  0.6508444  3
   1686   1684   1680   1709     1  0.0000000  0.6508444  3
   1686   1684   1696   1702     1  0.0000000  0.6508444  3
   1686   1684   1696   1697     1  0.0000000  0.6508444  3
   1686   1684   1696   1698     1  0.0000000  0.6508444  3
   1687   1690   1699   1700     1  0.0000000  0.6508444  3
   1687   1690   1699   1701     1  0.0000000  0.6508444  3
   1688   1687   1680   1709     1  0.0000000  0.6508444  3
   1688   1687   1690   1699     1  0.0000000  0.6508444  3
   1688   1687   1690   1691     1  0.0000000  0.6508444  3
   1688   1687   1690   1692     1  0.0000000  0.6508444  3
   1689   1687   1680   1709     1  0.0000000  0.6508444  3
   1689   1687   1690   1699     1  0.0000000  0.6508444  3
   1689   1687   1690   1691     1  0.0000000  0.6508444  3
   1689   1687   1690   1692     1  0.0000000  0.6508444  3
   1690   1687   1680   1709     1  0.0000000  0.6508444  3
   1691   1690   1699   1708     1  0.0000000  1.0460000  1
   1691   1690   1699   1708     1  0.0000000  0.0000000  3
   1691   1690   1699   1700     1  0.0000000  0.6508444  3
   1691   1690   1699   1701     1  0.0000000  0.6508444  3
   1692   1690   1699   1708     1  0.0000000  1.0460000  1
   1692   1690   1699   1708     1  0.0000000  0.0000000  3
   1692   1690   1699   1700     1  0.0000000  0.6508444  3
   1692   1690   1699   1701     1  0.0000000  0.6508444  3
   1693   1681   1680   1709     1  0.0000000  0.6508444  3
   1694   1693   1705   3089     1  0.0000000  1.0460000  1
   1694   1693   1705   3089     1  0.0000000  0.0000000  3
   1694   1693   1705   1706     1  0.0000000  0.6508444  3
   1694   1693   1705   1707     1  0.0000000  0.6508444  3
   1695   1693   1705   3089     1  0.0000000  1.0460000  1
   1695   1693   1705   3089     1  0.0000000  0.0000000  3
   1695   1693   1705   1706     1  0.0000000  0.6508444  3
   1695   1693   1705   1707     1  0.0000000  0.6508444  3
   1696   1684   1680   1709     1  0.0000000  0.6508444  3
   1697   1696   1702   3066     1  0.0000000  1.0460000  1
   1697   1696   1702   3066     1  0.0000000  0.0000000  3
   1697   1696   1702   1703     1  0.0000000  0.6508444  3
   1697   1696   1702   1704     1  0.0000000  0.6508444  3
   1698   1696   1702   3066     1  0.0000000  1.0460000  1
   1698   1696   1702   3066     1  0.0000000  0.0000000  3
   1698   1696   1702   1703     1  0.0000000  0.6508444  3
   1698   1696   1702   1704     1  0.0000000  0.6508444  3
   1702   3066   3062   3065     1  0.0000000  1.6038667  3
   1703   1702   3066   3062     1  0.0000000  1.6038667  3
   1704   1702   3066   3062     1  0.0000000  1.6038667  3
   1705   3089   3085   3088     1  0.0000000  1.6038667  3
   1706   1705   3089   3085     1  0.0000000  1.6038667  3
   1707   1705   3089   3085     1  0.0000000  1.6038667  3
   1710   1711   1723   1724     1  0.0000000  0.6508444  3
   1710   1711   1723   1725     1  0.0000000  0.6508444  3
   1710   1714   1726   1727     1  0.0000000  0.6508444  3
   1710   1714   1726   1728     1  0.0000000  0.6508444  3
   1710   1717   1720   1721     1  0.0000000  0.6508444  3
   1710   1717   1720   1722     1  0.0000000  0.6508444  3
   1711   1710   1714   1715     1  0.0000000  0.6508444  3
   1711   1710   1714   1716     1  0.0000000  0.6508444  3
   1711   1710   1717   1718     1  0.0000000  0.6508444  3
   1711   1710   1717   1719     1  0.0000000  0.6508444  3
   1711   1723   1735   1736     1  0.0000000  0.6508444  3
   1711   1723   1735   1737     1  0.0000000  0.6508444  3
   1712   1711   1710   1714     1  0.0000000  0.6508444  3
   1712   1711   1710   1717     1  0.0000000  0.6508444  3
   1712   1711   1710   1739     1  0.0000000  0.6508444  3
   1712   1711   1723   1735     1  0.0000000  0.6508444  3
   1712   1711   1723   1724     1  0.0000000  0.6508444  3
   1712   1711   1723   1725     1  0.0000000  0.6508444  3
   1713   1711   1710   1714     1  0.0000000  0.6508444  3
   1713   1711   1710   1717     1  0.0000000  0.6508444  3
   1713   1711   1710   1739     1  0.0000000  0.6508444  3
   1713   1711   1723   1735     1  0.0000000  0.6508444  3
   1713   1711   1723   1724     1  0.0000000  0.6508444  3
   1713   1711   1723   1725     1  0.0000000  0.6508444  3
   1714   1710   1717   1718     1  0.0000000  0.6508444  3
   1714   1710   1717   1719     1  0.0000000  0.6508444  3
   1714   1726   1732   1733     1  0.0000000  0.6508444  3
   1714   1726   1732   1734     1  0.0000000  0.6508444  3
   1715   1714   1710   1717     1  0.0000000  0.6508444  3
   1715   1714   1710   1739     1  0.0000000  0.6508444  3
   1715   1714   1726   1732     1  0.0000000  0.6508444  3
   1715   1714   1726   1727     1  0.0000000  0.6508444  3
   1715   1714   1726   1728     1  0.0000000  0.6508444  3
   1716   1714   1710   1717     1  0.0000000  0.6508444  3
   1716   1714   1710   1739     1  0.0000000  0.6508444  3
   1716   1714   1726   1732     1  0.0000000  0.6508444  3
   1716   1714   1726   1727     1  0.0000000  0.6508444  3
   1716   1714   1726   1728     1  0.0000000  0.6508444  3
   1717   1720   1729   1730     1  0.0000000  0.6508444  3
   1717   1720   1729   1731     1  0.0000000  0.6508444  3
   1718   1717   1710   1739     1  0.0000000  0.6508444  3
   1718   1717   1720   1729     1  0.0000000  0.6508444  3
   1718   1717   1720   1721     1  0.0000000  0.6508444  3
   1718   1717   1720   1722     1  0.0000000  0.6508444  3
   1719   1717   1710   1739     1  0.0000000  0.6508444  3
   1719   1717   1720   1729     1  0.0000000  0.6508444  3
   1719   1717   1720   1721     1  0.0000000  0.6508444  3
   1719   1717   1720   1722     1  0.0000000  0.6508444  3
   1720   1717   1710   1739     1  0.0000000  0.6508444  3
   1721   1720   1729   1738     1  0.0000000  1.0460000  1
   1721   1720   1729   1738     1  0.0000000  0.0000000  3
   1721   1720   1729   1730     1  0.0000000  0.6508444  3
   1721   1720   1729   1731     1  0.0000000  0.6508444  3
   1722   1720   1729   1738     1  0.0000000  1.0460000  1
   1722   1720   1729   1738     1  0.0000000  0.0000000  3
   1722   1720   1729   1730     1  0.0000000  0.6508444  3
   1722   1720   1729   1731     1  0.0000000  0.6508444  3
   1723   1711   1710   1739     1  0.0000000  0.6508444  3
   1724   1723   1735   3135     1  0.0000000  1.0460000  1
   1724   1723   1735   3135     1  0.0000000  0.0000000  3
   1724   1723   1735   1736     1  0.0000000  0.6508444  3
   1724   1723   1735   1737     1  0.0000000  0.6508444  3
   1725   1723   1735   3135     1  0.0000000  1.0460000  1
   1725   1723   1735   3135     1  0.0000000  0.0000000  3
   1725   1723   1735   1736     1  0.0000000  0.6508444  3
   1725   1723   1735   1737     1  0.0000000  0.6508444  3
   1726   1714   1710   1739     1  0.0000000  0.6508444  3
   1727   1726   1732   3112     1  0.0000000  1.0460000  1
   1727   1726   1732   3112     1  0.0000000  0.0000000  3
   1727   1726   1732   1733     1  0.0000000  0.6508444  3
   1727   1726   1732   1734     1  0.0000000  0.6508444  3
   1728   1726   1732   3112     1  0.0000000  1.0460000  1
   1728   1726   1732   3112     1  0.0000000  0.0000000  3
   1728   1726   1732   1733     1  0.0000000  0.6508444  3
   1728   1726   1732   1734     1  0.0000000  0.6508444  3
   1732   3112   3108   3111     1  0.0000000  1.6038667  3
   1733   1732   3112   3108     1  0.0000000  1.6038667  3
   1734   1732   3112   3108     1  0.0000000  1.6038667  3
   1735   3135   3131   3134     1  0.0000000  1.6038667  3
   1736   1735   3135   3131     1  0.0000000  1.6038667  3
   1737   1735   3135   3131     1  0.0000000  1.6038667  3
   1740   1741   1753   1754     1  0.0000000  0.6508444  3
   1740   1741   1753   1755     1  0.0000000  0.6508444  3
   1740   1744   1756   1757     1  0.0000000  0.6508444  3
   1740   1744   1756   1758     1  0.0000000  0.6508444  3
   1740   1747   1750   1751     1  0.0000000  0.6508444  3
   1740   1747   1750   1752     1  0.0000000  0.6508444  3
   1741   1740   1744   1745     1  0.0000000  0.6508444  3
   1741   1740   1744   1746     1  0.0000000  0.6508444  3
   1741   1740   1747   1748     1  0.0000000  0.6508444  3
   1741   1740   1747   1749     1  0.0000000  0.6508444  3
   1741   1753   1765   1766     1  0.0000000  0.6508444  3
   1741   1753   1765   1767     1  0.0000000  0.6508444  3
   1742   1741   1740   1744     1  0.0000000  0.6508444  3
   1742   1741   1740   1747     1  0.0000000  0.6508444  3
   1742   1741   1740   1769     1  0.0000000  0.6508444  3
   1742   1741   1753   1765     1  0.0000000  0.6508444  3
   1742   1741   1753   1754     1  0.0000000  0.6508444  3
   1742   1741   1753   1755     1  0.0000000  0.6508444  3
   1743   1741   1740   1744     1  0.0000000  0.6508444  3
   1743   1741   1740   1747     1  0.0000000  0.6508444  3
   1743   1741   1740   1769     1  0.0000000  0.6508444  3
   1743   1741   1753   1765     1  0.0000000  0.6508444  3
   1743   1741   1753   1754     1  0.0000000  0.6508444  3
   1743   1741   1753   1755     1  0.0000000  0.6508444  3
   1744   1740   1747   1748     1  0.0000000  0.6508444  3
   1744   1740   1747   1749     1  0.0000000  0.6508444  3
   1744   1756   1762   1763     1  0.0000000  0.6508444  3
   1744   1756   1762   1764     1  0.0000000  0.6508444  3
   1745   1744   1740   1747     1  0.0000000  0.6508444  3
   1745   1744   1740   1769     1  0.0000000  0.6508444  3
   1745   1744   1756   1762     1  0.0000000  0.6508444  3
   1745   1744   1756   1757     1  0.0000000  0.6508444  3
   1745   1744   1756   1758     1  0.0000000  0.6508444  3
   1746   1744   1740   1747     1  0.0000000  0.6508444  3
   1746   1744   1740   1769     1  0.0000000  0.6508444  3
   1746   1744   1756   1762     1  0.0000000  0.6508444  3
   1746   1744   1756   1757     1  0.0000000  0.6508444  3
   1746   1744   1756   1758     1  0.0000000  0.6508444  3
   1747   1750   1759   1760     1  0.0000000  0.6508444  3
   1747   1750   1759   1761     1  0.0000000  0.6508444  3
   1748   1747   1740   1769     1  0.0000000  0.6508444  3
   1748   1747   1750   1759     1  0.0000000  0.6508444  3
   1748   1747   1750   1751     1  0.0000000  0.6508444  3
   1748   1747   1750   1752     1  0.0000000  0.6508444  3
   1749   1747   1740   1769     1  0.0000000  0.6508444  3
   1749   1747   1750   1759     1  0.0000000  0.6508444  3
   1749   1747   1750   1751     1  0.0000000  0.6508444  3
   1749   1747   1750   1752     1  0.0000000  0.6508444  3
   1750   1747   1740   1769     1  0.0000000  0.6508444  3
   1751   1750   1759   1768     1  0.0000000  1.0460000  1
   1751   1750   1759   1768     1  0.0000000  0.0000000  3
   1751   1750   1759   1760     1  0.0000000  0.6508444  3
   1751   1750   1759   1761     1  0.0000000  0.6508444  3
   1752   1750   1759   1768     1  0.0000000  1.0460000  1
   1752   1750   1759   1768     1  0.0000000  0.0000000  3
   1752   1750   1759   1760     1  0.0000000  0.6508444  3
   1752   1750   1759   1761     1  0.0000000  0.6508444  3
   1753   1741   1740   1769     1  0.0000000  0.6508444  3
   1754   1753   1765   3181     1  0.0000000  1.0460000  1
   1754   1753   1765   3181     1  0.0000000  0.0000000  3
   1754   1753   1765   1766     1  0.0000000  0.6508444  3
   1754   1753   1765   1767     1  0.0000000  0.6508444  3
   1755   1753   1765   3181     1  0.0000000  1.0460000  1
   1755   1753   1765   3181     1  0.0000000  0.0000000  3
   1755   1753   1765   1766     1  0.0000000  0.6508444  3
   1755   1753   1765   1767     1  0.0000000  0.6508444  3
   1756   1744   1740   1769     1  0.0000000  0.6508444  3
   1757   1756   1762   3158     1  0.0000000  1.0460000  1
   1757   1756   1762   3158     1  0.0000000  0.0000000  3
   1757   1756   1762   1763     1  0.0000000  0.6508444  3
   1757   1756   1762   1764     1  0.0000000  0.6508444  3
   1758   1756   1762   3158     1  0.0000000  1.0460000  1
   1758   1756   1762   3158     1  0.0000000  0.0000000  3
   1758   1756   1762   1763     1  0.0000000  0.6508444  3
   1758   1756   1762   1764     1  0.0000000  0.6508444  3
   1762   3158   3154   3157     1  0.0000000  1.6038667  3
   1763   1762   3158   3154     1  0.0000000  1.6038667  3
   1764   1762   3158   3154     1  0.0000000  1.6038667  3
   1765   3181   3177   3180     1  0.0000000  1.6038667  3
   1766   1765   3181   3177     1  0.0000000  1.6038667  3
   1767   1765   3181   3177     1  0.0000000  1.6038667  3
   1770   1771   1783   1784     1  0.0000000  0.6508444  3
   1770   1771   1783   1785     1  0.0000000  0.6508444  3
   1770   1774   1786   1787     1  0.0000000  0.6508444  3
   1770   1774   1786   1788     1  0.0000000  0.6508444  3
   1770   1777   1780   1781     1  0.0000000  0.6508444  3
   1770   1777   1780   1782     1  0.0000000  0.6508444  3
   1771   1770   1774   1775     1  0.0000000  0.6508444  3
   1771   1770   1774   1776     1  0.0000000  0.6508444  3
   1771   1770   1777   1778     1  0.0000000  0.6508444  3
   1771   1770   1777   1779     1  0.0000000  0.6508444  3
   1771   1783   1795   1796     1  0.0000000  0.6508444  3
   1771   1783   1795   1797     1  0.0000000  0.6508444  3
   1772   1771   1770   1774     1  0.0000000  0.6508444  3
   1772   1771   1770   1777     1  0.0000000  0.6508444  3
   1772   1771   1770   1799     1  0.0000000  0.6508444  3
   1772   1771   1783   1795     1  0.0000000  0.6508444  3
   1772   1771   1783   1784     1  0.0000000  0.6508444  3
   1772   1771   1783   1785     1  0.0000000  0.6508444  3
   1773   1771   1770   1774     1  0.0000000  0.6508444  3
   1773   1771   1770   1777     1  0.0000000  0.6508444  3
   1773   1771   1770   1799     1  0.0000000  0.6508444  3
   1773   1771   1783   1795     1  0.0000000  0.6508444  3
   1773   1771   1783   1784     1  0.0000000  0.6508444  3
   1773   1771   1783   1785     1  0.0000000  0.6508444  3
   1774   1770   1777   1778     1  0.0000000  0.6508444  3
   1774   1770   1777   1779     1  0.0000000  0.6508444  3
   1774   1786   1792   1793     1  0.0000000  0.6508444  3
   1774   1786   1792   1794     1  0.0000000  0.6508444  3
   1775   1774   1770   1777     1  0.0000000  0.6508444  3
   1775   1774   1770   1799     1  0.0000000  0.6508444  3
   1775   1774   1786   1792     1  0.0000000  0.6508444  3
   1775   1774   1786   1787     1  0.0000000  0.6508444  3
   1775   1774   1786   1788     1  0.0000000  0.6508444  3
   1776   1774   1770   1777     1  0.0000000  0.6508444  3
   1776   1774   1770   1799     1  0.0000000  0.6508444  3
   1776   1774   1786   1792     1  0.0000000  0.6508444  3
   1776   1774   1786   1787     1  0.0000000  0.6508444  3
   1776   1774   1786   1788     1  0.0000000  0.6508444  3
   1777   1780   1789   1790     1  0.0000000  0.6508444  3
   1777   1780   1789   1791     1  0.0000000  0.6508444  3
   1778   1777   1770   1799     1  0.0000000  0.6508444  3
   1778   1777   1780   1789     1  0.0000000  0.6508444  3
   1778   1777   1780   1781     1  0.0000000  0.6508444  3
   1778   1777   1780   1782     1  0.0000000  0.6508444  3
   1779   1777   1770   1799     1  0.0000000  0.6508444  3
   1779   1777   1780   1789     1  0.0000000  0.6508444  3
   1779   1777   1780   1781     1  0.0000000  0.6508444  3
   1779   1777   1780   1782     1  0.0000000  0.6508444  3
   1780   1777   1770   1799     1  0.0000000  0.6508444  3
   1781   1780   1789   1798     1  0.0000000  1.0460000  1
   1781   1780   1789   1798     1  0.0000000  0.0000000  3
   1781   1780   1789   1790     1  0.0000000  0.6508444  3
   1781   1780   1789   1791     1  0.0000000  0.6508444  3
   1782   1780   1789   1798     1  0.0000000  1.0460000  1
   1782   1780   1789   1798     1  0.0000000  0.0000000  3
   1782   1780   1789   1790     1  0.0000000  0.6508444  3
   1782   1780   1789   1791     1  0.0000000  0.6508444  3
   1783   1771   1770   1799     1  0.0000000  0.6508444  3
   1784   1783   1795   3227     1  0.0000000  1.0460000  1
   1784   1783   1795   3227     1  0.0000000  0.0000000  3
   1784   1783   1795   1796     1  0.0000000  0.6508444  3
   1784   1783   1795   1797     1  0.0000000  0.6508444  3
   1785   1783   1795   3227     1  0.0000000  1.0460000  1
   1785   1783   1795   3227     1  0.0000000  0.0000000  3
   1785   1783   1795   1796     1  0.0000000  0.6508444  3
   1785   1783   1795   1797     1  0.0000000  0.6508444  3
   1786   1774   1770   1799     1  0.0000000  0.6508444  3
   1787   1786   1792   3204     1  0.0000000  1.0460000  1
   1787   1786   1792   3204     1  0.0000000  0.0000000  3
   1787   1786   1792   1793     1  0.0000000  0.6508444  3
   1787   1786   1792   1794     1  0.0000000  0.6508444  3
   1788   1786   1792   3204     1  0.0000000  1.0460000  1
   1788   1786   1792   3204     1  0.0000000  0.0000000  3
   1788   1786   1792   1793     1  0.0000000  0.6508444  3
   1788   1786   1792   1794     1  0.0000000  0.6508444  3
   1792   3204   3200   3203     1  0.0000000  1.6038667  3
   1793   1792   3204   3200     1  0.0000000  1.6038667  3
   1794   1792   3204   3200     1  0.0000000  1.6038667  3
   1795   3227   3223   3226     1  0.0000000  1.6038667  3
   1796   1795   3227   3223     1  0.0000000  1.6038667  3
   1797   1795   3227   3223     1  0.0000000  1.6038667  3
   1800   1801   1813   1814     1  0.0000000  0.6508444  3
   1800   1801   1813   1815     1  0.0000000  0.6508444  3
   1800   1804   1816   1817     1  0.0000000  0.6508444  3
   1800   1804   1816   1818     1  0.0000000  0.6508444  3
   1800   1807   1810   1811     1  0.0000000  0.6508444  3
   1800   1807   1810   1812     1  0.0000000  0.6508444  3
   1801   1800   1804   1805     1  0.0000000  0.6508444  3
   1801   1800   1804   1806     1  0.0000000  0.6508444  3
   1801   1800   1807   1808     1  0.0000000  0.6508444  3
   1801   1800   1807   1809     1  0.0000000  0.6508444  3
   1801   1813   1825   1826     1  0.0000000  0.6508444  3
   1801   1813   1825   1827     1  0.0000000  0.6508444  3
   1802   1801   1800   1804     1  0.0000000  0.6508444  3
   1802   1801   1800   1807     1  0.0000000  0.6508444  3
   1802   1801   1800   1829     1  0.0000000  0.6508444  3
   1802   1801   1813   1825     1  0.0000000  0.6508444  3
   1802   1801   1813   1814     1  0.0000000  0.6508444  3
   1802   1801   1813   1815     1  0.0000000  0.6508444  3
   1803   1801   1800   1804     1  0.0000000  0.6508444  3
   1803   1801   1800   1807     1  0.0000000  0.6508444  3
   1803   1801   1800   1829     1  0.0000000  0.6508444  3
   1803   1801   1813   1825     1  0.0000000  0.6508444  3
   1803   1801   1813   1814     1  0.0000000  0.6508444  3
   1803   1801   1813   1815     1  0.0000000  0.6508444  3
   1804   1800   1807   1808     1  0.0000000  0.6508444  3
   1804   1800   1807   1809     1  0.0000000  0.6508444  3
   1804   1816   1822   1823     1  0.0000000  0.6508444  3
   1804   1816   1822   1824     1  0.0000000  0.6508444  3
   1805   1804   1800   1807     1  0.0000000  0.6508444  3
   1805   1804   1800   1829     1  0.0000000  0.6508444  3
   1805   1804   1816   1822     1  0.0000000  0.6508444  3
   1805   1804   1816   1817     1  0.0000000  0.6508444  3
   1805   1804   1816   1818     1  0.0000000  0.6508444  3
   1806   1804   1800   1807     1  0.0000000  0.6508444  3
   1806   1804   1800   1829     1  0.0000000  0.6508444  3
   1806   1804   1816   1822     1  0.0000000  0.6508444  3
   1806   1804   1816   1817     1  0.0000000  0.6508444  3
   1806   1804   1816   1818     1  0.0000000  0.6508444  3
   1807   1810   1819   1820     1  0.0000000  0.6508444  3
   1807   1810   1819   1821     1  0.0000000  0.6508444  3
   1808   1807   1800   1829     1  0.0000000  0.6508444  3
   1808   1807   1810   1819     1  0.0000000  0.6508444  3
   1808   1807   1810   1811     1  0.0000000  0.6508444  3
   1808   1807   1810   1812     1  0.0000000  0.6508444  3
   1809   1807   1800   1829     1  0.0000000  0.6508444  3
   1809   1807   1810   1819     1  0.0000000  0.6508444  3
   1809   1807   1810   1811     1  0.0000000  0.6508444  3
   1809   1807   1810   1812     1  0.0000000  0.6508444  3
   1810   1807   1800   1829     1  0.0000000  0.6508444  3
   1811   1810   1819   1828     1  0.0000000  1.0460000  1
   1811   1810   1819   1828     1  0.0000000  0.0000000  3
   1811   1810   1819   1820     1  0.0000000  0.6508444  3
   1811   1810   1819   1821     1  0.0000000  0.6508444  3
   1812   1810   1819   1828     1  0.0000000  1.0460000  1
   1812   1810   1819   1828     1  0.0000000  0.0000000  3
   1812   1810   1819   1820     1  0.0000000  0.6508444  3
   1812   1810   1819   1821     1  0.0000000  0.6508444  3
   1813   1801   1800   1829     1  0.0000000  0.6508444  3
   1814   1813   1825   3273     1  0.0000000  1.0460000  1
   1814   1813   1825   3273     1  0.0000000  0.0000000  3
   1814   1813   1825   1826     1  0.0000000  0.6508444  3
   1814   1813   1825   1827     1  0.0000000  0.6508444  3
   1815   1813   1825   3273     1  0.0000000  1.0460000  1
   1815   1813   1825   3273     1  0.0000000  0.0000000  3
   1815   1813   1825   1826     1  0.0000000  0.6508444  3
   1815   1813   1825   1827     1  0.0000000  0.6508444  3
   1816   1804   1800   1829     1  0.0000000  0.6508444  3
   1817   1816   1822   3250     1  0.0000000  1.0460000  1
   1817   1816   1822   3250     1  0.0000000  0.0000000  3
   1817   1816   1822   1823     1  0.0000000  0.6508444  3
   1817   1816   1822   1824     1  0.0000000  0.6508444  3
   1818   1816   1822   3250     1  0.0000000  1.0460000  1
   1818   1816   1822   3250     1  0.0000000  0.0000000  3
   1818   1816   1822   1823     1  0.0000000  0.6508444  3
   1818   1816   1822   1824     1  0.0000000  0.6508444  3
   1822   3250   3246   3249     1  0.0000000  1.6038667  3
   1823   1822   3250   3246     1  0.0000000  1.6038667  3
   1824   1822   3250   3246     1  0.0000000  1.6038667  3
   1825   3273   3269   3272     1  0.0000000  1.6038667  3
   1826   1825   3273   3269     1  0.0000000  1.6038667  3
   1827   1825   3273   3269     1  0.0000000  1.6038667  3
   1830   1831   1843   1844     1  0.0000000  0.6508444  3
   1830   1831   1843   1845     1  0.0000000  0.6508444  3
   1830   1834   1846   1847     1  0.0000000  0.6508444  3
   1830   1834   1846   1848     1  0.0000000  0.6508444  3
   1830   1837   1840   1841     1  0.0000000  0.6508444  3
   1830   1837   1840   1842     1  0.0000000  0.6508444  3
   1831   1830   1834   1835     1  0.0000000  0.6508444  3
   1831   1830   1834   1836     1  0.0000000  0.6508444  3
   1831   1830   1837   1838     1  0.0000000  0.6508444  3
   1831   1830   1837   1839     1  0.0000000  0.6508444  3
   1831   1843   1855   1856     1  0.0000000  0.6508444  3
   1831   1843   1855   1857     1  0.0000000  0.6508444  3
   1832   1831   1830   1834     1  0.0000000  0.6508444  3
   1832   1831   1830   1837     1  0.0000000  0.6508444  3
   1832   1831   1830   1859     1  0.0000000  0.6508444  3
   1832   1831   1843   1855     1  0.0000000  0.6508444  3
   1832   1831   1843   1844     1  0.0000000  0.6508444  3
   1832   1831   1843   1845     1  0.0000000  0.6508444  3
   1833   1831   1830   1834     1  0.0000000  0.6508444  3
   1833   1831   1830   1837     1  0.0000000  0.6508444  3
   1833   1831   1830   1859     1  0.0000000  0.6508444  3
   1833   1831   1843   1855     1  0.0000000  0.6508444  3
   1833   1831   1843   1844     1  0.0000000  0.6508444  3
   1833   1831   1843   1845     1  0.0000000  0.6508444  3
   1834   1830   1837   1838     1  0.0000000  0.6508444  3
   1834   1830   1837   1839     1  0.0000000  0.6508444  3
   1834   1846   1852   1853     1  0.0000000  0.6508444  3
   1834   1846   1852   1854     1  0.0000000  0.6508444  3
   1835   1834   1830   1837     1  0.0000000  0.6508444  3
   1835   1834   1830   1859     1  0.0000000  0.6508444  3
   1835   1834   1846   1852     1  0.0000000  0.6508444  3
   1835   1834   1846   1847     1  0.0000000  0.6508444  3
   1835   1834   1846   1848     1  0.0000000  0.6508444  3
   1836   1834   1830   1837     1  0.0000000  0.6508444  3
   1836   1834   1830   1859     1  0.0000000  0.6508444  3
   1836   1834   1846   1852     1  0.0000000  0.6508444  3
   1836   1834   1846   1847     1  0.0000000  0.6508444  3
   1836   1834   1846   1848     1  0.0000000  0.6508444  3
   1837   1840   1849   1850     1  0.0000000  0.6508444  3
   1837   1840   1849   1851     1  0.0000000  0.6508444  3
   1838   1837   1830   1859     1  0.0000000  0.6508444  3
   1838   1837   1840   1849     1  0.0000000  0.6508444  3
   1838   1837   1840   1841     1  0.0000000  0.6508444  3
   1838   1837   1840   1842     1  0.0000000  0.6508444  3
   1839   1837   1830   1859     1  0.0000000  0.6508444  3
   1839   1837   1840   1849     1  0.0000000  0.6508444  3
   1839   1837   1840   1841     1  0.0000000  0.6508444  3
   1839   1837   1840   1842     1  0.0000000  0.6508444  3
   1840   1837   1830   1859     1  0.0000000  0.6508444  3
   1841   1840   1849   1858     1  0.0000000  1.0460000  1
   1841   1840   1849   1858     1  0.0000000  0.0000000  3
   1841   1840   1849   1850     1  0.0000000  0.6508444  3
   1841   1840   1849   1851     1  0.0000000  0.6508444  3
   1842   1840   1849   1858     1  0.0000000  1.0460000  1
   1842   1840   1849   1858     1  0.0000000  0.0000000  3
   1842   1840   1849   1850     1  0.0000000  0.6508444  3
   1842   1840   1849   1851     1  0.0000000  0.6508444  3
   1843   1831   1830   1859     1  0.0000000  0.6508444  3
   1844   1843   1855   3319     1  0.0000000  1.0460000  1
   1844   1843   1855   3319     1  0.0000000  0.0000000  3
   1844   1843   1855   1856     1  0.0000000  0.6508444  3
   1844   1843   1855   1857     1  0.0000000  0.6508444  3
   1845   1843   1855   3319     1  0.0000000  1.0460000  1
   1845   1843   1855   3319     1  0.0000000  0.0000000  3
   1845   1843   1855   1856     1  0.0000000  0.6508444  3
   1845   1843   1855   1857     1  0.0000000  0.6508444  3
   1846   1834   1830   1859     1  0.0000000  0.6508444  3
   1847   1846   1852   3296     1  0.0000000  1.0460000  1
   1847   1846   1852   3296     1  0.0000000  0.0000000  3
   1847   1846   1852   1853     1  0.0000000  0.6508444  3
   1847   1846   1852   1854     1  0.0000000  0.6508444  3
   1848   1846   1852   3296     1  0.0000000  1.0460000  1
   1848   1846   1852   3296     1  0.0000000  0.0000000  3
   1848   1846   1852   1853     1  0.0000000  0.6508444  3
   1848   1846   1852   1854     1  0.0000000  0.6508444  3
   1852   3296   3292   3295     1  0.0000000  1.6038667  3
   1853   1852   3296   3292     1  0.0000000  1.6038667  3
   1854   1852   3296   3292     1  0.0000000  1.6038667  3
   1855   3319   3315   3318     1  0.0000000  1.6038667  3
   1856   1855   3319   3315     1  0.0000000  1.6038667  3
   1857   1855   3319   3315     1  0.0000000  1.6038667  3
   1860   1861   1864   1868     1  0.0000000  0.6508444  3
   1860   1861   1873   1876     1  0.0000000  1.0460000  1
   1860   1861   1873   1876     1  0.0000000  0.6694400  3
   1860   1874   1880   1881     1  0.0000000  1.0460000  1
   1860   1874   1880   1881     1  0.0000000  0.6694400  3
   1860   1882   1866   1869     1  0.0000000  1.6038667  3
   1861   1860   1874   1878     1  0.0000000  0.6508444  3
   1861   1860   1874   1879     1  0.0000000  0.6508444  3
   1861   1864   1865   1867     1  0.0000000  0.6508444  3
   1861   1864   1872   1875     1  0.0000000  1.0460000  1
   1861   1864   1872   1875     1  0.0000000  0.6694400  3
   1862   1860   1861   1864     1  0.0000000  0.6508444  3
   1862   1860   1861   1873     1  0.0000000  1.0460000  1
   1862   1860   1861   1873     1  0.0000000  0.0000000  3
   1862   1860   1861   1863     1  0.0000000  0.6508444  3
   1862   1860   1874   1880     1  0.0000000  1.0460000  1
   1862   1860   1874   1880     1  0.0000000  0.0000000  3
   1862   1860   1874   1878     1  0.0000000  0.6508444  3
   1862   1860   1874   1879     1  0.0000000  0.6508444  3
   1862   1860   1882   1866     1  0.0000000  1.6038667  3
   1863   1861   1860   1874     1  0.0000000  0.6508444  3
   1863   1861   1860   1882     1  0.0000000  1.0460000  1
   1863   1861   1860   1882     1  0.0000000  0.0000000  3
   1863   1861   1864   1865     1  0.0000000  0.6508444  3
   1863   1861   1864   1872     1  0.0000000  1.0460000  1
   1863   1861   1864   1872     1  0.0000000  0.0000000  3
   1863   1861   1864   1868     1  0.0000000  0.6508444  3
   1863   1861   1873   1876     1  0.0000000  0.6973333  3
   1864   1861   1873   1876     1  0.0000000  1.0460000  1
   1864   1861   1873   1876     1  0.0000000  0.6694400  3
   1864   1865   1866   1869     1  0.0000000  0.6508444  3
   1864   1865   1871   1877     1  0.0000000  1.0460000  1
   1864   1865   1871   1877     1  0.0000000  0.6694400  3
   1865   1864   1872   1875     1  0.0000000  1.0460000  1
   1865   1864   1872   1875     1  0.0000000  0.6694400  3
   1866   1865   1864   1868     1  0.0000000  0.6508444  3
   1866   1865   1871   1877     1  0.0000000  1.0460000  1
   1866   1865   1871   1877     1  0.0000000  0.6694400  3
   1867   1865   1864   1872     1  0.0000000  1.0460000  1
   1867   1865   1864   1872     1  0.0000000  0.0000000  3
   1867   1865   1864   1868     1  0.0000000  0.6508444  3
   1867   1865   1866   1870     1  0.0000000  1.0460000  1
   1867   1865   1866   1870     1  0.0000000  0.0000000  3
   1867   1865   1866   1882     1  0.0000000  1.0460000  1
   1867   1865   1866   1882     1  0.0000000  0.0000000  3
   1867   1865   1866   1869     1  0.0000000  0.6508444  3
   1867   1865   1871   1877     1  0.0000000  0.6973333  3
   1868   1864   1861   1873     1  0.0000000  1.0460000  1
   1868   1864   1861   1873     1  0.0000000  0.0000000  3
   1868   1864   1865   1871     1  0.0000000  1.0460000  1
   1868   1864   1865   1871     1  0.0000000  0.0000000  3
   1868   1864   1872   1875     1  0.0000000  0.6973333  3
   1869   1866   1865   1871     1  0.0000000  0.6508444  3
   1878   1874   1860   1882     1  0.0000000  1.0460000  1
   1878   1874   1860   1882     1  0.0000000  0.0000000  3
   1878   1874   1880   1881     1  0.0000000  0.6973333  3
   1879   1874   1860   1882     1  0.0000000  1.0460000  1
   1879   1874   1860   1882     1  0.0000000  0.0000000  3
   1879   1874   1880   1881     1  0.0000000  0.6973333  3
   1883   1884   1887   1891     1  0.0000000  0.6508444  3
   1883   1884   1896   1899     1  0.0000000  1.0460000  1
   1883   1884   1896   1899     1  0.0000000  0.6694400  3
   1883   1897   1903   1904     1  0.0000000  1.0460000  1
   1883   1897   1903   1904     1  0.0000000  0.6694400  3
   1883   1905   1889   1892     1  0.0000000  1.6038667  3
   1884   1887   1888   1890     1  0.0000000  0.6508444  3
   1884   1887   1895   1898     1  0.0000000  1.0460000  1
   1884   1887   1895   1898     1  0.0000000  0.6694400  3
   1884   1883   1897   1901     1  0.0000000  0.6508444  3
   1884   1883   1897   1902     1  0.0000000  0.6508444  3
   1885   1883   1884   1887     1  0.0000000  0.6508444  3
   1885   1883   1884   1896     1  0.0000000  1.0460000  1
   1885   1883   1884   1896     1  0.0000000  0.0000000  3
   1885   1883   1884   1886     1  0.0000000  0.6508444  3
   1885   1883   1897   1903     1  0.0000000  1.0460000  1
   1885   1883   1897   1903     1  0.0000000  0.0000000  3
   1885   1883   1897   1901     1  0.0000000  0.6508444  3
   1885   1883   1897   1902     1  0.0000000  0.6508444  3
   1885   1883   1905   1889     1  0.0000000  1.6038667  3
   1886   1884   1887   1888     1  0.0000000  0.6508444  3
   1886   1884   1887   1895     1  0.0000000  1.0460000  1
   1886   1884   1887   1895     1  0.0000000  0.0000000  3
   1886   1884   1887   1891     1  0.0000000  0.6508444  3
   1886   1884   1896   1899     1  0.0000000  0.6973333  3
   1886   1884   1883   1897     1  0.0000000  0.6508444  3
   1886   1884   1883   1905     1  0.0000000  1.0460000  1
   1886   1884   1883   1905     1  0.0000000  0.0000000  3
   1887   1888   1889   1892     1  0.0000000  0.6508444  3
   1887   1888   1894   1900     1  0.0000000  1.0460000  1
   1887   1888   1894   1900     1  0.0000000  0.6694400  3
   1887   1884   1896   1899     1  0.0000000  1.0460000  1
   1887   1884   1896   1899     1  0.0000000  0.6694400  3
   1888   1887   1895   1898     1  0.0000000  1.0460000  1
   1888   1887   1895   1898     1  0.0000000  0.6694400  3
   1889   1888   1894   1900     1  0.0000000  1.0460000  1
   1889   1888   1894   1900     1  0.0000000  0.6694400  3
   1889   1888   1887   1891     1  0.0000000  0.6508444  3
   1890   1888   1889   1893     1  0.0000000  1.0460000  1
   1890   1888   1889   1893     1  0.0000000  0.0000000  3
   1890   1888   1889   1905     1  0.0000000  1.0460000  1
   1890   1888   1889   1905     1  0.0000000  0.0000000  3
   1890   1888   1889   1892     1  0.0000000  0.6508444  3
   1890   1888   1894   1900     1  0.0000000  0.6973333  3
   1890   1888   1887   1895     1  0.0000000  1.0460000  1
   1890   1888   1887   1895     1  0.0000000  0.0000000  3
   1890   1888   1887   1891     1  0.0000000  0.6508444  3
   1891   1887   1888   1894     1  0.0000000  1.0460000  1
   1891   1887   1888   1894     1  0.0000000  0.0000000  3
   1891   1887   1895   1898     1  0.0000000  0.6973333  3
   1891   1887   1884   1896     1  0.0000000  1.0460000  1
   1891   1887   1884   1896     1  0.0000000  0.0000000  3
   1892   1889   1888   1894     1  0.0000000  0.6508444  3
   1901   1897   1903   1904     1  0.0000000  0.6973333  3
   1901   1897   1883   1905     1  0.0000000  1.0460000  1
   1901   1897   1883   1905     1  0.0000000  0.0000000  3
   1902   1897   1903   1904     1  0.0000000  0.6973333  3
   1902   1897   1883   1905     1  0.0000000  1.0460000  1
   1902   1897   1883   1905     1  0.0000000  0.0000000  3
   1906   1907   1910   1914     1  0.0000000  0.6508444  3
   1906   1907   1919   1922     1  0.0000000  1.0460000  1
   1906   1907   1919   1922     1  0.0000000  0.6694400  3
   1906   1920   1926   1927     1  0.0000000  1.0460000  1
   1906   1920   1926   1927     1  0.0000000  0.6694400  3
   1906   1928   1912   1915     1  0.0000000  1.6038667  3
   1907   1906   1920   1924     1  0.0000000  0.6508444  3
   1907   1906   1920   1925     1  0.0000000  0.6508444  3
   1907   1910   1911   1913     1  0.0000000  0.6508444  3
   1907   1910   1918   1921     1  0.0000000  1.0460000  1
   1907   1910   1918   1921     1  0.0000000  0.6694400  3
   1908   1906   1907   1910     1  0.0000000  0.6508444  3
   1908   1906   1907   1919     1  0.0000000  1.0460000  1
   1908   1906   1907   1919     1  0.0000000  0.0000000  3
   1908   1906   1907   1909     1  0.0000000  0.6508444  3
   1908   1906   1920   1926     1  0.0000000  1.0460000  1
   1908   1906   1920   1926     1  0.0000000  0.0000000  3
   1908   1906   1920   1924     1  0.0000000  0.6508444  3
   1908   1906   1920   1925     1  0.0000000  0.6508444  3
   1908   1906   1928   1912     1  0.0000000  1.6038667  3
   1909   1907   1906   1920     1  0.0000000  0.6508444  3
   1909   1907   1906   1928     1  0.0000000  1.0460000  1
   1909   1907   1906   1928     1  0.0000000  0.0000000  3
   1909   1907   1910   1911     1  0.0000000  0.6508444  3
   1909   1907   1910   1918     1  0.0000000  1.0460000  1
   1909   1907   1910   1918     1  0.0000000  0.0000000  3
   1909   1907   1910   1914     1  0.0000000  0.6508444  3
   1909   1907   1919   1922     1  0.0000000  0.6973333  3
   1910   1907   1919   1922     1  0.0000000  1.0460000  1
   1910   1907   1919   1922     1  0.0000000  0.6694400  3
   1910   1911   1912   1915     1  0.0000000  0.6508444  3
   1910   1911   1917   1923     1  0.0000000  1.0460000  1
   1910   1911   1917   1923     1  0.0000000  0.6694400  3
   1911   1910   1918   1921     1  0.0000000  1.0460000  1
   1911   1910   1918   1921     1  0.0000000  0.6694400  3
   1912   1911   1910   1914     1  0.0000000  0.6508444  3
   1912   1911   1917   1923     1  0.0000000  1.0460000  1
   1912   1911   1917   1923     1  0.0000000  0.6694400  3
   1913   1911   1910   1918     1  0.0000000  1.0460000  1
   1913   1911   1910   1918     1  0.0000000  0.0000000  3
   1913   1911   1910   1914     1  0.0000000  0.6508444  3
   1913   1911   1912   1916     1  0.0000000  1.0460000  1
   1913   1911   1912   1916     1  0.0000000  0.0000000  3
   1913   1911   1912   1928     1  0.0000000  1.0460000  1
   1913   1911   1912   1928     1  0.0000000  0.0000000  3
   1913   1911   1912   1915     1  0.0000000  0.6508444  3
   1913   1911   1917   1923     1  0.0000000  0.6973333  3
   1914   1910   1907   1919     1  0.0000000  1.0460000  1
   1914   1910   1907   1919     1  0.0000000  0.0000000  3
   1914   1910   1911   1917     1  0.0000000  1.0460000  1
   1914   1910   1911   1917     1  0.0000000  0.0000000  3
   1914   1910   1918   1921     1  0.0000000  0.6973333  3
   1915   1912   1911   1917     1  0.0000000  0.6508444  3
   1924   1920   1906   1928     1  0.0000000  1.0460000  1
   1924   1920   1906   1928     1  0.0000000  0.0000000  3
   1924   1920   1926   1927     1  0.0000000  0.6973333  3
   1925   1920   1906   1928     1  0.0000000  1.0460000  1
   1925   1920   1906   1928     1  0.0000000  0.0000000  3
   1925   1920   1926   1927     1  0.0000000  0.6973333  3
   1929   1930   1933   1937     1  0.0000000  0.6508444  3
   1929   1930   1942   1945     1  0.0000000  1.0460000  1
   1929   1930   1942   1945     1  0.0000000  0.6694400  3
   1929   1943   1949   1950     1  0.0000000  1.0460000  1
   1929   1943   1949   1950     1  0.0000000  0.6694400  3
   1929   1951   1935   1938     1  0.0000000  1.6038667  3
   1930   1933   1934   1936     1  0.0000000  0.6508444  3
   1930   1933   1941   1944     1  0.0000000  1.0460000  1
   1930   1933   1941   1944     1  0.0000000  0.6694400  3
   1930   1929   1943   1947     1  0.0000000  0.6508444  3
   1930   1929   1943   1948     1  0.0000000  0.6508444  3
   1931   1929   1930   1933     1  0.0000000  0.6508444  3
   1931   1929   1930   1942     1  0.0000000  1.0460000  1
   1931   1929   1930   1942     1  0.0000000  0.0000000  3
   1931   1929   1930   1932     1  0.0000000  0.6508444  3
   1931   1929   1943   1949     1  0.0000000  1.0460000  1
   1931   1929   1943   1949     1  0.0000000  0.0000000  3
   1931   1929   1943   1947     1  0.0000000  0.6508444  3
   1931   1929   1943   1948     1  0.0000000  0.6508444  3
   1931   1929   1951   1935     1  0.0000000  1.6038667  3
   1932   1930   1933   1934     1  0.0000000  0.6508444  3
   1932   1930   1933   1941     1  0.0000000  1.0460000  1
   1932   1930   1933   1941     1  0.0000000  0.0000000  3
   1932   1930   1933   1937     1  0.0000000  0.6508444  3
   1932   1930   1942   1945     1  0.0000000  0.6973333  3
   1932   1930   1929   1943     1  0.0000000  0.6508444  3
   1932   1930   1929   1951     1  0.0000000  1.0460000  1
   1932   1930   1929   1951     1  0.0000000  0.0000000  3
   1933   1934   1935   1938     1  0.0000000  0.6508444  3
   1933   1934   1940   1946     1  0.0000000  1.0460000  1
   1933   1934   1940   1946     1  0.0000000  0.6694400  3
   1933   1930   1942   1945     1  0.0000000  1.0460000  1
   1933   1930   1942   1945     1  0.0000000  0.6694400  3
   1934   1933   1941   1944     1  0.0000000  1.0460000  1
   1934   1933   1941   1944     1  0.0000000  0.6694400  3
   1935   1934   1940   1946     1  0.0000000  1.0460000  1
   1935   1934   1940   1946     1  0.0000000  0.6694400  3
   1935   1934   1933   1937     1  0.0000000  0.6508444  3
   1936   1934   1935   1939     1  0.0000000  1.0460000  1
   1936   1934   1935   1939     1  0.0000000  0.0000000  3
   1936   1934   1935   1951     1  0.0000000  1.0460000  1
   1936   1934   1935   1951     1  0.0000000  0.0000000  3
   1936   1934   1935   1938     1  0.0000000  0.6508444  3
   1936   1934   1940   1946     1  0.0000000  0.6973333  3
   1936   1934   1933   1941     1  0.0000000  1.0460000  1
   1936   1934   1933   1941     1  0.0000000  0.0000000  3
   1936   1934   1933   1937     1  0.0000000  0.6508444  3
   1937   1933   1934   1940     1  0.0000000  1.0460000  1
   1937   1933   1934   1940     1  0.0000000  0.0000000  3
   1937   1933   1941   1944     1  0.0000000  0.6973333  3
   1937   1933   1930   1942     1  0.0000000  1.0460000  1
   1937   1933   1930   1942     1  0.0000000  0.0000000  3
   1938   1935   1934   1940     1  0.0000000  0.6508444  3
   1947   1943   1949   1950     1  0.0000000  0.6973333  3
   1947   1943   1929   1951     1  0.0000000  1.0460000  1
   1947   1943   1929   1951     1  0.0000000  0.0000000  3
   1948   1943   1949   1950     1  0.0000000  0.6973333  3
   1948   1943   1929   1951     1  0.0000000  1.0460000  1
   1948   1943   1929   1951     1  0.0000000  0.0000000  3
   1952   1953   1956   1960     1  0.0000000  0.6508444  3
   1952   1953   1965   1968     1  0.0000000  1.0460000  1
   1952   1953   1965   1968     1  0.0000000  0.6694400  3
   1952   1966   1972   1973     1  0.0000000  1.0460000  1
   1952   1966   1972   1973     1  0.0000000  0.6694400  3
   1952   1974   1958   1961     1  0.0000000  1.6038667  3
   1953   1952   1966   1970     1  0.0000000  0.6508444  3
   1953   1952   1966   1971     1  0.0000000  0.6508444  3
   1953   1956   1957   1959     1  0.0000000  0.6508444  3
   1953   1956   1964   1967     1  0.0000000  1.0460000  1
   1953   1956   1964   1967     1  0.0000000  0.6694400  3
   1954   1952   1953   1956     1  0.0000000  0.6508444  3
   1954   1952   1953   1965     1  0.0000000  1.0460000  1
   1954   1952   1953   1965     1  0.0000000  0.0000000  3
   1954   1952   1953   1955     1  0.0000000  0.6508444  3
   1954   1952   1966   1972     1  0.0000000  1.0460000  1
   1954   1952   1966   1972     1  0.0000000  0.0000000  3
   1954   1952   1966   1970     1  0.0000000  0.6508444  3
   1954   1952   1966   1971     1  0.0000000  0.6508444  3
   1954   1952   1974   1958     1  0.0000000  1.6038667  3
   1955   1953   1952   1966     1  0.0000000  0.6508444  3
   1955   1953   1952   1974     1  0.0000000  1.0460000  1
   1955   1953   1952   1974     1  0.0000000  0.0000000  3
   1955   1953   1956   1957     1  0.0000000  0.6508444  3
   1955   1953   1956   1964     1  0.0000000  1.0460000  1
   1955   1953   1956   1964     1  0.0000000  0.0000000  3
   1955   1953   1956   1960     1  0.0000000  0.6508444  3
   1955   1953   1965   1968     1  0.0000000  0.6973333  3
   1956   1953   1965   1968     1  0.0000000  1.0460000  1
   1956   1953   1965   1968     1  0.0000000  0.6694400  3
   1956   1957   1958   1961     1  0.0000000  0.6508444  3
   1956   1957   1963   1969     1  0.0000000  1.0460000  1
   1956   1957   1963   1969     1  0.0000000  0.6694400  3
   1957   1956   1964   1967     1  0.0000000  1.0460000  1
   1957   1956   1964   1967     1  0.0000000  0.6694400  3
   1958   1957   1956   1960     1  0.0000000  0.6508444  3
   1958   1957   1963   1969     1  0.0000000  1.0460000  1
   1958   1957   1963   1969     1  0.0000000  0.6694400  3
   1959   1957   1956   1964     1  0.0000000  1.0460000  1
   1959   1957   1956   1964     1  0.0000000  0.0000000  3
   1959   1957   1956   1960     1  0.0000000  0.6508444  3
   1959   1957   1958   1962     1  0.0000000  1.0460000  1
   1959   1957   1958   1962     1  0.0000000  0.0000000  3
   1959   1957   1958   1974     1  0.0000000  1.0460000  1
   1959   1957   1958   1974     1  0.0000000  0.0000000  3
   1959   1957   1958   1961     1  0.0000000  0.6508444  3
   1959   1957   1963   1969     1  0.0000000  0.6973333  3
   1960   1956   1953   1965     1  0.0000000  1.0460000  1
   1960   1956   1953   1965     1  0.0000000  0.0000000  3
   1960   1956   1957   1963     1  0.0000000  1.0460000  1
   1960   1956   1957   1963     1  0.0000000  0.0000000  3
   1960   1956   1964   1967     1  0.0000000  0.6973333  3
   1961   1958   1957   1963     1  0.0000000  0.6508444  3
   1970   1966   1952   1974     1  0.0000000  1.0460000  1
   1970   1966   1952   1974     1  0.0000000  0.0000000  3
   1970   1966   1972   1973     1  0.0000000  0.6973333  3
   1971   1966   1952   1974     1  0.0000000  1.0460000  1
   1971   1966   1952   1974     1  0.0000000  0.0000000  3
   1971   1966   1972   1973     1  0.0000000  0.6973333  3
   1975   1976   1979   1983     1  0.0000000  0.6508444  3
   1975   1976   1988   1991     1  0.0000000  1.0460000  1
   1975   1976   1988   1991     1  0.0000000  0.6694400  3
   1975   1989   1995   1996     1  0.0000000  1.0460000  1
   1975   1989   1995   1996     1  0.0000000  0.6694400  3
   1975   1997   1981   1984     1  0.0000000  1.6038667  3
   1976   1979   1980   1982     1  0.0000000  0.6508444  3
   1976   1979   1987   1990     1  0.0000000  1.0460000  1
   1976   1979   1987   1990     1  0.0000000  0.6694400  3
   1976   1975   1989   1993     1  0.0000000  0.6508444  3
   1976   1975   1989   1994     1  0.0000000  0.6508444  3
   1977   1975   1976   1979     1  0.0000000  0.6508444  3
   1977   1975   1976   1988     1  0.0000000  1.0460000  1
   1977   1975   1976   1988     1  0.0000000  0.0000000  3
   1977   1975   1976   1978     1  0.0000000  0.6508444  3
   1977   1975   1989   1995     1  0.0000000  1.0460000  1
   1977   1975   1989   1995     1  0.0000000  0.0000000  3
   1977   1975   1989   1993     1  0.0000000  0.6508444  3
   1977   1975   1989   1994     1  0.0000000  0.6508444  3
   1977   1975   1997   1981     1  0.0000000  1.6038667  3
   1978   1976   1979   1980     1  0.0000000  0.6508444  3
   1978   1976   1979   1987     1  0.0000000  1.0460000  1
   1978   1976   1979   1987     1  0.0000000  0.0000000  3
   1978   1976   1979   1983     1  0.0000000  0.6508444  3
   1978   1976   1988   1991     1  0.0000000  0.6973333  3
   1978   1976   1975   1989     1  0.0000000  0.6508444  3
   1978   1976   1975   1997     1  0.0000000  1.0460000  1
   1978   1976   1975   1997     1  0.0000000  0.0000000  3
   1979   1980   1981   1984     1  0.0000000  0.6508444  3
   1979   1980   1986   1992     1  0.0000000  1.0460000  1
   1979   1980   1986   1992     1  0.0000000  0.6694400  3
   1979   1976   1988   1991     1  0.0000000  1.0460000  1
   1979   1976   1988   1991     1  0.0000000  0.6694400  3
   1980   1979   1987   1990     1  0.0000000  1.0460000  1
   1980   1979   1987   1990     1  0.0000000  0.6694400  3
   1981   1980   1986   1992     1  0.0000000  1.0460000  1
   1981   1980   1986   1992     1  0.0000000  0.6694400  3
   1981   1980   1979   1983     1  0.0000000  0.6508444  3
   1982   1980   1981   1985     1  0.0000000  1.0460000  1
   1982   1980   1981   1985     1  0.0000000  0.0000000  3
   1982   1980   1981   1997     1  0.0000000  1.0460000  1
   1982   1980   1981   1997     1  0.0000000  0.0000000  3
   1982   1980   1981   1984     1  0.0000000  0.6508444  3
   1982   1980   1986   1992     1  0.0000000  0.6973333  3
   1982   1980   1979   1987     1  0.0000000  1.0460000  1
   1982   1980   1979   1987     1  0.0000000  0.0000000  3
   1982   1980   1979   1983     1  0.0000000  0.6508444  3
   1983   1979   1980   1986     1  0.0000000  1.0460000  1
   1983   1979   1980   1986     1  0.0000000  0.0000000  3
   1983   1979   1987   1990     1  0.0000000  0.6973333  3
   1983   1979   1976   1988     1  0.0000000  1.0460000  1
   1983   1979   1976   1988     1  0.0000000  0.0000000  3
   1984   1981   1980   1986     1  0.0000000  0.6508444  3
   1993   1989   1995   1996     1  0.0000000  0.6973333  3
   1993   1989   1975   1997     1  0.0000000  1.0460000  1
   1993   1989   1975   1997     1  0.0000000  0.0000000  3
   1994   1989   1995   1996     1  0.0000000  0.6973333  3
   1994   1989   1975   1997     1  0.0000000  1.0460000  1
   1994   1989   1975   1997     1  0.0000000  0.0000000  3
   1998   1999   2002   2006     1  0.0000000  0.6508444  3
   1998   1999   2011   2014     1  0.0000000  1.0460000  1
   1998   1999   2011   2014     1  0.0000000  0.6694400  3
   1998   2012   2018   2019     1  0.0000000  1.0460000  1
   1998   2012   2018   2019     1  0.0000000  0.6694400  3
   1998   2020   2004   2007     1  0.0000000  1.6038667  3
   1999   1998   2012   2016     1  0.0000000  0.6508444  3
   1999   1998   2012   2017     1  0.0000000  0.6508444  3
   1999   2002   2003   2005     1  0.0000000  0.6508444  3
   1999   2002   2010   2013     1  0.0000000  1.0460000  1
   1999   2002   2010   2013     1  0.0000000  0.6694400  3
   2000   1998   1999   2002     1  0.0000000  0.6508444  3
   2000   1998   1999   2011     1  0.0000000  1.0460000  1
   2000   1998   1999   2011     1  0.0000000  0.0000000  3
   2000   1998   1999   2001     1  0.0000000  0.6508444  3
   2000   1998   2012   2018     1  0.0000000  1.0460000  1
   2000   1998   2012   2018     1  0.0000000  0.0000000  3
   2000   1998   2012   2016     1  0.0000000  0.6508444  3
   2000   1998   2012   2017     1  0.0000000  0.6508444  3
   2000   1998   2020   2004     1  0.0000000  1.6038667  3
   2001   1999   1998   2012     1  0.0000000  0.6508444  3
   2001   1999   1998   2020     1  0.0000000  1.0460000  1
   2001   1999   1998   2020     1  0.0000000  0.0000000  3
   2001   1999   2002   2003     1  0.0000000  0.6508444  3
   2001   1999   2002   2010     1  0.0000000  1.0460000  1
   2001   1999   2002   2010     1  0.0000000  0.0000000  3
   2001   1999   2002   2006     1  0.0000000  0.6508444  3
   2001   1999   2011   2014     1  0.0000000  0.6973333  3
   2002   1999   2011   2014     1  0.0000000  1.0460000  1
   2002   1999   2011   2014     1  0.0000000  0.6694400  3
   2002   2003   2004   2007     1  0.0000000  0.6508444  3
   2002   2003   2009   2015     1  0.0000000  1.0460000  1
   2002   2003   2009   2015     1  0.0000000  0.6694400  3
   2003   2002   2010   2013     1  0.0000000  1.0460000  1
   2003   2002   2010   2013     1  0.0000000  0.6694400  3
   2004   2003   2002   2006     1  0.0000000  0.6508444  3
   2004   2003   2009   2015     1  0.0000000  1.0460000  1
   2004   2003   2009   2015     1  0.0000000  0.6694400  3
   2005   2003   2002   2010     1  0.0000000  1.0460000  1
   2005   2003   2002   2010     1  0.0000000  0.0000000  3
   2005   2003   2002   2006     1  0.0000000  0.6508444  3
   2005   2003   2004   2008     1  0.0000000  1.0460000  1
   2005   2003   2004   2008     1  0.0000000  0.0000000  3
   2005   2003   2004   2020     1  0.0000000  1.0460000  1
   2005   2003   2004   2020     1  0.0000000  0.0000000  3
   2005   2003   2004   2007     1  0.0000000  0.6508444  3
   2005   2003   2009   2015     1  0.0000000  0.6973333  3
   2006   2002   1999   2011     1  0.0000000  1.0460000  1
   2006   2002   1999   2011     1  0.0000000  0.0000000  3
   2006   2002   2003   2009     1  0.0000000  1.0460000  1
   2006   2002   2003   2009     1  0.0000000  0.0000000  3
   2006   2002   2010   2013     1  0.0000000  0.6973333  3
   2007   2004   2003   2009     1  0.0000000  0.6508444  3
   2016   2012   1998   2020     1  0.0000000  1.0460000  1
   2016   2012   1998   2020     1  0.0000000  0.0000000  3
   2016   2012   2018   2019     1  0.0000000  0.6973333  3
   2017   2012   1998   2020     1  0.0000000  1.0460000  1
   2017   2012   1998   2020     1  0.0000000  0.0000000  3
   2017   2012   2018   2019     1  0.0000000  0.6973333  3
   2021   2022   2025   2029     1  0.0000000  0.6508444  3
   2021   2022   2034   2037     1  0.0000000  1.0460000  1
   2021   2022   2034   2037     1  0.0000000  0.6694400  3
   2021   2035   2041   2042     1  0.0000000  1.0460000  1
   2021   2035   2041   2042     1  0.0000000  0.6694400  3
   2021   2043   2027   2030     1  0.0000000  1.6038667  3
   2022   2025   2026   2028     1  0.0000000  0.6508444  3
   2022   2025   2033   2036     1  0.0000000  1.0460000  1
   2022   2025   2033   2036     1  0.0000000  0.6694400  3
   2022   2021   2035   2039     1  0.0000000  0.6508444  3
   2022   2021   2035   2040     1  0.0000000  0.6508444  3
   2023   2021   2022   2025     1  0.0000000  0.6508444  3
   2023   2021   2022   2034     1  0.0000000  1.0460000  1
   2023   2021   2022   2034     1  0.0000000  0.0000000  3
   2023   2021   2022   2024     1  0.0000000  0.6508444  3
   2023   2021   2035   2041     1  0.0000000  1.0460000  1
   2023   2021   2035   2041     1  0.0000000  0.0000000  3
   2023   2021   2035   2039     1  0.0000000  0.6508444  3
   2023   2021   2035   2040     1  0.0000000  0.6508444  3
   2023   2021   2043   2027     1  0.0000000  1.6038667  3
   2024   2022   2025   2026     1  0.0000000  0.6508444  3
   2024   2022   2025   2033     1  0.0000000  1.0460000  1
   2024   2022   2025   2033     1  0.0000000  0.0000000  3
   2024   2022   2025   2029     1  0.0000000  0.6508444  3
   2024   2022   2034   2037     1  0.0000000  0.6973333  3
   2024   2022   2021   2035     1  0.0000000  0.6508444  3
   2024   2022   2021   2043     1  0.0000000  1.0460000  1
   2024   2022   2021   2043     1  0.0000000  0.0000000  3
   2025   2026   2027   2030     1  0.0000000  0.6508444  3
   2025   2026   2032   2038     1  0.0000000  1.0460000  1
   2025   2026   2032   2038     1  0.0000000  0.6694400  3
   2025   2022   2034   2037     1  0.0000000  1.0460000  1
   2025   2022   2034   2037     1  0.0000000  0.6694400  3
   2026   2025   2033   2036     1  0.0000000  1.0460000  1
   2026   2025   2033   2036     1  0.0000000  0.6694400  3
   2027   2026   2032   2038     1  0.0000000  1.0460000  1
   2027   2026   2032   2038     1  0.0000000  0.6694400  3
   2027   2026   2025   2029     1  0.0000000  0.6508444  3
   2028   2026   2027   2031     1  0.0000000  1.0460000  1
   2028   2026   2027   2031     1  0.0000000  0.0000000  3
   2028   2026   2027   2043     1  0.0000000  1.0460000  1
   2028   2026   2027   2043     1  0.0000000  0.0000000  3
   2028   2026   2027   2030     1  0.0000000  0.6508444  3
   2028   2026   2032   2038     1  0.0000000  0.6973333  3
   2028   2026   2025   2033     1  0.0000000  1.0460000  1
   2028   2026   2025   2033     1  0.0000000  0.0000000  3
   2028   2026   2025   2029     1  0.0000000  0.6508444  3
   2029   2025   2026   2032     1  0.0000000  1.0460000  1
   2029   2025   2026   2032     1  0.0000000  0.0000000  3
   2029   2025   2033   2036     1  0.0000000  0.6973333  3
   2029   2025   2022   2034     1  0.0000000  1.0460000  1
   2029   2025   2022   2034     1  0.0000000  0.0000000  3
   2030   2027   2026   2032     1  0.0000000  0.6508444  3
   2039   2035   2041   2042     1  0.0000000  0.6973333  3
   2039   2035   2021   2043     1  0.0000000  1.0460000  1
   2039   2035   2021   2043     1  0.0000000  0.0000000  3
   2040   2035   2041   2042     1  0.0000000  0.6973333  3
   2040   2035   2021   2043     1  0.0000000  1.0460000  1
   2040   2035   2021   2043     1  0.0000000  0.0000000  3
   2044   2045   2048   2052     1  0.0000000  0.6508444  3
   2044   2045   2057   2060     1  0.0000000  1.0460000  1
   2044   2045   2057   2060     1  0.0000000  0.6694400  3
   2044   2058   2064   2065     1  0.0000000  1.0460000  1
   2044   2058   2064   2065     1  0.0000000  0.6694400  3
   2044   2066   2050   2053     1  0.0000000  1.6038667  3
   2045   2044   2058   2062     1  0.0000000  0.6508444  3
   2045   2044   2058   2063     1  0.0000000  0.6508444  3
   2045   2048   2049   2051     1  0.0000000  0.6508444  3
   2045   2048   2056   2059     1  0.0000000  1.0460000  1
   2045   2048   2056   2059     1  0.0000000  0.6694400  3
   2046   2044   2045   2048     1  0.0000000  0.6508444  3
   2046   2044   2045   2057     1  0.0000000  1.0460000  1
   2046   2044   2045   2057     1  0.0000000  0.0000000  3
   2046   2044   2045   2047     1  0.0000000  0.6508444  3
   2046   2044   2058   2064     1  0.0000000  1.0460000  1
   2046   2044   2058   2064     1  0.0000000  0.0000000  3
   2046   2044   2058   2062     1  0.0000000  0.6508444  3
   2046   2044   2058   2063     1  0.0000000  0.6508444  3
   2046   2044   2066   2050     1  0.0000000  1.6038667  3
   2047   2045   2044   2058     1  0.0000000  0.6508444  3
   2047   2045   2044   2066     1  0.0000000  1.0460000  1
   2047   2045   2044   2066     1  0.0000000  0.0000000  3
   2047   2045   2048   2049     1  0.0000000  0.6508444  3
   2047   2045   2048   2056     1  0.0000000  1.0460000  1
   2047   2045   2048   2056     1  0.0000000  0.0000000  3
   2047   2045   2048   2052     1  0.0000000  0.6508444  3
   2047   2045   2057   2060     1  0.0000000  0.6973333  3
   2048   2045   2057   2060     1  0.0000000  1.0460000  1
   2048   2045   2057   2060     1  0.0000000  0.6694400  3
   2048   2049   2050   2053     1  0.0000000  0.6508444  3
   2048   2049   2055   2061     1  0.0000000  1.0460000  1
   2048   2049   2055   2061     1  0.0000000  0.6694400  3
   2049   2048   2056   2059     1  0.0000000  1.0460000  1
   2049   2048   2056   2059     1  0.0000000  0.6694400  3
   2050   2049   2048   2052     1  0.0000000  0.6508444  3
   2050   2049   2055   2061     1  0.0000000  1.0460000  1
   2050   2049   2055   2061     1  0.0000000  0.6694400  3
   2051   2049   2048   2056     1  0.0000000  1.0460000  1
   2051   2049   2048   2056     1  0.0000000  0.0000000  3
   2051   2049   2048   2052     1  0.0000000  0.6508444  3
   2051   2049   2050   2054     1  0.0000000  1.0460000  1
   2051   2049   2050   2054     1  0.0000000  0.0000000  3
   2051   2049   2050   2066     1  0.0000000  1.0460000  1
   2051   2049   2050   2066     1  0.0000000  0.0000000  3
   2051   2049   2050   2053     1  0.0000000  0.6508444  3
   2051   2049   2055   2061     1  0.0000000  0.6973333  3
   2052   2048   2045   2057     1  0.0000000  1.0460000  1
   2052   2048   2045   2057     1  0.0000000  0.0000000  3
   2052   2048   2049   2055     1  0.0000000  1.0460000  1
   2052   2048   2049   2055     1  0.0000000  0.0000000  3
   2052   2048   2056   2059     1  0.0000000  0.6973333  3
   2053   2050   2049   2055     1  0.0000000  0.6508444  3
   2062   2058   2044   2066     1  0.0000000  1.0460000  1
   2062   2058   2044   2066     1  0.0000000  0.0000000  3
   2062   2058   2064   2065     1  0.0000000  0.6973333  3
   2063   2058   2044   2066     1  0.0000000  1.0460000  1
   2063   2058   2044   2066     1  0.0000000  0.0000000  3
   2063   2058   2064   2065     1  0.0000000  0.6973333  3
   2067   2068   2071   2075     1  0.0000000  0.6508444  3
   2067   2068   2080   2083     1  0.0000000  1.0460000  1
   2067   2068   2080   2083     1  0.0000000  0.6694400  3
   2067   2081   2087   2088     1  0.0000000  1.0460000  1
   2067   2081   2087   2088     1  0.0000000  0.6694400  3
   2067   2089   2073   2076     1  0.0000000  1.6038667  3
   2068   2071   2072   2074     1  0.0000000  0.6508444  3
   2068   2071   2079   2082     1  0.0000000  1.0460000  1
   2068   2071   2079   2082     1  0.0000000  0.6694400  3
   2068   2067   2081   2085     1  0.0000000  0.6508444  3
   2068   2067   2081   2086     1  0.0000000  0.6508444  3
   2069   2067   2068   2071     1  0.0000000  0.6508444  3
   2069   2067   2068   2080     1  0.0000000  1.0460000  1
   2069   2067   2068   2080     1  0.0000000  0.0000000  3
   2069   2067   2068   2070     1  0.0000000  0.6508444  3
   2069   2067   2081   2087     1  0.0000000  1.0460000  1
   2069   2067   2081   2087     1  0.0000000  0.0000000  3
   2069   2067   2081   2085     1  0.0000000  0.6508444  3
   2069   2067   2081   2086     1  0.0000000  0.6508444  3
   2069   2067   2089   2073     1  0.0000000  1.6038667  3
   2070   2068   2071   2072     1  0.0000000  0.6508444  3
   2070   2068   2071   2079     1  0.0000000  1.0460000  1
   2070   2068   2071   2079     1  0.0000000  0.0000000  3
   2070   2068   2071   2075     1  0.0000000  0.6508444  3
   2070   2068   2080   2083     1  0.0000000  0.6973333  3
   2070   2068   2067   2081     1  0.0000000  0.6508444  3
   2070   2068   2067   2089     1  0.0000000  1.0460000  1
   2070   2068   2067   2089     1  0.0000000  0.0000000  3
   2071   2072   2073   2076     1  0.0000000  0.6508444  3
   2071   2072   2078   2084     1  0.0000000  1.0460000  1
   2071   2072   2078   2084     1  0.0000000  0.6694400  3
   2071   2068   2080   2083     1  0.0000000  1.0460000  1
   2071   2068   2080   2083     1  0.0000000  0.6694400  3
   2072   2071   2079   2082     1  0.0000000  1.0460000  1
   2072   2071   2079   2082     1  0.0000000  0.6694400  3
   2073   2072   2078   2084     1  0.0000000  1.0460000  1
   2073   2072   2078   2084     1  0.0000000  0.6694400  3
   2073   2072   2071   2075     1  0.0000000  0.6508444  3
   2074   2072   2073   2077     1  0.0000000  1.0460000  1
   2074   2072   2073   2077     1  0.0000000  0.0000000  3
   2074   2072   2073   2089     1  0.0000000  1.0460000  1
   2074   2072   2073   2089     1  0.0000000  0.0000000  3
   2074   2072   2073   2076     1  0.0000000  0.6508444  3
   2074   2072   2078   2084     1  0.0000000  0.6973333  3
   2074   2072   2071   2079     1  0.0000000  1.0460000  1
   2074   2072   2071   2079     1  0.0000000  0.0000000  3
   2074   2072   2071   2075     1  0.0000000  0.6508444  3
   2075   2071   2072   2078     1  0.0000000  1.0460000  1
   2075   2071   2072   2078     1  0.0000000  0.0000000  3
   2075   2071   2079   2082     1  0.0000000  0.6973333  3
   2075   2071   2068   2080     1  0.0000000  1.0460000  1
   2075   2071   2068   2080     1  0.0000000  0.0000000  3
   2076   2073   2072   2078     1  0.0000000  0.6508444  3
   2085   2081   2087   2088     1  0.0000000  0.6973333  3
   2085   2081   2067   2089     1  0.0000000  1.0460000  1
   2085   2081   2067   2089     1  0.0000000  0.0000000  3
   2086   2081   2087   2088     1  0.0000000  0.6973333  3
   2086   2081   2067   2089     1  0.0000000  1.0460000  1
   2086   2081   2067   2089     1  0.0000000  0.0000000  3
   2090   2091   2094   2098     1  0.0000000  0.6508444  3
   2090   2091   2103   2106     1  0.0000000  1.0460000  1
   2090   2091   2103   2106     1  0.0000000  0.6694400  3
   2090   2104   2110   2111     1  0.0000000  1.0460000  1
   2090   2104   2110   2111     1  0.0000000  0.6694400  3
   2090   2112   2096   2099     1  0.0000000  1.6038667  3
   2091   2090   2104   2108     1  0.0000000  0.6508444  3
   2091   2090   2104   2109     1  0.0000000  0.6508444  3
   2091   2094   2095   2097     1  0.0000000  0.6508444  3
   2091   2094   2102   2105     1  0.0000000  1.0460000  1
   2091   2094   2102   2105     1  0.0000000  0.6694400  3
   2092   2090   2091   2094     1  0.0000000  0.6508444  3
   2092   2090   2091   2103     1  0.0000000  1.0460000  1
   2092   2090   2091   2103     1  0.0000000  0.0000000  3
   2092   2090   2091   2093     1  0.0000000  0.6508444  3
   2092   2090   2104   2110     1  0.0000000  1.0460000  1
   2092   2090   2104   2110     1  0.0000000  0.0000000  3
   2092   2090   2104   2108     1  0.0000000  0.6508444  3
   2092   2090   2104   2109     1  0.0000000  0.6508444  3
   2092   2090   2112   2096     1  0.0000000  1.6038667  3
   2093   2091   2090   2104     1  0.0000000  0.6508444  3
   2093   2091   2090   2112     1  0.0000000  1.0460000  1
   2093   2091   2090   2112     1  0.0000000  0.0000000  3
   2093   2091   2094   2095     1  0.0000000  0.6508444  3
   2093   2091   2094   2102     1  0.0000000  1.0460000  1
   2093   2091   2094   2102     1  0.0000000  0.0000000  3
   2093   2091   2094   2098     1  0.0000000  0.6508444  3
   2093   2091   2103   2106     1  0.0000000  0.6973333  3
   2094   2091   2103   2106     1  0.0000000  1.0460000  1
   2094   2091   2103   2106     1  0.0000000  0.6694400  3
   2094   2095   2096   2099     1  0.0000000  0.6508444  3
   2094   2095   2101   2107     1  0.0000000  1.0460000  1
   2094   2095   2101   2107     1  0.0000000  0.6694400  3
   2095   2094   2102   2105     1  0.0000000  1.0460000  1
   2095   2094   2102   2105     1  0.0000000  0.6694400  3
   2096   2095   2094   2098     1  0.0000000  0.6508444  3
   2096   2095   2101   2107     1  0.0000000  1.0460000  1
   2096   2095   2101   2107     1  0.0000000  0.6694400  3
   2097   2095   2094   2102     1  0.0000000  1.0460000  1
   2097   2095   2094   2102     1  0.0000000  0.0000000  3
   2097   2095   2094   2098     1  0.0000000  0.6508444  3
   2097   2095   2096   2100     1  0.0000000  1.0460000  1
   2097   2095   2096   2100     1  0.0000000  0.0000000  3
   2097   2095   2096   2112     1  0.0000000  1.0460000  1
   2097   2095   2096   2112     1  0.0000000  0.0000000  3
   2097   2095   2096   2099     1  0.0000000  0.6508444  3
   2097   2095   2101   2107     1  0.0000000  0.6973333  3
   2098   2094   2091   2103     1  0.0000000  1.0460000  1
   2098   2094   2091   2103     1  0.0000000  0.0000000  3
   2098   2094   2095   2101     1  0.0000000  1.0460000  1
   2098   2094   2095   2101     1  0.0000000  0.0000000  3
   2098   2094   2102   2105     1  0.0000000  0.6973333  3
   2099   2096   2095   2101     1  0.0000000  0.6508444  3
   2108   2104   2090   2112     1  0.0000000  1.0460000  1
   2108   2104   2090   2112     1  0.0000000  0.0000000  3
   2108   2104   2110   2111     1  0.0000000  0.6973333  3
   2109   2104   2090   2112     1  0.0000000  1.0460000  1
   2109   2104   2090   2112     1  0.0000000  0.0000000  3
   2109   2104   2110   2111     1  0.0000000  0.6973333  3
   2113   2114   2117   2121     1  0.0000000  0.6508444  3
   2113   2114   2126   2129     1  0.0000000  1.0460000  1
   2113   2114   2126   2129     1  0.0000000  0.6694400  3
   2113   2127   2133   2134     1  0.0000000  1.0460000  1
   2113   2127   2133   2134     1  0.0000000  0.6694400  3
   2113   2135   2119   2122     1  0.0000000  1.6038667  3
   2114   2117   2118   2120     1  0.0000000  0.6508444  3
   2114   2117   2125   2128     1  0.0000000  1.0460000  1
   2114   2117   2125   2128     1  0.0000000  0.6694400  3
   2114   2113   2127   2131     1  0.0000000  0.6508444  3
   2114   2113   2127   2132     1  0.0000000  0.6508444  3
   2115   2113   2114   2117     1  0.0000000  0.6508444  3
   2115   2113   2114   2126     1  0.0000000  1.0460000  1
   2115   2113   2114   2126     1  0.0000000  0.0000000  3
   2115   2113   2114   2116     1  0.0000000  0.6508444  3
   2115   2113   2127   2133     1  0.0000000  1.0460000  1
   2115   2113   2127   2133     1  0.0000000  0.0000000  3
   2115   2113   2127   2131     1  0.0000000  0.6508444  3
   2115   2113   2127   2132     1  0.0000000  0.6508444  3
   2115   2113   2135   2119     1  0.0000000  1.6038667  3
   2116   2114   2117   2118     1  0.0000000  0.6508444  3
   2116   2114   2117   2125     1  0.0000000  1.0460000  1
   2116   2114   2117   2125     1  0.0000000  0.0000000  3
   2116   2114   2117   2121     1  0.0000000  0.6508444  3
   2116   2114   2126   2129     1  0.0000000  0.6973333  3
   2116   2114   2113   2127     1  0.0000000  0.6508444  3
   2116   2114   2113   2135     1  0.0000000  1.0460000  1
   2116   2114   2113   2135     1  0.0000000  0.0000000  3
   2117   2118   2119   2122     1  0.0000000  0.6508444  3
   2117   2118   2124   2130     1  0.0000000  1.0460000  1
   2117   2118   2124   2130     1  0.0000000  0.6694400  3
   2117   2114   2126   2129     1  0.0000000  1.0460000  1
   2117   2114   2126   2129     1  0.0000000  0.6694400  3
   2118   2117   2125   2128     1  0.0000000  1.0460000  1
   2118   2117   2125   2128     1  0.0000000  0.6694400  3
   2119   2118   2124   2130     1  0.0000000  1.0460000  1
   2119   2118   2124   2130     1  0.0000000  0.6694400  3
   2119   2118   2117   2121     1  0.0000000  0.6508444  3
   2120   2118   2119   2123     1  0.0000000  1.0460000  1
   2120   2118   2119   2123     1  0.0000000  0.0000000  3
   2120   2118   2119   2135     1  0.0000000  1.0460000  1
   2120   2118   2119   2135     1  0.0000000  0.0000000  3
   2120   2118   2119   2122     1  0.0000000  0.6508444  3
   2120   2118   2124   2130     1  0.0000000  0.6973333  3
   2120   2118   2117   2125     1  0.0000000  1.0460000  1
   2120   2118   2117   2125     1  0.0000000  0.0000000  3
   2120   2118   2117   2121     1  0.0000000  0.6508444  3
   2121   2117   2118   2124     1  0.0000000  1.0460000  1
   2121   2117   2118   2124     1  0.0000000  0.0000000  3
   2121   2117   2125   2128     1  0.0000000  0.6973333  3
   2121   2117   2114   2126     1  0.0000000  1.0460000  1
   2121   2117   2114   2126     1  0.0000000  0.0000000  3
   2122   2119   2118   2124     1  0.0000000  0.6508444  3
   2131   2127   2133   2134     1  0.0000000  0.6973333  3
   2131   2127   2113   2135     1  0.0000000  1.0460000  1
   2131   2127   2113   2135     1  0.0000000  0.0000000  3
   2132   2127   2133   2134     1  0.0000000  0.6973333  3
   2132   2127   2113   2135     1  0.0000000  1.0460000  1
   2132   2127   2113   2135     1  0.0000000  0.0000000  3
   2136   2137   2140   2144     1  0.0000000  0.6508444  3
   2136   2137   2149   2152     1  0.0000000  1.0460000  1
   2136   2137   2149   2152     1  0.0000000  0.6694400  3
   2136   2150   2156   2157     1  0.0000000  1.0460000  1
   2136   2150   2156   2157     1  0.0000000  0.6694400  3
   2136   2158   2142   2145     1  0.0000000  1.6038667  3
   2137   2136   2150   2154     1  0.0000000  0.6508444  3
   2137   2136   2150   2155     1  0.0000000  0.6508444  3
   2137   2140   2141   2143     1  0.0000000  0.6508444  3
   2137   2140   2148   2151     1  0.0000000  1.0460000  1
   2137   2140   2148   2151     1  0.0000000  0.6694400  3
   2138   2136   2137   2140     1  0.0000000  0.6508444  3
   2138   2136   2137   2149     1  0.0000000  1.0460000  1
   2138   2136   2137   2149     1  0.0000000  0.0000000  3
   2138   2136   2137   2139     1  0.0000000  0.6508444  3
   2138   2136   2150   2156     1  0.0000000  1.0460000  1
   2138   2136   2150   2156     1  0.0000000  0.0000000  3
   2138   2136   2150   2154     1  0.0000000  0.6508444  3
   2138   2136   2150   2155     1  0.0000000  0.6508444  3
   2138   2136   2158   2142     1  0.0000000  1.6038667  3
   2139   2137   2136   2150     1  0.0000000  0.6508444  3
   2139   2137   2136   2158     1  0.0000000  1.0460000  1
   2139   2137   2136   2158     1  0.0000000  0.0000000  3
   2139   2137   2140   2141     1  0.0000000  0.6508444  3
   2139   2137   2140   2148     1  0.0000000  1.0460000  1
   2139   2137   2140   2148     1  0.0000000  0.0000000  3
   2139   2137   2140   2144     1  0.0000000  0.6508444  3
   2139   2137   2149   2152     1  0.0000000  0.6973333  3
   2140   2137   2149   2152     1  0.0000000  1.0460000  1
   2140   2137   2149   2152     1  0.0000000  0.6694400  3
   2140   2141   2142   2145     1  0.0000000  0.6508444  3
   2140   2141   2147   2153     1  0.0000000  1.0460000  1
   2140   2141   2147   2153     1  0.0000000  0.6694400  3
   2141   2140   2148   2151     1  0.0000000  1.0460000  1
   2141   2140   2148   2151     1  0.0000000  0.6694400  3
   2142   2141   2140   2144     1  0.0000000  0.6508444  3
   2142   2141   2147   2153     1  0.0000000  1.0460000  1
   2142   2141   2147   2153     1  0.0000000  0.6694400  3
   2143   2141   2140   2148     1  0.0000000  1.0460000  1
   2143   2141   2140   2148     1  0.0000000  0.0000000  3
   2143   2141   2140   2144     1  0.0000000  0.6508444  3
   2143   2141   2142   2146     1  0.0000000  1.0460000  1
   2143   2141   2142   2146     1  0.0000000  0.0000000  3
   2143   2141   2142   2158     1  0.0000000  1.0460000  1
   2143   2141   2142   2158     1  0.0000000  0.0000000  3
   2143   2141   2142   2145     1  0.0000000  0.6508444  3
   2143   2141   2147   2153     1  0.0000000  0.6973333  3
   2144   2140   2137   2149     1  0.0000000  1.0460000  1
   2144   2140   2137   2149     1  0.0000000  0.0000000  3
   2144   2140   2141   2147     1  0.0000000  1.0460000  1
   2144   2140   2141   2147     1  0.0000000  0.0000000  3
   2144   2140   2148   2151     1  0.0000000  0.6973333  3
   2145   2142   2141   2147     1  0.0000000  0.6508444  3
   2154   2150   2136   2158     1  0.0000000  1.0460000  1
   2154   2150   2136   2158     1  0.0000000  0.0000000  3
   2154   2150   2156   2157     1  0.0000000  0.6973333  3
   2155   2150   2136   2158     1  0.0000000  1.0460000  1
   2155   2150   2136   2158     1  0.0000000  0.0000000  3
   2155   2150   2156   2157     1  0.0000000  0.6973333  3
   2159   2160   2163   2167     1  0.0000000  0.6508444  3
   2159   2160   2172   2175     1  0.0000000  1.0460000  1
   2159   2160   2172   2175     1  0.0000000  0.6694400  3
   2159   2173   2179   2180     1  0.0000000  1.0460000  1
   2159   2173   2179   2180     1  0.0000000  0.6694400  3
   2159   2181   2165   2168     1  0.0000000  1.6038667  3
   2160   2163   2164   2166     1  0.0000000  0.6508444  3
   2160   2163   2171   2174     1  0.0000000  1.0460000  1
   2160   2163   2171   2174     1  0.0000000  0.6694400  3
   2160   2159   2173   2177     1  0.0000000  0.6508444  3
   2160   2159   2173   2178     1  0.0000000  0.6508444  3
   2161   2159   2160   2163     1  0.0000000  0.6508444  3
   2161   2159   2160   2172     1  0.0000000  1.0460000  1
   2161   2159   2160   2172     1  0.0000000  0.0000000  3
   2161   2159   2160   2162     1  0.0000000  0.6508444  3
   2161   2159   2173   2179     1  0.0000000  1.0460000  1
   2161   2159   2173   2179     1  0.0000000  0.0000000  3
   2161   2159   2173   2177     1  0.0000000  0.6508444  3
   2161   2159   2173   2178     1  0.0000000  0.6508444  3
   2161   2159   2181   2165     1  0.0000000  1.6038667  3
   2162   2160   2163   2164     1  0.0000000  0.6508444  3
   2162   2160   2163   2171     1  0.0000000  1.0460000  1
   2162   2160   2163   2171     1  0.0000000  0.0000000  3
   2162   2160   2163   2167     1  0.0000000  0.6508444  3
   2162   2160   2172   2175     1  0.0000000  0.6973333  3
   2162   2160   2159   2173     1  0.0000000  0.6508444  3
   2162   2160   2159   2181     1  0.0000000  1.0460000  1
   2162   2160   2159   2181     1  0.0000000  0.0000000  3
   2163   2164   2165   2168     1  0.0000000  0.6508444  3
   2163   2164   2170   2176     1  0.0000000  1.0460000  1
   2163   2164   2170   2176     1  0.0000000  0.6694400  3
   2163   2160   2172   2175     1  0.0000000  1.0460000  1
   2163   2160   2172   2175     1  0.0000000  0.6694400  3
   2164   2163   2171   2174     1  0.0000000  1.0460000  1
   2164   2163   2171   2174     1  0.0000000  0.6694400  3
   2165   2164   2170   2176     1  0.0000000  1.0460000  1
   2165   2164   2170   2176     1  0.0000000  0.6694400  3
   2165   2164   2163   2167     1  0.0000000  0.6508444  3
   2166   2164   2165   2169     1  0.0000000  1.0460000  1
   2166   2164   2165   2169     1  0.0000000  0.0000000  3
   2166   2164   2165   2181     1  0.0000000  1.0460000  1
   2166   2164   2165   2181     1  0.0000000  0.0000000  3
   2166   2164   2165   2168     1  0.0000000  0.6508444  3
   2166   2164   2170   2176     1  0.0000000  0.6973333  3
   2166   2164   2163   2171     1  0.0000000  1.0460000  1
   2166   2164   2163   2171     1  0.0000000  0.0000000  3
   2166   2164   2163   2167     1  0.0000000  0.6508444  3
   2167   2163   2164   2170     1  0.0000000  1.0460000  1
   2167   2163   2164   2170     1  0.0000000  0.0000000  3
   2167   2163   2171   2174     1  0.0000000  0.6973333  3
   2167   2163   2160   2172     1  0.0000000  1.0460000  1
   2167   2163   2160   2172     1  0.0000000  0.0000000  3
   2168   2165   2164   2170     1  0.0000000  0.6508444  3
   2177   2173   2179   2180     1  0.0000000  0.6973333  3
   2177   2173   2159   2181     1  0.0000000  1.0460000  1
   2177   2173   2159   2181     1  0.0000000  0.0000000  3
   2178   2173   2179   2180     1  0.0000000  0.6973333  3
   2178   2173   2159   2181     1  0.0000000  1.0460000  1
   2178   2173   2159   2181     1  0.0000000  0.0000000  3
   2182   2183   2186   2190     1  0.0000000  0.6508444  3
   2182   2183   2195   2198     1  0.0000000  1.0460000  1
   2182   2183   2195   2198     1  0.0000000  0.6694400  3
   2182   2196   2202   2203     1  0.0000000  1.0460000  1
   2182   2196   2202   2203     1  0.0000000  0.6694400  3
   2182   2204   2188   2191     1  0.0000000  1.6038667  3
   2183   2182   2196   2200     1  0.0000000  0.6508444  3
   2183   2182   2196   2201     1  0.0000000  0.6508444  3
   2183   2186   2187   2189     1  0.0000000  0.6508444  3
   2183   2186   2194   2197     1  0.0000000  1.0460000  1
   2183   2186   2194   2197     1  0.0000000  0.6694400  3
   2184   2182   2183   2186     1  0.0000000  0.6508444  3
   2184   2182   2183   2195     1  0.0000000  1.0460000  1
   2184   2182   2183   2195     1  0.0000000  0.0000000  3
   2184   2182   2183   2185     1  0.0000000  0.6508444  3
   2184   2182   2196   2202     1  0.0000000  1.0460000  1
   2184   2182   2196   2202     1  0.0000000  0.0000000  3
   2184   2182   2196   2200     1  0.0000000  0.6508444  3
   2184   2182   2196   2201     1  0.0000000  0.6508444  3
   2184   2182   2204   2188     1  0.0000000  1.6038667  3
   2185   2183   2182   2196     1  0.0000000  0.6508444  3
   2185   2183   2182   2204     1  0.0000000  1.0460000  1
   2185   2183   2182   2204     1  0.0000000  0.0000000  3
   2185   2183   2186   2187     1  0.0000000  0.6508444  3
   2185   2183   2186   2194     1  0.0000000  1.0460000  1
   2185   2183   2186   2194     1  0.0000000  0.0000000  3
   2185   2183   2186   2190     1  0.0000000  0.6508444  3
   2185   2183   2195   2198     1  0.0000000  0.6973333  3
   2186   2183   2195   2198     1  0.0000000  1.0460000  1
   2186   2183   2195   2198     1  0.0000000  0.6694400  3
   2186   2187   2188   2191     1  0.0000000  0.6508444  3
   2186   2187   2193   2199     1  0.0000000  1.0460000  1
   2186   2187   2193   2199     1  0.0000000  0.6694400  3
   2187   2186   2194   2197     1  0.0000000  1.0460000  1
   2187   2186   2194   2197     1  0.0000000  0.6694400  3
   2188   2187   2186   2190     1  0.0000000  0.6508444  3
   2188   2187   2193   2199     1  0.0000000  1.0460000  1
   2188   2187   2193   2199     1  0.0000000  0.6694400  3
   2189   2187   2186   2194     1  0.0000000  1.0460000  1
   2189   2187   2186   2194     1  0.0000000  0.0000000  3
   2189   2187   2186   2190     1  0.0000000  0.6508444  3
   2189   2187   2188   2192     1  0.0000000  1.0460000  1
   2189   2187   2188   2192     1  0.0000000  0.0000000  3
   2189   2187   2188   2204     1  0.0000000  1.0460000  1
   2189   2187   2188   2204     1  0.0000000  0.0000000  3
   2189   2187   2188   2191     1  0.0000000  0.6508444  3
   2189   2187   2193   2199     1  0.0000000  0.6973333  3
   2190   2186   2183   2195     1  0.0000000  1.0460000  1
   2190   2186   2183   2195     1  0.0000000  0.0000000  3
   2190   2186   2187   2193     1  0.0000000  1.0460000  1
   2190   2186   2187   2193     1  0.0000000  0.0000000  3
   2190   2186   2194   2197     1  0.0000000  0.6973333  3
   2191   2188   2187   2193     1  0.0000000  0.6508444  3
   2200   2196   2182   2204     1  0.0000000  1.0460000  1
   2200   2196   2182   2204     1  0.0000000  0.0000000  3
   2200   2196   2202   2203     1  0.0000000  0.6973333  3
   2201   2196   2182   2204     1  0.0000000  1.0460000  1
   2201   2196   2182   2204     1  0.0000000  0.0000000  3
   2201   2196   2202   2203     1  0.0000000  0.6973333  3
   2205   2206   2209   2213     1  0.0000000  0.6508444  3
   2205   2206   2218   2221     1  0.0000000  1.0460000  1
   2205   2206   2218   2221     1  0.0000000  0.6694400  3
   2205   2219   2225   2226     1  0.0000000  1.0460000  1
   2205   2219   2225   2226     1  0.0000000  0.6694400  3
   2205   2227   2211   2214     1  0.0000000  1.6038667  3
   2206   2209   2210   2212     1  0.0000000  0.6508444  3
   2206   2209   2217   2220     1  0.0000000  1.0460000  1
   2206   2209   2217   2220     1  0.0000000  0.6694400  3
   2206   2205   2219   2223     1  0.0000000  0.6508444  3
   2206   2205   2219   2224     1  0.0000000  0.6508444  3
   2207   2205   2206   2209     1  0.0000000  0.6508444  3
   2207   2205   2206   2218     1  0.0000000  1.0460000  1
   2207   2205   2206   2218     1  0.0000000  0.0000000  3
   2207   2205   2206   2208     1  0.0000000  0.6508444  3
   2207   2205   2219   2225     1  0.0000000  1.0460000  1
   2207   2205   2219   2225     1  0.0000000  0.0000000  3
   2207   2205   2219   2223     1  0.0000000  0.6508444  3
   2207   2205   2219   2224     1  0.0000000  0.6508444  3
   2207   2205   2227   2211     1  0.0000000  1.6038667  3
   2208   2206   2209   2210     1  0.0000000  0.6508444  3
   2208   2206   2209   2217     1  0.0000000  1.0460000  1
   2208   2206   2209   2217     1  0.0000000  0.0000000  3
   2208   2206   2209   2213     1  0.0000000  0.6508444  3
   2208   2206   2218   2221     1  0.0000000  0.6973333  3
   2208   2206   2205   2219     1  0.0000000  0.6508444  3
   2208   2206   2205   2227     1  0.0000000  1.0460000  1
   2208   2206   2205   2227     1  0.0000000  0.0000000  3
   2209   2210   2211   2214     1  0.0000000  0.6508444  3
   2209   2210   2216   2222     1  0.0000000  1.0460000  1
   2209   2210   2216   2222     1  0.0000000  0.6694400  3
   2209   2206   2218   2221     1  0.0000000  1.0460000  1
   2209   2206   2218   2221     1  0.0000000  0.6694400  3
   2210   2209   2217   2220     1  0.0000000  1.0460000  1
   2210   2209   2217   2220     1  0.0000000  0.6694400  3
   2211   2210   2216   2222     1  0.0000000  1.0460000  1
   2211   2210   2216   2222     1  0.0000000  0.6694400  3
   2211   2210   2209   2213     1  0.0000000  0.6508444  3
   2212   2210   2211   2215     1  0.0000000  1.0460000  1
   2212   2210   2211   2215     1  0.0000000  0.0000000  3
   2212   2210   2211   2227     1  0.0000000  1.0460000  1
   2212   2210   2211   2227     1  0.0000000  0.0000000  3
   2212   2210   2211   2214     1  0.0000000  0.6508444  3
   2212   2210   2216   2222     1  0.0000000  0.6973333  3
   2212   2210   2209   2217     1  0.0000000  1.0460000  1
   2212   2210   2209   2217     1  0.0000000  0.0000000  3
   2212   2210   2209   2213     1  0.0000000  0.6508444  3
   2213   2209   2210   2216     1  0.0000000  1.0460000  1
   2213   2209   2210   2216     1  0.0000000  0.0000000  3
   2213   2209   2217   2220     1  0.0000000  0.6973333  3
   2213   2209   2206   2218     1  0.0000000  1.0460000  1
   2213   2209   2206   2218     1  0.0000000  0.0000000  3
   2214   2211   2210   2216     1  0.0000000  0.6508444  3
   2223   2219   2225   2226     1  0.0000000  0.6973333  3
   2223   2219   2205   2227     1  0.0000000  1.0460000  1
   2223   2219   2205   2227     1  0.0000000  0.0000000  3
   2224   2219   2225   2226     1  0.0000000  0.6973333  3
   2224   2219   2205   2227     1  0.0000000  1.0460000  1
   2224   2219   2205   2227     1  0.0000000  0.0000000  3
   2228   2229   2232   2236     1  0.0000000  0.6508444  3
   2228   2229   2241   2244     1  0.0000000  1.0460000  1
   2228   2229   2241   2244     1  0.0000000  0.6694400  3
   2228   2242   2248   2249     1  0.0000000  1.0460000  1
   2228   2242   2248   2249     1  0.0000000  0.6694400  3
   2228   2250   2234   2237     1  0.0000000  1.6038667  3
   2229   2228   2242   2246     1  0.0000000  0.6508444  3
   2229   2228   2242   2247     1  0.0000000  0.6508444  3
   2229   2232   2233   2235     1  0.0000000  0.6508444  3
   2229   2232   2240   2243     1  0.0000000  1.0460000  1
   2229   2232   2240   2243     1  0.0000000  0.6694400  3
   2230   2228   2229   2232     1  0.0000000  0.6508444  3
   2230   2228   2229   2241     1  0.0000000  1.0460000  1
   2230   2228   2229   2241     1  0.0000000  0.0000000  3
   2230   2228   2229   2231     1  0.0000000  0.6508444  3
   2230   2228   2242   2248     1  0.0000000  1.0460000  1
   2230   2228   2242   2248     1  0.0000000  0.0000000  3
   2230   2228   2242   2246     1  0.0000000  0.6508444  3
   2230   2228   2242   2247     1  0.0000000  0.6508444  3
   2230   2228   2250   2234     1  0.0000000  1.6038667  3
   2231   2229   2228   2242     1  0.0000000  0.6508444  3
   2231   2229   2228   2250     1  0.0000000  1.0460000  1
   2231   2229   2228   2250     1  0.0000000  0.0000000  3
   2231   2229   2232   2233     1  0.0000000  0.6508444  3
   2231   2229   2232   2240     1  0.0000000  1.0460000  1
   2231   2229   2232   2240     1  0.0000000  0.0000000  3
   2231   2229   2232   2236     1  0.0000000  0.6508444  3
   2231   2229   2241   2244     1  0.0000000  0.6973333  3
   2232   2229   2241   2244     1  0.0000000  1.0460000  1
   2232   2229   2241   2244     1  0.0000000  0.6694400  3
   2232   2233   2234   2237     1  0.0000000  0.6508444  3
   2232   2233   2239   2245     1  0.0000000  1.0460000  1
   2232   2233   2239   2245     1  0.0000000  0.6694400  3
   2233   2232   2240   2243     1  0.0000000  1.0460000  1
   2233   2232   2240   2243     1  0.0000000  0.6694400  3
   2234   2233   2232   2236     1  0.0000000  0.6508444  3
   2234   2233   2239   2245     1  0.0000000  1.0460000  1
   2234   2233   2239   2245     1  0.0000000  0.6694400  3
   2235   2233   2232   2240     1  0.0000000  1.0460000  1
   2235   2233   2232   2240     1  0.0000000  0.0000000  3
   2235   2233   2232   2236     1  0.0000000  0.6508444  3
   2235   2233   2234   2238     1  0.0000000  1.0460000  1
   2235   2233   2234   2238     1  0.0000000  0.0000000  3
   2235   2233   2234   2250     1  0.0000000  1.0460000  1
   2235   2233   2234   2250     1  0.0000000  0.0000000  3
   2235   2233   2234   2237     1  0.0000000  0.6508444  3
   2235   2233   2239   2245     1  0.0000000  0.6973333  3
   2236   2232   2229   2241     1  0.0000000  1.0460000  1
   2236   2232   2229   2241     1  0.0000000  0.0000000  3
   2236   2232   2233   2239     1  0.0000000  1.0460000  1
   2236   2232   2233   2239     1  0.0000000  0.0000000  3
   2236   2232   2240   2243     1  0.0000000  0.6973333  3
   2237   2234   2233   2239     1  0.0000000  0.6508444  3
   2246   2242   2228   2250     1  0.0000000  1.0460000  1
   2246   2242   2228   2250     1  0.0000000  0.0000000  3
   2246   2242   2248   2249     1  0.0000000  0.6973333  3
   2247   2242   2228   2250     1  0.0000000  1.0460000  1
   2247   2242   2228   2250     1  0.0000000  0.0000000  3
   2247   2242   2248   2249     1  0.0000000  0.6973333  3
   2251   2252   2255   2259     1  0.0000000  0.6508444  3
   2251   2252   2264   2267     1  0.0000000  1.0460000  1
   2251   2252   2264   2267     1  0.0000000  0.6694400  3
   2251   2265   2271   2272     1  0.0000000  1.0460000  1
   2251   2265   2271   2272     1  0.0000000  0.6694400  3
   2251   2273   2257   2260     1  0.0000000  1.6038667  3
   2252   2255   2256   2258     1  0.0000000  0.6508444  3
   2252   2255   2263   2266     1  0.0000000  1.0460000  1
   2252   2255   2263   2266     1  0.0000000  0.6694400  3
   2252   2251   2265   2269     1  0.0000000  0.6508444  3
   2252   2251   2265   2270     1  0.0000000  0.6508444  3
   2253   2251   2252   2255     1  0.0000000  0.6508444  3
   2253   2251   2252   2264     1  0.0000000  1.0460000  1
   2253   2251   2252   2264     1  0.0000000  0.0000000  3
   2253   2251   2252   2254     1  0.0000000  0.6508444  3
   2253   2251   2265   2271     1  0.0000000  1.0460000  1
   2253   2251   2265   2271     1  0.0000000  0.0000000  3
   2253   2251   2265   2269     1  0.0000000  0.6508444  3
   2253   2251   2265   2270     1  0.0000000  0.6508444  3
   2253   2251   2273   2257     1  0.0000000  1.6038667  3
   2254   2252   2255   2256     1  0.0000000  0.6508444  3
   2254   2252   2255   2263     1  0.0000000  1.0460000  1
   2254   2252   2255   2263     1  0.0000000  0.0000000  3
   2254   2252   2255   2259     1  0.0000000  0.6508444  3
   2254   2252   2264   2267     1  0.0000000  0.6973333  3
   2254   2252   2251   2265     1  0.0000000  0.6508444  3
   2254   2252   2251   2273     1  0.0000000  1.0460000  1
   2254   2252   2251   2273     1  0.0000000  0.0000000  3
   2255   2256   2257   2260     1  0.0000000  0.6508444  3
   2255   2256   2262   2268     1  0.0000000  1.0460000  1
   2255   2256   2262   2268     1  0.0000000  0.6694400  3
   2255   2252   2264   2267     1  0.0000000  1.0460000  1
   2255   2252   2264   2267     1  0.0000000  0.6694400  3
   2256   2255   2263   2266     1  0.0000000  1.0460000  1
   2256   2255   2263   2266     1  0.0000000  0.6694400  3
   2257   2256   2262   2268     1  0.0000000  1.0460000  1
   2257   2256   2262   2268     1  0.0000000  0.6694400  3
   2257   2256   2255   2259     1  0.0000000  0.6508444  3
   2258   2256   2257   2261     1  0.0000000  1.0460000  1
   2258   2256   2257   2261     1  0.0000000  0.0000000  3
   2258   2256   2257   2273     1  0.0000000  1.0460000  1
   2258   2256   2257   2273     1  0.0000000  0.0000000  3
   2258   2256   2257   2260     1  0.0000000  0.6508444  3
   2258   2256   2262   2268     1  0.0000000  0.6973333  3
   2258   2256   2255   2263     1  0.0000000  1.0460000  1
   2258   2256   2255   2263     1  0.0000000  0.0000000  3
   2258   2256   2255   2259     1  0.0000000  0.6508444  3
   2259   2255   2256   2262     1  0.0000000  1.0460000  1
   2259   2255   2256   2262     1  0.0000000  0.0000000  3
   2259   2255   2263   2266     1  0.0000000  0.6973333  3
   2259   2255   2252   2264     1  0.0000000  1.0460000  1
   2259   2255   2252   2264     1  0.0000000  0.0000000  3
   2260   2257   2256   2262     1  0.0000000  0.6508444  3
   2269   2265   2271   2272     1  0.0000000  0.6973333  3
   2269   2265   2251   2273     1  0.0000000  1.0460000  1
   2269   2265   2251   2273     1  0.0000000  0.0000000  3
   2270   2265   2271   2272     1  0.0000000  0.6973333  3
   2270   2265   2251   2273     1  0.0000000  1.0460000  1
   2270   2265   2251   2273     1  0.0000000  0.0000000  3
   2274   2275   2278   2282     1  0.0000000  0.6508444  3
   2274   2275   2287   2290     1  0.0000000  1.0460000  1
   2274   2275   2287   2290     1  0.0000000  0.6694400  3
   2274   2288   2294   2295     1  0.0000000  1.0460000  1
   2274   2288   2294   2295     1  0.0000000  0.6694400  3
   2274   2296   2280   2283     1  0.0000000  1.6038667  3
   2275   2274   2288   2292     1  0.0000000  0.6508444  3
   2275   2274   2288   2293     1  0.0000000  0.6508444  3
   2275   2278   2279   2281     1  0.0000000  0.6508444  3
   2275   2278   2286   2289     1  0.0000000  1.0460000  1
   2275   2278   2286   2289     1  0.0000000  0.6694400  3
   2276   2274   2275   2278     1  0.0000000  0.6508444  3
   2276   2274   2275   2287     1  0.0000000  1.0460000  1
   2276   2274   2275   2287     1  0.0000000  0.0000000  3
   2276   2274   2275   2277     1  0.0000000  0.6508444  3
   2276   2274   2288   2294     1  0.0000000  1.0460000  1
   2276   2274   2288   2294     1  0.0000000  0.0000000  3
   2276   2274   2288   2292     1  0.0000000  0.6508444  3
   2276   2274   2288   2293     1  0.0000000  0.6508444  3
   2276   2274   2296   2280     1  0.0000000  1.6038667  3
   2277   2275   2274   2288     1  0.0000000  0.6508444  3
   2277   2275   2274   2296     1  0.0000000  1.0460000  1
   2277   2275   2274   2296     1  0.0000000  0.0000000  3
   2277   2275   2278   2279     1  0.0000000  0.6508444  3
   2277   2275   2278   2286     1  0.0000000  1.0460000  1
   2277   2275   2278   2286     1  0.0000000  0.0000000  3
   2277   2275   2278   2282     1  0.0000000  0.6508444  3
   2277   2275   2287   2290     1  0.0000000  0.6973333  3
   2278   2275   2287   2290     1  0.0000000  1.0460000  1
   2278   2275   2287   2290     1  0.0000000  0.6694400  3
   2278   2279   2280   2283     1  0.0000000  0.6508444  3
   2278   2279   2285   2291     1  0.0000000  1.0460000  1
   2278   2279   2285   2291     1  0.0000000  0.6694400  3
   2279   2278   2286   2289     1  0.0000000  1.0460000  1
   2279   2278   2286   2289     1  0.0000000  0.6694400  3
   2280   2279   2278   2282     1  0.0000000  0.6508444  3
   2280   2279   2285   2291     1  0.0000000  1.0460000  1
   2280   2279   2285   2291     1  0.0000000  0.6694400  3
   2281   2279   2278   2286     1  0.0000000  1.0460000  1
   2281   2279   2278   2286     1  0.0000000  0.0000000  3
   2281   2279   2278   2282     1  0.0000000  0.6508444  3
   2281   2279   2280   2284     1  0.0000000  1.0460000  1
   2281   2279   2280   2284     1  0.0000000  0.0000000  3
   2281   2279   2280   2296     1  0.0000000  1.0460000  1
   2281   2279   2280   2296     1  0.0000000  0.0000000  3
   2281   2279   2280   2283     1  0.0000000  0.6508444  3
   2281   2279   2285   2291     1  0.0000000  0.6973333  3
   2282   2278   2275   2287     1  0.0000000  1.0460000  1
   2282   2278   2275   2287     1  0.0000000  0.0000000  3
   2282   2278   2279   2285     1  0.0000000  1.0460000  1
   2282   2278   2279   2285     1  0.0000000  0.0000000  3
   2282   2278   2286   2289     1  0.0000000  0.6973333  3
   2283   2280   2279   2285     1  0.0000000  0.6508444  3
   2292   2288   2274   2296     1  0.0000000  1.0460000  1
   2292   2288   2274   2296     1  0.0000000  0.0000000  3
   2292   2288   2294   2295     1  0.0000000  0.6973333  3
   2293   2288   2274   2296     1  0.0000000  1.0460000  1
   2293   2288   2274   2296     1  0.0000000  0.0000000  3
   2293   2288   2294   2295     1  0.0000000  0.6973333  3
   2297   2298   2301   2305     1  0.0000000  0.6508444  3
   2297   2298   2310   2313     1  0.0000000  1.0460000  1
   2297   2298   2310   2313     1  0.0000000  0.6694400  3
   2297   2311   2317   2318     1  0.0000000  1.0460000  1
   2297   2311   2317   2318     1  0.0000000  0.6694400  3
   2297   2319   2303   2306     1  0.0000000  1.6038667  3
   2298   2301   2302   2304     1  0.0000000  0.6508444  3
   2298   2301   2309   2312     1  0.0000000  1.0460000  1
   2298   2301   2309   2312     1  0.0000000  0.6694400  3
   2298   2297   2311   2315     1  0.0000000  0.6508444  3
   2298   2297   2311   2316     1  0.0000000  0.6508444  3
   2299   2297   2298   2301     1  0.0000000  0.6508444  3
   2299   2297   2298   2310     1  0.0000000  1.0460000  1
   2299   2297   2298   2310     1  0.0000000  0.0000000  3
   2299   2297   2298   2300     1  0.0000000  0.6508444  3
   2299   2297   2311   2317     1  0.0000000  1.0460000  1
   2299   2297   2311   2317     1  0.0000000  0.0000000  3
   2299   2297   2311   2315     1  0.0000000  0.6508444  3
   2299   2297   2311   2316     1  0.0000000  0.6508444  3
   2299   2297   2319   2303     1  0.0000000  1.6038667  3
   2300   2298   2301   2302     1  0.0000000  0.6508444  3
   2300   2298   2301   2309     1  0.0000000  1.0460000  1
   2300   2298   2301   2309     1  0.0000000  0.0000000  3
   2300   2298   2301   2305     1  0.0000000  0.6508444  3
   2300   2298   2310   2313     1  0.0000000  0.6973333  3
   2300   2298   2297   2311     1  0.0000000  0.6508444  3
   2300   2298   2297   2319     1  0.0000000  1.0460000  1
   2300   2298   2297   2319     1  0.0000000  0.0000000  3
   2301   2302   2303   2306     1  0.0000000  0.6508444  3
   2301   2302   2308   2314     1  0.0000000  1.0460000  1
   2301   2302   2308   2314     1  0.0000000  0.6694400  3
   2301   2298   2310   2313     1  0.0000000  1.0460000  1
   2301   2298   2310   2313     1  0.0000000  0.6694400  3
   2302   2301   2309   2312     1  0.0000000  1.0460000  1
   2302   2301   2309   2312     1  0.0000000  0.6694400  3
   2303   2302   2308   2314     1  0.0000000  1.0460000  1
   2303   2302   2308   2314     1  0.0000000  0.6694400  3
   2303   2302   2301   2305     1  0.0000000  0.6508444  3
   2304   2302   2303   2307     1  0.0000000  1.0460000  1
   2304   2302   2303   2307     1  0.0000000  0.0000000  3
   2304   2302   2303   2319     1  0.0000000  1.0460000  1
   2304   2302   2303   2319     1  0.0000000  0.0000000  3
   2304   2302   2303   2306     1  0.0000000  0.6508444  3
   2304   2302   2308   2314     1  0.0000000  0.6973333  3
   2304   2302   2301   2309     1  0.0000000  1.0460000  1
   2304   2302   2301   2309     1  0.0000000  0.0000000  3
   2304   2302   2301   2305     1  0.0000000  0.6508444  3
   2305   2301   2302   2308     1  0.0000000  1.0460000  1
   2305   2301   2302   2308     1  0.0000000  0.0000000  3
   2305   2301   2309   2312     1  0.0000000  0.6973333  3
   2305   2301   2298   2310     1  0.0000000  1.0460000  1
   2305   2301   2298   2310     1  0.0000000  0.0000000  3
   2306   2303   2302   2308     1  0.0000000  0.6508444  3
   2315   2311   2317   2318     1  0.0000000  0.6973333  3
   2315   2311   2297   2319     1  0.0000000  1.0460000  1
   2315   2311   2297   2319     1  0.0000000  0.0000000  3
   2316   2311   2317   2318     1  0.0000000  0.6973333  3
   2316   2311   2297   2319     1  0.0000000  1.0460000  1
   2316   2311   2297   2319     1  0.0000000  0.0000000  3
   2320   2321   2324   2328     1  0.0000000  0.6508444  3
   2320   2321   2333   2336     1  0.0000000  1.0460000  1
   2320   2321   2333   2336     1  0.0000000  0.6694400  3
   2320   2334   2340   2341     1  0.0000000  1.0460000  1
   2320   2334   2340   2341     1  0.0000000  0.6694400  3
   2320   2342   2326   2329     1  0.0000000  1.6038667  3
   2321   2320   2334   2338     1  0.0000000  0.6508444  3
   2321   2320   2334   2339     1  0.0000000  0.6508444  3
   2321   2324   2325   2327     1  0.0000000  0.6508444  3
   2321   2324   2332   2335     1  0.0000000  1.0460000  1
   2321   2324   2332   2335     1  0.0000000  0.6694400  3
   2322   2320   2321   2324     1  0.0000000  0.6508444  3
   2322   2320   2321   2333     1  0.0000000  1.0460000  1
   2322   2320   2321   2333     1  0.0000000  0.0000000  3
   2322   2320   2321   2323     1  0.0000000  0.6508444  3
   2322   2320   2334   2340     1  0.0000000  1.0460000  1
   2322   2320   2334   2340     1  0.0000000  0.0000000  3
   2322   2320   2334   2338     1  0.0000000  0.6508444  3
   2322   2320   2334   2339     1  0.0000000  0.6508444  3
   2322   2320   2342   2326     1  0.0000000  1.6038667  3
   2323   2321   2320   2334     1  0.0000000  0.6508444  3
   2323   2321   2320   2342     1  0.0000000  1.0460000  1
   2323   2321   2320   2342     1  0.0000000  0.0000000  3
   2323   2321   2324   2325     1  0.0000000  0.6508444  3
   2323   2321   2324   2332     1  0.0000000  1.0460000  1
   2323   2321   2324   2332     1  0.0000000  0.0000000  3
   2323   2321   2324   2328     1  0.0000000  0.6508444  3
   2323   2321   2333   2336     1  0.0000000  0.6973333  3
   2324   2321   2333   2336     1  0.0000000  1.0460000  1
   2324   2321   2333   2336     1  0.0000000  0.6694400  3
   2324   2325   2326   2329     1  0.0000000  0.6508444  3
   2324   2325   2331   2337     1  0.0000000  1.0460000  1
   2324   2325   2331   2337     1  0.0000000  0.6694400  3
   2325   2324   2332   2335     1  0.0000000  1.0460000  1
   2325   2324   2332   2335     1  0.0000000  0.6694400  3
   2326   2325   2324   2328     1  0.0000000  0.6508444  3
   2326   2325   2331   2337     1  0.0000000  1.0460000  1
   2326   2325   2331   2337     1  0.0000000  0.6694400  3
   2327   2325   2324   2332     1  0.0000000  1.0460000  1
   2327   2325   2324   2332     1  0.0000000  0.0000000  3
   2327   2325   2324   2328     1  0.0000000  0.6508444  3
   2327   2325   2326   2330     1  0.0000000  1.0460000  1
   2327   2325   2326   2330     1  0.0000000  0.0000000  3
   2327   2325   2326   2342     1  0.0000000  1.0460000  1
   2327   2325   2326   2342     1  0.0000000  0.0000000  3
   2327   2325   2326   2329     1  0.0000000  0.6508444  3
   2327   2325   2331   2337     1  0.0000000  0.6973333  3
   2328   2324   2321   2333     1  0.0000000  1.0460000  1
   2328   2324   2321   2333     1  0.0000000  0.0000000  3
   2328   2324   2325   2331     1  0.0000000  1.0460000  1
   2328   2324   2325   2331     1  0.0000000  0.0000000  3
   2328   2324   2332   2335     1  0.0000000  0.6973333  3
   2329   2326   2325   2331     1  0.0000000  0.6508444  3
   2338   2334   2320   2342     1  0.0000000  1.0460000  1
   2338   2334   2320   2342     1  0.0000000  0.0000000  3
   2338   2334   2340   2341     1  0.0000000  0.6973333  3
   2339   2334   2320   2342     1  0.0000000  1.0460000  1
   2339   2334   2320   2342     1  0.0000000  0.0000000  3
   2339   2334   2340   2341     1  0.0000000  0.6973333  3
   2343   2344   2347   2351     1  0.0000000  0.6508444  3
   2343   2344   2356   2359     1  0.0000000  1.0460000  1
   2343   2344   2356   2359     1  0.0000000  0.6694400  3
   2343   2357   2363   2364     1  0.0000000  1.0460000  1
   2343   2357   2363   2364     1  0.0000000  0.6694400  3
   2343   2365   2349   2352     1  0.0000000  1.6038667  3
   2344   2347   2348   2350     1  0.0000000  0.6508444  3
   2344   2347   2355   2358     1  0.0000000  1.0460000  1
   2344   2347   2355   2358     1  0.0000000  0.6694400  3
   2344   2343   2357   2361     1  0.0000000  0.6508444  3
   2344   2343   2357   2362     1  0.0000000  0.6508444  3
   2345   2343   2344   2347     1  0.0000000  0.6508444  3
   2345   2343   2344   2356     1  0.0000000  1.0460000  1
   2345   2343   2344   2356     1  0.0000000  0.0000000  3
   2345   2343   2344   2346     1  0.0000000  0.6508444  3
   2345   2343   2357   2363     1  0.0000000  1.0460000  1
   2345   2343   2357   2363     1  0.0000000  0.0000000  3
   2345   2343   2357   2361     1  0.0000000  0.6508444  3
   2345   2343   2357   2362     1  0.0000000  0.6508444  3
   2345   2343   2365   2349     1  0.0000000  1.6038667  3
   2346   2344   2347   2348     1  0.0000000  0.6508444  3
   2346   2344   2347   2355     1  0.0000000  1.0460000  1
   2346   2344   2347   2355     1  0.0000000  0.0000000  3
   2346   2344   2347   2351     1  0.0000000  0.6508444  3
   2346   2344   2356   2359     1  0.0000000  0.6973333  3
   2346   2344   2343   2357     1  0.0000000  0.6508444  3
   2346   2344   2343   2365     1  0.0000000  1.0460000  1
   2346   2344   2343   2365     1  0.0000000  0.0000000  3
   2347   2348   2349   2352     1  0.0000000  0.6508444  3
   2347   2348   2354   2360     1  0.0000000  1.0460000  1
   2347   2348   2354   2360     1  0.0000000  0.6694400  3
   2347   2344   2356   2359     1  0.0000000  1.0460000  1
   2347   2344   2356   2359     1  0.0000000  0.6694400  3
   2348   2347   2355   2358     1  0.0000000  1.0460000  1
   2348   2347   2355   2358     1  0.0000000  0.6694400  3
   2349   2348   2354   2360     1  0.0000000  1.0460000  1
   2349   2348   2354   2360     1  0.0000000  0.6694400  3
   2349   2348   2347   2351     1  0.0000000  0.6508444  3
   2350   2348   2349   2353     1  0.0000000  1.0460000  1
   2350   2348   2349   2353     1  0.0000000  0.0000000  3
   2350   2348   2349   2365     1  0.0000000  1.0460000  1
   2350   2348   2349   2365     1  0.0000000  0.0000000  3
   2350   2348   2349   2352     1  0.0000000  0.6508444  3
   2350   2348   2354   2360     1  0.0000000  0.6973333  3
   2350   2348   2347   2355     1  0.0000000  1.0460000  1
   2350   2348   2347   2355     1  0.0000000  0.0000000  3
   2350   2348   2347   2351     1  0.0000000  0.6508444  3
   2351   2347   2348   2354     1  0.0000000  1.0460000  1
   2351   2347   2348   2354     1  0.0000000  0.0000000  3
   2351   2347   2355   2358     1  0.0000000  0.6973333  3
   2351   2347   2344   2356     1  0.0000000  1.0460000  1
   2351   2347   2344   2356     1  0.0000000  0.0000000  3
   2352   2349   2348   2354     1  0.0000000  0.6508444  3
   2361   2357   2363   2364     1  0.0000000  0.6973333  3
   2361   2357   2343   2365     1  0.0000000  1.0460000  1
   2361   2357   2343   2365     1  0.0000000  0.0000000  3
   2362   2357   2363   2364     1  0.0000000  0.6973333  3
   2362   2357   2343   2365     1  0.0000000  1.0460000  1
   2362   2357   2343   2365     1  0.0000000  0.0000000  3
   2366   2367   2370   2374     1  0.0000000  0.6508444  3
   2366   2367   2379   2382     1  0.0000000  1.0460000  1
   2366   2367   2379   2382     1  0.0000000  0.6694400  3
   2366   2380   2386   2387     1  0.0000000  1.0460000  1
   2366   2380   2386   2387     1  0.0000000  0.6694400  3
   2366   2388   2372   2375     1  0.0000000  1.6038667  3
   2367   2366   2380   2384     1  0.0000000  0.6508444  3
   2367   2366   2380   2385     1  0.0000000  0.6508444  3
   2367   2370   2371   2373     1  0.0000000  0.6508444  3
   2367   2370   2378   2381     1  0.0000000  1.0460000  1
   2367   2370   2378   2381     1  0.0000000  0.6694400  3
   2368   2366   2367   2370     1  0.0000000  0.6508444  3
   2368   2366   2367   2379     1  0.0000000  1.0460000  1
   2368   2366   2367   2379     1  0.0000000  0.0000000  3
   2368   2366   2367   2369     1  0.0000000  0.6508444  3
   2368   2366   2380   2386     1  0.0000000  1.0460000  1
   2368   2366   2380   2386     1  0.0000000  0.0000000  3
   2368   2366   2380   2384     1  0.0000000  0.6508444  3
   2368   2366   2380   2385     1  0.0000000  0.6508444  3
   2368   2366   2388   2372     1  0.0000000  1.6038667  3
   2369   2367   2366   2380     1  0.0000000  0.6508444  3
   2369   2367   2366   2388     1  0.0000000  1.0460000  1
   2369   2367   2366   2388     1  0.0000000  0.0000000  3
   2369   2367   2370   2371     1  0.0000000  0.6508444  3
   2369   2367   2370   2378     1  0.0000000  1.0460000  1
   2369   2367   2370   2378     1  0.0000000  0.0000000  3
   2369   2367   2370   2374     1  0.0000000  0.6508444  3
   2369   2367   2379   2382     1  0.0000000  0.6973333  3
   2370   2367   2379   2382     1  0.0000000  1.0460000  1
   2370   2367   2379   2382     1  0.0000000  0.6694400  3
   2370   2371   2372   2375     1  0.0000000  0.6508444  3
   2370   2371   2377   2383     1  0.0000000  1.0460000  1
   2370   2371   2377   2383     1  0.0000000  0.6694400  3
   2371   2370   2378   2381     1  0.0000000  1.0460000  1
   2371   2370   2378   2381     1  0.0000000  0.6694400  3
   2372   2371   2370   2374     1  0.0000000  0.6508444  3
   2372   2371   2377   2383     1  0.0000000  1.0460000  1
   2372   2371   2377   2383     1  0.0000000  0.6694400  3
   2373   2371   2370   2378     1  0.0000000  1.0460000  1
   2373   2371   2370   2378     1  0.0000000  0.0000000  3
   2373   2371   2370   2374     1  0.0000000  0.6508444  3
   2373   2371   2372   2376     1  0.0000000  1.0460000  1
   2373   2371   2372   2376     1  0.0000000  0.0000000  3
   2373   2371   2372   2388     1  0.0000000  1.0460000  1
   2373   2371   2372   2388     1  0.0000000  0.0000000  3
   2373   2371   2372   2375     1  0.0000000  0.6508444  3
   2373   2371   2377   2383     1  0.0000000  0.6973333  3
   2374   2370   2367   2379     1  0.0000000  1.0460000  1
   2374   2370   2367   2379     1  0.0000000  0.0000000  3
   2374   2370   2371   2377     1  0.0000000  1.0460000  1
   2374   2370   2371   2377     1  0.0000000  0.0000000  3
   2374   2370   2378   2381     1  0.0000000  0.6973333  3
   2375   2372   2371   2377     1  0.0000000  0.6508444  3
   2384   2380   2366   2388     1  0.0000000  1.0460000  1
   2384   2380   2366   2388     1  0.0000000  0.0000000  3
   2384   2380   2386   2387     1  0.0000000  0.6973333  3
   2385   2380   2366   2388     1  0.0000000  1.0460000  1
   2385   2380   2366   2388     1  0.0000000  0.0000000  3
   2385   2380   2386   2387     1  0.0000000  0.6973333  3
   2389   2390   2393   2397     1  0.0000000  0.6508444  3
   2389   2390   2402   2405     1  0.0000000  1.0460000  1
   2389   2390   2402   2405     1  0.0000000  0.6694400  3
   2389   2403   2409   2410     1  0.0000000  1.0460000  1
   2389   2403   2409   2410     1  0.0000000  0.6694400  3
   2389   2411   2395   2398     1  0.0000000  1.6038667  3
   2390   2393   2394   2396     1  0.0000000  0.6508444  3
   2390   2393   2401   2404     1  0.0000000  1.0460000  1
   2390   2393   2401   2404     1  0.0000000  0.6694400  3
   2390   2389   2403   2407     1  0.0000000  0.6508444  3
   2390   2389   2403   2408     1  0.0000000  0.6508444  3
   2391   2389   2390   2393     1  0.0000000  0.6508444  3
   2391   2389   2390   2402     1  0.0000000  1.0460000  1
   2391   2389   2390   2402     1  0.0000000  0.0000000  3
   2391   2389   2390   2392     1  0.0000000  0.6508444  3
   2391   2389   2403   2409     1  0.0000000  1.0460000  1
   2391   2389   2403   2409     1  0.0000000  0.0000000  3
   2391   2389   2403   2407     1  0.0000000  0.6508444  3
   2391   2389   2403   2408     1  0.0000000  0.6508444  3
   2391   2389   2411   2395     1  0.0000000  1.6038667  3
   2392   2390   2393   2394     1  0.0000000  0.6508444  3
   2392   2390   2393   2401     1  0.0000000  1.0460000  1
   2392   2390   2393   2401     1  0.0000000  0.0000000  3
   2392   2390   2393   2397     1  0.0000000  0.6508444  3
   2392   2390   2402   2405     1  0.0000000  0.6973333  3
   2392   2390   2389   2403     1  0.0000000  0.6508444  3
   2392   2390   2389   2411     1  0.0000000  1.0460000  1
   2392   2390   2389   2411     1  0.0000000  0.0000000  3
   2393   2394   2395   2398     1  0.0000000  0.6508444  3
   2393   2394   2400   2406     1  0.0000000  1.0460000  1
   2393   2394   2400   2406     1  0.0000000  0.6694400  3
   2393   2390   2402   2405     1  0.0000000  1.0460000  1
   2393   2390   2402   2405     1  0.0000000  0.6694400  3
   2394   2393   2401   2404     1  0.0000000  1.0460000  1
   2394   2393   2401   2404     1  0.0000000  0.6694400  3
   2395   2394   2400   2406     1  0.0000000  1.0460000  1
   2395   2394   2400   2406     1  0.0000000  0.6694400  3
   2395   2394   2393   2397     1  0.0000000  0.6508444  3
   2396   2394   2395   2399     1  0.0000000  1.0460000  1
   2396   2394   2395   2399     1  0.0000000  0.0000000  3
   2396   2394   2395   2411     1  0.0000000  1.0460000  1
   2396   2394   2395   2411     1  0.0000000  0.0000000  3
   2396   2394   2395   2398     1  0.0000000  0.6508444  3
   2396   2394   2400   2406     1  0.0000000  0.6973333  3
   2396   2394   2393   2401     1  0.0000000  1.0460000  1
   2396   2394   2393   2401     1  0.0000000  0.0000000  3
   2396   2394   2393   2397     1  0.0000000  0.6508444  3
   2397   2393   2394   2400     1  0.0000000  1.0460000  1
   2397   2393   2394   2400     1  0.0000000  0.0000000  3
   2397   2393   2401   2404     1  0.0000000  0.6973333  3
   2397   2393   2390   2402     1  0.0000000  1.0460000  1
   2397   2393   2390   2402     1  0.0000000  0.0000000  3
   2398   2395   2394   2400     1  0.0000000  0.6508444  3
   2407   2403   2409   2410     1  0.0000000  0.6973333  3
   2407   2403   2389   2411     1  0.0000000  1.0460000  1
   2407   2403   2389   2411     1  0.0000000  0.0000000  3
   2408   2403   2409   2410     1  0.0000000  0.6973333  3
   2408   2403   2389   2411     1  0.0000000  1.0460000  1
   2408   2403   2389   2411     1  0.0000000  0.0000000  3
   2412   2413   2416   2420     1  0.0000000  0.6508444  3
   2412   2413   2425   2428     1  0.0000000  1.0460000  1
   2412   2413   2425   2428     1  0.0000000  0.6694400  3
   2412   2426   2432   2433     1  0.0000000  1.0460000  1
   2412   2426   2432   2433     1  0.0000000  0.6694400  3
   2412   2434   2418   2421     1  0.0000000  1.6038667  3
   2413   2412   2426   2430     1  0.0000000  0.6508444  3
   2413   2412   2426   2431     1  0.0000000  0.6508444  3
   2413   2416   2417   2419     1  0.0000000  0.6508444  3
   2413   2416   2424   2427     1  0.0000000  1.0460000  1
   2413   2416   2424   2427     1  0.0000000  0.6694400  3
   2414   2412   2413   2416     1  0.0000000  0.6508444  3
   2414   2412   2413   2425     1  0.0000000  1.0460000  1
   2414   2412   2413   2425     1  0.0000000  0.0000000  3
   2414   2412   2413   2415     1  0.0000000  0.6508444  3
   2414   2412   2426   2432     1  0.0000000  1.0460000  1
   2414   2412   2426   2432     1  0.0000000  0.0000000  3
   2414   2412   2426   2430     1  0.0000000  0.6508444  3
   2414   2412   2426   2431     1  0.0000000  0.6508444  3
   2414   2412   2434   2418     1  0.0000000  1.6038667  3
   2415   2413   2412   2426     1  0.0000000  0.6508444  3
   2415   2413   2412   2434     1  0.0000000  1.0460000  1
   2415   2413   2412   2434     1  0.0000000  0.0000000  3
   2415   2413   2416   2417     1  0.0000000  0.6508444  3
   2415   2413   2416   2424     1  0.0000000  1.0460000  1
   2415   2413   2416   2424     1  0.0000000  0.0000000  3
   2415   2413   2416   2420     1  0.0000000  0.6508444  3
   2415   2413   2425   2428     1  0.0000000  0.6973333  3
   2416   2413   2425   2428     1  0.0000000  1.0460000  1
   2416   2413   2425   2428     1  0.0000000  0.6694400  3
   2416   2417   2418   2421     1  0.0000000  0.6508444  3
   2416   2417   2423   2429     1  0.0000000  1.0460000  1
   2416   2417   2423   2429     1  0.0000000  0.6694400  3
   2417   2416   2424   2427     1  0.0000000  1.0460000  1
   2417   2416   2424   2427     1  0.0000000  0.6694400  3
   2418   2417   2416   2420     1  0.0000000  0.6508444  3
   2418   2417   2423   2429     1  0.0000000  1.0460000  1
   2418   2417   2423   2429     1  0.0000000  0.6694400  3
   2419   2417   2416   2424     1  0.0000000  1.0460000  1
   2419   2417   2416   2424     1  0.0000000  0.0000000  3
   2419   2417   2416   2420     1  0.0000000  0.6508444  3
   2419   2417   2418   2422     1  0.0000000  1.0460000  1
   2419   2417   2418   2422     1  0.0000000  0.0000000  3
   2419   2417   2418   2434     1  0.0000000  1.0460000  1
   2419   2417   2418   2434     1  0.0000000  0.0000000  3
   2419   2417   2418   2421     1  0.0000000  0.6508444  3
   2419   2417   2423   2429     1  0.0000000  0.6973333  3
   2420   2416   2413   2425     1  0.0000000  1.0460000  1
   2420   2416   2413   2425     1  0.0000000  0.0000000  3
   2420   2416   2417   2423     1  0.0000000  1.0460000  1
   2420   2416   2417   2423     1  0.0000000  0.0000000  3
   2420   2416   2424   2427     1  0.0000000  0.6973333  3
   2421   2418   2417   2423     1  0.0000000  0.6508444  3
   2430   2426   2412   2434     1  0.0000000  1.0460000  1
   2430   2426   2412   2434     1  0.0000000  0.0000000  3
   2430   2426   2432   2433     1  0.0000000  0.6973333  3
   2431   2426   2412   2434     1  0.0000000  1.0460000  1
   2431   2426   2412   2434     1  0.0000000  0.0000000  3
   2431   2426   2432   2433     1  0.0000000  0.6973333  3
   2435   2436   2439   2443     1  0.0000000  0.6508444  3
   2435   2436   2448   2451     1  0.0000000  1.0460000  1
   2435   2436   2448   2451     1  0.0000000  0.6694400  3
   2435   2449   2455   2456     1  0.0000000  1.0460000  1
   2435   2449   2455   2456     1  0.0000000  0.6694400  3
   2435   2457   2441   2444     1  0.0000000  1.6038667  3
   2436   2439   2440   2442     1  0.0000000  0.6508444  3
   2436   2439   2447   2450     1  0.0000000  1.0460000  1
   2436   2439   2447   2450     1  0.0000000  0.6694400  3
   2436   2435   2449   2453     1  0.0000000  0.6508444  3
   2436   2435   2449   2454     1  0.0000000  0.6508444  3
   2437   2435   2436   2439     1  0.0000000  0.6508444  3
   2437   2435   2436   2448     1  0.0000000  1.0460000  1
   2437   2435   2436   2448     1  0.0000000  0.0000000  3
   2437   2435   2436   2438     1  0.0000000  0.6508444  3
   2437   2435   2449   2455     1  0.0000000  1.0460000  1
   2437   2435   2449   2455     1  0.0000000  0.0000000  3
   2437   2435   2449   2453     1  0.0000000  0.6508444  3
   2437   2435   2449   2454     1  0.0000000  0.6508444  3
   2437   2435   2457   2441     1  0.0000000  1.6038667  3
   2438   2436   2439   2440     1  0.0000000  0.6508444  3
   2438   2436   2439   2447     1  0.0000000  1.0460000  1
   2438   2436   2439   2447     1  0.0000000  0.0000000  3
   2438   2436   2439   2443     1  0.0000000  0.6508444  3
   2438   2436   2448   2451     1  0.0000000  0.6973333  3
   2438   2436   2435   2449     1  0.0000000  0.6508444  3
   2438   2436   2435   2457     1  0.0000000  1.0460000  1
   2438   2436   2435   2457     1  0.0000000  0.0000000  3
   2439   2440   2441   2444     1  0.0000000  0.6508444  3
   2439   2440   2446   2452     1  0.0000000  1.0460000  1
   2439   2440   2446   2452     1  0.0000000  0.6694400  3
   2439   2436   2448   2451     1  0.0000000  1.0460000  1
   2439   2436   2448   2451     1  0.0000000  0.6694400  3
   2440   2439   2447   2450     1  0.0000000  1.0460000  1
   2440   2439   2447   2450     1  0.0000000  0.6694400  3
   2441   2440   2446   2452     1  0.0000000  1.0460000  1
   2441   2440   2446   2452     1  0.0000000  0.6694400  3
   2441   2440   2439   2443     1  0.0000000  0.6508444  3
   2442   2440   2441   2445     1  0.0000000  1.0460000  1
   2442   2440   2441   2445     1  0.0000000  0.0000000  3
   2442   2440   2441   2457     1  0.0000000  1.0460000  1
   2442   2440   2441   2457     1  0.0000000  0.0000000  3
   2442   2440   2441   2444     1  0.0000000  0.6508444  3
   2442   2440   2446   2452     1  0.0000000  0.6973333  3
   2442   2440   2439   2447     1  0.0000000  1.0460000  1
   2442   2440   2439   2447     1  0.0000000  0.0000000  3
   2442   2440   2439   2443     1  0.0000000  0.6508444  3
   2443   2439   2440   2446     1  0.0000000  1.0460000  1
   2443   2439   2440   2446     1  0.0000000  0.0000000  3
   2443   2439   2447   2450     1  0.0000000  0.6973333  3
   2443   2439   2436   2448     1  0.0000000  1.0460000  1
   2443   2439   2436   2448     1  0.0000000  0.0000000  3
   2444   2441   2440   2446     1  0.0000000  0.6508444  3
   2453   2449   2455   2456     1  0.0000000  0.6973333  3
   2453   2449   2435   2457     1  0.0000000  1.0460000  1
   2453   2449   2435   2457     1  0.0000000  0.0000000  3
   2454   2449   2455   2456     1  0.0000000  0.6973333  3
   2454   2449   2435   2457     1  0.0000000  1.0460000  1
   2454   2449   2435   2457     1  0.0000000  0.0000000  3
   2458   2459   2462   2466     1  0.0000000  0.6508444  3
   2458   2459   2471   2474     1  0.0000000  1.0460000  1
   2458   2459   2471   2474     1  0.0000000  0.6694400  3
   2458   2472   2478   2479     1  0.0000000  1.0460000  1
   2458   2472   2478   2479     1  0.0000000  0.6694400  3
   2458   2480   2464   2467     1  0.0000000  1.6038667  3
   2459   2458   2472   2476     1  0.0000000  0.6508444  3
   2459   2458   2472   2477     1  0.0000000  0.6508444  3
   2459   2462   2463   2465     1  0.0000000  0.6508444  3
   2459   2462   2470   2473     1  0.0000000  1.0460000  1
   2459   2462   2470   2473     1  0.0000000  0.6694400  3
   2460   2458   2459   2462     1  0.0000000  0.6508444  3
   2460   2458   2459   2471     1  0.0000000  1.0460000  1
   2460   2458   2459   2471     1  0.0000000  0.0000000  3
   2460   2458   2459   2461     1  0.0000000  0.6508444  3
   2460   2458   2472   2478     1  0.0000000  1.0460000  1
   2460   2458   2472   2478     1  0.0000000  0.0000000  3
   2460   2458   2472   2476     1  0.0000000  0.6508444  3
   2460   2458   2472   2477     1  0.0000000  0.6508444  3
   2460   2458   2480   2464     1  0.0000000  1.6038667  3
   2461   2459   2458   2472     1  0.0000000  0.6508444  3
   2461   2459   2458   2480     1  0.0000000  1.0460000  1
   2461   2459   2458   2480     1  0.0000000  0.0000000  3
   2461   2459   2462   2463     1  0.0000000  0.6508444  3
   2461   2459   2462   2470     1  0.0000000  1.0460000  1
   2461   2459   2462   2470     1  0.0000000  0.0000000  3
   2461   2459   2462   2466     1  0.0000000  0.6508444  3
   2461   2459   2471   2474     1  0.0000000  0.6973333  3
   2462   2459   2471   2474     1  0.0000000  1.0460000  1
   2462   2459   2471   2474     1  0.0000000  0.6694400  3
   2462   2463   2464   2467     1  0.0000000  0.6508444  3
   2462   2463   2469   2475     1  0.0000000  1.0460000  1
   2462   2463   2469   2475     1  0.0000000  0.6694400  3
   2463   2462   2470   2473     1  0.0000000  1.0460000  1
   2463   2462   2470   2473     1  0.0000000  0.6694400  3
   2464   2463   2462   2466     1  0.0000000  0.6508444  3
   2464   2463   2469   2475     1  0.0000000  1.0460000  1
   2464   2463   2469   2475     1  0.0000000  0.6694400  3
   2465   2463   2462   2470     1  0.0000000  1.0460000  1
   2465   2463   2462   2470     1  0.0000000  0.0000000  3
   2465   2463   2462   2466     1  0.0000000  0.6508444  3
   2465   2463   2464   2468     1  0.0000000  1.0460000  1
   2465   2463   2464   2468     1  0.0000000  0.0000000  3
   2465   2463   2464   2480     1  0.0000000  1.0460000  1
   2465   2463   2464   2480     1  0.0000000  0.0000000  3
   2465   2463   2464   2467     1  0.0000000  0.6508444  3
   2465   2463   2469   2475     1  0.0000000  0.6973333  3
   2466   2462   2459   2471     1  0.0000000  1.0460000  1
   2466   2462   2459   2471     1  0.0000000  0.0000000  3
   2466   2462   2463   2469     1  0.0000000  1.0460000  1
   2466   2462   2463   2469     1  0.0000000  0.0000000  3
   2466   2462   2470   2473     1  0.0000000  0.6973333  3
   2467   2464   2463   2469     1  0.0000000  0.6508444  3
   2476   2472   2458   2480     1  0.0000000  1.0460000  1
   2476   2472   2458   2480     1  0.0000000  0.0000000  3
   2476   2472   2478   2479     1  0.0000000  0.6973333  3
   2477   2472   2458   2480     1  0.0000000  1.0460000  1
   2477   2472   2458   2480     1  0.0000000  0.0000000  3
   2477   2472   2478   2479     1  0.0000000  0.6973333  3
   2481   2482   2485   2489     1  0.0000000  0.6508444  3
   2481   2482   2494   2497     1  0.0000000  1.0460000  1
   2481   2482   2494   2497     1  0.0000000  0.6694400  3
   2481   2495   2501   2502     1  0.0000000  1.0460000  1
   2481   2495   2501   2502     1  0.0000000  0.6694400  3
   2481   2503   2487   2490     1  0.0000000  1.6038667  3
   2482   2485   2486   2488     1  0.0000000  0.6508444  3
   2482   2485   2493   2496     1  0.0000000  1.0460000  1
   2482   2485   2493   2496     1  0.0000000  0.6694400  3
   2482   2481   2495   2499     1  0.0000000  0.6508444  3
   2482   2481   2495   2500     1  0.0000000  0.6508444  3
   2483   2481   2482   2485     1  0.0000000  0.6508444  3
   2483   2481   2482   2494     1  0.0000000  1.0460000  1
   2483   2481   2482   2494     1  0.0000000  0.0000000  3
   2483   2481   2482   2484     1  0.0000000  0.6508444  3
   2483   2481   2495   2501     1  0.0000000  1.0460000  1
   2483   2481   2495   2501     1  0.0000000  0.0000000  3
   2483   2481   2495   2499     1  0.0000000  0.6508444  3
   2483   2481   2495   2500     1  0.0000000  0.6508444  3
   2483   2481   2503   2487     1  0.0000000  1.6038667  3
   2484   2482   2485   2486     1  0.0000000  0.6508444  3
   2484   2482   2485   2493     1  0.0000000  1.0460000  1
   2484   2482   2485   2493     1  0.0000000  0.0000000  3
   2484   2482   2485   2489     1  0.0000000  0.6508444  3
   2484   2482   2494   2497     1  0.0000000  0.6973333  3
   2484   2482   2481   2495     1  0.0000000  0.6508444  3
   2484   2482   2481   2503     1  0.0000000  1.0460000  1
   2484   2482   2481   2503     1  0.0000000  0.0000000  3
   2485   2486   2487   2490     1  0.0000000  0.6508444  3
   2485   2486   2492   2498     1  0.0000000  1.0460000  1
   2485   2486   2492   2498     1  0.0000000  0.6694400  3
   2485   2482   2494   2497     1  0.0000000  1.0460000  1
   2485   2482   2494   2497     1  0.0000000  0.6694400  3
   2486   2485   2493   2496     1  0.0000000  1.0460000  1
   2486   2485   2493   2496     1  0.0000000  0.6694400  3
   2487   2486   2492   2498     1  0.0000000  1.0460000  1
   2487   2486   2492   2498     1  0.0000000  0.6694400  3
   2487   2486   2485   2489     1  0.0000000  0.6508444  3
   2488   2486   2487   2491     1  0.0000000  1.0460000  1
   2488   2486   2487   2491     1  0.0000000  0.0000000  3
   2488   2486   2487   2503     1  0.0000000  1.0460000  1
   2488   2486   2487   2503     1  0.0000000  0.0000000  3
   2488   2486   2487   2490     1  0.0000000  0.6508444  3
   2488   2486   2492   2498     1  0.0000000  0.6973333  3
   2488   2486   2485   2493     1  0.0000000  1.0460000  1
   2488   2486   2485   2493     1  0.0000000  0.0000000  3
   2488   2486   2485   2489     1  0.0000000  0.6508444  3
   2489   2485   2486   2492     1  0.0000000  1.0460000  1
   2489   2485   2486   2492     1  0.0000000  0.0000000  3
   2489   2485   2493   2496     1  0.0000000  0.6973333  3
   2489   2485   2482   2494     1  0.0000000  1.0460000  1
   2489   2485   2482   2494     1  0.0000000  0.0000000  3
   2490   2487   2486   2492     1  0.0000000  0.6508444  3
   2499   2495   2501   2502     1  0.0000000  0.6973333  3
   2499   2495   2481   2503     1  0.0000000  1.0460000  1
   2499   2495   2481   2503     1  0.0000000  0.0000000  3
   2500   2495   2501   2502     1  0.0000000  0.6973333  3
   2500   2495   2481   2503     1  0.0000000  1.0460000  1
   2500   2495   2481   2503     1  0.0000000  0.0000000  3
   2504   2505   2508   2512     1  0.0000000  0.6508444  3
   2504   2505   2517   2520     1  0.0000000  1.0460000  1
   2504   2505   2517   2520     1  0.0000000  0.6694400  3
   2504   2518   2524   2525     1  0.0000000  1.0460000  1
   2504   2518   2524   2525     1  0.0000000  0.6694400  3
   2504   2526   2510   2513     1  0.0000000  1.6038667  3
   2505   2504   2518   2522     1  0.0000000  0.6508444  3
   2505   2504   2518   2523     1  0.0000000  0.6508444  3
   2505   2508   2509   2511     1  0.0000000  0.6508444  3
   2505   2508   2516   2519     1  0.0000000  1.0460000  1
   2505   2508   2516   2519     1  0.0000000  0.6694400  3
   2506   2504   2505   2508     1  0.0000000  0.6508444  3
   2506   2504   2505   2517     1  0.0000000  1.0460000  1
   2506   2504   2505   2517     1  0.0000000  0.0000000  3
   2506   2504   2505   2507     1  0.0000000  0.6508444  3
   2506   2504   2518   2524     1  0.0000000  1.0460000  1
   2506   2504   2518   2524     1  0.0000000  0.0000000  3
   2506   2504   2518   2522     1  0.0000000  0.6508444  3
   2506   2504   2518   2523     1  0.0000000  0.6508444  3
   2506   2504   2526   2510     1  0.0000000  1.6038667  3
   2507   2505   2504   2518     1  0.0000000  0.6508444  3
   2507   2505   2504   2526     1  0.0000000  1.0460000  1
   2507   2505   2504   2526     1  0.0000000  0.0000000  3
   2507   2505   2508   2509     1  0.0000000  0.6508444  3
   2507   2505   2508   2516     1  0.0000000  1.0460000  1
   2507   2505   2508   2516     1  0.0000000  0.0000000  3
   2507   2505   2508   2512     1  0.0000000  0.6508444  3
   2507   2505   2517   2520     1  0.0000000  0.6973333  3
   2508   2505   2517   2520     1  0.0000000  1.0460000  1
   2508   2505   2517   2520     1  0.0000000  0.6694400  3
   2508   2509   2510   2513     1  0.0000000  0.6508444  3
   2508   2509   2515   2521     1  0.0000000  1.0460000  1
   2508   2509   2515   2521     1  0.0000000  0.6694400  3
   2509   2508   2516   2519     1  0.0000000  1.0460000  1
   2509   2508   2516   2519     1  0.0000000  0.6694400  3
   2510   2509   2508   2512     1  0.0000000  0.6508444  3
   2510   2509   2515   2521     1  0.0000000  1.0460000  1
   2510   2509   2515   2521     1  0.0000000  0.6694400  3
   2511   2509   2508   2516     1  0.0000000  1.0460000  1
   2511   2509   2508   2516     1  0.0000000  0.0000000  3
   2511   2509   2508   2512     1  0.0000000  0.6508444  3
   2511   2509   2510   2514     1  0.0000000  1.0460000  1
   2511   2509   2510   2514     1  0.0000000  0.0000000  3
   2511   2509   2510   2526     1  0.0000000  1.0460000  1
   2511   2509   2510   2526     1  0.0000000  0.0000000  3
   2511   2509   2510   2513     1  0.0000000  0.6508444  3
   2511   2509   2515   2521     1  0.0000000  0.6973333  3
   2512   2508   2505   2517     1  0.0000000  1.0460000  1
   2512   2508   2505   2517     1  0.0000000  0.0000000  3
   2512   2508   2509   2515     1  0.0000000  1.0460000  1
   2512   2508   2509   2515     1  0.0000000  0.0000000  3
   2512   2508   2516   2519     1  0.0000000  0.6973333  3
   2513   2510   2509   2515     1  0.0000000  0.6508444  3
   2522   2518   2504   2526     1  0.0000000  1.0460000  1
   2522   2518   2504   2526     1  0.0000000  0.0000000  3
   2522   2518   2524   2525     1  0.0000000  0.6973333  3
   2523   2518   2504   2526     1  0.0000000  1.0460000  1
   2523   2518   2504   2526     1  0.0000000  0.0000000  3
   2523   2518   2524   2525     1  0.0000000  0.6973333  3
   2527   2528   2531   2535     1  0.0000000  0.6508444  3
   2527   2528   2540   2543     1  0.0000000  1.0460000  1
   2527   2528   2540   2543     1  0.0000000  0.6694400  3
   2527   2541   2547   2548     1  0.0000000  1.0460000  1
   2527   2541   2547   2548     1  0.0000000  0.6694400  3
   2527   2549   2533   2536     1  0.0000000  1.6038667  3
   2528   2531   2532   2534     1  0.0000000  0.6508444  3
   2528   2531   2539   2542     1  0.0000000  1.0460000  1
   2528   2531   2539   2542     1  0.0000000  0.6694400  3
   2528   2527   2541   2545     1  0.0000000  0.6508444  3
   2528   2527   2541   2546     1  0.0000000  0.6508444  3
   2529   2527   2528   2531     1  0.0000000  0.6508444  3
   2529   2527   2528   2540     1  0.0000000  1.0460000  1
   2529   2527   2528   2540     1  0.0000000  0.0000000  3
   2529   2527   2528   2530     1  0.0000000  0.6508444  3
   2529   2527   2541   2547     1  0.0000000  1.0460000  1
   2529   2527   2541   2547     1  0.0000000  0.0000000  3
   2529   2527   2541   2545     1  0.0000000  0.6508444  3
   2529   2527   2541   2546     1  0.0000000  0.6508444  3
   2529   2527   2549   2533     1  0.0000000  1.6038667  3
   2530   2528   2531   2532     1  0.0000000  0.6508444  3
   2530   2528   2531   2539     1  0.0000000  1.0460000  1
   2530   2528   2531   2539     1  0.0000000  0.0000000  3
   2530   2528   2531   2535     1  0.0000000  0.6508444  3
   2530   2528   2540   2543     1  0.0000000  0.6973333  3
   2530   2528   2527   2541     1  0.0000000  0.6508444  3
   2530   2528   2527   2549     1  0.0000000  1.0460000  1
   2530   2528   2527   2549     1  0.0000000  0.0000000  3
   2531   2532   2533   2536     1  0.0000000  0.6508444  3
   2531   2532   2538   2544     1  0.0000000  1.0460000  1
   2531   2532   2538   2544     1  0.0000000  0.6694400  3
   2531   2528   2540   2543     1  0.0000000  1.0460000  1
   2531   2528   2540   2543     1  0.0000000  0.6694400  3
   2532   2531   2539   2542     1  0.0000000  1.0460000  1
   2532   2531   2539   2542     1  0.0000000  0.6694400  3
   2533   2532   2538   2544     1  0.0000000  1.0460000  1
   2533   2532   2538   2544     1  0.0000000  0.6694400  3
   2533   2532   2531   2535     1  0.0000000  0.6508444  3
   2534   2532   2533   2537     1  0.0000000  1.0460000  1
   2534   2532   2533   2537     1  0.0000000  0.0000000  3
   2534   2532   2533   2549     1  0.0000000  1.0460000  1
   2534   2532   2533   2549     1  0.0000000  0.0000000  3
   2534   2532   2533   2536     1  0.0000000  0.6508444  3
   2534   2532   2538   2544     1  0.0000000  0.6973333  3
   2534   2532   2531   2539     1  0.0000000  1.0460000  1
   2534   2532   2531   2539     1  0.0000000  0.0000000  3
   2534   2532   2531   2535     1  0.0000000  0.6508444  3
   2535   2531   2532   2538     1  0.0000000  1.0460000  1
   2535   2531   2532   2538     1  0.0000000  0.0000000  3
   2535   2531   2539   2542     1  0.0000000  0.6973333  3
   2535   2531   2528   2540     1  0.0000000  1.0460000  1
   2535   2531   2528   2540     1  0.0000000  0.0000000  3
   2536   2533   2532   2538     1  0.0000000  0.6508444  3
   2545   2541   2547   2548     1  0.0000000  0.6973333  3
   2545   2541   2527   2549     1  0.0000000  1.0460000  1
   2545   2541   2527   2549     1  0.0000000  0.0000000  3
   2546   2541   2547   2548     1  0.0000000  0.6973333  3
   2546   2541   2527   2549     1  0.0000000  1.0460000  1
   2546   2541   2527   2549     1  0.0000000  0.0000000  3
   2550   2551   2554   2558     1  0.0000000  0.6508444  3
   2550   2551   2563   2566     1  0.0000000  1.0460000  1
   2550   2551   2563   2566     1  0.0000000  0.6694400  3
   2550   2564   2570   2571     1  0.0000000  1.0460000  1
   2550   2564   2570   2571     1  0.0000000  0.6694400  3
   2550   2572   2556   2559     1  0.0000000  1.6038667  3
   2551   2550   2564   2568     1  0.0000000  0.6508444  3
   2551   2550   2564   2569     1  0.0000000  0.6508444  3
   2551   2554   2555   2557     1  0.0000000  0.6508444  3
   2551   2554   2562   2565     1  0.0000000  1.0460000  1
   2551   2554   2562   2565     1  0.0000000  0.6694400  3
   2552   2550   2551   2554     1  0.0000000  0.6508444  3
   2552   2550   2551   2563     1  0.0000000  1.0460000  1
   2552   2550   2551   2563     1  0.0000000  0.0000000  3
   2552   2550   2551   2553     1  0.0000000  0.6508444  3
   2552   2550   2564   2570     1  0.0000000  1.0460000  1
   2552   2550   2564   2570     1  0.0000000  0.0000000  3
   2552   2550   2564   2568     1  0.0000000  0.6508444  3
   2552   2550   2564   2569     1  0.0000000  0.6508444  3
   2552   2550   2572   2556     1  0.0000000  1.6038667  3
   2553   2551   2550   2564     1  0.0000000  0.6508444  3
   2553   2551   2550   2572     1  0.0000000  1.0460000  1
   2553   2551   2550   2572     1  0.0000000  0.0000000  3
   2553   2551   2554   2555     1  0.0000000  0.6508444  3
   2553   2551   2554   2562     1  0.0000000  1.0460000  1
   2553   2551   2554   2562     1  0.0000000  0.0000000  3
   2553   2551   2554   2558     1  0.0000000  0.6508444  3
   2553   2551   2563   2566     1  0.0000000  0.6973333  3
   2554   2551   2563   2566     1  0.0000000  1.0460000  1
   2554   2551   2563   2566     1  0.0000000  0.6694400  3
   2554   2555   2556   2559     1  0.0000000  0.6508444  3
   2554   2555   2561   2567     1  0.0000000  1.0460000  1
   2554   2555   2561   2567     1  0.0000000  0.6694400  3
   2555   2554   2562   2565     1  0.0000000  1.0460000  1
   2555   2554   2562   2565     1  0.0000000  0.6694400  3
   2556   2555   2554   2558     1  0.0000000  0.6508444  3
   2556   2555   2561   2567     1  0.0000000  1.0460000  1
   2556   2555   2561   2567     1  0.0000000  0.6694400  3
   2557   2555   2554   2562     1  0.0000000  1.0460000  1
   2557   2555   2554   2562     1  0.0000000  0.0000000  3
   2557   2555   2554   2558     1  0.0000000  0.6508444  3
   2557   2555   2556   2560     1  0.0000000  1.0460000  1
   2557   2555   2556   2560     1  0.0000000  0.0000000  3
   2557   2555   2556   2572     1  0.0000000  1.0460000  1
   2557   2555   2556   2572     1  0.0000000  0.0000000  3
   2557   2555   2556   2559     1  0.0000000  0.6508444  3
   2557   2555   2561   2567     1  0.0000000  0.6973333  3
   2558   2554   2551   2563     1  0.0000000  1.0460000  1
   2558   2554   2551   2563     1  0.0000000  0.0000000  3
   2558   2554   2555   2561     1  0.0000000  1.0460000  1
   2558   2554   2555   2561     1  0.0000000  0.0000000  3
   2558   2554   2562   2565     1  0.0000000  0.6973333  3
   2559   2556   2555   2561     1  0.0000000  0.6508444  3
   2568   2564   2550   2572     1  0.0000000  1.0460000  1
   2568   2564   2550   2572     1  0.0000000  0.0000000  3
   2568   2564   2570   2571     1  0.0000000  0.6973333  3
   2569   2564   2550   2572     1  0.0000000  1.0460000  1
   2569   2564   2550   2572     1  0.0000000  0.0000000  3
   2569   2564   2570   2571     1  0.0000000  0.6973333  3
   2573   2574   2577   2581     1  0.0000000  0.6508444  3
   2573   2574   2586   2589     1  0.0000000  1.0460000  1
   2573   2574   2586   2589     1  0.0000000  0.6694400  3
   2573   2587   2593   2594     1  0.0000000  1.0460000  1
   2573   2587   2593   2594     1  0.0000000  0.6694400  3
   2573   2595   2579   2582     1  0.0000000  1.6038667  3
   2574   2577   2578   2580     1  0.0000000  0.6508444  3
   2574   2577   2585   2588     1  0.0000000  1.0460000  1
   2574   2577   2585   2588     1  0.0000000  0.6694400  3
   2574   2573   2587   2591     1  0.0000000  0.6508444  3
   2574   2573   2587   2592     1  0.0000000  0.6508444  3
   2575   2573   2574   2577     1  0.0000000  0.6508444  3
   2575   2573   2574   2586     1  0.0000000  1.0460000  1
   2575   2573   2574   2586     1  0.0000000  0.0000000  3
   2575   2573   2574   2576     1  0.0000000  0.6508444  3
   2575   2573   2587   2593     1  0.0000000  1.0460000  1
   2575   2573   2587   2593     1  0.0000000  0.0000000  3
   2575   2573   2587   2591     1  0.0000000  0.6508444  3
   2575   2573   2587   2592     1  0.0000000  0.6508444  3
   2575   2573   2595   2579     1  0.0000000  1.6038667  3
   2576   2574   2577   2578     1  0.0000000  0.6508444  3
   2576   2574   2577   2585     1  0.0000000  1.0460000  1
   2576   2574   2577   2585     1  0.0000000  0.0000000  3
   2576   2574   2577   2581     1  0.0000000  0.6508444  3
   2576   2574   2586   2589     1  0.0000000  0.6973333  3
   2576   2574   2573   2587     1  0.0000000  0.6508444  3
   2576   2574   2573   2595     1  0.0000000  1.0460000  1
   2576   2574   2573   2595     1  0.0000000  0.0000000  3
   2577   2578   2579   2582     1  0.0000000  0.6508444  3
   2577   2578   2584   2590     1  0.0000000  1.0460000  1
   2577   2578   2584   2590     1  0.0000000  0.6694400  3
   2577   2574   2586   2589     1  0.0000000  1.0460000  1
   2577   2574   2586   2589     1  0.0000000  0.6694400  3
   2578   2577   2585   2588     1  0.0000000  1.0460000  1
   2578   2577   2585   2588     1  0.0000000  0.6694400  3
   2579   2578   2584   2590     1  0.0000000  1.0460000  1
   2579   2578   2584   2590     1  0.0000000  0.6694400  3
   2579   2578   2577   2581     1  0.0000000  0.6508444  3
   2580   2578   2579   2583     1  0.0000000  1.0460000  1
   2580   2578   2579   2583     1  0.0000000  0.0000000  3
   2580   2578   2579   2595     1  0.0000000  1.0460000  1
   2580   2578   2579   2595     1  0.0000000  0.0000000  3
   2580   2578   2579   2582     1  0.0000000  0.6508444  3
   2580   2578   2584   2590     1  0.0000000  0.6973333  3
   2580   2578   2577   2585     1  0.0000000  1.0460000  1
   2580   2578   2577   2585     1  0.0000000  0.0000000  3
   2580   2578   2577   2581     1  0.0000000  0.6508444  3
   2581   2577   2578   2584     1  0.0000000  1.0460000  1
   2581   2577   2578   2584     1  0.0000000  0.0000000  3
   2581   2577   2585   2588     1  0.0000000  0.6973333  3
   2581   2577   2574   2586     1  0.0000000  1.0460000  1
   2581   2577   2574   2586     1  0.0000000  0.0000000  3
   2582   2579   2578   2584     1  0.0000000  0.6508444  3
   2591   2587   2593   2594     1  0.0000000  0.6973333  3
   2591   2587   2573   2595     1  0.0000000  1.0460000  1
   2591   2587   2573   2595     1  0.0000000  0.0000000  3
   2592   2587   2593   2594     1  0.0000000  0.6973333  3
   2592   2587   2573   2595     1  0.0000000  1.0460000  1
   2592   2587   2573   2595     1  0.0000000  0.0000000  3
   2596   2597   2600   2604     1  0.0000000  0.6508444  3
   2596   2597   2609   2612     1  0.0000000  1.0460000  1
   2596   2597   2609   2612     1  0.0000000  0.6694400  3
   2596   2610   2616   2617     1  0.0000000  1.0460000  1
   2596   2610   2616   2617     1  0.0000000  0.6694400  3
   2596   2618   2602   2605     1  0.0000000  1.6038667  3
   2597   2596   2610   2614     1  0.0000000  0.6508444  3
   2597   2596   2610   2615     1  0.0000000  0.6508444  3
   2597   2600   2601   2603     1  0.0000000  0.6508444  3
   2597   2600   2608   2611     1  0.0000000  1.0460000  1
   2597   2600   2608   2611     1  0.0000000  0.6694400  3
   2598   2596   2597   2600     1  0.0000000  0.6508444  3
   2598   2596   2597   2609     1  0.0000000  1.0460000  1
   2598   2596   2597   2609     1  0.0000000  0.0000000  3
   2598   2596   2597   2599     1  0.0000000  0.6508444  3
   2598   2596   2610   2616     1  0.0000000  1.0460000  1
   2598   2596   2610   2616     1  0.0000000  0.0000000  3
   2598   2596   2610   2614     1  0.0000000  0.6508444  3
   2598   2596   2610   2615     1  0.0000000  0.6508444  3
   2598   2596   2618   2602     1  0.0000000  1.6038667  3
   2599   2597   2596   2610     1  0.0000000  0.6508444  3
   2599   2597   2596   2618     1  0.0000000  1.0460000  1
   2599   2597   2596   2618     1  0.0000000  0.0000000  3
   2599   2597   2600   2601     1  0.0000000  0.6508444  3
   2599   2597   2600   2608     1  0.0000000  1.0460000  1
   2599   2597   2600   2608     1  0.0000000  0.0000000  3
   2599   2597   2600   2604     1  0.0000000  0.6508444  3
   2599   2597   2609   2612     1  0.0000000  0.6973333  3
   2600   2597   2609   2612     1  0.0000000  1.0460000  1
   2600   2597   2609   2612     1  0.0000000  0.6694400  3
   2600   2601   2602   2605     1  0.0000000  0.6508444  3
   2600   2601   2607   2613     1  0.0000000  1.0460000  1
   2600   2601   2607   2613     1  0.0000000  0.6694400  3
   2601   2600   2608   2611     1  0.0000000  1.0460000  1
   2601   2600   2608   2611     1  0.0000000  0.6694400  3
   2602   2601   2600   2604     1  0.0000000  0.6508444  3
   2602   2601   2607   2613     1  0.0000000  1.0460000  1
   2602   2601   2607   2613     1  0.0000000  0.6694400  3
   2603   2601   2600   2608     1  0.0000000  1.0460000  1
   2603   2601   2600   2608     1  0.0000000  0.0000000  3
   2603   2601   2600   2604     1  0.0000000  0.6508444  3
   2603   2601   2602   2606     1  0.0000000  1.0460000  1
   2603   2601   2602   2606     1  0.0000000  0.0000000  3
   2603   2601   2602   2618     1  0.0000000  1.0460000  1
   2603   2601   2602   2618     1  0.0000000  0.0000000  3
   2603   2601   2602   2605     1  0.0000000  0.6508444  3
   2603   2601   2607   2613     1  0.0000000  0.6973333  3
   2604   2600   2597   2609     1  0.0000000  1.0460000  1
   2604   2600   2597   2609     1  0.0000000  0.0000000  3
   2604   2600   2601   2607     1  0.0000000  1.0460000  1
   2604   2600   2601   2607     1  0.0000000  0.0000000  3
   2604   2600   2608   2611     1  0.0000000  0.6973333  3
   2605   2602   2601   2607     1  0.0000000  0.6508444  3
   2614   2610   2596   2618     1  0.0000000  1.0460000  1
   2614   2610   2596   2618     1  0.0000000  0.0000000  3
   2614   2610   2616   2617     1  0.0000000  0.6973333  3
   2615   2610   2596   2618     1  0.0000000  1.0460000  1
   2615   2610   2596   2618     1  0.0000000  0.0000000  3
   2615   2610   2616   2617     1  0.0000000  0.6973333  3
   2619   2620   2623   2627     1  0.0000000  0.6508444  3
   2619   2620   2632   2635     1  0.0000000  1.0460000  1
   2619   2620   2632   2635     1  0.0000000  0.6694400  3
   2619   2633   2639   2640     1  0.0000000  1.0460000  1
   2619   2633   2639   2640     1  0.0000000  0.6694400  3
   2619   2641   2625   2628     1  0.0000000  1.6038667  3
   2620   2623   2624   2626     1  0.0000000  0.6508444  3
   2620   2623   2631   2634     1  0.0000000  1.0460000  1
   2620   2623   2631   2634     1  0.0000000  0.6694400  3
   2620   2619   2633   2637     1  0.0000000  0.6508444  3
   2620   2619   2633   2638     1  0.0000000  0.6508444  3
   2621   2619   2620   2623     1  0.0000000  0.6508444  3
   2621   2619   2620   2632     1  0.0000000  1.0460000  1
   2621   2619   2620   2632     1  0.0000000  0.0000000  3
   2621   2619   2620   2622     1  0.0000000  0.6508444  3
   2621   2619   2633   2639     1  0.0000000  1.0460000  1
   2621   2619   2633   2639     1  0.0000000  0.0000000  3
   2621   2619   2633   2637     1  0.0000000  0.6508444  3
   2621   2619   2633   2638     1  0.0000000  0.6508444  3
   2621   2619   2641   2625     1  0.0000000  1.6038667  3
   2622   2620   2623   2624     1  0.0000000  0.6508444  3
   2622   2620   2623   2631     1  0.0000000  1.0460000  1
   2622   2620   2623   2631     1  0.0000000  0.0000000  3
   2622   2620   2623   2627     1  0.0000000  0.6508444  3
   2622   2620   2632   2635     1  0.0000000  0.6973333  3
   2622   2620   2619   2633     1  0.0000000  0.6508444  3
   2622   2620   2619   2641     1  0.0000000  1.0460000  1
   2622   2620   2619   2641     1  0.0000000  0.0000000  3
   2623   2624   2625   2628     1  0.0000000  0.6508444  3
   2623   2624   2630   2636     1  0.0000000  1.0460000  1
   2623   2624   2630   2636     1  0.0000000  0.6694400  3
   2623   2620   2632   2635     1  0.0000000  1.0460000  1
   2623   2620   2632   2635     1  0.0000000  0.6694400  3
   2624   2623   2631   2634     1  0.0000000  1.0460000  1
   2624   2623   2631   2634     1  0.0000000  0.6694400  3
   2625   2624   2630   2636     1  0.0000000  1.0460000  1
   2625   2624   2630   2636     1  0.0000000  0.6694400  3
   2625   2624   2623   2627     1  0.0000000  0.6508444  3
   2626   2624   2625   2629     1  0.0000000  1.0460000  1
   2626   2624   2625   2629     1  0.0000000  0.0000000  3
   2626   2624   2625   2641     1  0.0000000  1.0460000  1
   2626   2624   2625   2641     1  0.0000000  0.0000000  3
   2626   2624   2625   2628     1  0.0000000  0.6508444  3
   2626   2624   2630   2636     1  0.0000000  0.6973333  3
   2626   2624   2623   2631     1  0.0000000  1.0460000  1
   2626   2624   2623   2631     1  0.0000000  0.0000000  3
   2626   2624   2623   2627     1  0.0000000  0.6508444  3
   2627   2623   2624   2630     1  0.0000000  1.0460000  1
   2627   2623   2624   2630     1  0.0000000  0.0000000  3
   2627   2623   2631   2634     1  0.0000000  0.6973333  3
   2627   2623   2620   2632     1  0.0000000  1.0460000  1
   2627   2623   2620   2632     1  0.0000000  0.0000000  3
   2628   2625   2624   2630     1  0.0000000  0.6508444  3
   2637   2633   2639   2640     1  0.0000000  0.6973333  3
   2637   2633   2619   2641     1  0.0000000  1.0460000  1
   2637   2633   2619   2641     1  0.0000000  0.0000000  3
   2638   2633   2639   2640     1  0.0000000  0.6973333  3
   2638   2633   2619   2641     1  0.0000000  1.0460000  1
   2638   2633   2619   2641     1  0.0000000  0.0000000  3
   2642   2643   2646   2650     1  0.0000000  0.6508444  3
   2642   2643   2655   2658     1  0.0000000  1.0460000  1
   2642   2643   2655   2658     1  0.0000000  0.6694400  3
   2642   2656   2662   2663     1  0.0000000  1.0460000  1
   2642   2656   2662   2663     1  0.0000000  0.6694400  3
   2642   2664   2648   2651     1  0.0000000  1.6038667  3
   2643   2642   2656   2660     1  0.0000000  0.6508444  3
   2643   2642   2656   2661     1  0.0000000  0.6508444  3
   2643   2646   2647   2649     1  0.0000000  0.6508444  3
   2643   2646   2654   2657     1  0.0000000  1.0460000  1
   2643   2646   2654   2657     1  0.0000000  0.6694400  3
   2644   2642   2643   2646     1  0.0000000  0.6508444  3
   2644   2642   2643   2655     1  0.0000000  1.0460000  1
   2644   2642   2643   2655     1  0.0000000  0.0000000  3
   2644   2642   2643   2645     1  0.0000000  0.6508444  3
   2644   2642   2656   2662     1  0.0000000  1.0460000  1
   2644   2642   2656   2662     1  0.0000000  0.0000000  3
   2644   2642   2656   2660     1  0.0000000  0.6508444  3
   2644   2642   2656   2661     1  0.0000000  0.6508444  3
   2644   2642   2664   2648     1  0.0000000  1.6038667  3
   2645   2643   2642   2656     1  0.0000000  0.6508444  3
   2645   2643   2642   2664     1  0.0000000  1.0460000  1
   2645   2643   2642   2664     1  0.0000000  0.0000000  3
   2645   2643   2646   2647     1  0.0000000  0.6508444  3
   2645   2643   2646   2654     1  0.0000000  1.0460000  1
   2645   2643   2646   2654     1  0.0000000  0.0000000  3
   2645   2643   2646   2650     1  0.0000000  0.6508444  3
   2645   2643   2655   2658     1  0.0000000  0.6973333  3
   2646   2643   2655   2658     1  0.0000000  1.0460000  1
   2646   2643   2655   2658     1  0.0000000  0.6694400  3
   2646   2647   2648   2651     1  0.0000000  0.6508444  3
   2646   2647   2653   2659     1  0.0000000  1.0460000  1
   2646   2647   2653   2659     1  0.0000000  0.6694400  3
   2647   2646   2654   2657     1  0.0000000  1.0460000  1
   2647   2646   2654   2657     1  0.0000000  0.6694400  3
   2648   2647   2646   2650     1  0.0000000  0.6508444  3
   2648   2647   2653   2659     1  0.0000000  1.0460000  1
   2648   2647   2653   2659     1  0.0000000  0.6694400  3
   2649   2647   2646   2654     1  0.0000000  1.0460000  1
   2649   2647   2646   2654     1  0.0000000  0.0000000  3
   2649   2647   2646   2650     1  0.0000000  0.6508444  3
   2649   2647   2648   2652     1  0.0000000  1.0460000  1
   2649   2647   2648   2652     1  0.0000000  0.0000000  3
   2649   2647   2648   2664     1  0.0000000  1.0460000  1
   2649   2647   2648   2664     1  0.0000000  0.0000000  3
   2649   2647   2648   2651     1  0.0000000  0.6508444  3
   2649   2647   2653   2659     1  0.0000000  0.6973333  3
   2650   2646   2643   2655     1  0.0000000  1.0460000  1
   2650   2646   2643   2655     1  0.0000000  0.0000000  3
   2650   2646   2647   2653     1  0.0000000  1.0460000  1
   2650   2646   2647   2653     1  0.0000000  0.0000000  3
   2650   2646   2654   2657     1  0.0000000  0.6973333  3
   2651   2648   2647   2653     1  0.0000000  0.6508444  3
   2660   2656   2642   2664     1  0.0000000  1.0460000  1
   2660   2656   2642   2664     1  0.0000000  0.0000000  3
   2660   2656   2662   2663     1  0.0000000  0.6973333  3
   2661   2656   2642   2664     1  0.0000000  1.0460000  1
   2661   2656   2642   2664     1  0.0000000  0.0000000  3
   2661   2656   2662   2663     1  0.0000000  0.6973333  3
   2665   2666   2669   2673     1  0.0000000  0.6508444  3
   2665   2666   2678   2681     1  0.0000000  1.0460000  1
   2665   2666   2678   2681     1  0.0000000  0.6694400  3
   2665   2679   2685   2686     1  0.0000000  1.0460000  1
   2665   2679   2685   2686     1  0.0000000  0.6694400  3
   2665   2687   2671   2674     1  0.0000000  1.6038667  3
   2666   2669   2670   2672     1  0.0000000  0.6508444  3
   2666   2669   2677   2680     1  0.0000000  1.0460000  1
   2666   2669   2677   2680     1  0.0000000  0.6694400  3
   2666   2665   2679   2683     1  0.0000000  0.6508444  3
   2666   2665   2679   2684     1  0.0000000  0.6508444  3
   2667   2665   2666   2669     1  0.0000000  0.6508444  3
   2667   2665   2666   2678     1  0.0000000  1.0460000  1
   2667   2665   2666   2678     1  0.0000000  0.0000000  3
   2667   2665   2666   2668     1  0.0000000  0.6508444  3
   2667   2665   2679   2685     1  0.0000000  1.0460000  1
   2667   2665   2679   2685     1  0.0000000  0.0000000  3
   2667   2665   2679   2683     1  0.0000000  0.6508444  3
   2667   2665   2679   2684     1  0.0000000  0.6508444  3
   2667   2665   2687   2671     1  0.0000000  1.6038667  3
   2668   2666   2669   2670     1  0.0000000  0.6508444  3
   2668   2666   2669   2677     1  0.0000000  1.0460000  1
   2668   2666   2669   2677     1  0.0000000  0.0000000  3
   2668   2666   2669   2673     1  0.0000000  0.6508444  3
   2668   2666   2678   2681     1  0.0000000  0.6973333  3
   2668   2666   2665   2679     1  0.0000000  0.6508444  3
   2668   2666   2665   2687     1  0.0000000  1.0460000  1
   2668   2666   2665   2687     1  0.0000000  0.0000000  3
   2669   2670   2671   2674     1  0.0000000  0.6508444  3
   2669   2670   2676   2682     1  0.0000000  1.0460000  1
   2669   2670   2676   2682     1  0.0000000  0.6694400  3
   2669   2666   2678   2681     1  0.0000000  1.0460000  1
   2669   2666   2678   2681     1  0.0000000  0.6694400  3
   2670   2669   2677   2680     1  0.0000000  1.0460000  1
   2670   2669   2677   2680     1  0.0000000  0.6694400  3
   2671   2670   2676   2682     1  0.0000000  1.0460000  1
   2671   2670   2676   2682     1  0.0000000  0.6694400  3
   2671   2670   2669   2673     1  0.0000000  0.6508444  3
   2672   2670   2671   2675     1  0.0000000  1.0460000  1
   2672   2670   2671   2675     1  0.0000000  0.0000000  3
   2672   2670   2671   2687     1  0.0000000  1.0460000  1
   2672   2670   2671   2687     1  0.0000000  0.0000000  3
   2672   2670   2671   2674     1  0.0000000  0.6508444  3
   2672   2670   2676   2682     1  0.0000000  0.6973333  3
   2672   2670   2669   2677     1  0.0000000  1.0460000  1
   2672   2670   2669   2677     1  0.0000000  0.0000000  3
   2672   2670   2669   2673     1  0.0000000  0.6508444  3
   2673   2669   2670   2676     1  0.0000000  1.0460000  1
   2673   2669   2670   2676     1  0.0000000  0.0000000  3
   2673   2669   2677   2680     1  0.0000000  0.6973333  3
   2673   2669   2666   2678     1  0.0000000  1.0460000  1
   2673   2669   2666   2678     1  0.0000000  0.0000000  3
   2674   2671   2670   2676     1  0.0000000  0.6508444  3
   2683   2679   2685   2686     1  0.0000000  0.6973333  3
   2683   2679   2665   2687     1  0.0000000  1.0460000  1
   2683   2679   2665   2687     1  0.0000000  0.0000000  3
   2684   2679   2685   2686     1  0.0000000  0.6973333  3
   2684   2679   2665   2687     1  0.0000000  1.0460000  1
   2684   2679   2665   2687     1  0.0000000  0.0000000  3
   2688   2689   2692   2696     1  0.0000000  0.6508444  3
   2688   2689   2701   2704     1  0.0000000  1.0460000  1
   2688   2689   2701   2704     1  0.0000000  0.6694400  3
   2688   2702   2708   2709     1  0.0000000  1.0460000  1
   2688   2702   2708   2709     1  0.0000000  0.6694400  3
   2688   2710   2694   2697     1  0.0000000  1.6038667  3
   2689   2688   2702   2706     1  0.0000000  0.6508444  3
   2689   2688   2702   2707     1  0.0000000  0.6508444  3
   2689   2692   2693   2695     1  0.0000000  0.6508444  3
   2689   2692   2700   2703     1  0.0000000  1.0460000  1
   2689   2692   2700   2703     1  0.0000000  0.6694400  3
   2690   2688   2689   2692     1  0.0000000  0.6508444  3
   2690   2688   2689   2701     1  0.0000000  1.0460000  1
   2690   2688   2689   2701     1  0.0000000  0.0000000  3
   2690   2688   2689   2691     1  0.0000000  0.6508444  3
   2690   2688   2702   2708     1  0.0000000  1.0460000  1
   2690   2688   2702   2708     1  0.0000000  0.0000000  3
   2690   2688   2702   2706     1  0.0000000  0.6508444  3
   2690   2688   2702   2707     1  0.0000000  0.6508444  3
   2690   2688   2710   2694     1  0.0000000  1.6038667  3
   2691   2689   2688   2702     1  0.0000000  0.6508444  3
   2691   2689   2688   2710     1  0.0000000  1.0460000  1
   2691   2689   2688   2710     1  0.0000000  0.0000000  3
   2691   2689   2692   2693     1  0.0000000  0.6508444  3
   2691   2689   2692   2700     1  0.0000000  1.0460000  1
   2691   2689   2692   2700     1  0.0000000  0.0000000  3
   2691   2689   2692   2696     1  0.0000000  0.6508444  3
   2691   2689   2701   2704     1  0.0000000  0.6973333  3
   2692   2689   2701   2704     1  0.0000000  1.0460000  1
   2692   2689   2701   2704     1  0.0000000  0.6694400  3
   2692   2693   2694   2697     1  0.0000000  0.6508444  3
   2692   2693   2699   2705     1  0.0000000  1.0460000  1
   2692   2693   2699   2705     1  0.0000000  0.6694400  3
   2693   2692   2700   2703     1  0.0000000  1.0460000  1
   2693   2692   2700   2703     1  0.0000000  0.6694400  3
   2694   2693   2692   2696     1  0.0000000  0.6508444  3
   2694   2693   2699   2705     1  0.0000000  1.0460000  1
   2694   2693   2699   2705     1  0.0000000  0.6694400  3
   2695   2693   2692   2700     1  0.0000000  1.0460000  1
   2695   2693   2692   2700     1  0.0000000  0.0000000  3
   2695   2693   2692   2696     1  0.0000000  0.6508444  3
   2695   2693   2694   2698     1  0.0000000  1.0460000  1
   2695   2693   2694   2698     1  0.0000000  0.0000000  3
   2695   2693   2694   2710     1  0.0000000  1.0460000  1
   2695   2693   2694   2710     1  0.0000000  0.0000000  3
   2695   2693   2694   2697     1  0.0000000  0.6508444  3
   2695   2693   2699   2705     1  0.0000000  0.6973333  3
   2696   2692   2689   2701     1  0.0000000  1.0460000  1
   2696   2692   2689   2701     1  0.0000000  0.0000000  3
   2696   2692   2693   2699     1  0.0000000  1.0460000  1
   2696   2692   2693   2699     1  0.0000000  0.0000000  3
   2696   2692   2700   2703     1  0.0000000  0.6973333  3
   2697   2694   2693   2699     1  0.0000000  0.6508444  3
   2706   2702   2688   2710     1  0.0000000  1.0460000  1
   2706   2702   2688   2710     1  0.0000000  0.0000000  3
   2706   2702   2708   2709     1  0.0000000  0.6973333  3
   2707   2702   2688   2710     1  0.0000000  1.0460000  1
   2707   2702   2688   2710     1  0.0000000  0.0000000  3
   2707   2702   2708   2709     1  0.0000000  0.6973333  3
   2711   2712   2715   2719     1  0.0000000  0.6508444  3
   2711   2712   2724   2727     1  0.0000000  1.0460000  1
   2711   2712   2724   2727     1  0.0000000  0.6694400  3
   2711   2725   2731   2732     1  0.0000000  1.0460000  1
   2711   2725   2731   2732     1  0.0000000  0.6694400  3
   2711   2733   2717   2720     1  0.0000000  1.6038667  3
   2712   2715   2716   2718     1  0.0000000  0.6508444  3
   2712   2715   2723   2726     1  0.0000000  1.0460000  1
   2712   2715   2723   2726     1  0.0000000  0.6694400  3
   2712   2711   2725   2729     1  0.0000000  0.6508444  3
   2712   2711   2725   2730     1  0.0000000  0.6508444  3
   2713   2711   2712   2715     1  0.0000000  0.6508444  3
   2713   2711   2712   2724     1  0.0000000  1.0460000  1
   2713   2711   2712   2724     1  0.0000000  0.0000000  3
   2713   2711   2712   2714     1  0.0000000  0.6508444  3
   2713   2711   2725   2731     1  0.0000000  1.0460000  1
   2713   2711   2725   2731     1  0.0000000  0.0000000  3
   2713   2711   2725   2729     1  0.0000000  0.6508444  3
   2713   2711   2725   2730     1  0.0000000  0.6508444  3
   2713   2711   2733   2717     1  0.0000000  1.6038667  3
   2714   2712   2715   2716     1  0.0000000  0.6508444  3
   2714   2712   2715   2723     1  0.0000000  1.0460000  1
   2714   2712   2715   2723     1  0.0000000  0.0000000  3
   2714   2712   2715   2719     1  0.0000000  0.6508444  3
   2714   2712   2724   2727     1  0.0000000  0.6973333  3
   2714   2712   2711   2725     1  0.0000000  0.6508444  3
   2714   2712   2711   2733     1  0.0000000  1.0460000  1
   2714   2712   2711   2733     1  0.0000000  0.0000000  3
   2715   2716   2717   2720     1  0.0000000  0.6508444  3
   2715   2716   2722   2728     1  0.0000000  1.0460000  1
   2715   2716   2722   2728     1  0.0000000  0.6694400  3
   2715   2712   2724   2727     1  0.0000000  1.0460000  1
   2715   2712   2724   2727     1  0.0000000  0.6694400  3
   2716   2715   2723   2726     1  0.0000000  1.0460000  1
   2716   2715   2723   2726     1  0.0000000  0.6694400  3
   2717   2716   2722   2728     1  0.0000000  1.0460000  1
   2717   2716   2722   2728     1  0.0000000  0.6694400  3
   2717   2716   2715   2719     1  0.0000000  0.6508444  3
   2718   2716   2717   2721     1  0.0000000  1.0460000  1
   2718   2716   2717   2721     1  0.0000000  0.0000000  3
   2718   2716   2717   2733     1  0.0000000  1.0460000  1
   2718   2716   2717   2733     1  0.0000000  0.0000000  3
   2718   2716   2717   2720     1  0.0000000  0.6508444  3
   2718   2716   2722   2728     1  0.0000000  0.6973333  3
   2718   2716   2715   2723     1  0.0000000  1.0460000  1
   2718   2716   2715   2723     1  0.0000000  0.0000000  3
   2718   2716   2715   2719     1  0.0000000  0.6508444  3
   2719   2715   2716   2722     1  0.0000000  1.0460000  1
   2719   2715   2716   2722     1  0.0000000  0.0000000  3
   2719   2715   2723   2726     1  0.0000000  0.6973333  3
   2719   2715   2712   2724     1  0.0000000  1.0460000  1
   2719   2715   2712   2724     1  0.0000000  0.0000000  3
   2720   2717   2716   2722     1  0.0000000  0.6508444  3
   2729   2725   2731   2732     1  0.0000000  0.6973333  3
   2729   2725   2711   2733     1  0.0000000  1.0460000  1
   2729   2725   2711   2733     1  0.0000000  0.0000000  3
   2730   2725   2731   2732     1  0.0000000  0.6973333  3
   2730   2725   2711   2733     1  0.0000000  1.0460000  1
   2730   2725   2711   2733     1  0.0000000  0.0000000  3
   2734   2735   2738   2742     1  0.0000000  0.6508444  3
   2734   2735   2747   2750     1  0.0000000  1.0460000  1
   2734   2735   2747   2750     1  0.0000000  0.6694400  3
   2734   2748   2754   2755     1  0.0000000  1.0460000  1
   2734   2748   2754   2755     1  0.0000000  0.6694400  3
   2734   2756   2740   2743     1  0.0000000  1.6038667  3
   2735   2734   2748   2752     1  0.0000000  0.6508444  3
   2735   2734   2748   2753     1  0.0000000  0.6508444  3
   2735   2738   2739   2741     1  0.0000000  0.6508444  3
   2735   2738   2746   2749     1  0.0000000  1.0460000  1
   2735   2738   2746   2749     1  0.0000000  0.6694400  3
   2736   2734   2735   2738     1  0.0000000  0.6508444  3
   2736   2734   2735   2747     1  0.0000000  1.0460000  1
   2736   2734   2735   2747     1  0.0000000  0.0000000  3
   2736   2734   2735   2737     1  0.0000000  0.6508444  3
   2736   2734   2748   2754     1  0.0000000  1.0460000  1
   2736   2734   2748   2754     1  0.0000000  0.0000000  3
   2736   2734   2748   2752     1  0.0000000  0.6508444  3
   2736   2734   2748   2753     1  0.0000000  0.6508444  3
   2736   2734   2756   2740     1  0.0000000  1.6038667  3
   2737   2735   2734   2748     1  0.0000000  0.6508444  3
   2737   2735   2734   2756     1  0.0000000  1.0460000  1
   2737   2735   2734   2756     1  0.0000000  0.0000000  3
   2737   2735   2738   2739     1  0.0000000  0.6508444  3
   2737   2735   2738   2746     1  0.0000000  1.0460000  1
   2737   2735   2738   2746     1  0.0000000  0.0000000  3
   2737   2735   2738   2742     1  0.0000000  0.6508444  3
   2737   2735   2747   2750     1  0.0000000  0.6973333  3
   2738   2735   2747   2750     1  0.0000000  1.0460000  1
   2738   2735   2747   2750     1  0.0000000  0.6694400  3
   2738   2739   2740   2743     1  0.0000000  0.6508444  3
   2738   2739   2745   2751     1  0.0000000  1.0460000  1
   2738   2739   2745   2751     1  0.0000000  0.6694400  3
   2739   2738   2746   2749     1  0.0000000  1.0460000  1
   2739   2738   2746   2749     1  0.0000000  0.6694400  3
   2740   2739   2738   2742     1  0.0000000  0.6508444  3
   2740   2739   2745   2751     1  0.0000000  1.0460000  1
   2740   2739   2745   2751     1  0.0000000  0.6694400  3
   2741   2739   2738   2746     1  0.0000000  1.0460000  1
   2741   2739   2738   2746     1  0.0000000  0.0000000  3
   2741   2739   2738   2742     1  0.0000000  0.6508444  3
   2741   2739   2740   2744     1  0.0000000  1.0460000  1
   2741   2739   2740   2744     1  0.0000000  0.0000000  3
   2741   2739   2740   2756     1  0.0000000  1.0460000  1
   2741   2739   2740   2756     1  0.0000000  0.0000000  3
   2741   2739   2740   2743     1  0.0000000  0.6508444  3
   2741   2739   2745   2751     1  0.0000000  0.6973333  3
   2742   2738   2735   2747     1  0.0000000  1.0460000  1
   2742   2738   2735   2747     1  0.0000000  0.0000000  3
   2742   2738   2739   2745     1  0.0000000  1.0460000  1
   2742   2738   2739   2745     1  0.0000000  0.0000000  3
   2742   2738   2746   2749     1  0.0000000  0.6973333  3
   2743   2740   2739   2745     1  0.0000000  0.6508444  3
   2752   2748   2734   2756     1  0.0000000  1.0460000  1
   2752   2748   2734   2756     1  0.0000000  0.0000000  3
   2752   2748   2754   2755     1  0.0000000  0.6973333  3
   2753   2748   2734   2756     1  0.0000000  1.0460000  1
   2753   2748   2734   2756     1  0.0000000  0.0000000  3
   2753   2748   2754   2755     1  0.0000000  0.6973333  3
   2757   2758   2761   2765     1  0.0000000  0.6508444  3
   2757   2758   2770   2773     1  0.0000000  1.0460000  1
   2757   2758   2770   2773     1  0.0000000  0.6694400  3
   2757   2771   2777   2778     1  0.0000000  1.0460000  1
   2757   2771   2777   2778     1  0.0000000  0.6694400  3
   2757   2779   2763   2766     1  0.0000000  1.6038667  3
   2758   2761   2762   2764     1  0.0000000  0.6508444  3
   2758   2761   2769   2772     1  0.0000000  1.0460000  1
   2758   2761   2769   2772     1  0.0000000  0.6694400  3
   2758   2757   2771   2775     1  0.0000000  0.6508444  3
   2758   2757   2771   2776     1  0.0000000  0.6508444  3
   2759   2757   2758   2761     1  0.0000000  0.6508444  3
   2759   2757   2758   2770     1  0.0000000  1.0460000  1
   2759   2757   2758   2770     1  0.0000000  0.0000000  3
   2759   2757   2758   2760     1  0.0000000  0.6508444  3
   2759   2757   2771   2777     1  0.0000000  1.0460000  1
   2759   2757   2771   2777     1  0.0000000  0.0000000  3
   2759   2757   2771   2775     1  0.0000000  0.6508444  3
   2759   2757   2771   2776     1  0.0000000  0.6508444  3
   2759   2757   2779   2763     1  0.0000000  1.6038667  3
   2760   2758   2761   2762     1  0.0000000  0.6508444  3
   2760   2758   2761   2769     1  0.0000000  1.0460000  1
   2760   2758   2761   2769     1  0.0000000  0.0000000  3
   2760   2758   2761   2765     1  0.0000000  0.6508444  3
   2760   2758   2770   2773     1  0.0000000  0.6973333  3
   2760   2758   2757   2771     1  0.0000000  0.6508444  3
   2760   2758   2757   2779     1  0.0000000  1.0460000  1
   2760   2758   2757   2779     1  0.0000000  0.0000000  3
   2761   2762   2763   2766     1  0.0000000  0.6508444  3
   2761   2762   2768   2774     1  0.0000000  1.0460000  1
   2761   2762   2768   2774     1  0.0000000  0.6694400  3
   2761   2758   2770   2773     1  0.0000000  1.0460000  1
   2761   2758   2770   2773     1  0.0000000  0.6694400  3
   2762   2761   2769   2772     1  0.0000000  1.0460000  1
   2762   2761   2769   2772     1  0.0000000  0.6694400  3
   2763   2762   2768   2774     1  0.0000000  1.0460000  1
   2763   2762   2768   2774     1  0.0000000  0.6694400  3
   2763   2762   2761   2765     1  0.0000000  0.6508444  3
   2764   2762   2763   2767     1  0.0000000  1.0460000  1
   2764   2762   2763   2767     1  0.0000000  0.0000000  3
   2764   2762   2763   2779     1  0.0000000  1.0460000  1
   2764   2762   2763   2779     1  0.0000000  0.0000000  3
   2764   2762   2763   2766     1  0.0000000  0.6508444  3
   2764   2762   2768   2774     1  0.0000000  0.6973333  3
   2764   2762   2761   2769     1  0.0000000  1.0460000  1
   2764   2762   2761   2769     1  0.0000000  0.0000000  3
   2764   2762   2761   2765     1  0.0000000  0.6508444  3
   2765   2761   2762   2768     1  0.0000000  1.0460000  1
   2765   2761   2762   2768     1  0.0000000  0.0000000  3
   2765   2761   2769   2772     1  0.0000000  0.6973333  3
   2765   2761   2758   2770     1  0.0000000  1.0460000  1
   2765   2761   2758   2770     1  0.0000000  0.0000000  3
   2766   2763   2762   2768     1  0.0000000  0.6508444  3
   2775   2771   2777   2778     1  0.0000000  0.6973333  3
   2775   2771   2757   2779     1  0.0000000  1.0460000  1
   2775   2771   2757   2779     1  0.0000000  0.0000000  3
   2776   2771   2777   2778     1  0.0000000  0.6973333  3
   2776   2771   2757   2779     1  0.0000000  1.0460000  1
   2776   2771   2757   2779     1  0.0000000  0.0000000  3
   2780   2781   2784   2788     1  0.0000000  0.6508444  3
   2780   2781   2793   2796     1  0.0000000  1.0460000  1
   2780   2781   2793   2796     1  0.0000000  0.6694400  3
   2780   2794   2800   2801     1  0.0000000  1.0460000  1
   2780   2794   2800   2801     1  0.0000000  0.6694400  3
   2780   2802   2786   2789     1  0.0000000  1.6038667  3
   2781   2780   2794   2798     1  0.0000000  0.6508444  3
   2781   2780   2794   2799     1  0.0000000  0.6508444  3
   2781   2784   2785   2787     1  0.0000000  0.6508444  3
   2781   2784   2792   2795     1  0.0000000  1.0460000  1
   2781   2784   2792   2795     1  0.0000000  0.6694400  3
   2782   2780   2781   2784     1  0.0000000  0.6508444  3
   2782   2780   2781   2793     1  0.0000000  1.0460000  1
   2782   2780   2781   2793     1  0.0000000  0.0000000  3
   2782   2780   2781   2783     1  0.0000000  0.6508444  3
   2782   2780   2794   2800     1  0.0000000  1.0460000  1
   2782   2780   2794   2800     1  0.0000000  0.0000000  3
   2782   2780   2794   2798     1  0.0000000  0.6508444  3
   2782   2780   2794   2799     1  0.0000000  0.6508444  3
   2782   2780   2802   2786     1  0.0000000  1.6038667  3
   2783   2781   2780   2794     1  0.0000000  0.6508444  3
   2783   2781   2780   2802     1  0.0000000  1.0460000  1
   2783   2781   2780   2802     1  0.0000000  0.0000000  3
   2783   2781   2784   2785     1  0.0000000  0.6508444  3
   2783   2781   2784   2792     1  0.0000000  1.0460000  1
   2783   2781   2784   2792     1  0.0000000  0.0000000  3
   2783   2781   2784   2788     1  0.0000000  0.6508444  3
   2783   2781   2793   2796     1  0.0000000  0.6973333  3
   2784   2781   2793   2796     1  0.0000000  1.0460000  1
   2784   2781   2793   2796     1  0.0000000  0.6694400  3
   2784   2785   2786   2789     1  0.0000000  0.6508444  3
   2784   2785   2791   2797     1  0.0000000  1.0460000  1
   2784   2785   2791   2797     1  0.0000000  0.6694400  3
   2785   2784   2792   2795     1  0.0000000  1.0460000  1
   2785   2784   2792   2795     1  0.0000000  0.6694400  3
   2786   2785   2784   2788     1  0.0000000  0.6508444  3
   2786   2785   2791   2797     1  0.0000000  1.0460000  1
   2786   2785   2791   2797     1  0.0000000  0.6694400  3
   2787   2785   2784   2792     1  0.0000000  1.0460000  1
   2787   2785   2784   2792     1  0.0000000  0.0000000  3
   2787   2785   2784   2788     1  0.0000000  0.6508444  3
   2787   2785   2786   2790     1  0.0000000  1.0460000  1
   2787   2785   2786   2790     1  0.0000000  0.0000000  3
   2787   2785   2786   2802     1  0.0000000  1.0460000  1
   2787   2785   2786   2802     1  0.0000000  0.0000000  3
   2787   2785   2786   2789     1  0.0000000  0.6508444  3
   2787   2785   2791   2797     1  0.0000000  0.6973333  3
   2788   2784   2781   2793     1  0.0000000  1.0460000  1
   2788   2784   2781   2793     1  0.0000000  0.0000000  3
   2788   2784   2785   2791     1  0.0000000  1.0460000  1
   2788   2784   2785   2791     1  0.0000000  0.0000000  3
   2788   2784   2792   2795     1  0.0000000  0.6973333  3
   2789   2786   2785   2791     1  0.0000000  0.6508444  3
   2798   2794   2780   2802     1  0.0000000  1.0460000  1
   2798   2794   2780   2802     1  0.0000000  0.0000000  3
   2798   2794   2800   2801     1  0.0000000  0.6973333  3
   2799   2794   2780   2802     1  0.0000000  1.0460000  1
   2799   2794   2780   2802     1  0.0000000  0.0000000  3
   2799   2794   2800   2801     1  0.0000000  0.6973333  3
   2803   2804   2807   2811     1  0.0000000  0.6508444  3
   2803   2804   2816   2819     1  0.0000000  1.0460000  1
   2803   2804   2816   2819     1  0.0000000  0.6694400  3
   2803   2817   2823   2824     1  0.0000000  1.0460000  1
   2803   2817   2823   2824     1  0.0000000  0.6694400  3
   2803   2825   2809   2812     1  0.0000000  1.6038667  3
   2804   2807   2808   2810     1  0.0000000  0.6508444  3
   2804   2807   2815   2818     1  0.0000000  1.0460000  1
   2804   2807   2815   2818     1  0.0000000  0.6694400  3
   2804   2803   2817   2821     1  0.0000000  0.6508444  3
   2804   2803   2817   2822     1  0.0000000  0.6508444  3
   2805   2803   2804   2807     1  0.0000000  0.6508444  3
   2805   2803   2804   2816     1  0.0000000  1.0460000  1
   2805   2803   2804   2816     1  0.0000000  0.0000000  3
   2805   2803   2804   2806     1  0.0000000  0.6508444  3
   2805   2803   2817   2823     1  0.0000000  1.0460000  1
   2805   2803   2817   2823     1  0.0000000  0.0000000  3
   2805   2803   2817   2821     1  0.0000000  0.6508444  3
   2805   2803   2817   2822     1  0.0000000  0.6508444  3
   2805   2803   2825   2809     1  0.0000000  1.6038667  3
   2806   2804   2807   2808     1  0.0000000  0.6508444  3
   2806   2804   2807   2815     1  0.0000000  1.0460000  1
   2806   2804   2807   2815     1  0.0000000  0.0000000  3
   2806   2804   2807   2811     1  0.0000000  0.6508444  3
   2806   2804   2816   2819     1  0.0000000  0.6973333  3
   2806   2804   2803   2817     1  0.0000000  0.6508444  3
   2806   2804   2803   2825     1  0.0000000  1.0460000  1
   2806   2804   2803   2825     1  0.0000000  0.0000000  3
   2807   2808   2809   2812     1  0.0000000  0.6508444  3
   2807   2808   2814   2820     1  0.0000000  1.0460000  1
   2807   2808   2814   2820     1  0.0000000  0.6694400  3
   2807   2804   2816   2819     1  0.0000000  1.0460000  1
   2807   2804   2816   2819     1  0.0000000  0.6694400  3
   2808   2807   2815   2818     1  0.0000000  1.0460000  1
   2808   2807   2815   2818     1  0.0000000  0.6694400  3
   2809   2808   2814   2820     1  0.0000000  1.0460000  1
   2809   2808   2814   2820     1  0.0000000  0.6694400  3
   2809   2808   2807   2811     1  0.0000000  0.6508444  3
   2810   2808   2809   2813     1  0.0000000  1.0460000  1
   2810   2808   2809   2813     1  0.0000000  0.0000000  3
   2810   2808   2809   2825     1  0.0000000  1.0460000  1
   2810   2808   2809   2825     1  0.0000000  0.0000000  3
   2810   2808   2809   2812     1  0.0000000  0.6508444  3
   2810   2808   2814   2820     1  0.0000000  0.6973333  3
   2810   2808   2807   2815     1  0.0000000  1.0460000  1
   2810   2808   2807   2815     1  0.0000000  0.0000000  3
   2810   2808   2807   2811     1  0.0000000  0.6508444  3
   2811   2807   2808   2814     1  0.0000000  1.0460000  1
   2811   2807   2808   2814     1  0.0000000  0.0000000  3
   2811   2807   2815   2818     1  0.0000000  0.6973333  3
   2811   2807   2804   2816     1  0.0000000  1.0460000  1
   2811   2807   2804   2816     1  0.0000000  0.0000000  3
   2812   2809   2808   2814     1  0.0000000  0.6508444  3
   2821   2817   2823   2824     1  0.0000000  0.6973333  3
   2821   2817   2803   2825     1  0.0000000  1.0460000  1
   2821   2817   2803   2825     1  0.0000000  0.0000000  3
   2822   2817   2823   2824     1  0.0000000  0.6973333  3
   2822   2817   2803   2825     1  0.0000000  1.0460000  1
   2822   2817   2803   2825     1  0.0000000  0.0000000  3
   2826   2827   2830   2834     1  0.0000000  0.6508444  3
   2826   2827   2839   2842     1  0.0000000  1.0460000  1
   2826   2827   2839   2842     1  0.0000000  0.6694400  3
   2826   2840   2846   2847     1  0.0000000  1.0460000  1
   2826   2840   2846   2847     1  0.0000000  0.6694400  3
   2826   2848   2832   2835     1  0.0000000  1.6038667  3
   2827   2826   2840   2844     1  0.0000000  0.6508444  3
   2827   2826   2840   2845     1  0.0000000  0.6508444  3
   2827   2830   2831   2833     1  0.0000000  0.6508444  3
   2827   2830   2838   2841     1  0.0000000  1.0460000  1
   2827   2830   2838   2841     1  0.0000000  0.6694400  3
   2828   2826   2827   2830     1  0.0000000  0.6508444  3
   2828   2826   2827   2839     1  0.0000000  1.0460000  1
   2828   2826   2827   2839     1  0.0000000  0.0000000  3
   2828   2826   2827   2829     1  0.0000000  0.6508444  3
   2828   2826   2840   2846     1  0.0000000  1.0460000  1
   2828   2826   2840   2846     1  0.0000000  0.0000000  3
   2828   2826   2840   2844     1  0.0000000  0.6508444  3
   2828   2826   2840   2845     1  0.0000000  0.6508444  3
   2828   2826   2848   2832     1  0.0000000  1.6038667  3
   2829   2827   2826   2840     1  0.0000000  0.6508444  3
   2829   2827   2826   2848     1  0.0000000  1.0460000  1
   2829   2827   2826   2848     1  0.0000000  0.0000000  3
   2829   2827   2830   2831     1  0.0000000  0.6508444  3
   2829   2827   2830   2838     1  0.0000000  1.0460000  1
   2829   2827   2830   2838     1  0.0000000  0.0000000  3
   2829   2827   2830   2834     1  0.0000000  0.6508444  3
   2829   2827   2839   2842     1  0.0000000  0.6973333  3
   2830   2827   2839   2842     1  0.0000000  1.0460000  1
   2830   2827   2839   2842     1  0.0000000  0.6694400  3
   2830   2831   2832   2835     1  0.0000000  0.6508444  3
   2830   2831   2837   2843     1  0.0000000  1.0460000  1
   2830   2831   2837   2843     1  0.0000000  0.6694400  3
   2831   2830   2838   2841     1  0.0000000  1.0460000  1
   2831   2830   2838   2841     1  0.0000000  0.6694400  3
   2832   2831   2830   2834     1  0.0000000  0.6508444  3
   2832   2831   2837   2843     1  0.0000000  1.0460000  1
   2832   2831   2837   2843     1  0.0000000  0.6694400  3
   2833   2831   2830   2838     1  0.0000000  1.0460000  1
   2833   2831   2830   2838     1  0.0000000  0.0000000  3
   2833   2831   2830   2834     1  0.0000000  0.6508444  3
   2833   2831   2832   2836     1  0.0000000  1.0460000  1
   2833   2831   2832   2836     1  0.0000000  0.0000000  3
   2833   2831   2832   2848     1  0.0000000  1.0460000  1
   2833   2831   2832   2848     1  0.0000000  0.0000000  3
   2833   2831   2832   2835     1  0.0000000  0.6508444  3
   2833   2831   2837   2843     1  0.0000000  0.6973333  3
   2834   2830   2827   2839     1  0.0000000  1.0460000  1
   2834   2830   2827   2839     1  0.0000000  0.0000000  3
   2834   2830   2831   2837     1  0.0000000  1.0460000  1
   2834   2830   2831   2837     1  0.0000000  0.0000000  3
   2834   2830   2838   2841     1  0.0000000  0.6973333  3
   2835   2832   2831   2837     1  0.0000000  0.6508444  3
   2844   2840   2826   2848     1  0.0000000  1.0460000  1
   2844   2840   2826   2848     1  0.0000000  0.0000000  3
   2844   2840   2846   2847     1  0.0000000  0.6973333  3
   2845   2840   2826   2848     1  0.0000000  1.0460000  1
   2845   2840   2826   2848     1  0.0000000  0.0000000  3
   2845   2840   2846   2847     1  0.0000000  0.6973333  3
   2849   2850   2853   2857     1  0.0000000  0.6508444  3
   2849   2850   2862   2865     1  0.0000000  1.0460000  1
   2849   2850   2862   2865     1  0.0000000  0.6694400  3
   2849   2863   2869   2870     1  0.0000000  1.0460000  1
   2849   2863   2869   2870     1  0.0000000  0.6694400  3
   2849   2871   2855   2858     1  0.0000000  1.6038667  3
   2850   2853   2854   2856     1  0.0000000  0.6508444  3
   2850   2853   2861   2864     1  0.0000000  1.0460000  1
   2850   2853   2861   2864     1  0.0000000  0.6694400  3
   2850   2849   2863   2867     1  0.0000000  0.6508444  3
   2850   2849   2863   2868     1  0.0000000  0.6508444  3
   2851   2849   2850   2853     1  0.0000000  0.6508444  3
   2851   2849   2850   2862     1  0.0000000  1.0460000  1
   2851   2849   2850   2862     1  0.0000000  0.0000000  3
   2851   2849   2850   2852     1  0.0000000  0.6508444  3
   2851   2849   2863   2869     1  0.0000000  1.0460000  1
   2851   2849   2863   2869     1  0.0000000  0.0000000  3
   2851   2849   2863   2867     1  0.0000000  0.6508444  3
   2851   2849   2863   2868     1  0.0000000  0.6508444  3
   2851   2849   2871   2855     1  0.0000000  1.6038667  3
   2852   2850   2853   2854     1  0.0000000  0.6508444  3
   2852   2850   2853   2861     1  0.0000000  1.0460000  1
   2852   2850   2853   2861     1  0.0000000  0.0000000  3
   2852   2850   2853   2857     1  0.0000000  0.6508444  3
   2852   2850   2862   2865     1  0.0000000  0.6973333  3
   2852   2850   2849   2863     1  0.0000000  0.6508444  3
   2852   2850   2849   2871     1  0.0000000  1.0460000  1
   2852   2850   2849   2871     1  0.0000000  0.0000000  3
   2853   2854   2855   2858     1  0.0000000  0.6508444  3
   2853   2854   2860   2866     1  0.0000000  1.0460000  1
   2853   2854   2860   2866     1  0.0000000  0.6694400  3
   2853   2850   2862   2865     1  0.0000000  1.0460000  1
   2853   2850   2862   2865     1  0.0000000  0.6694400  3
   2854   2853   2861   2864     1  0.0000000  1.0460000  1
   2854   2853   2861   2864     1  0.0000000  0.6694400  3
   2855   2854   2860   2866     1  0.0000000  1.0460000  1
   2855   2854   2860   2866     1  0.0000000  0.6694400  3
   2855   2854   2853   2857     1  0.0000000  0.6508444  3
   2856   2854   2855   2859     1  0.0000000  1.0460000  1
   2856   2854   2855   2859     1  0.0000000  0.0000000  3
   2856   2854   2855   2871     1  0.0000000  1.0460000  1
   2856   2854   2855   2871     1  0.0000000  0.0000000  3
   2856   2854   2855   2858     1  0.0000000  0.6508444  3
   2856   2854   2860   2866     1  0.0000000  0.6973333  3
   2856   2854   2853   2861     1  0.0000000  1.0460000  1
   2856   2854   2853   2861     1  0.0000000  0.0000000  3
   2856   2854   2853   2857     1  0.0000000  0.6508444  3
   2857   2853   2854   2860     1  0.0000000  1.0460000  1
   2857   2853   2854   2860     1  0.0000000  0.0000000  3
   2857   2853   2861   2864     1  0.0000000  0.6973333  3
   2857   2853   2850   2862     1  0.0000000  1.0460000  1
   2857   2853   2850   2862     1  0.0000000  0.0000000  3
   2858   2855   2854   2860     1  0.0000000  0.6508444  3
   2867   2863   2869   2870     1  0.0000000  0.6973333  3
   2867   2863   2849   2871     1  0.0000000  1.0460000  1
   2867   2863   2849   2871     1  0.0000000  0.0000000  3
   2868   2863   2869   2870     1  0.0000000  0.6973333  3
   2868   2863   2849   2871     1  0.0000000  1.0460000  1
   2868   2863   2849   2871     1  0.0000000  0.0000000  3
   2872   2873   2876   2880     1  0.0000000  0.6508444  3
   2872   2873   2885   2888     1  0.0000000  1.0460000  1
   2872   2873   2885   2888     1  0.0000000  0.6694400  3
   2872   2886   2892   2893     1  0.0000000  1.0460000  1
   2872   2886   2892   2893     1  0.0000000  0.6694400  3
   2872   2894   2878   2881     1  0.0000000  1.6038667  3
   2873   2872   2886   2890     1  0.0000000  0.6508444  3
   2873   2872   2886   2891     1  0.0000000  0.6508444  3
   2873   2876   2877   2879     1  0.0000000  0.6508444  3
   2873   2876   2884   2887     1  0.0000000  1.0460000  1
   2873   2876   2884   2887     1  0.0000000  0.6694400  3
   2874   2872   2873   2876     1  0.0000000  0.6508444  3
   2874   2872   2873   2885     1  0.0000000  1.0460000  1
   2874   2872   2873   2885     1  0.0000000  0.0000000  3
   2874   2872   2873   2875     1  0.0000000  0.6508444  3
   2874   2872   2886   2892     1  0.0000000  1.0460000  1
   2874   2872   2886   2892     1  0.0000000  0.0000000  3
   2874   2872   2886   2890     1  0.0000000  0.6508444  3
   2874   2872   2886   2891     1  0.0000000  0.6508444  3
   2874   2872   2894   2878     1  0.0000000  1.6038667  3
   2875   2873   2872   2886     1  0.0000000  0.6508444  3
   2875   2873   2872   2894     1  0.0000000  1.0460000  1
   2875   2873   2872   2894     1  0.0000000  0.0000000  3
   2875   2873   2876   2877     1  0.0000000  0.6508444  3
   2875   2873   2876   2884     1  0.0000000  1.0460000  1
   2875   2873   2876   2884     1  0.0000000  0.0000000  3
   2875   2873   2876   2880     1  0.0000000  0.6508444  3
   2875   2873   2885   2888     1  0.0000000  0.6973333  3
   2876   2873   2885   2888     1  0.0000000  1.0460000  1
   2876   2873   2885   2888     1  0.0000000  0.6694400  3
   2876   2877   2878   2881     1  0.0000000  0.6508444  3
   2876   2877   2883   2889     1  0.0000000  1.0460000  1
   2876   2877   2883   2889     1  0.0000000  0.6694400  3
   2877   2876   2884   2887     1  0.0000000  1.0460000  1
   2877   2876   2884   2887     1  0.0000000  0.6694400  3
   2878   2877   2876   2880     1  0.0000000  0.6508444  3
   2878   2877   2883   2889     1  0.0000000  1.0460000  1
   2878   2877   2883   2889     1  0.0000000  0.6694400  3
   2879   2877   2876   2884     1  0.0000000  1.0460000  1
   2879   2877   2876   2884     1  0.0000000  0.0000000  3
   2879   2877   2876   2880     1  0.0000000  0.6508444  3
   2879   2877   2878   2882     1  0.0000000  1.0460000  1
   2879   2877   2878   2882     1  0.0000000  0.0000000  3
   2879   2877   2878   2894     1  0.0000000  1.0460000  1
   2879   2877   2878   2894     1  0.0000000  0.0000000  3
   2879   2877   2878   2881     1  0.0000000  0.6508444  3
   2879   2877   2883   2889     1  0.0000000  0.6973333  3
   2880   2876   2873   2885     1  0.0000000  1.0460000  1
   2880   2876   2873   2885     1  0.0000000  0.0000000  3
   2880   2876   2877   2883     1  0.0000000  1.0460000  1
   2880   2876   2877   2883     1  0.0000000  0.0000000  3
   2880   2876   2884   2887     1  0.0000000  0.6973333  3
   2881   2878   2877   2883     1  0.0000000  0.6508444  3
   2890   2886   2872   2894     1  0.0000000  1.0460000  1
   2890   2886   2872   2894     1  0.0000000  0.0000000  3
   2890   2886   2892   2893     1  0.0000000  0.6973333  3
   2891   2886   2872   2894     1  0.0000000  1.0460000  1
   2891   2886   2872   2894     1  0.0000000  0.0000000  3
   2891   2886   2892   2893     1  0.0000000  0.6973333  3
   2895   2896   2899   2903     1  0.0000000  0.6508444  3
   2895   2896   2908   2911     1  0.0000000  1.0460000  1
   2895   2896   2908   2911     1  0.0000000  0.6694400  3
   2895   2909   2915   2916     1  0.0000000  1.0460000  1
   2895   2909   2915   2916     1  0.0000000  0.6694400  3
   2895   2917   2901   2904     1  0.0000000  1.6038667  3
   2896   2899   2900   2902     1  0.0000000  0.6508444  3
   2896   2899   2907   2910     1  0.0000000  1.0460000  1
   2896   2899   2907   2910     1  0.0000000  0.6694400  3
   2896   2895   2909   2913     1  0.0000000  0.6508444  3
   2896   2895   2909   2914     1  0.0000000  0.6508444  3
   2897   2895   2896   2899     1  0.0000000  0.6508444  3
   2897   2895   2896   2908     1  0.0000000  1.0460000  1
   2897   2895   2896   2908     1  0.0000000  0.0000000  3
   2897   2895   2896   2898     1  0.0000000  0.6508444  3
   2897   2895   2909   2915     1  0.0000000  1.0460000  1
   2897   2895   2909   2915     1  0.0000000  0.0000000  3
   2897   2895   2909   2913     1  0.0000000  0.6508444  3
   2897   2895   2909   2914     1  0.0000000  0.6508444  3
   2897   2895   2917   2901     1  0.0000000  1.6038667  3
   2898   2896   2899   2900     1  0.0000000  0.6508444  3
   2898   2896   2899   2907     1  0.0000000  1.0460000  1
   2898   2896   2899   2907     1  0.0000000  0.0000000  3
   2898   2896   2899   2903     1  0.0000000  0.6508444  3
   2898   2896   2908   2911     1  0.0000000  0.6973333  3
   2898   2896   2895   2909     1  0.0000000  0.6508444  3
   2898   2896   2895   2917     1  0.0000000  1.0460000  1
   2898   2896   2895   2917     1  0.0000000  0.0000000  3
   2899   2900   2901   2904     1  0.0000000  0.6508444  3
   2899   2900   2906   2912     1  0.0000000  1.0460000  1
   2899   2900   2906   2912     1  0.0000000  0.6694400  3
   2899   2896   2908   2911     1  0.0000000  1.0460000  1
   2899   2896   2908   2911     1  0.0000000  0.6694400  3
   2900   2899   2907   2910     1  0.0000000  1.0460000  1
   2900   2899   2907   2910     1  0.0000000  0.6694400  3
   2901   2900   2906   2912     1  0.0000000  1.0460000  1
   2901   2900   2906   2912     1  0.0000000  0.6694400  3
   2901   2900   2899   2903     1  0.0000000  0.6508444  3
   2902   2900   2901   2905     1  0.0000000  1.0460000  1
   2902   2900   2901   2905     1  0.0000000  0.0000000  3
   2902   2900   2901   2917     1  0.0000000  1.0460000  1
   2902   2900   2901   2917     1  0.0000000  0.0000000  3
   2902   2900   2901   2904     1  0.0000000  0.6508444  3
   2902   2900   2906   2912     1  0.0000000  0.6973333  3
   2902   2900   2899   2907     1  0.0000000  1.0460000  1
   2902   2900   2899   2907     1  0.0000000  0.0000000  3
   2902   2900   2899   2903     1  0.0000000  0.6508444  3
   2903   2899   2900   2906     1  0.0000000  1.0460000  1
   2903   2899   2900   2906     1  0.0000000  0.0000000  3
   2903   2899   2907   2910     1  0.0000000  0.6973333  3
   2903   2899   2896   2908     1  0.0000000  1.0460000  1
   2903   2899   2896   2908     1  0.0000000  0.0000000  3
   2904   2901   2900   2906     1  0.0000000  0.6508444  3
   2913   2909   2915   2916     1  0.0000000  0.6973333  3
   2913   2909   2895   2917     1  0.0000000  1.0460000  1
   2913   2909   2895   2917     1  0.0000000  0.0000000  3
   2914   2909   2915   2916     1  0.0000000  0.6973333  3
   2914   2909   2895   2917     1  0.0000000  1.0460000  1
   2914   2909   2895   2917     1  0.0000000  0.0000000  3
   2918   2919   2922   2926     1  0.0000000  0.6508444  3
   2918   2919   2931   2934     1  0.0000000  1.0460000  1
   2918   2919   2931   2934     1  0.0000000  0.6694400  3
   2918   2932   2938   2939     1  0.0000000  1.0460000  1
   2918   2932   2938   2939     1  0.0000000  0.6694400  3
   2918   2940   2924   2927     1  0.0000000  1.6038667  3
   2919   2918   2932   2936     1  0.0000000  0.6508444  3
   2919   2918   2932   2937     1  0.0000000  0.6508444  3
   2919   2922   2923   2925     1  0.0000000  0.6508444  3
   2919   2922   2930   2933     1  0.0000000  1.0460000  1
   2919   2922   2930   2933     1  0.0000000  0.6694400  3
   2920   2918   2919   2922     1  0.0000000  0.6508444  3
   2920   2918   2919   2931     1  0.0000000  1.0460000  1
   2920   2918   2919   2931     1  0.0000000  0.0000000  3
   2920   2918   2919   2921     1  0.0000000  0.6508444  3
   2920   2918   2932   2938     1  0.0000000  1.0460000  1
   2920   2918   2932   2938     1  0.0000000  0.0000000  3
   2920   2918   2932   2936     1  0.0000000  0.6508444  3
   2920   2918   2932   2937     1  0.0000000  0.6508444  3
   2920   2918   2940   2924     1  0.0000000  1.6038667  3
   2921   2919   2918   2932     1  0.0000000  0.6508444  3
   2921   2919   2918   2940     1  0.0000000  1.0460000  1
   2921   2919   2918   2940     1  0.0000000  0.0000000  3
   2921   2919   2922   2923     1  0.0000000  0.6508444  3
   2921   2919   2922   2930     1  0.0000000  1.0460000  1
   2921   2919   2922   2930     1  0.0000000  0.0000000  3
   2921   2919   2922   2926     1  0.0000000  0.6508444  3
   2921   2919   2931   2934     1  0.0000000  0.6973333  3
   2922   2919   2931   2934     1  0.0000000  1.0460000  1
   2922   2919   2931   2934     1  0.0000000  0.6694400  3
   2922   2923   2924   2927     1  0.0000000  0.6508444  3
   2922   2923   2929   2935     1  0.0000000  1.0460000  1
   2922   2923   2929   2935     1  0.0000000  0.6694400  3
   2923   2922   2930   2933     1  0.0000000  1.0460000  1
   2923   2922   2930   2933     1  0.0000000  0.6694400  3
   2924   2923   2922   2926     1  0.0000000  0.6508444  3
   2924   2923   2929   2935     1  0.0000000  1.0460000  1
   2924   2923   2929   2935     1  0.0000000  0.6694400  3
   2925   2923   2922   2930     1  0.0000000  1.0460000  1
   2925   2923   2922   2930     1  0.0000000  0.0000000  3
   2925   2923   2922   2926     1  0.0000000  0.6508444  3
   2925   2923   2924   2928     1  0.0000000  1.0460000  1
   2925   2923   2924   2928     1  0.0000000  0.0000000  3
   2925   2923   2924   2940     1  0.0000000  1.0460000  1
   2925   2923   2924   2940     1  0.0000000  0.0000000  3
   2925   2923   2924   2927     1  0.0000000  0.6508444  3
   2925   2923   2929   2935     1  0.0000000  0.6973333  3
   2926   2922   2919   2931     1  0.0000000  1.0460000  1
   2926   2922   2919   2931     1  0.0000000  0.0000000  3
   2926   2922   2923   2929     1  0.0000000  1.0460000  1
   2926   2922   2923   2929     1  0.0000000  0.0000000  3
   2926   2922   2930   2933     1  0.0000000  0.6973333  3
   2927   2924   2923   2929     1  0.0000000  0.6508444  3
   2936   2932   2918   2940     1  0.0000000  1.0460000  1
   2936   2932   2918   2940     1  0.0000000  0.0000000  3
   2936   2932   2938   2939     1  0.0000000  0.6973333  3
   2937   2932   2918   2940     1  0.0000000  1.0460000  1
   2937   2932   2918   2940     1  0.0000000  0.0000000  3
   2937   2932   2938   2939     1  0.0000000  0.6973333  3
   2941   2942   2945   2949     1  0.0000000  0.6508444  3
   2941   2942   2954   2957     1  0.0000000  1.0460000  1
   2941   2942   2954   2957     1  0.0000000  0.6694400  3
   2941   2955   2961   2962     1  0.0000000  1.0460000  1
   2941   2955   2961   2962     1  0.0000000  0.6694400  3
   2941   2963   2947   2950     1  0.0000000  1.6038667  3
   2942   2945   2946   2948     1  0.0000000  0.6508444  3
   2942   2945   2953   2956     1  0.0000000  1.0460000  1
   2942   2945   2953   2956     1  0.0000000  0.6694400  3
   2942   2941   2955   2959     1  0.0000000  0.6508444  3
   2942   2941   2955   2960     1  0.0000000  0.6508444  3
   2943   2941   2942   2945     1  0.0000000  0.6508444  3
   2943   2941   2942   2954     1  0.0000000  1.0460000  1
   2943   2941   2942   2954     1  0.0000000  0.0000000  3
   2943   2941   2942   2944     1  0.0000000  0.6508444  3
   2943   2941   2955   2961     1  0.0000000  1.0460000  1
   2943   2941   2955   2961     1  0.0000000  0.0000000  3
   2943   2941   2955   2959     1  0.0000000  0.6508444  3
   2943   2941   2955   2960     1  0.0000000  0.6508444  3
   2943   2941   2963   2947     1  0.0000000  1.6038667  3
   2944   2942   2945   2946     1  0.0000000  0.6508444  3
   2944   2942   2945   2953     1  0.0000000  1.0460000  1
   2944   2942   2945   2953     1  0.0000000  0.0000000  3
   2944   2942   2945   2949     1  0.0000000  0.6508444  3
   2944   2942   2954   2957     1  0.0000000  0.6973333  3
   2944   2942   2941   2955     1  0.0000000  0.6508444  3
   2944   2942   2941   2963     1  0.0000000  1.0460000  1
   2944   2942   2941   2963     1  0.0000000  0.0000000  3
   2945   2946   2947   2950     1  0.0000000  0.6508444  3
   2945   2946   2952   2958     1  0.0000000  1.0460000  1
   2945   2946   2952   2958     1  0.0000000  0.6694400  3
   2945   2942   2954   2957     1  0.0000000  1.0460000  1
   2945   2942   2954   2957     1  0.0000000  0.6694400  3
   2946   2945   2953   2956     1  0.0000000  1.0460000  1
   2946   2945   2953   2956     1  0.0000000  0.6694400  3
   2947   2946   2952   2958     1  0.0000000  1.0460000  1
   2947   2946   2952   2958     1  0.0000000  0.6694400  3
   2947   2946   2945   2949     1  0.0000000  0.6508444  3
   2948   2946   2947   2951     1  0.0000000  1.0460000  1
   2948   2946   2947   2951     1  0.0000000  0.0000000  3
   2948   2946   2947   2963     1  0.0000000  1.0460000  1
   2948   2946   2947   2963     1  0.0000000  0.0000000  3
   2948   2946   2947   2950     1  0.0000000  0.6508444  3
   2948   2946   2952   2958     1  0.0000000  0.6973333  3
   2948   2946   2945   2953     1  0.0000000  1.0460000  1
   2948   2946   2945   2953     1  0.0000000  0.0000000  3
   2948   2946   2945   2949     1  0.0000000  0.6508444  3
   2949   2945   2946   2952     1  0.0000000  1.0460000  1
   2949   2945   2946   2952     1  0.0000000  0.0000000  3
   2949   2945   2953   2956     1  0.0000000  0.6973333  3
   2949   2945   2942   2954     1  0.0000000  1.0460000  1
   2949   2945   2942   2954     1  0.0000000  0.0000000  3
   2950   2947   2946   2952     1  0.0000000  0.6508444  3
   2959   2955   2961   2962     1  0.0000000  0.6973333  3
   2959   2955   2941   2963     1  0.0000000  1.0460000  1
   2959   2955   2941   2963     1  0.0000000  0.0000000  3
   2960   2955   2961   2962     1  0.0000000  0.6973333  3
   2960   2955   2941   2963     1  0.0000000  1.0460000  1
   2960   2955   2941   2963     1  0.0000000  0.0000000  3
   2964   2965   2968   2972     1  0.0000000  0.6508444  3
   2964   2965   2977   2980     1  0.0000000  1.0460000  1
   2964   2965   2977   2980     1  0.0000000  0.6694400  3
   2964   2978   2984   2985     1  0.0000000  1.0460000  1
   2964   2978   2984   2985     1  0.0000000  0.6694400  3
   2964   2986   2970   2973     1  0.0000000  1.6038667  3
   2965   2964   2978   2982     1  0.0000000  0.6508444  3
   2965   2964   2978   2983     1  0.0000000  0.6508444  3
   2965   2968   2969   2971     1  0.0000000  0.6508444  3
   2965   2968   2976   2979     1  0.0000000  1.0460000  1
   2965   2968   2976   2979     1  0.0000000  0.6694400  3
   2966   2964   2965   2968     1  0.0000000  0.6508444  3
   2966   2964   2965   2977     1  0.0000000  1.0460000  1
   2966   2964   2965   2977     1  0.0000000  0.0000000  3
   2966   2964   2965   2967     1  0.0000000  0.6508444  3
   2966   2964   2978   2984     1  0.0000000  1.0460000  1
   2966   2964   2978   2984     1  0.0000000  0.0000000  3
   2966   2964   2978   2982     1  0.0000000  0.6508444  3
   2966   2964   2978   2983     1  0.0000000  0.6508444  3
   2966   2964   2986   2970     1  0.0000000  1.6038667  3
   2967   2965   2964   2978     1  0.0000000  0.6508444  3
   2967   2965   2964   2986     1  0.0000000  1.0460000  1
   2967   2965   2964   2986     1  0.0000000  0.0000000  3
   2967   2965   2968   2969     1  0.0000000  0.6508444  3
   2967   2965   2968   2976     1  0.0000000  1.0460000  1
   2967   2965   2968   2976     1  0.0000000  0.0000000  3
   2967   2965   2968   2972     1  0.0000000  0.6508444  3
   2967   2965   2977   2980     1  0.0000000  0.6973333  3
   2968   2965   2977   2980     1  0.0000000  1.0460000  1
   2968   2965   2977   2980     1  0.0000000  0.6694400  3
   2968   2969   2970   2973     1  0.0000000  0.6508444  3
   2968   2969   2975   2981     1  0.0000000  1.0460000  1
   2968   2969   2975   2981     1  0.0000000  0.6694400  3
   2969   2968   2976   2979     1  0.0000000  1.0460000  1
   2969   2968   2976   2979     1  0.0000000  0.6694400  3
   2970   2969   2968   2972     1  0.0000000  0.6508444  3
   2970   2969   2975   2981     1  0.0000000  1.0460000  1
   2970   2969   2975   2981     1  0.0000000  0.6694400  3
   2971   2969   2968   2976     1  0.0000000  1.0460000  1
   2971   2969   2968   2976     1  0.0000000  0.0000000  3
   2971   2969   2968   2972     1  0.0000000  0.6508444  3
   2971   2969   2970   2974     1  0.0000000  1.0460000  1
   2971   2969   2970   2974     1  0.0000000  0.0000000  3
   2971   2969   2970   2986     1  0.0000000  1.0460000  1
   2971   2969   2970   2986     1  0.0000000  0.0000000  3
   2971   2969   2970   2973     1  0.0000000  0.6508444  3
   2971   2969   2975   2981     1  0.0000000  0.6973333  3
   2972   2968   2965   2977     1  0.0000000  1.0460000  1
   2972   2968   2965   2977     1  0.0000000  0.0000000  3
   2972   2968   2969   2975     1  0.0000000  1.0460000  1
   2972   2968   2969   2975     1  0.0000000  0.0000000  3
   2972   2968   2976   2979     1  0.0000000  0.6973333  3
   2973   2970   2969   2975     1  0.0000000  0.6508444  3
   2982   2978   2964   2986     1  0.0000000  1.0460000  1
   2982   2978   2964   2986     1  0.0000000  0.0000000  3
   2982   2978   2984   2985     1  0.0000000  0.6973333  3
   2983   2978   2964   2986     1  0.0000000  1.0460000  1
   2983   2978   2964   2986     1  0.0000000  0.0000000  3
   2983   2978   2984   2985     1  0.0000000  0.6973333  3
   2987   2988   2991   2995     1  0.0000000  0.6508444  3
   2987   2988   3000   3003     1  0.0000000  1.0460000  1
   2987   2988   3000   3003     1  0.0000000  0.6694400  3
   2987   3001   3007   3008     1  0.0000000  1.0460000  1
   2987   3001   3007   3008     1  0.0000000  0.6694400  3
   2987   3009   2993   2996     1  0.0000000  1.6038667  3
   2988   2991   2992   2994     1  0.0000000  0.6508444  3
   2988   2991   2999   3002     1  0.0000000  1.0460000  1
   2988   2991   2999   3002     1  0.0000000  0.6694400  3
   2988   2987   3001   3005     1  0.0000000  0.6508444  3
   2988   2987   3001   3006     1  0.0000000  0.6508444  3
   2989   2987   2988   2991     1  0.0000000  0.6508444  3
   2989   2987   2988   3000     1  0.0000000  1.0460000  1
   2989   2987   2988   3000     1  0.0000000  0.0000000  3
   2989   2987   2988   2990     1  0.0000000  0.6508444  3
   2989   2987   3001   3007     1  0.0000000  1.0460000  1
   2989   2987   3001   3007     1  0.0000000  0.0000000  3
   2989   2987   3001   3005     1  0.0000000  0.6508444  3
   2989   2987   3001   3006     1  0.0000000  0.6508444  3
   2989   2987   3009   2993     1  0.0000000  1.6038667  3
   2990   2988   2991   2992     1  0.0000000  0.6508444  3
   2990   2988   2991   2999     1  0.0000000  1.0460000  1
   2990   2988   2991   2999     1  0.0000000  0.0000000  3
   2990   2988   2991   2995     1  0.0000000  0.6508444  3
   2990   2988   3000   3003     1  0.0000000  0.6973333  3
   2990   2988   2987   3001     1  0.0000000  0.6508444  3
   2990   2988   2987   3009     1  0.0000000  1.0460000  1
   2990   2988   2987   3009     1  0.0000000  0.0000000  3
   2991   2992   2993   2996     1  0.0000000  0.6508444  3
   2991   2992   2998   3004     1  0.0000000  1.0460000  1
   2991   2992   2998   3004     1  0.0000000  0.6694400  3
   2991   2988   3000   3003     1  0.0000000  1.0460000  1
   2991   2988   3000   3003     1  0.0000000  0.6694400  3
   2992   2991   2999   3002     1  0.0000000  1.0460000  1
   2992   2991   2999   3002     1  0.0000000  0.6694400  3
   2993   2992   2998   3004     1  0.0000000  1.0460000  1
   2993   2992   2998   3004     1  0.0000000  0.6694400  3
   2993   2992   2991   2995     1  0.0000000  0.6508444  3
   2994   2992   2993   2997     1  0.0000000  1.0460000  1
   2994   2992   2993   2997     1  0.0000000  0.0000000  3
   2994   2992   2993   3009     1  0.0000000  1.0460000  1
   2994   2992   2993   3009     1  0.0000000  0.0000000  3
   2994   2992   2993   2996     1  0.0000000  0.6508444  3
   2994   2992   2998   3004     1  0.0000000  0.6973333  3
   2994   2992   2991   2999     1  0.0000000  1.0460000  1
   2994   2992   2991   2999     1  0.0000000  0.0000000  3
   2994   2992   2991   2995     1  0.0000000  0.6508444  3
   2995   2991   2992   2998     1  0.0000000  1.0460000  1
   2995   2991   2992   2998     1  0.0000000  0.0000000  3
   2995   2991   2999   3002     1  0.0000000  0.6973333  3
   2995   2991   2988   3000     1  0.0000000  1.0460000  1
   2995   2991   2988   3000     1  0.0000000  0.0000000  3
   2996   2993   2992   2998     1  0.0000000  0.6508444  3
   3005   3001   3007   3008     1  0.0000000  0.6973333  3
   3005   3001   2987   3009     1  0.0000000  1.0460000  1
   3005   3001   2987   3009     1  0.0000000  0.0000000  3
   3006   3001   3007   3008     1  0.0000000  0.6973333  3
   3006   3001   2987   3009     1  0.0000000  1.0460000  1
   3006   3001   2987   3009     1  0.0000000  0.0000000  3
   3010   3011   3014   3018     1  0.0000000  0.6508444  3
   3010   3011   3023   3026     1  0.0000000  1.0460000  1
   3010   3011   3023   3026     1  0.0000000  0.6694400  3
   3010   3024   3030   3031     1  0.0000000  1.0460000  1
   3010   3024   3030   3031     1  0.0000000  0.6694400  3
   3010   3032   3016   3019     1  0.0000000  1.6038667  3
   3011   3010   3024   3028     1  0.0000000  0.6508444  3
   3011   3010   3024   3029     1  0.0000000  0.6508444  3
   3011   3014   3015   3017     1  0.0000000  0.6508444  3
   3011   3014   3022   3025     1  0.0000000  1.0460000  1
   3011   3014   3022   3025     1  0.0000000  0.6694400  3
   3012   3010   3011   3014     1  0.0000000  0.6508444  3
   3012   3010   3011   3023     1  0.0000000  1.0460000  1
   3012   3010   3011   3023     1  0.0000000  0.0000000  3
   3012   3010   3011   3013     1  0.0000000  0.6508444  3
   3012   3010   3024   3030     1  0.0000000  1.0460000  1
   3012   3010   3024   3030     1  0.0000000  0.0000000  3
   3012   3010   3024   3028     1  0.0000000  0.6508444  3
   3012   3010   3024   3029     1  0.0000000  0.6508444  3
   3012   3010   3032   3016     1  0.0000000  1.6038667  3
   3013   3011   3010   3024     1  0.0000000  0.6508444  3
   3013   3011   3010   3032     1  0.0000000  1.0460000  1
   3013   3011   3010   3032     1  0.0000000  0.0000000  3
   3013   3011   3014   3015     1  0.0000000  0.6508444  3
   3013   3011   3014   3022     1  0.0000000  1.0460000  1
   3013   3011   3014   3022     1  0.0000000  0.0000000  3
   3013   3011   3014   3018     1  0.0000000  0.6508444  3
   3013   3011   3023   3026     1  0.0000000  0.6973333  3
   3014   3011   3023   3026     1  0.0000000  1.0460000  1
   3014   3011   3023   3026     1  0.0000000  0.6694400  3
   3014   3015   3016   3019     1  0.0000000  0.6508444  3
   3014   3015   3021   3027     1  0.0000000  1.0460000  1
   3014   3015   3021   3027     1  0.0000000  0.6694400  3
   3015   3014   3022   3025     1  0.0000000  1.0460000  1
   3015   3014   3022   3025     1  0.0000000  0.6694400  3
   3016   3015   3014   3018     1  0.0000000  0.6508444  3
   3016   3015   3021   3027     1  0.0000000  1.0460000  1
   3016   3015   3021   3027     1  0.0000000  0.6694400  3
   3017   3015   3014   3022     1  0.0000000  1.0460000  1
   3017   3015   3014   3022     1  0.0000000  0.0000000  3
   3017   3015   3014   3018     1  0.0000000  0.6508444  3
   3017   3015   3016   3020     1  0.0000000  1.0460000  1
   3017   3015   3016   3020     1  0.0000000  0.0000000  3
   3017   3015   3016   3032     1  0.0000000  1.0460000  1
   3017   3015   3016   3032     1  0.0000000  0.0000000  3
   3017   3015   3016   3019     1  0.0000000  0.6508444  3
   3017   3015   3021   3027     1  0.0000000  0.6973333  3
   3018   3014   3011   3023     1  0.0000000  1.0460000  1
   3018   3014   3011   3023     1  0.0000000  0.0000000  3
   3018   3014   3015   3021     1  0.0000000  1.0460000  1
   3018   3014   3015   3021     1  0.0000000  0.0000000  3
   3018   3014   3022   3025     1  0.0000000  0.6973333  3
   3019   3016   3015   3021     1  0.0000000  0.6508444  3
   3028   3024   3010   3032     1  0.0000000  1.0460000  1
   3028   3024   3010   3032     1  0.0000000  0.0000000  3
   3028   3024   3030   3031     1  0.0000000  0.6973333  3
   3029   3024   3010   3032     1  0.0000000  1.0460000  1
   3029   3024   3010   3032     1  0.0000000  0.0000000  3
   3029   3024   3030   3031     1  0.0000000  0.6973333  3
   3033   3034   3037   3041     1  0.0000000  0.6508444  3
   3033   3034   3046   3049     1  0.0000000  1.0460000  1
   3033   3034   3046   3049     1  0.0000000  0.6694400  3
   3033   3047   3053   3054     1  0.0000000  1.0460000  1
   3033   3047   3053   3054     1  0.0000000  0.6694400  3
   3033   3055   3039   3042     1  0.0000000  1.6038667  3
   3034   3037   3038   3040     1  0.0000000  0.6508444  3
   3034   3037   3045   3048     1  0.0000000  1.0460000  1
   3034   3037   3045   3048     1  0.0000000  0.6694400  3
   3034   3033   3047   3051     1  0.0000000  0.6508444  3
   3034   3033   3047   3052     1  0.0000000  0.6508444  3
   3035   3033   3034   3037     1  0.0000000  0.6508444  3
   3035   3033   3034   3046     1  0.0000000  1.0460000  1
   3035   3033   3034   3046     1  0.0000000  0.0000000  3
   3035   3033   3034   3036     1  0.0000000  0.6508444  3
   3035   3033   3047   3053     1  0.0000000  1.0460000  1
   3035   3033   3047   3053     1  0.0000000  0.0000000  3
   3035   3033   3047   3051     1  0.0000000  0.6508444  3
   3035   3033   3047   3052     1  0.0000000  0.6508444  3
   3035   3033   3055   3039     1  0.0000000  1.6038667  3
   3036   3034   3037   3038     1  0.0000000  0.6508444  3
   3036   3034   3037   3045     1  0.0000000  1.0460000  1
   3036   3034   3037   3045     1  0.0000000  0.0000000  3
   3036   3034   3037   3041     1  0.0000000  0.6508444  3
   3036   3034   3046   3049     1  0.0000000  0.6973333  3
   3036   3034   3033   3047     1  0.0000000  0.6508444  3
   3036   3034   3033   3055     1  0.0000000  1.0460000  1
   3036   3034   3033   3055     1  0.0000000  0.0000000  3
   3037   3038   3039   3042     1  0.0000000  0.6508444  3
   3037   3038   3044   3050     1  0.0000000  1.0460000  1
   3037   3038   3044   3050     1  0.0000000  0.6694400  3
   3037   3034   3046   3049     1  0.0000000  1.0460000  1
   3037   3034   3046   3049     1  0.0000000  0.6694400  3
   3038   3037   3045   3048     1  0.0000000  1.0460000  1
   3038   3037   3045   3048     1  0.0000000  0.6694400  3
   3039   3038   3044   3050     1  0.0000000  1.0460000  1
   3039   3038   3044   3050     1  0.0000000  0.6694400  3
   3039   3038   3037   3041     1  0.0000000  0.6508444  3
   3040   3038   3039   3043     1  0.0000000  1.0460000  1
   3040   3038   3039   3043     1  0.0000000  0.0000000  3
   3040   3038   3039   3055     1  0.0000000  1.0460000  1
   3040   3038   3039   3055     1  0.0000000  0.0000000  3
   3040   3038   3039   3042     1  0.0000000  0.6508444  3
   3040   3038   3044   3050     1  0.0000000  0.6973333  3
   3040   3038   3037   3045     1  0.0000000  1.0460000  1
   3040   3038   3037   3045     1  0.0000000  0.0000000  3
   3040   3038   3037   3041     1  0.0000000  0.6508444  3
   3041   3037   3038   3044     1  0.0000000  1.0460000  1
   3041   3037   3038   3044     1  0.0000000  0.0000000  3
   3041   3037   3045   3048     1  0.0000000  0.6973333  3
   3041   3037   3034   3046     1  0.0000000  1.0460000  1
   3041   3037   3034   3046     1  0.0000000  0.0000000  3
   3042   3039   3038   3044     1  0.0000000  0.6508444  3
   3051   3047   3053   3054     1  0.0000000  0.6973333  3
   3051   3047   3033   3055     1  0.0000000  1.0460000  1
   3051   3047   3033   3055     1  0.0000000  0.0000000  3
   3052   3047   3053   3054     1  0.0000000  0.6973333  3
   3052   3047   3033   3055     1  0.0000000  1.0460000  1
   3052   3047   3033   3055     1  0.0000000  0.0000000  3
   3056   3057   3060   3064     1  0.0000000  0.6508444  3
   3056   3057   3069   3072     1  0.0000000  1.0460000  1
   3056   3057   3069   3072     1  0.0000000  0.6694400  3
   3056   3070   3076   3077     1  0.0000000  1.0460000  1
   3056   3070   3076   3077     1  0.0000000  0.6694400  3
   3056   3078   3062   3065     1  0.0000000  1.6038667  3
   3057   3056   3070   3074     1  0.0000000  0.6508444  3
   3057   3056   3070   3075     1  0.0000000  0.6508444  3
   3057   3060   3061   3063     1  0.0000000  0.6508444  3
   3057   3060   3068   3071     1  0.0000000  1.0460000  1
   3057   3060   3068   3071     1  0.0000000  0.6694400  3
   3058   3056   3057   3060     1  0.0000000  0.6508444  3
   3058   3056   3057   3069     1  0.0000000  1.0460000  1
   3058   3056   3057   3069     1  0.0000000  0.0000000  3
   3058   3056   3057   3059     1  0.0000000  0.6508444  3
   3058   3056   3070   3076     1  0.0000000  1.0460000  1
   3058   3056   3070   3076     1  0.0000000  0.0000000  3
   3058   3056   3070   3074     1  0.0000000  0.6508444  3
   3058   3056   3070   3075     1  0.0000000  0.6508444  3
   3058   3056   3078   3062     1  0.0000000  1.6038667  3
   3059   3057   3056   3070     1  0.0000000  0.6508444  3
   3059   3057   3056   3078     1  0.0000000  1.0460000  1
   3059   3057   3056   3078     1  0.0000000  0.0000000  3
   3059   3057   3060   3061     1  0.0000000  0.6508444  3
   3059   3057   3060   3068     1  0.0000000  1.0460000  1
   3059   3057   3060   3068     1  0.0000000  0.0000000  3
   3059   3057   3060   3064     1  0.0000000  0.6508444  3
   3059   3057   3069   3072     1  0.0000000  0.6973333  3
   3060   3057   3069   3072     1  0.0000000  1.0460000  1
   3060   3057   3069   3072     1  0.0000000  0.6694400  3
   3060   3061   3062   3065     1  0.0000000  0.6508444  3
   3060   3061   3067   3073     1  0.0000000  1.0460000  1
   3060   3061   3067   3073     1  0.0000000  0.6694400  3
   3061   3060   3068   3071     1  0.0000000  1.0460000  1
   3061   3060   3068   3071     1  0.0000000  0.6694400  3
   3062   3061   3060   3064     1  0.0000000  0.6508444  3
   3062   3061   3067   3073     1  0.0000000  1.0460000  1
   3062   3061   3067   3073     1  0.0000000  0.6694400  3
   3063   3061   3060   3068     1  0.0000000  1.0460000  1
   3063   3061   3060   3068     1  0.0000000  0.0000000  3
   3063   3061   3060   3064     1  0.0000000  0.6508444  3
   3063   3061   3062   3066     1  0.0000000  1.0460000  1
   3063   3061   3062   3066     1  0.0000000  0.0000000  3
   3063   3061   3062   3078     1  0.0000000  1.0460000  1
   3063   3061   3062   3078     1  0.0000000  0.0000000  3
   3063   3061   3062   3065     1  0.0000000  0.6508444  3
   3063   3061   3067   3073     1  0.0000000  0.6973333  3
   3064   3060   3057   3069     1  0.0000000  1.0460000  1
   3064   3060   3057   3069     1  0.0000000  0.0000000  3
   3064   3060   3061   3067     1  0.0000000  1.0460000  1
   3064   3060   3061   3067     1  0.0000000  0.0000000  3
   3064   3060   3068   3071     1  0.0000000  0.6973333  3
   3065   3062   3061   3067     1  0.0000000  0.6508444  3
   3074   3070   3056   3078     1  0.0000000  1.0460000  1
   3074   3070   3056   3078     1  0.0000000  0.0000000  3
   3074   3070   3076   3077     1  0.0000000  0.6973333  3
   3075   3070   3056   3078     1  0.0000000  1.0460000  1
   3075   3070   3056   3078     1  0.0000000  0.0000000  3
   3075   3070   3076   3077     1  0.0000000  0.6973333  3
   3079   3080   3083   3087     1  0.0000000  0.6508444  3
   3079   3080   3092   3095     1  0.0000000  1.0460000  1
   3079   3080   3092   3095     1  0.0000000  0.6694400  3
   3079   3093   3099   3100     1  0.0000000  1.0460000  1
   3079   3093   3099   3100     1  0.0000000  0.6694400  3
   3079   3101   3085   3088     1  0.0000000  1.6038667  3
   3080   3083   3084   3086     1  0.0000000  0.6508444  3
   3080   3083   3091   3094     1  0.0000000  1.0460000  1
   3080   3083   3091   3094     1  0.0000000  0.6694400  3
   3080   3079   3093   3097     1  0.0000000  0.6508444  3
   3080   3079   3093   3098     1  0.0000000  0.6508444  3
   3081   3079   3080   3083     1  0.0000000  0.6508444  3
   3081   3079   3080   3092     1  0.0000000  1.0460000  1
   3081   3079   3080   3092     1  0.0000000  0.0000000  3
   3081   3079   3080   3082     1  0.0000000  0.6508444  3
   3081   3079   3093   3099     1  0.0000000  1.0460000  1
   3081   3079   3093   3099     1  0.0000000  0.0000000  3
   3081   3079   3093   3097     1  0.0000000  0.6508444  3
   3081   3079   3093   3098     1  0.0000000  0.6508444  3
   3081   3079   3101   3085     1  0.0000000  1.6038667  3
   3082   3080   3083   3084     1  0.0000000  0.6508444  3
   3082   3080   3083   3091     1  0.0000000  1.0460000  1
   3082   3080   3083   3091     1  0.0000000  0.0000000  3
   3082   3080   3083   3087     1  0.0000000  0.6508444  3
   3082   3080   3092   3095     1  0.0000000  0.6973333  3
   3082   3080   3079   3093     1  0.0000000  0.6508444  3
   3082   3080   3079   3101     1  0.0000000  1.0460000  1
   3082   3080   3079   3101     1  0.0000000  0.0000000  3
   3083   3084   3085   3088     1  0.0000000  0.6508444  3
   3083   3084   3090   3096     1  0.0000000  1.0460000  1
   3083   3084   3090   3096     1  0.0000000  0.6694400  3
   3083   3080   3092   3095     1  0.0000000  1.0460000  1
   3083   3080   3092   3095     1  0.0000000  0.6694400  3
   3084   3083   3091   3094     1  0.0000000  1.0460000  1
   3084   3083   3091   3094     1  0.0000000  0.6694400  3
   3085   3084   3090   3096     1  0.0000000  1.0460000  1
   3085   3084   3090   3096     1  0.0000000  0.6694400  3
   3085   3084   3083   3087     1  0.0000000  0.6508444  3
   3086   3084   3085   3089     1  0.0000000  1.0460000  1
   3086   3084   3085   3089     1  0.0000000  0.0000000  3
   3086   3084   3085   3101     1  0.0000000  1.0460000  1
   3086   3084   3085   3101     1  0.0000000  0.0000000  3
   3086   3084   3085   3088     1  0.0000000  0.6508444  3
   3086   3084   3090   3096     1  0.0000000  0.6973333  3
   3086   3084   3083   3091     1  0.0000000  1.0460000  1
   3086   3084   3083   3091     1  0.0000000  0.0000000  3
   3086   3084   3083   3087     1  0.0000000  0.6508444  3
   3087   3083   3084   3090     1  0.0000000  1.0460000  1
   3087   3083   3084   3090     1  0.0000000  0.0000000  3
   3087   3083   3091   3094     1  0.0000000  0.6973333  3
   3087   3083   3080   3092     1  0.0000000  1.0460000  1
   3087   3083   3080   3092     1  0.0000000  0.0000000  3
   3088   3085   3084   3090     1  0.0000000  0.6508444  3
   3097   3093   3099   3100     1  0.0000000  0.6973333  3
   3097   3093   3079   3101     1  0.0000000  1.0460000  1
   3097   3093   3079   3101     1  0.0000000  0.0000000  3
   3098   3093   3099   3100     1  0.0000000  0.6973333  3
   3098   3093   3079   3101     1  0.0000000  1.0460000  1
   3098   3093   3079   3101     1  0.0000000  0.0000000  3
   3102   3103   3106   3110     1  0.0000000  0.6508444  3
   3102   3103   3115   3118     1  0.0000000  1.0460000  1
   3102   3103   3115   3118     1  0.0000000  0.6694400  3
   3102   3116   3122   3123     1  0.0000000  1.0460000  1
   3102   3116   3122   3123     1  0.0000000  0.6694400  3
   3102   3124   3108   3111     1  0.0000000  1.6038667  3
   3103   3102   3116   3120     1  0.0000000  0.6508444  3
   3103   3102   3116   3121     1  0.0000000  0.6508444  3
   3103   3106   3107   3109     1  0.0000000  0.6508444  3
   3103   3106   3114   3117     1  0.0000000  1.0460000  1
   3103   3106   3114   3117     1  0.0000000  0.6694400  3
   3104   3102   3103   3106     1  0.0000000  0.6508444  3
   3104   3102   3103   3115     1  0.0000000  1.0460000  1
   3104   3102   3103   3115     1  0.0000000  0.0000000  3
   3104   3102   3103   3105     1  0.0000000  0.6508444  3
   3104   3102   3116   3122     1  0.0000000  1.0460000  1
   3104   3102   3116   3122     1  0.0000000  0.0000000  3
   3104   3102   3116   3120     1  0.0000000  0.6508444  3
   3104   3102   3116   3121     1  0.0000000  0.6508444  3
   3104   3102   3124   3108     1  0.0000000  1.6038667  3
   3105   3103   3102   3116     1  0.0000000  0.6508444  3
   3105   3103   3102   3124     1  0.0000000  1.0460000  1
   3105   3103   3102   3124     1  0.0000000  0.0000000  3
   3105   3103   3106   3107     1  0.0000000  0.6508444  3
   3105   3103   3106   3114     1  0.0000000  1.0460000  1
   3105   3103   3106   3114     1  0.0000000  0.0000000  3
   3105   3103   3106   3110     1  0.0000000  0.6508444  3
   3105   3103   3115   3118     1  0.0000000  0.6973333  3
   3106   3103   3115   3118     1  0.0000000  1.0460000  1
   3106   3103   3115   3118     1  0.0000000  0.6694400  3
   3106   3107   3108   3111     1  0.0000000  0.6508444  3
   3106   3107   3113   3119     1  0.0000000  1.0460000  1
   3106   3107   3113   3119     1  0.0000000  0.6694400  3
   3107   3106   3114   3117     1  0.0000000  1.0460000  1
   3107   3106   3114   3117     1  0.0000000  0.6694400  3
   3108   3107   3106   3110     1  0.0000000  0.6508444  3
   3108   3107   3113   3119     1  0.0000000  1.0460000  1
   3108   3107   3113   3119     1  0.0000000  0.6694400  3
   3109   3107   3106   3114     1  0.0000000  1.0460000  1
   3109   3107   3106   3114     1  0.0000000  0.0000000  3
   3109   3107   3106   3110     1  0.0000000  0.6508444  3
   3109   3107   3108   3112     1  0.0000000  1.0460000  1
   3109   3107   3108   3112     1  0.0000000  0.0000000  3
   3109   3107   3108   3124     1  0.0000000  1.0460000  1
   3109   3107   3108   3124     1  0.0000000  0.0000000  3
   3109   3107   3108   3111     1  0.0000000  0.6508444  3
   3109   3107   3113   3119     1  0.0000000  0.6973333  3
   3110   3106   3103   3115     1  0.0000000  1.0460000  1
   3110   3106   3103   3115     1  0.0000000  0.0000000  3
   3110   3106   3107   3113     1  0.0000000  1.0460000  1
   3110   3106   3107   3113     1  0.0000000  0.0000000  3
   3110   3106   3114   3117     1  0.0000000  0.6973333  3
   3111   3108   3107   3113     1  0.0000000  0.6508444  3
   3120   3116   3102   3124     1  0.0000000  1.0460000  1
   3120   3116   3102   3124     1  0.0000000  0.0000000  3
   3120   3116   3122   3123     1  0.0000000  0.6973333  3
   3121   3116   3102   3124     1  0.0000000  1.0460000  1
   3121   3116   3102   3124     1  0.0000000  0.0000000  3
   3121   3116   3122   3123     1  0.0000000  0.6973333  3
   3125   3126   3129   3133     1  0.0000000  0.6508444  3
   3125   3126   3138   3141     1  0.0000000  1.0460000  1
   3125   3126   3138   3141     1  0.0000000  0.6694400  3
   3125   3139   3145   3146     1  0.0000000  1.0460000  1
   3125   3139   3145   3146     1  0.0000000  0.6694400  3
   3125   3147   3131   3134     1  0.0000000  1.6038667  3
   3126   3129   3130   3132     1  0.0000000  0.6508444  3
   3126   3129   3137   3140     1  0.0000000  1.0460000  1
   3126   3129   3137   3140     1  0.0000000  0.6694400  3
   3126   3125   3139   3143     1  0.0000000  0.6508444  3
   3126   3125   3139   3144     1  0.0000000  0.6508444  3
   3127   3125   3126   3129     1  0.0000000  0.6508444  3
   3127   3125   3126   3138     1  0.0000000  1.0460000  1
   3127   3125   3126   3138     1  0.0000000  0.0000000  3
   3127   3125   3126   3128     1  0.0000000  0.6508444  3
   3127   3125   3139   3145     1  0.0000000  1.0460000  1
   3127   3125   3139   3145     1  0.0000000  0.0000000  3
   3127   3125   3139   3143     1  0.0000000  0.6508444  3
   3127   3125   3139   3144     1  0.0000000  0.6508444  3
   3127   3125   3147   3131     1  0.0000000  1.6038667  3
   3128   3126   3129   3130     1  0.0000000  0.6508444  3
   3128   3126   3129   3137     1  0.0000000  1.0460000  1
   3128   3126   3129   3137     1  0.0000000  0.0000000  3
   3128   3126   3129   3133     1  0.0000000  0.6508444  3
   3128   3126   3138   3141     1  0.0000000  0.6973333  3
   3128   3126   3125   3139     1  0.0000000  0.6508444  3
   3128   3126   3125   3147     1  0.0000000  1.0460000  1
   3128   3126   3125   3147     1  0.0000000  0.0000000  3
   3129   3130   3131   3134     1  0.0000000  0.6508444  3
   3129   3130   3136   3142     1  0.0000000  1.0460000  1
   3129   3130   3136   3142     1  0.0000000  0.6694400  3
   3129   3126   3138   3141     1  0.0000000  1.0460000  1
   3129   3126   3138   3141     1  0.0000000  0.6694400  3
   3130   3129   3137   3140     1  0.0000000  1.0460000  1
   3130   3129   3137   3140     1  0.0000000  0.6694400  3
   3131   3130   3136   3142     1  0.0000000  1.0460000  1
   3131   3130   3136   3142     1  0.0000000  0.6694400  3
   3131   3130   3129   3133     1  0.0000000  0.6508444  3
   3132   3130   3131   3135     1  0.0000000  1.0460000  1
   3132   3130   3131   3135     1  0.0000000  0.0000000  3
   3132   3130   3131   3147     1  0.0000000  1.0460000  1
   3132   3130   3131   3147     1  0.0000000  0.0000000  3
   3132   3130   3131   3134     1  0.0000000  0.6508444  3
   3132   3130   3136   3142     1  0.0000000  0.6973333  3
   3132   3130   3129   3137     1  0.0000000  1.0460000  1
   3132   3130   3129   3137     1  0.0000000  0.0000000  3
   3132   3130   3129   3133     1  0.0000000  0.6508444  3
   3133   3129   3130   3136     1  0.0000000  1.0460000  1
   3133   3129   3130   3136     1  0.0000000  0.0000000  3
   3133   3129   3137   3140     1  0.0000000  0.6973333  3
   3133   3129   3126   3138     1  0.0000000  1.0460000  1
   3133   3129   3126   3138     1  0.0000000  0.0000000  3
   3134   3131   3130   3136     1  0.0000000  0.6508444  3
   3143   3139   3145   3146     1  0.0000000  0.6973333  3
   3143   3139   3125   3147     1  0.0000000  1.0460000  1
   3143   3139   3125   3147     1  0.0000000  0.0000000  3
   3144   3139   3145   3146     1  0.0000000  0.6973333  3
   3144   3139   3125   3147     1  0.0000000  1.0460000  1
   3144   3139   3125   3147     1  0.0000000  0.0000000  3
   3148   3149   3152   3156     1  0.0000000  0.6508444  3
   3148   3149   3161   3164     1  0.0000000  1.0460000  1
   3148   3149   3161   3164     1  0.0000000  0.6694400  3
   3148   3162   3168   3169     1  0.0000000  1.0460000  1
   3148   3162   3168   3169     1  0.0000000  0.6694400  3
   3148   3170   3154   3157     1  0.0000000  1.6038667  3
   3149   3148   3162   3166     1  0.0000000  0.6508444  3
   3149   3148   3162   3167     1  0.0000000  0.6508444  3
   3149   3152   3153   3155     1  0.0000000  0.6508444  3
   3149   3152   3160   3163     1  0.0000000  1.0460000  1
   3149   3152   3160   3163     1  0.0000000  0.6694400  3
   3150   3148   3149   3152     1  0.0000000  0.6508444  3
   3150   3148   3149   3161     1  0.0000000  1.0460000  1
   3150   3148   3149   3161     1  0.0000000  0.0000000  3
   3150   3148   3149   3151     1  0.0000000  0.6508444  3
   3150   3148   3162   3168     1  0.0000000  1.0460000  1
   3150   3148   3162   3168     1  0.0000000  0.0000000  3
   3150   3148   3162   3166     1  0.0000000  0.6508444  3
   3150   3148   3162   3167     1  0.0000000  0.6508444  3
   3150   3148   3170   3154     1  0.0000000  1.6038667  3
   3151   3149   3148   3162     1  0.0000000  0.6508444  3
   3151   3149   3148   3170     1  0.0000000  1.0460000  1
   3151   3149   3148   3170     1  0.0000000  0.0000000  3
   3151   3149   3152   3153     1  0.0000000  0.6508444  3
   3151   3149   3152   3160     1  0.0000000  1.0460000  1
   3151   3149   3152   3160     1  0.0000000  0.0000000  3
   3151   3149   3152   3156     1  0.0000000  0.6508444  3
   3151   3149   3161   3164     1  0.0000000  0.6973333  3
   3152   3149   3161   3164     1  0.0000000  1.0460000  1
   3152   3149   3161   3164     1  0.0000000  0.6694400  3
   3152   3153   3154   3157     1  0.0000000  0.6508444  3
   3152   3153   3159   3165     1  0.0000000  1.0460000  1
   3152   3153   3159   3165     1  0.0000000  0.6694400  3
   3153   3152   3160   3163     1  0.0000000  1.0460000  1
   3153   3152   3160   3163     1  0.0000000  0.6694400  3
   3154   3153   3152   3156     1  0.0000000  0.6508444  3
   3154   3153   3159   3165     1  0.0000000  1.0460000  1
   3154   3153   3159   3165     1  0.0000000  0.6694400  3
   3155   3153   3152   3160     1  0.0000000  1.0460000  1
   3155   3153   3152   3160     1  0.0000000  0.0000000  3
   3155   3153   3152   3156     1  0.0000000  0.6508444  3
   3155   3153   3154   3158     1  0.0000000  1.0460000  1
   3155   3153   3154   3158     1  0.0000000  0.0000000  3
   3155   3153   3154   3170     1  0.0000000  1.0460000  1
   3155   3153   3154   3170     1  0.0000000  0.0000000  3
   3155   3153   3154   3157     1  0.0000000  0.6508444  3
   3155   3153   3159   3165     1  0.0000000  0.6973333  3
   3156   3152   3149   3161     1  0.0000000  1.0460000  1
   3156   3152   3149   3161     1  0.0000000  0.0000000  3
   3156   3152   3153   3159     1  0.0000000  1.0460000  1
   3156   3152   3153   3159     1  0.0000000  0.0000000  3
   3156   3152   3160   3163     1  0.0000000  0.6973333  3
   3157   3154   3153   3159     1  0.0000000  0.6508444  3
   3166   3162   3148   3170     1  0.0000000  1.0460000  1
   3166   3162   3148   3170     1  0.0000000  0.0000000  3
   3166   3162   3168   3169     1  0.0000000  0.6973333  3
   3167   3162   3148   3170     1  0.0000000  1.0460000  1
   3167   3162   3148   3170     1  0.0000000  0.0000000  3
   3167   3162   3168   3169     1  0.0000000  0.6973333  3
   3171   3172   3175   3179     1  0.0000000  0.6508444  3
   3171   3172   3184   3187     1  0.0000000  1.0460000  1
   3171   3172   3184   3187     1  0.0000000  0.6694400  3
   3171   3185   3191   3192     1  0.0000000  1.0460000  1
   3171   3185   3191   3192     1  0.0000000  0.6694400  3
   3171   3193   3177   3180     1  0.0000000  1.6038667  3
   3172   3175   3176   3178     1  0.0000000  0.6508444  3
   3172   3175   3183   3186     1  0.0000000  1.0460000  1
   3172   3175   3183   3186     1  0.0000000  0.6694400  3
   3172   3171   3185   3189     1  0.0000000  0.6508444  3
   3172   3171   3185   3190     1  0.0000000  0.6508444  3
   3173   3171   3172   3175     1  0.0000000  0.6508444  3
   3173   3171   3172   3184     1  0.0000000  1.0460000  1
   3173   3171   3172   3184     1  0.0000000  0.0000000  3
   3173   3171   3172   3174     1  0.0000000  0.6508444  3
   3173   3171   3185   3191     1  0.0000000  1.0460000  1
   3173   3171   3185   3191     1  0.0000000  0.0000000  3
   3173   3171   3185   3189     1  0.0000000  0.6508444  3
   3173   3171   3185   3190     1  0.0000000  0.6508444  3
   3173   3171   3193   3177     1  0.0000000  1.6038667  3
   3174   3172   3175   3176     1  0.0000000  0.6508444  3
   3174   3172   3175   3183     1  0.0000000  1.0460000  1
   3174   3172   3175   3183     1  0.0000000  0.0000000  3
   3174   3172   3175   3179     1  0.0000000  0.6508444  3
   3174   3172   3184   3187     1  0.0000000  0.6973333  3
   3174   3172   3171   3185     1  0.0000000  0.6508444  3
   3174   3172   3171   3193     1  0.0000000  1.0460000  1
   3174   3172   3171   3193     1  0.0000000  0.0000000  3
   3175   3176   3177   3180     1  0.0000000  0.6508444  3
   3175   3176   3182   3188     1  0.0000000  1.0460000  1
   3175   3176   3182   3188     1  0.0000000  0.6694400  3
   3175   3172   3184   3187     1  0.0000000  1.0460000  1
   3175   3172   3184   3187     1  0.0000000  0.6694400  3
   3176   3175   3183   3186     1  0.0000000  1.0460000  1
   3176   3175   3183   3186     1  0.0000000  0.6694400  3
   3177   3176   3182   3188     1  0.0000000  1.0460000  1
   3177   3176   3182   3188     1  0.0000000  0.6694400  3
   3177   3176   3175   3179     1  0.0000000  0.6508444  3
   3178   3176   3177   3181     1  0.0000000  1.0460000  1
   3178   3176   3177   3181     1  0.0000000  0.0000000  3
   3178   3176   3177   3193     1  0.0000000  1.0460000  1
   3178   3176   3177   3193     1  0.0000000  0.0000000  3
   3178   3176   3177   3180     1  0.0000000  0.6508444  3
   3178   3176   3182   3188     1  0.0000000  0.6973333  3
   3178   3176   3175   3183     1  0.0000000  1.0460000  1
   3178   3176   3175   3183     1  0.0000000  0.0000000  3
   3178   3176   3175   3179     1  0.0000000  0.6508444  3
   3179   3175   3176   3182     1  0.0000000  1.0460000  1
   3179   3175   3176   3182     1  0.0000000  0.0000000  3
   3179   3175   3183   3186     1  0.0000000  0.6973333  3
   3179   3175   3172   3184     1  0.0000000  1.0460000  1
   3179   3175   3172   3184     1  0.0000000  0.0000000  3
   3180   3177   3176   3182     1  0.0000000  0.6508444  3
   3189   3185   3191   3192     1  0.0000000  0.6973333  3
   3189   3185   3171   3193     1  0.0000000  1.0460000  1
   3189   3185   3171   3193     1  0.0000000  0.0000000  3
   3190   3185   3191   3192     1  0.0000000  0.6973333  3
   3190   3185   3171   3193     1  0.0000000  1.0460000  1
   3190   3185   3171   3193     1  0.0000000  0.0000000  3
   3194   3195   3198   3202     1  0.0000000  0.6508444  3
   3194   3195   3207   3210     1  0.0000000  1.0460000  1
   3194   3195   3207   3210     1  0.0000000  0.6694400  3
   3194   3208   3214   3215     1  0.0000000  1.0460000  1
   3194   3208   3214   3215     1  0.0000000  0.6694400  3
   3194   3216   3200   3203     1  0.0000000  1.6038667  3
   3195   3194   3208   3212     1  0.0000000  0.6508444  3
   3195   3194   3208   3213     1  0.0000000  0.6508444  3
   3195   3198   3199   3201     1  0.0000000  0.6508444  3
   3195   3198   3206   3209     1  0.0000000  1.0460000  1
   3195   3198   3206   3209     1  0.0000000  0.6694400  3
   3196   3194   3195   3198     1  0.0000000  0.6508444  3
   3196   3194   3195   3207     1  0.0000000  1.0460000  1
   3196   3194   3195   3207     1  0.0000000  0.0000000  3
   3196   3194   3195   3197     1  0.0000000  0.6508444  3
   3196   3194   3208   3214     1  0.0000000  1.0460000  1
   3196   3194   3208   3214     1  0.0000000  0.0000000  3
   3196   3194   3208   3212     1  0.0000000  0.6508444  3
   3196   3194   3208   3213     1  0.0000000  0.6508444  3
   3196   3194   3216   3200     1  0.0000000  1.6038667  3
   3197   3195   3194   3208     1  0.0000000  0.6508444  3
   3197   3195   3194   3216     1  0.0000000  1.0460000  1
   3197   3195   3194   3216     1  0.0000000  0.0000000  3
   3197   3195   3198   3199     1  0.0000000  0.6508444  3
   3197   3195   3198   3206     1  0.0000000  1.0460000  1
   3197   3195   3198   3206     1  0.0000000  0.0000000  3
   3197   3195   3198   3202     1  0.0000000  0.6508444  3
   3197   3195   3207   3210     1  0.0000000  0.6973333  3
   3198   3195   3207   3210     1  0.0000000  1.0460000  1
   3198   3195   3207   3210     1  0.0000000  0.6694400  3
   3198   3199   3200   3203     1  0.0000000  0.6508444  3
   3198   3199   3205   3211     1  0.0000000  1.0460000  1
   3198   3199   3205   3211     1  0.0000000  0.6694400  3
   3199   3198   3206   3209     1  0.0000000  1.0460000  1
   3199   3198   3206   3209     1  0.0000000  0.6694400  3
   3200   3199   3198   3202     1  0.0000000  0.6508444  3
   3200   3199   3205   3211     1  0.0000000  1.0460000  1
   3200   3199   3205   3211     1  0.0000000  0.6694400  3
   3201   3199   3198   3206     1  0.0000000  1.0460000  1
   3201   3199   3198   3206     1  0.0000000  0.0000000  3
   3201   3199   3198   3202     1  0.0000000  0.6508444  3
   3201   3199   3200   3204     1  0.0000000  1.0460000  1
   3201   3199   3200   3204     1  0.0000000  0.0000000  3
   3201   3199   3200   3216     1  0.0000000  1.0460000  1
   3201   3199   3200   3216     1  0.0000000  0.0000000  3
   3201   3199   3200   3203     1  0.0000000  0.6508444  3
   3201   3199   3205   3211     1  0.0000000  0.6973333  3
   3202   3198   3195   3207     1  0.0000000  1.0460000  1
   3202   3198   3195   3207     1  0.0000000  0.0000000  3
   3202   3198   3199   3205     1  0.0000000  1.0460000  1
   3202   3198   3199   3205     1  0.0000000  0.0000000  3
   3202   3198   3206   3209     1  0.0000000  0.6973333  3
   3203   3200   3199   3205     1  0.0000000  0.6508444  3
   3212   3208   3194   3216     1  0.0000000  1.0460000  1
   3212   3208   3194   3216     1  0.0000000  0.0000000  3
   3212   3208   3214   3215     1  0.0000000  0.6973333  3
   3213   3208   3194   3216     1  0.0000000  1.0460000  1
   3213   3208   3194   3216     1  0.0000000  0.0000000  3
   3213   3208   3214   3215     1  0.0000000  0.6973333  3
   3217   3218   3221   3225     1  0.0000000  0.6508444  3
   3217   3218   3230   3233     1  0.0000000  1.0460000  1
   3217   3218   3230   3233     1  0.0000000  0.6694400  3
   3217   3231   3237   3238     1  0.0000000  1.0460000  1
   3217   3231   3237   3238     1  0.0000000  0.6694400  3
   3217   3239   3223   3226     1  0.0000000  1.6038667  3
   3218   3221   3222   3224     1  0.0000000  0.6508444  3
   3218   3221   3229   3232     1  0.0000000  1.0460000  1
   3218   3221   3229   3232     1  0.0000000  0.6694400  3
   3218   3217   3231   3235     1  0.0000000  0.6508444  3
   3218   3217   3231   3236     1  0.0000000  0.6508444  3
   3219   3217   3218   3221     1  0.0000000  0.6508444  3
   3219   3217   3218   3230     1  0.0000000  1.0460000  1
   3219   3217   3218   3230     1  0.0000000  0.0000000  3
   3219   3217   3218   3220     1  0.0000000  0.6508444  3
   3219   3217   3231   3237     1  0.0000000  1.0460000  1
   3219   3217   3231   3237     1  0.0000000  0.0000000  3
   3219   3217   3231   3235     1  0.0000000  0.6508444  3
   3219   3217   3231   3236     1  0.0000000  0.6508444  3
   3219   3217   3239   3223     1  0.0000000  1.6038667  3
   3220   3218   3221   3222     1  0.0000000  0.6508444  3
   3220   3218   3221   3229     1  0.0000000  1.0460000  1
   3220   3218   3221   3229     1  0.0000000  0.0000000  3
   3220   3218   3221   3225     1  0.0000000  0.6508444  3
   3220   3218   3230   3233     1  0.0000000  0.6973333  3
   3220   3218   3217   3231     1  0.0000000  0.6508444  3
   3220   3218   3217   3239     1  0.0000000  1.0460000  1
   3220   3218   3217   3239     1  0.0000000  0.0000000  3
   3221   3222   3223   3226     1  0.0000000  0.6508444  3
   3221   3222   3228   3234     1  0.0000000  1.0460000  1
   3221   3222   3228   3234     1  0.0000000  0.6694400  3
   3221   3218   3230   3233     1  0.0000000  1.0460000  1
   3221   3218   3230   3233     1  0.0000000  0.6694400  3
   3222   3221   3229   3232     1  0.0000000  1.0460000  1
   3222   3221   3229   3232     1  0.0000000  0.6694400  3
   3223   3222   3228   3234     1  0.0000000  1.0460000  1
   3223   3222   3228   3234     1  0.0000000  0.6694400  3
   3223   3222   3221   3225     1  0.0000000  0.6508444  3
   3224   3222   3223   3227     1  0.0000000  1.0460000  1
   3224   3222   3223   3227     1  0.0000000  0.0000000  3
   3224   3222   3223   3239     1  0.0000000  1.0460000  1
   3224   3222   3223   3239     1  0.0000000  0.0000000  3
   3224   3222   3223   3226     1  0.0000000  0.6508444  3
   3224   3222   3228   3234     1  0.0000000  0.6973333  3
   3224   3222   3221   3229     1  0.0000000  1.0460000  1
   3224   3222   3221   3229     1  0.0000000  0.0000000  3
   3224   3222   3221   3225     1  0.0000000  0.6508444  3
   3225   3221   3222   3228     1  0.0000000  1.0460000  1
   3225   3221   3222   3228     1  0.0000000  0.0000000  3
   3225   3221   3229   3232     1  0.0000000  0.6973333  3
   3225   3221   3218   3230     1  0.0000000  1.0460000  1
   3225   3221   3218   3230     1  0.0000000  0.0000000  3
   3226   3223   3222   3228     1  0.0000000  0.6508444  3
   3235   3231   3237   3238     1  0.0000000  0.6973333  3
   3235   3231   3217   3239     1  0.0000000  1.0460000  1
   3235   3231   3217   3239     1  0.0000000  0.0000000  3
   3236   3231   3237   3238     1  0.0000000  0.6973333  3
   3236   3231   3217   3239     1  0.0000000  1.0460000  1
   3236   3231   3217   3239     1  0.0000000  0.0000000  3
   3240   3241   3244   3248     1  0.0000000  0.6508444  3
   3240   3241   3253   3256     1  0.0000000  1.0460000  1
   3240   3241   3253   3256     1  0.0000000  0.6694400  3
   3240   3254   3260   3261     1  0.0000000  1.0460000  1
   3240   3254   3260   3261     1  0.0000000  0.6694400  3
   3240   3262   3246   3249     1  0.0000000  1.6038667  3
   3241   3240   3254   3258     1  0.0000000  0.6508444  3
   3241   3240   3254   3259     1  0.0000000  0.6508444  3
   3241   3244   3245   3247     1  0.0000000  0.6508444  3
   3241   3244   3252   3255     1  0.0000000  1.0460000  1
   3241   3244   3252   3255     1  0.0000000  0.6694400  3
   3242   3240   3241   3244     1  0.0000000  0.6508444  3
   3242   3240   3241   3253     1  0.0000000  1.0460000  1
   3242   3240   3241   3253     1  0.0000000  0.0000000  3
   3242   3240   3241   3243     1  0.0000000  0.6508444  3
   3242   3240   3254   3260     1  0.0000000  1.0460000  1
   3242   3240   3254   3260     1  0.0000000  0.0000000  3
   3242   3240   3254   3258     1  0.0000000  0.6508444  3
   3242   3240   3254   3259     1  0.0000000  0.6508444  3
   3242   3240   3262   3246     1  0.0000000  1.6038667  3
   3243   3241   3240   3254     1  0.0000000  0.6508444  3
   3243   3241   3240   3262     1  0.0000000  1.0460000  1
   3243   3241   3240   3262     1  0.0000000  0.0000000  3
   3243   3241   3244   3245     1  0.0000000  0.6508444  3
   3243   3241   3244   3252     1  0.0000000  1.0460000  1
   3243   3241   3244   3252     1  0.0000000  0.0000000  3
   3243   3241   3244   3248     1  0.0000000  0.6508444  3
   3243   3241   3253   3256     1  0.0000000  0.6973333  3
   3244   3241   3253   3256     1  0.0000000  1.0460000  1
   3244   3241   3253   3256     1  0.0000000  0.6694400  3
   3244   3245   3246   3249     1  0.0000000  0.6508444  3
   3244   3245   3251   3257     1  0.0000000  1.0460000  1
   3244   3245   3251   3257     1  0.0000000  0.6694400  3
   3245   3244   3252   3255     1  0.0000000  1.0460000  1
   3245   3244   3252   3255     1  0.0000000  0.6694400  3
   3246   3245   3244   3248     1  0.0000000  0.6508444  3
   3246   3245   3251   3257     1  0.0000000  1.0460000  1
   3246   3245   3251   3257     1  0.0000000  0.6694400  3
   3247   3245   3244   3252     1  0.0000000  1.0460000  1
   3247   3245   3244   3252     1  0.0000000  0.0000000  3
   3247   3245   3244   3248     1  0.0000000  0.6508444  3
   3247   3245   3246   3250     1  0.0000000  1.0460000  1
   3247   3245   3246   3250     1  0.0000000  0.0000000  3
   3247   3245   3246   3262     1  0.0000000  1.0460000  1
   3247   3245   3246   3262     1  0.0000000  0.0000000  3
   3247   3245   3246   3249     1  0.0000000  0.6508444  3
   3247   3245   3251   3257     1  0.0000000  0.6973333  3
   3248   3244   3241   3253     1  0.0000000  1.0460000  1
   3248   3244   3241   3253     1  0.0000000  0.0000000  3
   3248   3244   3245   3251     1  0.0000000  1.0460000  1
   3248   3244   3245   3251     1  0.0000000  0.0000000  3
   3248   3244   3252   3255     1  0.0000000  0.6973333  3
   3249   3246   3245   3251     1  0.0000000  0.6508444  3
   3258   3254   3240   3262     1  0.0000000  1.0460000  1
   3258   3254   3240   3262     1  0.0000000  0.0000000  3
   3258   3254   3260   3261     1  0.0000000  0.6973333  3
   3259   3254   3240   3262     1  0.0000000  1.0460000  1
   3259   3254   3240   3262     1  0.0000000  0.0000000  3
   3259   3254   3260   3261     1  0.0000000  0.6973333  3
   3263   3264   3267   3271     1  0.0000000  0.6508444  3
   3263   3264   3276   3279     1  0.0000000  1.0460000  1
   3263   3264   3276   3279     1  0.0000000  0.6694400  3
   3263   3277   3283   3284     1  0.0000000  1.0460000  1
   3263   3277   3283   3284     1  0.0000000  0.6694400  3
   3263   3285   3269   3272     1  0.0000000  1.6038667  3
   3264   3267   3268   3270     1  0.0000000  0.6508444  3
   3264   3267   3275   3278     1  0.0000000  1.0460000  1
   3264   3267   3275   3278     1  0.0000000  0.6694400  3
   3264   3263   3277   3281     1  0.0000000  0.6508444  3
   3264   3263   3277   3282     1  0.0000000  0.6508444  3
   3265   3263   3264   3267     1  0.0000000  0.6508444  3
   3265   3263   3264   3276     1  0.0000000  1.0460000  1
   3265   3263   3264   3276     1  0.0000000  0.0000000  3
   3265   3263   3264   3266     1  0.0000000  0.6508444  3
   3265   3263   3277   3283     1  0.0000000  1.0460000  1
   3265   3263   3277   3283     1  0.0000000  0.0000000  3
   3265   3263   3277   3281     1  0.0000000  0.6508444  3
   3265   3263   3277   3282     1  0.0000000  0.6508444  3
   3265   3263   3285   3269     1  0.0000000  1.6038667  3
   3266   3264   3267   3268     1  0.0000000  0.6508444  3
   3266   3264   3267   3275     1  0.0000000  1.0460000  1
   3266   3264   3267   3275     1  0.0000000  0.0000000  3
   3266   3264   3267   3271     1  0.0000000  0.6508444  3
   3266   3264   3276   3279     1  0.0000000  0.6973333  3
   3266   3264   3263   3277     1  0.0000000  0.6508444  3
   3266   3264   3263   3285     1  0.0000000  1.0460000  1
   3266   3264   3263   3285     1  0.0000000  0.0000000  3
   3267   3268   3269   3272     1  0.0000000  0.6508444  3
   3267   3268   3274   3280     1  0.0000000  1.0460000  1
   3267   3268   3274   3280     1  0.0000000  0.6694400  3
   3267   3264   3276   3279     1  0.0000000  1.0460000  1
   3267   3264   3276   3279     1  0.0000000  0.6694400  3
   3268   3267   3275   3278     1  0.0000000  1.0460000  1
   3268   3267   3275   3278     1  0.0000000  0.6694400  3
   3269   3268   3274   3280     1  0.0000000  1.0460000  1
   3269   3268   3274   3280     1  0.0000000  0.6694400  3
   3269   3268   3267   3271     1  0.0000000  0.6508444  3
   3270   3268   3269   3273     1  0.0000000  1.0460000  1
   3270   3268   3269   3273     1  0.0000000  0.0000000  3
   3270   3268   3269   3285     1  0.0000000  1.0460000  1
   3270   3268   3269   3285     1  0.0000000  0.0000000  3
   3270   3268   3269   3272     1  0.0000000  0.6508444  3
   3270   3268   3274   3280     1  0.0000000  0.6973333  3
   3270   3268   3267   3275     1  0.0000000  1.0460000  1
   3270   3268   3267   3275     1  0.0000000  0.0000000  3
   3270   3268   3267   3271     1  0.0000000  0.6508444  3
   3271   3267   3268   3274     1  0.0000000  1.0460000  1
   3271   3267   3268   3274     1  0.0000000  0.0000000  3
   3271   3267   3275   3278     1  0.0000000  0.6973333  3
   3271   3267   3264   3276     1  0.0000000  1.0460000  1
   3271   3267   3264   3276     1  0.0000000  0.0000000  3
   3272   3269   3268   3274     1  0.0000000  0.6508444  3
   3281   3277   3283   3284     1  0.0000000  0.6973333  3
   3281   3277   3263   3285     1  0.0000000  1.0460000  1
   3281   3277   3263   3285     1  0.0000000  0.0000000  3
   3282   3277   3283   3284     1  0.0000000  0.6973333  3
   3282   3277   3263   3285     1  0.0000000  1.0460000  1
   3282   3277   3263   3285     1  0.0000000  0.0000000  3
   3286   3287   3290   3294     1  0.0000000  0.6508444  3
   3286   3287   3299   3302     1  0.0000000  1.0460000  1
   3286   3287   3299   3302     1  0.0000000  0.6694400  3
   3286   3300   3306   3307     1  0.0000000  1.0460000  1
   3286   3300   3306   3307     1  0.0000000  0.6694400  3
   3286   3308   3292   3295     1  0.0000000  1.6038667  3
   3287   3286   3300   3304     1  0.0000000  0.6508444  3
   3287   3286   3300   3305     1  0.0000000  0.6508444  3
   3287   3290   3291   3293     1  0.0000000  0.6508444  3
   3287   3290   3298   3301     1  0.0000000  1.0460000  1
   3287   3290   3298   3301     1  0.0000000  0.6694400  3
   3288   3286   3287   3290     1  0.0000000  0.6508444  3
   3288   3286   3287   3299     1  0.0000000  1.0460000  1
   3288   3286   3287   3299     1  0.0000000  0.0000000  3
   3288   3286   3287   3289     1  0.0000000  0.6508444  3
   3288   3286   3300   3306     1  0.0000000  1.0460000  1
   3288   3286   3300   3306     1  0.0000000  0.0000000  3
   3288   3286   3300   3304     1  0.0000000  0.6508444  3
   3288   3286   3300   3305     1  0.0000000  0.6508444  3
   3288   3286   3308   3292     1  0.0000000  1.6038667  3
   3289   3287   3286   3300     1  0.0000000  0.6508444  3
   3289   3287   3286   3308     1  0.0000000  1.0460000  1
   3289   3287   3286   3308     1  0.0000000  0.0000000  3
   3289   3287   3290   3291     1  0.0000000  0.6508444  3
   3289   3287   3290   3298     1  0.0000000  1.0460000  1
   3289   3287   3290   3298     1  0.0000000  0.0000000  3
   3289   3287   3290   3294     1  0.0000000  0.6508444  3
   3289   3287   3299   3302     1  0.0000000  0.6973333  3
   3290   3287   3299   3302     1  0.0000000  1.0460000  1
   3290   3287   3299   3302     1  0.0000000  0.6694400  3
   3290   3291   3292   3295     1  0.0000000  0.6508444  3
   3290   3291   3297   3303     1  0.0000000  1.0460000  1
   3290   3291   3297   3303     1  0.0000000  0.6694400  3
   3291   3290   3298   3301     1  0.0000000  1.0460000  1
   3291   3290   3298   3301     1  0.0000000  0.6694400  3
   3292   3291   3290   3294     1  0.0000000  0.6508444  3
   3292   3291   3297   3303     1  0.0000000  1.0460000  1
   3292   3291   3297   3303     1  0.0000000  0.6694400  3
   3293   3291   3290   3298     1  0.0000000  1.0460000  1
   3293   3291   3290   3298     1  0.0000000  0.0000000  3
   3293   3291   3290   3294     1  0.0000000  0.6508444  3
   3293   3291   3292   3296     1  0.0000000  1.0460000  1
   3293   3291   3292   3296     1  0.0000000  0.0000000  3
   3293   3291   3292   3308     1  0.0000000  1.0460000  1
   3293   3291   3292   3308     1  0.0000000  0.0000000  3
   3293   3291   3292   3295     1  0.0000000  0.6508444  3
   3293   3291   3297   3303     1  0.0000000  0.6973333  3
   3294   3290   3287   3299     1  0.0000000  1.0460000  1
   3294   3290   3287   3299     1  0.0000000  0.0000000  3
   3294   3290   3291   3297     1  0.0000000  1.0460000  1
   3294   3290   3291   3297     1  0.0000000  0.0000000  3
   3294   3290   3298   3301     1  0.0000000  0.6973333  3
   3295   3292   3291   3297     1  0.0000000  0.6508444  3
   3304   3300   3286   3308     1  0.0000000  1.0460000  1
   3304   3300   3286   3308     1  0.0000000  0.0000000  3
   3304   3300   3306   3307     1  0.0000000  0.6973333  3
   3305   3300   3286   3308     1  0.0000000  1.0460000  1
   3305   3300   3286   3308     1  0.0000000  0.0000000  3
   3305   3300   3306   3307     1  0.0000000  0.6973333  3
   3309   3310   3313   3317     1  0.0000000  0.6508444  3
   3309   3310   3322   3325     1  0.0000000  1.0460000  1
   3309   3310   3322   3325     1  0.0000000  0.6694400  3
   3309   3323   3329   3330     1  0.0000000  1.0460000  1
   3309   3323   3329   3330     1  0.0000000  0.6694400  3
   3309   3331   3315   3318     1  0.0000000  1.6038667  3
   3310   3313   3314   3316     1  0.0000000  0.6508444  3
   3310   3313   3321   3324     1  0.0000000  1.0460000  1
   3310   3313   3321   3324     1  0.0000000  0.6694400  3
   3310   3309   3323   3327     1  0.0000000  0.6508444  3
   3310   3309   3323   3328     1  0.0000000  0.6508444  3
   3311   3309   3310   3313     1  0.0000000  0.6508444  3
   3311   3309   3310   3322     1  0.0000000  1.0460000  1
   3311   3309   3310   3322     1  0.0000000  0.0000000  3
   3311   3309   3310   3312     1  0.0000000  0.6508444  3
   3311   3309   3323   3329     1  0.0000000  1.0460000  1
   3311   3309   3323   3329     1  0.0000000  0.0000000  3
   3311   3309   3323   3327     1  0.0000000  0.6508444  3
   3311   3309   3323   3328     1  0.0000000  0.6508444  3
   3311   3309   3331   3315     1  0.0000000  1.6038667  3
   3312   3310   3313   3314     1  0.0000000  0.6508444  3
   3312   3310   3313   3321     1  0.0000000  1.0460000  1
   3312   3310   3313   3321     1  0.0000000  0.0000000  3
   3312   3310   3313   3317     1  0.0000000  0.6508444  3
   3312   3310   3322   3325     1  0.0000000  0.6973333  3
   3312   3310   3309   3323     1  0.0000000  0.6508444  3
   3312   3310   3309   3331     1  0.0000000  1.0460000  1
   3312   3310   3309   3331     1  0.0000000  0.0000000  3
   3313   3314   3315   3318     1  0.0000000  0.6508444  3
   3313   3314   3320   3326     1  0.0000000  1.0460000  1
   3313   3314   3320   3326     1  0.0000000  0.6694400  3
   3313   3310   3322   3325     1  0.0000000  1.0460000  1
   3313   3310   3322   3325     1  0.0000000  0.6694400  3
   3314   3313   3321   3324     1  0.0000000  1.0460000  1
   3314   3313   3321   3324     1  0.0000000  0.6694400  3
   3315   3314   3320   3326     1  0.0000000  1.0460000  1
   3315   3314   3320   3326     1  0.0000000  0.6694400  3
   3315   3314   3313   3317     1  0.0000000  0.6508444  3
   3316   3314   3315   3319     1  0.0000000  1.0460000  1
   3316   3314   3315   3319     1  0.0000000  0.0000000  3
   3316   3314   3315   3331     1  0.0000000  1.0460000  1
   3316   3314   3315   3331     1  0.0000000  0.0000000  3
   3316   3314   3315   3318     1  0.0000000  0.6508444  3
   3316   3314   3320   3326     1  0.0000000  0.6973333  3
   3316   3314   3313   3321     1  0.0000000  1.0460000  1
   3316   3314   3313   3321     1  0.0000000  0.0000000  3
   3316   3314   3313   3317     1  0.0000000  0.6508444  3
   3317   3313   3314   3320     1  0.0000000  1.0460000  1
   3317   3313   3314   3320     1  0.0000000  0.0000000  3
   3317   3313   3321   3324     1  0.0000000  0.6973333  3
   3317   3313   3310   3322     1  0.0000000  1.0460000  1
   3317   3313   3310   3322     1  0.0000000  0.0000000  3
   3318   3315   3314   3320     1  0.0000000  0.6508444  3
   3327   3323   3329   3330     1  0.0000000  0.6973333  3
   3327   3323   3309   3331     1  0.0000000  1.0460000  1
   3327   3323   3309   3331     1  0.0000000  0.0000000  3
   3328   3323   3329   3330     1  0.0000000  0.6973333  3
   3328   3323   3309   3331     1  0.0000000  1.0460000  1
   3328   3323   3309   3331     1  0.0000000  0.0000000  3

;[ system ]
;; Name
;Generic title
;
;[ molecules ]
;; Compound       #mols
;system1              1
